/*--------------------------------*- C++ -*----------------------------------*\
| =========                 |                                                 |
| \\      /  F ield         | OpenFOAM: The Open Source CFD Toolbox           |
|  \\    /   O peration     | Version:  v1812                                 |
|   \\  /    A nd           | Web:      www.OpenFOAM.com                      |
|    \\/     M anipulation  |                                                 |
\*---------------------------------------------------------------------------*/
FoamFile
{
    version     2.0;
    format      ascii;
    class       surfaceScalarField;
    location    "7";
    object      phi;
}
// * * * * * * * * * * * * * * * * * * * * * * * * * * * * * * * * * * * * * //

dimensions      [0 3 -1 0 0 0 0];
oriented        oriented;


internalField   nonuniform List<scalar> 
1890
(
0.0023175548
4.5172199e-06
0.0023037202
1.383586e-05
0.0022883126
1.5407844e-05
0.0022756283
1.2684271e-05
0.0022662048
9.4235389e-06
0.0022590686
7.1363201e-06
0.0022533687
5.6998251e-06
0.0022486933
4.6754017e-06
0.0022448519
3.8413872e-06
0.0022416965
3.1554751e-06
0.0022390828
2.6137782e-06
0.0022368896
2.1932975e-06
0.0022350299
1.8598529e-06
0.0022334445
1.5856121e-06
0.0022320906
1.3539653e-06
0.0022309352
1.1556175e-06
0.002229951
9.8431008e-07
0.0022291161
8.3502304e-07
0.0022284125
7.0382419e-07
0.0022278247
5.8789013e-07
0.0022273395
4.8534694e-07
0.0022269447
3.9497094e-07
0.0022266289
3.1596475e-07
0.0022263812
2.4776623e-07
0.0022261914
1.8990163e-07
0.0022260496
1.4184717e-07
0.0022259468
1.0293623e-07
0.0022258745
7.2321434e-08
0.0022258256
4.8984821e-08
0.0022257939
3.1806384e-08
0.0022257743
1.9644637e-08
0.0022257629
1.1399206e-08
0.0022257569
6.0768627e-09
0.0022257541
2.834972e-09
0.0022257532
9.8298814e-10
0.0022257532
6.0918871e-11
0.0022257535
-3.0670561e-10
0.0022257539
-4.1880466e-10
0.0022257544
-3.8895293e-10
0.0022257547
-3.0386109e-10
0.0022257549
-2.1406107e-10
0.002225755
-1.3677408e-10
0.0022257551
-8.1127696e-11
0.0022257552
-4.2424657e-11
0.0022257552
-1.9642421e-11
0.0022257552
-5.6459898e-12
0.0022257552
4.7269623e-13
0.0022257552
4.0833462e-12
0.0022257552
4.2731681e-12
0.0022257552
5.0016018e-12
0.0022257552
3.63835e-12
0.0022257552
3.7325857e-12
0.0022257552
2.2950782e-12
0.0022257552
2.4197115e-12
0.0022257552
1.090543e-12
0.0022257552
1.218884e-12
0.0022257552
1.2423769e-13
0.0022257552
2.6427002e-13
0.0022257552
-7.6701483e-13
0.0022257552
-5.2996179e-13
0.0022257552
-1.4745122e-12
0.0022257552
-1.0213984e-12
0.0022257552
-1.9356109e-12
0.0022257552
-1.3526599e-12
0.0022257552
-2.1140825e-12
0.0022257552
-1.3443237e-12
0.0022257552
-1.9930909e-12
0.0022257552
-1.1291095e-12
0.0022257552
-1.5968822e-12
0.0022257552
-6.2802318e-13
0.0022257552
-9.8383282e-13
0.0022257552
-1.055075e-13
0.0022257552
-2.7475862e-13
0.0022257552
6.7661483e-13
0.0022257552
3.0751994e-13
0.0022257552
1.2403931e-12
0.0022257552
7.6652398e-13
0.0022257552
1.6796713e-12
0.0022257552
1.0344437e-12
0.0022257552
1.7976473e-12
0.0022257552
1.0667869e-12
0.0022257552
1.7436932e-12
0.0022257552
9.019143e-13
0.0022257552
1.449309e-12
0.0022257552
6.3466054e-13
0.0022257552
1.1655737e-12
0.0022257552
4.1533505e-13
0.0022257552
9.2284498e-13
0.0022257552
4.6665368e-13
0.0022257552
1.1434648e-12
0.0022257552
1.2565866e-12
0.0022257552
2.2800034e-12
0.0022257552
3.9862076e-12
0.0022257552
6.7289055e-12
0.0022257552
1.4043761e-11
0.0022257552
2.3582049e-11
0.0022257551
4.6569541e-11
0.002225755
7.3349623e-11
0.0022257549
1.5649419e-10
2.0732999e-10
0.0054175694
4.9798144e-06
0.0054120665
1.9340432e-05
0.0054025171
2.4957547e-05
0.0053919745
2.3226663e-05
0.0053820928
1.9305344e-05
0.0053731934
1.6035915e-05
0.0053652037
1.3689553e-05
0.0053580856
1.1793438e-05
0.0053518405
1.0086422e-05
0.0053464301
8.5657849e-06
0.0053417676
7.2763285e-06
0.0053377511
6.2098525e-06
0.0053342896
5.3214134e-06
0.0053313084
4.5669415e-06
0.0053287451
3.9172612e-06
0.0053265467
3.3540834e-06
0.0053246675
2.863585e-06
0.0053230686
2.4339573e-06
0.005321717
2.0554741e-06
0.0053205842
1.7207969e-06
0.0053196449
1.4247092e-06
0.0053188763
1.1636151e-06
0.0053182573
9.350477e-07
0.0053177679
7.3725311e-07
0.0053173891
5.6879174e-07
0.0053171028
4.2816749e-07
0.0053168922
3.1355858e-07
0.0053167419
2.2267271e-07
0.0053166382
1.5276843e-07
0.0053165693
1.007794e-07
0.0053165255
6.3514419e-08
0.0053164991
3.7872622e-08
0.0053164842
2.1019722e-08
0.0053164766
1.0506958e-08
0.0053164732
4.3789953e-09
0.0053164722
1.09859e-09
0.0053164724
-4.2324164e-10
0.0053164729
-9.7657303e-10
0.0053164736
-1.0176676e-09
0.0053164741
-8.464324e-10
0.0053164746
-6.1907431e-10
0.0053164749
-4.1333527e-10
0.005316475
-2.5285507e-10
0.0053164751
-1.4241502e-10
0.0053164752
-7.069313e-11
0.0053164752
-2.958054e-11
0.0053164752
-6.5369858e-12
0.0053164752
3.4203889e-12
0.0053164752
8.3011388e-12
0.0053164752
8.4027668e-12
0.0053164752
8.2907999e-12
0.0053164752
6.3828196e-12
0.0053164752
5.7305214e-12
0.0053164752
3.9672825e-12
0.0053164752
3.4770633e-12
0.0053164752
2.0255309e-12
0.0053164752
1.7735191e-12
0.0053164752
6.3531205e-13
0.0053164752
2.976152e-13
0.0053164752
-6.3055191e-13
0.0053164752
-7.6485911e-13
0.0053164752
-1.6638747e-12
0.0053164752
-1.5956365e-12
0.0053164752
-2.4734542e-12
0.0053164752
-2.1181127e-12
0.0053164752
-2.7810078e-12
0.0053164752
-2.2587114e-12
0.0053164752
-2.7336252e-12
0.0053164752
-1.9416723e-12
0.0053164752
-2.1315375e-12
0.0053164752
-1.2614334e-12
0.0053164752
-1.2488595e-12
0.0053164752
-3.4617054e-13
0.0053164752
-5.6716856e-14
0.0053164752
7.8561703e-13
0.0053164752
7.7444364e-13
0.0053164752
1.7494032e-12
0.0053164752
1.5576877e-12
0.0053164752
2.3465552e-12
0.0053164752
1.8987416e-12
0.0053164752
2.5503882e-12
0.0053164752
1.957604e-12
0.0053164752
2.3730571e-12
0.0053164752
1.6329932e-12
0.0053164752
2.0333468e-12
0.0053164752
1.3281462e-12
0.0053164752
1.7828446e-12
0.0053164752
1.1482284e-12
0.0053164752
2.1438009e-12
0.0053164752
1.8118874e-12
0.0053164752
4.0619383e-12
0.0053164752
4.3542817e-12
0.0053164752
1.0085216e-11
0.0053164752
1.3972646e-11
0.0053164752
2.9386393e-11
0.0053164752
4.3826186e-11
0.0053164751
8.1453487e-11
0.0053164751
1.2173913e-10
0.005316475
2.0435898e-10
2.6940806e-10
0.007354952
3.4796521e-06
0.007358466
1.5827804e-05
0.0073610948
2.2328762e-05
0.0073620203
2.230124e-05
0.0073617239
1.9602146e-05
0.0073606736
1.7086562e-05
0.0073591396
1.5223508e-05
0.0073573085
1.3624414e-05
0.0073553428
1.2051933e-05
0.0073533682
1.0540352e-05
0.0073514641
9.1804666e-06
0.0073496743
7.9996477e-06
0.007348022
6.9737119e-06
0.0073465184
6.0706347e-06
0.007345166
5.2696287e-06
0.0073439618
4.5583649e-06
0.0073428987
3.9267327e-06
0.0073419679
3.3648081e-06
0.0073411597
2.8636478e-06
0.0073404645
2.4160796e-06
0.0073398725
2.0167674e-06
0.0073393743
1.6618547e-06
0.0073389608
1.3486192e-06
0.007338623
1.0751122e-06
0.007338352
8.3977708e-07
0.0073381392
6.4102502e-07
0.0073379759
4.7687759e-07
0.0073378539
3.4475455e-07
0.0073377652
2.4142789e-07
0.0073377029
1.6314294e-07
0.0073376606
1.0585564e-07
0.0073376331
6.5489516e-08
0.0073376159
3.8223136e-08
0.0073376058
2.0649127e-08
0.0073376003
9.9413206e-09
0.0073375976
3.8651269e-09
0.0073375964
7.3244305e-10
0.0073375962
-6.8479311e-10
0.0073375963
-1.1081214e-09
0.0073375965
-1.0681225e-09
0.0073375968
-8.510808e-10
0.007337597
-6.0290741e-10
0.0073375971
-3.9056484e-10
0.0073375972
-2.3177802e-10
0.0073375973
-1.2542798e-10
0.0073375973
-5.9082212e-11
0.0073375973
-2.1904597e-11
0.0073375973
-2.343922e-12
0.0073375973
6.0098316e-12
0.0073375973
9.1530741e-12
0.0073375973
8.6564647e-12
0.0073375973
7.912906e-12
0.0073375973
6.068991e-12
0.0073375973
5.0338898e-12
0.0073375973
3.4987754e-12
0.0073375973
2.8212076e-12
0.0073375973
1.7186955e-12
0.0073375973
1.1522159e-12
0.0073375973
4.3240404e-13
0.0073375973
-1.736307e-13
0.0073375973
-7.0596373e-13
0.0073375973
-1.0784669e-12
0.0073375973
-1.7015461e-12
0.0073375973
-1.8066308e-12
0.0073375973
-2.3414901e-12
0.0073375973
-2.2435105e-12
0.0073375973
-2.6145765e-12
0.0073375973
-2.2629566e-12
0.0073375973
-2.3768314e-12
0.0073375973
-1.8519107e-12
0.0073375973
-1.7203978e-12
0.0073375973
-1.0788162e-12
0.0073375973
-5.9929915e-13
0.0073375973
-6.7984182e-14
0.0073375973
4.1138059e-13
0.0073375973
1.1019779e-12
0.0073375973
1.3112801e-12
0.0073375973
1.9622846e-12
0.0073375973
1.9284982e-12
0.0073375973
2.42252e-12
0.0073375973
2.1922744e-12
0.0073375973
2.4633162e-12
0.0073375973
2.082339e-12
0.0073375973
2.2207774e-12
0.0073375973
1.8643873e-12
0.0073375973
1.9515755e-12
0.0073375973
1.8021621e-12
0.0073375973
2.0320443e-12
0.0073375973
2.4778017e-12
0.0073375973
3.1271066e-12
0.0073375973
4.8617427e-12
0.0073375973
6.6481111e-12
0.0073375973
1.2607611e-11
0.0073375973
1.8870594e-11
0.0073375973
3.3982725e-11
0.0073375973
4.9641528e-11
0.0073375973
8.1142526e-11
0.0073375973
1.1815593e-10
0.0073375973
1.7540224e-10
2.2760088e-10
0.0084588279
1.6992198e-06
0.0084661889
8.4680452e-06
0.0084759716
1.2546149e-05
0.0084852626
1.3010286e-05
0.0084931139
1.1751227e-05
0.0084997218
1.0479033e-05
0.008505398
9.5472568e-06
0.008510287
8.7352536e-06
0.0085144509
7.8879527e-06
0.008517963
7.0281939e-06
0.0085209194
6.2240844e-06
0.0085234147
5.5043968e-06
0.0085255266
4.8618132e-06
0.0085273157
4.2815813e-06
0.0085288304
3.7549869e-06
0.0085301108
3.2780294e-06
0.0085311904
2.8472258e-06
0.0085320968
2.4584279e-06
0.0085328531
2.1074285e-06
0.0085334785
1.7907271e-06
0.0085339897
1.5056218e-06
0.0085344015
1.2501413e-06
0.0085347274
1.0228542e-06
0.0085349798
8.2276115e-07
0.0085351706
6.4906371e-07
0.0085353107
5.0093745e-07
0.0085354104
3.7728066e-07
0.0085354786
2.7655746e-07
0.0085355234
1.9674754e-07
0.0085355512
1.3539783e-07
0.0085355673
8.9774272e-08
0.0085355758
5.7043609e-08
0.0085355796
3.4467966e-08
0.0085355808
1.9558894e-08
0.0085355805
1.0201285e-08
0.0085355798
4.6573684e-09
0.0085355789
1.6222431e-09
0.0085355782
1.1364876e-10
0.0085355776
-4.9078655e-10
0.0085355772
-6.3266064e-10
0.0085355769
-5.6234196e-10
0.0085355767
-4.2672674e-10
0.0085355766
-2.8782409e-10
0.0085355766
-1.7899195e-10
0.0085355766
-9.9331934e-11
0.0085355766
-5.0446973e-11
0.0085355766
-1.9573251e-11
0.0085355766
-4.9778719e-12
0.0085355766
3.821113e-12
0.0085355766
4.9728077e-12
0.0085355766
6.7763467e-12
0.0085355766
4.5984209e-12
0.0085355766
4.9381428e-12
0.0085355766
2.5684819e-12
0.0085355766
2.9747853e-12
0.0085355766
1.1312118e-12
0.0085355766
1.5456507e-12
0.0085355766
3.4259137e-14
0.0085355766
5.311721e-13
0.0085355766
-7.9892285e-13
0.0085355766
-1.7880901e-13
0.0085355766
-1.5586745e-12
0.0085355766
-6.8111285e-13
0.0085355766
-2.0847541e-12
0.0085355766
-1.0636086e-12
0.0085355766
-2.4148375e-12
0.0085355766
-1.1581549e-12
0.0085355766
-2.3149913e-12
0.0085355766
-9.7297303e-13
0.0085355766
-1.9158616e-12
0.0085355766
-5.1302379e-13
0.0085355766
-1.1300826e-12
0.0085355766
2.3938825e-13
0.0085355766
-2.5253705e-13
0.0085355766
1.1892465e-12
0.0085355766
4.207003e-13
0.0085355766
1.934304e-12
0.0085355766
9.0740145e-13
0.0085355766
2.4010777e-12
0.0085355766
1.1722283e-12
0.0085355766
2.4686892e-12
0.0085355766
1.1019946e-12
0.0085355766
2.3362221e-12
0.0085355766
9.6688157e-13
0.0085355766
2.1587818e-12
0.0085355766
8.9694675e-13
0.0085355766
2.3678792e-12
0.0085355766
1.312822e-12
0.0085355766
3.3232522e-12
0.0085355766
2.5610857e-12
0.0085355766
5.8687336e-12
0.0085355766
6.3081848e-12
0.0085355766
1.313143e-11
0.0085355766
1.7054216e-11
0.0085355766
2.9547961e-11
0.0085355766
3.7751223e-11
0.0085355766
5.7603384e-11
0.0085355767
7.6838928e-11
0.0085355767
1.0600148e-10
1.3501202e-10
0.0089546284
2.7467464e-11
0.0089630977
1.6042203e-11
0.0089756439
-1.4831424e-10
0.0089886543
-2.410037e-10
0.0090004062
-1.295751e-10
0.0090108858
-4.6410832e-11
0.0090204332
-2.4909165e-11
0.0090291683
-6.1716558e-11
0.0090370562
-6.8512506e-11
0.0090440844
-3.7341575e-11
0.0090503085
9.5844285e-12
0.009055813
3.344746e-11
0.0090606748
4.3994888e-11
0.0090649564
4.0767328e-11
0.0090687114
4.2412782e-11
0.0090719895
3.5169737e-11
0.0090748368
2.8956074e-11
0.0090772953
1.545341e-11
0.0090794028
7.3823543e-12
0.0090811936
9.1784722e-13
0.0090826993
4.4044296e-12
0.0090839496
1.3121156e-11
0.0090849725
3.0237747e-11
0.0090857953
5.1648732e-11
0.0090864444
7.7377542e-11
0.0090869453
1.0479884e-10
0.0090873225
1.3190078e-10
0.009087599
1.5833642e-10
0.0090877957
1.8130868e-10
0.0090879309
2.0217726e-10
0.0090880206
2.1605752e-10
0.0090880774
2.2709472e-10
0.0090881117
2.2765393e-10
0.0090881311
2.2445932e-10
0.0090881412
2.1407255e-10
0.0090881457
1.9487404e-10
0.0090881472
1.7220029e-10
0.0090881472
1.5385427e-10
0.0090881466
1.2747854e-10
0.0090881459
1.0446684e-10
0.0090881452
8.1183275e-11
0.0090881448
6.3042558e-11
0.0090881444
4.5585876e-11
0.0090881442
3.3608842e-11
0.0090881441
2.2224559e-11
0.0090881441
1.5930499e-11
0.009088144
9.4776296e-12
0.009088144
6.9021634e-12
0.009088144
3.3801223e-12
0.009088144
2.7192924e-12
0.009088144
7.0324204e-13
0.0090881441
1.061931e-12
0.0090881441
-4.6115418e-13
0.0090881441
3.1028666e-13
0.0090881441
-8.3270634e-13
0.0090881441
6.8653068e-14
0.009088144
-1.1717656e-12
0.009088144
-1.7212743e-13
0.009088144
-1.269282e-12
0.009088144
-3.2675814e-13
0.009088144
-1.5003228e-12
0.009088144
-4.7511029e-13
0.009088144
-1.4964055e-12
0.009088144
-5.1433878e-13
0.009088144
-1.5913962e-12
0.009088144
-4.9940139e-13
0.009088144
-1.3312808e-12
0.009088144
-1.9715479e-13
0.009088144
-1.062985e-12
0.009088144
1.6566838e-13
0.009088144
-5.1843318e-13
0.009088144
7.4524142e-13
0.009088144
-8.0119466e-14
0.009088144
1.2696016e-12
0.009088144
4.3990615e-13
0.009088144
1.6362532e-12
0.009088144
5.9650762e-13
0.009088144
1.7113537e-12
0.009088144
7.1713743e-13
0.009088144
1.607615e-12
0.009088144
4.1529786e-13
0.009088144
1.3173891e-12
0.009088144
2.5596329e-13
0.009088144
1.1730837e-12
0.009088144
1.1817155e-13
0.009088144
1.3203842e-12
0.009088144
6.6112647e-13
0.0090881441
2.1045721e-12
0.009088144
1.6095533e-12
0.0090881441
3.5642241e-12
0.0090881441
3.8098578e-12
0.0090881441
7.0393246e-12
0.0090881441
8.563142e-12
0.0090881441
1.3283549e-11
0.0090881441
1.5246118e-11
0.0090881441
1.7561624e-11
0.0090881441
1.8764511e-11
0.0090881442
1.8095494e-11
0.0090881443
1.8244195e-11
2.0182566e-11
0.008954627
-1.6992761e-06
0.0089630962
-8.4682636e-06
0.0089756424
-1.2546236e-05
0.0089886528
-1.3010384e-05
0.0090004047
-1.1751467e-05
0.0090108844
-1.047932e-05
0.0090204318
-9.5474714e-06
0.009029167
-8.7354041e-06
0.0090370549
-7.8880631e-06
0.0090440831
-7.0282722e-06
0.0090503073
-6.2241138e-06
0.0090558118
-5.5043867e-06
0.0090606737
-4.8617725e-06
0.0090649553
-4.2815313e-06
0.0090687104
-3.7549332e-06
0.0090719885
-3.2779871e-06
0.0090748358
-2.8471973e-06
0.0090772944
-2.4584212e-06
0.0090794019
-2.1074366e-06
0.0090811928
-1.790745e-06
0.0090826985
-1.5056336e-06
0.0090839488
-1.2501362e-06
0.0090849718
-1.0228171e-06
0.0090857946
-8.2268344e-07
0.0090864437
-6.4893699e-07
0.0090869447
-5.0075883e-07
0.009087322
-3.7704963e-07
0.0090875985
-2.7627658e-07
0.0090877952
-1.9642191e-07
0.0090879305
-1.3503321e-07
0.0090880202
-8.9382701e-08
0.0090880771
-5.6632512e-08
0.0090881114
-3.4054346e-08
0.0090881309
-1.9156128e-08
0.009088141
-9.8130252e-09
0.0090881455
-4.3076485e-09
0.0090881471
-1.3190625e-09
0.0090881471
1.6328273e-10
0.0090881465
7.1617185e-10
0.0090881458
8.1572893e-10
0.0090881452
7.043874e-10
0.0090881448
5.3515478e-10
0.0090881445
3.6616357e-10
0.0090881443
2.3526192e-10
0.0090881442
1.3688112e-10
0.0090881441
7.6210321e-11
0.0090881441
3.5132437e-11
0.0090881441
1.5347259e-11
0.0090881441
1.9597195e-12
0.0090881441
-1.5432843e-12
0.0090881441
-5.6300354e-12
0.0090881441
-3.794113e-12
0.0090881441
-5.5576288e-12
0.0090881441
-2.8469866e-12
0.0090881441
-4.2261158e-12
0.0090881441
-1.8779493e-12
0.0090881441
-3.2995535e-12
0.0090881441
-1.0950733e-12
0.0090881441
-2.5360286e-12
0.0090881441
-6.2557849e-13
0.0090881441
-2.1076348e-12
0.0090881441
-1.2241981e-13
0.0090881441
-1.5699079e-12
0.0090881441
1.7744824e-13
0.0090881441
-1.1562874e-12
0.0090881441
6.3640578e-13
0.0090881441
-5.9871124e-13
0.0090881441
1.0835546e-12
0.0090881441
-1.793989e-13
0.0090881441
1.6038545e-12
0.0090881441
2.116615e-13
0.0090881441
1.8879036e-12
0.0090881441
2.9598308e-13
0.0090881441
2.1355794e-12
0.0090881441
3.2566667e-13
0.0090881441
1.9291087e-12
0.0090881441
1.9542139e-14
0.0090881441
1.5813399e-12
0.0090881441
-2.6865755e-13
0.0090881441
9.5642519e-13
0.0090881441
-8.0350097e-13
0.0090881441
5.8890061e-13
0.0090881441
-1.0863582e-12
0.0090881441
3.9290723e-13
0.0090881441
-1.0948218e-12
0.0090881441
8.7707001e-13
0.0090881441
-2.9210581e-13
0.0090881441
1.8884228e-12
0.0090881441
6.4777407e-13
0.0090881441
3.6272211e-12
0.0090881441
2.1954524e-12
0.0090881441
5.9941224e-12
0.0090881441
3.4656609e-12
0.0090881441
6.1864567e-12
0.0090881442
-1.1051306e-12
0.0090881442
-5.94674e-12
0.0090881442
-2.3093191e-11
0.0090881443
-4.3882388e-11
0.0090881444
-7.2136682e-11
-9.8958945e-11
0.0084588246
-3.4795737e-06
0.0084661855
-1.5827659e-05
0.0084759683
-2.232889e-05
0.0084852594
-2.230151e-05
0.0084931106
-1.9602398e-05
0.0084997184
-1.7086753e-05
0.0085053947
-1.5223709e-05
0.0085102838
-1.3624594e-05
0.0085144477
-1.2052101e-05
0.0085179599
-1.0540472e-05
0.0085209164
-9.1805607e-06
0.0085234118
-7.9996989e-06
0.0085255238
-6.9737514e-06
0.008527313
-6.0706518e-06
0.0085288278
-5.2696525e-06
0.0085301083
-4.558386e-06
0.0085311879
-3.9267734e-06
0.0085320945
-3.3648541e-06
0.0085328508
-2.8637087e-06
0.0085334763
-2.416136e-06
0.0085339876
-2.0168187e-06
0.0085343995
-1.6618819e-06
0.0085347254
-1.3486182e-06
0.0085349779
-1.0750718e-06
0.0085351688
-8.3969495e-07
0.008535309
-6.4089949e-07
0.0085354088
-4.7670921e-07
0.0085354771
-3.4454833e-07
0.008535522
-2.4118596e-07
0.00853555
-1.6287655e-07
0.0085355662
-1.0556515e-07
0.0085355749
-6.5193647e-08
0.0085355788
-3.7924273e-08
0.0085355801
-2.0362212e-08
0.00853558
-9.6745959e-09
0.0085355794
-3.6277234e-09
0.0085355787
-5.0021178e-10
0.008535578
8.6212369e-10
0.0085355775
1.2591713e-09
0.0085355771
1.1847447e-09
0.0085355769
9.4354875e-10
0.0085355768
6.6799889e-10
0.0085355768
4.3967785e-10
0.0085355767
2.623223e-10
0.0085355767
1.4821983e-10
0.0085355767
7.074921e-11
0.0085355768
3.0932654e-11
0.0085355768
5.4257744e-12
0.0085355768
-2.4844327e-12
0.0085355768
-9.9870994e-12
0.0085355768
-7.3531259e-12
0.0085355768
-1.0039328e-11
0.0085355768
-5.5737948e-12
0.0085355768
-7.4645523e-12
0.0085355768
-3.4791106e-12
0.0085355768
-5.5449003e-12
0.0085355768
-1.958103e-12
0.0085355768
-3.9914984e-12
0.0085355768
-8.8544026e-13
0.0085355768
-2.9910858e-12
0.0085355768
4.9088778e-15
0.0085355768
-1.9385516e-12
0.0085355768
7.7926541e-13
0.0085355768
-1.2747176e-12
0.0085355768
1.6462886e-12
0.0085355768
-4.4831864e-13
0.0085355768
2.250839e-12
0.0085355767
5.9006083e-14
0.0085355768
2.7314205e-12
0.0085355767
4.2849316e-13
0.0085355768
2.886613e-12
0.0085355767
3.0196331e-13
0.0085355768
2.7833951e-12
0.0085355767
1.2082165e-13
0.0085355768
2.3082593e-12
0.0085355768
-4.7298056e-13
0.0085355768
1.666145e-12
0.0085355768
-1.0929361e-12
0.0085355768
9.6193685e-13
0.0085355768
-1.9372008e-12
0.0085355768
3.7220567e-13
0.0085355768
-2.2227196e-12
0.0085355768
5.7964759e-14
0.0085355768
-2.3004303e-12
0.0085355768
3.9105308e-13
0.0085355768
-1.5889738e-12
0.0085355768
1.2603296e-12
0.0085355768
-4.6093952e-13
0.0085355768
2.4215814e-12
0.0085355768
9.9824295e-13
0.0085355768
3.5052754e-12
0.0085355768
1.7169292e-12
0.0085355768
1.7080406e-12
0.0085355768
-3.3458713e-12
0.0085355768
-1.1994133e-11
0.0085355768
-2.6755896e-11
0.0085355769
-5.5478454e-11
0.0085355769
-9.3494027e-11
0.008535577
-1.5066429e-10
-2.0272862e-10
0.0073549486
-4.9798216e-06
0.0073584623
-1.9340374e-05
0.0073610912
-2.4957536e-05
0.0073620167
-2.3226799e-05
0.0073617202
-1.9305592e-05
0.0073606698
-1.6036159e-05
0.0073591359
-1.3689745e-05
0.0073573047
-1.1793571e-05
0.0073553391
-1.0086535e-05
0.0073533645
-8.5658837e-06
0.0073514605
-7.2764144e-06
0.0073496708
-6.2099109e-06
0.0073480186
-5.3214544e-06
0.007346515
-4.5669707e-06
0.0073451627
-3.9172954e-06
0.0073439586
-3.3541229e-06
0.0073428955
-2.8636356e-06
0.0073419648
-2.4340124e-06
0.0073411568
-2.0555336e-06
0.0073404616
-1.7208517e-06
0.0073398697
-1.4247551e-06
0.0073393716
-1.1636432e-06
0.0073389582
-9.3505359e-07
0.0073386205
-7.3723256e-07
0.0073383497
-5.6874363e-07
0.0073381371
-4.280932e-07
0.0073379739
-3.1345929e-07
0.0073378521
-2.2255271e-07
0.0073377636
-1.5263021e-07
0.0073377015
-1.0062976e-07
0.0073376594
-6.3355046e-08
0.007337632
-3.7713295e-08
0.0073376151
-2.0860993e-08
0.0073376051
-1.0363047e-08
0.0073375998
-4.2428023e-09
0.0073375972
-9.7726667e-10
0.0073375962
5.3233561e-10
0.0073375961
1.0629973e-09
0.0073375963
1.0874051e-09
0.0073375966
8.987571e-10
0.0073375969
6.5847874e-10
0.0073375971
4.3994465e-10
0.0073375973
2.7140796e-10
0.0073375974
1.5322908e-10
0.0073375975
7.7947398e-11
0.0073375976
3.2480233e-11
0.0073375976
8.3919904e-12
0.0073375976
-3.5903226e-12
0.0073375976
-8.0849653e-12
0.0073375976
-9.6677641e-12
0.0073375976
-8.8377548e-12
0.0073375976
-7.9411314e-12
0.0073375976
-6.3305053e-12
0.0073375976
-5.6630756e-12
0.0073375976
-4.4525018e-12
0.0073375976
-3.8682579e-12
0.0073375976
-2.7915271e-12
0.0073375976
-2.5661077e-12
0.0073375976
-1.731532e-12
0.0073375976
-1.3805004e-12
0.0073375976
-5.1983279e-13
0.0073375976
-4.0600502e-13
0.0073375976
2.8228542e-13
0.0073375976
3.9406398e-13
0.0073375976
1.2389662e-12
0.0073375976
1.0787336e-12
0.0073375976
1.5844514e-12
0.0073375976
1.5042139e-12
0.0073375976
1.9572386e-12
0.0073375976
1.5188057e-12
0.0073375976
1.6460087e-12
0.0073375976
1.2653548e-12
0.0073375976
1.3902808e-12
0.0073375976
6.9257171e-13
0.0073375976
5.810808e-13
0.0073375976
2.1669516e-14
0.0073375976
1.4536872e-14
0.0073375976
-7.3584092e-13
0.0073375976
-7.1330073e-13
0.0073375976
-1.2532669e-12
0.0073375976
-9.8702949e-13
0.0073375976
-1.4783534e-12
0.0073375976
-1.1494573e-12
0.0073375976
-1.1988382e-12
0.0073375976
-5.5307645e-13
0.0073375976
-5.3889401e-13
0.0073375976
2.02457e-13
0.0073375976
5.4665425e-13
0.0073375976
1.2721659e-12
0.0073375976
1.6751606e-12
0.0073375976
1.4783845e-12
0.0073375976
1.3300494e-12
0.0073375976
-2.0503327e-12
0.0073375976
-6.1834919e-12
0.0073375976
-1.8355436e-11
0.0073375976
-3.0583708e-11
0.0073375976
-6.8882489e-11
0.0073375976
-1.0880492e-10
0.0073375976
-1.92308e-10
-2.5850392e-10
0.0054175668
-4.5170388e-06
0.0054120635
-1.3835568e-05
0.0054025142
-1.5407596e-05
0.0053919718
-1.2684219e-05
0.00538209
-9.4236982e-06
0.0053731905
-7.1365611e-06
0.0053652008
-5.6999658e-06
0.0053580827
-4.6754445e-06
0.0053518375
-3.8413772e-06
0.0053464272
-3.1554753e-06
0.0053417647
-2.6137674e-06
0.0053377482
-2.193276e-06
0.0053342868
-1.859803e-06
0.0053313056
-1.5855605e-06
0.0053287424
-1.3539085e-06
0.005326544
-1.1555724e-06
0.0053246649
-9.8426379e-07
0.0053230661
-8.3498546e-07
0.0053217146
-7.0378516e-07
0.0053205819
-5.8785765e-07
0.0053196427
-4.8531286e-07
0.0053188742
-3.9493887e-07
0.0053182553
-3.1592945e-07
0.005317766
-2.4772862e-07
0.0053173873
-1.8986056e-07
0.0053171012
-1.4180115e-07
0.0053168908
-1.0288743e-07
0.0053167407
-7.2266648e-08
0.0053166371
-4.8928975e-08
0.0053165684
-3.174592e-08
0.0053165247
-1.9585799e-08
0.0053164984
-1.1339736e-08
0.0053164837
-6.0226576e-09
0.0053164762
-2.7819811e-09
0.005316473
-9.3233133e-10
0.0053164721
-2.4645721e-11
0.0053164723
3.4220971e-10
0.005316473
4.4955501e-10
0.0053164737
4.0981465e-10
0.0053164743
3.2222566e-10
0.0053164747
2.2404538e-10
0.0053164751
1.4641468e-10
0.0053164752
8.4669581e-11
0.0053164754
4.7105599e-11
0.0053164754
2.0038966e-11
0.0053164755
7.7017913e-12
0.0053164755
-1.3599388e-12
0.0053164755
-2.5901263e-12
0.0053164755
-6.006496e-12
0.0053164755
-3.8628063e-12
0.0053164755
-5.7086869e-12
0.0053164755
-2.9245873e-12
0.0053164755
-4.6172348e-12
0.0053164755
-2.0388363e-12
0.0053164754
-3.6174299e-12
0.0053164754
-1.1327361e-12
0.0053164754
-2.7512683e-12
0.0053164754
-4.4032735e-13
0.0053164754
-1.9611564e-12
0.0053164754
4.0551485e-13
0.0053164754
-1.2401693e-12
0.0053164754
9.8567792e-13
0.0053164754
-6.5286145e-13
0.0053164754
1.6000662e-12
0.0053164754
-1.8959295e-13
0.0053164754
1.8163166e-12
0.0053164754
3.8760206e-14
0.0053164754
1.9982348e-12
0.0053164754
2.3749154e-14
0.0053164754
1.7670986e-12
0.0053164754
-2.2651721e-13
0.0053164754
1.5520223e-12
0.0053164754
-5.7804682e-13
0.0053164754
1.0623277e-12
0.0053164754
-1.0673498e-12
0.0053164754
7.6528173e-13
0.0053164754
-1.4474371e-12
0.0053164754
3.4683629e-13
0.0053164754
-1.6958642e-12
0.0053164754
2.7420337e-13
0.0053164754
-1.7345637e-12
0.0053164754
2.2453516e-13
0.0053164754
-1.5575592e-12
0.0053164754
6.3231563e-13
0.0053164754
-1.1686908e-12
0.0053164754
1.0598192e-12
0.0053164754
-6.2436029e-13
0.0053164754
1.7895223e-12
0.0053164754
-2.2168506e-14
0.0053164754
2.3102086e-12
0.0053164754
-4.8707174e-14
0.0053164755
1.5689819e-12
0.0053164754
-3.4918766e-12
0.0053164755
-3.5895518e-12
0.0053164754
-1.2577853e-11
0.0053164754
-1.9987745e-11
0.0053164754
-4.5520298e-11
0.0053164753
-7.07111e-11
0.0053164753
-1.5460524e-10
-2.0633766e-10
0.0023175544
0.0023037194
0.0022883119
0.0022756277
0.0022662041
0.0022590676
0.0022533676
0.0022486922
0.0022448509
0.0022416955
0.0022390818
0.0022368887
0.002235029
0.0022334435
0.0022320898
0.0022309343
0.0022299502
0.0022291154
0.0022284117
0.002227824
0.0022273389
0.0022269441
0.0022266283
0.0022263806
0.0022261909
0.0022260492
0.0022259464
0.0022258742
0.0022258253
0.0022257936
0.0022257741
0.0022257628
0.0022257568
0.0022257541
0.0022257532
0.0022257532
0.0022257535
0.002225754
0.0022257544
0.0022257548
0.002225755
0.0022257552
0.0022257552
0.0022257553
0.0022257553
0.0022257553
0.0022257553
0.0022257553
0.0022257553
0.0022257553
0.0022257553
0.0022257553
0.0022257553
0.0022257553
0.0022257553
0.0022257553
0.0022257553
0.0022257553
0.0022257553
0.0022257553
0.0022257553
0.0022257553
0.0022257553
0.0022257553
0.0022257553
0.0022257553
0.0022257553
0.0022257553
0.0022257553
0.0022257553
0.0022257553
0.0022257553
0.0022257553
0.0022257553
0.0022257553
0.0022257553
0.0022257553
0.0022257553
0.0022257553
0.0022257553
0.0022257553
0.0022257553
0.0022257553
0.0022257553
0.0022257553
0.0022257553
0.0022257553
0.0022257553
0.0022257553
0.0022257553
0.0022257553
0.0022257553
0.0022257553
0.0022257553
0.0022257553
0.0022257552
0.0022257552
0.0022257551
0.002225755
)
;

boundaryField
{
    top
    {
        type            calculated;
        value           uniform 0;
    }
    inlet
    {
        type            calculated;
        value           nonuniform List<scalar> 10(-0.0023220701 -0.0054180305 -0.0073534499 -0.0084570458 -0.0089529275 -0.0089529259 -0.0084570429 -0.0073534465 -0.005418028 -0.0023220705);
    }
    outlet
    {
        type            calculated;
        value           nonuniform List<scalar> 10(0.0022257547 0.005316475 0.0073375974 0.0085355768 0.0090881444 0.0090881445 0.0085355771 0.0073375977 0.0053164752 0.0022257548);
    }
    bottom
    {
        type            calculated;
        value           uniform 0;
    }
    back
    {
        type            empty;
        value           nonuniform 0();
    }
    front
    {
        type            empty;
        value           nonuniform 0();
    }
}


// ************************************************************************* //
