/*--------------------------------*- C++ -*----------------------------------*\
| =========                 |                                                 |
| \\      /  F ield         | OpenFOAM: The Open Source CFD Toolbox           |
|  \\    /   O peration     | Version:  v1812                                 |
|   \\  /    A nd           | Web:      www.OpenFOAM.com                      |
|    \\/     M anipulation  |                                                 |
\*---------------------------------------------------------------------------*/
FoamFile
{
    version     2.0;
    format      ascii;
    class       volVectorField;
    location    "7";
    object      U;
}
// * * * * * * * * * * * * * * * * * * * * * * * * * * * * * * * * * * * * * //

dimensions      [0 1 -1 0 0 0 0];


internalField   nonuniform List<vector> 
1000
(
(0.23209874 0.00035478445 0)
(0.23131978 0.00094253553 0)
(0.22967552 0.00095471501 0)
(0.22816548 0.00067885594 0)
(0.22704765 0.00042683008 0)
(0.22623393 0.00028377461 0)
(0.22560275 0.0002109462 0)
(0.22508833 0.00016480472 0)
(0.22466446 0.00012897916 0)
(0.22431647 0.00010158515 0)
(0.22402998 8.2151087e-05 0)
(0.22379136 6.851299e-05 0)
(0.22359002 5.8265374e-05 0)
(0.22341872 4.990536e-05 0)
(0.22327248 4.278053e-05 0)
(0.2231476 3.6621702e-05 0)
(0.2230411 3.1252245e-05 0)
(0.22295056 2.6519604e-05 0)
(0.22287398 2.2310997e-05 0)
(0.22280971 1.8557168e-05 0)
(0.22275634 1.5220198e-05 0)
(0.22271259 1.2277763e-05 0)
(0.2226773 9.7149945e-06 0)
(0.22264935 7.5191313e-06 0)
(0.22262768 5.6759721e-06 0)
(0.22261129 4.1663224e-06 0)
(0.22259923 2.9641781e-06 0)
(0.22259062 2.0367303e-06 0)
(0.22258468 1.345834e-06 0)
(0.22258075 8.5049604e-07 0)
(0.22257825 5.0946732e-07 0)
(0.22257676 2.8514128e-07 0)
(0.22257593 1.4500993e-07 0)
(0.22257552 6.2954411e-08 0)
(0.22257535 1.8633953e-08 0)
(0.22257531 -3.7889823e-09 0)
(0.22257533 -1.3876027e-08 0)
(0.22257537 -1.5165868e-08 0)
(0.22257542 -1.2806505e-08 0)
(0.22257545 -9.3799927e-09 0)
(0.22257548 -6.2738876e-09 0)
(0.2225755 -3.7895716e-09 0)
(0.22257551 -2.122845e-09 0)
(0.22257552 -9.9454779e-10 0)
(0.22257552 -3.906375e-10 0)
(0.22257552 1.8491864e-12 0)
(0.22257552 1.2979289e-10 0)
(0.22257552 2.3867127e-10 0)
(0.22257552 2.1224974e-10 0)
(0.22257552 2.3422908e-10 0)
(0.22257552 1.662587e-10 0)
(0.22257552 1.7230293e-10 0)
(0.22257552 1.0235404e-10 0)
(0.22257552 1.1104547e-10 0)
(0.22257552 3.9340708e-11 0)
(0.22257552 4.9396291e-11 0)
(0.22257552 -1.9075479e-11 0)
(0.22257552 4.7714721e-13 0)
(0.22257552 -6.4784519e-11 0)
(0.22257552 -4.1958358e-11 0)
(0.22257552 -9.7083013e-11 0)
(0.22257552 -6.8461585e-11 0)
(0.22257552 -1.1690391e-10 0)
(0.22257552 -8.2054341e-11 0)
(0.22257552 -1.1885051e-10 0)
(0.22257552 -7.3656184e-11 0)
(0.22257552 -1.04917e-10 0)
(0.22257552 -5.3838591e-11 0)
(0.22257552 -7.6775422e-11 0)
(0.22257552 -1.8161594e-11 0)
(0.22257552 -4.1544134e-11 0)
(0.22257552 1.8731179e-11 0)
(0.22257552 -8.2736271e-12 0)
(0.22257552 5.2853158e-11 0)
(0.22257552 2.4887066e-11 0)
(0.22257552 7.7552596e-11 0)
(0.22257552 4.8368069e-11 0)
(0.22257552 9.5267877e-11 0)
(0.22257552 5.7606824e-11 0)
(0.22257552 9.6014815e-11 0)
(0.22257552 5.4975329e-11 0)
(0.22257552 8.989873e-11 0)
(0.22257552 4.213423e-11 0)
(0.22257552 7.2598157e-11 0)
(0.22257552 2.5296736e-11 0)
(0.22257552 5.7627333e-11 0)
(0.22257552 1.0236291e-11 0)
(0.22257552 4.5303946e-11 0)
(0.22257552 1.1949463e-11 0)
(0.22257552 6.1190524e-11 0)
(0.22257552 6.1565659e-11 0)
(0.22257552 1.4245712e-10 0)
(0.22257552 2.3680814e-10 0)
(0.22257552 4.413261e-10 0)
(0.22257552 9.0137066e-10 0)
(0.22257552 1.5914858e-09 0)
(0.22257551 3.0686107e-09 0)
(0.22257551 5.0031083e-09 0)
(0.22257549 1.0112826e-08 0)
(0.22257547 1.2916154e-08 0)
(0.54154091 0.00046636918 0)
(0.54221545 0.0017966743 0)
(0.54109394 0.0022967092 0)
(0.53973338 0.0020695028 0)
(0.53863591 0.0016338093 0)
(0.53773307 0.0012803402 0)
(0.53691435 0.0010405648 0)
(0.53615863 0.00086278468 0)
(0.53548348 0.00071431625 0)
(0.53489791 0.00058933504 0)
(0.53439543 0.00048863547 0)
(0.53396365 0.00040938582 0)
(0.53359148 0.00034615034 0)
(0.53327058 0.00029414331 0)
(0.5329944 0.00025034964 0)
(0.53275728 0.0002129959 0)
(0.53255429 0.00018085239 0)
(0.53238116 0.000152937 0)
(0.5322343 0.00012848451 0)
(0.53211067 0.00010694825 0)
(0.5320076 8.7963305e-05 0)
(0.5319227 7.1291242e-05 0)
(0.53185378 5.6774206e-05 0)
(0.5317988 4.4298765e-05 0)
(0.53175579 3.3766347e-05 0)
(0.53172291 2.5067945e-05 0)
(0.53169841 1.8067904e-05 0)
(0.53168067 1.2597781e-05 0)
(0.53166822 8.4607944e-06 0)
(0.5316598 5.4425426e-06 0)
(0.53165434 3.325611e-06 0)
(0.53165096 1.9046767e-06 0)
(0.53164899 9.9775877e-07 0)
(0.53164793 4.5298462e-07 0)
(0.53164743 1.4984382e-07 0)
(0.53164724 -2.2694209e-09 0)
(0.53164721 -6.5921942e-08 0)
(0.53164726 -8.0462526e-08 0)
(0.53164733 -7.1458951e-08 0)
(0.53164739 -5.4565012e-08 0)
(0.53164744 -3.7660497e-08 0)
(0.53164747 -2.3843508e-08 0)
(0.5316475 -1.3892302e-08 0)
(0.53164751 -7.2949917e-09 0)
(0.53164752 -3.3078567e-09 0)
(0.53164752 -1.0434123e-09 0)
(0.53164752 7.483019e-11 0)
(0.53164752 5.8555054e-10 0)
(0.53164752 7.1898027e-10 0)
(0.53164752 7.1883866e-10 0)
(0.53164752 6.1104423e-10 0)
(0.53164752 5.2169385e-10 0)
(0.53164752 4.0439905e-10 0)
(0.53164752 3.3269931e-10 0)
(0.53164752 2.3087371e-10 0)
(0.53164752 1.7182024e-10 0)
(0.53164752 8.8087007e-11 0)
(0.53164752 4.5638658e-11 0)
(0.53164752 -2.591e-11 0)
(0.53164752 -6.7763353e-11 0)
(0.53164752 -1.269881e-10 0)
(0.53164752 -1.4833321e-10 0)
(0.53164752 -1.9933779e-10 0)
(0.53164752 -2.0949778e-10 0)
(0.53164752 -2.3855214e-10 0)
(0.53164752 -2.2371075e-10 0)
(0.53164752 -2.3680563e-10 0)
(0.53164752 -2.0626065e-10 0)
(0.53164752 -1.9556786e-10 0)
(0.53164752 -1.4216446e-10 0)
(0.53164752 -1.2059933e-10 0)
(0.53164752 -6.0325224e-11 0)
(0.53164752 -2.8042892e-11 0)
(0.53164752 3.1296835e-11 0)
(0.53164752 5.9840301e-11 0)
(0.53164752 1.1531525e-10 0)
(0.53164752 1.3630495e-10 0)
(0.53164752 1.8277195e-10 0)
(0.53164752 1.8216516e-10 0)
(0.53164752 2.0579022e-10 0)
(0.53164752 1.9146727e-10 0)
(0.53164752 2.0348558e-10 0)
(0.53164752 1.7125346e-10 0)
(0.53164752 1.6743446e-10 0)
(0.53164752 1.3502194e-10 0)
(0.53164752 1.3315723e-10 0)
(0.53164752 1.0571067e-10 0)
(0.53164752 1.0691877e-10 0)
(0.53164752 1.1947033e-10 0)
(0.53164752 1.5195203e-10 0)
(0.53164752 2.5747065e-10 0)
(0.53164752 3.5289591e-10 0)
(0.53164752 7.1980443e-10 0)
(0.53164752 1.0804959e-09 0)
(0.53164752 2.2604856e-09 0)
(0.53164752 3.5146981e-09 0)
(0.53164751 6.8032612e-09 0)
(0.53164752 1.0193955e-08 0)
(0.53164749 1.9069935e-08 0)
(0.53164751 2.6409742e-08 0)
(0.734858 0.00037166908 0)
(0.73680074 0.0017172078 0)
(0.73661106 0.0024711821 0)
(0.73617302 0.0025021953 0)
(0.73605789 0.0022088189 0)
(0.73607564 0.0019032563 0)
(0.73601757 0.0016659597 0)
(0.73585579 0.0014679097 0)
(0.73564713 0.0012822146 0)
(0.73543707 0.0011081434 0)
(0.73523999 0.0009535011 0)
(0.73505583 0.00082106006 0)
(0.73488389 0.00070812566 0)
(0.73472547 0.00061070506 0)
(0.73458205 0.00052583557 0)
(0.73445399 0.00045160283 0)
(0.73434066 0.00038652926 0)
(0.7342411 0.00032928782 0)
(0.7341543 0.00027872472 0)
(0.73407929 0.00023392733 0)
(0.73401509 0.00019422484 0)
(0.73396076 0.0001591434 0)
(0.73391535 0.00012835456 0)
(0.73387795 0.00010162599 0)
(0.73384767 7.8772432e-05 0)
(0.73382364 5.9607589e-05 0)
(0.73380498 4.3906084e-05 0)
(0.73379085 3.138205e-05 0)
(0.73378044 2.1687547e-05 0)
(0.73377301 1.4427138e-05 0)
(0.73376788 9.1832801e-06 0)
(0.73376446 5.5442137e-06 0)
(0.73376229 3.129115e-06 0)
(0.73376098 1.6067134e-06 0)
(0.73376024 7.0472425e-07 0)
(0.73375985 2.1206646e-07 0)
(0.73375968 -2.574862e-08 0)
(0.73375962 -1.1695029e-07 0)
(0.73375962 -1.3242051e-07 0)
(0.73375964 -1.1411166e-07 0)
(0.73375966 -8.5473019e-08 0)
(0.73375969 -5.80565e-08 0)
(0.73375971 -3.6228229e-08 0)
(0.73375972 -2.0774036e-08 0)
(0.73375973 -1.0716741e-08 0)
(0.73375973 -4.7268925e-09 0)
(0.73375973 -1.4240524e-09 0)
(0.73375973 1.7498373e-10 0)
(0.73375973 8.4803936e-10 0)
(0.73375973 9.9649345e-10 0)
(0.73375973 9.4832168e-10 0)
(0.73375973 7.8898414e-10 0)
(0.73375973 6.5036625e-10 0)
(0.73375973 4.9565732e-10 0)
(0.73375973 3.881133e-10 0)
(0.73375973 2.7352497e-10 0)
(0.73375973 2.0228151e-10 0)
(0.73375973 1.1466471e-10 0)
(0.73375973 5.4734457e-11 0)
(0.73375973 -2.1205527e-11 0)
(0.73375973 -6.5635705e-11 0)
(0.73375973 -1.3170666e-10 0)
(0.73375973 -1.6616201e-10 0)
(0.73375973 -2.1991687e-10 0)
(0.73375973 -2.3318925e-10 0)
(0.73375973 -2.6533598e-10 0)
(0.73375973 -2.603357e-10 0)
(0.73375973 -2.7077314e-10 0)
(0.73375973 -2.3764543e-10 0)
(0.73375973 -2.2182075e-10 0)
(0.73375973 -1.7122301e-10 0)
(0.73375973 -1.3695738e-10 0)
(0.73375973 -6.4830863e-11 0)
(0.73375973 -1.6090603e-11 0)
(0.73375973 5.2566382e-11 0)
(0.73375973 9.1331976e-11 0)
(0.73375973 1.5642168e-10 0)
(0.73375973 1.8354671e-10 0)
(0.73375973 2.2696518e-10 0)
(0.73375973 2.3021543e-10 0)
(0.73375973 2.5589898e-10 0)
(0.73375973 2.400723e-10 0)
(0.73375973 2.4449101e-10 0)
(0.73375973 2.1108495e-10 0)
(0.73375973 2.1455707e-10 0)
(0.73375973 1.7983328e-10 0)
(0.73375973 1.9649791e-10 0)
(0.73375973 1.6877567e-10 0)
(0.73375973 2.4583389e-10 0)
(0.73375973 2.528817e-10 0)
(0.73375973 4.6418792e-10 0)
(0.73375973 5.5312849e-10 0)
(0.73375973 1.1402405e-09 0)
(0.73375973 1.6265511e-09 0)
(0.73375973 3.168569e-09 0)
(0.73375973 4.6539401e-09 0)
(0.73375972 8.1527777e-09 0)
(0.73375974 1.2118996e-08 0)
(0.7337597 1.9319375e-08 0)
(0.73375976 2.626857e-08 0)
(0.84502674 0.00022605857 0)
(0.8476865 0.0011528582 0)
(0.84797438 0.0017592804 0)
(0.84808333 0.0018738374 0)
(0.84870277 0.0017283158 0)
(0.84954868 0.001546968 0)
(0.85028902 0.0014016987 0)
(0.85084388 0.0012765113 0)
(0.85127331 0.001150924 0)
(0.85163679 0.0010244956 0)
(0.8519548 0.00090526753 0)
(0.85222833 0.00079794989 0)
(0.85245883 0.00070238786 0)
(0.85265221 0.00061671191 0)
(0.8528154 0.00053947403 0)
(0.85295371 0.00046986106 0)
(0.85307078 0.00040724576 0)
(0.85316939 0.00035096183 0)
(0.85325191 0.00030034288 0)
(0.85332045 0.00025481694 0)
(0.8533768 0.00021393953 0)
(0.85342254 0.00017738475 0)
(0.85345904 0.00014492095 0)
(0.85348759 0.00011638574 0)
(0.8535094 9.1652722e-05 0)
(0.85352562 7.0594169e-05 0)
(0.85353731 5.3045019e-05 0)
(0.85354542 3.8778914e-05 0)
(0.85355083 2.7500386e-05 0)
(0.85355426 1.8853314e-05 0)
(0.85355629 1.2442144e-05 0)
(0.8535574 7.8588318e-06 0)
(0.85355792 4.7107406e-06 0)
(0.85355811 2.6424423e-06 0)
(0.85355811 1.3516722e-06 0)
(0.85355804 5.9410971e-07 0)
(0.85355794 1.8448982e-07 0)
(0.85355786 -1.1152712e-08 0)
(0.85355778 -8.6457593e-08 0)
(0.85355773 -9.9961434e-08 0)
(0.8535577 -8.6088144e-08 0)
(0.85355768 -6.4171433e-08 0)
(0.85355767 -4.3118266e-08 0)
(0.85355766 -2.662676e-08 0)
(0.85355766 -1.4939347e-08 0)
(0.85355766 -7.5562292e-09 0)
(0.85355766 -3.1015329e-09 0)
(0.85355766 -8.1625623e-10 0)
(0.85355766 3.5510094e-10 0)
(0.85355766 7.0371541e-10 0)
(0.85355766 8.3976799e-10 0)
(0.85355766 6.9225361e-10 0)
(0.85355766 6.2702623e-10 0)
(0.85355766 4.2640982e-10 0)
(0.85355766 3.7607016e-10 0)
(0.85355766 2.1208377e-10 0)
(0.85355766 1.9953518e-10 0)
(0.85355766 6.5915484e-11 0)
(0.85355766 7.201904e-11 0)
(0.85355766 -4.1279957e-11 0)
(0.85355766 -2.2087045e-11 0)
(0.85355766 -1.3037973e-10 0)
(0.85355766 -1.025026e-10 0)
(0.85355766 -1.9948333e-10 0)
(0.85355766 -1.5946019e-10 0)
(0.85355766 -2.4333092e-10 0)
(0.85355766 -1.8396006e-10 0)
(0.85355766 -2.4545704e-10 0)
(0.85355766 -1.6515729e-10 0)
(0.85355766 -2.0820213e-10 0)
(0.85355766 -1.0706942e-10 0)
(0.85355766 -1.3189378e-10 0)
(0.85355766 -2.2018728e-11 0)
(0.85355766 -3.7521797e-11 0)
(0.85355766 7.5796969e-11 0)
(0.85355766 5.8315035e-11 0)
(0.85355766 1.6595457e-10 0)
(0.85355766 1.3403714e-10 0)
(0.85355766 2.2674753e-10 0)
(0.85355766 1.7734331e-10 0)
(0.85355766 2.5066365e-10 0)
(0.85355766 1.8090009e-10 0)
(0.85355766 2.416198e-10 0)
(0.85355766 1.6326559e-10 0)
(0.85355766 2.2379725e-10 0)
(0.85355766 1.4589871e-10 0)
(0.85355766 2.2934137e-10 0)
(0.85355766 1.6897595e-10 0)
(0.85355766 3.0959904e-10 0)
(0.85355766 2.8580999e-10 0)
(0.85355766 5.5424887e-10 0)
(0.85355766 6.405307e-10 0)
(0.85355766 1.2781248e-09 0)
(0.85355766 1.7669573e-09 0)
(0.85355766 3.1551783e-09 0)
(0.85355767 4.3851014e-09 0)
(0.85355765 6.9369218e-09 0)
(0.85355768 9.8959404e-09 0)
(0.85355764 1.4326264e-08 0)
(0.8535577 1.8849014e-08 0)
(0.89451131 7.4777948e-05 0)
(0.89748728 0.00039908191 0)
(0.89794071 0.00062457904 0)
(0.89824552 0.00067888536 0)
(0.89918239 0.00063616629 0)
(0.90043216 0.00057706132 0)
(0.90159321 0.00052986031 0)
(0.90254928 0.00048935424 0)
(0.90335645 0.00044753128 0)
(0.90407829 0.00040389124 0)
(0.90473481 0.00036154537 0)
(0.9053234 0.00032255574 0)
(0.90584277 0.00028711931 0)
(0.90629835 0.00025471057 0)
(0.9066978 0.00022493162 0)
(0.90704762 0.00019761627 0)
(0.90735262 0.00017265607 0)
(0.90761687 0.00014990533 0)
(0.90784419 0.00012919472 0)
(0.90803817 0.00011037021 0)
(0.90820214 9.3310023e-05 0)
(0.90833914 7.7924704e-05 0)
(0.90845205 6.415141e-05 0)
(0.90854361 5.1947759e-05 0)
(0.90861649 4.1281621e-05 0)
(0.9086733 3.2118362e-05 0)
(0.90871655 2.4407104e-05 0)
(0.90874862 1.8070757e-05 0)
(0.90877172 1.300174e-05 0)
(0.90878784 9.0642837e-06 0)
(0.90879868 6.1021826e-06 0)
(0.90880568 3.9497001e-06 0)
(0.90880999 2.4431671e-06 0)
(0.90881248 1.4312856e-06 0)
(0.90881382 7.8214028e-07 0)
(0.90881446 3.8747215e-07 0)
(0.90881471 1.6284072e-07 0)
(0.90881474 4.5795056e-08 0)
(0.9088147 -7.4589345e-09 0)
(0.90881462 -2.6199546e-08 0)
(0.90881455 -2.7925627e-08 0)
(0.9088145 -2.2821287e-08 0)
(0.90881446 -1.6131602e-08 0)
(0.90881443 -1.0234058e-08 0)
(0.90881442 -5.8280583e-09 0)
(0.90881441 -2.9219059e-09 0)
(0.90881441 -1.1510813e-09 0)
(0.9088144 -2.2070692e-10 0)
(0.9088144 2.2793751e-10 0)
(0.9088144 3.6040203e-10 0)
(0.90881441 3.8252262e-10 0)
(0.9088144 3.179191e-10 0)
(0.90881441 2.5481417e-10 0)
(0.9088144 1.7160668e-10 0)
(0.90881441 1.2835743e-10 0)
(0.9088144 6.2353942e-11 0)
(0.90881441 3.6708479e-11 0)
(0.9088144 -1.3672275e-11 0)
(0.90881441 -1.6433697e-11 0)
(0.9088144 -5.9505391e-11 0)
(0.9088144 -6.7030406e-11 0)
(0.9088144 -1.0165528e-10 0)
(0.9088144 -9.9932633e-11 0)
(0.9088144 -1.29459e-10 0)
(0.9088144 -1.2712485e-10 0)
(0.9088144 -1.479774e-10 0)
(0.9088144 -1.2477046e-10 0)
(0.9088144 -1.3042212e-10 0)
(0.9088144 -9.969891e-11 0)
(0.9088144 -9.3785603e-11 0)
(0.9088144 -4.3020213e-11 0)
(0.9088144 -2.9988766e-11 0)
(0.9088144 1.6813761e-11 0)
(0.9088144 2.765191e-11 0)
(0.9088144 8.0333114e-11 0)
(0.9088144 9.3703817e-11 0)
(0.9088144 1.2836663e-10 0)
(0.9088144 1.2829791e-10 0)
(0.9088144 1.5671136e-10 0)
(0.9088144 1.4236277e-10 0)
(0.9088144 1.5078089e-10 0)
(0.9088144 1.2537776e-10 0)
(0.9088144 1.3567898e-10 0)
(0.9088144 1.1122891e-10 0)
(0.9088144 1.2275882e-10 0)
(0.9088144 1.1092585e-10 0)
(0.90881441 1.5582376e-10 0)
(0.9088144 1.7285618e-10 0)
(0.90881441 2.5283706e-10 0)
(0.9088144 3.1284712e-10 0)
(0.90881441 4.8040655e-10 0)
(0.90881441 6.6607373e-10 0)
(0.90881441 1.0731646e-09 0)
(0.90881441 1.5070112e-09 0)
(0.9088144 2.2438442e-09 0)
(0.90881442 2.8247064e-09 0)
(0.9088144 3.8667742e-09 0)
(0.90881443 4.8813134e-09 0)
(0.90881439 6.3595746e-09 0)
(0.90881446 8.0251537e-09 0)
(0.89451115 -7.4776511e-05 0)
(0.89748716 -0.00039908481 0)
(0.89794057 -0.0006246006 0)
(0.89824534 -0.00067892175 0)
(0.89918224 -0.00063619524 0)
(0.90043202 -0.00057707553 0)
(0.90159309 -0.00052986778 0)
(0.90254915 -0.00048936526 0)
(0.90335632 -0.00044754288 0)
(0.90407816 -0.00040389851 0)
(0.90473469 -0.00036154478 0)
(0.90532328 -0.00032255032 0)
(0.90584266 -0.00028711101 0)
(0.90629824 -0.00025470204 0)
(0.9066977 -0.00022492293 0)
(0.90704752 -0.00019760897 0)
(0.90735252 -0.00017265022 0)
(0.90761678 -0.00014990202 0)
(0.9078441 -0.00012919316 0)
(0.90803809 -0.00011036996 0)
(0.90820206 -9.3309276e-05 0)
(0.90833906 -7.7922332e-05 0)
(0.90845197 -6.4145825e-05 0)
(0.90854354 -5.1937998e-05 0)
(0.90861642 -4.1266812e-05 0)
(0.90867324 -3.2098096e-05 0)
(0.90871649 -2.4381355e-05 0)
(0.90874857 -1.8039648e-05 0)
(0.90877167 -1.2965884e-05 0)
(0.90878779 -9.0241824e-06 0)
(0.90879864 -6.059033e-06 0)
(0.90880564 -3.9043316e-06 0)
(0.90880995 -2.3973333e-06 0)
(0.90881246 -1.386021e-06 0)
(0.9088138 -7.3925937e-07 0)
(0.90881444 -3.4764974e-07 0)
(0.90881469 -1.2688311e-07 0)
(0.90881474 -1.4855749e-08 0)
(0.90881469 3.3197479e-08 0)
(0.90881462 4.7273286e-08 0)
(0.90881455 4.4390342e-08 0)
(0.9088145 3.5533723e-08 0)
(0.90881446 2.5393182e-08 0)
(0.90881444 1.6999679e-08 0)
(0.90881442 1.0373916e-08 0)
(0.90881441 6.1173111e-09 0)
(0.90881441 3.0995027e-09 0)
(0.90881441 1.5860418e-09 0)
(0.90881441 4.5019195e-10 0)
(0.90881441 1.6350337e-10 0)
(0.90881441 -2.2535366e-10 0)
(0.90881441 -1.27317e-10 0)
(0.90881441 -3.2524937e-10 0)
(0.90881441 -1.2439228e-10 0)
(0.90881441 -2.8213961e-10 0)
(0.90881441 -7.9750476e-11 0)
(0.90881441 -2.514379e-10 0)
(0.90881441 -4.4996967e-11 0)
(0.90881441 -2.1565071e-10 0)
(0.90881441 -2.2614913e-11 0)
(0.90881441 -2.0471079e-10 0)
(0.90881441 -4.9582931e-12 0)
(0.90881441 -1.7843562e-10 0)
(0.90881441 1.7140804e-11 0)
(0.90881441 -1.6141485e-10 0)
(0.90881441 4.7225906e-11 0)
(0.90881441 -1.2268886e-10 0)
(0.90881441 7.9170313e-11 0)
(0.90881441 -9.7469759e-11 0)
(0.90881441 1.1778036e-10 0)
(0.90881441 -4.7970322e-11 0)
(0.90881441 1.5727545e-10 0)
(0.90881441 -1.6307474e-11 0)
(0.90881441 1.9262758e-10 0)
(0.90881441 1.8563692e-11 0)
(0.90881441 2.0525195e-10 0)
(0.90881441 7.3170947e-12 0)
(0.90881441 1.8920172e-10 0)
(0.90881441 -1.3862987e-11 0)
(0.90881441 1.5226341e-10 0)
(0.90881441 -6.2267989e-11 0)
(0.90881441 1.1695197e-10 0)
(0.90881441 -8.228134e-11 0)
(0.90881441 1.02088e-10 0)
(0.90881441 -8.8137676e-11 0)
(0.90881441 1.2869033e-10 0)
(0.90881441 -2.9684536e-11 0)
(0.90881441 2.1541839e-10 0)
(0.90881441 7.7633057e-11 0)
(0.90881441 3.6982701e-10 0)
(0.90881441 2.7718883e-10 0)
(0.90881441 6.6113091e-10 0)
(0.90881441 5.9065115e-10 0)
(0.90881442 9.987653e-10 0)
(0.90881441 6.8585486e-10 0)
(0.90881442 5.9488591e-10 0)
(0.90881441 -1.3869629e-10 0)
(0.90881444 -1.2697273e-09 0)
(0.9088144 -2.7141492e-09 0)
(0.90881447 -4.0413575e-09 0)
(0.84502645 -0.00022605681 0)
(0.84768616 -0.0011528624 0)
(0.84797404 -0.0017592962 0)
(0.84808299 -0.0018738594 0)
(0.84870246 -0.0017283369 0)
(0.84954836 -0.0015469862 0)
(0.85028869 -0.0014017174 0)
(0.85084354 -0.0012765294 0)
(0.85127299 -0.00115094 0)
(0.85163648 -0.0010245064 0)
(0.8519545 -0.0009052739 0)
(0.85222803 -0.00079795229 0)
(0.85245855 -0.0007023884 0)
(0.85265193 -0.00061671108 0)
(0.85281514 -0.00053947329 0)
(0.85295345 -0.00046986071 0)
(0.85307054 -0.00040724697 0)
(0.85316915 -0.00035096446 0)
(0.85325169 -0.00030034696 0)
(0.85332022 -0.00025482133 0)
(0.85337659 -0.00021394331 0)
(0.85342233 -0.00017738647 0)
(0.85345884 -0.00014491953 0)
(0.8534874 -0.0001163802 0)
(0.85350922 -9.1642462e-05 0)
(0.85352545 -7.0578945e-05 0)
(0.85353714 -5.3024782e-05 0)
(0.85354527 -3.8754048e-05 0)
(0.85355069 -2.7471245e-05 0)
(0.85355413 -1.8820756e-05 0)
(0.85355618 -1.240687e-05 0)
(0.8535573 -7.8221188e-06 0)
(0.85355784 -4.6734954e-06 0)
(0.85355804 -2.606225e-06 0)
(0.85355805 -1.317192e-06 0)
(0.853558 -5.6273645e-07 0)
(0.85355791 -1.569176e-07 0)
(0.85355783 3.4739609e-08 0)
(0.85355777 1.0608633e-07 0)
(0.85355773 1.155801e-07 0)
(0.8535577 9.8284411e-08 0)
(0.85355769 7.3196869e-08 0)
(0.85355768 4.9735198e-08 0)
(0.85355767 3.1125969e-08 0)
(0.85355767 1.8055545e-08 0)
(0.85355768 9.4666737e-09 0)
(0.85355767 4.3745726e-09 0)
(0.85355768 1.445921e-09 0)
(0.85355768 7.449291e-11 0)
(0.85355768 -5.783853e-10 0)
(0.85355768 -7.1385024e-10 0)
(0.85355768 -7.6719101e-10 0)
(0.85355768 -6.2475314e-10 0)
(0.85355768 -5.6921803e-10 0)
(0.85355768 -4.1804629e-10 0)
(0.85355768 -3.9869604e-10 0)
(0.85355768 -2.7367357e-10 0)
(0.85355768 -2.6522656e-10 0)
(0.85355768 -1.6268699e-10 0)
(0.85355768 -1.8415591e-10 0)
(0.85355768 -8.7899711e-11 0)
(0.85355768 -1.0188679e-10 0)
(0.85355767 -1.2824369e-11 0)
(0.85355768 -4.9558049e-11 0)
(0.85355767 3.5750337e-11 0)
(0.85355768 1.2803332e-11 0)
(0.85355767 8.9892765e-11 0)
(0.85355768 4.3717077e-11 0)
(0.85355767 1.1921724e-10 0)
(0.85355768 8.594037e-11 0)
(0.85355767 1.5150424e-10 0)
(0.85355768 9.3559481e-11 0)
(0.85355767 1.5246489e-10 0)
(0.85355768 9.5048129e-11 0)
(0.85355767 1.3493239e-10 0)
(0.85355768 4.6654594e-11 0)
(0.85355767 7.895522e-11 0)
(0.85355768 3.9784489e-13 0)
(0.85355767 2.7049078e-11 0)
(0.85355768 -6.3365443e-11 0)
(0.85355767 -2.9220649e-11 0)
(0.85355768 -9.3315272e-11 0)
(0.85355768 -4.4880227e-11 0)
(0.85355768 -1.0447809e-10 0)
(0.85355768 -3.5156423e-11 0)
(0.85355768 -5.1233431e-11 0)
(0.85355768 3.3548193e-11 0)
(0.85355768 3.6908267e-11 0)
(0.85355768 1.3352362e-10 0)
(0.85355768 1.9592019e-10 0)
(0.85355768 2.7905131e-10 0)
(0.85355768 3.5834143e-10 0)
(0.85355768 2.6891629e-10 0)
(0.85355768 1.3576342e-10 0)
(0.85355768 -6.9959872e-10 0)
(0.85355769 -1.6366966e-09 0)
(0.85355768 -3.8961613e-09 0)
(0.8535577 -6.9443371e-09 0)
(0.85355766 -1.131149e-08 0)
(0.85355773 -1.5677164e-08 0)
(0.73485766 -0.00037166685 0)
(0.73680041 -0.0017171982 0)
(0.73661068 -0.0024711844 0)
(0.73617264 -0.0025022123 0)
(0.73605752 -0.0022088448 0)
(0.73607529 -0.0019032819 0)
(0.7360172 -0.0016659826 0)
(0.73585541 -0.0014679276 0)
(0.73564676 -0.0012822298 0)
(0.7354367 -0.0011081555 0)
(0.73523963 -0.00095351139 0)
(0.73505548 -0.00082106731 0)
(0.73488353 -0.00070813144 0)
(0.73472512 -0.00061070921 0)
(0.73458172 -0.00052584013 0)
(0.73445366 -0.00045160763 0)
(0.73434034 -0.00038653554 0)
(0.73424079 -0.00032929475 0)
(0.734154 -0.00027873252 0)
(0.734079 -0.00023393467 0)
(0.73401481 -0.00019423125 0)
(0.73396049 -0.00015914755 0)
(0.73391509 -0.00012835588 0)
(0.7338777 -0.00010162376 0)
(0.73384743 -7.8766441e-05 0)
(0.73382341 -5.9597865e-05 0)
(0.73380477 -4.3892767e-05 0)
(0.73379066 -3.1365667e-05 0)
(0.73378027 -2.1668406e-05 0)
(0.73377286 -1.4406133e-05 0)
(0.73376774 -9.1608193e-06 0)
(0.73376435 -5.5214189e-06 0)
(0.7337622 -3.1063779e-06 0)
(0.7337609 -1.5850888e-06 0)
(0.73376018 -6.8441308e-07 0)
(0.73375981 -1.9458291e-07 0)
(0.73375965 4.0406117e-08 0)
(0.7337596 1.2949006e-07 0)
(0.73375961 1.42834e-07 0)
(0.73375964 1.2202388e-07 0)
(0.73375967 9.1551047e-08 0)
(0.7337597 6.2225719e-08 0)
(0.73375972 3.9230801e-08 0)
(0.73375974 2.253851e-08 0)
(0.73375975 1.1957344e-08 0)
(0.73375975 5.2488592e-09 0)
(0.73375976 1.8267703e-09 0)
(0.73375976 -1.8935334e-10 0)
(0.73375976 -7.3702746e-10 0)
(0.73375976 -1.1583909e-09 0)
(0.73375976 -9.3899911e-10 0)
(0.73375976 -1.0094463e-09 0)
(0.73375976 -6.5632573e-10 0)
(0.73375976 -7.1992048e-10 0)
(0.73375976 -4.1451377e-10 0)
(0.73375976 -5.2255374e-10 0)
(0.73375976 -2.3321918e-10 0)
(0.73375976 -3.6631138e-10 0)
(0.73375976 -1.1025715e-10 0)
(0.73375976 -2.5815197e-10 0)
(0.73375976 7.9710116e-12 0)
(0.73375976 -1.4676745e-10 0)
(0.73375976 9.5926054e-11 0)
(0.73375976 -7.001451e-11 0)
(0.73375976 1.8000488e-10 0)
(0.73375976 2.7338325e-12 0)
(0.73375976 2.2778922e-10 0)
(0.73375976 3.8305934e-11 0)
(0.73375976 2.7049232e-10 0)
(0.73375976 6.9209071e-11 0)
(0.73375976 2.6700075e-10 0)
(0.73375976 4.8895459e-11 0)
(0.73375976 2.4474703e-10 0)
(0.73375976 1.2161919e-11 0)
(0.73375976 1.761505e-10 0)
(0.73375976 -6.9582182e-11 0)
(0.73375976 1.087095e-10 0)
(0.73375976 -1.3426399e-10 0)
(0.73375976 3.2432436e-11 0)
(0.73375976 -2.0352263e-10 0)
(0.73375976 -4.670945e-12 0)
(0.73375976 -2.230162e-10 0)
(0.73375976 -2.1707003e-11 0)
(0.73375976 -2.1855534e-10 0)
(0.73375976 2.0652791e-11 0)
(0.73375976 -1.4497517e-10 0)
(0.73375976 9.3126215e-11 0)
(0.73375976 -4.4339746e-11 0)
(0.73375976 2.0546608e-10 0)
(0.73375976 1.0186125e-10 0)
(0.73375976 2.7393333e-10 0)
(0.73375976 1.2785075e-10 0)
(0.73375976 9.4426536e-12 0)
(0.73375976 -5.0112742e-10 0)
(0.73375976 -1.5540871e-09 0)
(0.73375976 -2.8658147e-09 0)
(0.73375975 -6.2592533e-09 0)
(0.73375977 -1.0248469e-08 0)
(0.73375973 -1.745402e-08 0)
(0.73375979 -2.4462624e-08 0)
(0.54154066 -0.00046636191 0)
(0.54221519 -0.0017966584 0)
(0.54109364 -0.0022966929 0)
(0.53973307 -0.0020695009 0)
(0.53863563 -0.0016338267 0)
(0.53773281 -0.0012803674 0)
(0.53691406 -0.001040586 0)
(0.53615833 -0.00086279591 0)
(0.53548317 -0.00071432105 0)
(0.53489761 -0.00058933885 0)
(0.53439513 -0.00048863827 0)
(0.53396336 -0.00040938704 0)
(0.53359119 -0.00034614898 0)
(0.5332703 -0.00029414099 0)
(0.53299412 -0.00025034711 0)
(0.53275702 -0.00021299433 0)
(0.53255403 -0.00018085139 0)
(0.5323809 -0.00015293673 0)
(0.53223406 -0.00012848436 0)
(0.53211044 -0.00010694818 0)
(0.53200737 -8.7962743e-05 0)
(0.53192248 -7.1289937e-05 0)
(0.53185358 -5.6771767e-05 0)
(0.5317986 -4.4295017e-05 0)
(0.53175561 -3.3761256e-05 0)
(0.53172274 -2.5061495e-05 0)
(0.53169826 -1.8060322e-05 0)
(0.53168053 -1.2589116e-05 0)
(0.5316681 -8.4514765e-06 0)
(0.5316597 -5.4326983e-06 0)
(0.53165425 -3.3157399e-06 0)
(0.53165089 -1.8948745e-06 0)
(0.53164893 -9.8858777e-07 0)
(0.53164789 -4.4436444e-07 0)
(0.5316474 -1.4249845e-07 0)
(0.53164722 9.1062199e-09 0)
(0.53164721 7.1889315e-08 0)
(0.53164726 8.5198788e-08 0)
(0.53164733 7.4947732e-08 0)
(0.5316474 5.7208776e-08 0)
(0.53164745 3.9400449e-08 0)
(0.53164749 2.5084493e-08 0)
(0.53164752 1.4554348e-08 0)
(0.53164753 7.7743812e-09 0)
(0.53164754 3.4585167e-09 0)
(0.53164754 1.1953185e-09 0)
(0.53164755 -1.3672982e-10 0)
(0.53164755 -5.459971e-10 0)
(0.53164755 -8.2753731e-10 0)
(0.53164755 -7.2224803e-10 0)
(0.53164755 -7.559904e-10 0)
(0.53164755 -5.4364651e-10 0)
(0.53164755 -5.6058312e-10 0)
(0.53164755 -3.7976936e-10 0)
(0.53164755 -4.2599757e-10 0)
(0.53164754 -2.4466423e-10 0)
(0.53164754 -2.9973349e-10 0)
(0.53164754 -1.4299383e-10 0)
(0.53164754 -2.0939948e-10 0)
(0.53164754 -3.9255496e-11 0)
(0.53164754 -1.0570081e-10 0)
(0.53164754 4.4531954e-11 0)
(0.53164754 -3.4291686e-11 0)
(0.53164754 1.2765322e-10 0)
(0.53164754 4.279499e-11 0)
(0.53164754 1.7266519e-10 0)
(0.53164754 6.8752653e-11 0)
(0.53164754 2.0419416e-10 0)
(0.53164754 8.925535e-11 0)
(0.53164754 1.8994127e-10 0)
(0.53164754 5.6808397e-11 0)
(0.53164754 1.6134041e-10 0)
(0.53164754 2.219626e-11 0)
(0.53164754 1.0231586e-10 0)
(0.53164754 -4.5337285e-11 0)
(0.53164754 5.0443823e-11 0)
(0.53164754 -9.2308837e-11 0)
(0.53164754 -9.9404408e-12 0)
(0.53164754 -1.5121045e-10 0)
(0.53164754 -3.9846796e-11 0)
(0.53164754 -1.6016324e-10 0)
(0.53164754 -4.8517587e-11 0)
(0.53164754 -1.6004986e-10 0)
(0.53164754 -1.3413052e-11 0)
(0.53164754 -1.0269151e-10 0)
(0.53164754 4.4234978e-11 0)
(0.53164754 -4.1010277e-11 0)
(0.53164754 1.3767342e-10 0)
(0.53164754 5.1307607e-11 0)
(0.53164754 2.1864226e-10 0)
(0.53164755 5.9135861e-11 0)
(0.53164754 1.6251354e-10 0)
(0.53164755 -3.1571026e-10 0)
(0.53164755 -5.735387e-10 0)
(0.53164754 -1.711528e-09 0)
(0.53164754 -2.7597114e-09 0)
(0.53164754 -6.232233e-09 0)
(0.53164754 -9.5612006e-09 0)
(0.53164751 -1.8510079e-08 0)
(0.53164754 -2.5977545e-08 0)
(0.23209877 -0.00035477198 0)
(0.23131973 -0.00094251682 0)
(0.22967543 -0.000954697 0)
(0.2281654 -0.00067885081 0)
(0.22704759 -0.00042684006 0)
(0.22623384 -0.00028379021 0)
(0.22560265 -0.00021095433 0)
(0.22508822 -0.00016480531 0)
(0.22466435 -0.00012897618 0)
(0.22431637 -0.0001015832 0)
(0.22402988 -8.2148858e-05 0)
(0.22379126 -6.8510128e-05 0)
(0.22358993 -5.8260752e-05 0)
(0.22341862 -4.9900657e-05 0)
(0.22327239 -4.2775671e-05 0)
(0.22314751 -3.6617627e-05 0)
(0.22304102 -3.1248156e-05 0)
(0.22295048 -2.6516009e-05 0)
(0.2228739 -2.230738e-05 0)
(0.22280964 -1.8554008e-05 0)
(0.22275627 -1.5217133e-05 0)
(0.22271253 -1.2275006e-05 0)
(0.22267724 -9.7123143e-06 0)
(0.22264929 -7.5165687e-06 0)
(0.22262763 -5.6734798e-06 0)
(0.22261124 -4.1638126e-06 0)
(0.22259918 -2.9617416e-06 0)
(0.22259058 -2.0342082e-06 0)
(0.22258465 -1.3434534e-06 0)
(0.22258072 -8.4805005e-07 0)
(0.22257823 -5.0723692e-07 0)
(0.22257674 -2.8293546e-07 0)
(0.22257592 -1.4317037e-07 0)
(0.22257551 -6.1374163e-08 0)
(0.22257534 -1.7514003e-08 0)
(0.22257531 5.5058724e-09 0)
(0.22257533 1.5066232e-08 0)
(0.22257538 1.6174814e-08 0)
(0.22257542 1.3388592e-08 0)
(0.22257546 9.91858e-09 0)
(0.22257549 6.4938121e-09 0)
(0.22257551 4.0614599e-09 0)
(0.22257552 2.1639431e-09 0)
(0.22257553 1.1680607e-09 0)
(0.22257553 3.6378968e-10 0)
(0.22257553 1.3413483e-10 0)
(0.22257553 -1.9054207e-10 0)
(0.22257553 -1.2849619e-10 0)
(0.22257553 -2.8809972e-10 0)
(0.22257553 -1.5581677e-10 0)
(0.22257553 -2.6548047e-10 0)
(0.22257553 -1.0935162e-10 0)
(0.22257553 -2.276704e-10 0)
(0.22257553 -7.9313364e-11 0)
(0.22257553 -1.880115e-10 0)
(0.22257553 -2.8926658e-11 0)
(0.22257553 -1.5002244e-10 0)
(0.22257553 1.4562556e-12 0)
(0.22257553 -1.0897065e-10 0)
(0.22257553 4.9660739e-11 0)
(0.22257553 -7.477207e-11 0)
(0.22257553 7.3383157e-11 0)
(0.22257553 -4.4045287e-11 0)
(0.22257553 1.0464714e-10 0)
(0.22257553 -2.9600934e-11 0)
(0.22257553 1.0794565e-10 0)
(0.22257553 -2.2212291e-11 0)
(0.22257553 1.1795648e-10 0)
(0.22257553 -2.9935256e-11 0)
(0.22257553 9.7672554e-11 0)
(0.22257553 -4.2946173e-11 0)
(0.22257553 8.9160087e-11 0)
(0.22257553 -6.5302439e-11 0)
(0.22257553 6.0063345e-11 0)
(0.22257553 -8.0048425e-11 0)
(0.22257553 5.2799277e-11 0)
(0.22257553 -9.6458563e-11 0)
(0.22257553 3.2779607e-11 0)
(0.22257553 -9.9600635e-11 0)
(0.22257553 4.1160356e-11 0)
(0.22257553 -9.9622485e-11 0)
(0.22257553 3.9351089e-11 0)
(0.22257553 -8.6764406e-11 0)
(0.22257553 6.3372231e-11 0)
(0.22257553 -7.0799568e-11 0)
(0.22257553 7.5146146e-11 0)
(0.22257553 -4.5779334e-11 0)
(0.22257553 1.0789814e-10 0)
(0.22257553 -2.5531646e-11 0)
(0.22257553 1.2102423e-10 0)
(0.22257553 -3.8167044e-11 0)
(0.22257553 5.2496839e-11 0)
(0.22257553 -2.8162074e-10 0)
(0.22257553 -3.3915298e-10 0)
(0.22257553 -8.9579717e-10 0)
(0.22257553 -1.4999627e-09 0)
(0.22257552 -3.1305419e-09 0)