/*--------------------------------*- C++ -*----------------------------------*\
| =========                 |                                                 |
| \\      /  F ield         | OpenFOAM: The Open Source CFD Toolbox           |
|  \\    /   O peration     | Version:  v1812                                 |
|   \\  /    A nd           | Web:      www.OpenFOAM.com                      |
|    \\/     M anipulation  |                                                 |
\*---------------------------------------------------------------------------*/
FoamFile
{
    version     2.0;
    format      ascii;
    class       volVectorField;
    location    "4";
    object      U;
}
// * * * * * * * * * * * * * * * * * * * * * * * * * * * * * * * * * * * * * //

dimensions      [0 1 -1 0 0 0 0];


internalField   nonuniform List<vector> 
1000
(
(0.91890839 0.035821913 0)
(0.86271384 0.062195639 0)
(0.7870597 0.06251009 0)
(0.69536033 0.054550392 0)
(0.61089745 0.044531642 0)
(0.54411595 0.034015946 0)
(0.49343019 0.024187491 0)
(0.45479426 0.016144143 0)
(0.42544605 0.010265638 0)
(0.4034735 0.0063039363 0)
(0.38715821 0.0037973643 0)
(0.374963 0.0023099733 0)
(0.36566313 0.0014924609 0)
(0.35836452 0.0010842965 0)
(0.3524453 0.00090494899 0)
(0.34748577 0.00083959386 0)
(0.34320881 0.00082184054 0)
(0.33943474 0.00081684908 0)
(0.33604841 0.000808641 0)
(0.33297584 0.00079166444 0)
(0.33016841 0.00076552694 0)
(0.32759276 0.00073195064 0)
(0.32522466 0.00069320238 0)
(0.32304549 0.00065138096 0)
(0.32104023 0.00060814202 0)
(0.31919637 0.00056464618 0)
(0.31750329 0.00052162874 0)
(0.31595189 0.00047952256 0)
(0.31453432 0.0004385722 0)
(0.31324375 0.00039892212 0)
(0.31207407 0.00036067152 0)
(0.31101964 0.00032391649 0)
(0.31007503 0.00028876846 0)
(0.30923482 0.00025536442 0)
(0.30849339 0.00022385638 0)
(0.3078448 0.00019440173 0)
(0.30728279 0.00016714449 0)
(0.3068007 0.00014220376 0)
(0.30639157 0.00011965893 0)
(0.30604827 9.9542736e-05 0)
(0.30576357 8.1835877e-05 0)
(0.30553033 6.6467731e-05 0)
(0.30534166 5.3320882e-05 0)
(0.305191 4.2236537e-05 0)
(0.30507228 3.3026022e-05 0)
(0.30497999 2.5483727e-05 0)
(0.30490923 1.9399633e-05 0)
(0.30485573 1.456528e-05 0)
(0.30481586 1.0783186e-05 0)
(0.30478656 7.8694856e-06 0)
(0.30476535 5.6603691e-06 0)
(0.30475022 4.0113239e-06 0)
(0.30473959 2.8004686e-06 0)
(0.30473224 1.9251173e-06 0)
(0.30472723 1.3030946e-06 0)
(0.30472387 8.6785946e-07 0)
(0.30472165 5.6889097e-07 0)
(0.30472022 3.6652489e-07 0)
(0.3047193 2.3237401e-07 0)
(0.30471873 1.445998e-07 0)
(0.30471838 8.8612762e-08 0)
(0.30471817 5.3205135e-08 0)
(0.30471804 3.1552432e-08 0)
(0.30471797 1.8326846e-08 0)
(0.30471793 1.062014e-08 0)
(0.30471791 6.0539068e-09 0)
(0.30471789 3.5169692e-09 0)
(0.30471789 2.0358791e-09 0)
(0.30471788 1.2757261e-09 0)
(0.30471788 7.5912347e-10 0)
(0.30471788 5.5344546e-10 0)
(0.30471788 2.756042e-10 0)
(0.30471788 2.9363689e-10 0)
(0.30471788 5.8855501e-11 0)
(0.30471788 1.8040779e-10 0)
(0.30471788 -1.7081184e-11 0)
(0.30471788 1.8912352e-10 0)
(0.30471788 -7.5434859e-12 0)
(0.30471788 2.526485e-10 0)
(0.30471788 -1.4196696e-12 0)
(0.30471787 3.5401809e-10 0)
(0.30471788 -3.688103e-11 0)
(0.30471787 4.2199178e-10 0)
(0.30471788 -1.0775074e-10 0)
(0.30471787 5.532911e-10 0)
(0.30471788 -4.9873689e-11 0)
(0.30471787 1.0032694e-09 0)
(0.30471788 5.3689935e-10 0)
(0.30471787 2.4720085e-09 0)
(0.30471788 2.511695e-09 0)
(0.30471786 6.3189943e-09 0)
(0.30471786 7.8088591e-09 0)
(0.30471782 1.6449851e-08 0)
(0.30471783 2.4469212e-08 0)
(0.30471774 5.1014851e-08 0)
(0.30471773 8.9181368e-08 0)
(0.30471748 1.7488381e-07 0)
(0.30471731 3.0151735e-07 0)
(0.30471645 5.1873573e-07 0)
(0.30471574 7.1040263e-07 0)
(1.0016583 0.05381943 0)
(1.0359761 0.10128444 0)
(1.0597199 0.11073663 0)
(1.0628947 0.10592201 0)
(1.0515569 0.096228712 0)
(1.0340529 0.083934025 0)
(1.0142795 0.070326996 0)
(0.99360708 0.05698122 0)
(0.9729259 0.045107295 0)
(0.95310767 0.035236474 0)
(0.93479587 0.027401251 0)
(0.91829093 0.021386654 0)
(0.90362513 0.016883673 0)
(0.89068288 0.013568514 0)
(0.87928532 0.011145992 0)
(0.86923805 0.0093710729 0)
(0.86035288 0.0080531691 0)
(0.85245969 0.0070516824 0)
(0.84541174 0.0062673144 0)
(0.83908635 0.0056323333 0)
(0.83338263 0.005101643 0)
(0.82821836 0.0046455073 0)
(0.82352681 0.0042442116 0)
(0.81925383 0.0038844925 0)
(0.81535542 0.0035572396 0)
(0.81179565 0.0032559951 0)
(0.8085451 0.0029759932 0)
(0.80557957 0.002713627 0)
(0.802879 0.0024661991 0)
(0.80042658 0.0022317992 0)
(0.79820785 0.0020092028 0)
(0.79621004 0.001797774 0)
(0.79442136 0.0015973639 0)
(0.79283052 0.0014082043 0)
(0.79142625 0.0012307816 0)
(0.79019699 0.001065707 0)
(0.78913073 0.0009135892 0)
(0.78821492 0.00077492963 0)
(0.78743657 0.00065003878 0)
(0.78678236 0.00053898233 0)
(0.78623886 0.00044155401 0)
(0.78579277 0.0003572765 0)
(0.78543121 0.0002854258 0)
(0.78514192 0.00022507138 0)
(0.78491351 0.00017513143 0)
(0.78473561 0.00013443415 0)
(0.78459896 0.00010177753 0)
(0.78449547 7.5978031e-05 0)
(0.78441821 5.5914523e-05 0)
(0.78436137 4.0556502e-05 0)
(0.78432016 2.8987114e-05 0)
(0.78429074 2.0410015e-05 0)
(0.78427005 1.4154061e-05 0)
(0.78425573 9.6642608e-06 0)
(0.78424597 6.4954301e-06 0)
(0.78423942 4.2952016e-06 0)
(0.78423511 2.7939102e-06 0)
(0.78423231 1.7863371e-06 0)
(0.78423053 1.1225883e-06 0)
(0.78422942 6.9262196e-07 0)
(0.78422873 4.196882e-07 0)
(0.78422833 2.4945513e-07 0)
(0.78422808 1.4550067e-07 0)
(0.78422795 8.3394755e-08 0)
(0.78422787 4.6858205e-08 0)
(0.78422783 2.6191102e-08 0)
(0.7842278 1.4313121e-08 0)
(0.78422779 8.0695036e-09 0)
(0.78422779 4.4710807e-09 0)
(0.78422779 2.6174822e-09 0)
(0.78422778 1.660118e-09 0)
(0.78422779 8.4243735e-10 0)
(0.78422778 7.9923649e-10 0)
(0.78422779 9.218511e-11 0)
(0.78422778 4.6265375e-10 0)
(0.78422779 -2.0633792e-10 0)
(0.78422778 4.0138828e-10 0)
(0.78422779 -2.2427828e-10 0)
(0.78422778 5.5272691e-10 0)
(0.78422779 -1.547025e-10 0)
(0.78422778 8.4497756e-10 0)
(0.78422779 -1.3816237e-10 0)
(0.78422778 1.1632424e-09 0)
(0.78422779 -1.8684926e-10 0)
(0.78422778 1.6042389e-09 0)
(0.78422779 -3.7555778e-11 0)
(0.78422777 2.6857381e-09 0)
(0.7842278 1.0370226e-09 0)
(0.78422776 5.7833814e-09 0)
(0.7842278 4.9046066e-09 0)
(0.78422774 1.3893925e-08 0)
(0.78422781 1.6372798e-08 0)
(0.78422769 3.5185226e-08 0)
(0.78422781 5.178282e-08 0)
(0.78422756 1.0103352e-07 0)
(0.78422779 1.7462116e-07 0)
(0.78422723 3.1662084e-07 0)
(0.78422764 5.5177376e-07 0)
(0.78422618 8.6797049e-07 0)
(0.78422725 1.3173307e-06 0)
(1.0014244 0.026824855 0)
(1.0291272 0.062791352 0)
(1.0654292 0.07773655 0)
(1.098962 0.080597192 0)
(1.1253148 0.078285151 0)
(1.145053 0.073153859 0)
(1.1594858 0.066111205 0)
(1.1694286 0.058161938 0)
(1.1755353 0.050296548 0)
(1.1785737 0.043150388 0)
(1.1793569 0.036972334 0)
(1.1785948 0.031770884 0)
(1.1768302 0.027450716 0)
(1.1744517 0.023885093 0)
(1.1717287 0.020945096 0)
(1.1688447 0.018511975 0)
(1.1659203 0.016482455 0)
(1.1630333 0.014771312 0)
(1.1602324 0.013311108 0)
(1.1575463 0.012049939 0)
(1.1549907 0.010948332 0)
(1.1525726 0.0099761423 0)
(1.1502937 0.009109932 0)
(1.1481526 0.0083311313 0)
(1.1461462 0.0076248339 0)
(1.1442704 0.0069789385 0)
(1.1425205 0.0063834877 0)
(1.1408916 0.0058302413 0)
(1.1393791 0.0053124841 0)
(1.1379785 0.0048249516 0)
(1.1366858 0.0043637615 0)
(1.1354974 0.0039263123 0)
(1.1344097 0.0035111561 0)
(1.1334196 0.0031178396 0)
(1.132524 0.0027466997 0)
(1.1317196 0.0023986193 0)
(1.1310029 0.0020747667 0)
(1.1303701 0.0017763452 0)
(1.1298168 0.0015043736 0)
(1.129338 0.0012595095 0)
(1.1289284 0.0010419277 0)
(1.1285822 0.00085125787 0)
(1.1282931 0.00068657924 0)
(1.1280548 0.00054646781 0)
(1.1278611 0.00042908139 0)
(1.1277057 0.00033226728 0)
(1.1275829 0.00025368355 0)
(1.1274872 0.00019091763 0)
(1.1274137 0.00014159503 0)
(1.1273581 0.00010346606 0)
(1.1273166 7.4472823e-05 0)
(1.1272862 5.2788551e-05 0)
(1.1272642 3.6839677e-05 0)
(1.1272486 2.5304151e-05 0)
(1.1272376 1.710163e-05 0)
(1.1272301 1.1367592e-05 0)
(1.127225 7.4288117e-06 0)
(1.1272216 4.7701084e-06 0)
(1.1272194 3.0079572e-06 0)
(1.1272179 1.8612947e-06 0)
(1.127217 1.1291992e-06 0)
(1.1272165 6.7133685e-07 0)
(1.1272161 3.9019534e-07 0)
(1.1272159 2.2223319e-07 0)
(1.1272158 1.2301015e-07 0)
(1.1272157 6.7088349e-08 0)
(1.1272157 3.5125327e-08 0)
(1.1272157 1.8407538e-08 0)
(1.1272157 9.204095e-09 0)
(1.1272157 4.4688675e-09 0)
(1.1272157 2.4374117e-09 0)
(1.1272157 6.1680631e-10 0)
(1.1272157 8.1576267e-10 0)
(1.1272157 -5.1795726e-10 0)
(1.1272157 3.317427e-10 0)
(1.1272157 -7.7062823e-10 0)
(1.1272157 1.5622921e-10 0)
(1.1272157 -6.2488531e-10 0)
(1.1272157 2.7959893e-10 0)
(1.1272157 -4.0325647e-10 0)
(1.1272157 7.1470108e-10 0)
(1.1272157 -3.1603245e-10 0)
(1.1272157 1.3662996e-09 0)
(1.1272157 -2.4939285e-10 0)
(1.1272157 2.2096683e-09 0)
(1.1272157 2.1191303e-10 0)
(1.1272156 3.6771973e-09 0)
(1.1272157 1.9628918e-09 0)
(1.1272156 7.204019e-09 0)
(1.1272157 7.3401477e-09 0)
(1.1272156 1.6294762e-08 0)
(1.1272158 2.2754213e-08 0)
(1.1272155 4.0740545e-08 0)
(1.1272159 6.937382e-08 0)
(1.1272154 1.1643881e-07 0)
(1.127216 2.1668884e-07 0)
(1.1272152 3.4647032e-07 0)
(1.1272162 6.1045445e-07 0)
(1.1272145 8.6216345e-07 0)
(1.1272168 1.2648573e-06 0)
(1.0007347 0.011814722 0)
(1.0178472 0.030860927 0)
(1.0462163 0.04143444 0)
(1.0799018 0.045193565 0)
(1.1132663 0.045502336 0)
(1.1437819 0.044080278 0)
(1.170894 0.041439929 0)
(1.1945686 0.037973585 0)
(1.214858 0.034195574 0)
(1.2319648 0.03053664 0)
(1.2462677 0.027221655 0)
(1.258233 0.024313302 0)
(1.2683121 0.021796918 0)
(1.2768853 0.019632157 0)
(1.2842522 0.017771507 0)
(1.2906432 0.016166123 0)
(1.2962363 0.014770369 0)
(1.3011694 0.013544752 0)
(1.3055504 0.012457044 0)
(1.3094637 0.011481973 0)
(1.3129758 0.010600115 0)
(1.3161394 0.0097964906 0)
(1.318997 0.0090592553 0)
(1.3215836 0.0083787735 0)
(1.3239279 0.0077470666 0)
(1.3260541 0.0071574443 0)
(1.327982 0.0066041942 0)
(1.3297282 0.0060823811 0)
(1.3313065 0.0055877963 0)
(1.3327285 0.0051169973 0)
(1.3340044 0.0046673475 0)
(1.335143 0.0042370235 0)
(1.3361524 0.0038250002 0)
(1.3370404 0.0034310074 0)
(1.3378146 0.0030554448 0)
(1.3384831 0.0026992437 0)
(1.3390541 0.0023636932 0)
(1.339536 0.0020502443 0)
(1.3399376 0.0017603155 0)
(1.3402678 0.0014951096 0)
(1.3405354 0.0012554632 0)
(1.3407491 0.0010417355 0)
(1.3409171 0.00085374974 0)
(1.341047 0.00069078373 0)
(1.3411458 0.00055160883 0)
(1.3412195 0.00043456548 0)
(1.3412735 0.00033766621 0)
(1.3413123 0.00025871102 0)
(1.3413395 0.00019540468 0)
(1.3413583 0.00014546299 0)
(1.3413709 0.0001067035 0)
(1.3413791 7.7112289e-05 0)
(1.3413843 5.4890876e-05 0)
(1.3413875 3.8477738e-05 0)
(1.3413893 2.6555516e-05 0)
(1.3413904 1.803896e-05 0)
(1.3413909 1.2057555e-05 0)
(1.3413911 7.9274642e-06 0)
(1.3413911 5.1246706e-06 0)
(1.3413911 3.2558541e-06 0)
(1.3413911 2.0314997e-06 0)
(1.341391 1.2446351e-06 0)
(1.341391 7.4740709e-07 0)
(1.3413909 4.4046978e-07 0)
(1.3413909 2.5345437e-07 0)
(1.3413909 1.4318044e-07 0)
(1.3413909 7.8471284e-08 0)
(1.3413909 4.2062144e-08 0)
(1.3413909 2.1880801e-08 0)
(1.3413909 1.0466822e-08 0)
(1.3413909 5.3246426e-09 0)
(1.3413909 1.3496048e-09 0)
(1.3413909 9.0486756e-10 0)
(1.3413909 -9.7224971e-10 0)
(1.3413909 -2.7896424e-10 0)
(1.3413909 -1.2791064e-09 0)
(1.3413909 -5.7728757e-10 0)
(1.3413909 -1.0039403e-09 0)
(1.3413909 -3.9129693e-10 0)
(1.3413909 -7.0636964e-10 0)
(1.3413909 2.1166594e-10 0)
(1.3413909 -5.5319983e-10 0)
(1.3413909 1.0380592e-09 0)
(1.3413909 -2.6641511e-10 0)
(1.3413908 1.947632e-09 0)
(1.3413909 6.0895743e-10 0)
(1.3413908 3.2439009e-09 0)
(1.3413909 2.7941644e-09 0)
(1.3413908 6.1704239e-09 0)
(1.341391 8.1179706e-09 0)
(1.3413907 1.3423284e-08 0)
(1.3413911 2.1760138e-08 0)
(1.3413907 3.264802e-08 0)
(1.3413912 6.0952528e-08 0)
(1.3413906 9.2720835e-08 0)
(1.3413915 1.7745033e-07 0)
(1.3413905 2.6634828e-07 0)
(1.3413919 4.5868175e-07 0)
(1.3413901 6.1640743e-07 0)
(1.341393 8.6691257e-07 0)
(1.0005903 0.0034629162 0)
(1.0136865 0.0093660207 0)
(1.0370283 0.013046807 0)
(1.0674202 0.014563262 0)
(1.1000315 0.014854523 0)
(1.1316427 0.014564985 0)
(1.1610744 0.013888326 0)
(1.1880672 0.01291922 0)
(1.2125202 0.01180646 0)
(1.2343934 0.01069635 0)
(1.2538069 0.0096726147 0)
(1.2710327 0.0087626079 0)
(1.286399 0.0079656207 0)
(1.3002081 0.0072716459 0)
(1.3127054 0.0066679063 0)
(1.3240833 0.0061405285 0)
(1.3344932 0.0056759866 0)
(1.3440564 0.0052622961 0)
(1.3528703 0.0048895973 0)
(1.3610138 0.0045501913 0)
(1.3685507 0.0042382507 0)
(1.3755336 0.0039493812 0)
(1.3820066 0.0036801844 0)
(1.3880074 0.0034279407 0)
(1.3935685 0.0031904274 0)
(1.3987186 0.002965799 0)
(1.403482 0.0027524833 0)
(1.4078803 0.0025491084 0)
(1.4119319 0.0023544896 0)
(1.4156532 0.0021676481 0)
(1.4190586 0.0019878376 0)
(1.4221613 0.0018145552 0)
(1.4249736 0.0016475508 0)
(1.4275073 0.0014868234 0)
(1.4297747 0.0013326077 0)
(1.4317885 0.0011853348 0)
(1.433562 0.0010455811 0)
(1.4351099 0.00091400092 0)
(1.4364477 0.00079125833 0)
(1.437592 0.00067795601 0)
(1.43856 0.00057457362 0)
(1.4393694 0.00048141702 0)
(1.4400381 0.00039858488 0)
(1.4405837 0.00032595483 0)
(1.4410232 0.00026318723 0)
(1.4413726 0.00020974755 0)
(1.4416465 0.00016493921 0)
(1.4418584 0.0001279481 0)
(1.4420199 9.7887186e-05 0)
(1.4421414 7.3843732e-05 0)
(1.4422314 5.4918131e-05 0)
(1.4422971 4.0258955e-05 0)
(1.4423443 2.908581e-05 0)
(1.4423778 2.0706658e-05 0)
(1.4424012 1.4523591e-05 0)
(1.4424172 1.0034919e-05 0)
(1.4424281 6.8286713e-06 0)
(1.4424353 4.5760527e-06 0)
(1.44244 3.018788e-06 0)
(1.4424431 1.9605065e-06 0)
(1.442445 1.252532e-06 0)
(1.4424462 7.8765026e-07 0)
(1.4424469 4.8662318e-07 0)
(1.4424474 2.9602676e-07 0)
(1.4424476 1.7638765e-07 0)
(1.4424478 1.0357168e-07 0)
(1.4424479 5.9170578e-08 0)
(1.4424479 3.3203483e-08 0)
(1.4424479 1.7893867e-08 0)
(1.4424479 9.0520222e-09 0)
(1.442448 4.2969656e-09 0)
(1.442448 1.2611941e-09 0)
(1.442448 8.4838164e-11 0)
(1.442448 -9.9837951e-10 0)
(1.442448 -1.1195522e-09 0)
(1.442448 -1.3761391e-09 0)
(1.442448 -1.3020063e-09 0)
(1.442448 -1.143728e-09 0)
(1.442448 -1.0165994e-09 0)
(1.442448 -7.6330186e-10 0)
(1.4424479 -4.4037621e-10 0)
(1.442448 -3.7167248e-10 0)
(1.4424479 2.7602892e-10 0)
(1.442448 1.6397789e-10 0)
(1.4424479 1.0835e-09 0)
(1.442448 1.1223546e-09 0)
(1.4424479 2.1650312e-09 0)
(1.442448 2.8200017e-09 0)
(1.4424479 4.114618e-09 0)
(1.4424481 5.9795914e-09 0)
(1.4424478 7.8316344e-09 0)
(1.4424482 1.2117138e-08 0)
(1.4424478 1.552539e-08 0)
(1.4424484 2.7197119e-08 0)
(1.4424477 3.8117802e-08 0)
(1.4424487 7.0364001e-08 0)
(1.4424477 1.0162042e-07 0)
(1.4424492 1.6965395e-07 0)
(1.4424474 2.2200381e-07 0)
(1.4424506 3.0426944e-07 0)
(1.0005903 -0.0034629153 0)
(1.0136865 -0.0093660176 0)
(1.0370283 -0.013046801 0)
(1.0674202 -0.014563253 0)
(1.1000315 -0.01485451 0)
(1.1316427 -0.014564967 0)
(1.1610744 -0.013888302 0)
(1.1880672 -0.012919189 0)
(1.2125202 -0.01180642 0)
(1.2343934 -0.010696299 0)
(1.2538069 -0.0096725522 0)
(1.2710327 -0.0087625349 0)
(1.286399 -0.0079655386 0)
(1.3002081 -0.0072715575 0)
(1.3127055 -0.0066678151 0)
(1.3240833 -0.0061404394 0)
(1.3344933 -0.0056759046 0)
(1.3440565 -0.0052622267 0)
(1.3528704 -0.0048895454 0)
(1.3610138 -0.0045501619 0)
(1.3685507 -0.0042382472 0)
(1.3755337 -0.003949406 0)
(1.3820067 -0.0036802379 0)
(1.3880074 -0.003428022 0)
(1.3935685 -0.0031905333 0)
(1.3987185 -0.0029659254 0)
(1.403482 -0.0027526243 0)
(1.4078802 -0.002549258 0)
(1.4119318 -0.002354641 0)
(1.4156531 -0.0021677949 0)
(1.4190585 -0.0019879746 0)
(1.4221612 -0.0018146777 0)
(1.4249735 -0.0016476561 0)
(1.4275072 -0.0014869094 0)
(1.4297746 -0.0013326746 0)
(1.4317883 -0.0011853831 0)
(1.4335619 -0.0010456132 0)
(1.4351098 -0.00091401912 0)
(1.4364476 -0.0007912658 0)
(1.4375919 -0.00067795564 0)
(1.4385599 -0.00057456836 0)
(1.4393693 -0.00048140914 0)
(1.4400381 -0.00039857609 0)
(1.4405837 -0.00032594637 0)
(1.4410232 -0.0002631796 0)
(1.4413725 -0.000209741 0)
(1.4416465 -0.00016493346 0)
(1.4418583 -0.00012794285 0)
(1.4420199 -9.7881864e-05 0)
(1.4421413 -7.3837946e-05 0)
(1.4422313 -5.4911449e-05 0)
(1.442297 -4.0251092e-05 0)
(1.4423443 -2.9076673e-05 0)
(1.4423778 -2.0696151e-05 0)
(1.4424011 -1.4511938e-05 0)
(1.4424172 -1.00222e-05 0)
(1.442428 -6.815384e-06 0)
(1.4424353 -4.5623754e-06 0)
(1.44244 -3.0053369e-06 0)
(1.4424431 -1.9474566e-06 0)
(1.442445 -1.2405103e-06 0)
(1.4424462 -7.767152e-07 0)
(1.4424469 -4.7727159e-07 0)
(1.4424474 -2.8814376e-07 0)
(1.4424476 -1.7034397e-07 0)
(1.4424478 -9.9058894e-08 0)
(1.4424479 -5.6404672e-08 0)
(1.4424479 -3.173355e-08 0)
(1.4424479 -1.7864927e-08 0)
(1.442448 -9.969852e-09 0)
(1.4424479 -6.2124494e-09 0)
(1.442448 -3.6702952e-09 0)
(1.442448 -3.0667575e-09 0)
(1.442448 -2.0654652e-09 0)
(1.442448 -2.1088725e-09 0)
(1.442448 -1.5803431e-09 0)
(1.442448 -1.5492869e-09 0)
(1.442448 -1.2192716e-09 0)
(1.4424479 -1.0683067e-09 0)
(1.442448 -6.9383523e-10 0)
(1.4424479 -6.6884839e-10 0)
(1.442448 -2.7483094e-11 0)
(1.4424479 -2.2584628e-10 0)
(1.442448 7.1192011e-10 0)
(1.4424479 4.0800528e-10 0)
(1.442448 1.4000751e-09 0)
(1.4424479 1.2396008e-09 0)
(1.442448 1.9777707e-09 0)
(1.4424479 1.9343007e-09 0)
(1.4424481 1.7600461e-09 0)
(1.4424478 1.0865633e-09 0)
(1.4424482 -2.1683342e-09 0)
(1.4424478 -5.6501744e-09 0)
(1.4424484 -1.7661121e-08 0)
(1.4424477 -2.9411434e-08 0)
(1.4424487 -6.2069855e-08 0)
(1.4424477 -9.4000299e-08 0)
(1.4424493 -1.6388031e-07 0)
(1.4424474 -2.1901785e-07 0)
(1.4424506 -3.0396823e-07 0)
(1.0007347 -0.011814721 0)
(1.0178472 -0.030860924 0)
(1.0462163 -0.041434434 0)
(1.0799018 -0.045193556 0)
(1.1132663 -0.045502324 0)
(1.1437819 -0.044080262 0)
(1.170894 -0.041439907 0)
(1.1945686 -0.037973556 0)
(1.214858 -0.034195537 0)
(1.2319648 -0.030536594 0)
(1.2462677 -0.027221601 0)
(1.258233 -0.024313239 0)
(1.2683121 -0.021796848 0)
(1.2768854 -0.019632083 0)
(1.2842522 -0.017771432 0)
(1.2906433 -0.01616605 0)
(1.2962364 -0.014770303 0)
(1.3011696 -0.013544696 0)
(1.3055506 -0.012457002 0)
(1.3094639 -0.011481948 0)
(1.3129759 -0.01060011 0)
(1.3161395 -0.0097965061 0)
(1.3189971 -0.0090592917 0)
(1.3215836 -0.0083788287 0)
(1.3239279 -0.0077471384 0)
(1.3260541 -0.0071575288 0)
(1.327982 -0.0066042878 0)
(1.3297281 -0.0060824793 0)
(1.3313063 -0.0055878954 0)
(1.3327283 -0.0051170936 0)
(1.3340042 -0.0046674384 0)
(1.3351427 -0.0042371071 0)
(1.3361521 -0.0038250752 0)
(1.3370401 -0.0034310732 0)
(1.3378143 -0.0030555012 0)
(1.3384829 -0.0026992912 0)
(1.3390538 -0.0023637324 0)
(1.3395357 -0.002050276 0)
(1.3399374 -0.0017603404 0)
(1.3402676 -0.0014951288 0)
(1.3405352 -0.0012554773 0)
(1.340749 -0.0010417454 0)
(1.340917 -0.00085375589 0)
(1.3410469 -0.00069078686 0)
(1.3411456 -0.00055160926 0)
(1.3412193 -0.00043456388 0)
(1.3412734 -0.00033766266 0)
(1.3413121 -0.00025870613 0)
(1.3413394 -0.00019539843 0)
(1.3413582 -0.00014545595 0)
(1.3413708 -0.00010669549 0)
(1.341379 -7.7103874e-05 0)
(1.3413842 -5.4881751e-05 0)
(1.3413874 -3.8468452e-05 0)
(1.3413893 -2.6545689e-05 0)
(1.3413903 -1.802922e-05 0)
(1.3413908 -1.204755e-05 0)
(1.341391 -7.9179089e-06 0)
(1.3413911 -5.1152177e-06 0)
(1.3413911 -3.2472728e-06 0)
(1.3413911 -2.0234238e-06 0)
(1.341391 -1.2378038e-06 0)
(1.341391 -7.4135531e-07 0)
(1.3413909 -4.3587544e-07 0)
(1.3413909 -2.4974728e-07 0)
(1.3413909 -1.4094675e-07 0)
(1.3413909 -7.7012389e-08 0)
(1.3413909 -4.190999e-08 0)
(1.3413909 -2.228597e-08 0)
(1.3413909 -1.1876886e-08 0)
(1.3413909 -6.9738307e-09 0)
(1.3413909 -3.6940456e-09 0)
(1.3413909 -3.1752529e-09 0)
(1.3413909 -1.6826518e-09 0)
(1.3413909 -2.0338384e-09 0)
(1.3413909 -1.1823635e-09 0)
(1.3413909 -1.3236857e-09 0)
(1.3413909 -8.8695299e-10 0)
(1.3413909 -7.9476839e-10 0)
(1.3413909 -3.8961449e-10 0)
(1.3413909 -5.4618254e-10 0)
(1.3413909 3.5759164e-10 0)
(1.3413909 -3.792076e-10 0)
(1.3413909 1.1807568e-09 0)
(1.3413908 -1.0038462e-10 0)
(1.3413909 1.6420057e-09 0)
(1.3413908 1.6246252e-10 0)
(1.3413909 1.2601357e-09 0)
(1.3413908 -6.7783928e-10 0)
(1.341391 -1.8278563e-09 0)
(1.3413908 -5.8371402e-09 0)
(1.3413911 -1.3959094e-08 0)
(1.3413907 -2.4765593e-08 0)
(1.3413912 -5.3991298e-08 0)
(1.3413906 -8.6374292e-08 0)
(1.3413915 -1.7172669e-07 0)
(1.3413905 -2.6090601e-07 0)
(1.3413919 -4.5459318e-07 0)
(1.3413901 -6.1398223e-07 0)
(1.3413931 -8.6627688e-07 0)
(1.0014244 -0.026824854 0)
(1.0291272 -0.06279135 0)
(1.0654292 -0.077736546 0)
(1.098962 -0.080597185 0)
(1.1253148 -0.078285141 0)
(1.145053 -0.073153846 0)
(1.1594858 -0.066111188 0)
(1.1694286 -0.058161916 0)
(1.1755353 -0.050296522 0)
(1.1785737 -0.043150355 0)
(1.179357 -0.036972296 0)
(1.1785948 -0.031770841 0)
(1.1768303 -0.02745067 0)
(1.1744518 -0.023885046 0)
(1.1717288 -0.02094505 0)
(1.1688448 -0.018511931 0)
(1.1659204 -0.016482416 0)
(1.1630335 -0.014771279 0)
(1.1602326 -0.013311084 0)
(1.1575465 -0.012049923 0)
(1.1549909 -0.010948326 0)
(1.1525727 -0.0099761457 0)
(1.1502938 -0.0091099443 0)
(1.1481527 -0.0083311512 0)
(1.1461463 -0.0076248602 0)
(1.1442704 -0.0069789697 0)
(1.1425205 -0.0063835221 0)
(1.1408915 -0.0058302784 0)
(1.1393789 -0.0053125225 0)
(1.1379783 -0.0048249917 0)
(1.1366856 -0.0043638023 0)
(1.1354971 -0.0039263546 0)
(1.1344094 -0.0035111988 0)
(1.1334193 -0.0031178836 0)
(1.1325237 -0.0027467434 0)
(1.1317193 -0.002398663 0)
(1.1310026 -0.0020748086 0)
(1.1303698 -0.0017763851 0)
(1.1298165 -0.00150441 0)
(1.1293377 -0.0012595417 0)
(1.1289282 -0.0010419553 0)
(1.1285819 -0.00085128014 0)
(1.1282928 -0.00068659654 0)
(1.1280546 -0.00054647997 0)
(1.1278609 -0.00042908943 0)
(1.1277055 -0.00033227131 0)
(1.1275827 -0.00025368489 0)
(1.127487 -0.00019091649 0)
(1.1274135 -0.00014159268 0)
(1.1273579 -0.00010346255 0)
(1.1273165 -7.4469112e-05 0)
(1.1272861 -5.2784498e-05 0)
(1.1272641 -3.6835864e-05 0)
(1.1272485 -2.5300284e-05 0)
(1.1272376 -1.7098052e-05 0)
(1.12723 -1.1364013e-05 0)
(1.1272249 -7.4254922e-06 0)
(1.1272216 -4.766827e-06 0)
(1.1272193 -3.0049773e-06 0)
(1.1272179 -1.8584688e-06 0)
(1.127217 -1.1267751e-06 0)
(1.1272165 -6.6917914e-07 0)
(1.1272161 -3.8854023e-07 0)
(1.1272159 -2.209492e-07 0)
(1.1272158 -1.2227102e-07 0)
(1.1272157 -6.6720881e-08 0)
(1.1272157 -3.527345e-08 0)
(1.1272157 -1.8880613e-08 0)
(1.1272157 -1.0089638e-08 0)
(1.1272157 -5.5378228e-09 0)
(1.1272157 -3.7944302e-09 0)
(1.1272157 -2.0141985e-09 0)
(1.1272157 -2.3382506e-09 0)
(1.1272157 -8.9112703e-10 0)
(1.1272157 -1.7201945e-09 0)
(1.1272157 -3.7684944e-10 0)
(1.1272157 -1.1899591e-09 0)
(1.1272157 -6.1419317e-11 0)
(1.1272157 -7.9115237e-10 0)
(1.1272157 2.7012368e-10 0)
(1.1272157 -6.3490994e-10 0)
(1.1272157 8.1709828e-10 0)
(1.1272157 -6.1486351e-10 0)
(1.1272157 1.4471574e-09 0)
(1.1272157 -6.9503269e-10 0)
(1.1272157 1.8477242e-09 0)
(1.1272157 -1.1881055e-09 0)
(1.1272157 1.1851618e-09 0)
(1.1272156 -3.5413943e-09 0)
(1.1272157 -2.9715642e-09 0)
(1.1272156 -1.1638441e-08 0)
(1.1272158 -1.792828e-08 0)
(1.1272155 -3.6274942e-08 0)
(1.1272159 -6.5666308e-08 0)
(1.1272154 -1.1343629e-07 0)
(1.127216 -2.1389742e-07 0)
(1.1272152 -3.4373205e-07 0)
(1.1272162 -6.0862976e-07 0)
(1.1272145 -8.6187118e-07 0)
(1.1272168 -1.2656269e-06 0)
(1.0016583 -0.05381943 0)
(1.0359761 -0.10128443 0)
(1.0597199 -0.11073663 0)
(1.0628947 -0.10592201 0)
(1.0515569 -0.096228707 0)
(1.0340529 -0.083934018 0)
(1.0142795 -0.070326987 0)
(0.99360711 -0.056981209 0)
(0.97292594 -0.045107282 0)
(0.95310772 -0.03523646 0)
(0.93479594 -0.027401236 0)
(0.91829101 -0.021386638 0)
(0.90362523 -0.016883657 0)
(0.890683 -0.013568497 0)
(0.87928546 -0.011145976 0)
(0.8692382 -0.0093710572 0)
(0.86035304 -0.0080531538 0)
(0.85245985 -0.0070516678 0)
(0.8454119 -0.0062673007 0)
(0.8390865 -0.0056323205 0)
(0.83338277 -0.0051016308 0)
(0.82821849 -0.004645496 0)
(0.82352692 -0.0042442017 0)
(0.81925392 -0.0038844843 0)
(0.81535549 -0.0035572336 0)
(0.81179569 -0.0032559915 0)
(0.80854512 -0.0029759924 0)
(0.80557955 -0.0027136291 0)
(0.80287897 -0.0024662047 0)
(0.80042651 -0.0022318079 0)
(0.79820776 -0.002009215 0)
(0.79620991 -0.0017977891 0)
(0.79442121 -0.001597382 0)
(0.79283034 -0.0014082245 0)
(0.79142605 -0.0012308037 0)
(0.79019676 -0.00106573 0)
(0.78913048 -0.00091361249 0)
(0.78821466 -0.00077495232 0)
(0.78743629 -0.00065006031 0)
(0.78678208 -0.00053900218 0)
(0.78623857 -0.00044157172 0)
(0.7857925 -0.00035729206 0)
(0.78543094 -0.00028543905 0)
(0.78514168 -0.00022508273 0)
(0.78491329 -0.00017514084 0)
(0.78473541 -0.00013444219 0)
(0.78459878 -0.0001017842 0)
(0.78449531 -7.5983902e-05 0)
(0.78441807 -5.591951e-05 0)
(0.78436125 -4.056102e-05 0)
(0.78432006 -2.8991024e-05 0)
(0.78429066 -2.0413597e-05 0)
(0.78426998 -1.4157106e-05 0)
(0.78425567 -9.6669553e-06 0)
(0.78424592 -6.4975966e-06 0)
(0.78423939 -4.2969868e-06 0)
(0.78423508 -2.79518e-06 0)
(0.7842323 -1.7872786e-06 0)
(0.78423052 -1.123154e-06 0)
(0.78422942 -6.929864e-07 0)
(0.78422873 -4.1980258e-07 0)
(0.78422833 -2.4949406e-07 0)
(0.78422809 -1.4544346e-07 0)
(0.78422796 -8.3380574e-08 0)
(0.78422788 -4.6826754e-08 0)
(0.78422784 -2.6268853e-08 0)
(0.78422782 -1.4445821e-08 0)
(0.78422781 -8.3331329e-09 0)
(0.7842278 -4.766622e-09 0)
(0.7842278 -3.0195761e-09 0)
(0.7842278 -2.0748369e-09 0)
(0.7842278 -1.3114351e-09 0)
(0.78422779 -1.2106626e-09 0)
(0.7842278 -5.2204865e-10 0)
(0.78422779 -7.8723799e-10 0)
(0.7842278 -9.7251526e-11 0)
(0.78422779 -5.504828e-10 0)
(0.7842278 1.3700569e-10 0)
(0.78422779 -4.7490904e-10 0)
(0.7842278 3.2605153e-10 0)
(0.78422779 -4.7406937e-10 0)
(0.7842278 6.1721977e-10 0)
(0.78422779 -5.0641436e-10 0)
(0.7842278 9.5848954e-10 0)
(0.78422779 -6.1158454e-10 0)
(0.78422781 1.1757984e-09 0)
(0.78422778 -1.3254321e-09 0)
(0.78422781 4.2870868e-10 0)
(0.78422778 -4.3083823e-09 0)
(0.78422782 -3.6159575e-09 0)
(0.78422776 -1.2940392e-08 0)
(0.78422783 -1.5621031e-08 0)
(0.78422771 -3.4360073e-08 0)
(0.78422783 -5.0509828e-08 0)
(0.78422758 -9.8617187e-08 0)
(0.78422781 -1.7145198e-07 0)
(0.78422726 -3.1473314e-07 0)
(0.78422766 -5.5307006e-07 0)
(0.7842262 -8.7120509e-07 0)
(0.78422728 -1.3205096e-06 0)
(0.91890839 -0.035821913 0)
(0.86271384 -0.062195638 0)
(0.7870597 -0.062510089 0)
(0.69536033 -0.054550391 0)
(0.61089746 -0.04453164 0)
(0.54411596 -0.034015943 0)
(0.4934302 -0.024187488 0)
(0.45479428 -0.01614414 0)
(0.42544607 -0.010265636 0)
(0.40347353 -0.0063039343 0)
(0.38715824 -0.0037973623 0)
(0.37496304 -0.0023099712 0)
(0.36566317 -0.0014924586 0)
(0.35836456 -0.0010842939 0)
(0.35244535 -0.00090494557 0)
(0.34748582 -0.0008395893 0)
(0.34320886 -0.00082183466 0)
(0.33943479 -0.00081684223 0)
(0.33604847 -0.00080863305 0)
(0.3329759 -0.00079165578 0)
(0.33016847 -0.00076551769 0)
(0.32759281 -0.00073194161 0)
(0.32522471 -0.00069319403 0)
(0.32304554 -0.00065137372 0)
(0.32104028 -0.00060813618 0)
(0.31919641 -0.0005646415 0)
(0.31750332 -0.00052162569 0)
(0.3159519 -0.00047952038 0)
(0.31453432 -0.00043857166 0)
(0.31324374 -0.00039892196 0)
(0.31207404 -0.00036067275 0)
(0.3110196 -0.00032391773 0)
(0.31007498 -0.00028877096 0)
(0.30923475 -0.00025536692 0)
(0.30849331 -0.00022385992 0)
(0.30784471 -0.00019440524 0)
(0.30728269 -0.0001671487 0)
(0.30680059 -0.00014220804 0)
(0.30639146 -0.00011966357 0)
(0.30604816 -9.9547517e-05 0)
(0.30576346 -8.1840644e-05 0)
(0.30553023 -6.6472718e-05 0)
(0.30534156 -5.3325642e-05 0)
(0.30519091 -4.2241573e-05 0)
(0.3050722 -3.3030619e-05 0)
(0.30497992 -2.5488557e-05 0)
(0.30490917 -1.9403893e-05 0)
(0.30485568 -1.4569678e-05 0)
(0.30481581 -1.0786885e-05 0)
(0.30478652 -7.8732039e-06 0)
(0.30476532 -5.6633533e-06 0)
(0.3047502 -4.0142392e-06 0)
(0.30473957 -2.8026417e-06 0)
(0.30473222 -1.9272013e-06 0)
(0.30472722 -1.3045092e-06 0)
(0.30472386 -8.6919544e-07 0)
(0.30472165 -5.6963918e-07 0)
(0.30472022 -3.6727993e-07 0)
(0.3047193 -2.3266609e-07 0)
(0.30471873 -1.4496214e-07 0)
(0.30471838 -8.8589165e-08 0)
(0.30471817 -5.3343058e-08 0)
(0.30471804 -3.1400601e-08 0)
(0.30471797 -1.837772e-08 0)
(0.30471793 -1.0412237e-08 0)
(0.30471791 -6.0947195e-09 0)
(0.3047179 -3.3386588e-09 0)
(0.30471789 -2.0966872e-09 0)
(0.30471789 -1.1036898e-09 0)
(0.30471789 -8.3524421e-10 0)
(0.30471788 -4.1493137e-10 0)
(0.30471788 -3.7786419e-10 0)
(0.30471788 -1.5749926e-10 0)
(0.30471788 -1.885378e-10 0)
(0.30471788 -6.7496368e-11 0)
(0.30471788 -1.0844844e-10 0)
(0.30471788 -3.2742081e-11 0)
(0.30471788 -8.1709285e-11 0)
(0.30471788 -5.659125e-11 0)
(0.30471788 -1.7969583e-11 0)
(0.30471788 -7.2628728e-11 0)
(0.30471788 8.8239123e-11 0)
(0.30471788 -9.6531302e-11 0)
(0.30471788 2.302314e-10 0)
(0.30471788 -1.4053145e-10 0)
(0.30471788 2.3942402e-10 0)
(0.30471788 -5.7885587e-10 0)
(0.30471789 -4.9712152e-10 0)
(0.30471788 -2.4765071e-09 0)
(0.30471788 -3.188474e-09 0)
(0.30471786 -7.0389685e-09 0)
(0.30471787 -8.6685536e-09 0)
(0.30471783 -1.6401142e-08 0)
(0.30471784 -2.2956611e-08 0)
(0.30471775 -4.7813355e-08 0)
(0.30471774 -8.6595043e-08 0)
(0.30471748 -1.7531076e-07 0)
(0.30471732 -3.0470877e-07 0)
(0.30471646 -5.2212987e-07 0)
(0.30471575 -7.1260279e-07 0)
)
;

boundaryField
{
    top
    {
        type            fixedValue;
        value           uniform (0 0 0);
    }
    inlet
    {
        type            fixedValue;
        value           uniform (1 0 0);
    }
    outlet
    {
        type            zeroGradient;
    }
    bottom
    {
        type            fixedValue;
        value           uniform (0 0 0);
    }
    back
    {
        type            empty;
    }
    front
    {
        type            empty;
    }
}


// ************************************************************************* //
