/*--------------------------------*- C++ -*----------------------------------*\
| =========                 |                                                 |
| \\      /  F ield         | OpenFOAM: The Open Source CFD Toolbox           |
|  \\    /   O peration     | Version:  v1812                                 |
|   \\  /    A nd           | Web:      www.OpenFOAM.com                      |
|    \\/     M anipulation  |                                                 |
\*---------------------------------------------------------------------------*/
FoamFile
{
    version     2.0;
    format      ascii;
    class       surfaceScalarField;
    location    "20";
    object      phi;
}
// * * * * * * * * * * * * * * * * * * * * * * * * * * * * * * * * * * * * * //

dimensions      [0 3 -1 0 0 0 0];
oriented        oriented;


internalField   nonuniform List<scalar> 
1890
(
0.0093061958
0.00069380425
0.0082843931
0.0010218027
0.0073298986
0.00095449446
0.0064869553
0.00084294331
0.0057695845
0.00071737078
0.00518986
0.00057972443
0.004738168
0.00045169205
0.00439519
0.00034297802
0.0041390268
0.00025616318
0.003949107
0.00018991983
0.003807888
0.00014121897
0.0037013782
0.0001065098
0.003619058
8.2320219e-05
0.0035534117
6.5646243e-05
0.0034992845
5.4127248e-05
0.0034532444
4.6040037e-05
0.0034130502
4.0194282e-05
0.0033772574
3.5792748e-05
0.0033449386
3.2318757e-05
0.0033154894
2.9449282e-05
0.0032885008
2.6988583e-05
0.0032636805
2.4820307e-05
0.003240805
2.2875484e-05
0.0032196926
2.1112417e-05
0.0032001879
1.9504651e-05
0.0031821539
1.8034006e-05
0.0031654672
1.6686718e-05
0.0031500158
1.5451355e-05
0.0031356979
1.4317859e-05
0.0031224209
1.3277069e-05
0.0031101003
1.2320594e-05
0.0030986596
1.1440724e-05
0.0030880292
1.0630439e-05
0.0030781458
9.8833689e-06
0.003068952
9.1937714e-06
0.0030603955
8.5564918e-06
0.0030524286
7.9669097e-06
0.0030450077
7.4208933e-06
0.0030380929
6.9147389e-06
0.0030316478
6.4451178e-06
0.0030256388
6.0090526e-06
0.0030200349
5.6038446e-06
0.0030148079
5.227074e-06
0.0030099313
4.8765398e-06
0.0030053811
4.5502504e-06
0.0030011347
4.2464016e-06
0.0029971713
3.9633355e-06
0.0029934717
3.6995562e-06
0.002990018
3.4536764e-06
0.0029867936
3.2244174e-06
0.002983783
3.0106164e-06
0.0029809718
2.811174e-06
0.0029783468
2.6250929e-06
0.0029758954
2.4514427e-06
0.002973606
2.2893578e-06
0.0029714679
2.1380615e-06
0.0029694711
1.9968095e-06
0.0029676061
1.8649529e-06
0.0029658642
1.7418576e-06
0.0029642373
1.6269386e-06
0.0029627176
1.5196512e-06
0.0029612982
1.4194666e-06
0.0029599723
1.3259065e-06
0.0029587338
1.2385116e-06
0.002957577
1.1568619e-06
0.0029564964
1.0805849e-06
0.002955487
1.009325e-06
0.0029545442
9.4276825e-07
0.0029536635
8.8063436e-07
0.0029528409
8.2261851e-07
0.0029520724
7.6846707e-07
0.0029513546
7.1789801e-07
0.002950684
6.7064941e-07
0.0029500575
6.264856e-07
0.0029494724
5.8519229e-07
0.0029489258
5.4658044e-07
0.0029484152
5.1051261e-07
0.0029479383
4.7681387e-07
0.0029474929
4.4539915e-07
0.0029470768
4.1607787e-07
0.002946688
3.8875283e-07
0.0029463249
3.6320969e-07
0.0029459856
3.393563e-07
0.0029456687
3.1698384e-07
0.0029453726
2.9608171e-07
0.0029450962
2.7642247e-07
0.0029448379
2.5821267e-07
0.0029445967
2.410585e-07
0.0029443712
2.2532802e-07
0.0029441609
2.1041256e-07
0.0029439642
1.9684756e-07
0.0029437803
1.8377585e-07
0.0029436083
1.7211556e-07
0.002943448
1.6037719e-07
0.0029432978
1.501864e-07
0.0029431574
1.4029399e-07
0.0029430254
1.321088e-07
0.0029429003
1.2511137e-07
0.0029427808
1.1941387e-07
1.2577313e-07
0.010339525
0.00035427931
0.010570754
0.00079057333
0.010606301
0.00091894817
0.010547572
0.00090167133
0.010422317
0.0008426262
0.010244356
0.00075768557
0.010039421
0.00065662743
0.0098287427
0.00055365586
0.009625135
0.00045977083
0.0094353013
0.00037975353
0.0092624277
0.00031409258
0.0091075333
0.00026140425
0.008970154
0.00021969948
0.0088489024
0.00018689785
0.0087419716
0.00016105801
0.0086474927
0.00014051893
0.008563694
0.00012399295
0.0084890108
0.00011047599
0.0084221097
9.9219866e-05
0.0083618776
8.9681404e-05
0.0083073955
8.1470668e-05
0.0082579079
7.4307847e-05
0.0082127929
6.7990494e-05
0.0081715354
6.2369982e-05
0.008133705
5.7335005e-05
0.0080989388
5.2800172e-05
0.0080669273
4.8698255e-05
0.0080374037
4.4974949e-05
0.0080101362
4.1585386e-05
0.0079849214
3.8491846e-05
0.0079615798
3.5662154e-05
0.0079399519
3.3068611e-05
0.0079198952
3.0687171e-05
0.0079012817
2.8496848e-05
0.0078839962
2.6479237e-05
0.0078679346
2.4618137e-05
0.0078530023
2.2899235e-05
0.0078391133
2.1309838e-05
0.0078261894
1.9838656e-05
0.0078141589
1.8475608e-05
0.0078029563
1.7211663e-05
0.0077925214
1.6038723e-05
0.007782799
1.4949476e-05
0.0077737382
1.3937334e-05
0.0077652922
1.2996317e-05
0.0077574175
1.2120997e-05
0.0077500744
1.1306446e-05
0.0077432258
1.0548142e-05
0.0077368375
9.8419654e-06
0.0077308778
9.1841285e-06
0.0077253173
8.5711401e-06
0.0077201287
7.9998092e-06
0.0077152866
7.4671625e-06
0.0077107676
6.9704814e-06
0.0077065497
6.5072468e-06
0.0077026126
6.0751317e-06
0.0076989374
5.6720108e-06
0.0076955064
5.295893e-06
0.0076923033
4.9449522e-06
0.0076893128
4.6174658e-06
0.0076865207
4.3118301e-06
0.0076839136
4.0265643e-06
0.0076814792
3.7602603e-06
0.0076792061
3.5116399e-06
0.0076770834
3.2795018e-06
0.0076751012
3.0627411e-06
0.0076732502
2.8603529e-06
0.0076715216
2.6713911e-06
0.0076699072
2.4949742e-06
0.0076683996
2.3302874e-06
0.0076669916
2.1765257e-06
0.0076656765
2.0329409e-06
0.0076644484
1.8988383e-06
0.0076633013
1.773544e-06
0.0076622299
1.6564949e-06
0.0076612293
1.5471327e-06
0.0076602948
1.4450076e-06
0.007659422
1.3496378e-06
0.0076586068
1.2606475e-06
0.0076578453
1.1775478e-06
0.0076571341
1.1000374e-06
0.0076564698
1.0275344e-06
0.0076558493
9.5989883e-07
0.0076552697
8.9649887e-07
0.0076547283
8.3743687e-07
0.0076542228
7.8189379e-07
0.0076537505
7.3046286e-07
0.0076533094
6.8214136e-07
0.0076528972
6.3761089e-07
0.0076525127
5.9496836e-07
0.0076521529
5.5670407e-07
0.0076518171
5.1953621e-07
0.0076515027
4.86409e-07
0.0076512105
4.5245095e-07
0.0076509355
4.2509987e-07
0.0076506807
3.9526345e-07
0.0076504386
3.7433279e-07
0.0076502165
3.4709512e-07
0.0076499999
3.3606608e-07
3.1077312e-07
0.010188704
0.00016557515
0.010530487
0.00044879097
0.010851453
0.00059798174
0.011124174
0.00062895021
0.011350581
0.00061621883
0.011524486
0.00058378053
0.01164633
0.00053478419
0.011724155
0.00047583049
0.011767999
0.00041592665
0.011786639
0.00036111399
0.011787114
0.0003136171
0.011775058
0.00027346024
0.011754861
0.00023989717
0.011729768
0.00021199029
0.011702054
0.00018877259
0.011673239
0.00016933387
0.011644339
0.00015289295
0.011616003
0.00013881182
0.011588629
0.00012659379
0.011562446
0.00011586444
0.011537572
0.00010634493
0.011514052
9.782699e-05
0.01149189
9.0153352e-05
0.011471056
8.3203356e-05
0.011451509
7.6882601e-05
0.011433193
7.111555e-05
0.011416051
6.5840284e-05
0.011400021
6.1004899e-05
0.011385042
5.6565064e-05
0.011371051
5.2482332e-05
0.01135799
4.8723024e-05
0.011345801
4.5257383e-05
0.01133443
4.2058989e-05
0.011323822
3.9104266e-05
0.011313929
3.6372113e-05
0.011304704
3.3843597e-05
0.011296101
3.1501681e-05
0.01128808
2.9331007e-05
0.011280601
2.7317693e-05
0.011273628
2.5449172e-05
0.011267125
2.3714049e-05
0.011261062
2.2101952e-05
0.011255408
2.0603455e-05
0.011250135
1.9209944e-05
0.011245218
1.791356e-05
0.011240632
1.6707105e-05
0.011236354
1.5583974e-05
0.011232365
1.453811e-05
0.011228643
1.3563928e-05
0.01122517
1.2656295e-05
0.011221931
1.1810483e-05
0.011218909
1.1022103e-05
0.011216089
1.028713e-05
0.011213457
9.6018174e-06
0.011211002
8.9627111e-06
0.01120871
8.3666241e-06
0.011206572
7.8105928e-06
0.011204576
7.2918806e-06
0.011202713
6.807921e-06
0.011200974
6.3563455e-06
0.011199351
5.9349539e-06
0.011197836
5.5416723e-06
0.011196422
5.1746092e-06
0.011195101
4.8319752e-06
0.011193868
4.5121357e-06
0.011192718
4.2135597e-06
0.011191643
3.9348297e-06
0.01119064
3.6746261e-06
0.011189703
3.4317196e-06
0.011188829
3.2049294e-06
0.011188012
2.9931973e-06
0.01118725
2.7954717e-06
0.011186537
2.6108284e-06
0.011185873
2.4383754e-06
0.011185252
2.2773353e-06
0.011184672
2.1269227e-06
0.01118413
1.9865097e-06
0.011183625
1.8553674e-06
0.011183152
1.7329914e-06
0.011182711
1.6186401e-06
0.0111823
1.5119385e-06
0.011181915
1.4121252e-06
0.011181556
1.3190684e-06
0.01118122
1.231843e-06
0.011180907
1.150694e-06
0.011180614
1.0745194e-06
0.011180341
1.0041022e-06
0.011180086
9.3725682e-07
0.011179847
8.7618782e-07
0.011179624
8.1775813e-07
0.011179416
7.6531833e-07
0.011179222
7.1273839e-07
0.01117904
6.6811798e-07
0.011178872
6.2105319e-07
0.011178712
5.8529561e-07
0.011178566
5.4112048e-07
0.011178425
5.1518725e-07
0.0111783
4.7226507e-07
0.011178177
4.5902527e-07
4.1607376e-07
0.010097182
6.8393549e-05
0.010346961
0.0001990111
0.010662469
0.00028247385
0.010982753
0.00030866646
0.011290229
0.00030874339
0.011575251
0.00029875786
0.011829022
0.00028101344
0.012047865
0.00025698754
0.012233272
0.00023051981
0.01238924
0.00020514589
0.012520295
0.00018256234
0.012630755
0.00016299955
0.012724428
0.00014622489
0.012804515
0.0001319031
0.012873613
0.00011967425
0.012933772
0.0001091746
0.012986596
0.00010006906
0.013033332
9.2076357e-05
0.01307495
8.4975243e-05
0.013112216
7.8598603e-05
0.013145739
7.2822291e-05
0.013176012
6.7553925e-05
0.013203441
6.272391e-05
0.013228366
5.8278883e-05
0.013251071
5.4176978e-05
0.013271802
5.0384422e-05
0.01329077
4.6873152e-05
0.013308155
4.3619168e-05
0.013324119
4.0601452e-05
0.0133388
3.7801276e-05
0.013352321
3.5201749e-05
0.013364791
3.2787526e-05
0.013376306
3.0544585e-05
0.01338695
2.846008e-05
0.0133968
2.6522213e-05
0.013405923
2.4720128e-05
0.013414381
2.3043835e-05
0.013422228
2.1484134e-05
0.013429513
2.003255e-05
0.013436281
1.8681263e-05
0.013442572
1.7423057e-05
0.013448423
1.6251275e-05
0.013453866
1.5159757e-05
0.013458933
1.4142823e-05
0.013463652
1.3195213e-05
0.013468047
1.2312062e-05
0.013472142
1.1488864e-05
0.013475959
1.0721437e-05
0.013479517
1.000591e-05
0.013482834
9.3386883e-06
0.013485928
8.7164337e-06
0.013488814
8.136063e-06
0.013491507
7.594692e-06
0.013494019
7.0896596e-06
0.013496363
6.6184906e-06
0.013498551
6.1788844e-06
0.013500593
5.7686968e-06
0.013502499
5.3859238e-06
0.013504278
5.0287114e-06
0.013505939
4.6953298e-06
0.01350749
4.3841625e-06
0.013508938
4.0937237e-06
0.01351029
3.8226074e-06
0.013511552
3.5695261e-06
0.013512731
3.3332706e-06
0.013513832
3.112719e-06
0.01351486
2.9068279e-06
0.01351582
2.7146095e-06
0.013516716
2.535151e-06
0.013517554
2.3675939e-06
0.013518336
2.2111253e-06
0.013519066
2.0650101e-06
0.013519749
1.9285694e-06
0.013520386
1.8011464e-06
0.013520981
1.6821865e-06
0.013521537
1.5710884e-06
0.013522056
1.4673847e-06
0.013522541
1.3705207e-06
0.013522993
1.2801107e-06
0.013523417
1.1955909e-06
0.013523812
1.1167279e-06
0.013524181
1.0429394e-06
0.013524526
9.7418764e-07
0.013524848
9.0971503e-07
0.013525149
8.4992015e-07
0.013525429
7.9368148e-07
0.013525692
7.4161443e-07
0.013525938
6.9214048e-07
0.013526166
6.473906e-07
0.01352638
6.0400434e-07
0.01352658
5.6507205e-07
0.013526767
5.2574941e-07
0.013526941
4.9377251e-07
0.013527104
4.5852971e-07
0.013527257
4.3260073e-07
0.013527399
3.9881606e-07
0.013527533
3.8080429e-07
0.013527658
3.4713205e-07
0.013527779
3.3801714e-07
3.0562441e-07
0.010068394
-5.0930047e-12
0.010267405
-1.3180091e-11
0.010549879
-1.4262292e-11
0.010858545
-1.2283779e-11
0.011167288
-9.6321251e-12
0.011466046
-9.6170882e-12
0.01174706
-1.0410471e-11
0.012004047
-1.1921064e-11
0.012234567
-1.3436402e-11
0.012439713
-1.5237593e-11
0.012622275
-1.5743041e-11
0.012785275
-1.4629516e-11
0.0129315
-1.3451852e-11
0.013063403
-1.1854783e-11
0.013183077
-1.0510173e-11
0.013292252
-1.0150733e-11
0.013392321
-1.0255708e-11
0.013484397
-1.0071177e-11
0.013569373
-8.3216608e-12
0.013647971
-7.397813e-12
0.013720793
-9.5377143e-12
0.013788347
-1.3388545e-11
0.013851071
-1.3563625e-11
0.01390935
-1.1901884e-11
0.013963527
-9.741133e-12
0.014013912
-9.2001224e-12
0.014060785
-1.1470523e-11
0.014104404
-1.1624219e-11
0.014145005
-6.7941134e-12
0.014182807
-2.9154777e-12
0.014218009
-2.1027071e-12
0.014250796
-6.0608648e-12
0.014281341
-1.1024898e-11
0.014309801
-1.430236e-11
0.014336323
-1.4569344e-11
0.014361043
-1.2089018e-11
0.014384087
-8.4456785e-12
0.014405571
-6.1253843e-12
0.014425604
-3.6813882e-12
0.014444285
2.1689258e-13
0.014461708
2.5515846e-12
0.014477959
6.1143024e-13
0.014493119
-6.1155625e-12
0.014507262
-1.3944327e-11
0.014520457
-1.8869892e-11
0.014532769
-1.8578242e-11
0.014544258
-1.3992315e-11
0.014554979
-5.6878698e-12
0.014564985
4.8907978e-12
0.014574324
1.3562107e-11
0.01458304
1.3864149e-11
0.014591177
4.8192213e-12
0.014598771
-7.3120752e-12
0.014605861
-1.9953744e-11
0.014612479
-2.7733233e-11
0.014618658
-2.4439954e-11
0.014624427
-1.0610196e-11
0.014629813
4.1714988e-12
0.014634842
1.8242282e-11
0.014639537
2.3327879e-11
0.014643921
1.8996795e-11
0.014648015
7.3478116e-12
0.014651837
-7.4714952e-12
0.014655407
-2.218133e-11
0.01465874
-3.1029064e-11
0.014661853
-2.8910033e-11
0.01466476
-1.8263038e-11
0.014667474
-9.2015158e-13
0.01467001
2.4699556e-11
0.014672377
3.7031041e-11
0.014674588
3.7345705e-11
0.014676653
2.0275225e-11
0.014678582
4.5189138e-13
0.014680383
-2.4590905e-11
0.014682065
-3.9752905e-11
0.014683636
-3.1332074e-11
0.014685104
-9.0302309e-12
0.014686474
2.7253859e-11
0.014687754
5.6569394e-11
0.01468895
4.925511e-11
0.014690067
2.0174458e-11
0.014691109
1.0148331e-12
0.014692083
-2.7717834e-11
0.014692994
-5.3428907e-11
0.014693844
-2.9744566e-11
0.014694636
1.6634739e-11
0.014695378
3.0705106e-11
0.014696072
2.9723438e-11
0.014696719
9.2637577e-11
0.014697321
6.8217693e-11
0.014697887
-5.1686103e-11
0.014698414
-1.3381697e-10
0.014698907
-1.0979313e-10
0.014699364
7.0593401e-11
0.014699797
1.4882087e-10
0.014700197
2.767888e-11
0.014700578
-3.2821742e-11
0.014700924
-1.9793679e-11
0.014701262
-6.940557e-11
-8.0656042e-11
0.010068394
-6.8393558e-05
0.010267405
-0.00019901113
0.010549879
-0.00028247388
0.010858545
-0.00030866649
0.011167288
-0.00030874342
0.011466046
-0.00029875789
0.01174706
-0.00028101346
0.012004047
-0.00025698756
0.012234567
-0.00023051983
0.012439713
-0.00020514591
0.012622275
-0.00018256236
0.012785275
-0.00016299958
0.0129315
-0.00014622491
0.013063403
-0.00013190313
0.013183077
-0.00011967427
0.013292252
-0.00010917462
0.013392321
-0.00010006908
0.013484397
-9.2076369e-05
0.013569373
-8.4975255e-05
0.013647971
-7.8598616e-05
0.013720793
-7.2822309e-05
0.013788347
-6.7553945e-05
0.013851071
-6.2723933e-05
0.01390935
-5.8278905e-05
0.013963527
-5.4176995e-05
0.014013912
-5.0384441e-05
0.014060785
-4.6873174e-05
0.014104404
-4.3619187e-05
0.014145005
-4.0601463e-05
0.014182807
-3.780128e-05
0.014218008
-3.5201757e-05
0.014250796
-3.2787539e-05
0.014281341
-3.0544606e-05
0.014309801
-2.8460106e-05
0.014336323
-2.6522236e-05
0.014361043
-2.4720145e-05
0.014384087
-2.3043849e-05
0.014405571
-2.1484148e-05
0.014425604
-2.0032557e-05
0.014444285
-1.8681263e-05
0.014461708
-1.7423057e-05
0.014477959
-1.6251275e-05
0.014493119
-1.5159767e-05
0.014507262
-1.4142844e-05
0.014520457
-1.3195244e-05
0.014532769
-1.2312096e-05
0.014544258
-1.1488888e-05
0.014554979
-1.0721447e-05
0.014564985
-1.0005901e-05
0.014574324
-9.3386688e-06
0.01458304
-8.7164226e-06
0.014591177
-8.1360602e-06
0.014598771
-7.5947067e-06
0.014605861
-7.08969e-06
0.014612479
-6.6185268e-06
0.014618658
-6.1789124e-06
0.014624427
-5.7687056e-06
0.014629813
-5.3859194e-06
0.014634842
-5.0286936e-06
0.014639537
-4.6952991e-06
0.014643921
-4.3841406e-06
0.014648015
-4.093714e-06
0.014651837
-3.8226197e-06
0.014655407
-3.5695557e-06
0.01465874
-3.3333175e-06
0.014661853
-3.1127681e-06
0.01466476
-2.9068559e-06
0.014667474
-2.7146092e-06
0.01467001
-2.535122e-06
0.014672377
-2.3675363e-06
0.014674588
-2.2110794e-06
0.014676653
-2.064982e-06
0.014678582
-1.9285713e-06
0.014680383
-1.8011812e-06
0.014682065
-1.6822276e-06
0.014683636
-1.5711203e-06
0.014685104
-1.4673873e-06
0.014686474
-1.3704854e-06
0.014687754
-1.2800564e-06
0.01468895
-1.1955411e-06
0.014690067
-1.1167086e-06
0.014691109
-1.0429488e-06
0.014692083
-9.742092e-07
0.014692994
-9.0976814e-07
0.014693844
-8.499531e-07
0.014694636
-7.9364716e-07
0.014695378
-7.4157936e-07
0.014696072
-6.9213417e-07
0.014696719
-6.4729289e-07
0.014697321
-6.0380805e-07
0.014697887
-5.6524524e-07
0.014698414
-5.261254e-07
0.014698907
-4.9358601e-07
0.014699364
-4.5815098e-07
0.014699798
-4.3275766e-07
0.014700197
-3.9914648e-07
0.014700578
-3.8080958e-07
0.014700924
-3.4697985e-07
0.014701262
-3.3803364e-07
-3.0573079e-07
0.010097182
-0.00016557515
0.010346961
-0.000448791
0.010662469
-0.00059798177
0.010982753
-0.00062895025
0.011290229
-0.00061621886
0.011575251
-0.00058378055
0.011829022
-0.0005347842
0.012047865
-0.0004758305
0.012233272
-0.00041592666
0.01238924
-0.000361114
0.012520295
-0.00031361712
0.012630755
-0.00027346026
0.012724428
-0.00023989719
0.012804515
-0.00021199031
0.012873613
-0.00018877261
0.012933772
-0.00016933388
0.012986596
-0.00015289296
0.013033332
-0.00013881183
0.01307495
-0.00012659379
0.013112216
-0.00011586445
0.013145739
-0.00010634494
0.013176012
-9.7827005e-05
0.013203441
-9.0153368e-05
0.013228366
-8.3203371e-05
0.013251071
-7.6882619e-05
0.013271802
-7.1115567e-05
0.01329077
-6.5840298e-05
0.013308155
-6.1004911e-05
0.013324119
-5.656507e-05
0.0133388
-5.2482338e-05
0.013352321
-4.8723028e-05
0.013364791
-4.5257392e-05
0.013376305
-4.2059001e-05
0.01338695
-3.9104278e-05
0.0133968
-3.6372128e-05
0.013405923
-3.3843615e-05
0.013414381
-3.15017e-05
0.013422228
-2.933102e-05
0.013429513
-2.73177e-05
0.013436281
-2.5449175e-05
0.013442572
-2.3714044e-05
0.013448422
-2.2101951e-05
0.013453866
-2.0603461e-05
0.013458933
-1.920996e-05
0.013463652
-1.7913582e-05
0.013468047
-1.6707127e-05
0.013472142
-1.5583993e-05
0.013475958
-1.4538117e-05
0.013479516
-1.356393e-05
0.013482834
-1.2656298e-05
0.013485928
-1.1810479e-05
0.013488814
-1.1022104e-05
0.013491507
-1.0287132e-05
0.013494019
-9.6018241e-06
0.013496363
-8.9627254e-06
0.013498551
-8.3666429e-06
0.013500593
-7.8106167e-06
0.013502499
-7.2918909e-06
0.013504278
-6.8079221e-06
0.013505939
-6.356341e-06
0.01350749
-5.9349348e-06
0.013508938
-5.5416568e-06
0.01351029
-5.1746015e-06
0.013511552
-4.8319876e-06
0.013512731
-4.512158e-06
0.013513832
-4.2135873e-06
0.01351486
-3.9348591e-06
0.01351582
-3.6746401e-06
0.013516716
-3.4317123e-06
0.013517554
-3.2049157e-06
0.013518336
-2.9931626e-06
0.013519066
-2.7954382e-06
0.013519749
-2.6108084e-06
0.013520386
-2.4383711e-06
0.013520981
-2.2773492e-06
0.013521537
-2.126955e-06
0.013522056
-1.9865464e-06
0.013522541
-1.8553881e-06
0.013522993
-1.7329832e-06
0.013523417
-1.6186109e-06
0.013523812
-1.5118955e-06
0.013524181
-1.4120782e-06
0.013524526
-1.3190426e-06
0.013524848
-1.2318504e-06
0.013525149
-1.1507651e-06
0.013525429
-1.0745615e-06
0.013525692
-1.0040555e-06
0.013525938
-9.3725001e-07
0.013526166
-8.7630614e-07
0.01352638
-8.1777616e-07
0.01352658
-7.6502574e-07
0.013526767
-7.1252139e-07
0.013526941
-6.6834605e-07
0.013527104
-6.2133295e-07
0.013527257
-5.8527197e-07
0.013527399
-5.410433e-07
0.013527533
-5.15153e-07
0.013527658
-4.7221015e-07
0.013527779
-4.5902344e-07
-4.1608237e-07
0.010188704
-0.00035427932
0.010530487
-0.00079057335
0.010851453
-0.0009189482
0.011124174
-0.00090167137
0.011350581
-0.00084262623
0.011524486
-0.00075768559
0.01164633
-0.00065662744
0.011724155
-0.00055365586
0.011767999
-0.00045977083
0.011786639
-0.00037975354
0.011787114
-0.00031409259
0.011775058
-0.00026140427
0.011754861
-0.00021969949
0.011729768
-0.00018689787
0.011702054
-0.00016105802
0.011673239
-0.00014051894
0.011644339
-0.00012399295
0.011616003
-0.00011047599
0.011588629
-9.9219868e-05
0.011562446
-8.9681405e-05
0.011537572
-8.1470672e-05
0.011514052
-7.4307852e-05
0.011491889
-6.7990501e-05
0.011471056
-6.2369993e-05
0.011451509
-5.7335016e-05
0.011433193
-5.2800186e-05
0.011416051
-4.8698266e-05
0.011400021
-4.4974955e-05
0.011385041
-4.1585392e-05
0.011371051
-3.8491848e-05
0.01135799
-3.5662157e-05
0.011345801
-3.3068613e-05
0.011334429
-3.0687174e-05
0.011323822
-2.8496852e-05
0.011313929
-2.6479244e-05
0.011304704
-2.461815e-05
0.011296101
-2.2899251e-05
0.01128808
-2.1309854e-05
0.011280601
-1.9838667e-05
0.011273628
-1.8475612e-05
0.011267125
-1.7211664e-05
0.011261062
-1.6038718e-05
0.011255408
-1.4949474e-05
0.011250135
-1.3937335e-05
0.011245218
-1.2996323e-05
0.011240632
-1.2121012e-05
0.011236354
-1.1306459e-05
0.011232364
-1.0548158e-05
0.011228643
-9.8419807e-06
0.01122517
-9.1841393e-06
0.011221931
-8.5711502e-06
0.011218909
-7.999806e-06
0.011216089
-7.4671536e-06
0.011213457
-6.9704676e-06
0.011211002
-6.5072364e-06
0.01120871
-6.0751394e-06
0.011206572
-5.6720301e-06
0.011204576
-5.2959242e-06
0.011202713
-4.9449792e-06
0.011200974
-4.6174812e-06
0.011199351
-4.3118329e-06
0.011197836
-4.0265449e-06
0.011196421
-3.7602358e-06
0.011195101
-3.5116152e-06
0.011193868
-3.2794884e-06
0.011192718
-3.0627477e-06
0.011191643
-2.8603759e-06
0.01119064
-2.6714249e-06
0.011189703
-2.4950131e-06
0.011188829
-2.3303055e-06
0.011188012
-2.1765224e-06
0.011187249
-2.032909e-06
0.011186537
-1.8987874e-06
0.011185872
-1.7734972e-06
0.011185252
-1.6564707e-06
0.011184672
-1.5471435e-06
0.01118413
-1.4450594e-06
0.011183625
-1.3497063e-06
0.011183152
-1.2607101e-06
0.011182711
-1.1775664e-06
0.011182299
-1.1000011e-06
0.011181915
-1.027463e-06
0.011181556
-9.5980967e-07
0.01118122
-8.9644194e-07
0.011180907
-8.374357e-07
0.011180614
-7.8196323e-07
0.011180341
-7.3056328e-07
0.011180086
-6.8220014e-07
0.011179847
-6.3766738e-07
0.011179624
-5.9502702e-07
0.011179416
-5.5653966e-07
0.011179223
-5.1916051e-07
0.01117904
-4.8629659e-07
0.011178872
-4.5280081e-07
0.011178712
-4.2542412e-07
0.011178566
-3.9517818e-07
0.011178425
-3.7414818e-07
0.0111783
-3.4705492e-07
0.011178177
-3.3599878e-07
-3.1070036e-07
0.010339525
-0.00069380425
0.010570754
-0.0010218027
0.010606301
-0.00095449448
0.010547572
-0.00084294333
0.010422317
-0.0007173708
0.010244356
-0.00057972444
0.010039421
-0.00045169205
0.0098287427
-0.00034297801
0.009625135
-0.00025616318
0.0094353013
-0.00018991983
0.0092624277
-0.00014121897
0.0091075332
-0.0001065098
0.008970154
-8.2320226e-05
0.0088489023
-6.5646249e-05
0.0087419716
-5.4127255e-05
0.0086474927
-4.6040044e-05
0.008563694
-4.0194286e-05
0.0084890108
-3.5792751e-05
0.0084221096
-3.2318757e-05
0.0083618775
-2.9449283e-05
0.0083073954
-2.698858e-05
0.0082579079
-2.4820304e-05
0.0082127929
-2.2875483e-05
0.0081715353
-2.1112419e-05
0.0081337049
-1.9504656e-05
0.0080989388
-1.8034017e-05
0.0080669272
-1.6686727e-05
0.0080374036
-1.5451365e-05
0.0080101361
-1.4317864e-05
0.0079849213
-1.3277073e-05
0.0079615798
-1.2320592e-05
0.0079399519
-1.144072e-05
0.0079198951
-1.0630433e-05
0.0079012816
-9.8833644e-06
0.0078839962
-9.1937718e-06
0.0078679345
-8.5564988e-06
0.0078530022
-7.9669235e-06
0.0078391132
-7.4209092e-06
0.0078261893
-6.9147516e-06
0.0078141588
-6.4451277e-06
0.0078029562
-6.0090527e-06
0.0077925213
-5.6038395e-06
0.0077827989
-5.2270629e-06
0.0077737381
-4.8765285e-06
0.0077652921
-4.5502454e-06
0.0077574175
-4.2464029e-06
0.0077500744
-3.963349e-06
0.0077432258
-3.6995748e-06
0.0077368375
-3.4536963e-06
0.0077308778
-3.2244381e-06
0.0077253172
-3.0106246e-06
0.0077201286
-2.8111716e-06
0.0077152865
-2.6250777e-06
0.0077107675
-2.4514176e-06
0.0077065496
-2.2893382e-06
0.0077026125
-2.1380514e-06
0.0076989373
-1.9968254e-06
0.0076955064
-1.8649822e-06
0.0076923033
-1.7418935e-06
0.0076893128
-1.6269709e-06
0.0076865206
-1.5196636e-06
0.0076839135
-1.4194579e-06
0.0076814791
-1.3258756e-06
0.007679206
-1.2384694e-06
0.0076770833
-1.1568265e-06
0.0076751012
-1.0805668e-06
0.0076732502
-1.0093382e-06
0.0076715215
-9.4281293e-07
0.0076699072
-8.8068731e-07
0.0076683995
-8.2266949e-07
0.0076669915
-7.684868e-07
0.0076656765
-7.1787593e-07
0.0076644483
-6.705966e-07
0.0076633012
-6.2641663e-07
0.0076622299
-5.8513909e-07
0.0076612294
-5.4656816e-07
0.0076602948
-5.1054594e-07
0.007659422
-4.7689397e-07
0.0076586068
-4.4548542e-07
0.0076578453
-4.1613702e-07
0.007657134
-3.8875516e-07
0.0076564697
-3.631484e-07
0.0076558492
-3.3926418e-07
0.0076552697
-3.1687977e-07
0.0076547283
-2.9604348e-07
0.0076542228
-2.7645999e-07
0.0076537505
-2.5827285e-07
0.0076533094
-2.4117167e-07
0.0076528971
-2.2548396e-07
0.0076525126
-2.1041873e-07
0.0076521529
-1.9666772e-07
0.0076518172
-1.8360932e-07
0.0076515028
-1.7205747e-07
0.0076512105
-1.6040737e-07
0.0076509355
-1.5028734e-07
0.0076506807
-1.4040321e-07
0.0076504385
-1.320877e-07
0.0076502165
-1.2500351e-07
0.0076499999
-1.193378e-07
-1.2571566e-07
0.0093061957
0.0082843931
0.0073298986
0.0064869553
0.0057695845
0.00518986
0.004738168
0.00439519
0.0041390268
0.003949107
0.003807888
0.0037013782
0.003619058
0.0035534117
0.0034992845
0.0034532444
0.0034130501
0.0033772574
0.0033449386
0.0033154893
0.0032885008
0.0032636805
0.003240805
0.0032196926
0.0032001879
0.0031821539
0.0031654672
0.0031500158
0.0031356979
0.0031224208
0.0031101003
0.0030986595
0.0030880291
0.0030781458
0.003068952
0.0030603955
0.0030524286
0.0030450076
0.0030380929
0.0030316478
0.0030256387
0.0030200349
0.0030148078
0.0030099313
0.0030053811
0.0030011347
0.0029971713
0.0029934717
0.002990018
0.0029867936
0.0029837829
0.0029809718
0.0029783467
0.0029758953
0.002973606
0.0029714679
0.0029694711
0.0029676061
0.0029658642
0.0029642372
0.0029627175
0.0029612981
0.0029599722
0.0029587338
0.002957577
0.0029564964
0.0029554871
0.0029545443
0.0029536635
0.0029528408
0.0029520723
0.0029513545
0.0029506839
0.0029500575
0.0029494724
0.0029489259
0.0029484153
0.0029479384
0.0029474928
0.0029470767
0.0029466879
0.0029463248
0.0029459856
0.0029456687
0.0029453727
0.0029450963
0.002944838
0.0029445965
0.0029443711
0.002944161
0.0029439642
0.0029437802
0.0029436083
0.0029434482
0.002943298
0.0029431574
0.0029430253
0.0029429003
0.0029427809
)
;

boundaryField
{
    top
    {
        type            calculated;
        value           uniform 0;
    }
    inlet
    {
        type            calculated;
        value           nonuniform List<scalar> 10(-0.01 -0.01 -0.01 -0.01 -0.01 -0.01 -0.01 -0.01 -0.01 -0.01);
    }
    outlet
    {
        type            calculated;
        value           nonuniform List<scalar> 10(0.002942655 0.0076498149 0.011178072 0.01352789 0.014701568 0.014701568 0.01352789 0.011178072 0.0076498149 0.0029426552);
    }
    bottom
    {
        type            calculated;
        value           uniform 0;
    }
    back
    {
        type            empty;
        value           nonuniform 0();
    }
    front
    {
        type            empty;
        value           nonuniform 0();
    }
}


// ************************************************************************* //
