/*--------------------------------*- C++ -*----------------------------------*\
| =========                 |                                                 |
| \\      /  F ield         | OpenFOAM: The Open Source CFD Toolbox           |
|  \\    /   O peration     | Version:  v1812                                 |
|   \\  /    A nd           | Web:      www.OpenFOAM.com                      |
|    \\/     M anipulation  |                                                 |
\*---------------------------------------------------------------------------*/
FoamFile
{
    version     2.0;
    format      ascii;
    class       volScalarField;
    location    "2.4";
    object      p;
}
// * * * * * * * * * * * * * * * * * * * * * * * * * * * * * * * * * * * * * //

dimensions      [0 2 -2 0 0 0 0];


internalField   nonuniform List<scalar> 
1000
(
1.7370876
1.6160096
1.5200287
1.4563723
1.4078631
1.3653923
1.3278615
1.2957019
1.2683224
1.2445148
1.2231665
1.2034758
1.1849083
1.167123
1.1499181
1.1331845
1.1168669
1.1009369
1.0853775
1.0701733
1.0553048
1.0407459
1.0264644
1.0124235
0.99858508
0.98491205
0.97137002
0.95792867
0.94456238
0.93125035
0.91797631
0.90472802
0.89149658
0.87827578
0.86506144
0.85185083
0.83864232
0.82543473
0.8122276
0.79902068
0.78581381
0.77260692
0.7594
0.74619304
0.73298605
0.71977905
0.70657203
0.69336501
0.68015799
0.66695096
0.65374393
0.64053691
0.62732988
0.61412285
0.60091583
0.5877088
0.57450178
0.56129475
0.54808773
0.5348807
0.52167368
0.50846665
0.49525963
0.4820526
0.46884558
0.45563856
0.44243153
0.42922451
0.41601748
0.40281046
0.38960343
0.37639641
0.36318938
0.34998237
0.33677534
0.32356831
0.31036129
0.29715426
0.28394725
0.27074021
0.2575332
0.24432616
0.23111915
0.21791212
0.20470509
0.19149809
0.17829103
0.16508404
0.151877
0.13866997
0.12546297
0.11225592
0.099048914
0.085841907
0.072634888
0.059427951
0.046221017
0.033014217
0.019807595
0.0066018602
1.6198682
1.5649393
1.5039873
1.4524201
1.4091513
1.3701852
1.3346008
1.3028334
1.2748883
1.2501378
1.2277742
1.2071292
1.1877363
1.1692818
1.1515553
1.1344216
1.1177985
1.1016358
1.0858988
1.0705583
1.0555845
1.0409444
1.0266007
1.0125134
0.99864142
0.98494495
0.97138729
0.95793614
0.94456416
0.93124919
0.91797394
0.90472542
0.89149426
0.87827392
0.86506005
0.85184985
0.83864156
0.82543429
0.81222736
0.79902055
0.78581375
0.7726069
0.75939999
0.74619304
0.73298606
0.71977905
0.70657204
0.69336501
0.68015799
0.66695096
0.65374393
0.64053691
0.62732988
0.61412285
0.60091583
0.5877088
0.57450178
0.56129475
0.54808773
0.5348807
0.52167368
0.50846665
0.49525963
0.4820526
0.46884558
0.45563856
0.44243153
0.42922451
0.41601748
0.40281046
0.38960343
0.37639642
0.36318938
0.34998237
0.33677534
0.32356831
0.3103613
0.29715426
0.28394726
0.2707402
0.25753321
0.24432616
0.23111915
0.21791213
0.20470508
0.1914981
0.17829103
0.16508403
0.15187701
0.13866995
0.12546297
0.11225591
0.099048876
0.085841902
0.072634805
0.059427852
0.046220801
0.033013848
0.019806948
0.0066012841
1.5590477
1.5328731
1.4944777
1.4533466
1.4142633
1.3776763
1.3433824
1.311668
1.2828251
1.2567576
1.2330534
1.2112227
1.1908538
1.1716382
1.1533425
1.1357889
1.1188537
1.1024576
1.0865458
1.0710722
1.0559932
1.0412672
1.0268527
1.0127074
0.99878823
0.98505384
0.97146621
0.95799192
0.94460257
0.93127493
0.91799067
0.90473595
0.89150064
0.87827762
0.86506209
0.85185089
0.83864205
0.82543442
0.81222738
0.79902052
0.78581371
0.77260686
0.75939996
0.74619302
0.73298604
0.71977905
0.70657203
0.69336501
0.68015799
0.66695096
0.65374393
0.64053691
0.62732988
0.61412285
0.60091583
0.5877088
0.57450178
0.56129475
0.54808773
0.5348807
0.52167368
0.50846665
0.49525963
0.4820526
0.46884558
0.45563856
0.44243153
0.42922451
0.41601748
0.40281047
0.38960343
0.37639642
0.36318938
0.34998237
0.33677534
0.32356831
0.3103613
0.29715425
0.28394727
0.27074019
0.25753322
0.24432615
0.23111915
0.21791213
0.20470508
0.1914981
0.17829102
0.16508403
0.15187699
0.13866995
0.12546293
0.11225588
0.099048777
0.085841769
0.072634588
0.059427484
0.046220209
0.033012988
0.019805845
0.0066005225
1.52964
1.5141426
1.4872747
1.4533536
1.417555
1.3826083
1.3493122
1.3179633
1.2888467
1.2620974
1.2375754
1.2149534
1.1938838
1.1740829
1.1553196
1.1373987
1.1201721
1.1035433
1.0874462
1.071823
1.0566185
1.0417833
1.0272732
1.0130448
0.99905453
0.98526005
0.97162257
0.9581079
0.94468669
0.93133454
0.91803191
0.90476376
0.8915189
0.87828929
0.86506932
0.85185523
0.83864457
0.82543584
0.81222812
0.79902089
0.78581387
0.77260692
0.75939997
0.74619301
0.73298603
0.71977904
0.70657203
0.69336501
0.68015798
0.66695096
0.65374393
0.64053691
0.62732988
0.61412285
0.60091583
0.5877088
0.57450178
0.56129475
0.54808773
0.5348807
0.52167368
0.50846665
0.49525963
0.48205261
0.46884558
0.45563856
0.44243153
0.42922451
0.41601747
0.40281047
0.38960342
0.37639642
0.36318937
0.34998237
0.33677533
0.32356831
0.3103613
0.29715424
0.28394728
0.27074018
0.25753324
0.24432613
0.23111917
0.21791211
0.20470508
0.1914981
0.178291
0.16508406
0.15187694
0.13866996
0.12546287
0.11225581
0.099048703
0.085841561
0.072634327
0.059427055
0.046219525
0.033012162
0.019804933
0.0065999511
1.5169089
1.5049564
1.4827244
1.4524401
1.4185814
1.3845908
1.3519001
1.3208998
1.2918184
1.2648542
1.2400008
1.2170267
1.195628
1.1755398
1.1565378
1.1384218
1.121034
1.1042717
1.0880651
1.0723513
1.0570688
1.0421639
1.0275909
1.0133063
0.99926636
0.98542846
0.9717537
0.95820775
0.94476099
0.93138852
0.91807017
0.90479018
0.89153667
0.87830091
0.8650767
0.85185976
0.83864727
0.82543737
0.81222895
0.79902132
0.78581407
0.772607
0.7594
0.74619301
0.73298602
0.71977903
0.70657202
0.693365
0.68015798
0.66695096
0.65374393
0.64053691
0.62732988
0.61412285
0.60091583
0.5877088
0.57450178
0.56129475
0.54808773
0.5348807
0.52167368
0.50846665
0.49525963
0.48205261
0.46884558
0.45563856
0.44243153
0.42922451
0.41601747
0.40281047
0.38960342
0.37639642
0.36318937
0.34998237
0.33677533
0.32356831
0.3103613
0.29715424
0.28394728
0.27074017
0.25753325
0.24432612
0.23111918
0.2179121
0.20470508
0.19149811
0.17829097
0.16508408
0.1518769
0.13866997
0.12546285
0.11225575
0.099048674
0.085841415
0.072634144
0.059426801
0.046219101
0.033011695
0.019804476
0.0065996793
1.5169089
1.5049564
1.4827244
1.4524401
1.4185814
1.3845908
1.3519001
1.3208998
1.2918184
1.2648542
1.2400008
1.2170267
1.195628
1.1755398
1.1565378
1.1384218
1.121034
1.1042717
1.0880651
1.0723513
1.0570688
1.0421639
1.0275909
1.0133063
0.99926636
0.98542846
0.9717537
0.95820775
0.94476099
0.93138852
0.91807016
0.90479018
0.89153667
0.87830091
0.86507669
0.85185976
0.83864726
0.82543737
0.81222895
0.79902131
0.78581407
0.772607
0.7594
0.74619301
0.73298602
0.71977903
0.70657202
0.693365
0.68015798
0.66695096
0.65374393
0.64053691
0.62732988
0.61412285
0.60091583
0.5877088
0.57450178
0.56129475
0.54808773
0.5348807
0.52167368
0.50846665
0.49525963
0.48205261
0.46884558
0.45563856
0.44243153
0.42922451
0.41601747
0.40281047
0.38960342
0.37639642
0.36318937
0.34998237
0.33677533
0.32356831
0.3103613
0.29715424
0.28394728
0.27074017
0.25753325
0.24432612
0.23111918
0.2179121
0.20470508
0.19149811
0.17829097
0.16508408
0.1518769
0.13866997
0.12546285
0.11225575
0.099048674
0.085841415
0.072634144
0.059426801
0.046219101
0.033011696
0.019804476
0.0065996794
1.5296399
1.5141426
1.4872747
1.4533536
1.417555
1.3826083
1.3493122
1.3179633
1.2888467
1.2620974
1.2375753
1.2149534
1.1938838
1.1740829
1.1553196
1.1373987
1.1201721
1.1035433
1.0874462
1.071823
1.0566185
1.0417833
1.0272732
1.0130448
0.99905453
0.98526004
0.97162257
0.9581079
0.94468669
0.93133454
0.9180319
0.90476375
0.89151889
0.87828928
0.86506931
0.85185522
0.83864457
0.82543583
0.81222811
0.79902089
0.78581386
0.77260691
0.75939997
0.74619301
0.73298603
0.71977904
0.70657203
0.69336501
0.68015798
0.66695096
0.65374393
0.64053691
0.62732988
0.61412285
0.60091583
0.5877088
0.57450178
0.56129475
0.54808773
0.5348807
0.52167368
0.50846665
0.49525963
0.48205261
0.46884558
0.45563856
0.44243153
0.42922451
0.41601747
0.40281047
0.38960342
0.37639642
0.36318937
0.34998237
0.33677533
0.32356831
0.3103613
0.29715424
0.28394727
0.27074018
0.25753324
0.24432613
0.23111917
0.21791211
0.20470508
0.1914981
0.178291
0.16508406
0.15187694
0.13866996
0.12546287
0.11225581
0.099048699
0.085841559
0.072634327
0.059427056
0.046219525
0.033012162
0.019804933
0.0065999512
1.5590477
1.5328731
1.4944777
1.4533466
1.4142633
1.3776764
1.3433824
1.311668
1.2828251
1.2567576
1.2330534
1.2112227
1.1908538
1.1716382
1.1533425
1.1357889
1.1188537
1.1024576
1.0865458
1.0710722
1.0559932
1.0412671
1.0268527
1.0127073
0.99878822
0.98505383
0.9714662
0.95799191
0.94460257
0.93127492
0.91799066
0.90473593
0.89150062
0.87827761
0.86506207
0.85185087
0.83864204
0.82543441
0.81222737
0.79902052
0.7858137
0.77260685
0.75939996
0.74619302
0.73298604
0.71977905
0.70657203
0.69336501
0.68015799
0.66695096
0.65374393
0.64053691
0.62732988
0.61412285
0.60091583
0.5877088
0.57450178
0.56129475
0.54808773
0.5348807
0.52167368
0.50846665
0.49525963
0.48205261
0.46884558
0.45563856
0.44243153
0.42922451
0.41601748
0.40281047
0.38960343
0.37639642
0.36318938
0.34998237
0.33677534
0.32356831
0.3103613
0.29715425
0.28394727
0.27074019
0.25753322
0.24432615
0.23111915
0.21791213
0.20470508
0.1914981
0.17829102
0.16508403
0.15187699
0.13866995
0.12546293
0.11225588
0.099048773
0.085841766
0.072634588
0.059427485
0.046220209
0.033012988
0.019805845
0.0066005222
1.6198682
1.5649393
1.5039873
1.4524201
1.4091513
1.3701852
1.3346008
1.3028334
1.2748883
1.2501378
1.2277741
1.2071292
1.1877363
1.1692818
1.1515553
1.1344216
1.1177985
1.1016358
1.0858988
1.0705583
1.0555845
1.0409444
1.0266007
1.0125134
0.99864141
0.98494494
0.97138729
0.95793613
0.94456415
0.93124919
0.91797393
0.90472541
0.89149424
0.8782739
0.86506003
0.85184983
0.83864154
0.82543428
0.81222735
0.79902055
0.78581374
0.77260689
0.75939999
0.74619304
0.73298606
0.71977905
0.70657204
0.69336502
0.68015799
0.66695096
0.65374393
0.64053691
0.62732988
0.61412285
0.60091583
0.5877088
0.57450178
0.56129475
0.54808773
0.5348807
0.52167368
0.50846665
0.49525963
0.48205261
0.46884558
0.45563856
0.44243153
0.42922451
0.41601748
0.40281046
0.38960343
0.37639642
0.36318938
0.34998237
0.33677534
0.32356831
0.3103613
0.29715426
0.28394726
0.2707402
0.25753321
0.24432616
0.23111915
0.21791213
0.20470508
0.1914981
0.17829103
0.16508403
0.15187701
0.13866995
0.12546297
0.11225591
0.099048872
0.085841899
0.072634805
0.059427853
0.0462208
0.033013846
0.019806946
0.0066012837
1.7370876
1.6160095
1.5200287
1.4563723
1.4078631
1.3653923
1.3278615
1.2957019
1.2683224
1.2445148
1.2231665
1.2034758
1.1849083
1.167123
1.1499181
1.1331845
1.1168669
1.1009369
1.0853775
1.0701732
1.0553048
1.0407459
1.0264644
1.0124235
0.99858507
0.98491204
0.97137001
0.95792866
0.94456237
0.93125034
0.9179763
0.904728
0.89149656
0.87827576
0.86506142
0.85185082
0.8386423
0.82543472
0.81222759
0.79902068
0.78581381
0.77260692
0.7594
0.74619304
0.73298606
0.71977905
0.70657204
0.69336501
0.68015799
0.66695096
0.65374393
0.64053691
0.62732988
0.61412285
0.60091583
0.5877088
0.57450178
0.56129475
0.54808773
0.5348807
0.52167368
0.50846665
0.49525963
0.4820526
0.46884558
0.45563856
0.44243153
0.42922451
0.41601748
0.40281046
0.38960343
0.37639641
0.36318938
0.34998237
0.33677534
0.32356831
0.31036129
0.29715426
0.28394725
0.27074021
0.2575332
0.24432616
0.23111915
0.21791212
0.20470509
0.19149809
0.17829103
0.16508404
0.151877
0.13866997
0.12546297
0.11225592
0.099048912
0.085841906
0.072634889
0.059427951
0.046221014
0.033014213
0.019807593
0.0066018599
)
;

boundaryField
{
    top
    {
        type            zeroGradient;
    }
    inlet
    {
        type            zeroGradient;
    }
    outlet
    {
        type            fixedValue;
        value           uniform 0;
    }
    bottom
    {
        type            zeroGradient;
    }
    back
    {
        type            empty;
    }
    front
    {
        type            empty;
    }
}


// ************************************************************************* //
