/*--------------------------------*- C++ -*----------------------------------*\
| =========                 |                                                 |
| \\      /  F ield         | OpenFOAM: The Open Source CFD Toolbox           |
|  \\    /   O peration     | Version:  v1812                                 |
|   \\  /    A nd           | Web:      www.OpenFOAM.com                      |
|    \\/     M anipulation  |                                                 |
\*---------------------------------------------------------------------------*/
FoamFile
{
    version     2.0;
    format      ascii;
    class       volScalarField;
    location    "12";
    object      p;
}
// * * * * * * * * * * * * * * * * * * * * * * * * * * * * * * * * * * * * * //

dimensions      [0 2 -2 0 0 0 0];


internalField   nonuniform List<scalar> 
1000
(
1.6755984
1.5545205
1.45854
1.3948839
1.3463744
1.3039023
1.2663671
1.2341953
1.206795
1.1829574
1.1615631
1.1417993
1.1231221
1.1051826
1.0877672
1.070753
1.0540722
1.037688
1.0215798
1.0057339
0.99013891
0.9747838
0.9596571
0.94474686
0.93004085
0.91552685
0.90119289
0.88702739
0.87301934
0.85915835
0.84543464
0.83183909
0.81836319
0.80499901
0.79173917
0.77857679
0.76550549
0.75251929
0.73961263
0.72678033
0.71401753
0.70131972
0.68868268
0.67610245
0.66357535
0.65109795
0.63866701
0.62627954
0.61393269
0.60162385
0.58935054
0.57711045
0.56490141
0.55272142
0.54056857
0.52844112
0.5163374
0.50425589
0.49219513
0.48015377
0.46813055
0.45612426
0.4441338
0.43215814
0.42019631
0.40824742
0.39631061
0.38438512
0.3724702
0.36056515
0.34866932
0.3367821
0.32490292
0.31303125
0.3011666
0.28930851
0.27745658
0.2656104
0.2537696
0.24193381
0.2301027
0.21827594
0.20645325
0.19463436
0.18281902
0.17100702
0.15919815
0.14739222
0.13558901
0.12378834
0.11199003
0.10019393
0.088399881
0.076607766
0.064817471
0.053028885
0.041241944
0.029456456
0.01767259
0.0058896904
1.5583787
1.5034496
1.4424971
1.3909294
1.3476594
1.308691
1.2731048
1.2413322
1.2133713
1.1885934
1.1661915
1.1454902
1.1260085
1.1074205
1.0895069
1.0721221
1.0551703
1.0385889
1.0223362
1.0063828
0.99070573
0.97528619
0.96010733
0.94515366
0.93041061
0.91586439
0.90150198
0.88731111
0.87328028
0.85939871
0.84565635
0.83204384
0.81855248
0.80517419
0.79190143
0.77872722
0.76564504
0.75264884
0.73973297
0.72689218
0.71412154
0.70141649
0.68877274
0.6761863
0.66365345
0.6511707
0.63873481
0.62634273
0.6139916
0.60167878
0.58940177
0.57715823
0.56494599
0.552763
0.54060738
0.52847733
0.5163712
0.50428743
0.49222457
0.48018126
0.4681562
0.45614821
0.44415617
0.43217902
0.42021581
0.40826562
0.39632761
0.38440099
0.37248502
0.36057899
0.34868225
0.33679417
0.32491419
0.31304178
0.30117643
0.2893177
0.27746516
0.26561841
0.25377708
0.2419408
0.23010923
0.21828204
0.20645894
0.19463968
0.18282399
0.17101166
0.15920249
0.14739626
0.13559279
0.12379187
0.11199333
0.10019701
0.08840275
0.076610436
0.064819961
0.053031179
0.041244092
0.029458326
0.017674267
0.0058905265
1.4975574
1.4713823
1.4329855
1.3918526
1.3527673
1.3161765
1.2818788
1.2501613
1.2213052
1.1952041
1.1714502
1.1495601
1.1291103
1.1097694
1.0912893
1.0734882
1.0562364
1.0394408
1.0230347
1.0069696
0.99120923
0.97572554
0.96049567
0.94550016
0.93072189
0.9161454
0.90175658
0.88754241
0.87349087
0.85959081
0.84583189
0.83220451
0.81869978
0.80530941
0.79202575
0.77884166
0.76575052
0.75274618
0.73982289
0.72697532
0.71419849
0.70148776
0.68883881
0.6762476
0.66371035
0.65122356
0.63878393
0.62638839
0.61403407
0.60171829
0.58943854
0.57719246
0.56497787
0.55279271
0.54063506
0.52850313
0.51639526
0.50430986
0.49224549
0.48020075
0.46817438
0.45616517
0.44417198
0.43219379
0.42022959
0.40827849
0.39633963
0.38441221
0.37249548
0.36058875
0.34869135
0.33680267
0.32492212
0.31304918
0.30118335
0.28932417
0.27747121
0.26562406
0.25378235
0.24194571
0.2301138
0.21828631
0.20646293
0.19464341
0.18282748
0.17101494
0.15920555
0.14739912
0.13559544
0.12379435
0.11199563
0.10019916
0.088404743
0.076612302
0.064821674
0.053032762
0.04124546
0.029459508
0.017674968
0.005891
1.4681489
1.4526508
1.4257809
1.391857
1.356056
1.3211047
1.2878027
1.2564497
1.227319
1.2005275
1.17594
1.1532478
1.132096
1.1121672
1.093209
1.0750293
1.0574836
1.0404626
1.0238839
1.0076859
0.99182196
0.97625622
0.96096026
0.94591058
0.93108715
0.91647242
0.90205077
0.88780814
0.87373169
0.85980967
0.8460313
0.83238661
0.81886639
0.80546214
0.79216599
0.77897062
0.76586928
0.75285567
0.73992395
0.7270687
0.71428486
0.70156772
0.68891289
0.67631629
0.6637741
0.65128275
0.63883892
0.62643949
0.61408158
0.60176247
0.58947964
0.57723071
0.56501349
0.55282589
0.54066598
0.52853196
0.51642213
0.50433492
0.49226883
0.48022251
0.46819466
0.45618407
0.44418962
0.43221025
0.42024497
0.40829286
0.39635305
0.38442473
0.37250716
0.36059963
0.34870148
0.33681211
0.32493094
0.31305743
0.30119108
0.28933141
0.27747798
0.26563039
0.25378823
0.24195118
0.23011888
0.21829104
0.20646736
0.19464757
0.1828314
0.17101862
0.15920899
0.14740233
0.1355984
0.12379709
0.11199816
0.10020153
0.088406946
0.076614404
0.064823585
0.053034579
0.041246952
0.029460917
0.017675804
0.0058920169
1.4554174
1.443464
1.4212297
1.3909421
1.3570809
1.3230853
1.2903877
1.2593821
1.2302848
1.2032729
1.1783459
1.1552963
1.1338148
1.1135972
1.0943936
1.0760114
1.0583024
1.0411519
1.0244711
1.008192
0.99226298
0.97664444
0.96130493
0.94621878
0.93136433
0.91672284
0.90227785
0.88801465
0.87391995
0.85998165
0.84618869
0.83253087
0.81899881
0.80558386
0.792278
0.77907382
0.76596444
0.75294351
0.74000511
0.72714375
0.71435431
0.70163205
0.68897253
0.67637162
0.66382545
0.65133044
0.63888322
0.62648066
0.61411985
0.60179805
0.58951274
0.57726152
0.56504217
0.55285261
0.54069089
0.52855518
0.51644378
0.50435509
0.49228763
0.48024001
0.46821096
0.45619927
0.4442038
0.4322235
0.42025736
0.40830444
0.39636386
0.38443482
0.37251655
0.36060836
0.34870961
0.33681969
0.32493802
0.31306407
0.30119731
0.28933725
0.27748345
0.26563548
0.25379296
0.24195555
0.23012294
0.21829482
0.2064709
0.19465092
0.18283456
0.17102161
0.15921178
0.14740491
0.13560077
0.12379927
0.11200016
0.10020342
0.088408715
0.07661612
0.064825151
0.053036088
0.041248188
0.029462125
0.017676592
0.005893005
1.4554174
1.443464
1.4212297
1.3909421
1.3570809
1.3230853
1.2903877
1.2593821
1.2302848
1.2032729
1.1783459
1.1552963
1.1338148
1.1135972
1.0943936
1.0760113
1.0583024
1.0411519
1.0244711
1.008192
0.99226299
0.97664445
0.96130494
0.94621879
0.93136433
0.91672284
0.90227785
0.88801464
0.87391994
0.85998165
0.84618868
0.83253087
0.81899882
0.80558387
0.79227801
0.77907382
0.76596444
0.75294351
0.7400051
0.72714374
0.71435431
0.70163205
0.68897254
0.67637163
0.66382546
0.65133045
0.63888322
0.62648065
0.61411984
0.60179804
0.58951273
0.57726151
0.56504218
0.55285263
0.54069091
0.5285552
0.51644378
0.50435508
0.49228761
0.48023999
0.46821095
0.45619926
0.44420381
0.43222352
0.42025738
0.40830446
0.39636387
0.38443481
0.37251653
0.36060833
0.34870958
0.33681967
0.32493803
0.31306409
0.30119734
0.28933728
0.27748346
0.26563547
0.25379293
0.24195552
0.23012291
0.21829481
0.20647091
0.19465094
0.1828346
0.17102163
0.15921178
0.1474049
0.13560074
0.12379924
0.11200014
0.10020342
0.08840874
0.076616159
0.064825188
0.053036113
0.041248193
0.029462108
0.017676568
0.0058929943
1.4681489
1.4526508
1.4257809
1.391857
1.356056
1.3211047
1.2878027
1.2564497
1.227319
1.2005275
1.17594
1.1532478
1.132096
1.1121672
1.093209
1.0750293
1.0574835
1.0404625
1.0238839
1.0076859
0.99182197
0.97625624
0.96096028
0.9459106
0.93108716
0.91647241
0.90205076
0.88780811
0.87373166
0.85980966
0.8460313
0.83238662
0.81886641
0.80546217
0.79216601
0.77897063
0.76586927
0.75285564
0.73992392
0.72706868
0.71428485
0.70156772
0.68891291
0.67631632
0.66377413
0.65128276
0.63883891
0.62643947
0.61408155
0.60176244
0.58947962
0.57723072
0.56501351
0.55282592
0.54066602
0.52853198
0.51642213
0.50433489
0.49226879
0.48022247
0.46819463
0.45618407
0.44418965
0.4322103
0.42024503
0.4082929
0.39635305
0.3844247
0.3725071
0.36059956
0.34870143
0.3368121
0.32493097
0.31305749
0.30119115
0.28933146
0.27747799
0.26563035
0.25378816
0.2419511
0.23011883
0.21829104
0.2064674
0.19464764
0.18283147
0.17101866
0.15920898
0.14740228
0.13559833
0.12379702
0.11199813
0.10020155
0.088407017
0.076614497
0.064823667
0.053034623
0.041246952
0.029460872
0.01767575
0.0058919955
1.4975574
1.4713823
1.4329855
1.3918526
1.3527673
1.3161765
1.2818788
1.2501613
1.2213052
1.1952042
1.1714502
1.1495602
1.1291103
1.1097694
1.0912893
1.0734882
1.0562363
1.0394408
1.0230347
1.0069696
0.99120924
0.97572556
0.96049569
0.94550018
0.9307219
0.91614539
0.90175656
0.88754238
0.87349085
0.8595908
0.8458319
0.83220453
0.8186998
0.80530943
0.79202576
0.77884166
0.76575051
0.75274616
0.73982287
0.72697531
0.71419849
0.70148778
0.68883883
0.67624762
0.66371036
0.65122356
0.63878391
0.62638836
0.61403405
0.60171827
0.58943853
0.57719248
0.56497789
0.55279274
0.54063508
0.52850314
0.51639524
0.50430983
0.49224545
0.48020073
0.46817438
0.45616519
0.44417202
0.43219383
0.42022963
0.4082785
0.39633961
0.38441217
0.37249543
0.3605887
0.34869133
0.33680268
0.32492216
0.31304924
0.3011834
0.28932419
0.27747119
0.26562402
0.25378229
0.24194566
0.23011378
0.21828633
0.20646298
0.19464347
0.18282753
0.17101495
0.15920553
0.14739907
0.13559539
0.12379431
0.11199563
0.1001992
0.088404817
0.076612384
0.064821737
0.05303279
0.04124545
0.029459465
0.017674924
0.0058909828
1.5583787
1.5034496
1.4424971
1.3909294
1.3476593
1.308691
1.2731048
1.2413322
1.2133713
1.1885934
1.1661916
1.1454902
1.1260085
1.1074205
1.0895069
1.0721221
1.0551703
1.0385889
1.0223362
1.0063828
0.99070574
0.9752862
0.96010734
0.94515367
0.93041061
0.91586438
0.90150197
0.88731111
0.87328028
0.85939871
0.84565636
0.83204385
0.81855249
0.80517419
0.79190143
0.77872721
0.76564503
0.75264883
0.73973297
0.72689218
0.71412155
0.70141649
0.68877274
0.6761863
0.66365345
0.6511707
0.6387348
0.62634271
0.6139916
0.60167878
0.58940177
0.57715824
0.564946
0.55276301
0.54060738
0.52847732
0.51637119
0.50428742
0.49222456
0.48018126
0.46815621
0.45614823
0.44415619
0.43217904
0.42021581
0.40826561
0.3963276
0.38440097
0.372485
0.36057898
0.34868225
0.33679418
0.32491421
0.31304179
0.30117644
0.2893177
0.27746515
0.2656184
0.25377706
0.24194079
0.23010922
0.21828205
0.20645896
0.19463969
0.182824
0.17101166
0.15920248
0.14739625
0.13559277
0.12379187
0.11199334
0.10019704
0.088402789
0.076610478
0.064819994
0.053031196
0.041244088
0.029458304
0.017674241
0.0058905138
1.6755984
1.5545205
1.45854
1.3948839
1.3463743
1.3039023
1.2663671
1.2341954
1.206795
1.1829574
1.1615631
1.1417993
1.1231221
1.1051826
1.0877672
1.070753
1.0540722
1.037688
1.0215798
1.0057339
0.99013891
0.97478381
0.9596571
0.94474686
0.93004085
0.91552685
0.90119288
0.88702739
0.87301934
0.85915835
0.84543464
0.83183909
0.81836319
0.80499901
0.79173917
0.77857679
0.76550549
0.75251929
0.73961263
0.72678033
0.71401753
0.70131972
0.68868268
0.67610245
0.66357535
0.65109795
0.63866701
0.62627954
0.6139327
0.60162386
0.58935054
0.57711045
0.56490141
0.55272141
0.54056856
0.52844111
0.5163374
0.50425589
0.49219514
0.48015378
0.46813055
0.45612427
0.44413381
0.43215814
0.42019631
0.40824741
0.39631061
0.38438512
0.3724702
0.36056515
0.34866932
0.3367821
0.32490292
0.31303124
0.30116659
0.28930851
0.27745658
0.26561041
0.2537696
0.24193381
0.23010269
0.21827593
0.20645324
0.19463435
0.18281902
0.17100703
0.15919816
0.14739223
0.13558901
0.12378835
0.11199004
0.10019394
0.088399898
0.076607789
0.064817496
0.053028904
0.04124195
0.029456448
0.017672573
0.0058896802
)
;

boundaryField
{
    top
    {
        type            zeroGradient;
    }
    inlet
    {
        type            zeroGradient;
    }
    outlet
    {
        type            fixedValue;
        value           uniform 0;
    }
    bottom
    {
        type            zeroGradient;
    }
    back
    {
        type            empty;
    }
    front
    {
        type            empty;
    }
}


// ************************************************************************* //
