/*--------------------------------*- C++ -*----------------------------------*\
| =========                 |                                                 |
| \\      /  F ield         | OpenFOAM: The Open Source CFD Toolbox           |
|  \\    /   O peration     | Version:  v1812                                 |
|   \\  /    A nd           | Web:      www.OpenFOAM.com                      |
|    \\/     M anipulation  |                                                 |
\*---------------------------------------------------------------------------*/
FoamFile
{
    version     2.0;
    format      ascii;
    class       surfaceScalarField;
    location    "12";
    object      phi;
}
// * * * * * * * * * * * * * * * * * * * * * * * * * * * * * * * * * * * * * //

dimensions      [0 3 -1 0 0 0 0];
oriented        oriented;


internalField   nonuniform List<scalar> 
1890
(
0.0093061957
0.00069380425
0.0082843931
0.0010218027
0.0073298986
0.00095449448
0.0064869553
0.00084294332
0.0057695845
0.00071737079
0.00518986
0.00057972444
0.004738168
0.00045169206
0.00439519
0.00034297802
0.0041390268
0.00025616319
0.0039491069
0.00018991984
0.003807888
0.00014121897
0.0037013782
0.00010650979
0.003619058
8.2320211e-05
0.0035534117
6.5646237e-05
0.0034992845
5.412725e-05
0.0034532444
4.6040049e-05
0.0034130501
4.0194295e-05
0.0033772574
3.5792758e-05
0.0033449386
3.2318759e-05
0.0033154893
2.9449277e-05
0.0032885008
2.6988571e-05
0.0032636805
2.4820295e-05
0.003240805
2.2875478e-05
0.0032196926
2.111242e-05
0.0032001879
1.9504662e-05
0.0031821539
1.8034027e-05
0.0031654671
1.6686736e-05
0.0031500158
1.5451371e-05
0.0031356979
1.4317863e-05
0.0031224208
1.3277065e-05
0.0031101003
1.232058e-05
0.0030986596
1.1440708e-05
0.0030880292
1.0630424e-05
0.0030781458
9.8833619e-06
0.003068952
9.1937763e-06
0.0030603955
8.5565092e-06
0.0030524286
7.9669363e-06
0.0030450076
7.420921e-06
0.0030380928
6.9147574e-06
0.0030316477
6.4451254e-06
0.0030256387
6.0090427e-06
0.0030200349
5.6038241e-06
0.0030148078
5.227047e-06
0.0030099313
4.8765168e-06
0.0030053811
4.5502421e-06
0.0030011347
4.2464104e-06
0.0029971713
3.9633655e-06
0.0029934717
3.6995957e-06
0.002990018
3.4537124e-06
0.0029867935
3.2244432e-06
0.0029837829
3.0106164e-06
0.0029809718
2.8111516e-06
0.0029783467
2.6250528e-06
0.0029758954
2.4513964e-06
0.002973606
2.2893287e-06
0.002971468
2.1380575e-06
0.0029694711
1.9968456e-06
0.0029676061
1.8650123e-06
0.0029658641
1.7419211e-06
0.0029642371
1.6269848e-06
0.0029627175
1.5196578e-06
0.0029612981
1.4194319e-06
0.0029599723
1.3258381e-06
0.0029587339
1.238434e-06
0.0029575771
1.156809e-06
0.0029564965
1.0805767e-06
0.0029554871
1.009373e-06
0.0029545442
9.4286246e-07
0.0029536634
8.8073054e-07
0.0029528407
8.2268785e-07
0.0029520722
7.6847168e-07
0.0029513544
7.178301e-07
0.002950684
6.7053864e-07
0.0029500576
6.2637139e-07
0.0029494725
5.8512583e-07
0.0029489259
5.4659721e-07
0.0029484152
5.106062e-07
0.0029479382
4.7696702e-07
0.0029474926
4.4554309e-07
0.0029470765
4.1616079e-07
0.0029466877
3.8873817e-07
0.0029463247
3.6309579e-07
0.0029459856
3.3920239e-07
0.0029456688
3.1684153e-07
0.0029453727
2.9603859e-07
0.0029450962
2.7650395e-07
0.0029448377
2.5837374e-07
0.0029445964
2.412404e-07
0.0029443709
2.2544715e-07
0.0029441606
2.1038745e-07
0.0029439639
1.9671068e-07
0.0029437805
1.8347965e-07
0.0029436087
1.7175078e-07
0.0029434486
1.6013946e-07
0.0029432984
1.5017043e-07
0.0029431581
1.4015601e-07
0.0029430263
1.3179152e-07
0.0029429018
1.2445756e-07
0.0029427831
1.1870747e-07
1.2436408e-07
0.010339525
0.00035427932
0.010570754
0.00079057335
0.010606301
0.0009189482
0.010547573
0.00090167135
0.010422317
0.00084262621
0.010244356
0.00075768557
0.010039421
0.00065662744
0.0098287427
0.00055365588
0.009625135
0.00045977086
0.0094353013
0.00037975357
0.0092624277
0.00031409261
0.0091075332
0.00026140427
0.008970154
0.00021969948
0.0088489023
0.00018689785
0.0087419716
0.000161058
0.0086474927
0.00014051892
0.008563694
0.00012399294
0.0084890107
0.00011047598
0.0084221096
9.9219866e-05
0.0083618775
8.9681411e-05
0.0083073954
8.1470684e-05
0.0082579079
7.4307867e-05
0.0082127929
6.7990515e-05
0.0081715353
6.2370002e-05
0.0081337049
5.7335017e-05
0.0080989388
5.2800176e-05
0.0080669272
4.8698251e-05
0.0080374036
4.4974937e-05
0.0080101361
4.1585376e-05
0.0079849213
3.8491838e-05
0.0079615798
3.5662156e-05
0.0079399519
3.3068621e-05
0.0079198952
3.0687187e-05
0.0079012817
2.8496867e-05
0.0078839962
2.6479256e-05
0.0078679345
2.4618153e-05
0.0078530022
2.2899245e-05
0.0078391132
2.130984e-05
0.0078261893
1.9838651e-05
0.0078141588
1.8475598e-05
0.0078029562
1.7211659e-05
0.0077925214
1.6038722e-05
0.007782799
1.4949484e-05
0.0077737382
1.3937347e-05
0.0077652921
1.2996332e-05
0.0077574175
1.2121016e-05
0.0077500744
1.1306459e-05
0.0077432257
1.0548153e-05
0.0077368375
9.8419719e-06
0.0077308778
9.1841286e-06
0.0077253172
8.571142e-06
0.0077201286
7.999805e-06
0.0077152866
7.4671597e-06
0.0077107675
6.97048e-06
0.0077065496
6.507249e-06
0.0077026125
6.0751475e-06
0.0076989373
5.6720323e-06
0.0076955063
5.2959201e-06
0.0076923032
4.9449715e-06
0.0076893127
4.6174729e-06
0.0076865205
4.3118286e-06
0.0076839135
4.0265479e-06
0.0076814792
3.7602425e-06
0.0076792061
3.5116237e-06
0.0076770834
3.2794964e-06
0.0076751012
3.0627576e-06
0.0076732501
2.8603865e-06
0.0076715214
2.6714331e-06
0.007669907
2.495015e-06
0.0076683994
2.3302976e-06
0.0076669914
2.1765059e-06
0.0076656764
2.032895e-06
0.0076644483
1.8987828e-06
0.0076633013
1.773511e-06
0.0076622299
1.6565035e-06
0.0076612293
1.5471886e-06
0.0076602947
1.4451028e-06
0.0076594218
1.3497372e-06
0.0076586065
1.2607252e-06
0.0076578451
1.1775681e-06
0.0076571339
1.0999879e-06
0.0076564697
1.0274479e-06
0.0076558492
9.5980351e-07
0.0076552697
8.9643905e-07
0.0076547283
8.3744133e-07
0.0076542227
7.8201954e-07
0.0076537503
7.3062994e-07
0.0076533093
6.8210652e-07
0.0076528972
6.3749479e-07
0.0076525127
5.9490645e-07
0.0076521531
5.5638404e-07
0.007651818
5.1875351e-07
0.007651504
4.8581864e-07
0.007651212
4.5217146e-07
0.0076509374
4.247279e-07
0.0076506832
3.9417124e-07
0.0076504419
3.7309143e-07
0.0076502209
3.4535932e-07
0.0076500057
3.3409492e-07
3.0787527e-07
0.010188704
0.00016557515
0.010530487
0.00044879099
0.010851453
0.00059798176
0.011124174
0.00062895023
0.011350581
0.00061621884
0.011524487
0.00058378052
0.01164633
0.00053478419
0.011724155
0.00047583051
0.011767999
0.0004159267
0.011786639
0.00036111406
0.011787114
0.00031361718
0.011775058
0.0002734603
0.011754861
0.00023989719
0.011729768
0.00021199028
0.011702054
0.00018877254
0.011673239
0.0001693338
0.011644339
0.0001528929
0.011616003
0.0001388118
0.011588629
0.0001265938
0.011562446
0.0001158645
0.011537572
0.00010634501
0.011514052
9.782707e-05
0.011491889
9.015341e-05
0.011471056
8.3203376e-05
0.011451508
7.6882583e-05
0.011433193
7.1115501e-05
0.011416051
6.5840223e-05
0.011400021
6.1004851e-05
0.011385042
5.6565043e-05
0.011371051
5.248235e-05
0.01135799
4.8723075e-05
0.011345801
4.5257456e-05
0.01133443
4.2059061e-05
0.011323822
3.9104316e-05
0.011313929
3.6372129e-05
0.011304704
3.3843575e-05
0.011296101
3.1501631e-05
0.01128808
2.9330946e-05
0.011280601
2.7317645e-05
0.011273628
2.5449158e-05
0.011267125
2.3714075e-05
0.011261062
2.2102018e-05
0.011255408
2.0603539e-05
0.011250135
1.9210022e-05
0.011245218
1.7913606e-05
0.011240632
1.6707101e-05
0.011236354
1.5583925e-05
0.011232364
1.4538033e-05
0.011228643
1.3563857e-05
0.01122517
1.2656262e-05
0.011221931
1.1810498e-05
0.011218909
1.1022175e-05
0.011216089
1.0287233e-05
0.011213457
9.6019202e-06
0.011211002
8.9627834e-06
0.01120871
8.3666359e-06
0.011206572
7.8105401e-06
0.011204576
7.291776e-06
0.011202713
6.8078104e-06
0.011200974
6.3562777e-06
0.011199351
5.934956e-06
0.011197836
5.541762e-06
0.011196421
5.1747545e-06
0.011195101
4.8321301e-06
0.011193868
4.5122422e-06
0.011192717
4.2135758e-06
0.011191643
3.9347499e-06
0.01119064
3.6744778e-06
0.011189703
3.4315528e-06
0.011188829
3.2048206e-06
0.011188012
2.993183e-06
0.011187249
2.7955746e-06
0.011186537
2.6110197e-06
0.011185872
2.4385877e-06
0.011185251
2.2774913e-06
0.011184672
2.1269692e-06
0.01118413
1.9864257e-06
0.011183624
1.8551947e-06
0.011183152
1.7327918e-06
0.011182711
1.6185084e-06
0.0111823
1.51194e-06
0.011181915
1.4122618e-06
0.011181556
1.3192838e-06
0.01118122
1.2320671e-06
0.011180907
1.1508631e-06
0.011180614
1.0744752e-06
0.011180341
1.0038203e-06
0.011180086
9.3699066e-07
0.011179847
8.7593591e-07
0.011179625
8.1725866e-07
0.011179417
7.6483154e-07
0.011179223
7.1257777e-07
0.011179041
6.6810378e-07
0.011178872
6.2049252e-07
0.011178713
5.8429153e-07
0.011178567
5.3963862e-07
0.011178426
5.1351045e-07
0.011178302
4.6988561e-07
0.011178179
4.5670233e-07
4.1295115e-07
0.010097182
6.8393552e-05
0.010346961
0.00019901111
0.010662469
0.00028247386
0.010982753
0.00030866647
0.011290229
0.00030874339
0.011575251
0.00029875786
0.011829022
0.00028101346
0.012047865
0.00025698758
0.012233272
0.00023051987
0.01238924
0.00020514597
0.012520295
0.00018256242
0.012630755
0.00016299961
0.012724428
0.00014622489
0.012804515
0.00013190306
0.012873613
0.00011967417
0.012933772
0.00010917452
0.012986596
0.00010006901
0.013033332
9.2076356e-05
0.01307495
8.4975297e-05
0.013112216
7.8598698e-05
0.013145739
7.2822399e-05
0.013176012
6.7554014e-05
0.013203441
6.2723957e-05
0.013228366
5.8278874e-05
0.013251071
5.417692e-05
0.013271802
5.0384341e-05
0.01329077
4.687308e-05
0.013308155
4.3619127e-05
0.013324119
4.0601459e-05
0.0133388
3.780133e-05
0.013352321
3.5201838e-05
0.013364791
3.2787624e-05
0.013376305
3.0544666e-05
0.01338695
2.846012e-05
0.0133968
2.6522198e-05
0.013405923
2.4720066e-05
0.013414381
2.3043751e-05
0.013422228
2.1484059e-05
0.013429513
2.0032511e-05
0.013436281
1.8681279e-05
0.013442572
1.7423126e-05
0.013448423
1.6251378e-05
0.013453866
1.5159866e-05
0.013458933
1.4142903e-05
0.013463652
1.3195237e-05
0.013468047
1.2312022e-05
0.013472142
1.1488773e-05
0.013475959
1.0721331e-05
0.013479517
1.0005828e-05
0.013482834
9.3386691e-06
0.013485928
8.716494e-06
0.013488814
8.1361853e-06
0.013491507
7.5948437e-06
0.013494019
7.0897914e-06
0.013496363
6.6185538e-06
0.013498551
6.178851e-06
0.013500593
5.7685743e-06
0.013502499
5.3857613e-06
0.013504278
5.0285703e-06
0.013505939
4.6952744e-06
0.01350749
4.3842289e-06
0.013508938
4.0938958e-06
0.01351029
3.8228353e-06
0.013511552
3.5697286e-06
0.013512731
3.3333713e-06
0.013513832
3.1126749e-06
0.01351486
2.9066492e-06
0.01351582
2.7143621e-06
0.013516716
2.5349276e-06
0.013517554
2.3674864e-06
0.013518336
2.2111989e-06
0.013519066
2.0652473e-06
0.013519748
1.9288918e-06
0.013520385
1.8014407e-06
0.013520981
1.6823308e-06
0.013521536
1.5710275e-06
0.013522056
1.467138e-06
0.013522541
1.3701796e-06
0.013522994
1.2798138e-06
0.013523417
1.1954762e-06
0.013523812
1.1168518e-06
0.013524181
1.0432582e-06
0.013524526
9.7457605e-07
0.013524848
9.1004456e-07
0.013525149
8.4998041e-07
0.01352543
7.9339237e-07
0.013525692
7.4122604e-07
0.013525937
6.917835e-07
0.013526166
6.4692174e-07
0.01352638
6.0350699e-07
0.01352658
5.6515399e-07
0.013526766
5.2622039e-07
0.013526941
4.938082e-07
0.013527103
4.5787415e-07
0.013527256
4.3182197e-07
0.013527397
3.9768109e-07
0.013527531
3.7941303e-07
0.013527656
3.454035e-07
0.013527776
3.3651173e-07
3.0369506e-07
0.010068394
-4.9279941e-12
0.010267405
-1.3047395e-11
0.010549879
-1.9227916e-11
0.010858545
-1.9046133e-11
0.011167289
-8.8556213e-12
0.011466046
1.1627524e-11
0.01174706
3.4660415e-11
0.012004047
5.0905871e-11
0.012234567
5.1900435e-11
0.012439713
3.3538825e-11
0.012622275
2.6819732e-13
0.012785275
-3.6969701e-11
0.0129315
-6.2879179e-11
0.013063403
-6.9777174e-11
0.013183077
-5.6529479e-11
0.013292252
-2.5113836e-11
0.013392321
1.6338704e-11
0.013484397
4.774905e-11
0.013569373
6.4746416e-11
0.013647971
5.9993992e-11
0.013720793
3.723417e-11
0.013788347
1.8354256e-12
0.013851071
-3.3109791e-11
0.01390935
-5.4884142e-11
0.013963527
-5.941101e-11
0.014013912
-4.4486003e-11
0.014060785
-1.5646458e-11
0.014104404
2.1128146e-11
0.014145006
4.6187103e-11
0.014182807
5.8247837e-11
0.014218008
5.0773189e-11
0.014250796
2.8023275e-11
0.014281341
-5.8919617e-12
0.014309801
-3.4704607e-11
0.014336323
-5.2904076e-11
0.014361043
-5.3453412e-11
0.014384087
-3.5532592e-11
0.014405571
-3.6816341e-12
0.014425604
3.2252144e-11
0.014444285
5.5667904e-11
0.014461708
6.2230257e-11
0.014477959
4.6956442e-11
0.014493119
1.5182779e-11
0.014507262
-2.3437382e-11
0.014520457
-5.0054639e-11
0.014532769
-6.1287614e-11
0.014544258
-4.7899012e-11
0.01455498
-1.5515704e-11
0.014564985
3.1592039e-11
0.014574324
6.5705403e-11
0.01458304
8.2081415e-11
0.014591176
7.0775225e-11
0.014598771
3.4148863e-11
0.014605861
-1.6073546e-11
0.014612479
-5.5821622e-11
0.014618658
-7.9627868e-11
0.014624427
-6.8287465e-11
0.014629813
-2.7076897e-11
0.014634842
3.8962881e-11
0.014639537
9.2877984e-11
0.014643921
1.2196112e-10
0.014648015
1.104677e-10
0.014651837
5.8978309e-11
0.014655407
-1.6833404e-11
0.01465874
-8.0923545e-11
0.014661853
-1.2169527e-10
0.01466476
-1.1273196e-10
0.014667475
-5.741194e-11
0.01467001
3.6986516e-11
0.014672377
1.1877132e-10
0.014674588
1.6669276e-10
0.014676653
1.6002101e-10
0.014678582
9.6032696e-11
0.014680383
-3.8540005e-12
0.014682065
-9.2968549e-11
0.014683636
-1.500287e-10
0.014685104
-1.4265439e-10
0.014686475
-7.613955e-11
0.014687755
2.8908896e-11
0.01468895
1.1555625e-10
0.014690067
1.6749988e-10
0.014691109
1.474143e-10
0.014692083
6.6166463e-11
0.014692993
-5.7148533e-11
0.014693843
-1.5363544e-10
0.014694637
-1.9821824e-10
0.014695379
-1.6887633e-10
0.014696071
-7.4404648e-11
0.014696718
4.5861185e-11
0.014697322
1.1324214e-10
0.014697886
1.3318026e-10
0.014698412
7.8421038e-11
0.014698906
-3.4484533e-11
0.014699364
-1.6205675e-10
0.014699796
-2.4106817e-10
0.014700194
-2.6189574e-10
0.014700574
-2.212532e-10
0.014700919
-1.0730523e-10
0.014701256
-2.0137813e-11
-2.00082e-11
0.010068394
-6.8393562e-05
0.010267405
-0.00019901114
0.010549879
-0.00028247389
0.010858545
-0.00030866649
0.011167289
-0.0003087434
0.011466046
-0.00029875783
0.01174706
-0.00028101339
0.012004047
-0.0002569875
0.012234567
-0.00023051981
0.012439713
-0.00020514595
0.012622275
-0.00018256245
0.012785275
-0.00016299968
0.0129315
-0.00014622499
0.013063403
-0.00013190315
0.013183077
-0.00011967423
0.013292252
-0.00010917452
0.013392321
-0.00010006896
0.013484397
-9.2076276e-05
0.013569373
-8.4975211e-05
0.013647971
-7.8598634e-05
0.013720793
-7.2822378e-05
0.013788347
-6.7554041e-05
0.013851071
-6.272402e-05
0.01390935
-5.8278953e-05
0.013963527
-5.4176986e-05
0.014013912
-5.0384373e-05
0.014060785
-4.6873067e-05
0.014104404
-4.3619078e-05
0.014145005
-4.0601387e-05
0.014182807
-3.780126e-05
0.014218008
-3.5201793e-05
0.014250796
-3.2787619e-05
0.014281341
-3.0544701e-05
0.014309801
-2.8460183e-05
0.014336323
-2.6522269e-05
0.014361043
-2.4720116e-05
0.014384087
-2.3043763e-05
0.014405571
-2.1484027e-05
0.014425604
-2.0032445e-05
0.014444285
-1.8681199e-05
0.014461708
-1.7423061e-05
0.014477959
-1.625135e-05
0.014493119
-1.5159884e-05
0.014507262
-1.4142959e-05
0.014520457
-1.3195312e-05
0.014532769
-1.2312083e-05
0.014544258
-1.1488796e-05
0.01455498
-1.07213e-05
0.014564985
-1.0005752e-05
0.014574324
-9.3385663e-06
0.01458304
-8.7163997e-06
0.014591176
-8.1361316e-06
0.014598771
-7.5948491e-06
0.014605861
-7.0898518e-06
0.014612479
-6.6186465e-06
0.014618658
-6.1789338e-06
0.014624427
-5.7686086e-06
0.014629813
-5.3857203e-06
0.014634842
-5.028462e-06
0.014639537
-4.6951222e-06
0.014643921
-4.3840829e-06
0.014648015
-4.0938058e-06
0.014651837
-3.822833e-06
0.014655407
-3.5698122e-06
0.01465874
-3.333512e-06
0.014661853
-3.1128138e-06
0.01466476
-2.9067253e-06
0.014667475
-2.7143336e-06
0.01467001
-2.5347988e-06
0.014672377
-2.3672875e-06
0.014674588
-2.2109919e-06
0.014676653
-2.0651066e-06
0.014678582
-1.9288623e-06
0.014680383
-1.801527e-06
0.014682065
-1.6824979e-06
0.014683637
-1.5712023e-06
0.014685104
-1.4672438e-06
0.014686475
-1.3701687e-06
0.014687755
-1.2796865e-06
0.01468895
-1.195279e-06
0.014690066
-1.1166654e-06
0.014691109
-1.0431617e-06
0.014692083
-9.7461666e-07
0.014692993
-9.1020713e-07
0.014693844
-8.5021384e-07
0.014694637
-7.9361377e-07
0.014695379
-7.4136009e-07
0.014696071
-6.9179517e-07
0.014696718
-6.4683338e-07
0.014697322
-6.0337708e-07
0.014697886
-5.6506633e-07
0.014698412
-5.2624872e-07
0.014698906
-4.9398189e-07
0.014699364
-4.5816624e-07
0.014699796
-4.3217576e-07
0.014700194
-3.9800668e-07
0.014700574
-3.7967772e-07
0.014700919
-3.4553541e-07
0.014701256
-3.3659386e-07
-3.0379089e-07
0.010097182
-0.00016557516
0.010346961
-0.00044879101
0.010662469
-0.00059798178
0.010982753
-0.00062895023
0.011290229
-0.00061621881
0.011575251
-0.00058378049
0.011829022
-0.00053478416
0.012047865
-0.00047583051
0.012233272
-0.00041592673
0.01238924
-0.0003611141
0.012520295
-0.00031361722
0.012630755
-0.00027346032
0.012724428
-0.00023989719
0.012804515
-0.00021199025
0.012873613
-0.00018877251
0.012933772
-0.00016933377
0.012986596
-0.00015289289
0.013033332
-0.00013881181
0.01307495
-0.00012659383
0.013112216
-0.00011586453
0.013145739
-0.00010634504
0.013176012
-9.7827083e-05
0.013203441
-9.0153397e-05
0.013228366
-8.3203344e-05
0.013251071
-7.6882541e-05
0.013271803
-7.1115464e-05
0.01329077
-6.5840203e-05
0.013308155
-6.1004856e-05
0.013324119
-5.6565072e-05
0.0133388
-5.2482393e-05
0.013352321
-4.8723118e-05
0.013364791
-4.5257483e-05
0.013376306
-4.2059063e-05
0.01338695
-3.9104291e-05
0.0133968
-3.6372083e-05
0.013405923
-3.3843524e-05
0.013414381
-3.150159e-05
0.013422228
-2.933093e-05
0.013429513
-2.7317662e-05
0.013436281
-2.5449202e-05
0.013442572
-2.3714131e-05
0.013448423
-2.2102064e-05
0.013453866
-2.0603556e-05
0.013458933
-1.9210002e-05
0.013463652
-1.791355e-05
0.013468047
-1.6707028e-05
0.013472142
-1.5583858e-05
0.013475959
-1.4537993e-05
0.013479517
-1.3563861e-05
0.013482834
-1.2656308e-05
0.013485928
-1.181057e-05
0.013488814
-1.1022243e-05
0.013491507
-1.0287267e-05
0.013494019
-9.601902e-06
0.013496363
-8.9627096e-06
0.013498551
-8.366528e-06
0.013500593
-7.8104303e-06
0.013502499
-7.2917018e-06
0.013504278
-6.8078009e-06
0.013505939
-6.3563341e-06
0.01350749
-5.9350576e-06
0.013508938
-5.5418646e-06
0.01351029
-5.1748124e-06
0.013511552
-4.8321152e-06
0.013512731
-4.5121477e-06
0.013513832
-4.2134323e-06
0.01351486
-3.9346024e-06
0.01351582
-3.674378e-06
0.013516716
-3.4315405e-06
0.013517554
-3.2048967e-06
0.013518336
-2.9933169e-06
0.013519066
-2.795707e-06
0.013519749
-2.6110918e-06
0.013520386
-2.4385633e-06
0.013520981
-2.2773685e-06
0.013521537
-2.1267917e-06
0.013522056
-1.9862593e-06
0.013522541
-1.8551047e-06
0.013522994
-1.7328199e-06
0.013523417
-1.618642e-06
0.013523812
-1.5121314e-06
0.013524181
-1.412436e-06
0.013524526
-1.3193729e-06
0.013524848
-1.2320391e-06
0.013525149
-1.1507341e-06
0.01352543
-1.0743071e-06
0.013525692
-1.0036987e-06
0.013525937
-9.369759e-07
0.013526166
-8.7605696e-07
0.01352638
-8.1748208e-07
0.01352658
-7.6509409e-07
0.013526766
-7.1280026e-07
0.013526941
-6.682383e-07
0.013527103
-6.2052314e-07
0.013527256
-5.842654e-07
0.013527397
-5.3961175e-07
0.013527531
-5.1353972e-07
0.013527656
-4.700154e-07
0.013527776
-4.5694264e-07
-4.1314633e-07
0.010188704
-0.00035427932
0.010530487
-0.00079057335
0.010851453
-0.00091894819
0.011124174
-0.00090167132
0.011350581
-0.00084262618
0.011524486
-0.00075768557
0.01164633
-0.00065662747
0.011724155
-0.00055365594
0.011767999
-0.00045977093
0.011786639
-0.00037975361
0.011787114
-0.0003140926
0.011775058
-0.00026140422
0.011754861
-0.0002196994
0.011729768
-0.00018689777
0.011702054
-0.00016105796
0.011673239
-0.00014051893
0.011644339
-0.00012399299
0.011616003
-0.00011047606
0.011588629
-9.9219946e-05
0.011562446
-8.9681463e-05
0.011537572
-8.1470693e-05
0.011514052
-7.4307828e-05
0.01149189
-6.7990443e-05
0.011471056
-6.2369921e-05
0.011451509
-5.7334954e-05
0.011433193
-5.2800152e-05
0.011416051
-4.8698273e-05
0.011400021
-4.4974998e-05
0.011385042
-4.1585455e-05
0.011371051
-3.849191e-05
0.01135799
-3.5662195e-05
0.011345801
-3.3068614e-05
0.01133443
-3.0687136e-05
0.011323822
-2.8496787e-05
0.011313929
-2.6479174e-05
0.011304704
-2.4618097e-05
0.011296101
-2.2899234e-05
0.01128808
-2.1309881e-05
0.011280601
-1.9838729e-05
0.011273628
-1.8475687e-05
0.011267125
-1.7211725e-05
0.011261062
-1.6038741e-05
0.011255408
-1.4949446e-05
0.011250135
-1.3937261e-05
0.011245218
-1.2996228e-05
0.011240632
-1.212093e-05
0.011236354
-1.1306422e-05
0.011232364
-1.0548181e-05
0.011228643
-9.8420567e-06
0.01122517
-9.1842414e-06
0.011221931
-8.57124e-06
0.011218909
-7.9998476e-06
0.011216089
-7.4671253e-06
0.011213457
-6.9703729e-06
0.011211002
-6.5071039e-06
0.01120871
-6.0750144e-06
0.011206572
-5.6719612e-06
0.011204576
-5.2959415e-06
0.011202713
-4.9450809e-06
0.011200974
-4.6176329e-06
0.011199351
-4.311977e-06
0.011197836
-4.0266231e-06
0.011196422
-3.7602082e-06
0.011195101
-3.5114822e-06
0.011193868
-3.2792945e-06
0.011192718
-3.0625653e-06
0.011191643
-2.8602761e-06
0.01119064
-2.6714492e-06
0.011189703
-2.4951557e-06
0.011188829
-2.3305135e-06
0.011188012
-2.1767128e-06
0.01118725
-2.0330084e-06
0.011186538
-1.898752e-06
0.011185873
-1.7733396e-06
0.011185252
-1.656253e-06
0.011184672
-1.5469557e-06
0.01118413
-1.4449806e-06
0.011183625
-1.3497792e-06
0.011183152
-1.2609172e-06
0.011182712
-1.1778372e-06
0.0111823
-1.1002267e-06
0.011181915
-1.0275618e-06
0.011181556
-9.5974812e-07
0.01118122
-8.9623812e-07
0.011180907
-8.3717999e-07
0.011180614
-7.8181074e-07
0.011180341
-7.3056451e-07
0.011180086
-6.822232e-07
0.011179847
-6.3775268e-07
0.011179625
-5.9521667e-07
0.011179416
-5.5663345e-07
0.011179223
-5.1886545e-07
0.011179041
-4.8576746e-07
0.011178872
-4.5201158e-07
0.011178713
-4.2454144e-07
0.011178567
-3.9406333e-07
0.011178426
-3.7310466e-07
0.011178302
-3.4551168e-07
0.011178179
-3.3433466e-07
-3.0806456e-07
0.010339525
-0.00069380425
0.010570754
-0.0010218027
0.010606301
-0.00095449446
0.010547573
-0.0008429433
0.010422317
-0.00071737079
0.010244356
-0.00057972447
0.010039421
-0.0004516921
0.0098287427
-0.00034297807
0.009625135
-0.00025616321
0.0094353013
-0.00018991983
0.0092624277
-0.00014121894
0.0091075332
-0.00010650974
0.008970154
-8.2320166e-05
0.0088489024
-6.564621e-05
0.0087419716
-5.412725e-05
0.0086474927
-4.6040074e-05
0.008563694
-4.0194337e-05
0.0084890107
-3.5792803e-05
0.0084221096
-3.2318791e-05
0.0083618775
-2.9449288e-05
0.0083073954
-2.6988555e-05
0.0082579079
-2.482026e-05
0.0082127929
-2.2875435e-05
0.0081715353
-2.1112383e-05
0.008133705
-1.9504644e-05
0.0080989388
-1.8034033e-05
0.0080669273
-1.6686764e-05
0.0080374036
-1.5451411e-05
0.0080101361
-1.4317902e-05
0.0079849213
-1.327709e-05
0.0079615797
-1.2320582e-05
0.0079399519
-1.1440687e-05
0.0079198951
-1.0630387e-05
0.0079012817
-9.8833203e-06
0.0078839962
-9.1937454e-06
0.0078679346
-8.5564993e-06
0.0078530022
-7.9669521e-06
0.0078391133
-7.4209567e-06
0.0078261893
-6.9148009e-06
0.0078141588
-6.4451611e-06
0.0078029562
-6.0090567e-06
0.0077925213
-5.603811e-06
0.007782799
-5.2270098e-06
0.0077737382
-4.8764684e-06
0.0077652921
-4.5501998e-06
0.0077574175
-4.2463891e-06
0.0077500744
-3.963375e-06
0.0077432258
-3.6996328e-06
0.0077368375
-3.4537651e-06
0.0077308778
-3.2244919e-06
0.0077253172
-3.0106414e-06
0.0077201286
-2.8111419e-06
0.0077152866
-2.6250083e-06
0.0077107676
-2.4513317e-06
0.0077065497
-2.2892669e-06
0.0077026126
-2.1380213e-06
0.0076989374
-1.9968517e-06
0.0076955065
-1.8650593e-06
0.0076923033
-1.7419942e-06
0.0076893128
-1.6270572e-06
0.0076865206
-1.5197e-06
0.0076839135
-1.4194266e-06
0.0076814792
-1.3257821e-06
0.0076792061
-1.2383455e-06
0.0076770835
-1.1567189e-06
0.0076751014
-1.0805167e-06
0.0076732503
-1.0093687e-06
0.0076715217
-9.4291576e-07
0.0076699073
-8.8082446e-07
0.0076683996
-8.2278858e-07
0.0076669915
-7.6853888e-07
0.0076656765
-7.1783802e-07
0.0076644483
-6.7048019e-07
0.0076633014
-6.2626747e-07
0.0076622301
-5.8501742e-07
0.0076612296
-5.4652457e-07
0.007660295
-5.1060227e-07
0.0076594221
-4.7703278e-07
0.0076586068
-4.4565429e-07
0.0076578452
-4.16275e-07
0.007657134
-3.888081e-07
0.0076564697
-3.6309609e-07
0.0076558492
-3.3913215e-07
0.0076552698
-3.1672929e-07
0.0076547284
-2.9593269e-07
0.0076542229
-2.7644627e-07
0.0076537505
-2.5839326e-07
0.0076533095
-2.4133204e-07
0.0076528973
-2.2557829e-07
0.0076525126
-2.1051171e-07
0.007652153
-1.9678239e-07
0.0076518177
-1.8347754e-07
0.0076515038
-1.7168482e-07
0.0076512118
-1.6003831e-07
0.0076509372
-1.5008652e-07
0.0076506831
-1.401109e-07
0.0076504417
-1.3181824e-07
0.0076502207
-1.2453824e-07
0.0076500053
-1.1882102e-07
-1.244679e-07
0.0093061958
0.0082843931
0.0073298987
0.0064869553
0.0057695845
0.00518986
0.0047381679
0.0043951899
0.0041390267
0.0039491069
0.003807888
0.0037013782
0.003619058
0.0035534118
0.0034992845
0.0034532444
0.0034130501
0.0033772573
0.0033449386
0.0033154893
0.0032885007
0.0032636805
0.003240805
0.0032196926
0.003200188
0.0031821539
0.0031654672
0.0031500158
0.0031356979
0.0031224208
0.0031101002
0.0030986595
0.0030880291
0.0030781458
0.003068952
0.0030603955
0.0030524286
0.0030450076
0.0030380928
0.0030316477
0.0030256387
0.0030200349
0.0030148078
0.0030099314
0.0030053811
0.0030011347
0.0029971713
0.0029934717
0.002990018
0.0029867935
0.0029837829
0.0029809718
0.0029783467
0.0029758954
0.0029736061
0.002971468
0.0029694712
0.0029676061
0.0029658641
0.0029642371
0.0029627175
0.0029612981
0.0029599723
0.0029587339
0.0029575771
0.0029564966
0.0029554872
0.0029545443
0.0029536635
0.0029528407
0.0029520722
0.0029513544
0.002950684
0.0029500577
0.0029494726
0.002948926
0.0029484154
0.0029479384
0.0029474927
0.0029470765
0.0029466878
0.0029463247
0.0029459855
0.0029456688
0.0029453728
0.0029450963
0.0029448378
0.0029445965
0.002944371
0.0029441605
0.0029439638
0.0029437803
0.0029436086
0.0029434484
0.0029432983
0.0029431581
0.0029430263
0.0029429017
0.0029427829
)
;

boundaryField
{
    top
    {
        type            calculated;
        value           uniform 0;
    }
    inlet
    {
        type            calculated;
        value           nonuniform List<scalar> 10(-0.01 -0.01 -0.01 -0.01 -0.01 -0.01 -0.01 -0.01 -0.01 -0.01);
    }
    outlet
    {
        type            calculated;
        value           nonuniform List<scalar> 10(0.0029426587 0.0076498222 0.011178075 0.013527886 0.014701559 0.014701559 0.013527885 0.011178074 0.0076498217 0.0029426584);
    }
    bottom
    {
        type            calculated;
        value           uniform 0;
    }
    back
    {
        type            empty;
        value           nonuniform 0();
    }
    front
    {
        type            empty;
        value           nonuniform 0();
    }
}


// ************************************************************************* //
