/*--------------------------------*- C++ -*----------------------------------*\
| =========                 |                                                 |
| \\      /  F ield         | OpenFOAM: The Open Source CFD Toolbox           |
|  \\    /   O peration     | Version:  v1812                                 |
|   \\  /    A nd           | Web:      www.OpenFOAM.com                      |
|    \\/     M anipulation  |                                                 |
\*---------------------------------------------------------------------------*/
FoamFile
{
    version     2.0;
    format      ascii;
    class       volScalarField;
    location    "5";
    object      p;
}
// * * * * * * * * * * * * * * * * * * * * * * * * * * * * * * * * * * * * * //

dimensions      [0 2 -2 0 0 0 0];


internalField   nonuniform List<scalar> 
1000
(
1.6782407
1.5571628
1.4611823
1.3975262
1.3490167
1.3065447
1.2690094
1.2368377
1.2094373
1.1855998
1.1642054
1.1444416
1.1257645
1.1078249
1.0904096
1.0733955
1.0567146
1.0403305
1.0242223
1.0083765
0.99278164
0.97742671
0.96230027
0.9473904
0.93268494
0.91817174
0.90383891
0.88967504
0.87566931
0.86181159
0.84809244
0.83450318
0.82103579
0.80768295
0.79443798
0.78129475
0.76824767
0.75529155
0.7424216
0.72963331
0.71692236
0.70428459
0.6917159
0.67921223
0.66676948
0.65438355
0.64205026
0.62976542
0.61752482
0.60532429
0.59315971
0.58102708
0.56892255
0.55684249
0.5447835
0.53274244
0.52071648
0.50870308
0.49670001
0.48470532
0.47271737
0.46073475
0.44875631
0.43678111
0.42480838
0.41283751
0.40086802
0.38889957
0.37693185
0.36496467
0.35299786
0.34103132
0.32906497
0.31709873
0.30513259
0.29316649
0.28120044
0.2692344
0.25726839
0.24530238
0.23333638
0.22137038
0.20940439
0.19743839
0.1854724
0.17350641
0.16154041
0.14957442
0.13760843
0.12564244
0.11367645
0.10171045
0.089744464
0.077778476
0.065812487
0.053846502
0.041880521
0.029914563
0.017948629
0.0059827977
1.561021
1.506092
1.4451395
1.3935718
1.3503017
1.3113334
1.2757471
1.2439745
1.2160136
1.1912357
1.1688339
1.1481325
1.1286509
1.1100629
1.0921493
1.0747645
1.0578127
1.0412314
1.0249787
1.0090253
0.99334838
0.97792898
0.96275034
0.94779698
0.93305437
0.9185088
0.90414733
0.88995783
0.87592895
0.86205017
0.84831176
0.83470473
0.82122089
0.80785273
0.7945934
0.78143665
0.76837677
0.75540853
0.74252708
0.72972786
0.71700656
0.70435903
0.69178118
0.67926897
0.66681834
0.65442518
0.64208535
0.62979466
0.61754889
0.60534384
0.59317538
0.58103945
0.56893217
0.55684985
0.54478902
0.53274651
0.52071942
0.50870514
0.49670142
0.48470625
0.47271795
0.4607351
0.4487565
0.43678119
0.42480839
0.41283749
0.40086799
0.38889953
0.37693181
0.36496463
0.35299784
0.3410313
0.32906495
0.31709872
0.30513258
0.29316649
0.28120043
0.2692344
0.25726839
0.24530238
0.23333638
0.22137038
0.20940439
0.19743839
0.1854724
0.17350641
0.16154041
0.14957442
0.13760843
0.12564244
0.11367644
0.10171045
0.089744462
0.077778472
0.065812478
0.053846488
0.041880489
0.029914513
0.017948543
0.0059827292
1.5001998
1.4740247
1.4356278
1.3944949
1.3554097
1.3188189
1.2845212
1.2528037
1.2239476
1.1978465
1.1740925
1.1522025
1.1317527
1.1124118
1.0939316
1.0761306
1.0588788
1.0420832
1.0256772
1.0096121
0.99385187
0.97836832
0.96313865
0.94814345
0.93336561
0.91878975
0.90440184
0.890189
0.87613937
0.86224203
0.84848693
0.83486488
0.82136742
0.80798688
0.79471622
0.78154906
0.76847955
0.75550236
0.74261252
0.72980543
0.71707672
0.70442218
0.69183772
0.67931927
0.66686278
0.65446414
0.64211923
0.62982385
0.6175738
0.6053649
0.59319298
0.58105401
0.56894408
0.55685947
0.54479671
0.53275258
0.52072414
0.50870878
0.49670417
0.48470832
0.47271948
0.46073621
0.4487573
0.43678176
0.42480879
0.41283776
0.40086817
0.38889965
0.37693189
0.36496468
0.35299787
0.34103132
0.32906496
0.31709873
0.30513258
0.29316649
0.28120043
0.2692344
0.25726839
0.24530238
0.23333638
0.22137038
0.20940439
0.19743839
0.1854724
0.17350641
0.16154041
0.14957442
0.13760843
0.12564244
0.11367644
0.10171045
0.089744453
0.077778458
0.065812448
0.053846439
0.041880405
0.02991439
0.01794839
0.0059826259
1.4707913
1.4552932
1.4284232
1.3944994
1.3586984
1.3237471
1.2904451
1.2590921
1.2299614
1.2031699
1.1785824
1.1558902
1.1347383
1.1148096
1.0958514
1.0776717
1.060126
1.043105
1.0265265
1.0103285
0.99446465
0.97889906
0.96360331
0.94855396
0.93373101
0.91911698
0.90469637
0.8904552
0.87638085
0.86246179
0.84868753
0.8350485
0.82153595
0.80814193
0.79485921
0.78168119
0.76860186
0.75561571
0.74271763
0.7299029
0.71716701
0.70450569
0.69191475
0.67939008
0.66692759
0.65452316
0.64217265
0.62987188
0.61761667
0.60540286
0.59322631
0.58108301
0.56896908
0.55688082
0.54481475
0.53276767
0.52073663
0.50871901
0.49671246
0.48471496
0.47272474
0.46074033
0.44876049
0.4367842
0.42481064
0.41283915
0.4008692
0.3889004
0.37693243
0.36496507
0.35299814
0.34103151
0.32906509
0.31709882
0.30513264
0.29316653
0.28120046
0.26923442
0.2572684
0.24530239
0.23333638
0.22137038
0.20940439
0.19743839
0.1854724
0.17350641
0.16154041
0.14957442
0.13760843
0.12564243
0.11367644
0.10171044
0.08974444
0.077778437
0.06581241
0.053846376
0.041880307
0.02991426
0.017948247
0.0059825368
1.4580597
1.4461064
1.423872
1.3935844
1.3597232
1.3257277
1.2930301
1.2620245
1.2329271
1.2059153
1.1809882
1.1579387
1.1364571
1.1162395
1.0970359
1.0786537
1.0609449
1.0437944
1.0271136
1.0108346
0.99490572
0.97928733
0.96394807
0.94886227
0.93400835
0.91936765
0.90492381
0.89066224
0.87656984
0.86263476
0.84884622
0.83519444
0.82167049
0.80826627
0.79497438
0.78178812
0.76870134
0.7557084
0.74280412
0.72998365
0.7172424
0.704576
0.69198021
0.67945086
0.66698381
0.65457492
0.64222004
0.629915
0.61765562
0.60543776
0.59325733
0.58111034
0.56899292
0.55690141
0.54483236
0.53278256
0.5207491
0.50872933
0.49672091
0.48472179
0.47273021
0.46074466
0.44876387
0.43678681
0.42481264
0.41284065
0.40087032
0.38890123
0.37693304
0.36496551
0.35299845
0.34103173
0.32906524
0.31709892
0.30513271
0.29316658
0.28120049
0.26923444
0.25726841
0.2453024
0.23333639
0.22137039
0.20940439
0.19743839
0.1854724
0.17350641
0.16154041
0.14957442
0.13760842
0.12564243
0.11367643
0.10171044
0.089744431
0.077778422
0.065812383
0.053846334
0.041880245
0.029914182
0.017948167
0.0059824885
1.4580597
1.4461064
1.423872
1.3935844
1.3597232
1.3257277
1.2930301
1.2620245
1.2329271
1.2059153
1.1809882
1.1579387
1.1364571
1.1162395
1.0970359
1.0786537
1.0609449
1.0437944
1.0271136
1.0108346
0.99490572
0.97928733
0.96394807
0.94886227
0.93400835
0.91936765
0.90492381
0.89066225
0.87656985
0.86263476
0.84884623
0.83519445
0.8216705
0.80826627
0.79497439
0.78178812
0.76870134
0.75570841
0.74280412
0.72998365
0.71724239
0.704576
0.6919802
0.67945085
0.6669838
0.65457491
0.64222003
0.62991499
0.61765562
0.60543776
0.59325733
0.58111033
0.56899292
0.55690141
0.54483236
0.53278256
0.5207491
0.50872932
0.49672091
0.48472179
0.47273021
0.46074465
0.44876387
0.43678681
0.42481264
0.41284065
0.40087032
0.38890123
0.37693304
0.36496551
0.35299845
0.34103173
0.32906525
0.31709892
0.30513271
0.29316658
0.28120049
0.26923444
0.25726841
0.2453024
0.23333639
0.22137039
0.20940439
0.19743839
0.1854724
0.17350641
0.16154041
0.14957442
0.13760842
0.12564243
0.11367643
0.10171044
0.089744431
0.077778422
0.065812383
0.053846334
0.041880245
0.029914182
0.017948167
0.0059824889
1.4707913
1.4552932
1.4284232
1.3944994
1.3586984
1.3237471
1.2904451
1.2590921
1.2299614
1.2031699
1.1785824
1.1558902
1.1347383
1.1148096
1.0958514
1.0776717
1.060126
1.043105
1.0265265
1.0103285
0.99446465
0.97889906
0.96360332
0.94855397
0.93373102
0.91911699
0.90469638
0.89045522
0.87638086
0.8624618
0.84868755
0.83504851
0.82153596
0.80814194
0.79485922
0.7816812
0.76860187
0.75561571
0.74271763
0.72990289
0.71716701
0.70450568
0.69191474
0.67939007
0.66692758
0.65452315
0.64217263
0.62987187
0.61761666
0.60540284
0.5932263
0.581083
0.56896907
0.55688081
0.54481475
0.53276766
0.52073663
0.50871901
0.49671246
0.48471495
0.47272474
0.46074033
0.44876049
0.4367842
0.42481064
0.41283915
0.4008692
0.3889004
0.37693244
0.36496507
0.35299814
0.34103151
0.3290651
0.31709882
0.30513264
0.29316653
0.28120046
0.26923442
0.2572684
0.24530239
0.23333638
0.22137038
0.20940439
0.19743839
0.1854724
0.17350641
0.16154041
0.14957442
0.13760842
0.12564243
0.11367644
0.10171044
0.08974444
0.077778437
0.06581241
0.053846376
0.041880308
0.029914262
0.017948249
0.0059825377
1.5001998
1.4740247
1.4356278
1.3944949
1.3554096
1.3188189
1.2845212
1.2528037
1.2239476
1.1978465
1.1740925
1.1522025
1.1317527
1.1124118
1.0939316
1.0761306
1.0588788
1.0420832
1.0256772
1.0096121
0.99385187
0.97836832
0.96313866
0.94814345
0.93336562
0.91878977
0.90440186
0.89018902
0.87613939
0.86224205
0.84848696
0.8348649
0.82136744
0.80798689
0.79471623
0.78154907
0.76847956
0.75550236
0.74261252
0.72980543
0.71707671
0.70442217
0.6918377
0.67931926
0.66686276
0.65446413
0.64211921
0.62982383
0.61757379
0.60536488
0.59319297
0.581054
0.56894407
0.55685947
0.54479671
0.53275257
0.52072413
0.50870877
0.49670417
0.48470831
0.47271948
0.46073621
0.4487573
0.43678176
0.42480879
0.41283776
0.40086817
0.38889965
0.37693189
0.36496469
0.35299787
0.34103132
0.32906496
0.31709873
0.30513258
0.29316649
0.28120044
0.2692344
0.25726839
0.24530238
0.23333638
0.22137038
0.20940439
0.19743839
0.1854724
0.17350641
0.16154041
0.14957442
0.13760843
0.12564243
0.11367644
0.10171045
0.089744453
0.077778459
0.065812449
0.053846439
0.041880405
0.029914392
0.017948392
0.0059826269
1.561021
1.5060919
1.4451395
1.3935718
1.3503017
1.3113334
1.2757471
1.2439745
1.2160136
1.1912357
1.1688339
1.1481325
1.1286509
1.1100629
1.0921493
1.0747645
1.0578127
1.0412314
1.0249787
1.0090253
0.99334838
0.97792899
0.96275035
0.94779699
0.93305438
0.91850881
0.90414735
0.88995785
0.87592898
0.8620502
0.84831178
0.83470475
0.82122091
0.80785275
0.79459341
0.78143666
0.76837678
0.75540853
0.74252707
0.72972785
0.71700655
0.70435902
0.69178116
0.67926895
0.66681832
0.65442516
0.64208533
0.62979464
0.61754887
0.60534383
0.59317536
0.58103944
0.56893216
0.55684984
0.54478902
0.53274651
0.52071941
0.50870514
0.49670141
0.48470625
0.47271795
0.46073509
0.4487565
0.43678119
0.42480839
0.41283749
0.40086799
0.38889953
0.37693181
0.36496464
0.35299784
0.3410313
0.32906495
0.31709872
0.30513258
0.29316649
0.28120044
0.2692344
0.25726839
0.24530238
0.23333638
0.22137038
0.20940439
0.19743839
0.1854724
0.17350641
0.16154041
0.14957442
0.13760843
0.12564244
0.11367644
0.10171045
0.089744463
0.077778474
0.065812479
0.053846488
0.041880491
0.029914515
0.017948545
0.0059827302
1.6782407
1.5571628
1.4611823
1.3975262
1.3490167
1.3065447
1.2690094
1.2368377
1.2094373
1.1855998
1.1642054
1.1444416
1.1257645
1.1078249
1.0904096
1.0733955
1.0567146
1.0403305
1.0242223
1.0083765
0.99278164
0.97742671
0.96230027
0.94739041
0.93268495
0.91817175
0.90383893
0.88967506
0.87566933
0.86181161
0.84809247
0.8345032
0.8210358
0.80768297
0.79443799
0.78129476
0.76824767
0.75529155
0.7424216
0.7296333
0.71692235
0.70428457
0.69171588
0.67921221
0.66676946
0.65438353
0.64205024
0.6297654
0.6175248
0.60532427
0.59315969
0.58102706
0.56892254
0.55684248
0.54478349
0.53274243
0.52071647
0.50870308
0.4967
0.48470532
0.47271737
0.46073475
0.44875631
0.43678111
0.42480838
0.41283751
0.40086803
0.38889957
0.37693185
0.36496467
0.35299787
0.34103133
0.32906497
0.31709874
0.30513259
0.2931665
0.28120044
0.26923441
0.25726839
0.24530238
0.23333638
0.22137038
0.20940439
0.19743839
0.1854724
0.17350641
0.16154041
0.14957442
0.13760843
0.12564244
0.11367644
0.10171046
0.089744465
0.077778477
0.065812487
0.053846503
0.041880524
0.029914567
0.017948632
0.0059827987
)
;

boundaryField
{
    top
    {
        type            zeroGradient;
    }
    inlet
    {
        type            zeroGradient;
    }
    outlet
    {
        type            fixedValue;
        value           uniform 0;
    }
    bottom
    {
        type            zeroGradient;
    }
    back
    {
        type            empty;
    }
    front
    {
        type            empty;
    }
}


// ************************************************************************* //
