/*--------------------------------*- C++ -*----------------------------------*\
| =========                 |                                                 |
| \\      /  F ield         | OpenFOAM: The Open Source CFD Toolbox           |
|  \\    /   O peration     | Version:  v1812                                 |
|   \\  /    A nd           | Web:      www.OpenFOAM.com                      |
|    \\/     M anipulation  |                                                 |
\*---------------------------------------------------------------------------*/
FoamFile
{
    version     2.0;
    format      ascii;
    class       volVectorField;
    location    "5";
    object      U;
}
// * * * * * * * * * * * * * * * * * * * * * * * * * * * * * * * * * * * * * //

dimensions      [0 1 -1 0 0 0 0];


internalField   nonuniform List<vector> 
1000
(
(0.91890839 0.035821913 0)
(0.86271384 0.062195638 0)
(0.7870597 0.06251009 0)
(0.69536033 0.054550395 0)
(0.61089745 0.044531651 0)
(0.54411592 0.034015971 0)
(0.49343012 0.024187539 0)
(0.45479413 0.016144229 0)
(0.42544582 0.010265784 0)
(0.40347313 0.0063041422 0)
(0.38715767 0.0037976249 0)
(0.3749622 0.002310332 0)
(0.36566193 0.0014930061 0)
(0.35836274 0.0010851048 0)
(0.3524427 0.00090605252 0)
(0.34748205 0.00084102465 0)
(0.34320354 0.00082368908 0)
(0.33942735 0.00081926593 0)
(0.33603806 0.00081179519 0)
(0.33296132 0.00079572787 0)
(0.33014804 0.00077071702 0)
(0.3275642 0.00073858957 0)
(0.3251847 0.00070173781 0)
(0.32298974 0.00066237119 0)
(0.32096275 0.00062224263 0)
(0.31908934 0.00058260826 0)
(0.31735668 0.00054428685 0)
(0.31575319 0.00050775141 0)
(0.3142684 0.00047322253 0)
(0.31289287 0.00044074893 0)
(0.31161809 0.00041027022 0)
(0.31043647 0.00038166183 0)
(0.30934125 0.00035476574 0)
(0.30832647 0.00032941176 0)
(0.30738689 0.00030543207 0)
(0.30651792 0.00028267177 0)
(0.30571554 0.0002609951 0)
(0.30497622 0.00024029043 0)
(0.30429683 0.00022047171 0)
(0.30367455 0.00020148042 0)
(0.30310678 0.00018328355 0)
(0.30259107 0.00016587277 0)
(0.30212502 0.00014925939 0)
(0.30170622 0.00013347127 0)
(0.30133224 0.00011854609 0)
(0.30100052 0.00010452717 0)
(0.30070844 9.1456609e-05 0)
(0.30045324 7.9371354e-05 0)
(0.3002321 6.8297941e-05 0)
(0.30004211 5.8250027e-05 0)
(0.29988034 4.9225833e-05 0)
(0.29974389 4.1207629e-05 0)
(0.29962989 3.4162049e-05 0)
(0.29953559 2.8041329e-05 0)
(0.29945837 2.2785869e-05 0)
(0.2993958 1.8326413e-05 0)
(0.29934562 1.4587692e-05 0)
(0.29930581 1.1490449e-05 0)
(0.29927457 8.9551931e-06 0)
(0.29925032 6.9043954e-06 0)
(0.29923171 5.2655585e-06 0)
(0.29921759 3.9715052e-06 0)
(0.29920699 2.9623294e-06 0)
(0.29919913 2.1847229e-06 0)
(0.29919336 1.5931209e-06 0)
(0.29918918 1.1483718e-06 0)
(0.29918618 8.1836943e-07 0)
(0.29918406 5.7635895e-07 0)
(0.29918258 4.0129209e-07 0)
(0.29918155 2.7604016e-07 0)
(0.29918085 1.8775064e-07 0)
(0.29918038 1.261125e-07 0)
(0.29918006 8.382341e-08 0)
(0.29917985 5.4974477e-08 0)
(0.29917972 3.5751072e-08 0)
(0.29917963 2.2896303e-08 0)
(0.29917958 1.463406e-08 0)
(0.29917954 9.1520972e-09 0)
(0.29917952 5.8149952e-09 0)
(0.29917951 3.5438784e-09 0)
(0.2991795 2.3263669e-09 0)
(0.29917949 1.3603931e-09 0)
(0.29917949 1.0208964e-09 0)
(0.29917949 5.4014117e-10 0)
(0.29917949 6.0764783e-10 0)
(0.29917949 2.7982982e-10 0)
(0.29917948 6.3670285e-10 0)
(0.29917948 4.0129583e-10 0)
(0.29917948 1.2159962e-09 0)
(0.29917948 1.2073908e-09 0)
(0.29917947 2.9134957e-09 0)
(0.29917948 3.5857843e-09 0)
(0.29917946 7.5510799e-09 0)
(0.29917946 1.1214181e-08 0)
(0.29917942 2.3485691e-08 0)
(0.29917941 4.1002127e-08 0)
(0.2991793 8.097037e-08 0)
(0.29917922 1.4004543e-07 0)
(0.29917883 2.4308652e-07 0)
(0.29917848 3.3241996e-07 0)
(1.0016583 0.05381943 0)
(1.0359761 0.10128444 0)
(1.0597199 0.11073663 0)
(1.0628947 0.10592202 0)
(1.0515569 0.096228729 0)
(1.0340529 0.083934061 0)
(1.0142795 0.070327063 0)
(0.99360702 0.056981333 0)
(0.97292576 0.045107478 0)
(0.95310739 0.035236748 0)
(0.93479538 0.027401646 0)
(0.91829012 0.021387221 0)
(0.9036238 0.016884489 0)
(0.89068069 0.013569694 0)
(0.87928178 0.011147725 0)
(0.86923249 0.009373623 0)
(0.86034435 0.0080568736 0)
(0.85244687 0.0070570448 0)
(0.84539273 0.0062751144 0)
(0.83905842 0.0056436444 0)
(0.83334202 0.005117817 0)
(0.82815999 0.0046682637 0)
(0.82344386 0.0042758111 0)
(0.81913725 0.0039278468 0)
(0.81519343 0.0036158988 0)
(0.81157323 0.0033340688 0)
(0.80824354 0.0030780455 0)
(0.80517606 0.0028444968 0)
(0.80234645 0.0026307036 0)
(0.79973359 0.0024343453 0)
(0.79731908 0.0022533807 0)
(0.79508687 0.0020859851 0)
(0.7930229 0.0019305165 0)
(0.79111488 0.0017855005 0)
(0.78935204 0.0016496248 0)
(0.78772498 0.0015217432 0)
(0.78622541 0.0014008802 0)
(0.78484609 0.001286236 0)
(0.78358054 0.001177187 0)
(0.78242296 0.0010732818 0)
(0.781368 0.00097423039 0)
(0.78041067 0.00087988912 0)
(0.77954614 0.00079023683 0)
(0.77876966 0.00070534867 0)
(0.77807645 0.00062536481 0)
(0.77746164 0.00055045964 0)
(0.77692022 0.00048081045 0)
(0.77644704 0.0004165701 0)
(0.7760368 0.00035784322 0)
(0.77568415 0.00030466898 0)
(0.77538368 0.00025700974 0)
(0.77513001 0.00021474667 0)
(0.7749179 0.00017768153 0)
(0.77474228 0.00014554368 0)
(0.77459833 0.00011800178 0)
(0.77448155 9.4677666e-05 0)
(0.77438782 7.5162551e-05 0)
(0.77431338 5.9031994e-05 0)
(0.77425492 4.5861488e-05 0)
(0.7742095 3.5239293e-05 0)
(0.77417461 2.6777934e-05 0)
(0.77414811 2.0120917e-05 0)
(0.77412821 1.4948642e-05 0)
(0.77411344 1.0979727e-05 0)
(0.77410261 7.9724152e-06 0)
(0.77409475 5.7219751e-06 0)
(0.77408912 4.0592615e-06 0)
(0.77408513 2.8459761e-06 0)
(0.77408234 1.9720435e-06 0)
(0.77408041 1.3502443e-06 0)
(0.7740791 9.1371329e-07 0)
(0.77407821 6.1087375e-07 0)
(0.77407762 4.037613e-07 0)
(0.77407723 2.6361328e-07 0)
(0.77407697 1.7033823e-07 0)
(0.77407681 1.0868354e-07 0)
(0.77407671 6.8870523e-08 0)
(0.77407664 4.3016959e-08 0)
(0.7740766 2.6974661e-08 0)
(0.77407658 1.6532148e-08 0)
(0.77407656 1.0545753e-08 0)
(0.77407655 6.3261495e-09 0)
(0.77407654 4.4433248e-09 0)
(0.77407655 2.5304282e-09 0)
(0.77407654 2.3959334e-09 0)
(0.77407654 1.2176663e-09 0)
(0.77407653 2.0848968e-09 0)
(0.77407654 1.1398456e-09 0)
(0.77407653 3.1564679e-09 0)
(0.77407654 2.6264227e-09 0)
(0.77407651 6.7128225e-09 0)
(0.77407655 7.7466779e-09 0)
(0.77407649 1.6544479e-08 0)
(0.77407655 2.4073019e-08 0)
(0.77407643 4.7339276e-08 0)
(0.77407653 8.1369465e-08 0)
(0.77407628 1.4874921e-07 0)
(0.77407646 2.5881447e-07 0)
(0.77407578 4.1021406e-07 0)
(0.77407627 6.2147243e-07 0)
(1.0014244 0.026824855 0)
(1.0291272 0.062791352 0)
(1.0654292 0.077736553 0)
(1.098962 0.080597201 0)
(1.1253149 0.078285172 0)
(1.145053 0.0731539 0)
(1.1594858 0.066111279 0)
(1.1694287 0.058162064 0)
(1.1755354 0.050296754 0)
(1.1785738 0.043150707 0)
(1.1793571 0.036972822 0)
(1.1785949 0.031771625 0)
(1.1768304 0.027451828 0)
(1.1744518 0.023886749 0)
(1.1717287 0.020947588 0)
(1.1688444 0.018515729 0)
(1.1659194 0.016488003 0)
(1.1630317 0.014779375 0)
(1.1602296 0.013322789 0)
(1.1575415 0.012066838 0)
(1.1549829 0.01097256 0)
(1.1525603 0.010010405 0)
(1.1502751 0.0091577683 0)
(1.1481253 0.0083971573 0)
(1.146107 0.0077148262 0)
(1.1442151 0.0070997872 0)
(1.142444 0.0065430914 0)
(1.1407876 0.006037314 0)
(1.1392399 0.0055761818 0)
(1.1377948 0.0051543042 0)
(1.1364465 0.0047669823 0)
(1.1351893 0.0044100769 0)
(1.134018 0.0040799173 0)
(1.1329274 0.0037732378 0)
(1.1319129 0.0034871376 0)
(1.1309701 0.0032190612 0)
(1.130095 0.0029667917 0)
(1.1292839 0.0027284522 0)
(1.1285335 0.0025025063 0)
(1.1278408 0.002287756 0)
(1.1272029 0.0020833318 0)
(1.1266174 0.0018886728 0)
(1.1260819 0.0017034956 0)
(1.1255943 0.001527751 0)
(1.1251524 0.001361573 0)
(1.124754 0.0012052197 0)
(1.1243971 0.0010590133 0)
(1.1240795 0.00092328027 0)
(1.1237988 0.00079829719 0)
(1.1235526 0.00068424537 0)
(1.1233386 0.00058117643 0)
(1.123154 0.00048899081 0)
(1.1229964 0.0004074292 0)
(1.122863 0.00033607667 0)
(1.1227513 0.00027437727 0)
(1.1226587 0.00022165736 0)
(1.1225827 0.00017715431 0)
(1.122521 0.00014004826 0)
(1.1224714 0.00010949403 0)
(1.1224321 8.4650101e-05 0)
(1.1224013 6.4704339e-05 0)
(1.1223773 4.8894164e-05 0)
(1.122359 3.6521864e-05 0)
(1.122345 2.696351e-05 0)
(1.1223346 1.9673837e-05 0)
(1.1223269 1.4185619e-05 0)
(1.1223212 1.0106992e-05 0)
(1.1223172 7.1148517e-06 0)
(1.1223143 4.9483274e-06 0)
(1.1223122 3.3997725e-06 0)
(1.1223108 2.307529e-06 0)
(1.1223098 1.5469826e-06 0)
(1.1223091 1.0246066e-06 0)
(1.1223087 6.7025499e-07 0)
(1.1223084 4.3340788e-07 0)
(1.1223082 2.7679913e-07 0)
(1.1223081 1.7510502e-07 0)
(1.122308 1.0936914e-07 0)
(1.1223079 6.8126714e-08 0)
(1.1223079 4.1766602e-08 0)
(1.1223079 2.6123375e-08 0)
(1.1223079 1.579186e-08 0)
(1.1223079 1.0498323e-08 0)
(1.1223079 6.2386725e-09 0)
(1.1223078 5.0944855e-09 0)
(1.1223079 2.9458468e-09 0)
(1.1223078 3.7015558e-09 0)
(1.1223079 2.3712253e-09 0)
(1.1223078 4.5413261e-09 0)
(1.1223079 4.2370215e-09 0)
(1.1223078 8.3740432e-09 0)
(1.1223079 1.1101416e-08 0)
(1.1223078 1.9558587e-08 0)
(1.1223079 3.269566e-08 0)
(1.1223077 5.4956603e-08 0)
(1.122308 1.0179204e-07 0)
(1.1223076 1.6353319e-07 0)
(1.1223081 2.8822466e-07 0)
(1.1223073 4.0903027e-07 0)
(1.1223084 6.0025452e-07 0)
(1.0007347 0.011814722 0)
(1.0178472 0.030860927 0)
(1.0462163 0.041434442 0)
(1.0799018 0.04519357 0)
(1.1132664 0.045502352 0)
(1.143782 0.044080309 0)
(1.1708941 0.041439983 0)
(1.1945687 0.037973679 0)
(1.2148582 0.03419573 0)
(1.2319652 0.030536887 0)
(1.2462683 0.027222044 0)
(1.2582339 0.024313917 0)
(1.2683135 0.021797881 0)
(1.2768874 0.019633645 0)
(1.2842553 0.0177738 0)
(1.2906478 0.016169606 0)
(1.2962429 0.014775516 0)
(1.3011789 0.013552181 0)
(1.3055642 0.012467684 0)
(1.3094834 0.011497195 0)
(1.3130035 0.010621758 0)
(1.3161783 0.0098269136 0)
(1.3190513 0.009101523 0)
(1.321659 0.0084368689 0)
(1.3240318 0.0078259912 0)
(1.3261959 0.0072631939 0)
(1.3281736 0.0067436898 0)
(1.3299842 0.0062633506 0)
(1.3316444 0.005818531 0)
(1.3331688 0.0054059469 0)
(1.3345699 0.0050225916 0)
(1.3358589 0.0046656863 0)
(1.3370451 0.0043326504 0)
(1.338137 0.0040210857 0)
(1.3391416 0.0037287717 0)
(1.3400651 0.0034536719 0)
(1.3409128 0.0031939479 0)
(1.3416894 0.0029479774 0)
(1.3423989 0.0027143725 0)
(1.3430449 0.0024919936 0)
(1.3436306 0.0022799584 0)
(1.3441592 0.0020776417 0)
(1.3446336 0.0018846645 0)
(1.3450566 0.0017008718 0)
(1.3454312 0.0015262997 0)
(1.3457604 0.0013611329 0)
(1.3460473 0.0012056564 0)
(1.3462952 0.0010602021 0)
(1.3465074 0.00092509764 0)
(1.3466872 0.00080061729 0)
(1.346838 0.00068694075 0)
(1.3469631 0.00058412136 0)
(1.3470657 0.00049206585 0)
(1.3471489 0.00041052585 0)
(1.3472155 0.00033910116 0)
(1.3472682 0.00027725338 0)
(1.3473094 0.00022432752 0)
(1.3473411 0.00017957964 0)
(1.3473652 0.00014220712 0)
(1.3473832 0.00011137954 0)
(1.3473966 8.6267584e-05 0)
(1.3474063 6.6068301e-05 0)
(1.3474133 5.0025758e-05 0)
(1.3474182 3.7445975e-05 0)
(1.3474216 2.7706995e-05 0)
(1.3474239 2.026326e-05 0)
(1.3474254 1.4646548e-05 0)
(1.3474264 1.0462462e-05 0)
(1.347427 7.385602e-06 0)
(1.3474274 5.1518029e-06 0)
(1.3474277 3.5510488e-06 0)
(1.3474278 2.4184788e-06 0)
(1.3474279 1.6277121e-06 0)
(1.3474279 1.082429e-06 0)
(1.3474279 7.1162116e-07 0)
(1.3474279 4.623074e-07 0)
(1.3474279 2.9733304e-07 0)
(1.3474279 1.8898554e-07 0)
(1.3474279 1.1942696e-07 0)
(1.3474279 7.4524817e-08 0)
(1.3474279 4.6845996e-08 0)
(1.3474279 2.8892518e-08 0)
(1.3474279 1.8691497e-08 0)
(1.3474279 1.1536304e-08 0)
(1.3474279 8.3665066e-09 0)
(1.3474279 5.3394587e-09 0)
(1.3474279 5.029896e-09 0)
(1.3474279 3.7760085e-09 0)
(1.3474279 4.8691332e-09 0)
(1.3474279 5.223036e-09 0)
(1.3474278 7.539131e-09 0)
(1.347428 1.1206846e-08 0)
(1.3474278 1.6158264e-08 0)
(1.347428 2.9357618e-08 0)
(1.3474278 4.4198819e-08 0)
(1.3474282 8.4123054e-08 0)
(1.3474277 1.2628881e-07 0)
(1.3474284 2.1784361e-07 0)
(1.3474275 2.9362227e-07 0)
(1.3474289 4.1384252e-07 0)
(1.0005903 0.0034629159 0)
(1.0136865 0.0093660199 0)
(1.0370283 0.013046806 0)
(1.0674202 0.014563262 0)
(1.1000315 0.014854526 0)
(1.1316428 0.014564992 0)
(1.1610745 0.01388834 0)
(1.1880674 0.012919247 0)
(1.2125204 0.011806509 0)
(1.2343939 0.01069643 0)
(1.2538077 0.0096727454 0)
(1.2710339 0.0087628253 0)
(1.2864009 0.0079659762 0)
(1.3002111 0.0072722155 0)
(1.3127101 0.0066688059 0)
(1.3240902 0.0061419162 0)
(1.3345034 0.0056780529 0)
(1.3440713 0.0052652857 0)
(1.3528922 0.0048938756 0)
(1.3610457 0.0045563005 0)
(1.3685965 0.0042469218 0)
(1.3755989 0.0039615493 0)
(1.382099 0.0036970546 0)
(1.3881371 0.0034510693 0)
(1.3937488 0.0032217599 0)
(1.3989663 0.0030076597 0)
(1.4038186 0.002807548 0)
(1.4083322 0.0026203667 0)
(1.4125313 0.0024451646 0)
(1.4164378 0.002281059 0)
(1.4200719 0.0021272131 0)
(1.4234517 0.0019828244 0)
(1.4265941 0.0018471203 0)
(1.429514 0.0017193578 0)
(1.432225 0.0015988272 0)
(1.4347393 0.0014848581 0)
(1.4370678 0.0013768295 0)
(1.4392204 0.0012741791 0)
(1.4412059 0.0011764148 0)
(1.4430323 0.0010831226 0)
(1.4447071 0.00099397427 0)
(1.4462371 0.00090873006 0)
(1.4476288 0.0008272395 0)
(1.4488887 0.00074943526 0)
(1.4500232 0.00067532502 0)
(1.4510387 0.00060497688 0)
(1.4519419 0.00053850379 0)
(1.4527396 0.00047604373 0)
(1.453439 0.00041774071 0)
(1.4540472 0.00036372501 0)
(1.4545719 0.00031409639 0)
(1.4550205 0.00026890932 0)
(1.4554007 0.00022816284 0)
(1.4557197 0.00019179478 0)
(1.4559849 0.00015968022 0)
(1.4562032 0.00013163495 0)
(1.456381 0.00010742168 0)
(1.4565243 8.6760366e-05 0)
(1.4566386 6.9338913e-05 0)
(1.4567287 5.4826332e-05 0)
(1.456799 4.2883955e-05 0)
(1.4568533 3.3177504e-05 0)
(1.4568947 2.5385684e-05 0)
(1.4569259 1.9208676e-05 0)
(1.4569492 1.4372601e-05 0)
(1.4569664 1.0633761e-05 0)
(1.4569789 7.7790927e-06 0)
(1.4569879 5.6268577e-06 0)
(1.4569943 4.0242527e-06 0)
(1.4569988 2.845911e-06 0)
(1.4570019 1.9901107e-06 0)
(1.4570041 1.3763764e-06 0)
(1.4570056 9.415305e-07 0)
(1.4570065 6.3729059e-07 0)
(1.4570072 4.2694141e-07 0)
(1.4570076 2.8328307e-07 0)
(1.4570079 1.86322e-07 0)
(1.457008 1.2159553e-07 0)
(1.4570081 7.8952217e-08 0)
(1.4570082 5.1031396e-08 0)
(1.4570083 3.3114804e-08 0)
(1.4570083 2.1493286e-08 0)
(1.4570083 1.4333952e-08 0)
(1.4570083 9.6128594e-09 0)
(1.4570083 6.9743095e-09 0)
(1.4570083 5.1068893e-09 0)
(1.4570083 4.3739767e-09 0)
(1.4570084 3.8306091e-09 0)
(1.4570083 3.9784488e-09 0)
(1.4570084 4.4358332e-09 0)
(1.4570083 5.127015e-09 0)
(1.4570084 7.0148277e-09 0)
(1.4570082 8.5136189e-09 0)
(1.4570085 1.4011955e-08 0)
(1.4570082 1.9118969e-08 0)
(1.4570087 3.4422386e-08 0)
(1.4570082 4.9288232e-08 0)
(1.4570089 8.1904081e-08 0)
(1.4570081 1.0716171e-07 0)
(1.4570096 1.4706409e-07 0)
(1.0005903 -0.0034629158 0)
(1.0136865 -0.0093660195 0)
(1.0370283 -0.013046806 0)
(1.0674202 -0.014563261 0)
(1.1000315 -0.014854523 0)
(1.1316428 -0.014564989 0)
(1.1610745 -0.013888336 0)
(1.1880674 -0.012919242 0)
(1.2125204 -0.011806502 0)
(1.2343939 -0.010696421 0)
(1.2538077 -0.0096727342 0)
(1.2710339 -0.0087628114 0)
(1.2864009 -0.0079659592 0)
(1.3002111 -0.0072721949 0)
(1.3127101 -0.0066687812 0)
(1.3240902 -0.0061418871 0)
(1.3345034 -0.0056780188 0)
(1.3440713 -0.0052652465 0)
(1.3528922 -0.0048938313 0)
(1.3610457 -0.0045562515 0)
(1.3685966 -0.0042468688 0)
(1.375599 -0.0039614938 0)
(1.3820991 -0.0036969985 0)
(1.3881371 -0.0034510152 0)
(1.3937488 -0.0032217106 0)
(1.3989663 -0.0030076187 0)
(1.4038186 -0.0028075185 0)
(1.4083323 -0.0026203521 0)
(1.4125313 -0.0024451675 0)
(1.4164378 -0.0022810816 0)
(1.4200719 -0.0021272568 0)
(1.4234518 -0.0019828897 0)
(1.4265941 -0.0018472064 0)
(1.429514 -0.001719463 0)
(1.432225 -0.0015989486 0)
(1.4347393 -0.0014849922 0)
(1.4370678 -0.0013769717 0)
(1.4392203 -0.0012743249 0)
(1.4412058 -0.0011765595 0)
(1.4430323 -0.0010832615 0)
(1.444707 -0.00099410327 0)
(1.446237 -0.00090884572 0)
(1.4476287 -0.00082733939 0)
(1.4488886 -0.00074951768 0)
(1.4500231 -0.00067538949 0)
(1.4510386 -0.00060502359 0)
(1.4519418 -0.000538534 0)
(1.4527395 -0.00047605907 0)
(1.4534388 -0.00041774358 0)
(1.4540471 -0.0003637179 0)
(1.4545718 -0.00031408173 0)
(1.4550204 -0.00026888931 0)
(1.4554006 -0.00022813938 0)
(1.4557196 -0.00019176936 0)
(1.4559849 -0.00015965383 0)
(1.4562031 -0.00013160819 0)
(1.4563809 -0.00010739472 0)
(1.4565242 -8.6733142e-05 0)
(1.4566385 -6.9311119e-05 0)
(1.4567286 -5.4797653e-05 0)
(1.456799 -4.2854056e-05 0)
(1.4568532 -3.3146173e-05 0)
(1.4568946 -2.5352852e-05 0)
(1.4569259 -1.9174414e-05 0)
(1.4569492 -1.4337198e-05 0)
(1.4569663 -1.0597555e-05 0)
(1.4569788 -7.7426269e-06 0)
(1.4569879 -5.5906006e-06 0)
(1.4569943 -3.9888355e-06 0)
(1.4569988 -2.8117584e-06 0)
(1.4570019 -1.9577645e-06 0)
(1.4570041 -1.346099e-06 0)
(1.4570055 -9.1369572e-07 0)
(1.4570065 -6.1194423e-07 0)
(1.4570071 -4.0425124e-07 0)
(1.4570076 -2.6310295e-07 0)
(1.4570078 -1.6866977e-07 0)
(1.457008 -1.0618292e-07 0)
(1.4570081 -6.5686743e-08 0)
(1.4570082 -3.9555279e-08 0)
(1.4570082 -2.3305632e-08 0)
(1.4570083 -1.2969096e-08 0)
(1.4570083 -6.9596882e-09 0)
(1.4570083 -3.0189343e-09 0)
(1.4570083 -1.0537504e-09 0)
(1.4570083 4.9711098e-10 0)
(1.4570083 1.0155316e-09 0)
(1.4570084 1.7105192e-09 0)
(1.4570083 1.7968161e-09 0)
(1.4570084 1.8630111e-09 0)
(1.4570082 1.5993402e-09 0)
(1.4570084 9.8795252e-11 0)
(1.4570082 -1.3538055e-09 0)
(1.4570085 -6.9421576e-09 0)
(1.4570082 -1.2241984e-08 0)
(1.4570087 -2.758088e-08 0)
(1.4570082 -4.2530382e-08 0)
(1.4570089 -7.5727247e-08 0)
(1.4570081 -1.020342e-07 0)
(1.4570096 -1.4279261e-07 0)
(1.0007347 -0.011814721 0)
(1.0178472 -0.030860926 0)
(1.0462163 -0.041434441 0)
(1.0799018 -0.045193569 0)
(1.1132664 -0.04550235 0)
(1.143782 -0.044080306 0)
(1.1708941 -0.041439979 0)
(1.1945687 -0.037973674 0)
(1.2148582 -0.034195724 0)
(1.2319652 -0.030536879 0)
(1.2462683 -0.027222034 0)
(1.2582339 -0.024313904 0)
(1.2683135 -0.021797865 0)
(1.2768875 -0.019633627 0)
(1.2842553 -0.017773778 0)
(1.2906478 -0.016169581 0)
(1.2962429 -0.014775486 0)
(1.301179 -0.013552147 0)
(1.3055642 -0.012467646 0)
(1.3094834 -0.011497153 0)
(1.3130036 -0.010621713 0)
(1.3161783 -0.0098268678 0)
(1.3190514 -0.0091014773 0)
(1.3216591 -0.0084368255 0)
(1.3240319 -0.0078259525 0)
(1.326196 -0.0072631624 0)
(1.3281737 -0.006743668 0)
(1.3299843 -0.0062633408 0)
(1.3316445 -0.0058185356 0)
(1.3331689 -0.0054059671 0)
(1.33457 -0.0050226284 0)
(1.335859 -0.0046657393 0)
(1.3370452 -0.0043327189 0)
(1.338137 -0.0040211677 0)
(1.3391416 -0.0037288652 0)
(1.340065 -0.0034537737 0)
(1.3409127 -0.0031940549 0)
(1.3416893 -0.0029480862 0)
(1.3423987 -0.0027144799 0)
(1.3430447 -0.0024920964 0)
(1.3436304 -0.0022800541 0)
(1.344159 -0.002077728 0)
(1.3446333 -0.0018847399 0)
(1.3450563 -0.0017009352 0)
(1.3454308 -0.0015263508 0)
(1.3457601 -0.0013611718 0)
(1.346047 -0.0012056838 0)
(1.3462949 -0.0010602192 0)
(1.3465071 -0.00092510571 0)
(1.3466869 -0.0008006177 0)
(1.3468378 -0.00068693495 0)
(1.3469629 -0.00058411078 0)
(1.3470655 -0.00049205161 0)
(1.3471487 -0.00041050896 0)
(1.3472153 -0.00033908222 0)
(1.347268 -0.00027723291 0)
(1.3473091 -0.00022430567 0)
(1.3473409 -0.0001795566 0)
(1.347365 -0.00014218276 0)
(1.347383 -0.00011135399 0)
(1.3473964 -8.6240688e-05 0)
(1.3474061 -6.6040296e-05 0)
(1.3474131 -4.9996607e-05 0)
(1.347418 -3.7416119e-05 0)
(1.3474214 -2.767655e-05 0)
(1.3474237 -2.0232824e-05 0)
(1.3474253 -1.4616305e-05 0)
(1.3474263 -1.0433068e-05 0)
(1.3474269 -7.3572141e-06 0)
(1.3474273 -5.1250156e-06 0)
(1.3474276 -3.5258898e-06 0)
(1.3474277 -2.395419e-06 0)
(1.3474278 -1.6066225e-06 0)
(1.3474278 -1.0636256e-06 0)
(1.3474279 -6.9481552e-07 0)
(1.3474279 -4.4769334e-07 0)
(1.3474279 -2.8451253e-07 0)
(1.3474279 -1.7806388e-07 0)
(1.3474279 -1.0993518e-07 0)
(1.3474279 -6.6536935e-08 0)
(1.3474279 -3.987682e-08 0)
(1.3474279 -2.3009534e-08 0)
(1.3474279 -1.3407932e-08 0)
(1.3474279 -6.9484202e-09 0)
(1.3474279 -4.0048909e-09 0)
(1.3474279 -1.3263179e-09 0)
(1.3474279 -8.8792984e-10 0)
(1.3474279 3.4724747e-10 0)
(1.3474279 -2.8113252e-10 0)
(1.3474279 -4.0478883e-10 0)
(1.3474278 -2.1647134e-09 0)
(1.347428 -5.7604195e-09 0)
(1.3474278 -1.0570672e-08 0)
(1.3474281 -2.4116852e-08 0)
(1.3474278 -3.9076641e-08 0)
(1.3474282 -7.9144555e-08 0)
(1.3474277 -1.2124865e-07 0)
(1.3474284 -2.131698e-07 0)
(1.3474276 -2.8952488e-07 0)
(1.3474289 -4.1022924e-07 0)
(1.0014244 -0.026824855 0)
(1.0291272 -0.062791352 0)
(1.0654292 -0.077736552 0)
(1.098962 -0.0805972 0)
(1.1253149 -0.07828517 0)
(1.145053 -0.073153898 0)
(1.1594858 -0.066111276 0)
(1.1694287 -0.05816206 0)
(1.1755354 -0.050296749 0)
(1.1785738 -0.0431507 0)
(1.1793571 -0.036972814 0)
(1.178595 -0.031771616 0)
(1.1768304 -0.027451817 0)
(1.1744518 -0.023886735 0)
(1.1717287 -0.020947573 0)
(1.1688444 -0.018515711 0)
(1.1659195 -0.016487982 0)
(1.1630317 -0.014779352 0)
(1.1602296 -0.013322764 0)
(1.1575416 -0.012066811 0)
(1.154983 -0.010972532 0)
(1.1525604 -0.010010376 0)
(1.1502752 -0.009157741 0)
(1.1481254 -0.0083971321 0)
(1.1461071 -0.0077148047 0)
(1.1442153 -0.0070997707 0)
(1.1424442 -0.0065430814 0)
(1.1407878 -0.0060373114 0)
(1.13924 -0.0055761877 0)
(1.137795 -0.0051543189 0)
(1.1364466 -0.0047670057 0)
(1.1351895 -0.0044101086 0)
(1.1340181 -0.0040799566 0)
(1.1329275 -0.0037732835 0)
(1.1319129 -0.0034871884 0)
(1.1309701 -0.0032191157 0)
(1.1300949 -0.0029668483 0)
(1.1292838 -0.0027285097 0)
(1.1285333 -0.002502563 0)
(1.1278405 -0.002287811 0)
(1.1272026 -0.0020833836 0)
(1.1266171 -0.0018887209 0)
(1.1260816 -0.0017035389 0)
(1.125594 -0.0015277894 0)
(1.125152 -0.0013616056 0)
(1.1247537 -0.0012052469 0)
(1.1243968 -0.0010590347 0)
(1.1240791 -0.00092329634 0)
(1.1237984 -0.00079830803 0)
(1.1235522 -0.00068425153 0)
(1.1233382 -0.00058117838 0)
(1.1231537 -0.00048898907 0)
(1.1229961 -0.00040742435 0)
(1.1228627 -0.00033606906 0)
(1.122751 -0.00027436747 0)
(1.1226584 -0.00022164553 0)
(1.1225824 -0.00017714095 0)
(1.1225207 -0.00014003342 0)
(1.1224712 -0.00010947813 0)
(1.1224319 -8.4633141e-05 0)
(1.122401 -6.4686734e-05 0)
(1.1223771 -4.8875919e-05 0)
(1.1223587 -3.6503393e-05 0)
(1.1223448 -2.694487e-05 0)
(1.1223344 -1.9655427e-05 0)
(1.1223267 -1.4167525e-05 0)
(1.1223211 -1.0089577e-05 0)
(1.122317 -7.0981991e-06 0)
(1.1223142 -4.9327229e-06 0)
(1.1223121 -3.3852478e-06 0)
(1.1223107 -2.2942824e-06 0)
(1.1223097 -1.5349802e-06 0)
(1.1223091 -1.0139464e-06 0)
(1.1223086 -6.6082849e-07 0)
(1.1223083 -4.2524263e-07 0)
(1.1223082 -2.6973557e-07 0)
(1.122308 -1.6911121e-07 0)
(1.122308 -1.0425067e-07 0)
(1.1223079 -6.3835725e-08 0)
(1.1223079 -3.8101189e-08 0)
(1.1223079 -2.3026231e-08 0)
(1.1223079 -1.3064111e-08 0)
(1.1223078 -8.1025707e-09 0)
(1.1223079 -3.9924852e-09 0)
(1.1223078 -2.9692743e-09 0)
(1.1223079 -7.7224664e-10 0)
(1.1223078 -1.4648066e-09 0)
(1.1223079 6.6741456e-11 0)
(1.1223078 -1.9046421e-09 0)
(1.1223079 -1.3041487e-09 0)
(1.1223078 -5.2456758e-09 0)
(1.1223079 -7.831705e-09 0)
(1.1223078 -1.6355934e-08 0)
(1.1223079 -2.9769019e-08 0)
(1.1223077 -5.2250617e-08 0)
(1.122308 -9.9082443e-08 0)
(1.1223076 -1.6069987e-07 0)
(1.1223081 -2.8562021e-07 0)
(1.1223073 -4.0694674e-07 0)
(1.1223084 -5.9841579e-07 0)
(1.0016583 -0.05381943 0)
(1.0359761 -0.10128444 0)
(1.0597199 -0.11073663 0)
(1.0628947 -0.10592202 0)
(1.0515569 -0.096228727 0)
(1.0340529 -0.08393406 0)
(1.0142795 -0.070327061 0)
(0.99360703 -0.056981331 0)
(0.97292577 -0.045107475 0)
(0.9531074 -0.035236744 0)
(0.9347954 -0.027401642 0)
(0.91829014 -0.021387216 0)
(0.90362382 -0.016884484 0)
(0.89068072 -0.013569688 0)
(0.87928182 -0.011147718 0)
(0.86923253 -0.0093736153 0)
(0.86034441 -0.0080568652 0)
(0.85244693 -0.0070570357 0)
(0.8453928 -0.0062751048 0)
(0.83905851 -0.0056436344 0)
(0.83334212 -0.0051178069 0)
(0.8281601 -0.0046682539 0)
(0.82344398 -0.0042758018 0)
(0.81913738 -0.0039278385 0)
(0.81519357 -0.0036158917 0)
(0.81157337 -0.0033340634 0)
(0.80824368 -0.003078042 0)
(0.8051762 -0.0028444955 0)
(0.80234659 -0.0026307046 0)
(0.79973371 -0.0024343487 0)
(0.79731919 -0.0022533865 0)
(0.79508695 -0.0020859931 0)
(0.79302296 -0.0019305267 0)
(0.79111491 -0.0017855125 0)
(0.78935205 -0.0016496385 0)
(0.78772494 -0.0015217581 0)
(0.78622535 -0.0014008962 0)
(0.78484599 -0.0012862527 0)
(0.78358041 -0.0011772042 0)
(0.78242279 -0.0010732988 0)
(0.7813678 -0.00097424727 0)
(0.78041044 -0.00087990529 0)
(0.77954588 -0.00079025212 0)
(0.77876938 -0.00070536261 0)
(0.77807615 -0.00062537728 0)
(0.77746133 -0.00055047036 0)
(0.7769199 -0.00048081938 0)
(0.77644671 -0.00041657713 0)
(0.77603647 -0.0003578484 0)
(0.77568382 -0.00030467242 0)
(0.77538335 -0.0002570116 0)
(0.7751297 -0.00021474719 0)
(0.77491759 -0.00017768084 0)
(0.77474198 -0.00014554205 0)
(0.77459805 -0.00011799932 0)
(0.77448129 -9.4674643e-05 0)
(0.77438757 -7.5158983e-05 0)
(0.77431316 -5.9028089e-05 0)
(0.7742547 -4.585722e-05 0)
(0.7742093 -3.5234826e-05 0)
(0.77417443 -2.6773213e-05 0)
(0.77414795 -2.0116091e-05 0)
(0.77412807 -1.4943676e-05 0)
(0.77411331 -1.0974761e-05 0)
(0.77410249 -7.9674276e-06 0)
(0.77409465 -5.7171092e-06 0)
(0.77408903 -4.0545207e-06 0)
(0.77408506 -2.8414816e-06 0)
(0.77408228 -1.9677866e-06 0)
(0.77408036 -1.3463307e-06 0)
(0.77407905 -9.1013031e-07 0)
(0.77407817 -6.0768528e-07 0)
(0.77407759 -4.0092119e-07 0)
(0.7740772 -2.6116382e-07 0)
(0.77407695 -1.6822473e-07 0)
(0.7740768 -1.0691299e-07 0)
(0.7740767 -6.736211e-08 0)
(0.77407664 -4.1774216e-08 0)
(0.7740766 -2.5922362e-08 0)
(0.77407658 -1.5656474e-08 0)
(0.77407656 -9.7591334e-09 0)
(0.77407656 -5.6270828e-09 0)
(0.77407655 -3.7622021e-09 0)
(0.77407655 -1.8596731e-09 0)
(0.77407654 -1.6632468e-09 0)
(0.77407655 -4.2997975e-10 0)
(0.77407654 -1.2026943e-09 0)
(0.77407655 -1.8825276e-10 0)
(0.77407654 -2.1778078e-09 0)
(0.77407656 -1.701375e-09 0)
(0.77407653 -5.892369e-09 0)
(0.77407656 -6.9817955e-09 0)
(0.7740765 -1.5726601e-08 0)
(0.77407656 -2.305219e-08 0)
(0.77407645 -4.5796142e-08 0)
(0.77407655 -7.9445957e-08 0)
(0.7740763 -1.4732342e-07 0)
(0.77407648 -2.5869151e-07 0)
(0.7740758 -4.1083088e-07 0)
(0.7740763 -6.2194356e-07 0)
(0.91890839 -0.035821913 0)
(0.86271384 -0.062195638 0)
(0.7870597 -0.06251009 0)
(0.69536033 -0.054550395 0)
(0.61089745 -0.044531651 0)
(0.54411592 -0.034015971 0)
(0.49343012 -0.024187538 0)
(0.45479414 -0.016144228 0)
(0.42544583 -0.010265783 0)
(0.40347314 -0.0063041412 0)
(0.38715768 -0.0037976239 0)
(0.37496221 -0.002310331 0)
(0.36566195 -0.0014930051 0)
(0.35836275 -0.0010851038 0)
(0.35244272 -0.00090605152 0)
(0.34748207 -0.00084102368 0)
(0.34320356 -0.0008236881 0)
(0.33942738 -0.00081926491 0)
(0.33603809 -0.00081179412 0)
(0.33296135 -0.00079572672 0)
(0.33014807 -0.00077071576 0)
(0.32756424 -0.00073858818 0)
(0.32518475 -0.00070173622 0)
(0.32298978 -0.00066236946 0)
(0.3209628 -0.00062224072 0)
(0.31908939 -0.00058260627 0)
(0.31735673 -0.00054428477 0)
(0.31575324 -0.00050774939 0)
(0.31426845 -0.00047322057 0)
(0.31289291 -0.00044074715 0)
(0.31161813 -0.00041026866 0)
(0.3104365 -0.00038166057 0)
(0.30934127 -0.00035476483 0)
(0.30832648 -0.00032941114 0)
(0.30738689 -0.00030543187 0)
(0.30651791 -0.00028267181 0)
(0.30571551 -0.00026099561 0)
(0.30497618 -0.00024029105 0)
(0.30429677 -0.00022047275 0)
(0.30367448 -0.0002014814 0)
(0.3031067 -0.00018328489 0)
(0.30259098 -0.00016587394 0)
(0.30212491 -0.00014926079 0)
(0.30170611 -0.00013347239 0)
(0.30133212 -0.00011854733 0)
(0.30100039 -0.00010452814 0)
(0.30070831 -9.1457615e-05 0)
(0.30045311 -7.9372149e-05 0)
(0.30023197 -6.8298714e-05 0)
(0.30004198 -5.8250718e-05 0)
(0.29988022 -4.9226494e-05 0)
(0.29974377 -4.1208331e-05 0)
(0.29962978 -3.4162695e-05 0)
(0.29953548 -2.8042105e-05 0)
(0.29945827 -2.2786571e-05 0)
(0.2993957 -1.8327277e-05 0)
(0.29934553 -1.4588426e-05 0)
(0.29930573 -1.1491327e-05 0)
(0.29927449 -8.9558838e-06 0)
(0.29925025 -6.9051751e-06 0)
(0.29923165 -5.2660902e-06 0)
(0.29921753 -3.9720839e-06 0)
(0.29920694 -2.9626469e-06 0)
(0.29919908 -2.1850618e-06 0)
(0.29919332 -1.5932049e-06 0)
(0.29918915 -1.1484915e-06 0)
(0.29918616 -8.182782e-07 0)
(0.29918404 -5.7632191e-07 0)
(0.29918256 -4.0108147e-07 0)
(0.29918154 -2.7592163e-07 0)
(0.29918084 -1.8750518e-07 0)
(0.29918037 -1.2597628e-07 0)
(0.29918006 -8.3579887e-08 0)
(0.29917985 -5.4862209e-08 0)
(0.29917972 -3.5551581e-08 0)
(0.29917963 -2.2822953e-08 0)
(0.29917958 -1.4467476e-08 0)
(0.29917954 -9.1143589e-09 0)
(0.29917952 -5.6843726e-09 0)
(0.29917951 -3.5225724e-09 0)
(0.2991795 -2.1938476e-09 0)
(0.2991795 -1.3335098e-09 0)
(0.29917949 -8.7817689e-10 0)
(0.29917949 -4.8297244e-10 0)
(0.29917949 -4.1168193e-10 0)
(0.29917949 -1.6979441e-10 0)
(0.29917949 -4.0795951e-10 0)
(0.29917949 -3.2508975e-10 0)
(0.29917949 -1.1533365e-09 0)
(0.29917949 -1.4507883e-09 0)
(0.29917948 -3.1762391e-09 0)
(0.29917948 -3.9375473e-09 0)
(0.29917946 -7.5218116e-09 0)
(0.29917947 -1.0547958e-08 0)
(0.29917943 -2.2042824e-08 0)
(0.29917942 -3.9779444e-08 0)
(0.29917931 -8.1036702e-08 0)
(0.29917923 -1.4131071e-07 0)
(0.29917883 -2.4444833e-07 0)
(0.29917849 -3.3323979e-07 0)
)
;

boundaryField
{
    top
    {
        type            fixedValue;
        value           uniform (0 0 0);
    }
    inlet
    {
        type            fixedValue;
        value           uniform (1 0 0);
    }
    outlet
    {
        type            zeroGradient;
    }
    bottom
    {
        type            fixedValue;
        value           uniform (0 0 0);
    }
    back
    {
        type            empty;
    }
    front
    {
        type            empty;
    }
}


// ************************************************************************* //
