/*--------------------------------*- C++ -*----------------------------------*\
| =========                 |                                                 |
| \\      /  F ield         | OpenFOAM: The Open Source CFD Toolbox           |
|  \\    /   O peration     | Version:  v1812                                 |
|   \\  /    A nd           | Web:      www.OpenFOAM.com                      |
|    \\/     M anipulation  |                                                 |
\*---------------------------------------------------------------------------*/
FoamFile
{
    version     2.0;
    format      ascii;
    class       volScalarField;
    location    "12";
    object      p;
}
// * * * * * * * * * * * * * * * * * * * * * * * * * * * * * * * * * * * * * //

dimensions      [0 2 -2 0 0 0 0];


internalField   nonuniform List<scalar> 
1000
(
1.5144366
1.4976679
1.4813202
1.4652702
1.4494119
1.4336797
1.4180372
1.4024639
1.3869469
1.3714762
1.3560434
1.3406419
1.3252667
1.3099146
1.2945828
1.2792695
1.2639727
1.248691
1.2334229
1.2181674
1.2029234
1.1876899
1.1724662
1.1572513
1.1420446
1.1268456
1.1116535
1.0964678
1.0812881
1.0661138
1.0509447
1.0357802
1.02062
1.0054638
0.99031124
0.97516208
0.96001605
0.94487289
0.92973238
0.91459431
0.89945848
0.88432471
0.86919283
0.85406269
0.83893414
0.82380705
0.80868129
0.79355675
0.77843333
0.76331093
0.74818945
0.73306882
0.71794896
0.70282979
0.68771124
0.67259327
0.65747581
0.64235881
0.62724222
0.612126
0.59701011
0.58189451
0.56677917
0.55166405
0.53654912
0.52143436
0.50631975
0.49120526
0.47609087
0.46097658
0.44586235
0.43074818
0.41563407
0.40051999
0.38540594
0.37029192
0.35517791
0.34006392
0.32494995
0.30983598
0.29472201
0.27960805
0.2644941
0.24938015
0.23426619
0.21915224
0.20403829
0.18892435
0.1738104
0.15869645
0.1435825
0.12846855
0.11335461
0.098240659
0.083126712
0.068012764
0.052898817
0.037784869
0.022670922
0.0075569737
1.5140913
1.4972895
1.4811976
1.465355
1.4495605
1.4338103
1.4181366
1.4025442
1.3870177
1.3715398
1.3560992
1.3406899
1.3253081
1.3099506
1.2946147
1.2792979
1.2639982
1.248714
1.2334437
1.2181863
1.2029406
1.1877056
1.1724804
1.1572643
1.1420566
1.1268565
1.1116635
1.0964769
1.0812964
1.0661215
1.0509517
1.0357866
1.0206258
1.0054691
0.99031612
0.97516654
0.96002011
0.94487659
0.92973574
0.91459736
0.89946125
0.88432721
0.86919509
0.85406473
0.83893598
0.8238087
0.80868277
0.79355808
0.77843452
0.76331199
0.74819039
0.73306965
0.71794969
0.70283042
0.6877118
0.67259376
0.65747623
0.64235917
0.62724253
0.61212626
0.59701033
0.58189469
0.56677932
0.55166417
0.53654922
0.52143444
0.50631981
0.49120531
0.47609091
0.4609766
0.44586237
0.4307482
0.41563408
0.40052
0.38540595
0.37029192
0.35517791
0.34006392
0.32494995
0.30983598
0.29472201
0.27960805
0.2644941
0.24938015
0.23426619
0.21915224
0.20403829
0.18892435
0.1738104
0.15869645
0.1435825
0.12846855
0.11335461
0.098240659
0.083126712
0.068012764
0.052898817
0.037784869
0.022670922
0.0075569737
1.5134827
1.4965368
1.4807923
1.4653086
1.4496751
1.4339324
1.4182198
1.4026013
1.3870677
1.3715892
1.3561459
1.3407308
1.3253427
1.30998
1.2946403
1.2793206
1.2640185
1.2487321
1.23346
1.2182009
1.2029538
1.1877176
1.1724913
1.1572742
1.1420656
1.1268647
1.111671
1.0964838
1.0813027
1.0661272
1.0509569
1.0357914
1.0206302
1.0054731
0.99031978
0.97516988
0.96002317
0.94487938
0.92973828
0.91459968
0.89946335
0.88432913
0.86919683
0.85406631
0.83893741
0.82380999
0.80868394
0.79355913
0.77843546
0.76331283
0.74819115
0.73307033
0.71795029
0.70283096
0.68771227
0.67259417
0.65747659
0.64235949
0.62724281
0.6121265
0.59701054
0.58189487
0.56677947
0.55166429
0.53654932
0.52143453
0.50631988
0.49120537
0.47609096
0.46097664
0.4458624
0.43074822
0.41563409
0.40052001
0.38540596
0.37029193
0.35517792
0.34006393
0.32494995
0.30983598
0.29472201
0.27960805
0.2644941
0.24938015
0.23426619
0.21915224
0.20403829
0.18892435
0.1738104
0.15869645
0.1435825
0.12846855
0.11335461
0.09824066
0.083126712
0.068012764
0.052898817
0.037784869
0.022670921
0.0075569735
1.5128911
1.495744
1.4802943
1.4651841
1.4497537
1.4340456
1.4183005
1.4026547
1.3871147
1.3716386
1.3561953
1.3407757
1.3253811
1.3100127
1.2946687
1.2793458
1.264041
1.2487522
1.2334779
1.218217
1.2029683
1.1877307
1.1725032
1.1572851
1.1420755
1.1268737
1.1116792
1.0964913
1.0813096
1.0661336
1.0509627
1.0357967
1.0206351
1.0054776
0.99032392
0.97517368
0.96002665
0.94488258
0.92974122
0.91460237
0.89946582
0.88433138
0.8691989
0.85406819
0.83893913
0.82381156
0.80868537
0.79356043
0.77843665
0.76331391
0.74819212
0.73307121
0.71795108
0.70283167
0.68771292
0.67259475
0.65747711
0.64235995
0.62724321
0.61212686
0.59701085
0.58189515
0.56677971
0.5516645
0.53654951
0.52143468
0.50632001
0.49120548
0.47609105
0.46097672
0.44586246
0.43074827
0.41563414
0.40052004
0.38540598
0.37029195
0.35517794
0.34006394
0.32494996
0.30983599
0.29472202
0.27960806
0.2644941
0.24938015
0.2342662
0.21915224
0.2040383
0.18892435
0.1738104
0.15869645
0.1435825
0.12846855
0.11335461
0.09824066
0.083126712
0.068012764
0.052898817
0.037784869
0.022670921
0.0075569733
1.5125408
1.4952555
1.4799668
1.465086
1.4497931
1.4341155
1.4183525
1.402689
1.3871448
1.3716711
1.3562288
1.3408069
1.3254083
1.3100361
1.2946893
1.2793642
1.2640575
1.2487671
1.2334913
1.2182291
1.2029792
1.1877406
1.1725123
1.1572934
1.1420831
1.1268807
1.1116856
1.0964972
1.081315
1.0661385
1.0509673
1.0358009
1.020639
1.0054812
0.99032719
0.97517669
0.96002942
0.94488512
0.92974356
0.91460451
0.89946779
0.88433319
0.86920056
0.85406971
0.83894052
0.82381284
0.80868653
0.7935615
0.77843762
0.76331479
0.74819293
0.73307194
0.71795175
0.70283228
0.68771346
0.67259524
0.65747755
0.64236034
0.62724357
0.61212718
0.59701113
0.5818954
0.56677993
0.55166469
0.53654967
0.52143483
0.50632014
0.49120558
0.47609114
0.46097679
0.44586252
0.43074832
0.41563418
0.40052007
0.38540601
0.37029197
0.35517795
0.34006395
0.32494997
0.30983599
0.29472202
0.27960806
0.2644941
0.24938015
0.2342662
0.21915225
0.2040383
0.18892435
0.1738104
0.15869645
0.1435825
0.12846855
0.11335461
0.09824066
0.083126712
0.068012764
0.052898817
0.037784869
0.022670921
0.0075569733
1.5125408
1.4952555
1.4799668
1.465086
1.4497931
1.4341155
1.4183525
1.402689
1.3871448
1.3716711
1.3562288
1.3408069
1.3254083
1.3100362
1.2946893
1.2793642
1.2640575
1.2487671
1.2334913
1.2182291
1.2029792
1.1877406
1.1725123
1.1572934
1.1420831
1.1268807
1.1116856
1.0964972
1.081315
1.0661385
1.0509673
1.0358009
1.020639
1.0054812
0.99032719
0.97517669
0.96002942
0.94488512
0.92974356
0.91460451
0.89946779
0.88433319
0.86920055
0.85406971
0.83894052
0.82381284
0.80868653
0.7935615
0.77843762
0.76331479
0.74819293
0.73307194
0.71795175
0.70283228
0.68771346
0.67259524
0.65747755
0.64236034
0.62724357
0.61212718
0.59701113
0.5818954
0.56677993
0.55166469
0.53654967
0.52143483
0.50632014
0.49120558
0.47609114
0.46097679
0.44586252
0.43074832
0.41563418
0.40052007
0.38540601
0.37029197
0.35517795
0.34006395
0.32494997
0.30983599
0.29472202
0.27960806
0.2644941
0.24938015
0.2342662
0.21915225
0.2040383
0.18892435
0.1738104
0.15869645
0.1435825
0.12846855
0.11335461
0.09824066
0.083126712
0.068012765
0.052898817
0.037784869
0.022670922
0.0075569737
1.5128911
1.495744
1.4802943
1.4651841
1.4497537
1.4340455
1.4183005
1.4026547
1.3871147
1.3716386
1.3561953
1.3407757
1.3253811
1.3100127
1.2946687
1.2793458
1.264041
1.2487522
1.2334779
1.218217
1.2029683
1.1877307
1.1725032
1.1572851
1.1420755
1.1268737
1.1116792
1.0964913
1.0813096
1.0661336
1.0509627
1.0357967
1.0206351
1.0054776
0.99032392
0.97517368
0.96002665
0.94488257
0.92974122
0.91460236
0.89946581
0.88433138
0.86919889
0.85406819
0.83893912
0.82381156
0.80868537
0.79356043
0.77843664
0.76331391
0.74819212
0.73307121
0.71795108
0.70283167
0.68771292
0.67259475
0.65747711
0.64235995
0.62724321
0.61212686
0.59701086
0.58189515
0.56677971
0.5516645
0.53654951
0.52143468
0.50632002
0.49120548
0.47609105
0.46097672
0.44586246
0.43074827
0.41563414
0.40052004
0.38540598
0.37029195
0.35517794
0.34006394
0.32494996
0.30983599
0.29472202
0.27960806
0.2644941
0.24938015
0.2342662
0.21915225
0.2040383
0.18892435
0.1738104
0.15869645
0.1435825
0.12846855
0.11335461
0.09824066
0.083126712
0.068012765
0.052898817
0.03778487
0.022670922
0.007556974
1.5134827
1.4965368
1.4807923
1.4653086
1.4496751
1.4339324
1.4182198
1.4026012
1.3870677
1.3715892
1.3561459
1.3407308
1.3253427
1.30998
1.2946403
1.2793207
1.2640185
1.2487321
1.23346
1.2182009
1.2029538
1.1877176
1.1724913
1.1572742
1.1420656
1.1268647
1.111671
1.0964838
1.0813027
1.0661272
1.0509569
1.0357914
1.0206302
1.0054731
0.99031978
0.97516988
0.96002316
0.94487937
0.92973828
0.91459967
0.89946335
0.88432913
0.86919683
0.8540663
0.8389374
0.82380999
0.80868394
0.79355913
0.77843546
0.76331283
0.74819115
0.73307033
0.71795029
0.70283096
0.68771227
0.67259417
0.65747659
0.64235949
0.62724281
0.6121265
0.59701054
0.58189487
0.56677947
0.55166429
0.53654932
0.52143453
0.50631988
0.49120537
0.47609096
0.46097664
0.4458624
0.43074822
0.4156341
0.40052001
0.38540596
0.37029193
0.35517792
0.34006393
0.32494995
0.30983598
0.29472201
0.27960806
0.2644941
0.24938015
0.23426619
0.21915224
0.2040383
0.18892435
0.1738104
0.15869645
0.1435825
0.12846855
0.11335461
0.09824066
0.083126712
0.068012765
0.052898817
0.03778487
0.022670923
0.0075569742
1.5140913
1.4972895
1.4811976
1.465355
1.4495605
1.4338103
1.4181365
1.4025442
1.3870177
1.3715398
1.3560992
1.3406899
1.3253081
1.3099506
1.2946147
1.2792979
1.2639982
1.248714
1.2334437
1.2181863
1.2029406
1.1877056
1.1724805
1.1572644
1.1420566
1.1268565
1.1116635
1.0964769
1.0812964
1.0661215
1.0509517
1.0357866
1.0206258
1.0054691
0.99031612
0.97516653
0.96002011
0.94487658
0.92973574
0.91459736
0.89946124
0.88432721
0.86919509
0.85406473
0.83893598
0.8238087
0.80868277
0.79355808
0.77843452
0.76331199
0.74819039
0.73306965
0.71794968
0.70283042
0.6877118
0.67259376
0.65747623
0.64235917
0.62724253
0.61212626
0.59701033
0.5818947
0.56677932
0.55166417
0.53654922
0.52143444
0.50631981
0.49120531
0.47609091
0.46097661
0.44586237
0.4307482
0.41563408
0.40052
0.38540595
0.37029192
0.35517792
0.34006393
0.32494995
0.30983598
0.29472201
0.27960805
0.2644941
0.24938015
0.23426619
0.21915224
0.2040383
0.18892435
0.1738104
0.15869645
0.1435825
0.12846855
0.11335461
0.09824066
0.083126712
0.068012765
0.052898817
0.03778487
0.022670922
0.0075569741
1.5144366
1.4976679
1.4813202
1.4652702
1.4494119
1.4336797
1.4180371
1.4024638
1.3869469
1.3714762
1.3560434
1.3406419
1.3252667
1.3099146
1.2945829
1.2792695
1.2639727
1.248691
1.233423
1.2181675
1.2029234
1.18769
1.1724662
1.1572513
1.1420446
1.1268456
1.1116535
1.0964678
1.0812881
1.0661138
1.0509447
1.0357802
1.02062
1.0054638
0.99031123
0.97516208
0.96001605
0.94487289
0.92973238
0.91459431
0.89945848
0.88432471
0.86919283
0.85406268
0.83893413
0.82380704
0.80868129
0.79355675
0.77843333
0.76331093
0.74818945
0.73306882
0.71794896
0.70282979
0.68771124
0.67259327
0.65747581
0.64235881
0.62724222
0.61212601
0.59701011
0.58189451
0.56677917
0.55166405
0.53654912
0.52143436
0.50631975
0.49120526
0.47609087
0.46097658
0.44586235
0.43074818
0.41563407
0.40051999
0.38540594
0.37029192
0.35517791
0.34006392
0.32494995
0.30983598
0.29472201
0.27960805
0.2644941
0.24938015
0.23426619
0.21915224
0.2040383
0.18892435
0.1738104
0.15869645
0.1435825
0.12846855
0.11335461
0.09824066
0.083126712
0.068012765
0.052898817
0.03778487
0.022670922
0.007556974
)
;

boundaryField
{
    top
    {
        type            zeroGradient;
    }
    inlet
    {
        type            fixedValue;
        value           uniform 1.523;
    }
    outlet
    {
        type            fixedValue;
        value           uniform 0;
    }
    bottom
    {
        type            zeroGradient;
    }
    back
    {
        type            empty;
    }
    front
    {
        type            empty;
    }
}


// ************************************************************************* //
