/*--------------------------------*- C++ -*----------------------------------*\
| =========                 |                                                 |
| \\      /  F ield         | OpenFOAM: The Open Source CFD Toolbox           |
|  \\    /   O peration     | Version:  v1812                                 |
|   \\  /    A nd           | Web:      www.OpenFOAM.com                      |
|    \\/     M anipulation  |                                                 |
\*---------------------------------------------------------------------------*/
FoamFile
{
    version     2.0;
    format      ascii;
    class       surfaceScalarField;
    location    "12";
    object      phi;
}
// * * * * * * * * * * * * * * * * * * * * * * * * * * * * * * * * * * * * * //

dimensions      [0 3 -1 0 0 0 0];
oriented        oriented;


internalField   nonuniform List<scalar> 
1890
(
0.0029128764
2.7196488e-06
0.0029038644
9.0127079e-06
0.0028929519
1.0912348e-05
0.0028832455
9.7057988e-06
0.0028756217
7.6231069e-06
0.0028696835
5.9376065e-06
0.0028648394
4.8435459e-06
0.0028607217
4.1171517e-06
0.0028571664
3.5549219e-06
0.0028540907
3.0752793e-06
0.0028514219
2.668546e-06
0.002849085
2.3367105e-06
0.002847014
2.0707355e-06
0.0028451597
1.854166e-06
0.0028434877
1.6719172e-06
0.0028419734
1.5141901e-06
0.0028405976
1.3756271e-06
0.0028393445
1.2530591e-06
0.0028382004
1.1440505e-06
0.0028371539
1.0464683e-06
0.0028361954
9.5853287e-07
0.0028353165
8.7885615e-07
0.0028345101
8.0638438e-07
0.0028337698
7.4028068e-07
0.00283309
6.7985123e-07
0.0028324655
6.2449628e-07
0.0028318918
5.7370177e-07
0.0028313648
5.2702058e-07
0.0028308808
4.8406947e-07
0.0028304363
4.4451022e-07
0.0028300283
4.080483e-07
0.0028296539
3.7441868e-07
0.0028293105
3.4338833e-07
0.0028289958
3.1474509e-07
0.0028287075
2.883013e-07
0.0028284437
2.6388414e-07
0.0028282024
2.4133987e-07
0.0028279819
2.2052544e-07
0.0028277806
2.0131299e-07
0.0028275971
1.8358253e-07
0.0028274299
1.6722647e-07
0.0028272778
1.5214309e-07
0.0028271396
1.3824094e-07
0.0028270142
1.2543306e-07
0.0028269006
1.136411e-07
0.0028267978
1.0279024e-07
0.0028267051
9.2813042e-08
0.0028266215
8.364488e-08
0.0028265463
7.5227616e-08
0.0028264788
6.7505506e-08
0.0028264184
6.0428562e-08
0.0028263645
5.3948951e-08
0.0028263165
4.8024032e-08
0.0028262739
4.2613133e-08
0.0028262363
3.7680224e-08
0.0028262031
3.3191033e-08
0.002826174
2.9115323e-08
0.0028261486
2.5424272e-08
0.0028261265
2.2092351e-08
0.0028261075
1.9095009e-08
0.0028260911
1.6410172e-08
0.0028260771
1.4016246e-08
0.0028260652
1.1893322e-08
0.0028260552
1.0021579e-08
0.0028260469
8.3822607e-09
0.0028260399
6.9565035e-09
0.0028260342
5.7261579e-09
0.0028260295
4.6730365e-09
0.0028260258
3.7795966e-09
0.0028260228
3.028543e-09
0.0028260204
2.4033692e-09
0.0028260185
1.8882106e-09
0.002826017
1.4682101e-09
0.0028260159
1.1295172e-09
0.0028260151
8.5947652e-10
0.0028260144
6.4668223e-10
0.0028260139
4.8101865e-10
0.0028260136
3.5365003e-10
0.0028260134
2.5695904e-10
0.0028260132
1.8451689e-10
0.002826013
1.3096029e-10
0.002826013
9.1896287e-11
0.0028260129
6.3800009e-11
0.0028260129
4.3847911e-11
0.0028260128
2.9896047e-11
0.0028260128
2.0212897e-11
0.0028260128
1.3626361e-11
0.0028260128
9.0919626e-12
0.0028260128
6.0963261e-12
0.0028260128
3.9578631e-12
0.0028260128
2.6265258e-12
0.0028260128
1.5603635e-12
0.0028260128
1.0556628e-12
0.0028260128
6.2061157e-13
0.0028260128
7.719978e-13
0.0028260128
1.2709497e-12
0.0028260127
2.5694603e-12
0.0028260127
5.4919161e-12
0.0028260127
9.1969179e-12
1.775172e-11
0.0071632926
2.9316393e-06
0.0071598488
1.2457462e-05
0.0071535088
1.7252449e-05
0.0071461066
1.710744e-05
0.007138892
1.4836982e-05
0.0071322001
1.2629017e-05
0.0071259936
1.1049565e-05
0.0071202237
9.8866752e-06
0.0071149009
8.8774059e-06
0.0071100461
7.9297071e-06
0.00710565
7.064424e-06
0.0071016742
6.3122657e-06
0.007098071
5.673724e-06
0.0070947967
5.1283432e-06
0.007091815
4.6535401e-06
0.0070890954
4.2336795e-06
0.0070866113
3.8595995e-06
0.0070843391
3.5252095e-06
0.0070822578
3.225297e-06
0.0070803492
2.9550767e-06
0.0070785973
2.7104122e-06
0.0070769881
2.4879646e-06
0.0070755094
2.2850772e-06
0.0070741501
2.0995851e-06
0.0070729003
1.9296524e-06
0.0070717511
1.7736994e-06
0.0070706945
1.6303533e-06
0.0070697231
1.4984282e-06
0.0070688303
1.376887e-06
0.00706801
1.2648229e-06
0.0070672566
1.1614291e-06
0.0070665651
1.0659898e-06
0.0070659306
9.7786016e-07
0.0070653489
8.964631e-07
0.007064816
8.2127397e-07
0.0070643281
7.5181956e-07
0.0070638818
6.8766593e-07
0.0070634739
6.2841922e-07
0.0070631015
5.7371579e-07
0.0070627619
5.2322384e-07
0.0070624525
4.7663531e-07
0.007062171
4.336681e-07
0.0070619152
3.9405913e-07
0.0070616831
3.5756665e-07
0.0070614728
3.239645e-07
0.0070612826
2.9304448e-07
0.0070611108
2.6461141e-07
0.007060956
2.3848546e-07
0.0070608168
2.1449801e-07
0.0070606918
1.924939e-07
0.00706058
1.7232793e-07
0.0070604801
1.5386687e-07
0.0070603911
1.3698649e-07
0.0070603122
1.2157338e-07
0.0070602424
1.0752223e-07
0.0070601809
9.473725e-08
0.0070601269
8.3129709e-08
0.0070600797
7.2618857e-08
0.0070600387
6.312966e-08
0.0070600032
5.4593201e-08
0.0070599727
4.6944682e-08
0.0070599466
4.0123494e-08
0.0070599244
3.4071581e-08
0.0070599057
2.8733373e-08
0.0070598901
2.4054674e-08
0.0070598771
1.9982672e-08
0.0070598663
1.646541e-08
0.0070598576
1.3451955e-08
0.0070598505
1.0892421e-08
0.0070598448
8.738279e-09
0.0070598403
6.9427527e-09
0.0070598367
5.4611539e-09
0.0070598339
4.2514295e-09
0.0070598318
3.2743852e-09
0.0070598302
2.4941857e-09
0.0070598289
1.8783632e-09
0.007059828
1.3981653e-09
0.0070598274
1.0282865e-09
0.0070598269
7.4706344e-10
0.0070598265
5.3597105e-10
0.0070598263
3.7973302e-10
0.0070598261
2.6559826e-10
0.007059826
1.835085e-10
0.0070598259
1.2519246e-10
0.0070598259
8.4528185e-11
0.0070598258
5.6400402e-11
0.0070598258
3.7443933e-11
0.0070598258
2.4563894e-11
0.0070598258
1.6244991e-11
0.0070598258
1.053046e-11
0.0070598258
7.101667e-12
0.0070598258
4.5706855e-12
0.0070598258
3.3614242e-12
0.0070598257
2.4874031e-12
0.0070598257
2.5939158e-12
0.0070598257
3.5917946e-12
0.0070598257
5.3043959e-12
0.0070598257
1.02867e-11
0.0070598257
1.419941e-11
2.4102e-11
0.010076558
2.0910669e-06
0.010078739
1.0277276e-05
0.010080584
1.540724e-05
0.010081436
1.62553e-05
0.010081529
1.4742959e-05
0.010081126
1.3031222e-05
0.010080359
1.1816691e-05
0.010079307
1.0937966e-05
0.010078059
1.0125188e-05
0.0100767
9.2881136e-06
0.010075296
8.4683382e-06
0.010073889
7.7198377e-06
0.010072503
7.0592096e-06
0.010071157
6.4745732e-06
0.010069862
5.9483645e-06
0.010068626
5.4690431e-06
0.010067455
5.0310141e-06
0.010066349
4.6308838e-06
0.010065309
4.2652287e-06
0.010064334
3.9303677e-06
0.010063421
3.6228755e-06
0.010062569
3.3398842e-06
0.010061775
3.079056e-06
0.010061036
2.8384107e-06
0.01006035
2.6162045e-06
0.010059713
2.4108699e-06
0.010059122
2.2210051e-06
0.010058575
2.0453549e-06
0.010058069
1.8827984e-06
0.010057602
1.732323e-06
0.01005717
1.5930129e-06
0.010056772
1.4640312e-06
0.010056405
1.344616e-06
0.010056068
1.2340669e-06
0.010055757
1.1317432e-06
0.010055472
1.0370529e-06
0.01005521
9.4945235e-07
0.01005497
8.6843661e-07
0.010054751
7.935406e-07
0.010054549
7.24331e-07
0.010054366
6.6040765e-07
0.010054198
6.0139673e-07
0.010054045
5.4695235e-07
0.010053906
4.9675069e-07
0.010053779
4.5049181e-07
0.010053665
4.0789453e-07
0.010053561
3.6869821e-07
0.010053466
3.3265845e-07
0.010053381
2.9954893e-07
0.010053305
2.6915763e-07
0.010053236
2.4128865e-07
0.010053174
2.1575894e-07
0.010053119
1.9240006e-07
0.010053069
1.7105527e-07
0.010053025
1.5158097e-07
0.010052986
1.3384406e-07
0.010052951
1.1772298e-07
0.010052921
1.0310522e-07
0.010052894
8.9887808e-08
0.010052871
7.797492e-08
0.010052851
6.7278024e-08
0.010052833
5.7713626e-08
0.010052818
4.9203156e-08
0.010052805
4.1671118e-08
0.010052794
3.5045004e-08
0.010052785
2.9254009e-08
0.010052777
2.4229111e-08
0.01005277
1.9902487e-08
0.010052765
1.6207868e-08
0.010052761
1.308055e-08
0.010052757
1.045793e-08
0.010052755
8.2799135e-09
0.010052752
6.4894843e-09
0.010052751
5.0332257e-09
0.010052749
3.8617321e-09
0.010052748
2.9300095e-09
0.010052747
2.1976471e-09
0.010052747
1.6289355e-09
0.010052746
1.1927995e-09
0.010052746
8.6259649e-10
0.010052746
6.1591868e-10
0.010052746
4.3408816e-10
0.010052745
3.0199385e-10
0.010052745
2.0731142e-10
0.010052745
1.4056447e-10
0.010052745
9.4049895e-11
0.010052745
6.2327601e-11
0.010052745
4.0756272e-11
0.010052745
2.6614694e-11
0.010052745
1.7098655e-11
0.010052745
1.1214473e-11
0.010052745
7.2064406e-12
0.010052745
5.0343331e-12
0.010052745
3.746363e-12
0.010052745
3.3490411e-12
0.010052745
4.2629143e-12
0.010052745
4.9447594e-12
0.010052745
9.2204243e-12
0.010052745
1.0418557e-11
1.7530021e-11
0.011880357
1.0492401e-06
0.011885064
5.5708569e-06
0.011891759
8.7115724e-06
0.011898514
9.4996405e-06
0.011904457
8.7993665e-06
0.011909594
7.8931259e-06
0.011914142
7.2691466e-06
0.011918234
6.8451158e-06
0.011921914
6.4450229e-06
0.011925198
6.0039188e-06
0.011928116
5.549993e-06
0.011930713
5.1232247e-06
0.011933033
4.7389332e-06
0.011935115
4.39232e-06
0.011936989
4.073871e-06
0.01193868
3.7777723e-06
0.011940209
3.5020074e-06
0.011941594
3.2458021e-06
0.011942851
3.008068e-06
0.011943995
2.7873115e-06
0.011945035
2.5820136e-06
0.011945984
2.3909031e-06
0.01194685
2.212937e-06
0.011947642
2.0472273e-06
0.011948365
1.8929487e-06
0.011949026
1.7493382e-06
0.011949632
1.6156746e-06
0.011950186
1.4913021e-06
0.011950693
1.3756043e-06
0.011951157
1.2680188e-06
0.011951582
1.1680105e-06
0.011951971
1.0750883e-06
0.011952327
9.8878307e-07
0.011952652
9.0866428e-07
0.01195295
8.3432005e-07
0.011953222
7.6537285e-07
0.01195347
7.0146059e-07
0.011953696
6.4225167e-07
0.011953902
5.8742757e-07
0.01195409
5.366971e-07
0.01195426
4.897802e-07
0.011954415
4.4642114e-07
0.011954556
4.0637373e-07
0.011954683
3.6941353e-07
0.011954798
3.3532429e-07
0.011954902
3.039091e-07
0.011954996
2.7497813e-07
0.01195508
2.4835898e-07
0.011955156
2.2388561e-07
0.011955224
2.0140748e-07
0.011955284
1.8077987e-07
0.011955338
1.6187218e-07
0.011955386
1.4455923e-07
0.011955429
1.2872855e-07
0.011955466
1.1427278e-07
0.011955499
1.0109596e-07
0.011955527
8.9106765e-08
0.011955552
7.8223735e-08
0.011955574
6.8369291e-08
0.011955592
5.9474034e-08
0.011955608
5.1471436e-08
0.011955622
4.4301205e-08
0.011955633
3.7904809e-08
0.011955642
3.2228117e-08
0.01195565
2.7217814e-08
0.011955657
2.282347e-08
0.011955662
1.8994933e-08
0.011955666
1.5684058e-08
0.011955669
1.2843024e-08
0.011955672
1.0425769e-08
0.011955674
8.3871082e-09
0.011955676
6.6839066e-09
0.011955677
5.2747593e-09
0.011955678
4.1208274e-09
0.011955679
3.1858437e-09
0.011955679
2.4365683e-09
0.011955679
1.8429191e-09
0.01195568
1.3780285e-09
0.01195568
1.0183931e-09
0.01195568
7.4355594e-10
0.01195568
5.3627346e-10
0.01195568
3.8188612e-10
0.01195568
2.6855496e-10
0.01195568
1.8637254e-10
0.01195568
1.277712e-10
0.01195568
8.6400301e-11
0.01195568
5.7831703e-11
0.01195568
3.8133146e-11
0.01195568
2.5037097e-11
0.01195568
1.6115426e-11
0.01195568
1.0494492e-11
0.01195568
6.6526188e-12
0.01195568
4.465451e-12
0.01195568
3.0883076e-12
0.01195568
2.4098226e-12
0.01195568
2.5676922e-12
0.01195568
2.1447621e-12
0.01195568
3.6912872e-12
0.01195568
1.2279408e-12
3.9526544e-12
0.012739507
2.6625129e-11
0.012745078
8.7371574e-11
0.01275379
4.7663662e-11
0.012763288
3.1602995e-11
0.012772087
7.0221026e-11
0.012779979
1.5726802e-10
0.012787248
2.197231e-10
0.012794092
2.3767409e-10
0.012800537
2.3328135e-10
0.01280654
2.2439034e-10
0.01281209
2.1413346e-10
0.012817213
1.9476142e-10
0.012821951
1.677e-10
0.012826343
1.3321195e-10
0.012830417
9.7785944e-11
0.012834195
6.0661268e-11
0.012837697
2.5917965e-11
0.012840942
-1.0563399e-11
0.01284395
-4.3172214e-11
0.012846738
-7.4469824e-11
0.01284932
-1.0066672e-10
0.012851711
-1.2513696e-10
0.012853924
-1.441606e-10
0.012855971
-1.6138018e-10
0.012857864
-1.7318638e-10
0.012859614
-1.8341697e-10
0.01286123
-1.8845187e-10
0.012862721
-1.9189841e-10
0.012864097
-1.9037498e-10
0.012865365
-1.8763005e-10
0.012866533
-1.8050093e-10
0.012867609
-1.7247753e-10
0.012868598
-1.6077307e-10
0.012869507
-1.4893531e-10
0.012870341
-1.344006e-10
0.012871107
-1.2035378e-10
0.012871808
-1.0448277e-10
0.01287245
-8.9846326e-11
0.012873038
-7.4243304e-11
0.012873575
-6.0259346e-11
0.012874065
-4.5884708e-11
0.012874511
-3.3462092e-11
0.012874917
-2.1113892e-11
0.012875287
-1.0739886e-11
0.012875622
-5.4408817e-13
0.012875926
7.7932918e-12
0.012876201
1.5736348e-11
0.01287645
2.1893208e-11
0.012876673
2.789177e-11
0.012876875
3.2308283e-11
0.012877056
3.6679421e-11
0.012877217
3.9826868e-11
0.012877362
4.3121869e-11
0.012877491
4.5467792e-11
0.012877605
4.8071625e-11
0.012877706
5.0023251e-11
0.012877795
5.2319899e-11
0.012877873
5.4100248e-11
0.012877942
5.6163172e-11
0.012878001
5.7785198e-11
0.012878052
5.9560918e-11
0.012878097
6.0826278e-11
0.012878135
6.2013022e-11
0.012878167
6.2599621e-11
0.012878194
6.2889757e-11
0.012878217
6.2474329e-11
0.012878236
6.1582749e-11
0.012878251
5.9965355e-11
0.012878264
5.7812997e-11
0.012878274
5.5009793e-11
0.012878283
5.1733598e-11
0.012878289
4.7989109e-11
0.012878295
4.3939961e-11
0.012878299
3.967127e-11
0.012878302
3.5322869e-11
0.012878304
3.101189e-11
0.012878306
2.6832763e-11
0.012878308
2.2905262e-11
0.012878309
1.9268892e-11
0.012878309
1.6011767e-11
0.01287831
1.3110237e-11
0.01287831
1.0629603e-11
0.01287831
8.4947637e-12
0.012878311
6.7454764e-12
0.012878311
5.2664e-12
0.012878311
4.0987166e-12
0.012878311
3.1204791e-12
0.012878311
2.3597579e-12
0.012878311
1.7116267e-12
0.012878311
1.2050582e-12
0.012878311
7.70227e-13
0.012878311
4.2871554e-13
0.012878311
1.3104588e-13
0.012878311
-1.5504498e-13
0.012878311
-4.192145e-13
0.012878311
-9.1419261e-13
0.012878311
-1.788536e-12
0.012878311
-2.9655249e-12
0.012878311
-7.6535788e-12
-9.651585e-12
0.012739506
-1.0493242e-06
0.012745078
-5.5712576e-06
0.012753789
-8.7118672e-06
0.012763288
-9.4996555e-06
0.012772087
-8.7991873e-06
0.012779979
-7.8928825e-06
0.012787248
-7.2688505e-06
0.012794092
-6.8447728e-06
0.012800537
-6.4446447e-06
0.01280654
-6.0035289e-06
0.01281209
-5.5496163e-06
0.012817213
-5.1228827e-06
0.012821951
-4.7386385e-06
0.012826344
-4.3920822e-06
0.012830417
-4.0736939e-06
0.012834195
-3.7776601e-06
0.012837697
-3.50196e-06
0.012840942
-3.2458204e-06
0.012843951
-3.0081468e-06
0.012846738
-2.7874467e-06
0.01284932
-2.5821977e-06
0.012851711
-2.3911312e-06
0.012853924
-2.2132009e-06
0.012855971
-2.0475218e-06
0.012857864
-1.8932658e-06
0.012859614
-1.749673e-06
0.01286123
-1.6160191e-06
0.012862721
-1.4916516e-06
0.012864097
-1.3759516e-06
0.012865365
-1.2683597e-06
0.012866533
-1.1683385e-06
0.012867609
-1.0754003e-06
0.012868597
-9.890738e-07
0.012869506
-9.0893214e-07
0.012870341
-8.3456146e-07
0.012871106
-7.6558752e-07
0.012871808
-7.0164661e-07
0.01287245
-6.4241017e-07
0.012873038
-5.8755797e-07
0.012873574
-5.3680144e-07
0.012874064
-4.8985892e-07
0.012874511
-4.4647697e-07
0.012874917
-4.0640765e-07
0.012875287
-3.6942838e-07
0.012875622
-3.3532129e-07
0.012875926
-3.0389109e-07
0.012876201
-2.7494641e-07
0.012876449
-2.4831611e-07
0.012876673
-2.2383261e-07
0.012876874
-2.013465e-07
0.012877055
-1.8071158e-07
0.012877217
-1.6179817e-07
0.012877362
-1.4447978e-07
0.01287749
-1.286448e-07
0.012877605
-1.1418468e-07
0.012877706
-1.0100422e-07
0.012877795
-8.901116e-08
0.012877873
-7.8124803e-08
0.012877941
-6.8266842e-08
0.012878001
-5.9368586e-08
0.012878052
-5.136302e-08
0.012878096
-4.4190532e-08
0.012878134
-3.7792259e-08
0.012878166
-3.2114647e-08
0.012878194
-2.7104162e-08
0.012878216
-2.2710812e-08
0.012878235
-1.8884258e-08
0.012878251
-1.5576608e-08
0.012878264
-1.2739834e-08
0.012878274
-1.0327944e-08
0.012878283
-8.295511e-09
0.012878289
-6.5993149e-09
0.012878295
-5.1976834e-09
0.012878299
-4.0515969e-09
0.012878302
-3.124539e-09
0.012878304
-2.3830669e-09
0.012878306
-1.7969064e-09
0.012878307
-1.3390161e-09
0.012878308
-9.85791e-10
0.012878309
-7.1667289e-10
0.01287831
-5.14411e-10
0.01287831
-3.6430825e-10
0.01287831
-2.5460082e-10
0.012878311
-1.7539618e-10
0.012878311
-1.1924858e-10
0.012878311
-7.9841902e-11
0.012878311
-5.2864471e-11
0.012878311
-3.4448796e-11
0.012878311
-2.2389575e-11
0.012878311
-1.4334617e-11
0.012878311
-9.4195205e-12
0.012878311
-6.1924826e-12
0.012878311
-4.5170179e-12
0.012878311
-3.6517637e-12
0.012878311
-3.4596161e-12
0.012878311
-4.4035219e-12
0.012878311
-5.1875331e-12
0.012878311
-8.5209429e-12
0.012878311
-1.2663177e-11
-1.8259909e-11
0.011880357
-2.0910367e-06
0.011885064
-1.0277157e-05
0.011891759
-1.54072e-05
0.011898514
-1.6255342e-05
0.011904457
-1.4742964e-05
0.011909595
-1.3031143e-05
0.011914142
-1.1816533e-05
0.011918234
-1.0937755e-05
0.011921914
-1.0124949e-05
0.011925198
-9.2878577e-06
0.011928117
-8.46808e-06
0.011930713
-7.7195872e-06
0.011933033
-7.0589846e-06
0.011935115
-6.4743816e-06
0.01193699
-5.9482194e-06
0.011938681
-5.4689444e-06
0.01194021
-5.0309685e-06
0.011941595
-4.6308852e-06
0.011942852
-4.2652802e-06
0.011943995
-3.9304601e-06
0.011945036
-3.6230097e-06
0.011945985
-3.3400494e-06
0.011946851
-3.0792525e-06
0.011947642
-2.8386274e-06
0.011948365
-2.6164418e-06
0.011949026
-2.4111172e-06
0.011949631
-2.2212624e-06
0.011950185
-2.0456122e-06
0.011950693
-1.8830562e-06
0.011951157
-1.7325719e-06
0.011951582
-1.5932539e-06
0.011951971
-1.4642561e-06
0.011952326
-1.3448267e-06
0.011952652
-1.2342567e-06
0.011952949
-1.1319148e-06
0.011953221
-1.0372013e-06
0.011953469
-9.4958125e-07
0.011953695
-8.6854231e-07
0.011953901
-7.9362744e-07
0.011954089
-7.2439642e-07
0.011954259
-6.6045641e-07
0.011954414
-6.01427e-07
0.011954555
-5.4696881e-07
0.011954682
-4.9675202e-07
0.011954797
-4.5048252e-07
0.011954901
-4.0787347e-07
0.011954995
-3.6866942e-07
0.011955079
-3.326209e-07
0.011955155
-2.9950614e-07
0.011955223
-2.6910847e-07
0.011955283
-2.4123595e-07
0.011955337
-2.1570148e-07
0.011955385
-1.9234014e-07
0.011955428
-1.7099154e-07
0.011955465
-1.5151519e-07
0.011955498
-1.3377493e-07
0.011955526
-1.1765194e-07
0.011955551
-1.0303114e-07
0.011955573
-8.9811908e-08
0.011955591
-7.7896416e-08
0.011955607
-6.7198118e-08
0.011955621
-5.7631938e-08
0.011955632
-4.9120912e-08
0.011955642
-4.1588373e-08
0.01195565
-3.496303e-08
0.011955656
-2.9173178e-08
0.011955661
-2.4150639e-08
0.011955666
-1.9826914e-08
0.011955669
-1.6136229e-08
0.011955672
-1.3013354e-08
0.011955674
-1.0395897e-08
0.011955675
-8.2233732e-09
0.011955677
-6.4387644e-09
0.011955678
-4.9883802e-09
0.011955678
-3.8226997e-09
0.011955679
-2.8965774e-09
0.011955679
-2.169434e-09
0.011955679
-1.6055319e-09
0.01195568
-1.1736411e-09
0.01195568
-8.4719541e-10
0.01195568
-6.0365608e-10
0.01195568
-4.2450557e-10
0.01195568
-2.9454004e-10
0.01195568
-2.0163794e-10
0.01195568
-1.3623456e-10
0.01195568
-9.085288e-11
0.01195568
-5.9957559e-11
0.01195568
-3.9135456e-11
0.01195568
-2.5518583e-11
0.01195568
-1.6549567e-11
0.01195568
-1.1042436e-11
0.01195568
-7.4993674e-12
0.01195568
-5.6777721e-12
0.01195568
-4.7910583e-12
0.01195568
-4.8051456e-12
0.01195568
-6.0786259e-12
0.01195568
-7.0289602e-12
0.01195568
-1.1485321e-11
0.01195568
-1.2700988e-11
-2.0489775e-11
0.010076558
-2.9316035e-06
0.010078739
-1.2457304e-05
0.010080584
-1.7252317e-05
0.010081436
-1.7107483e-05
0.010081529
-1.4837172e-05
0.010081127
-1.2629223e-05
0.010080359
-1.1049698e-05
0.010079308
-9.8867172e-06
0.01007806
-8.8773797e-06
0.010076701
-7.9296353e-06
0.010075297
-7.0643221e-06
0.010073889
-6.3121429e-06
0.010072504
-5.6735953e-06
0.010071157
-5.1282216e-06
0.010069862
-4.6534395e-06
0.010068627
-4.2336054e-06
0.010067455
-3.8595564e-06
0.010066349
-3.5251954e-06
0.010065309
-3.2253126e-06
0.010064334
-2.9551182e-06
0.010063421
-2.7104785e-06
0.010062569
-2.4880505e-06
0.010061775
-2.285181e-06
0.010061036
-2.0997016e-06
0.01006035
-1.9297799e-06
0.010059712
-1.7738328e-06
0.010059122
-1.6304912e-06
0.010058575
-1.4985659e-06
0.010058069
-1.3770234e-06
0.010057601
-1.2649539e-06
0.010057169
-1.1615539e-06
0.010056771
-1.0661052e-06
0.010056404
-9.7796609e-07
0.010056067
-8.9655703e-07
0.010055756
-8.2135651e-07
0.010055471
-7.5188922e-07
0.010055209
-6.8772397e-07
0.010054969
-6.2846474e-07
0.010054749
-5.7375047e-07
0.010054548
-5.2324744e-07
0.010054364
-4.7664976e-07
0.010054197
-4.3367335e-07
0.010054044
-3.940571e-07
0.010053905
-3.5755753e-07
0.010053778
-3.2395006e-07
0.010053663
-2.930248e-07
0.010053559
-2.6458803e-07
0.010053465
-2.3845845e-07
0.01005338
-2.1446862e-07
0.010053304
-1.9246198e-07
0.010053235
-1.7229441e-07
0.010053173
-1.5383151e-07
0.010053117
-1.3694998e-07
0.010053068
-1.2153534e-07
0.010053024
-1.0748314e-07
0.010052985
-9.4696775e-08
0.01005295
-8.3088248e-08
0.01005292
-7.2576143e-08
0.010052893
-6.3086082e-08
0.01005287
-5.4548677e-08
0.01005285
-4.6899663e-08
0.010052832
-4.007808e-08
0.010052817
-3.4026291e-08
0.010052804
-2.868848e-08
0.010052793
-2.4010736e-08
0.010052784
-1.994006e-08
0.010052776
-1.6424645e-08
0.01005277
-1.3413406e-08
0.010052765
-1.0856496e-08
0.01005276
-8.7052596e-09
0.010052757
-6.912869e-09
0.010052754
-5.4345228e-09
0.010052752
-4.2280769e-09
0.01005275
-3.2542613e-09
0.010052749
-2.4771336e-09
0.010052748
-1.8641802e-09
0.010052747
-1.3865606e-09
0.010052747
-1.0189831e-09
0.010052746
-7.397216e-10
0.010052746
-5.3029385e-10
0.010052746
-3.753941e-10
0.010052745
-2.6235578e-10
0.010052745
-1.8110819e-10
0.010052745
-1.2346298e-10
0.010052745
-8.3291679e-11
0.010052745
-5.5577719e-11
0.010052745
-3.693123e-11
0.010052745
-2.4341024e-11
0.010052745
-1.6246007e-11
0.010052745
-1.078395e-11
0.010052745
-7.5799238e-12
0.010052745
-5.3069754e-12
0.010052745
-4.3988401e-12
0.010052745
-3.7864451e-12
0.010052745
-4.3204893e-12
0.010052745
-5.2061539e-12
0.010052745
-6.9582858e-12
0.010052745
-1.0795102e-11
0.010052745
-8.6904988e-12
-1.7453639e-11
0.0071632926
-2.7195372e-06
0.0071598488
-9.0126224e-06
0.0071535089
-1.0912381e-05
0.0071461069
-9.7059988e-06
0.0071388923
-7.6234644e-06
0.0071322003
-5.9380199e-06
0.0071259939
-4.8439042e-06
0.0071202239
-4.1174059e-06
0.0071149011
-3.5550794e-06
0.0071100463
-3.0753723e-06
0.0071056502
-2.668595e-06
0.0071016744
-2.336731e-06
0.0070980713
-2.0707334e-06
0.007094797
-1.8541545e-06
0.0070918153
-1.6719015e-06
0.0070890957
-1.5141801e-06
0.0070866116
-1.3756215e-06
0.0070843394
-1.2530626e-06
0.0070822581
-1.1440587e-06
0.0070803494
-1.0464849e-06
0.0070785974
-9.5855274e-07
0.0070769882
-8.7888264e-07
0.0070755095
-8.064122e-07
0.0070741501
-7.4031298e-07
0.0070729002
-6.7988274e-07
0.0070717509
-6.2453022e-07
0.0070706941
-5.7373326e-07
0.0070697226
-5.2705281e-07
0.0070688297
-4.8409778e-07
0.0070680094
-4.4453777e-07
0.0070672559
-4.0807089e-07
0.0070665643
-3.7443949e-07
0.0070659298
-3.434035e-07
0.007065348
-3.1475785e-07
0.007064815
-2.8830834e-07
0.0070643271
-2.6388872e-07
0.0070638807
-2.4133905e-07
0.0070634728
-2.2052243e-07
0.0070631004
-2.0130531e-07
0.0070627608
-1.8357326e-07
0.0070624514
-1.6721334e-07
0.0070621699
-1.5212898e-07
0.0070619142
-1.3822388e-07
0.0070616821
-1.2541564e-07
0.0070614718
-1.1362146e-07
0.0070612816
-1.027707e-07
0.0070611098
-9.2791911e-08
0.007060955
-8.3624213e-08
0.0070608158
-7.5205797e-08
0.0070606909
-6.748432e-08
0.0070605791
-6.040655e-08
0.0070604792
-5.392766e-08
0.0070603903
-4.8002111e-08
0.0070603114
-4.2591915e-08
0.0070602416
-3.765854e-08
0.0070601801
-3.317004e-08
0.0070601262
-2.9094006e-08
0.007060079
-2.5403626e-08
0.007060038
-2.2071567e-08
0.0070600026
-1.9074948e-08
0.0070599721
-1.6390201e-08
0.0070599461
-1.3997088e-08
0.007059924
-1.1874529e-08
0.0070599053
-1.0003742e-08
0.0070598897
-8.3650803e-09
0.0070598767
-6.9404277e-09
0.007059866
-5.7109991e-09
0.0070598573
-4.6590996e-09
0.0070598502
-3.7667723e-09
0.0070598445
-3.0169916e-09
0.00705984
-2.3930182e-09
0.0070598365
-1.879091e-09
0.0070598337
-1.4602708e-09
0.0070598316
-1.1226869e-09
0.00705983
-8.5370618e-10
0.0070598288
-6.418341e-10
0.0070598279
-4.7704484e-10
0.0070598272
-3.503824e-10
0.0070598268
-2.5435963e-10
0.0070598264
-1.8241781e-10
0.0070598262
-1.293508e-10
0.007059826
-9.0624855e-11
0.0070598259
-6.2883214e-11
0.0070598258
-4.3158527e-11
0.0070598258
-2.947909e-11
0.0070598257
-1.9964716e-11
0.0070598257
-1.3604099e-11
0.0070598257
-9.2034123e-12
0.0070598257
-6.4192929e-12
0.0070598257
-4.3988309e-12
0.0070598257
-3.2811905e-12
0.0070598257
-2.3364292e-12
0.0070598257
-2.0825117e-12
0.0070598257
-1.7503714e-12
0.0070598257
-2.1588291e-12
0.0070598257
-2.5630618e-12
0.0070598257
-4.1857495e-12
0.0070598256
-5.7034174e-12
0.0070598256
-4.115918e-12
-1.1109916e-11
0.002912877
0.0029038646
0.0028929521
0.0028832456
0.0028756217
0.0028696833
0.0028648391
0.0028607214
0.002857166
0.0028540904
0.0028514216
0.0028490847
0.0028470139
0.0028451596
0.0028434876
0.0028419734
0.0028405977
0.0028393446
0.0028382005
0.002837154
0.0028361954
0.0028353165
0.0028345101
0.0028337698
0.0028330899
0.0028324654
0.0028318917
0.0028313647
0.0028308806
0.0028304361
0.002830028
0.0028296536
0.0028293102
0.0028289955
0.0028287072
0.0028284433
0.002828202
0.0028279815
0.0028277803
0.0028275967
0.0028274295
0.0028272774
0.0028271392
0.0028270138
0.0028269002
0.0028267975
0.0028267047
0.0028266211
0.002826546
0.0028264785
0.0028264181
0.0028263642
0.0028263162
0.0028262737
0.002826236
0.0028262029
0.0028261738
0.0028261484
0.0028261264
0.0028261073
0.0028260909
0.002826077
0.0028260651
0.0028260551
0.0028260468
0.0028260398
0.0028260341
0.0028260295
0.0028260257
0.0028260227
0.0028260203
0.0028260185
0.002826017
0.0028260159
0.002826015
0.0028260144
0.0028260139
0.0028260136
0.0028260133
0.0028260132
0.002826013
0.0028260129
0.0028260129
0.0028260128
0.0028260128
0.0028260128
0.0028260128
0.0028260128
0.0028260128
0.0028260127
0.0028260127
0.0028260127
0.0028260127
0.0028260127
0.0028260127
0.0028260127
0.0028260127
0.0028260127
0.0028260127
)
;

boundaryField
{
    top
    {
        type            calculated;
        value           uniform 0;
    }
    inlet
    {
        type            calculated;
        value           nonuniform List<scalar> 10(-0.0029155949 -0.0071635039 -0.010075717 -0.011879314 -0.012738457 -0.012738456 -0.011879315 -0.010075716 -0.0071635038 -0.002915596);
    }
    outlet
    {
        type            calculated;
        value           nonuniform List<scalar> 10(0.0028260127 0.0070598257 0.010052745 0.01195568 0.012878311 0.012878311 0.01195568 0.010052745 0.0070598256 0.0028260127);
    }
    bottom
    {
        type            calculated;
        value           uniform 0;
    }
    back
    {
        type            empty;
        value           nonuniform 0();
    }
    front
    {
        type            empty;
        value           nonuniform 0();
    }
}


// ************************************************************************* //
