/*--------------------------------*- C++ -*----------------------------------*\
| =========                 |                                                 |
| \\      /  F ield         | OpenFOAM: The Open Source CFD Toolbox           |
|  \\    /   O peration     | Version:  v1812                                 |
|   \\  /    A nd           | Web:      www.OpenFOAM.com                      |
|    \\/     M anipulation  |                                                 |
\*---------------------------------------------------------------------------*/
FoamFile
{
    version     2.0;
    format      ascii;
    class       volVectorField;
    location    "12";
    object      U;
}
// * * * * * * * * * * * * * * * * * * * * * * * * * * * * * * * * * * * * * //

dimensions      [0 1 -1 0 0 0 0];


internalField   nonuniform List<vector> 
1000
(
(0.29149428 0.00022955434 0)
(0.29099963 0.00066518624 0)
(0.28989986 0.00072778678 0)
(0.28879869 0.00055597495 0)
(0.28791684 0.00036480507 0)
(0.28724456 0.00024379018 0)
(0.2867126 0.00018308054 0)
(0.28626834 0.00014988244 0)
(0.28588624 0.00012520173 0)
(0.28555557 0.00010443088 0)
(0.28526927 8.8061058e-05 0)
(0.28501997 7.6157839e-05 0)
(0.28480047 6.7584377e-05 0)
(0.28460491 6.09713e-05 0)
(0.28442912 5.5410915e-05 0)
(0.2842702 5.0504833e-05 0)
(0.28412603 4.6124699e-05 0)
(0.28399486 4.2210808e-05 0)
(0.28387523 3.8698867e-05 0)
(0.28376591 3.552218e-05 0)
(0.28366583 3.2627858e-05 0)
(0.28357411 2.9979793e-05 0)
(0.28348997 2.7553159e-05 0)
(0.28341276 2.5327525e-05 0)
(0.28334186 2.328439e-05 0)
(0.28327673 2.1406428e-05 0)
(0.28321691 1.9678343e-05 0)
(0.28316195 1.8086508e-05 0)
(0.28311147 1.6619156e-05 0)
(0.28306511 1.5265619e-05 0)
(0.28302254 1.4016521e-05 0)
(0.28298347 1.2863226e-05 0)
(0.28294764 1.1798145e-05 0)
(0.28291478 1.0814246e-05 0)
(0.28288467 9.905341e-06 0)
(0.2828571 9.0656334e-06 0)
(0.28283188 8.2900063e-06 0)
(0.28280883 7.5736163e-06 0)
(0.28278777 6.9121779e-06 0)
(0.28276856 6.3015987e-06 0)
(0.28275104 5.7382536e-06 0)
(0.2827351 5.2186547e-06 0)
(0.28272061 4.7397074e-06 0)
(0.28270745 4.2984151e-06 0)
(0.28269552 3.892119e-06 0)
(0.28268472 3.5182332e-06 0)
(0.28267496 3.1744638e-06 0)
(0.28266616 2.8585745e-06 0)
(0.28265823 2.5685872e-06 0)
(0.28265111 2.3025742e-06 0)
(0.28264473 2.0588376e-06 0)
(0.28263903 1.8357264e-06 0)
(0.28263394 1.6317969e-06 0)
(0.28262942 1.4456494e-06 0)
(0.28262542 1.2760662e-06 0)
(0.28262189 1.121869e-06 0)
(0.28261878 9.8203506e-07 0)
(0.28261607 8.5556993e-07 0)
(0.2826137 7.4160322e-07 0)
(0.28261165 6.3927981e-07 0)
(0.28260988 5.4783653e-07 0)
(0.28260837 4.6651073e-07 0)
(0.28260708 3.9460226e-07 0)
(0.28260599 3.3140227e-07 0)
(0.28260508 2.7624316e-07 0)
(0.28260432 2.2844624e-07 0)
(0.28260369 1.8736325e-07 0)
(0.28260317 1.5234178e-07 0)
(0.28260275 1.2275874e-07 0)
(0.28260242 9.7999517e-08 0)
(0.28260215 7.7484451e-08 0)
(0.28260194 6.0657595e-08 0)
(0.28260177 4.7004817e-08 0)
(0.28260164 3.6048041e-08 0)
(0.28260155 2.7355875e-08 0)
(0.28260147 2.0539741e-08 0)
(0.28260142 1.5257546e-08 0)
(0.28260138 1.1212674e-08 0)
(0.28260135 8.1529144e-09 0)
(0.28260133 5.8672639e-09 0)
(0.28260131 4.1813087e-09 0)
(0.2826013 2.9530845e-09 0)
(0.28260129 2.0695321e-09 0)
(0.28260129 1.4406968e-09 0)
(0.28260128 9.9892689e-10 0)
(0.28260128 6.8913406e-10 0)
(0.28260128 4.7553156e-10 0)
(0.28260128 3.2442488e-10 0)
(0.28260128 2.2248698e-10 0)
(0.28260128 1.4548829e-10 0)
(0.28260128 9.6322277e-11 0)
(0.28260128 5.3015875e-11 0)
(0.28260128 3.4086695e-11 0)
(0.28260128 1.7432047e-11 0)
(0.28260128 4.15799e-11 0)
(0.28260128 9.1099139e-11 0)
(0.28260128 2.1711187e-10 0)
(0.28260127 4.3286849e-10 0)
(0.28260127 7.713694e-10 0)
(0.28260127 1.2663205e-09 0)
(0.71617266 0.00026578655 0)
(0.71661621 0.001148817 0)
(0.71594104 0.0016003391 0)
(0.71501628 0.0015592516 0)
(0.71420918 0.0013027495 0)
(0.71352829 0.0010526674 0)
(0.71290592 0.00087602445 0)
(0.71231276 0.00075376732 0)
(0.71175386 0.0006562243 0)
(0.71124049 0.00057054094 0)
(0.71077642 0.00049610036 0)
(0.71035834 0.00043432198 0)
(0.70998042 0.00038429253 0)
(0.70963735 0.00034337734 0)
(0.70932509 0.00030895805 0)
(0.70904046 0.00027926664 0)
(0.70878071 0.00025329435 0)
(0.70854333 0.00023041607 0)
(0.70832605 0.00021014223 0)
(0.7081269 0.00019204849 0)
(0.70794418 0.0001757838 0)
(0.70777639 0.00016107623 0)
(0.70762224 0.00014771924 0)
(0.70748056 0.00013555037 0)
(0.7073503 0.00012443566 0)
(0.70723052 0.0001142612 0)
(0.70712039 0.00010492964 0)
(0.70701914 9.6357482e-05 0)
(0.70692606 8.8472918e-05 0)
(0.70684053 8.1213378e-05 0)
(0.70676196 7.452397e-05 0)
(0.70668982 6.8355949e-05 0)
(0.70662362 6.2665996e-05 0)
(0.7065629 5.7415227e-05 0)
(0.70650725 5.2568779e-05 0)
(0.70645628 4.8095053e-05 0)
(0.70640964 4.3965474e-05 0)
(0.706367 4.0153923e-05 0)
(0.70632805 3.6636624e-05 0)
(0.7062925 3.3391695e-05 0)
(0.70626011 3.0399109e-05 0)
(0.70623061 2.7640336e-05 0)
(0.70620379 2.5098345e-05 0)
(0.70617944 2.2757304e-05 0)
(0.70615736 2.060262e-05 0)
(0.70613737 1.8620688e-05 0)
(0.7061193 1.6798945e-05 0)
(0.706103 1.5125666e-05 0)
(0.70608833 1.3590025e-05 0)
(0.70607514 1.2181929e-05 0)
(0.70606333 1.0892085e-05 0)
(0.70605276 9.7118553e-06 0)
(0.70604334 8.6333222e-06 0)
(0.70603497 7.6491597e-06 0)
(0.70602755 6.7526839e-06 0)
(0.706021 5.9377279e-06 0)
(0.70601524 5.1986737e-06 0)
(0.70601019 4.5303265e-06 0)
(0.7060058 3.9279237e-06 0)
(0.70600199 3.3870121e-06 0)
(0.7059987 2.903444e-06 0)
(0.70599588 2.4732648e-06 0)
(0.70599348 2.0927076e-06 0)
(0.70599144 1.7581052e-06 0)
(0.70598973 1.4658963e-06 0)
(0.70598831 1.2125689e-06 0)
(0.70598713 9.9468498e-07 0)
(0.70598616 8.0885654e-07 0)
(0.70598537 6.5178591e-07 0)
(0.70598474 5.2026682e-07 0)
(0.70598423 4.1123102e-07 0)
(0.70598383 3.2176136e-07 0)
(0.70598352 2.4913354e-07 0)
(0.70598327 1.908279e-07 0)
(0.70598309 1.4455713e-07 0)
(0.70598295 1.0826801e-07 0)
(0.70598284 8.0152618e-08 0)
(0.70598277 5.8638663e-08 0)
(0.70598271 4.2387558e-08 0)
(0.70598267 3.0270579e-08 0)
(0.70598264 2.1360231e-08 0)
(0.70598262 1.4894437e-08 0)
(0.7059826 1.0272583e-08 0)
(0.70598259 7.0092359e-09 0)
(0.70598259 4.7453294e-09 0)
(0.70598258 3.1852248e-09 0)
(0.70598258 2.1365188e-09 0)
(0.70598258 1.4208218e-09 0)
(0.70598258 9.5793867e-10 0)
(0.70598258 6.3101867e-10 0)
(0.70598258 4.348097e-10 0)
(0.70598258 2.7683835e-10 0)
(0.70598258 2.0575127e-10 0)
(0.70598258 1.4086726e-10 0)
(0.70598257 1.6341463e-10 0)
(0.70598257 2.3666988e-10 0)
(0.70598257 4.1124211e-10 0)
(0.70598257 8.2957293e-10 0)
(0.70598257 1.2506138e-09 0)
(0.70598257 2.3811337e-09 0)
(1.0072238 0.0002101903 0)
(1.0084835 0.0010699849 0)
(1.0084611 0.001661813 0)
(1.0081746 0.0018007029 0)
(1.008058 0.0016665138 0)
(1.0080708 0.0014730315 0)
(1.0080747 0.0013168949 0)
(1.0080097 0.0011999704 0)
(1.0078897 0.0010980222 0)
(1.007747 0.00099844265 0)
(1.0076016 0.00090241923 0)
(1.0074594 0.00081482571 0)
(1.0073202 0.00073783501 0)
(1.0071838 0.00067056852 0)
(1.0070513 0.00061109798 0)
(1.0069242 0.0005578622 0)
(1.0068034 0.00050992499 0)
(1.0066893 0.00046669057 0)
(1.006582 0.0004276464 0)
(1.0064812 0.00039229099 0)
(1.0063868 0.0003601624 0)
(1.0062986 0.00033086939 0)
(1.0062163 0.00030409205 0)
(1.0061397 0.00027956535 0)
(1.0060684 0.00025706255 0)
(1.0060023 0.00023638598 0)
(1.0059409 0.00021736239 0)
(1.0058841 0.00019984016 0)
(1.0058315 0.00018368618 0)
(1.0057829 0.00016878303 0)
(1.005738 0.00015502618 0)
(1.0056965 0.00014232217 0)
(1.0056583 0.0001305869 0)
(1.0056231 0.00011974453 0)
(1.0055908 0.00010972629 0)
(1.005561 0.00010046969 0)
(1.0055337 9.1917651e-05 0)
(1.0055087 8.4017976e-05 0)
(1.0054857 7.6722708e-05 0)
(1.0054647 6.9987767e-05 0)
(1.0054455 6.3772457e-05 0)
(1.0054279 5.8039222e-05 0)
(1.0054119 5.2753264e-05 0)
(1.0053973 4.7882363e-05 0)
(1.0053841 4.3396577e-05 0)
(1.005372 3.9268125e-05 0)
(1.0053611 3.5471147e-05 0)
(1.0053512 3.198163e-05 0)
(1.0053422 2.8777219e-05 0)
(1.0053342 2.5837171e-05 0)
(1.0053269 2.3142212e-05 0)
(1.0053204 2.0674508e-05 0)
(1.0053145 1.8417549e-05 0)
(1.0053093 1.6356127e-05 0)
(1.0053046 1.4476227e-05 0)
(1.0053005 1.2764992e-05 0)
(1.0052968 1.1210606e-05 0)
(1.0052935 9.8022355e-06 0)
(1.0052907 8.5298988e-06 0)
(1.0052882 7.3843757e-06 0)
(1.005286 6.3570769e-06 0)
(1.0052841 5.4399365e-06 0)
(1.0052825 4.6252935e-06 0)
(1.0052811 3.9057966e-06 0)
(1.0052799 3.2743209e-06 0)
(1.0052789 2.7239083e-06 0)
(1.0052781 2.2477325e-06 0)
(1.0052773 1.8390865e-06 0)
(1.0052768 1.4913993e-06 0)
(1.0052763 1.1982632e-06 0)
(1.0052759 9.5348511e-07 0)
(1.0052756 7.5113512e-07 0)
(1.0052753 5.8560972e-07 0)
(1.0052751 4.5167692e-07 0)
(1.005275 3.4452847e-07 0)
(1.0052749 2.5980272e-07 0)
(1.0052748 1.9361492e-07 0)
(1.0052747 1.4254576e-07 0)
(1.0052747 1.0364877e-07 0)
(1.0052746 7.4406577e-08 0)
(1.0052746 5.2727146e-08 0)
(1.0052746 3.6870228e-08 0)
(1.0052746 2.5448917e-08 0)
(1.0052745 1.733062e-08 0)
(1.0052745 1.1663512e-08 0)
(1.0052745 7.7479926e-09 0)
(1.0052745 5.1085703e-09 0)
(1.0052745 3.3256533e-09 0)
(1.0052745 2.1743012e-09 0)
(1.0052745 1.3976184e-09 0)
(1.0052745 9.2860003e-10 0)
(1.0052745 5.9890536e-10 0)
(1.0052745 4.2916998e-10 0)
(1.0052745 3.2096592e-10 0)
(1.0052745 3.0128224e-10 0)
(1.0052745 3.9865657e-10 0)
(1.0052745 4.9992735e-10 0)
(1.0052745 9.6508232e-10 0)
(1.0052745 1.2061796e-09 0)
(1.0052745 2.2437225e-09 0)
(1.187435 0.00013007464 0)
(1.1891938 0.00072125341 0)
(1.1895447 0.0011808541 0)
(1.1896394 0.0013388385 0)
(1.1900038 0.001286868 0)
(1.1905812 0.0011731455 0)
(1.1911673 0.0010769411 0)
(1.191655 0.0010062893 0)
(1.1920453 0.00094409426 0)
(1.1923763 0.00087966387 0)
(1.1926743 0.00081344975 0)
(1.1929471 0.00074989088 0)
(1.1931941 0.00069173815 0)
(1.193415 0.00063915399 0)
(1.1936122 0.00059115786 0)
(1.1937894 0.00054687149 0)
(1.1939493 0.00050584195 0)
(1.1940944 0.00046785495 0)
(1.194226 0.00043272407 0)
(1.1943457 0.00040022607 0)
(1.1944546 0.00037012641 0)
(1.1945537 0.00034221438 0)
(1.1946442 0.00031631204 0)
(1.1947268 0.00029226743 0)
(1.1948023 0.00026994422 0)
(1.1948714 0.00024921747 0)
(1.1949346 0.00022997164 0)
(1.1949924 0.00021210104 0)
(1.1950453 0.00019550852 0)
(1.1950938 0.00018010509 0)
(1.1951382 0.00016580827 0)
(1.1951788 0.00015254193 0)
(1.1952159 0.00014023512 0)
(1.1952499 0.00012882225 0)
(1.195281 0.00011824201 0)
(1.1953094 0.00010843765 0)
(1.1953353 9.9356004e-05 0)
(1.1953589 9.0947804e-05 0)
(1.1953805 8.3166812e-05 0)
(1.1954001 7.5970131e-05 0)
(1.195418 6.9317467e-05 0)
(1.1954343 6.3171415e-05 0)
(1.195449 5.7496801e-05 0)
(1.1954624 5.2260967e-05 0)
(1.1954745 4.7433182e-05 0)
(1.1954854 4.2984914e-05 0)
(1.1954952 3.8889298e-05 0)
(1.1955041 3.5121416e-05 0)
(1.1955121 3.1657829e-05 0)
(1.1955192 2.8476832e-05 0)
(1.1955256 2.555805e-05 0)
(1.1955313 2.2882671e-05 0)
(1.1955364 2.0433106e-05 0)
(1.1955409 1.8193185e-05 0)
(1.1955449 1.6147855e-05 0)
(1.1955484 1.4283345e-05 0)
(1.1955514 1.258688e-05 0)
(1.1955541 1.10468e-05 0)
(1.1955564 9.6522852e-06 0)
(1.1955584 8.3934258e-06 0)
(1.1955601 7.2609593e-06 0)
(1.1955616 6.246298e-06 0)
(1.1955628 5.3412925e-06 0)
(1.1955638 4.5382399e-06 0)
(1.1955647 3.8296932e-06 0)
(1.1955654 3.2084737e-06 0)
(1.195566 2.6675421e-06 0)
(1.1955664 2.2000338e-06 0)
(1.1955668 1.7991985e-06 0)
(1.1955671 1.4584602e-06 0)
(1.1955673 1.1714125e-06 0)
(1.1955675 9.3189326e-07 0)
(1.1955677 7.3401503e-07 0)
(1.1955678 5.7223301e-07 0)
(1.1955678 4.4138505e-07 0)
(1.1955679 3.3673441e-07 0)
(1.1955679 2.5400163e-07 0)
(1.195568 1.8936953e-07 0)
(1.195568 1.3950022e-07 0)
(1.195568 1.0150014e-07 0)
(1.195568 7.2927391e-08 0)
(1.195568 5.1720058e-08 0)
(1.195568 3.6207147e-08 0)
(1.195568 2.500553e-08 0)
(1.195568 1.7051024e-08 0)
(1.195568 1.1465548e-08 0)
(1.195568 7.626597e-09 0)
(1.195568 4.9990668e-09 0)
(1.195568 3.2607964e-09 0)
(1.195568 2.0902403e-09 0)
(1.195568 1.3538321e-09 0)
(1.195568 8.5987768e-10 0)
(1.195568 5.7229594e-10 0)
(1.195568 4.0352268e-10 0)
(1.195568 3.1675044e-10 0)
(1.195568 3.6765704e-10 0)
(1.195568 3.5956348e-10 0)
(1.195568 6.5737962e-10 0)
(1.195568 5.8337573e-10 0)
(1.195568 1.130634e-09 0)
(1.2732664 4.3659048e-05 0)
(1.275262 0.00025133627 0)
(1.2757715 0.00042088917 0)
(1.2760205 0.00048619358 0)
(1.276595 0.00047383136 0)
(1.2774414 0.00043624118 0)
(1.278323 0.00040380676 0)
(1.2791044 0.00038067641 0)
(1.2797766 0.00036065033 0)
(1.2803794 0.00033942273 0)
(1.280942 0.00031694734 0)
(1.2814719 0.00029490109 0)
(1.2819669 0.00027443079 0)
(1.2824251 0.00025569253 0)
(1.2828481 0.0002383683 0)
(1.2832395 0.00022215835 0)
(1.2836023 0.00020692429 0)
(1.2839389 0.00019262263 0)
(1.2842511 0.0001792208 0)
(1.2845404 0.00016666838 0)
(1.2848085 0.00015490611 0)
(1.2850567 0.00014387956 0)
(1.2852865 0.00013354352 0)
(1.2854992 0.00012385961 0)
(1.2856959 0.0001147927 0)
(1.2858778 0.00010630921 0)
(1.2860457 9.8376841e-05 0)
(1.2862009 9.0964816e-05 0)
(1.286344 8.4043861e-05 0)
(1.286476 7.7586135e-05 0)
(1.2865976 7.1565004e-05 0)
(1.2867096 6.5955031e-05 0)
(1.2868126 6.0731863e-05 0)
(1.2869073 5.5872291e-05 0)
(1.2869943 5.1354174e-05 0)
(1.2870742 4.7156487e-05 0)
(1.2871474 4.3259226e-05 0)
(1.2872145 3.9643441e-05 0)
(1.2872759 3.6291152e-05 0)
(1.287332 3.3185382e-05 0)
(1.2873832 3.0310057e-05 0)
(1.2874299 2.7650029e-05 0)
(1.2874725 2.5190987e-05 0)
(1.2875112 2.2919476e-05 0)
(1.2875464 2.0822798e-05 0)
(1.2875783 1.8889033e-05 0)
(1.2876071 1.7106966e-05 0)
(1.2876332 1.5466088e-05 0)
(1.2876568 1.3956516e-05 0)
(1.287678 1.2569021e-05 0)
(1.2876971 1.1294951e-05 0)
(1.2877142 1.0126256e-05 0)
(1.2877294 9.0554193e-06 0)
(1.2877431 8.0754774e-06 0)
(1.2877552 7.1799573e-06 0)
(1.2877659 6.3628954e-06 0)
(1.2877754 5.618768e-06 0)
(1.2877837 4.9424994e-06 0)
(1.287791 4.3293908e-06 0)
(1.2877974 3.7751196e-06 0)
(1.2878029 3.2756607e-06 0)
(1.2878076 2.8272754e-06 0)
(1.2878117 2.426436e-06 0)
(1.2878152 2.069814e-06 0)
(1.2878182 1.7542125e-06 0)
(1.2878206 1.4765592e-06 0)
(1.2878227 1.2338578e-06 0)
(1.2878244 1.023195e-06 0)
(1.2878258 8.4171337e-07 0)
(1.287827 6.8663038e-07 0)
(1.2878279 5.5523346e-07 0)
(1.2878287 4.4490878e-07 0)
(1.2878292 3.5314888e-07 0)
(1.2878297 2.7758292e-07 0)
(1.2878301 2.1598897e-07 0)
(1.2878303 1.6631712e-07 0)
(1.2878305 1.2669856e-07 0)
(1.2878307 9.5455804e-08 0)
(1.2878308 7.1105758e-08 0)
(1.2878309 5.2354007e-08 0)
(1.287831 3.8092771e-08 0)
(1.287831 2.7381429e-08 0)
(1.287831 1.94435e-08 0)
(1.2878311 1.3635256e-08 0)
(1.2878311 9.4469951e-09 0)
(1.2878311 6.4624084e-09 0)
(1.2878311 4.3720147e-09 0)
(1.2878311 2.9182841e-09 0)
(1.2878311 1.931708e-09 0)
(1.2878311 1.2568922e-09 0)
(1.2878311 8.153975e-10 0)
(1.2878311 5.1576589e-10 0)
(1.2878311 3.290937e-10 0)
(1.2878311 2.1072031e-10 0)
(1.2878311 1.367087e-10 0)
(1.2878311 1.1671775e-10 0)
(1.2878311 4.0284908e-11 0)
(1.2878311 7.9883628e-11 0)
(1.2878311 -2.8459962e-10 0)
(1.2878311 -3.3098424e-10 0)
(1.2732662 -4.3659258e-05 0)
(1.275262 -0.00025133545 0)
(1.2757714 -0.0004208886 0)
(1.2760204 -0.00048618875 0)
(1.276595 -0.00047381476 0)
(1.2774414 -0.00043621038 0)
(1.278323 -0.00040376584 0)
(1.2791043 -0.00038063093 0)
(1.2797766 -0.00036060377 0)
(1.2803794 -0.00033937695 0)
(1.280942 -0.00031690362 0)
(1.2814719 -0.00029486136 0)
(1.2819669 -0.00027439651 0)
(1.2824251 -0.00025566502 0)
(1.2828481 -0.0002383479 0)
(1.2832395 -0.00022214541 0)
(1.2836023 -0.00020691858 0)
(1.2839389 -0.00019262414 0)
(1.2842511 -0.00017922884 0)
(1.2845405 -0.00016668265 0)
(1.2848085 -0.00015492573 0)
(1.2850567 -0.00014390406 0)
(1.2852865 -0.00013357196 0)
(1.2854992 -0.00012389151 0)
(1.2856959 -0.00011482711 0)
(1.2858778 -0.00010634567 0)
(1.2860457 -9.841445e-05 0)
(1.2862009 -9.1003122e-05 0)
(1.286344 -8.4082006e-05 0)
(1.286476 -7.7623727e-05 0)
(1.2865976 -7.1601284e-05 0)
(1.2867096 -6.5989694e-05 0)
(1.2868126 -6.0764285e-05 0)
(1.2869073 -5.5902315e-05 0)
(1.2869943 -5.1381356e-05 0)
(1.2870742 -4.7180819e-05 0)
(1.2871474 -4.3280436e-05 0)
(1.2872145 -3.9661671e-05 0)
(1.2872758 -3.6306288e-05 0)
(1.2873319 -3.3197667e-05 0)
(1.2873832 -3.0319484e-05 0)
(1.2874299 -2.7656913e-05 0)
(1.2874724 -2.5195397e-05 0)
(1.2875112 -2.2921748e-05 0)
(1.2875463 -2.082304e-05 0)
(1.2875782 -1.8887595e-05 0)
(1.2876071 -1.7103955e-05 0)
(1.2876332 -1.5461806e-05 0)
(1.2876568 -1.3951053e-05 0)
(1.287678 -1.2562637e-05 0)
(1.287697 -1.1287706e-05 0)
(1.2877141 -1.011835e-05 0)
(1.2877294 -9.0468724e-06 0)
(1.287743 -8.0664341e-06 0)
(1.2877551 -7.1704066e-06 0)
(1.2877659 -6.3529321e-06 0)
(1.2877753 -5.6083594e-06 0)
(1.2877837 -4.9317143e-06 0)
(1.287791 -4.3182007e-06 0)
(1.2877973 -3.7635865e-06 0)
(1.2878029 -3.2637774e-06 0)
(1.2878076 -2.8151206e-06 0)
(1.2878117 -2.4140425e-06 0)
(1.2878152 -2.0572857e-06 0)
(1.2878181 -1.7416227e-06 0)
(1.2878206 -1.4640366e-06 0)
(1.2878227 -1.2215077e-06 0)
(1.2878244 -1.0111556e-06 0)
(1.2878258 -8.3009933e-07 0)
(1.287827 -6.7556834e-07 0)
(1.2878279 -5.4482351e-07 0)
(1.2878286 -4.3524374e-07 0)
(1.2878292 -3.4429315e-07 0)
(1.2878297 -2.6958143e-07 0)
(1.28783 -2.0885965e-07 0)
(1.2878303 -1.600539e-07 0)
(1.2878305 -1.2127512e-07 0)
(1.2878307 -9.0823912e-08 0)
(1.2878308 -6.7206298e-08 0)
(1.2878309 -4.9112575e-08 0)
(1.2878309 -3.5435913e-08 0)
(1.287831 -2.5226888e-08 0)
(1.287831 -1.7719683e-08 0)
(1.287831 -1.2266345e-08 0)
(1.2878311 -8.3757079e-09 0)
(1.2878311 -5.6284342e-09 0)
(1.2878311 -3.734943e-09 0)
(1.2878311 -2.4361308e-09 0)
(1.2878311 -1.5792135e-09 0)
(1.2878311 -1.0082856e-09 0)
(1.2878311 -6.5444062e-10 0)
(1.2878311 -4.2754985e-10 0)
(1.2878311 -3.0014382e-10 0)
(1.2878311 -2.3903771e-10 0)
(1.2878311 -2.1379226e-10 0)
(1.2878311 -2.7337304e-10 0)
(1.2878311 -3.4483776e-10 0)
(1.2878311 -5.3996847e-10 0)
(1.2878311 -9.8063491e-10 0)
(1.2878311 -1.4963845e-09 0)
(1.187435 -0.00013007526 0)
(1.1891938 -0.0007212651 0)
(1.1895447 -0.0011808723 0)
(1.1896394 -0.0013388521 0)
(1.1900038 -0.0012868694 0)
(1.1905812 -0.0011731334 0)
(1.1911673 -0.0010769187 0)
(1.191655 -0.0010062606 0)
(1.1920454 -0.00094406219 0)
(1.1923763 -0.00087963031 0)
(1.1926743 -0.00081341655 0)
(1.1929471 -0.0007498597 0)
(1.1931941 -0.00069171071 0)
(1.193415 -0.0006391313 0)
(1.1936123 -0.00059114079 0)
(1.1937894 -0.00054686023 0)
(1.1939494 -0.00050583675 0)
(1.1940944 -0.00046785554 0)
(1.1942261 -0.00043273039 0)
(1.1943457 -0.0004002375 0)
(1.1944546 -0.00037014257 0)
(1.1945538 -0.00034223451 0)
(1.1946442 -0.00031633569 0)
(1.1947268 -0.0002922938 0)
(1.1948024 -0.00026997287 0)
(1.1948714 -0.00024924764 0)
(1.1949346 -0.00023000288 0)
(1.1949924 -0.00021213262 0)
(1.1950453 -0.00019554004 0)
(1.1950938 -0.00018013589 0)
(1.1951381 -0.000165838 0)
(1.1951787 -0.00015257004 0)
(1.1952158 -0.0001402614 0)
(1.1952498 -0.00012884629 0)
(1.1952809 -0.00011826373 0)
(1.1953093 -0.00010845678 0)
(1.1953352 -9.9372622e-05 0)
(1.1953588 -9.0961792e-05 0)
(1.1953804 -8.3178335e-05 0)
(1.1954 -7.5979184e-05 0)
(1.1954179 -6.9324292e-05 0)
(1.1954341 -6.3176084e-05 0)
(1.1954489 -5.749959e-05 0)
(1.1954622 -5.226198e-05 0)
(1.1954743 -4.7432696e-05 0)
(1.1954853 -4.2983032e-05 0)
(1.1954951 -3.888628e-05 0)
(1.195504 -3.511736e-05 0)
(1.195512 -3.1652959e-05 0)
(1.1955191 -2.8471218e-05 0)
(1.1955255 -2.5551862e-05 0)
(1.1955312 -2.2875942e-05 0)
(1.1955363 -2.0425957e-05 0)
(1.1955408 -1.8185618e-05 0)
(1.1955448 -1.6139947e-05 0)
(1.1955483 -1.4275074e-05 0)
(1.1955513 -1.2578298e-05 0)
(1.195554 -1.1037884e-05 0)
(1.1955563 -9.6430784e-06 0)
(1.1955583 -8.3839205e-06 0)
(1.19556 -7.2512114e-06 0)
(1.1955615 -6.2363309e-06 0)
(1.1955627 -5.3311843e-06 0)
(1.1955637 -4.528048e-06 0)
(1.1955646 -3.8195193e-06 0)
(1.1955653 -3.1984035e-06 0)
(1.1955659 -2.6576891e-06 0)
(1.1955664 -2.1904953e-06 0)
(1.1955668 -1.7900826e-06 0)
(1.1955671 -1.4498547e-06 0)
(1.1955673 -1.1634004e-06 0)
(1.1955675 -9.2453468e-07 0)
(1.1955676 -7.2735469e-07 0)
(1.1955677 -5.6629194e-07 0)
(1.1955678 -4.3616448e-07 0)
(1.1955679 -3.3221668e-07 0)
(1.1955679 -2.5015059e-07 0)
(1.1955679 -1.8613724e-07 0)
(1.195568 -1.3682591e-07 0)
(1.195568 -9.9320808e-08 0)
(1.195568 -7.1174061e-08 0)
(1.195568 -5.0328831e-08 0)
(1.195568 -3.5114279e-08 0)
(1.195568 -2.4157922e-08 0)
(1.195568 -1.6398872e-08 0)
(1.195568 -1.0971155e-08 0)
(1.195568 -7.2553035e-09 0)
(1.195568 -4.7297236e-09 0)
(1.195568 -3.0706127e-09 0)
(1.195568 -1.9703699e-09 0)
(1.195568 -1.2888325e-09 0)
(1.195568 -8.4790486e-10 0)
(1.195568 -6.0376312e-10 0)
(1.195568 -4.8021713e-10 0)
(1.195568 -4.3625375e-10 0)
(1.195568 -5.4697464e-10 0)
(1.195568 -6.134347e-10 0)
(1.195568 -1.0003163e-09 0)
(1.195568 -1.2763358e-09 0)
(1.195568 -2.0469423e-09 0)
(1.0072238 -0.00021018901 0)
(1.0084835 -0.0010699741 0)
(1.008461 -0.0016618017 0)
(1.0081746 -0.0018006996 0)
(1.008058 -0.0016665166 0)
(1.0080709 -0.0014730343 0)
(1.0080747 -0.0013168926 0)
(1.0080098 -0.0011999617 0)
(1.0078898 -0.0010980085 0)
(1.007747 -0.00099842581 0)
(1.0076016 -0.00090240107 0)
(1.0074594 -0.0008148072 0)
(1.0073202 -0.00073781751 0)
(1.0071838 -0.00067055292 0)
(1.0070513 -0.00061108552 0)
(1.0069242 -0.00055785329 0)
(1.0068035 -0.00050992021 0)
(1.0066894 -0.00046668967 0)
(1.0065821 -0.00042764952 0)
(1.0064813 -0.00039229753 0)
(1.0063868 -0.00036017229 0)
(1.0062986 -0.00033088191 0)
(1.0062163 -0.00030410705 0)
(1.0061397 -0.00027958208 0)
(1.0060684 -0.00025708086 0)
(1.0060023 -0.00023640514 0)
(1.0059409 -0.00021738224 0)
(1.0058841 -0.00019986003 0)
(1.0058315 -0.00018370596 0)
(1.0057828 -0.00016880209 0)
(1.0057379 -0.00015504446 0)
(1.0056964 -0.00014233916 0)
(1.0056582 -0.00013060263 0)
(1.005623 -0.0001197586 0)
(1.0055907 -0.00010973881 0)
(1.0055609 -0.00010048039 0)
(1.0055336 -9.192674e-05 0)
(1.0055085 -8.4025284e-05 0)
(1.0054856 -7.6728494e-05 0)
(1.0054645 -6.9991943e-05 0)
(1.0054453 -6.3775321e-05 0)
(1.0054278 -5.8040736e-05 0)
(1.0054118 -5.2753722e-05 0)
(1.0053972 -4.7881745e-05 0)
(1.0053839 -4.3395166e-05 0)
(1.0053719 -3.9265907e-05 0)
(1.0053609 -3.5468373e-05 0)
(1.005351 -3.197828e-05 0)
(1.0053421 -2.8773503e-05 0)
(1.005334 -2.5833049e-05 0)
(1.0053268 -2.3137846e-05 0)
(1.0053202 -2.0669841e-05 0)
(1.0053144 -1.8412704e-05 0)
(1.0053092 -1.6351036e-05 0)
(1.0053045 -1.4470978e-05 0)
(1.0053004 -1.2759516e-05 0)
(1.0052967 -1.1204977e-05 0)
(1.0052934 -9.7963971e-06 0)
(1.0052906 -8.5239183e-06 0)
(1.0052881 -7.3782222e-06 0)
(1.0052859 -6.3508257e-06 0)
(1.005284 -5.4335859e-06 0)
(1.0052824 -4.618927e-06 0)
(1.005281 -3.8994411e-06 0)
(1.0052798 -3.2680666e-06 0)
(1.0052788 -2.7177997e-06 0)
(1.005278 -2.2418554e-06 0)
(1.0052773 -1.8334901e-06 0)
(1.0052767 -1.486154e-06 0)
(1.0052762 -1.1934079e-06 0)
(1.0052759 -9.4906417e-07 0)
(1.0052755 -7.4716753e-07 0)
(1.0052753 -5.8210912e-07 0)
(1.0052751 -4.4863762e-07 0)
(1.005275 -3.4193551e-07 0)
(1.0052748 -2.5762974e-07 0)
(1.0052747 -1.9182508e-07 0)
(1.0052747 -1.4109911e-07 0)
(1.0052746 -1.0249837e-07 0)
(1.0052746 -7.3510021e-08 0)
(1.0052746 -5.2037235e-08 0)
(1.0052745 -3.6349835e-08 0)
(1.0052745 -2.5059231e-08 0)
(1.0052745 -1.7046074e-08 0)
(1.0052745 -1.1455748e-08 0)
(1.0052745 -7.6030934e-09 0)
(1.0052745 -5.0087799e-09 0)
(1.0052745 -3.2677803e-09 0)
(1.0052745 -2.1464919e-09 0)
(1.0052745 -1.402874e-09 0)
(1.0052745 -9.5962909e-10 0)
(1.0052745 -6.6081289e-10 0)
(1.0052745 -5.2186076e-10 0)
(1.0052745 -4.4320048e-10 0)
(1.0052745 -4.6652715e-10 0)
(1.0052745 -5.8916297e-10 0)
(1.0052745 -6.967133e-10 0)
(1.0052745 -1.1793039e-09 0)
(1.0052745 -1.1604812e-09 0)
(1.0052745 -2.0030482e-09 0)
(0.71617266 -0.00026577996 0)
(0.71661622 -0.001148801 0)
(0.71594105 -0.001600329 0)
(0.71501629 -0.00155926 0)
(0.71420921 -0.0013027774 0)
(0.71352832 -0.0010527049 0)
(0.71290595 -0.00087605954 0)
(0.71231278 -0.00075379329 0)
(0.71175388 -0.0006562405 0)
(0.71124051 -0.00057054974 0)
(0.71077644 -0.00049610386 0)
(0.71035836 -0.0004343218 0)
(0.70998044 -0.00038428978 0)
(0.70963738 -0.00034337353 0)
(0.70932512 -0.00030895426 0)
(0.7090405 -0.00027926394 0)
(0.70878074 -0.00025329299 0)
(0.70854336 -0.00023041635 0)
(0.70832607 -0.00021014392 0)
(0.70812692 -0.00019205166 0)
(0.7079442 -0.00017578809 0)
(0.70777641 -0.00016108162 0)
(0.70762225 -0.00014772534 0)
(0.70748056 -0.00013555715 0)
(0.70735029 -0.00012444274 0)
(0.70723051 -0.00011426854 0)
(0.70712036 -0.00010493689 0)
(0.7070191 -9.6364642e-05 0)
(0.70692601 -8.8479685e-05 0)
(0.70684047 -8.1219768e-05 0)
(0.7067619 -7.4529721e-05 0)
(0.70668975 -6.8361128e-05 0)
(0.70662354 -6.2670396e-05 0)
(0.70656281 -5.7418943e-05 0)
(0.70650716 -5.2571665e-05 0)
(0.70645618 -4.8097247e-05 0)
(0.70640954 -4.3966882e-05 0)
(0.70636689 -4.0154701e-05 0)
(0.70632794 -3.6636714e-05 0)
(0.7062924 -3.339127e-05 0)
(0.70626 -3.0398135e-05 0)
(0.7062305 -2.7638974e-05 0)
(0.70620368 -2.5096569e-05 0)
(0.70617933 -2.2755268e-05 0)
(0.70615725 -2.0600299e-05 0)
(0.70613726 -1.8618209e-05 0)
(0.7061192 -1.6796279e-05 0)
(0.7061029 -1.512292e-05 0)
(0.70608823 -1.3587162e-05 0)
(0.70607505 -1.2179031e-05 0)
(0.70606323 -1.0889109e-05 0)
(0.70605267 -9.7088676e-06 0)
(0.70604326 -8.6302789e-06 0)
(0.70603488 -7.6461088e-06 0)
(0.70602747 -6.7495858e-06 0)
(0.70602092 -5.9346259e-06 0)
(0.70601517 -5.1955372e-06 0)
(0.70601013 -4.5271934e-06 0)
(0.70600573 -3.9247757e-06 0)
(0.70600193 -3.3838896e-06 0)
(0.70599864 -2.9003419e-06 0)
(0.70599583 -2.4702229e-06 0)
(0.70599343 -2.089732e-06 0)
(0.7059914 -1.7552353e-06 0)
(0.70598969 -1.4631445e-06 0)
(0.70598827 -1.2099692e-06 0)
(0.70598709 -9.9225059e-07 0)
(0.70598613 -8.0661229e-07 0)
(0.70598535 -6.4974021e-07 0)
(0.70598471 -5.1843229e-07 0)
(0.70598421 -4.0960835e-07 0)
(0.70598381 -3.2034964e-07 0)
(0.7059835 -2.4792402e-07 0)
(0.70598326 -1.8980846e-07 0)
(0.70598307 -1.4371273e-07 0)
(0.70598293 -1.075789e-07 0)
(0.70598283 -7.9600584e-08 0)
(0.70598275 -5.820194e-08 0)
(0.7059827 -4.2049678e-08 0)
(0.70598266 -3.0010791e-08 0)
(0.70598263 -2.1165426e-08 0)
(0.70598261 -1.4748281e-08 0)
(0.7059826 -1.0168315e-08 0)
(0.70598259 -6.9349716e-09 0)
(0.70598258 -4.6986557e-09 0)
(0.70598257 -3.1590646e-09 0)
(0.70598257 -2.1323984e-09 0)
(0.70598257 -1.4341411e-09 0)
(0.70598257 -9.9091642e-10 0)
(0.70598257 -6.8084671e-10 0)
(0.70598257 -5.0653525e-10 0)
(0.70598257 -3.6842011e-10 0)
(0.70598257 -3.2917747e-10 0)
(0.70598257 -2.8656592e-10 0)
(0.70598257 -3.5356957e-10 0)
(0.70598257 -4.1318113e-10 0)
(0.70598256 -6.0853487e-10 0)
(0.70598257 -9.5534729e-10 0)
(0.70598256 -7.3661821e-10 0)
(0.70598256 -1.5531414e-09 0)
(0.29149438 -0.00022954626 0)
(0.29099968 -0.00066517842 0)
(0.28989987 -0.00072779023 0)
(0.2887987 -0.00055599289 0)
(0.28791685 -0.00036483437 0)
(0.28724455 -0.0002438224 0)
(0.28671258 -0.00018310781 0)
(0.2862683 -0.00014990168 0)
(0.2858862 -0.00012521379 0)
(0.28555553 -0.00010443824 0)
(0.28526924 -8.806537e-05 0)
(0.28501995 -7.616024e-05 0)
(0.28480045 -6.7585323e-05 0)
(0.2846049 -6.0971633e-05 0)
(0.28442911 -5.5410942e-05 0)
(0.2842702 -5.0505093e-05 0)
(0.28412603 -4.6125037e-05 0)
(0.28399487 -4.2211447e-05 0)
(0.28387524 -3.8699522e-05 0)
(0.28376591 -3.5523063e-05 0)
(0.28366583 -3.2628678e-05 0)
(0.28357411 -2.9980759e-05 0)
(0.28348998 -2.7553989e-05 0)
(0.28341276 -2.5328429e-05 0)
(0.28334185 -2.3285092e-05 0)
(0.28327673 -2.1407141e-05 0)
(0.2832169 -1.9678821e-05 0)
(0.28316194 -1.8086967e-05 0)
(0.28311145 -1.6619355e-05 0)
(0.28306509 -1.5265767e-05 0)
(0.28302252 -1.4016404e-05 0)
(0.28298345 -1.286305e-05 0)
(0.28294761 -1.1797708e-05 0)
(0.28291475 -1.0813745e-05 0)
(0.28288464 -9.9046033e-06 0)
(0.28285707 -9.0648527e-06 0)
(0.28283185 -8.2890206e-06 0)
(0.28280879 -7.5726077e-06 0)
(0.28278773 -6.9110071e-06 0)
(0.28276852 -6.300437e-06 0)
(0.28275101 -5.7369684e-06 0)
(0.28273507 -5.2173998e-06 0)
(0.28272057 -4.7383658e-06 0)
(0.28270742 -4.2971252e-06 0)
(0.28269549 -3.8907678e-06 0)
(0.28268469 -3.516941e-06 0)
(0.28267493 -3.1731307e-06 0)
(0.28266612 -2.8573068e-06 0)
(0.2826582 -2.5672909e-06 0)
(0.28265108 -2.3013412e-06 0)
(0.2826447 -2.0575869e-06 0)
(0.282639 -1.8345393e-06 0)
(0.28263392 -1.6306004e-06 0)
(0.2826294 -1.4445135e-06 0)
(0.2826254 -1.2749308e-06 0)
(0.28262187 -1.1207954e-06 0)
(0.28261876 -9.8097184e-07 0)
(0.28261605 -8.5456839e-07 0)
(0.28261368 -7.4062312e-07 0)
(0.28261163 -6.3836382e-07 0)
(0.28260987 -5.4695246e-07 0)
(0.28260835 -4.65692e-07 0)
(0.28260707 -3.9382464e-07 0)
(0.28260598 -3.3069074e-07 0)
(0.28260507 -2.755795e-07 0)
(0.28260431 -2.2784755e-07 0)
(0.28260368 -1.868158e-07 0)
(0.28260316 -1.5185529e-07 0)
(0.28260275 -1.2232303e-07 0)
(0.28260241 -9.7618781e-08 0)
(0.28260214 -7.7150538e-08 0)
(0.28260193 -6.0369447e-08 0)
(0.28260177 -4.6756364e-08 0)
(0.28260164 -3.5835636e-08 0)
(0.28260154 -2.7175023e-08 0)
(0.28260147 -2.0384876e-08 0)
(0.28260141 -1.5127053e-08 0)
(0.28260137 -1.1101374e-08 0)
(0.28260134 -8.0608971e-09 0)
(0.28260132 -5.7888791e-09 0)
(0.28260131 -4.1186553e-09 0)
(0.2826013 -2.9014563e-09 0)
(0.28260129 -2.0320322e-09 0)
(0.28260129 -1.4121886e-09 0)
(0.28260128 -9.8371923e-10 0)
(0.28260128 -6.8259506e-10 0)
(0.28260128 -4.816801e-10 0)
(0.28260128 -3.381123e-10 0)
(0.28260128 -2.4796521e-10 0)
(0.28260128 -1.7846312e-10 0)
(0.28260127 -1.4238876e-10 0)
(0.28260127 -1.0950674e-10 0)
(0.28260127 -1.1018336e-10 0)
(0.28260127 -1.0501567e-10 0)
(0.28260127 -1.4315371e-10 0)
(0.28260127 -1.8183459e-10 0)
(0.28260127 -3.2803558e-10 0)
(0.28260127 -3.9651018e-10 0)
(0.28260127 -3.459669e-10 0)
(0.28260127 -7.7273104e-10 0)
)
;

boundaryField
{
    top
    {
        type            fixedValue;
        value           uniform (0 0 0);
    }
    inlet
    {
        type            pressureNormalInletOutletVelocity;
        phi             phi;
        rho             rho;
        value           nonuniform List<vector> 10((0.29155949 0 0) (0.71635039 0 0) (1.0075717 0 0) (1.1879314 0 0) (1.2738457 0 0) (1.2738456 -0 0) (1.1879315 -0 0) (1.0075716 -0 0) (0.71635038 -0 0) (0.2915596 -0 0));
    }
    outlet
    {
        type            zeroGradient;
    }