/*--------------------------------*- C++ -*----------------------------------*\
| =========                 |                                                 |
| \\      /  F ield         | OpenFOAM: The Open Source CFD Toolbox           |
|  \\    /   O peration     | Version:  v1812                                 |
|   \\  /    A nd           | Web:      www.OpenFOAM.com                      |
|    \\/     M anipulation  |                                                 |
\*---------------------------------------------------------------------------*/
FoamFile
{
    version     2.0;
    format      ascii;
    class       surfaceScalarField;
    location    "16.95";
    object      phi;
}
// * * * * * * * * * * * * * * * * * * * * * * * * * * * * * * * * * * * * * //

dimensions      [0 3 -1 0 0 0 0];
oriented        oriented;


internalField   nonuniform List<scalar> 
1890
(
0.0093061958
0.00069380425
0.0082843931
0.0010218027
0.0073298986
0.00095449446
0.0064869553
0.00084294331
0.0057695845
0.00071737078
0.00518986
0.00057972443
0.004738168
0.00045169205
0.00439519
0.00034297802
0.0041390268
0.00025616318
0.003949107
0.00018991983
0.003807888
0.00014121897
0.0037013782
0.0001065098
0.003619058
8.2320219e-05
0.0035534117
6.5646243e-05
0.0034992845
5.4127248e-05
0.0034532444
4.6040037e-05
0.0034130502
4.0194282e-05
0.0033772574
3.5792748e-05
0.0033449386
3.2318757e-05
0.0033154894
2.9449282e-05
0.0032885008
2.6988584e-05
0.0032636805
2.4820307e-05
0.003240805
2.2875485e-05
0.0032196926
2.1112417e-05
0.0032001879
1.9504651e-05
0.0031821539
1.8034007e-05
0.0031654672
1.6686718e-05
0.0031500158
1.5451356e-05
0.0031356979
1.4317861e-05
0.0031224209
1.3277072e-05
0.0031101003
1.2320597e-05
0.0030986596
1.1440728e-05
0.0030880291
1.0630443e-05
0.0030781458
9.8833728e-06
0.003068952
9.193775e-06
0.0030603955
8.5564952e-06
0.0030524285
7.9669129e-06
0.0030450076
7.4208963e-06
0.0030380929
6.9147419e-06
0.0030316478
6.4451208e-06
0.0030256387
6.0090557e-06
0.0030200349
5.6038478e-06
0.0030148078
5.2270771e-06
0.0030099313
4.8765428e-06
0.003005381
4.5502532e-06
0.0030011346
4.2464041e-06
0.0029971713
3.9633379e-06
0.0029934717
3.6995585e-06
0.002990018
3.4536787e-06
0.0029867936
3.2244197e-06
0.002983783
3.0106186e-06
0.0029809718
2.811176e-06
0.0029783467
2.6250947e-06
0.0029758953
2.4514444e-06
0.002973606
2.2893595e-06
0.0029714679
2.1380632e-06
0.0029694711
1.9968113e-06
0.0029676061
1.8649546e-06
0.0029658642
1.7418591e-06
0.0029642372
1.6269399e-06
0.0029627176
1.5196521e-06
0.0029612982
1.4194671e-06
0.0029599723
1.3259067e-06
0.0029587338
1.2385116e-06
0.002957577
1.1568618e-06
0.0029564964
1.0805847e-06
0.002955487
1.0093247e-06
0.0029545442
9.4276797e-07
0.0029536635
8.8063408e-07
0.0029528409
8.2261819e-07
0.0029520724
7.6846665e-07
0.0029513546
7.1789749e-07
0.002950684
6.7064881e-07
0.0029500575
6.26485e-07
0.0029494724
5.8519181e-07
0.0029489258
5.4658014e-07
0.0029484152
5.105125e-07
0.0029479383
4.7681398e-07
0.0029474929
4.4539928e-07
0.0029470768
4.1607773e-07
0.002946688
3.8875236e-07
0.0029463249
3.6320914e-07
0.0029459856
3.3935573e-07
0.0029456687
3.1698322e-07
0.0029453726
2.9608147e-07
0.0029450962
2.7642298e-07
0.0029448379
2.5821336e-07
0.0029445967
2.410589e-07
0.0029443712
2.2532851e-07
0.0029441609
2.1041323e-07
0.0029439642
1.9684742e-07
0.0029437803
1.8377439e-07
0.0029436083
1.7211482e-07
0.002943448
1.6037779e-07
0.0029432978
1.5018622e-07
0.0029431574
1.4029383e-07
0.0029430254
1.3211057e-07
0.0029429003
1.2511454e-07
0.0029427808
1.1941563e-07
1.2577304e-07
0.010339525
0.00035427931
0.010570754
0.00079057333
0.010606301
0.00091894817
0.010547572
0.00090167133
0.010422317
0.0008426262
0.010244356
0.00075768557
0.010039421
0.00065662743
0.0098287427
0.00055365586
0.009625135
0.00045977083
0.0094353013
0.00037975353
0.0092624277
0.00031409258
0.0091075333
0.00026140425
0.008970154
0.00021969948
0.0088489024
0.00018689785
0.0087419716
0.00016105801
0.0086474927
0.00014051893
0.008563694
0.00012399295
0.0084890108
0.00011047599
0.0084221097
9.9219866e-05
0.0083618776
8.9681404e-05
0.0083073955
8.1470668e-05
0.0082579079
7.4307848e-05
0.0082127929
6.7990494e-05
0.0081715353
6.2369983e-05
0.008133705
5.7335006e-05
0.0080989388
5.2800173e-05
0.0080669273
4.8698254e-05
0.0080374037
4.4974948e-05
0.0080101362
4.1585385e-05
0.0079849214
3.8491847e-05
0.0079615798
3.5662157e-05
0.0079399519
3.3068617e-05
0.0079198952
3.0687178e-05
0.0079012817
2.8496856e-05
0.0078839962
2.6479246e-05
0.0078679346
2.4618145e-05
0.0078530022
2.2899243e-05
0.0078391133
2.1309845e-05
0.0078261894
1.9838662e-05
0.0078141589
1.8475613e-05
0.0078029563
1.7211668e-05
0.0077925214
1.6038729e-05
0.007782799
1.4949483e-05
0.0077737382
1.3937341e-05
0.0077652921
1.2996324e-05
0.0077574175
1.2121003e-05
0.0077500744
1.1306451e-05
0.0077432258
1.0548147e-05
0.0077368375
9.8419702e-06
0.0077308778
9.1841334e-06
0.0077253173
8.5711451e-06
0.0077201286
7.9998138e-06
0.0077152866
7.4671666e-06
0.0077107675
6.970485e-06
0.0077065496
6.50725e-06
0.0077026125
6.0751348e-06
0.0076989373
5.6720143e-06
0.0076955064
5.295897e-06
0.0076923033
4.9449566e-06
0.0076893128
4.6174703e-06
0.0076865206
4.311834e-06
0.0076839135
4.0265674e-06
0.0076814792
3.7602623e-06
0.007679206
3.511641e-06
0.0076770834
3.2795023e-06
0.0076751012
3.0627413e-06
0.0076732501
2.8603529e-06
0.0076715215
2.6713909e-06
0.0076699072
2.494974e-06
0.0076683996
2.3302873e-06
0.0076669915
2.1765254e-06
0.0076656765
2.0329402e-06
0.0076644483
1.8988371e-06
0.0076633013
1.7735423e-06
0.0076622299
1.656493e-06
0.0076612293
1.547131e-06
0.0076602948
1.4450064e-06
0.007659422
1.3496375e-06
0.0076586068
1.2606487e-06
0.0076578453
1.1775495e-06
0.0076571341
1.1000376e-06
0.0076564698
1.0275332e-06
0.0076558493
9.5989751e-07
0.0076552697
8.9649636e-07
0.0076547283
8.3743266e-07
0.0076542228
7.8189192e-07
0.0076537505
7.3046516e-07
0.0076533094
6.8214347e-07
0.0076528972
6.3761105e-07
0.0076525127
5.9497143e-07
0.0076521528
5.5671058e-07
0.0076518171
5.195351e-07
0.0076515027
4.864e-07
0.0076512105
4.5244964e-07
0.0076509355
4.2510265e-07
0.0076506807
3.9525757e-07
0.0076504386
3.7432543e-07
0.0076502165
3.4710114e-07
0.0076499999
3.3608062e-07
3.1077798e-07
0.010188704
0.00016557515
0.010530487
0.00044879097
0.010851453
0.00059798174
0.011124174
0.00062895021
0.011350581
0.00061621883
0.011524486
0.00058378053
0.01164633
0.00053478419
0.011724155
0.00047583049
0.011767999
0.00041592665
0.011786639
0.00036111399
0.011787114
0.0003136171
0.011775058
0.00027346024
0.011754861
0.00023989717
0.011729768
0.00021199029
0.011702054
0.00018877259
0.011673239
0.00016933387
0.011644339
0.00015289295
0.011616003
0.00013881182
0.011588629
0.00012659378
0.011562446
0.00011586444
0.011537572
0.00010634493
0.011514052
9.782699e-05
0.01149189
9.0153353e-05
0.011471056
8.3203357e-05
0.011451509
7.6882604e-05
0.011433193
7.1115552e-05
0.011416051
6.5840285e-05
0.011400021
6.1004897e-05
0.011385042
5.6565059e-05
0.011371051
5.2482327e-05
0.01135799
4.8723022e-05
0.011345801
4.5257386e-05
0.01133443
4.2058996e-05
0.011323822
3.9104276e-05
0.011313929
3.6372124e-05
0.011304704
3.3843608e-05
0.011296101
3.1501693e-05
0.01128808
2.9331019e-05
0.011280601
2.7317703e-05
0.011273628
2.544918e-05
0.011267125
2.3714056e-05
0.011261062
2.2101959e-05
0.011255408
2.0603463e-05
0.011250135
1.9209954e-05
0.011245218
1.7913571e-05
0.011240632
1.6707116e-05
0.011236354
1.5583983e-05
0.011232364
1.4538117e-05
0.011228643
1.3563934e-05
0.01122517
1.2656301e-05
0.011221931
1.181049e-05
0.011218909
1.1022111e-05
0.011216089
1.0287138e-05
0.011213457
9.601824e-06
0.011211002
8.9627162e-06
0.01120871
8.3666277e-06
0.011206572
7.8105957e-06
0.011204576
7.2918844e-06
0.011202713
6.8079266e-06
0.011200974
6.3563529e-06
0.011199351
5.9349624e-06
0.011197836
5.5416807e-06
0.011196421
5.1746162e-06
0.011195101
4.83198e-06
0.011193868
4.5121387e-06
0.011192718
4.2135616e-06
0.011191643
3.9348307e-06
0.01119064
3.6746262e-06
0.011189703
3.4317194e-06
0.011188829
3.2049295e-06
0.011188012
2.9931977e-06
0.011187249
2.7954721e-06
0.011186537
2.6108283e-06
0.011185873
2.4383741e-06
0.011185252
2.2773326e-06
0.011184672
2.1269194e-06
0.01118413
1.9865057e-06
0.011183625
1.8553628e-06
0.011183152
1.73299e-06
0.011182711
1.6186446e-06
0.011182299
1.5119434e-06
0.011181915
1.4121254e-06
0.011181556
1.3190681e-06
0.01118122
1.2318438e-06
0.011180907
1.1506861e-06
0.011180614
1.0745054e-06
0.011180341
1.0040996e-06
0.011180086
9.3726452e-07
0.011179847
8.7618633e-07
0.011179625
8.1775167e-07
0.011179416
7.6533553e-07
0.011179222
7.1276279e-07
0.01117904
6.6810325e-07
0.011178872
6.2103057e-07
0.011178712
5.8530856e-07
0.011178566
5.4112811e-07
0.011178425
5.1515457e-07
0.0111783
4.7223736e-07
0.011178177
4.5904923e-07
4.1609676e-07
0.010097182
6.8393549e-05
0.010346961
0.0001990111
0.010662469
0.00028247385
0.010982753
0.00030866646
0.011290229
0.00030874339
0.011575251
0.00029875786
0.011829022
0.00028101344
0.012047865
0.00025698754
0.012233272
0.00023051981
0.01238924
0.00020514589
0.012520295
0.00018256234
0.012630755
0.00016299955
0.012724428
0.00014622488
0.012804515
0.0001319031
0.012873613
0.00011967425
0.012933772
0.0001091746
0.012986596
0.00010006906
0.013033332
9.2076357e-05
0.01307495
8.4975243e-05
0.013112216
7.8598602e-05
0.013145739
7.2822289e-05
0.013176012
6.7553924e-05
0.013203441
6.272391e-05
0.013228366
5.8278885e-05
0.013251071
5.4176981e-05
0.013271802
5.0384426e-05
0.01329077
4.6873156e-05
0.013308155
4.3619168e-05
0.013324119
4.0601446e-05
0.0133388
3.7801266e-05
0.013352321
3.5201741e-05
0.013364791
3.2787523e-05
0.013376306
3.0544589e-05
0.01338695
2.8460089e-05
0.0133968
2.6522224e-05
0.013405923
2.472014e-05
0.013414381
2.3043848e-05
0.013422228
2.1484149e-05
0.013429513
2.0032564e-05
0.013436281
1.8681273e-05
0.013442572
1.7423064e-05
0.013448423
1.6251281e-05
0.013453866
1.5159764e-05
0.013458933
1.4142833e-05
0.013463652
1.3195226e-05
0.013468047
1.2312076e-05
0.013472142
1.1488877e-05
0.013475958
1.0721447e-05
0.013479517
1.0005917e-05
0.013482834
9.3386944e-06
0.013485928
8.7164418e-06
0.013488814
8.1360735e-06
0.013491507
7.5947032e-06
0.013494019
7.08967e-06
0.013496363
6.6184989e-06
0.013498551
6.1788892e-06
0.013500593
5.7686983e-06
0.013502499
5.3859245e-06
0.013504278
5.0287143e-06
0.013505939
4.6953365e-06
0.01350749
4.3841729e-06
0.013508938
4.0937363e-06
0.01351029
3.82262e-06
0.013511552
3.5695362e-06
0.013512731
3.3332775e-06
0.013513832
3.1127238e-06
0.01351486
2.9068312e-06
0.01351582
2.7146106e-06
0.013516716
2.5351504e-06
0.013517554
2.3675934e-06
0.013518336
2.2111259e-06
0.013519066
2.0650114e-06
0.013519748
1.9285713e-06
0.013520386
1.8011474e-06
0.013520981
1.6821851e-06
0.013521537
1.5710856e-06
0.013522056
1.46738e-06
0.013522541
1.3705113e-06
0.013522994
1.2801015e-06
0.013523417
1.1955929e-06
0.013523812
1.1167381e-06
0.013524181
1.0429433e-06
0.013524526
9.7418793e-07
0.013524848
9.0972327e-07
0.013525148
8.4991923e-07
0.01352543
7.9365599e-07
0.013525693
7.4159578e-07
0.013525937
6.9215222e-07
0.013526166
6.4739578e-07
0.01352638
6.0397808e-07
0.013526581
5.6507765e-07
0.013526766
5.2581098e-07
0.01352694
4.9378103e-07
0.013527104
4.5847553e-07
0.013527257
4.3260658e-07
0.013527399
3.9886325e-07
0.013527533
3.8077311e-07
0.013527658
3.47046e-07
0.01352778
3.3801502e-07
3.0566132e-07
0.010068394
-5.0902684e-12
0.010267405
-1.3192664e-11
0.010549879
-1.4276939e-11
0.010858545
-1.224613e-11
0.011167288
-9.5591296e-12
0.011466046
-9.6489749e-12
0.01174706
-1.0613746e-11
0.012004047
-1.2078149e-11
0.012234567
-1.3219546e-11
0.012439713
-1.4691712e-11
0.012622275
-1.5470652e-11
0.012785275
-1.5179068e-11
0.0129315
-1.4454812e-11
0.013063403
-1.2225097e-11
0.013183077
-9.7483062e-12
0.013292252
-9.0777699e-12
0.013392321
-9.7522635e-12
0.013484397
-1.0010905e-11
0.013569373
-8.4599211e-12
0.013647971
-8.3107177e-12
0.013720793
-1.138818e-11
0.013788347
-1.4813865e-11
0.013851071
-1.3416428e-11
0.01390935
-1.0652329e-11
0.013963527
-7.785787e-12
0.014013912
-5.6805901e-12
0.014060785
-6.8454157e-12
0.014104404
-9.7666343e-12
0.014145005
-1.1304304e-11
0.014182807
-1.2648713e-11
0.014218009
-1.1716827e-11
0.014250796
-1.0964776e-11
0.014281341
-9.5266224e-12
0.014309801
-8.0783517e-12
0.014336323
-6.0812396e-12
0.014361043
-2.5700593e-12
0.014384087
2.3997343e-12
0.014405571
7.0199014e-12
0.014425604
9.875437e-12
0.014444285
1.0522784e-11
0.014461708
8.887081e-12
0.014477959
4.3338986e-12
0.014493119
4.9228459e-13
0.014507262
-4.0922616e-12
0.014520457
-5.9643687e-12
0.014532769
-4.4209683e-12
0.014544258
-1.0512574e-12
0.014554979
4.3307629e-12
0.014564985
1.1051654e-11
0.014574324
1.8519506e-11
0.01458304
2.1435894e-11
0.014591177
1.4759821e-11
0.014598771
5.2763707e-12
0.014605861
-7.1073988e-12
0.014612479
-1.7269896e-11
0.014618658
-1.8368837e-11
0.014624427
-9.5657178e-12
0.014629813
2.6364855e-12
0.014634842
1.8856642e-11
0.014639537
2.7965523e-11
0.014643921
2.8259628e-11
0.014648015
1.9441097e-11
0.014651837
7.3216605e-12
0.014655407
-9.1072492e-12
0.01465874
-2.1708693e-11
0.014661853
-2.2074586e-11
0.01466476
-1.3410902e-11
0.014667474
1.0937288e-12
0.01467001
2.378257e-11
0.014672377
3.5884624e-11
0.014674588
3.7316161e-11
0.014676653
2.1225239e-11
0.014678582
2.452428e-12
0.014680383
-2.2319837e-11
0.014682065
-3.9716016e-11
0.014683637
-3.2631611e-11
0.014685104
-1.1412712e-11
0.014686474
1.5597903e-11
0.014687754
4.3048763e-11
0.01468895
4.7612637e-11
0.014690066
3.0433942e-11
0.014691109
5.3645975e-12
0.014692084
-2.8521727e-11
0.014692994
-4.2874301e-11
0.014693843
-2.2481225e-11
0.014694636
-1.016875e-11
0.01469538
2.7252653e-12
0.014696072
4.5982695e-11
0.014696717
1.0531149e-10
0.014697321
4.0879483e-11
0.014697889
-5.6237324e-11
0.014698413
-6.7864359e-11
0.014698905
-8.3135865e-11
0.014699365
9.9736034e-12
0.0146998
1.4829696e-10
0.014700197
1.0699276e-10
0.014700576
-6.2240954e-11
0.014700924
-1.4952187e-10
0.014701263
-9.0704987e-11
-4.5138022e-11
0.010068394
-6.8393558e-05
0.010267405
-0.00019901113
0.010549879
-0.00028247388
0.010858545
-0.00030866649
0.011167288
-0.00030874342
0.011466046
-0.00029875789
0.01174706
-0.00028101346
0.012004047
-0.00025698756
0.012234567
-0.00023051983
0.012439713
-0.00020514591
0.012622275
-0.00018256236
0.012785275
-0.00016299958
0.0129315
-0.00014622492
0.013063403
-0.00013190313
0.013183077
-0.00011967427
0.013292252
-0.00010917462
0.013392321
-0.00010006908
0.013484397
-9.2076369e-05
0.013569373
-8.4975255e-05
0.013647971
-7.8598617e-05
0.013720793
-7.282231e-05
0.013788347
-6.7553946e-05
0.013851071
-6.2723933e-05
0.01390935
-5.8278904e-05
0.013963527
-5.4176994e-05
0.014013912
-5.0384439e-05
0.014060785
-4.6873171e-05
0.014104404
-4.3619186e-05
0.014145005
-4.0601467e-05
0.014182807
-3.7801287e-05
0.014218008
-3.5201763e-05
0.014250796
-3.2787542e-05
0.014281341
-3.0544604e-05
0.014309801
-2.8460102e-05
0.014336323
-2.652223e-05
0.014361043
-2.4720139e-05
0.014384087
-2.3043842e-05
0.014405571
-2.1484139e-05
0.014425604
-2.0032548e-05
0.014444285
-1.8681256e-05
0.014461708
-1.7423052e-05
0.014477959
-1.6251271e-05
0.014493119
-1.5159761e-05
0.014507262
-1.4142835e-05
0.014520457
-1.3195233e-05
0.014532769
-1.2312084e-05
0.014544258
-1.1488879e-05
0.014554979
-1.072144e-05
0.014564985
-1.0005897e-05
0.014574324
-9.338665e-06
0.01458304
-8.7164161e-06
0.014591177
-8.1360509e-06
0.014598771
-7.5946963e-06
0.014605861
-7.0896801e-06
0.014612479
-6.6185188e-06
0.014618658
-6.1789082e-06
0.014624427
-5.7687054e-06
0.014629813
-5.3859206e-06
0.014634842
-5.0286929e-06
0.014639537
-4.6952947e-06
0.014643921
-4.3841323e-06
0.014648015
-4.0937027e-06
0.014651838
-3.8226078e-06
0.014655407
-3.5695455e-06
0.01465874
-3.3333097e-06
0.014661853
-3.1127622e-06
0.01466476
-2.9068519e-06
0.014667475
-2.7146082e-06
0.01467001
-2.5351231e-06
0.014672377
-2.3675374e-06
0.014674588
-2.2110797e-06
0.014676653
-2.0649814e-06
0.014678582
-1.9285698e-06
0.014680383
-1.8011798e-06
0.014682065
-1.6822276e-06
0.014683637
-1.5711214e-06
0.014685104
-1.4673905e-06
0.014686474
-1.3704936e-06
0.014687754
-1.2800656e-06
0.01468895
-1.1955411e-06
0.014690066
-1.1167009e-06
0.014691109
-1.0429464e-06
0.014692084
-9.7421021e-07
0.014692994
-9.0976105e-07
0.014693843
-8.4995156e-07
0.014694636
-7.9366803e-07
0.01469538
-7.4159662e-07
0.014696072
-6.9212275e-07
0.014696717
-6.4728573e-07
0.014697321
-6.0383315e-07
0.014697889
-5.6524625e-07
0.014698414
-5.260736e-07
0.014698905
-4.9357566e-07
0.014699365
-4.5819788e-07
0.0146998
-4.3275358e-07
0.014700197
-3.9910193e-07
0.014700576
-3.8083197e-07
0.014700924
-3.4705364e-07
0.014701263
-3.3803996e-07
-3.0570202e-07
0.010097182
-0.00016557515
0.010346961
-0.000448791
0.010662469
-0.00059798177
0.010982753
-0.00062895025
0.011290229
-0.00061621886
0.011575251
-0.00058378055
0.011829022
-0.0005347842
0.012047865
-0.0004758305
0.012233272
-0.00041592666
0.01238924
-0.000361114
0.012520295
-0.00031361712
0.012630755
-0.00027346026
0.012724428
-0.00023989719
0.012804515
-0.00021199031
0.012873613
-0.00018877261
0.012933772
-0.00016933388
0.012986596
-0.00015289296
0.013033332
-0.00013881183
0.01307495
-0.00012659379
0.013112216
-0.00011586445
0.013145739
-0.00010634494
0.013176012
-9.7827005e-05
0.013203441
-9.0153367e-05
0.013228366
-8.320337e-05
0.013251071
-7.6882619e-05
0.013271802
-7.1115566e-05
0.01329077
-6.5840297e-05
0.013308155
-6.1004912e-05
0.013324119
-5.6565073e-05
0.0133388
-5.2482342e-05
0.013352321
-4.872303e-05
0.013364791
-4.5257392e-05
0.013376305
-4.2059e-05
0.01338695
-3.9104276e-05
0.0133968
-3.6372125e-05
0.013405923
-3.3843611e-05
0.013414381
-3.1501695e-05
0.013422228
-2.9331015e-05
0.013429513
-2.7317696e-05
0.013436281
-2.5449172e-05
0.013442572
-2.371404e-05
0.013448422
-2.2101947e-05
0.013453866
-2.0603455e-05
0.013458933
-1.9209953e-05
0.013463652
-1.7913575e-05
0.013468047
-1.6707121e-05
0.013472142
-1.5583988e-05
0.013475958
-1.4538113e-05
0.013479517
-1.3563927e-05
0.013482834
-1.2656294e-05
0.013485928
-1.1810473e-05
0.013488814
-1.1022098e-05
0.013491507
-1.0287125e-05
0.013494019
-9.6018185e-06
0.013496363
-8.9627216e-06
0.013498551
-8.3666412e-06
0.013500593
-7.8106164e-06
0.013502499
-7.2918901e-06
0.013504278
-6.8079193e-06
0.013505939
-6.356336e-06
0.01350749
-5.934928e-06
0.013508938
-5.5416492e-06
0.01351029
-5.1745944e-06
0.013511552
-4.831982e-06
0.013512731
-4.5121539e-06
0.013513832
-4.2135846e-06
0.01351486
-3.9348579e-06
0.01351582
-3.6746405e-06
0.013516716
-3.4317134e-06
0.013517554
-3.2049164e-06
0.013518336
-2.9931628e-06
0.013519066
-2.7954381e-06
0.013519749
-2.610808e-06
0.013520386
-2.4383711e-06
0.013520981
-2.2773501e-06
0.013521537
-2.1269567e-06
0.013522056
-1.9865495e-06
0.013522541
-1.8553927e-06
0.013522994
-1.7329861e-06
0.013523417
-1.6186093e-06
0.013523812
-1.5118927e-06
0.013524181
-1.4120787e-06
0.013524526
-1.3190431e-06
0.013524848
-1.2318487e-06
0.013525148
-1.150769e-06
0.01352543
-1.0745718e-06
0.013525693
-1.0040582e-06
0.013525937
-9.3724311e-07
0.013526166
-8.7630747e-07
0.01352638
-8.1778519e-07
0.013526581
-7.6501634e-07
0.013526766
-7.1250176e-07
0.013526941
-6.6835464e-07
0.013527104
-6.2134994e-07
0.013527257
-5.8526038e-07
0.013527399
-5.4103373e-07
0.013527533
-5.1517663e-07
0.013527658
-4.722337e-07
0.013527779
-4.590103e-07
-4.1606682e-07
0.010188704
-0.00035427932
0.010530487
-0.00079057335
0.010851453
-0.0009189482
0.011124174
-0.00090167137
0.011350581
-0.00084262623
0.011524486
-0.00075768559
0.01164633
-0.00065662744
0.011724155
-0.00055365586
0.011767999
-0.00045977083
0.011786639
-0.00037975354
0.011787114
-0.00031409259
0.011775058
-0.00026140427
0.011754861
-0.00021969949
0.011729768
-0.00018689787
0.011702054
-0.00016105802
0.011673239
-0.00014051894
0.011644339
-0.00012399295
0.011616003
-0.00011047599
0.011588629
-9.9219868e-05
0.011562446
-8.9681405e-05
0.011537572
-8.1470672e-05
0.011514052
-7.4307852e-05
0.011491889
-6.7990501e-05
0.011471056
-6.2369993e-05
0.011451509
-5.7335016e-05
0.011433193
-5.2800185e-05
0.011416051
-4.8698267e-05
0.011400021
-4.4974956e-05
0.011385041
-4.1585393e-05
0.011371051
-3.8491849e-05
0.01135799
-3.5662158e-05
0.011345801
-3.3068613e-05
0.011334429
-3.0687172e-05
0.011323822
-2.849685e-05
0.011313929
-2.6479242e-05
0.011304704
-2.4618148e-05
0.011296101
-2.2899249e-05
0.01128808
-2.1309851e-05
0.011280601
-1.9838665e-05
0.011273628
-1.8475609e-05
0.011267125
-1.7211661e-05
0.011261062
-1.6038714e-05
0.011255408
-1.494947e-05
0.011250135
-1.3937331e-05
0.011245218
-1.299632e-05
0.011240632
-1.2121009e-05
0.011236354
-1.1306457e-05
0.011232364
-1.0548156e-05
0.011228643
-9.841978e-06
0.01122517
-9.1841361e-06
0.011221931
-8.5711467e-06
0.011218909
-7.9998027e-06
0.011216089
-7.4671508e-06
0.011213457
-6.9704655e-06
0.011211002
-6.5072349e-06
0.01120871
-6.0751382e-06
0.011206572
-5.6720287e-06
0.011204576
-5.295922e-06
0.011202713
-4.9449762e-06
0.011200974
-4.6174777e-06
0.011199351
-4.3118293e-06
0.011197836
-4.0265416e-06
0.011196422
-3.7602332e-06
0.011195101
-3.5116135e-06
0.011193868
-3.2794874e-06
0.011192718
-3.0627473e-06
0.011191643
-2.8603761e-06
0.01119064
-2.6714255e-06
0.011189703
-2.4950137e-06
0.011188829
-2.330306e-06
0.011188012
-2.1765227e-06
0.011187249
-2.0329093e-06
0.011186537
-1.8987878e-06
0.011185873
-1.7734979e-06
0.011185252
-1.6564717e-06
0.011184672
-1.5471449e-06
0.01118413
-1.4450609e-06
0.011183625
-1.3497075e-06
0.011183152
-1.2607103e-06
0.011182711
-1.1775659e-06
0.011182299
-1.1000013e-06
0.011181915
-1.0274638e-06
0.011181556
-9.5981014e-07
0.01118122
-8.964427e-07
0.011180907
-8.3743799e-07
0.011180614
-7.8196479e-07
0.011180341
-7.3056189e-07
0.011180086
-6.8219895e-07
0.011179847
-6.3766889e-07
0.011179624
-5.9502681e-07
0.011179416
-5.5653519e-07
0.011179222
-5.1915966e-07
0.01117904
-4.8630181e-07
0.011178872
-4.5280124e-07
0.011178712
-4.2542046e-07
0.011178566
-3.9518133e-07
0.011178425
-3.7415457e-07
0.0111783
-3.4705323e-07
0.011178177
-3.3599075e-07
-3.106968e-07
0.010339525
-0.00069380425
0.010570754
-0.0010218027
0.010606301
-0.00095449448
0.010547572
-0.00084294333
0.010422317
-0.0007173708
0.010244356
-0.00057972444
0.010039421
-0.00045169205
0.0098287427
-0.00034297801
0.009625135
-0.00025616318
0.0094353013
-0.00018991983
0.0092624277
-0.00014121897
0.0091075332
-0.0001065098
0.008970154
-8.2320226e-05
0.0088489023
-6.5646249e-05
0.0087419716
-5.4127255e-05
0.0086474927
-4.6040044e-05
0.008563694
-4.0194286e-05
0.0084890108
-3.5792751e-05
0.0084221096
-3.2318757e-05
0.0083618775
-2.9449283e-05
0.0083073954
-2.698858e-05
0.0082579079
-2.4820304e-05
0.0082127929
-2.2875483e-05
0.0081715353
-2.1112419e-05
0.0081337049
-1.9504656e-05
0.0080989388
-1.8034017e-05
0.0080669272
-1.6686727e-05
0.0080374036
-1.5451365e-05
0.0080101361
-1.4317864e-05
0.0079849213
-1.3277073e-05
0.0079615798
-1.2320591e-05
0.0079399519
-1.144072e-05
0.0079198951
-1.0630433e-05
0.0079012816
-9.8833635e-06
0.0078839962
-9.1937708e-06
0.0078679345
-8.5564977e-06
0.0078530022
-7.9669223e-06
0.0078391133
-7.420908e-06
0.0078261893
-6.9147503e-06
0.0078141589
-6.4451264e-06
0.0078029562
-6.0090512e-06
0.0077925214
-5.603838e-06
0.007782799
-5.2270615e-06
0.0077737382
-4.8765271e-06
0.0077652921
-4.5502442e-06
0.0077574175
-4.2464017e-06
0.0077500744
-3.9633478e-06
0.0077432258
-3.6995736e-06
0.0077368375
-3.453695e-06
0.0077308778
-3.2244368e-06
0.0077253173
-3.0106234e-06
0.0077201286
-2.8111705e-06
0.0077152866
-2.6250768e-06
0.0077107675
-2.4514168e-06
0.0077065496
-2.2893373e-06
0.0077026125
-2.1380504e-06
0.0076989373
-1.9968243e-06
0.0076955064
-1.864981e-06
0.0076923033
-1.7418922e-06
0.0076893128
-1.6269698e-06
0.0076865206
-1.5196627e-06
0.0076839135
-1.4194572e-06
0.0076814792
-1.3258752e-06
0.007679206
-1.2384692e-06
0.0076770834
-1.1568265e-06
0.0076751012
-1.080567e-06
0.0076732502
-1.0093384e-06
0.0076715216
-9.4281323e-07
0.0076699072
-8.8068761e-07
0.0076683996
-8.2266979e-07
0.0076669915
-7.6848713e-07
0.0076656765
-7.1787628e-07
0.0076644483
-6.70597e-07
0.0076633012
-6.2641707e-07
0.0076622299
-5.8513954e-07
0.0076612294
-5.4656859e-07
0.0076602949
-5.1054629e-07
0.007659422
-4.7689419e-07
0.0076586068
-4.4548554e-07
0.0076578453
-4.1613723e-07
0.0076571341
-3.8875551e-07
0.0076564698
-3.6314871e-07
0.0076558492
-3.3926441e-07
0.0076552697
-3.1688004e-07
0.0076547283
-2.9604366e-07
0.0076542229
-2.7645975e-07
0.0076537506
-2.5827249e-07
0.0076533094
-2.4117169e-07
0.0076528971
-2.25484e-07
0.0076525126
-2.104183e-07
0.0076521529
-1.9666746e-07
0.0076518172
-1.8360995e-07
0.0076515028
-1.7205783e-07
0.0076512105
-1.6040672e-07
0.0076509355
-1.5028718e-07
0.0076506807
-1.404036e-07
0.0076504385
-1.3208702e-07
0.0076502165
-1.2500173e-07
0.0076499999
-1.1933654e-07
-1.2571536e-07
0.0093061957
0.0082843931
0.0073298986
0.0064869553
0.0057695845
0.00518986
0.004738168
0.00439519
0.0041390268
0.003949107
0.003807888
0.0037013782
0.003619058
0.0035534117
0.0034992845
0.0034532444
0.0034130501
0.0033772574
0.0033449386
0.0033154893
0.0032885008
0.0032636805
0.003240805
0.0032196926
0.0032001879
0.0031821539
0.0031654672
0.0031500158
0.0031356979
0.0031224208
0.0031101003
0.0030986595
0.0030880291
0.0030781458
0.003068952
0.0030603955
0.0030524286
0.0030450076
0.0030380929
0.0030316478
0.0030256387
0.0030200349
0.0030148078
0.0030099313
0.0030053811
0.0030011347
0.0029971713
0.0029934717
0.002990018
0.0029867936
0.0029837829
0.0029809718
0.0029783467
0.0029758953
0.002973606
0.002971468
0.0029694711
0.0029676061
0.0029658642
0.0029642372
0.0029627175
0.0029612981
0.0029599722
0.0029587338
0.002957577
0.0029564965
0.0029554871
0.0029545443
0.0029536635
0.0029528408
0.0029520723
0.0029513545
0.0029506839
0.0029500575
0.0029494724
0.0029489259
0.0029484153
0.0029479384
0.0029474928
0.0029470767
0.0029466879
0.0029463248
0.0029459856
0.0029456687
0.0029453727
0.0029450963
0.002944838
0.0029445965
0.0029443711
0.002944161
0.0029439642
0.0029437802
0.0029436083
0.0029434482
0.002943298
0.0029431574
0.0029430253
0.0029429003
0.0029427809
)
;

boundaryField
{
    top
    {
        type            calculated;
        value           uniform 0;
    }
    inlet
    {
        type            calculated;
        value           nonuniform List<scalar> 10(-0.01 -0.01 -0.01 -0.01 -0.01 -0.01 -0.01 -0.01 -0.01 -0.01);
    }
    outlet
    {
        type            calculated;
        value           nonuniform List<scalar> 10(0.002942655 0.0076498148 0.011178072 0.01352789 0.014701569 0.014701569 0.01352789 0.011178072 0.0076498149 0.0029426552);
    }
    bottom
    {
        type            calculated;
        value           uniform 0;
    }
    back
    {
        type            empty;
        value           nonuniform 0();
    }
    front
    {
        type            empty;
        value           nonuniform 0();
    }
}


// ************************************************************************* //
