/*--------------------------------*- C++ -*----------------------------------*\
| =========                 |                                                 |
| \\      /  F ield         | OpenFOAM: The Open Source CFD Toolbox           |
|  \\    /   O peration     | Version:  v1812                                 |
|   \\  /    A nd           | Web:      www.OpenFOAM.com                      |
|    \\/     M anipulation  |                                                 |
\*---------------------------------------------------------------------------*/
FoamFile
{
    version     2.0;
    format      ascii;
    class       volScalarField;
    location    "1.1";
    object      p;
}
// * * * * * * * * * * * * * * * * * * * * * * * * * * * * * * * * * * * * * //

dimensions      [0 2 -2 0 0 0 0];


internalField   nonuniform List<scalar> 
1000
(
1.9868533
1.8657994
1.7698528
1.7060551
1.657323
1.6151325
1.5788312
1.5488606
1.5244198
1.5039548
1.4859791
1.4693806
1.4533976
1.4375571
1.421657
1.4055856
1.389349
1.3729733
1.3564952
1.3399471
1.3233545
1.3067354
1.2901015
1.2734599
1.2568146
1.2401677
1.2235203
1.2068728
1.1902255
1.1735784
1.1569313
1.1402844
1.1236376
1.1069907
1.090344
1.0736972
1.0570504
1.0404037
1.0237569
1.0071102
0.99046345
0.9738167
0.95716996
0.94052322
0.92387648
0.90722973
0.89058299
0.87393625
0.85728951
0.84064277
0.82399602
0.80734928
0.79070254
0.7740558
0.75740906
0.74076232
0.72411558
0.70746883
0.69082209
0.67417535
0.65752861
0.64088187
0.62423513
0.60758839
0.59094165
0.57429491
0.55764817
0.54100142
0.52435468
0.50770794
0.4910612
0.47441446
0.45776772
0.44112098
0.42447424
0.4078275
0.39118075
0.37453403
0.35788724
0.34124058
0.32459369
0.30794722
0.29130003
0.27465403
0.25800617
0.24136106
0.22471223
0.20806792
0.19141903
0.17477343
0.15812818
0.141477
0.12483843
0.10818347
0.091543334
0.074900391
0.058246692
0.041612734
0.024970389
0.0083225837
1.8696757
1.8148253
1.754146
1.7026105
1.6587934
1.6197152
1.5853536
1.5557875
1.5303834
1.5084219
1.4891022
1.4714747
1.4547112
1.4383185
1.4220331
1.4057512
1.3894107
1.3729835
1.3564847
1.3399308
1.3233393
1.3067236
1.2900933
1.2734545
1.2568112
1.2401657
1.2235191
1.2068722
1.1902252
1.1735782
1.1569313
1.1402844
1.1236375
1.1069907
1.090344
1.0736972
1.0570504
1.0404037
1.0237569
1.0071102
0.99046345
0.97381671
0.95716996
0.94052322
0.92387648
0.90722973
0.89058299
0.87393625
0.85728951
0.84064277
0.82399602
0.80734928
0.79070254
0.7740558
0.75740906
0.74076232
0.72411558
0.70746883
0.69082209
0.67417535
0.65752861
0.64088187
0.62423513
0.60758839
0.59094165
0.57429491
0.55764817
0.54100142
0.52435468
0.50770794
0.4910612
0.47441446
0.45776772
0.44112098
0.42447423
0.4078275
0.39118074
0.37453404
0.35788721
0.34124064
0.32459358
0.30794739
0.29129974
0.27465447
0.25800554
0.24136189
0.22471119
0.20806894
0.19141813
0.17477354
0.15812875
0.14147441
0.12484163
0.10817795
0.091547078
0.074895388
0.058246592
0.041619906
0.024960782
0.0083151447
1.8089731
1.7829283
1.7450128
1.7040613
1.6641714
1.6272312
1.5944436
1.5651971
1.5385408
1.5145702
1.4934334
1.4744587
1.4566912
1.4395363
1.4227318
1.4061286
1.3895948
1.373062
1.3565149
1.3399362
1.3233344
1.306716
1.2900862
1.2734489
1.2568072
1.240163
1.2235174
1.2068712
1.1902246
1.1735778
1.1569311
1.1402843
1.1236375
1.1069907
1.0903439
1.0736972
1.0570504
1.0404037
1.0237569
1.0071102
0.99046345
0.97381671
0.95716996
0.94052322
0.92387648
0.90722973
0.89058299
0.87393625
0.85728951
0.84064277
0.82399602
0.80734928
0.79070254
0.7740558
0.75740906
0.74076232
0.72411558
0.70746884
0.69082209
0.67417535
0.65752861
0.64088187
0.62423513
0.60758839
0.59094165
0.57429491
0.55764817
0.54100142
0.52435468
0.50770794
0.4910612
0.47441446
0.45776772
0.44112098
0.42447423
0.40782751
0.39118073
0.37453406
0.35788717
0.34124071
0.32459346
0.30794759
0.29129941
0.27465495
0.25800483
0.24136278
0.22471003
0.20807003
0.191417
0.17477371
0.15812909
0.14147162
0.12484509
0.10817162
0.091552153
0.074893282
0.058244855
0.041630058
0.024950121
0.0083092583
1.7796923
1.7643603
1.738071
1.7043641
1.6676224
1.6322485
1.6006459
1.5719054
1.5447267
1.5195787
1.497226
1.4772576
1.4586803
1.4408565
1.4235459
1.4065995
1.3898575
1.3732074
1.3565767
1.3399582
1.3233382
1.3067125
1.2900807
1.2734438
1.2568032
1.2401601
1.2235155
1.2068699
1.1902238
1.1735774
1.1569308
1.1402841
1.1236374
1.1069907
1.0903439
1.0736972
1.0570504
1.0404037
1.0237569
1.0071102
0.99046345
0.97381671
0.95716996
0.94052322
0.92387648
0.90722973
0.89058299
0.87393625
0.85728951
0.84064277
0.82399602
0.80734928
0.79070254
0.7740558
0.75740906
0.74076232
0.72411558
0.70746884
0.69082209
0.67417535
0.65752861
0.64088187
0.62423513
0.60758839
0.59094165
0.57429491
0.55764817
0.54100142
0.52435468
0.50770794
0.4910612
0.47441446
0.45776772
0.44112098
0.42447423
0.40782751
0.39118072
0.37453408
0.35788714
0.34124075
0.32459338
0.30794772
0.2912992
0.27465524
0.25800438
0.24136331
0.2247093
0.20807063
0.19141627
0.17477355
0.15812942
0.14146935
0.12484785
0.10816755
0.091555768
0.074893679
0.058241416
0.041637305
0.024946259
0.0083039398
1.767042
1.7552623
1.7336093
1.7035311
1.6686951
1.634262
1.6033149
1.5749533
1.5476952
1.5221049
1.4992156
1.4787695
1.4597831
1.4416093
1.4240247
1.4068871
1.3900225
1.373293
1.3566216
1.3399773
1.3233443
1.3067128
1.2900788
1.2734415
1.2568012
1.2401586
1.2235144
1.2068692
1.1902234
1.1735771
1.1569307
1.140284
1.1236374
1.1069906
1.0903439
1.0736972
1.0570504
1.0404037
1.0237569
1.0071102
0.99046345
0.97381671
0.95716996
0.94052322
0.92387648
0.90722974
0.89058299
0.87393625
0.85728951
0.84064277
0.82399603
0.80734928
0.79070254
0.7740558
0.75740906
0.74076232
0.72411558
0.70746884
0.69082209
0.67417535
0.65752861
0.64088187
0.62423513
0.60758839
0.59094165
0.57429491
0.55764817
0.54100142
0.52435468
0.50770794
0.4910612
0.47441446
0.45776772
0.44112098
0.42447423
0.40782752
0.39118071
0.37453409
0.35788713
0.34124077
0.32459334
0.30794777
0.29129911
0.27465537
0.25800418
0.24136353
0.22470898
0.20807083
0.191416
0.17477334
0.15812976
0.14146816
0.12484929
0.10816615
0.091556951
0.074894557
0.058239059
0.041640128
0.024945668
0.0083011804
1.767042
1.7552623
1.7336093
1.7035311
1.6686951
1.634262
1.6033149
1.5749533
1.5476952
1.5221049
1.4992156
1.4787695
1.4597831
1.4416093
1.4240247
1.4068871
1.3900225
1.373293
1.3566216
1.3399773
1.3233443
1.3067128
1.2900788
1.2734415
1.2568011
1.2401586
1.2235144
1.2068692
1.1902234
1.1735771
1.1569307
1.140284
1.1236374
1.1069906
1.0903439
1.0736972
1.0570504
1.0404037
1.0237569
1.0071102
0.99046345
0.97381671
0.95716996
0.94052322
0.92387648
0.90722974
0.89058299
0.87393625
0.85728951
0.84064277
0.82399603
0.80734928
0.79070254
0.7740558
0.75740906
0.74076232
0.72411558
0.70746884
0.69082209
0.67417535
0.65752861
0.64088187
0.62423513
0.60758839
0.59094165
0.57429491
0.55764817
0.54100142
0.52435468
0.50770794
0.4910612
0.47441446
0.45776772
0.44112098
0.42447423
0.40782752
0.39118071
0.37453408
0.35788713
0.34124077
0.32459334
0.30794777
0.29129911
0.27465537
0.25800418
0.24136353
0.22470898
0.20807083
0.191416
0.17477334
0.15812976
0.14146816
0.12484929
0.10816615
0.091556951
0.074894557
0.058239059
0.041640129
0.024945669
0.0083011808
1.7796923
1.7643602
1.738071
1.7043641
1.6676223
1.6322485
1.6006459
1.5719054
1.5447267
1.5195787
1.497226
1.4772576
1.4586803
1.4408565
1.4235459
1.4065995
1.3898575
1.3732074
1.3565767
1.3399582
1.3233382
1.3067125
1.2900807
1.2734438
1.2568032
1.2401601
1.2235155
1.2068699
1.1902238
1.1735774
1.1569308
1.1402841
1.1236374
1.1069907
1.0903439
1.0736972
1.0570504
1.0404037
1.0237569
1.0071102
0.99046345
0.97381671
0.95716997
0.94052322
0.92387648
0.90722974
0.89058299
0.87393625
0.85728951
0.84064277
0.82399603
0.80734928
0.79070254
0.7740558
0.75740906
0.74076232
0.72411558
0.70746884
0.69082209
0.67417535
0.65752861
0.64088187
0.62423513
0.60758839
0.59094165
0.57429491
0.55764817
0.54100142
0.52435468
0.50770794
0.4910612
0.47441446
0.45776772
0.44112098
0.42447423
0.40782751
0.39118072
0.37453408
0.35788714
0.34124075
0.32459337
0.30794772
0.2912992
0.27465524
0.25800438
0.24136331
0.2247093
0.20807063
0.19141626
0.17477355
0.15812942
0.14146935
0.12484785
0.10816755
0.091555769
0.074893679
0.058241417
0.041637308
0.024946262
0.0083039409
1.8089731
1.7829283
1.7450127
1.7040612
1.6641714
1.6272311
1.5944437
1.5651971
1.5385408
1.5145702
1.4934334
1.4744587
1.4566911
1.4395363
1.4227318
1.4061286
1.3895948
1.373062
1.3565149
1.3399362
1.3233344
1.306716
1.2900862
1.2734489
1.2568072
1.240163
1.2235174
1.2068712
1.1902246
1.1735778
1.1569311
1.1402843
1.1236375
1.1069907
1.0903439
1.0736972
1.0570504
1.0404037
1.0237569
1.0071102
0.99046345
0.97381671
0.95716997
0.94052322
0.92387648
0.90722974
0.89058299
0.87393625
0.85728951
0.84064277
0.82399603
0.80734928
0.79070254
0.7740558
0.75740906
0.74076232
0.72411558
0.70746884
0.69082209
0.67417535
0.65752861
0.64088187
0.62423513
0.60758839
0.59094165
0.57429491
0.55764816
0.54100142
0.52435468
0.50770794
0.4910612
0.47441446
0.45776772
0.44112098
0.42447423
0.40782751
0.39118073
0.37453406
0.35788716
0.34124071
0.32459346
0.30794759
0.29129941
0.27465495
0.25800483
0.24136279
0.22471003
0.20807003
0.191417
0.17477371
0.15812909
0.14147163
0.1248451
0.10817162
0.091552155
0.074893283
0.058244858
0.041630062
0.024950124
0.0083092598
1.8696758
1.8148253
1.754146
1.7026105
1.6587933
1.6197152
1.5853536
1.5557876
1.5303835
1.5084219
1.4891022
1.4714747
1.4547112
1.4383185
1.4220331
1.4057513
1.3894107
1.3729835
1.3564847
1.3399307
1.3233392
1.3067236
1.2900933
1.2734545
1.2568112
1.2401657
1.2235191
1.2068722
1.1902252
1.1735782
1.1569313
1.1402844
1.1236375
1.1069907
1.090344
1.0736972
1.0570504
1.0404037
1.0237569
1.0071102
0.99046345
0.97381671
0.95716997
0.94052322
0.92387648
0.90722974
0.89058299
0.87393625
0.85728951
0.84064277
0.82399603
0.80734928
0.79070254
0.7740558
0.75740906
0.74076232
0.72411558
0.70746884
0.69082209
0.67417535
0.65752861
0.64088187
0.62423513
0.60758839
0.59094165
0.57429491
0.55764817
0.54100142
0.52435468
0.50770794
0.4910612
0.47441446
0.45776772
0.44112098
0.42447423
0.4078275
0.39118074
0.37453404
0.35788721
0.34124064
0.32459358
0.30794739
0.29129974
0.27465447
0.25800554
0.2413619
0.22471119
0.20806893
0.19141813
0.17477354
0.15812875
0.14147442
0.12484164
0.10817795
0.09154708
0.074895388
0.058246595
0.04161991
0.024960786
0.0083151466
1.9868534
1.8657994
1.7698528
1.7060551
1.657323
1.6151325
1.5788312
1.5488606
1.5244198
1.5039548
1.485979
1.4693806
1.4533976
1.4375571
1.421657
1.4055856
1.389349
1.3729733
1.3564952
1.3399471
1.3233544
1.3067353
1.2901015
1.2734599
1.2568146
1.2401677
1.2235203
1.2068729
1.1902255
1.1735784
1.1569313
1.1402844
1.1236376
1.1069907
1.090344
1.0736972
1.0570504
1.0404037
1.0237569
1.0071102
0.99046345
0.97381671
0.95716997
0.94052322
0.92387648
0.90722974
0.89058299
0.87393625
0.85728951
0.84064277
0.82399603
0.80734928
0.79070254
0.7740558
0.75740906
0.74076232
0.72411558
0.70746884
0.69082209
0.67417535
0.65752861
0.64088187
0.62423513
0.60758839
0.59094165
0.57429491
0.55764817
0.54100142
0.52435468
0.50770794
0.4910612
0.47441446
0.45776772
0.44112098
0.42447424
0.4078275
0.39118074
0.37453402
0.35788724
0.34124058
0.32459369
0.30794722
0.29130003
0.27465404
0.25800618
0.24136106
0.22471222
0.20806791
0.19141903
0.17477343
0.15812819
0.14147701
0.12483844
0.10818347
0.091543332
0.074900389
0.058246695
0.04161274
0.024970395
0.0083225861
)
;

boundaryField
{
    top
    {
        type            zeroGradient;
    }
    inlet
    {
        type            zeroGradient;
    }
    outlet
    {
        type            fixedValue;
        value           uniform 0;
    }
    bottom
    {
        type            zeroGradient;
    }
    back
    {
        type            empty;
    }
    front
    {
        type            empty;
    }
}


// ************************************************************************* //
