/*--------------------------------*- C++ -*----------------------------------*\
| =========                 |                                                 |
| \\      /  F ield         | OpenFOAM: The Open Source CFD Toolbox           |
|  \\    /   O peration     | Version:  v1812                                 |
|   \\  /    A nd           | Web:      www.OpenFOAM.com                      |
|    \\/     M anipulation  |                                                 |
\*---------------------------------------------------------------------------*/
FoamFile
{
    version     2.0;
    format      ascii;
    class       surfaceScalarField;
    location    "30";
    object      phi;
}
// * * * * * * * * * * * * * * * * * * * * * * * * * * * * * * * * * * * * * //

dimensions      [0 3 -1 0 0 0 0];
oriented        oriented;


internalField   nonuniform List<scalar> 
1890
(
0.0092497313
0.000750268
0.0082906147
0.00095911607
0.0073619715
0.00092864294
0.0065318874
0.000830084
0.0058241098
0.00070777759
0.0052459817
0.00057812814
0.0047902893
0.00045569222
0.0044401162
0.00035017293
0.0041756762
0.0002644395
0.0039782296
0.0001974462
0.003831032
0.00014719711
0.0037199631
0.00011106857
0.0036336029
8.6359814e-05
0.0035634971
7.010552e-05
0.00350407
5.9426756e-05
0.0034521885
5.1880997e-05
0.0034064998
4.56881e-05
0.0033667216
3.977746e-05
0.0033330232
3.3697509e-05
0.0033055725
2.7449919e-05
0.0032842722
2.1299549e-05
0.0032686727
1.5598876e-05
0.0032580168
1.0655338e-05
0.0032513602
6.6561645e-06
0.003247711
3.648757e-06
0.0032461489
1.5617868e-06
0.0032459018
2.4669216e-07
0.0032463795
-4.779936e-07
0.0032471699
-7.9090451e-07
0.0032480147
-8.4514751e-07
0.0032487725
-7.5825369e-07
0.0032493837
-6.116162e-07
0.0032498388
-4.5559304e-07
0.0032501554
-3.1699575e-07
0.0032503616
-2.0662021e-07
0.0032504869
-1.2563228e-07
0.0032505568
-7.0252477e-08
0.0032505914
-3.4894525e-08
0.003250605
-1.393669e-08
0.0032506074
-2.6245952e-09
0.0032506045
2.6840653e-09
0.0032505997
4.534801e-09
0.0032505949
4.6022896e-09
0.0032505909
3.8880407e-09
0.0032505878
2.9593611e-09
0.0032505856
2.0838914e-09
0.0032505841
1.3763394e-09
0.0032505831
8.4886981e-10
0.0032505826
4.8658684e-10
0.0032505823
2.4785855e-10
0.0032505821
1.0390714e-10
0.0032505821
1.8843949e-11
0.003250582
-2.3082934e-11
0.0032505821
-4.3995617e-11
0.0032505821
-4.7388235e-11
0.0032505821
-4.7875894e-11
0.0032505821
-3.9275344e-11
0.0032505822
-3.8368094e-11
0.0032505822
-2.2139675e-11
0.0032505822
-3.5273668e-11
0.0032505822
6.2499981e-12
0.0032505823
-6.1426314e-11
0.0032505822
8.1494693e-11
0.0032505824
-1.8316842e-10
0.003250582
3.2280004e-10
0.0032505826
-6.0563761e-10
0.0032505816
1.0765464e-09
0.0032505834
-1.8878738e-09
0.0032505802
3.2100776e-09
0.0032505855
-5.310345e-09
0.003250577
8.502293e-09
0.0032505901
-1.3145644e-08
0.0032505706
1.9547327e-08
0.0032505984
-2.7791423e-08
0.0032505608
3.7600417e-08
0.0032506087
-4.7844954e-08
0.0032505519
5.6749366e-08
0.0032506131
-6.114281e-08
0.0032505549
5.8144514e-08
0.0032505992
-4.4280997e-08
0.0032505786
2.0548825e-08
0.0032505673
1.1309573e-08
0.0032506053
-3.7938459e-08
0.0032505523
5.2991145e-08
0.0032505842
-3.192756e-08
0.003250593
-8.7864381e-09
0.0032505005
9.2411938e-08
0.0032506342
-1.3374549e-07
0.0032504349
1.9931423e-07
0.0032505452
-1.1024416e-07
0.0032503821
1.6319634e-07
0.0032503287
5.3395942e-08
0.0032500583
2.703905e-07
0.0032499033
1.5495145e-07
0.0032493092
5.9393227e-07
0.0032485137
7.9550752e-07
0.0032483264
1.8736395e-07
0.0032465066
1.8198164e-06
0.0032492923
-2.7856228e-06
-2.5190603e-06
0.010379639
0.00037062842
0.010575315
0.00076343917
0.010628706
0.00087525262
0.010568141
0.00089064896
0.01043038
0.0008455384
0.01024704
0.00076146866
0.010041993
0.00066073901
0.0098329659
0.00055919961
0.009631465
0.00046594018
0.009443379
0.00038553203
0.0092709272
0.00031964862
0.0091140343
0.00026796125
0.0089718635
0.0002285304
0.0088436921
0.00019827684
0.0087293531
0.00017376548
0.0086292257
0.00015200815
0.0085438966
0.00013101688
0.0084737057
0.00010996799
0.008418383
8.9019767e-05
0.0083769007
6.8931733e-05
0.0083475531
5.06468e-05
0.0083281942
3.4957394e-05
0.0083165341
2.2315071e-05
0.008310405
1.2785041e-05
0.0083079458
6.107765e-06
0.0083076924
1.8149066e-06
0.0083085865
-6.4763e-07
0.0083099284
-1.8201203e-06
0.0083113029
-2.1656744e-06
0.0083124995
-2.0419772e-06
0.0083134408
-1.6998326e-06
0.0083141267
-1.2977826e-06
0.0083145946
-9.2372121e-07
0.0083148942
-6.1680107e-07
0.0083150735
-3.8614753e-07
0.0083151725
-2.2481569e-07
0.0083152212
-1.1920875e-07
0.0083152408
-5.4633926e-08
0.0083152449
-1.816039e-08
0.0083152417
3.4643466e-10
0.0083152361
8.164548e-09
0.0083152304
1.0159213e-08
0.0083152256
9.3562731e-09
0.0083152219
7.4991822e-09
0.0083152192
5.4983505e-09
0.0083152175
3.7595679e-09
0.0083152164
2.4123753e-09
0.0083152158
1.4447005e-09
0.0083152154
7.9306488e-10
0.0083152153
3.7650483e-10
0.0083152152
1.2732644e-10
0.0083152153
-1.3487732e-11
0.0083152153
-8.3116828e-11
0.0083152154
-1.1324388e-10
0.0083152154
-1.1755008e-10
0.0083152155
-1.1317847e-10
0.0083152155
-9.8083941e-11
0.0083152156
-9.0491341e-11
0.0083152156
-6.5881835e-11
0.0083152156
-7.64332e-11
0.0083152157
-2.1470258e-11
0.0083152157
-1.0068946e-10
0.0083152157
7.7806297e-11
0.0083152158
-2.4501237e-10
0.0083152157
3.7857531e-10
0.0083152159
-7.6065836e-10
0.0083152156
1.3077061e-09
0.0083152161
-2.3382014e-09
0.0083152153
3.9464143e-09
0.0083152166
-6.5891644e-09
0.0083152145
1.0571909e-08
0.0083152179
-1.6504308e-08
0.0083152127
2.4759043e-08
0.0083152206
-3.5736527e-08
0.008315209
4.9231218e-08
0.0083152255
-6.4347463e-08
0.0083152031
7.9161447e-08
0.0083152321
-9.0126157e-08
0.0083151965
9.3694391e-08
0.0083152368
-8.4501763e-08
0.0083151945
6.2842377e-08
0.0083152324
-2.6677262e-08
0.0083152022
-7.6482317e-09
0.0083152167
3.8423794e-08
0.0083152095
-2.4709909e-08
0.0083152083
-7.5745865e-09
0.0083151756
1.2506788e-07
0.0083152372
-1.953756e-07
0.0083150596
3.7699044e-07
0.0083152654
-3.1605251e-07
0.0083148718
5.5686526e-07
0.0083151379
-2.1273837e-07
0.0083145155
8.927238e-07
0.0083146858
-1.5323428e-08
0.0083134113
1.8683977e-06
0.0083132888
9.1794501e-07
0.008310072
3.4041702e-06
0.008307374
4.5179287e-06
0.0082976228
6.9655954e-06
1.202743e-05
0.010194726
0.00017590209
0.010510707
0.00044745826
0.010824564
0.00056139473
0.011104674
0.00061053934
0.011334223
0.00061598928
0.01150886
0.0005868324
0.011632919
0.00053667997
0.011714666
0.00047745204
0.011762916
0.00041768963
0.011785323
0.00036312565
0.011788077
0.00031689381
0.011776274
0.00027976395
0.011754351
0.00025045375
0.011726329
0.00022629842
0.011695844
0.00020425024
0.01166599
0.0001818622
0.011639106
0.00015790146
0.011616632
0.00013244164
0.011599121
0.00010652986
0.011586397
8.1655939e-05
0.011577798
5.9245747e-05
0.011572438
4.0317098e-05
0.011569414
2.5338964e-05
0.011567937
1.4261729e-05
0.011567393
6.6514165e-06
0.011567349
1.8592773e-06
0.011567525
-8.241271e-07
0.011567762
-2.0570646e-06
0.011567979
-2.3832547e-06
0.011568147
-2.209983e-06
0.011568262
-1.8149385e-06
0.011568333
-1.3687358e-06
0.011568372
-9.6266012e-07
0.01156839
-6.3496463e-07
0.011568396
-3.9219639e-07
0.011568396
-2.2467897e-07
0.011568393
-1.1651247e-07
0.011568389
-5.1372428e-08
0.011568386
-1.5254195e-08
0.011568384
2.5755783e-09
0.011568383
9.7161965e-09
0.011568382
1.1149059e-08
0.011568381
9.9383762e-09
0.011568381
7.8025871e-09
0.01156838
5.6291017e-09
0.01156838
3.7854493e-09
0.01156838
2.382896e-09
0.01156838
1.3850961e-09
0.01156838
7.2246721e-10
0.011568381
3.0107959e-10
0.011568381
5.4252038e-11
0.011568381
-8.4468584e-11
0.011568381
-1.4859736e-10
0.011568381
-1.7519447e-10
0.011568381
-1.736098e-10
0.011568381
-1.6545943e-10
0.011568381
-1.4484636e-10
0.011568381
-1.3329236e-10
0.011568381
-1.0462998e-10
0.011568381
-1.0963379e-10
0.011568381
-5.5633319e-11
0.011568381
-1.2137808e-10
0.011568381
3.7887756e-11
0.011568381
-2.3854957e-10
0.011568381
3.0060989e-10
0.011568381
-6.7379415e-10
0.011568381
1.0932551e-09
0.011568381
-2.008856e-09
0.011568382
3.3267179e-09
0.011568381
-5.6015883e-09
0.011568382
8.9267617e-09
0.01156838
-1.4000969e-08
0.011568384
2.0990242e-08
0.011568378
-3.0486836e-08
0.011568385
4.2236185e-08
0.011568377
-5.5891853e-08
0.011568386
6.9909752e-08
0.011568378
-8.184332e-08
0.011568383
8.8925319e-08
0.011568385
-8.6810296e-08
0.011568372
7.5788159e-08
0.011568398
-5.2738119e-08
0.011568359
3.1517214e-08
0.011568407
-9.8076038e-09
0.011568356
2.6523487e-08
0.011568403
-5.4447719e-08
0.011568358
1.6979358e-07
0.011568409
-2.4664528e-07
0.011568318
4.6860601e-07
0.011568473
-4.7101343e-07
0.011568201
8.2802193e-07
0.011568557
-5.6879376e-07
0.011568038
1.41181e-06
0.011568539
-5.1625752e-07
0.011567639
2.7683319e-06
0.011568112
4.4518035e-07
0.011565897
5.6192481e-06
0.011564736
5.6793856e-06
0.011558089
1.3612107e-05
2.373184e-05
0.010101397
7.4504436e-05
0.010347993
0.00020086152
0.010645648
0.00026373995
0.010960485
0.0002957024
0.011269274
0.00030720031
0.011555089
0.00030101717
0.011809129
0.00028264013
0.012028879
0.00025770231
0.012215802
0.00023076568
0.012373594
0.00020533416
0.012506889
0.00018359854
0.012620382
0.00016627037
0.012718166
0.0001526697
0.012803308
0.00014115657
0.012877729
0.00012982979
0.012942365
0.00011722581
0.012997526
0.00010274095
0.013043299
8.6667961e-05
0.013079899
6.992979e-05
0.013107865
5.3689814e-05
0.013128109
3.9001764e-05
0.013141836
2.659056e-05
0.013150395
1.6779755e-05
0.013155124
9.5324721e-06
0.013157221
4.5547545e-06
0.013157665
1.4145794e-06
0.013157196
-3.5500979e-07
0.013156323
-1.1835727e-06
0.013155363
-1.4236797e-06
0.013154491
-1.3382377e-06
0.013153782
-1.1060283e-06
0.01315325
-8.3680687e-07
0.013152877
-5.8948995e-07
0.013152631
-3.8906355e-07
0.013152479
-2.4030462e-07
0.013152392
-1.3758017e-07
0.013152347
-7.1265702e-08
0.013152327
-3.1355366e-08
0.013152321
-9.2670632e-09
0.013152322
1.6090205e-09
0.013152326
5.9295472e-09
0.01315233
6.7661628e-09
0.013152334
5.9877942e-09
0.013152337
4.6577427e-09
0.013152339
3.3087672e-09
0.013152341
2.1733493e-09
0.013152342
1.3095175e-09
0.013152343
7.0169406e-10
0.013152343
2.9827658e-10
0.013152344
4.8355265e-11
0.013152344
-9.7002321e-11
0.013152344
-1.7170161e-10
0.013152344
-2.0389786e-10
0.013152344
-2.0938785e-10
0.013152344
-2.0126025e-10
0.013152344
-1.8568647e-10
0.013152344
-1.6649112e-10
0.013152344
-1.4947352e-10
0.013152344
-1.266737e-10
0.013152344
-1.2026487e-10
0.013152344
-8.4720951e-11
0.013152344
-1.1407834e-10
0.013152344
-2.1406785e-11
0.013152344
-1.6996541e-10
0.013152344
1.3226535e-10
0.013152344
-4.0492002e-10
0.013152344
5.7460526e-10
0.013152344
-1.1376886e-09
0.013152345
1.804498e-09
0.013152343
-3.1107995e-09
0.013152347
4.8762024e-09
0.01315234
-7.7237253e-09
0.01315235
1.1503446e-08
0.013152336
-1.6822991e-08
0.013152355
2.3296324e-08
0.01315233
-3.110565e-08
0.013152361
3.9188329e-08
0.013152326
-4.6685507e-08
0.013152363
5.1931039e-08
0.013152329
-5.2999634e-08
0.013152355
4.9925526e-08
0.013152343
-4.0982982e-08
0.013152341
3.3725926e-08
0.013152357
-2.5859427e-08
0.013152344
3.9996862e-08
0.013152348
-5.8995702e-08
0.013152387
1.3118037e-07
0.013152322
-1.8180941e-07
0.013152461
3.2991964e-07
0.013152342
-3.5230696e-07
0.013152561
6.0864753e-07
0.013152476
-4.8398907e-07
0.013152831
1.0577621e-06
0.01315282
-5.054599e-07
0.013153582
2.0057651e-06
0.013153877
1.5019215e-07
0.013155416
4.0805072e-06
0.013157143
3.9527295e-06
0.013160794
9.9610383e-06
1.7776599e-05
0.010074504
3.5585043e-10
0.010275365
-1.0508125e-10
0.010539105
-6.0887544e-10
0.010834808
-8.0844536e-10
0.011142009
-6.224768e-10
0.011443027
-3.239098e-10
0.011725667
-1.8610963e-10
0.01198337
-3.3971335e-10
0.012214136
-6.3414879e-10
0.012419471
-9.1944772e-10
0.01260307
-1.0278168e-09
0.012769341
-1.0065859e-09
0.012922012
-8.9663208e-10
0.013063169
-8.5110271e-10
0.013193
-8.8467062e-10
0.013310227
-1.032843e-09
0.013412969
-1.2037235e-09
0.013499638
-1.3565956e-09
0.013569569
-1.4104259e-09
0.013623261
-1.3604978e-09
0.013662264
-1.2041126e-09
0.013688855
-9.8666267e-10
0.013705636
-7.4890802e-10
0.013715169
-5.3881546e-10
0.013719724
-3.861949e-10
0.013721139
-3.0811812e-10
0.013720784
-3.0183305e-10
0.013719601
-3.5510593e-10
0.013718178
-4.441855e-10
0.01371684
-5.4848592e-10
0.013715735
-6.4458418e-10
0.013714899
-7.2136114e-10
0.01371431
-7.6834683e-10
0.013713922
-7.877852e-10
0.013713683
-7.8088773e-10
0.013713546
-7.5631171e-10
0.013713476
-7.1986211e-10
0.013713445
-6.7868486e-10
0.013713436
-6.3752215e-10
0.013713439
-5.9833407e-10
0.013713445
-5.6384421e-10
0.013713452
-5.3165682e-10
0.013713459
-5.0382452e-10
0.013713464
-4.758524e-10
0.013713468
-4.5073022e-10
0.013713471
-4.235114e-10
0.013713472
-3.9845381e-10
0.013713473
-3.7071235e-10
0.013713474
-3.4550796e-10
0.013713474
-3.1793266e-10
0.013713475
-2.9352349e-10
0.013713475
-2.6718661e-10
0.013713475
-2.4454561e-10
0.013713475
-2.2024611e-10
0.013713475
-1.9985102e-10
0.013713475
-1.7793805e-10
0.013713475
-1.6012602e-10
0.013713475
-1.4096772e-10
0.013713475
-1.260462e-10
0.013713475
-1.1001454e-10
0.013713475
-9.8433502e-11
0.013713475
-8.5870645e-11
0.013713475
-7.7732137e-11
0.013713475
-6.848137e-11
0.013713475
-6.3632252e-11
0.013713475
-5.748631e-11
0.013713475
-5.564586e-11
0.013713474
-5.2353285e-11
0.013713476
-5.3247988e-11
0.013713473
-5.2737813e-11
0.013713478
-5.6088808e-11
0.01371347
-5.8306384e-11
0.013713482
-6.40225e-11
0.013713465
-6.8594357e-11
0.013713488
-7.6029001e-11
0.013713457
-8.1415462e-11
0.013713497
-8.8749119e-11
0.01371345
-9.2123261e-11
0.013713502
-9.5800374e-11
0.013713449
-9.3589863e-11
0.013713499
-9.0335999e-11
0.013713458
-8.1023895e-11
0.013713492
-7.093744e-11
0.013713466
-5.5990554e-11
0.013713506
-4.2007699e-11
0.013713447
-2.3821028e-11
0.013713579
-8.5395843e-12
0.013713397
9.9690133e-12
0.013713727
2.1741849e-11
0.013713374
3.5532086e-11
0.013713983
3.8008711e-11
0.013713499
4.8292955e-11
0.013714557
5.0595804e-11
0.013714051
7.2129839e-11
0.013716057
9.7133502e-11
0.013716207
1.1940509e-10
0.013720287
1.5683633e-10
0.01372424
1.420216e-10
0.013734201
1.4054724e-10
1.2809627e-10
0.010074504
-7.4504204e-05
0.010275365
-0.00020086174
0.010539105
-0.00026374106
0.010834808
-0.00029570391
0.011142009
-0.00030720153
0.011443027
-0.00030101789
0.011725667
-0.00028264065
0.01198337
-0.00025770311
0.012214136
-0.00023076704
0.012419471
-0.00020533599
0.01260307
-0.00018360057
0.012769341
-0.00016627233
0.012922011
-0.00015267148
0.013063169
-0.00014115825
0.013192999
-0.00012983156
0.013310226
-0.00011722784
0.013412968
-0.0001027433
0.013499638
-8.6670573e-05
0.013569569
-6.9932498e-05
0.01362326
-5.3692411e-05
0.013662263
-3.9004063e-05
0.013688855
-2.6592449e-05
0.013705635
-1.6781199e-05
0.013715168
-9.5335288e-06
0.013719724
-4.5555318e-06
0.013721139
-1.4152198e-06
0.013720784
3.5437405e-07
0.013719601
1.1828311e-06
0.013718178
1.4227676e-06
0.013716841
1.3371307e-06
0.013715735
1.1047424e-06
0.013714899
8.3538286e-07
0.013714311
5.8798175e-07
0.013713923
3.8752688e-07
0.013713683
2.387854e-07
0.013713546
1.3611441e-07
0.013713476
6.9872098e-08
0.013713445
3.0044654e-08
0.013713437
8.0367289e-09
0.013713439
-2.761849e-09
0.013713446
-7.0147517e-09
0.013713453
-7.7881182e-09
0.013713459
-6.9544491e-09
0.013713465
-5.5698101e-09
0.013713468
-4.170426e-09
0.013713471
-2.9823625e-09
0.013713473
-2.0681794e-09
0.013713474
-1.4072433e-09
0.013713474
-9.5330729e-10
0.013713475
-6.5104032e-10
0.013713475
-4.5688e-10
0.013713475
-3.3262901e-10
0.013713475
-2.5521312e-10
0.013713475
-2.0439758e-10
0.013713475
-1.7181431e-10
0.013713475
-1.4696441e-10
0.013713475
-1.3059322e-10
0.013713475
-1.1272593e-10
0.013713475
-1.0568725e-10
0.013713475
-8.3445815e-11
0.013713475
-9.5652139e-11
0.013713475
-4.4400985e-11
0.013713475
-1.2031553e-10
0.013713475
4.3753731e-11
0.013713475
-2.4788349e-10
0.013713475
2.9900842e-10
0.013713475
-6.7559126e-10
0.013713474
1.0411489e-09
0.013713476
-1.9015065e-09
0.013713473
3.0132746e-09
0.013713478
-4.979351e-09
0.01371347
7.6152678e-09
0.013713482
-1.1622301e-08
0.013713465
1.6694662e-08
0.013713488
-2.3437848e-08
0.013713457
3.0952948e-08
0.013713497
-3.9352972e-08
0.01371345
4.6513055e-08
0.013713502
-5.2107963e-08
0.013713449
5.2825292e-08
0.013713499
-5.0091693e-08
0.013713458
4.0833109e-08
0.013713492
-3.3855096e-08
0.013713466
2.5756887e-08
0.013713506
-4.0070738e-08
0.013713447
5.8954051e-08
0.013713578
-1.3119093e-07
0.013713397
1.8183136e-07
0.013713726
-3.2987501e-07
0.013713374
3.5237323e-07
0.013713983
-6.0857631e-07
0.013713499
4.8407376e-07
0.013714556
-1.0576696e-06
0.013714051
5.0559027e-07
0.013716057
-2.0055846e-06
0.013716207
-1.4996205e-07
0.013720287
-4.0802107e-06
0.01372424
-3.9524554e-06
0.013734201
-9.9607683e-06
-1.7776352e-05
0.010101397
-0.00017590129
0.010347993
-0.00044745806
0.010645648
-0.00056139539
0.010960484
-0.00061054044
0.011269273
-0.00061599031
0.011555089
-0.00058683316
0.011809129
-0.00053668068
0.012028879
-0.00047745298
0.012215802
-0.00041769098
0.012373593
-0.00036312733
0.012506888
-0.00031689562
0.012620382
-0.0002797657
0.012718165
-0.00025045539
0.012803307
-0.00022629999
0.012877728
-0.00020425189
0.012942364
-0.00018186403
0.012997524
-0.00015790354
0.013043298
-0.00013244389
0.013079898
-0.00010653218
0.013107864
-8.1658149e-05
0.013128108
-5.9247732e-05
0.013141834
-4.0318745e-05
0.013150393
-2.5340278e-05
0.013155123
-1.4262732e-05
0.01315722
-6.6522202e-06
0.013157665
-1.8599732e-06
0.013157196
8.2341577e-07
0.013156323
2.0562702e-06
0.013155364
2.3823149e-06
0.013154492
2.2088952e-06
0.013153783
1.8137099e-06
0.013153251
1.3674099e-06
0.013152878
9.6127697e-07
0.013152632
6.3357385e-07
0.013152481
3.9083354e-07
0.013152393
2.2337272e-07
0.013152348
1.1527834e-07
0.013152328
5.0215753e-08
0.013152322
1.4175257e-08
0.013152323
-3.5842778e-09
0.013152327
-1.0658813e-08
0.013152331
-1.2035027e-08
0.013152335
-1.0769227e-08
0.013152338
-8.5853032e-09
0.013152341
-6.3615894e-09
0.013152342
-4.4724086e-09
0.013152343
-3.020455e-09
0.013152344
-1.9777026e-09
0.013152344
-1.2664043e-09
0.013152344
-8.014798e-10
0.013152344
-5.0818899e-10
0.013152344
-3.2904808e-10
0.013152344
-2.2225887e-10
0.013152344
-1.5939324e-10
0.013152344
-1.2283503e-10
0.013152344
-9.9472582e-11
0.013152344
-8.7052414e-11
0.013152344
-7.2214562e-11
0.013152344
-7.3329413e-11
0.013152344
-4.7580764e-11
0.013152344
-7.9980331e-11
0.013152344
7.3067471e-13
0.013152344
-1.4251273e-10
0.013152344
1.4350691e-10
0.013152344
-3.8454241e-10
0.013152344
5.9473313e-10
0.013152344
-1.1655343e-09
0.013152344
1.936902e-09
0.013152345
-3.3963892e-09
0.013152343
5.5277381e-09
0.013152347
-9.0028627e-09
0.01315234
1.3916346e-08
0.01315235
-2.1080994e-08
0.013152336
3.0384655e-08
0.013152355
-4.2345948e-08
0.01315233
5.5770821e-08
0.013152361
-7.0036603e-08
0.013152326
8.170952e-08
0.013152363
-8.9059393e-08
0.013152329
8.6677018e-08
0.013152354
-7.5912891e-08
0.013152343
5.2623224e-08
0.01315234
-3.1613596e-08
0.013152357
9.7291469e-09
0.013152343
-2.6576003e-08
0.013152348
5.4419255e-08
0.013152386
-1.6979427e-07
0.013152321
2.4666755e-07
0.01315246
-4.6856583e-07
0.013152341
4.7106394e-07
0.013152561
-8.279704e-07
0.013152476
5.6885088e-07
0.01315283
-1.4117479e-06
0.013152819
5.1635172e-07
0.013153582
-2.7681978e-06
0.013153877
-4.4499831e-07
0.013155416
-5.6190126e-06
0.013157142
-5.6791511e-06
0.013160794
-1.3611872e-05
-2.3731623e-05
0.010194726
-0.00037062777
0.010510707
-0.0007634389
0.010824564
-0.00087525294
0.011104673
-0.00089064967
0.011334223
-0.00084553916
0.011508859
-0.00076146935
0.011632918
-0.0006607397
0.011714666
-0.00055920043
0.011762916
-0.00046594123
0.011785322
-0.00038553326
0.011788076
-0.00031964998
0.011776273
-0.00026796259
0.01175435
-0.00022853173
0.011726328
-0.00019827812
0.011695843
-0.00017376679
0.011665989
-0.00015200955
0.011639104
-0.00013101839
0.01161663
-0.00010996961
0.011599119
-8.9021429e-05
0.011586395
-6.8933381e-05
0.011577796
-5.064832e-05
0.011572436
-3.4958756e-05
0.011569412
-2.2316221e-05
0.011567936
-1.2786018e-05
0.011567393
-6.1085946e-06
0.011567349
-1.8156665e-06
0.011567526
6.4688646e-07
0.011567763
1.8193345e-06
0.011567981
2.1648154e-06
0.011568149
2.0410356e-06
0.011568264
1.6988129e-06
0.011568335
1.2967121e-06
0.011568374
9.2262292e-07
0.011568392
6.1571114e-07
0.011568398
3.8508542e-07
0.011568397
2.2380513e-07
0.011568395
1.1825666e-07
0.011568391
5.3747885e-08
0.011568388
1.7338081e-08
0.011568386
-1.1085184e-09
0.011568384
-8.8705173e-09
0.011568383
-1.0815913e-08
0.011568383
-9.9649063e-09
0.011568382
-8.0669136e-09
0.011568382
-6.0227314e-09
0.011568382
-4.2469871e-09
0.011568382
-2.858288e-09
0.011568382
-1.8560888e-09
0.011568382
-1.1647956e-09
0.011568382
-7.1600862e-10
0.011568382
-4.2969881e-10
0.011568382
-2.6015789e-10
0.011568381
-1.5713736e-10
0.011568381
-1.0204544e-10
0.011568381
-6.8314616e-11
0.011568381
-5.2081212e-11
0.011568381
-4.2200477e-11
0.011568381
-3.333932e-11
0.011568381
-3.7261658e-11
0.011568381
-1.4830812e-11
0.011568381
-5.3506819e-11
0.011568381
3.3543624e-11
0.011568381
-1.3220588e-10
0.011568381
1.9458234e-10
0.011568381
-4.1936826e-10
0.011568381
7.2077928e-10
0.011568381
-1.3407945e-09
0.011568381
2.3026151e-09
0.011568381
-3.9791447e-09
0.01156838
6.5508061e-09
0.011568382
-1.0611385e-08
0.01156838
1.6456471e-08
0.011568383
-2.4810443e-08
0.011568378
3.5676336e-08
0.011568385
-4.9293731e-08
0.011568376
6.4277472e-08
0.011568386
-7.923076e-08
0.011568377
9.0051893e-08
0.011568382
-9.3765083e-08
0.011568384
8.4428453e-08
0.011568371
-6.2909396e-08
0.011568397
2.6610624e-08
0.011568358
7.5920824e-09
0.011568406
-3.8476134e-08
0.011568355
2.4673008e-08
0.011568402
7.5483316e-09
0.011568357
-1.2507435e-07
0.011568408
1.9538359e-07
0.011568317
-3.7696743e-07
0.011568472
3.1607952e-07
0.011568201
-5.5683685e-07
0.011568557
2.127573e-07
0.011568038
-8.9270639e-07
0.011568539
1.5352536e-08
0.011567639
-1.8683514e-06
0.011568112
-9.1785246e-07
0.011565897
-3.4040407e-06
0.011564735
-4.5177786e-06
0.011558089
-6.965427e-06
-1.2027267e-05
0.010379639
-0.00075026794
0.010575315
-0.00095911611
0.010628705
-0.00092864319
0.01056814
-0.00083008434
0.010430379
-0.00070777795
0.010247039
-0.00057812852
0.010041992
-0.00045569262
0.0098329655
-0.00035017341
0.0096314645
-0.00026444007
0.0094433781
-0.00019744691
0.009270926
-0.0001471979
0.0091140328
-0.00011106946
0.0089718619
-8.6360669e-05
0.0088436904
-7.0106362e-05
0.0087293515
-5.9427515e-05
0.0086292241
-5.1881734e-05
0.008543895
-4.5688834e-05
0.008473704
-3.977824e-05
0.0084183812
-3.3698363e-05
0.0083768989
-2.7450819e-05
0.0083475513
-2.1300481e-05
0.0083281926
-1.5599767e-05
0.0083165328
-1.0656169e-05
0.0083104041
-6.6568952e-06
0.0083079453
-3.6493983e-06
0.0083076925
-1.5623505e-06
0.008308587
-2.4720538e-07
0.0083099293
4.7749458e-07
0.0083113042
7.9040794e-07
0.008312501
8.4462371e-07
0.0083134424
7.5771617e-07
0.0083141284
6.1104901e-07
0.0083145964
4.5502681e-07
0.0083148959
3.1642174e-07
0.0083150752
2.0607012e-07
0.0083151742
1.2509614e-07
0.0083152229
6.9755456e-08
0.0083152425
3.442384e-08
0.0083152465
1.350852e-08
0.0083152434
2.2244137e-09
0.0083152377
-3.0453047e-09
0.008315232
-4.8702317e-09
0.0083152271
-4.9042942e-09
0.0083152233
-4.167995e-09
0.0083152206
-3.2101776e-09
0.0083152188
-2.3147983e-09
0.0083152176
-1.5812081e-09
0.0083152169
-1.0363323e-09
0.0083152165
-6.5029483e-10
0.0083152162
-3.9585835e-10
0.0083152161
-2.3059083e-10
0.008315216
-1.3267534e-10
0.008315216
-7.184061e-11
0.0083152159
-4.0268594e-11
0.0083152159
-2.0590084e-11
0.0083152159
-1.2516589e-11
0.0083152159
-7.1709922e-12
0.0083152159
-2.5940088e-12
0.0083152159
-7.2083123e-12
0.0083152158
8.7345581e-12
0.0083152158
-2.3097303e-11
0.0083152158
4.6044859e-11
0.0083152158
-8.9210866e-11
0.0083152158
1.7499397e-10
0.0083152157
-3.2535386e-10
0.0083152158
6.0132893e-10
0.0083152156
-1.0777865e-09
0.008315216
1.8819779e-09
0.0083152152
-3.2150652e-09
0.0083152165
5.2985912e-09
0.0083152143
-8.5140231e-09
0.0083152177
1.3125789e-08
0.0083152124
-1.9565637e-08
0.0083152203
2.7767221e-08
0.0083152087
-3.7620228e-08
0.0083152251
4.7822069e-08
0.0083152027
-5.6765907e-08
0.0083152316
6.1124972e-08
0.008315196
-5.8158309e-08
0.0083152362
4.4262414e-08
0.0083151938
-2.0568956e-08
0.0083152318
-1.1339218e-08
0.0083152015
3.7904275e-08
0.0083152161
-5.303408e-08
0.0083152088
3.18885e-08
0.0083152076
8.7515637e-09
0.0083151749
-9.2429635e-08
0.0083152366
1.337399e-07
0.0083150589
-1.9930439e-07
0.0083152648
1.1025331e-07
0.0083148712
-1.6319289e-07
0.0083151374
-5.34122e-08
0.0083145151
-2.7041904e-07
0.0083146854
-1.5498834e-07
0.0083134109
-5.9396484e-07
0.0083132886
-7.955033e-07
0.0083100719
-1.8733871e-07
0.0083073739
-1.8197723e-06
0.0082976228
2.785716e-06
2.5191612e-06
0.0092497314
0.0082906148
0.0073619715
0.0065318874
0.0058241099
0.0052459819
0.0047902897
0.0044401164
0.0041756763
0.0039782294
0.0038310314
0.003719962
0.0036336015
0.0035634955
0.0035040683
0.0034521869
0.0034064983
0.0033667203
0.0033330221
0.0033055714
0.0032842711
0.0032686715
0.0032580156
0.003251359
0.0032477099
0.003246148
0.0032459011
0.003246379
0.0032471697
0.0032480146
0.0032487726
0.0032493839
0.0032498392
0.0032501558
0.0032503621
0.0032504873
0.0032505573
0.0032505919
0.0032506055
0.0032506079
0.003250605
0.0032506002
0.0032505954
0.0032505914
0.0032505882
0.003250586
0.0032505845
0.0032505835
0.0032505829
0.0032505826
0.0032505824
0.0032505823
0.0032505823
0.0032505823
0.0032505823
0.0032505823
0.0032505823
0.0032505823
0.0032505823
0.0032505823
0.0032505823
0.0032505823
0.0032505823
0.0032505824
0.0032505821
0.0032505827
0.0032505816
0.0032505835
0.0032505803
0.0032505856
0.0032505771
0.0032505902
0.0032505706
0.0032505984
0.0032505608
0.0032506086
0.0032505519
0.003250613
0.0032505548
0.0032505991
0.0032505785
0.0032505672
0.0032506051
0.0032505521
0.0032505839
0.0032505927
0.0032505002
0.003250634
0.0032504347
0.003250545
0.0032503818
0.0032503284
0.0032500579
0.0032499029
0.0032493089
0.0032485134
0.0032483261
0.0032465064
0.0032492921
)
;

boundaryField
{
    top
    {
        type            calculated;
        value           uniform 0;
    }
    inlet
    {
        type            calculated;
        value           nonuniform List<scalar> 10(-0.01 -0.01 -0.01 -0.01 -0.01 -0.01 -0.01 -0.01 -0.01 -0.01);
    }
    outlet
    {
        type            calculated;
        value           nonuniform List<scalar> 10(0.0032518114 0.0082830763 0.011546385 0.013166749 0.013751977 0.013751977 0.013166749 0.011546385 0.0082830764 0.0032518113);
    }
    bottom
    {
        type            calculated;
        value           uniform 0;
    }
    back
    {
        type            empty;
        value           nonuniform 0();
    }
    front
    {
        type            empty;
        value           nonuniform 0();
    }
}


// ************************************************************************* //
