# Region type : patch inlet
# Faces         : 10
# Area          : 1.00000000e-01
# Scale factor  : 1.00000000e+00
# Weight field  : p
# Time          	weightedAverage(phi)	weightedAverage(U)	weightedAverage(p)
0.05            	-1.00000000e-02	(1.00000000e+00 0.00000000e+00 0.00000000e+00)	2.39978841e+02
0.1             	-1.00000000e-02	(1.00000000e+00 -0.00000000e+00 -0.00000000e+00)	-3.98673881e+01
0.15            	-1.00000000e-02	(1.00000000e+00 0.00000000e+00 0.00000000e+00)	1.11896010e+01
0.2             	-1.00000000e-02	(1.00000000e+00 0.00000000e+00 0.00000000e+00)	1.73872627e+00
0.25            	-1.00000000e-02	(1.00000000e+00 0.00000000e+00 0.00000000e+00)	3.21289795e+00
0.3             	-1.00000000e-02	(1.00000000e+00 0.00000000e+00 0.00000000e+00)	2.75969962e+00
0.35            	-1.00000000e-02	(1.00000000e+00 0.00000000e+00 0.00000000e+00)	2.68268596e+00
0.4             	-1.00000000e-02	(1.00000000e+00 0.00000000e+00 0.00000000e+00)	2.55928471e+00
0.45            	-1.00000000e-02	(1.00000000e+00 0.00000000e+00 0.00000000e+00)	2.46205891e+00
0.5             	-1.00000000e-02	(1.00000000e+00 0.00000000e+00 0.00000000e+00)	2.37515820e+00
0.55            	-1.00000000e-02	(1.00000000e+00 0.00000000e+00 0.00000000e+00)	2.29905255e+00
0.6             	-1.00000000e-02	(1.00000000e+00 0.00000000e+00 0.00000000e+00)	2.23174692e+00
0.65            	-1.00000000e-02	(1.00000000e+00 0.00000000e+00 0.00000000e+00)	2.17203133e+00
0.7             	-1.00000000e-02	(1.00000000e+00 0.00000000e+00 0.00000000e+00)	2.11882805e+00
0.75            	-1.00000000e-02	(1.00000000e+00 0.00000000e+00 0.00000000e+00)	2.07125323e+00
0.8             	-1.00000000e-02	(1.00000000e+00 0.00000000e+00 0.00000000e+00)	2.02856480e+00
0.85            	-1.00000000e-02	(1.00000000e+00 0.00000000e+00 0.00000000e+00)	1.99014056e+00
0.9             	-1.00000000e-02	(1.00000000e+00 0.00000000e+00 0.00000000e+00)	1.95545077e+00
0.95            	-1.00000000e-02	(1.00000000e+00 0.00000000e+00 0.00000000e+00)	1.92404562e+00
1               	-1.00000000e-02	(1.00000000e+00 0.00000000e+00 0.00000000e+00)	1.89556225e+00
1.05            	-1.00000000e-02	(1.00000000e+00 0.00000000e+00 0.00000000e+00)	1.86960103e+00
1.1             	-1.00000000e-02	(1.00000000e+00 0.00000000e+00 0.00000000e+00)	1.84595798e+00
1.15            	-1.00000000e-02	(1.00000000e+00 0.00000000e+00 0.00000000e+00)	1.82434973e+00
1.2             	-1.00000000e-02	(1.00000000e+00 0.00000000e+00 0.00000000e+00)	1.80456809e+00
1.25            	-1.00000000e-02	(1.00000000e+00 0.00000000e+00 0.00000000e+00)	1.78642388e+00
1.3             	-1.00000000e-02	(1.00000000e+00 0.00000000e+00 0.00000000e+00)	1.76975235e+00
1.35            	-1.00000000e-02	(1.00000000e+00 0.00000000e+00 0.00000000e+00)	1.75440793e+00
1.4             	-1.00000000e-02	(1.00000000e+00 0.00000000e+00 0.00000000e+00)	1.74026176e+00
1.45            	-1.00000000e-02	(1.00000000e+00 0.00000000e+00 0.00000000e+00)	1.72720001e+00
1.5             	-1.00000000e-02	(1.00000000e+00 0.00000000e+00 0.00000000e+00)	1.71512130e+00
1.55            	-1.00000000e-02	(1.00000000e+00 0.00000000e+00 0.00000000e+00)	1.70393533e+00
1.6             	-1.00000000e-02	(1.00000000e+00 0.00000000e+00 0.00000000e+00)	1.69356188e+00
1.65            	-1.00000000e-02	(1.00000000e+00 0.00000000e+00 0.00000000e+00)	1.68393663e+00
1.7             	-1.00000000e-02	(1.00000000e+00 0.00000000e+00 0.00000000e+00)	1.67497033e+00
1.75            	-1.00000000e-02	(1.00000000e+00 0.00000000e+00 0.00000000e+00)	1.66663419e+00
1.8             	-1.00000000e-02	(1.00000000e+00 0.00000000e+00 0.00000000e+00)	1.65886226e+00
1.85            	-1.00000000e-02	(1.00000000e+00 0.00000000e+00 0.00000000e+00)	1.65161087e+00
1.9             	-1.00000000e-02	(1.00000000e+00 0.00000000e+00 0.00000000e+00)	1.64483760e+00
1.95            	-1.00000000e-02	(1.00000000e+00 0.00000000e+00 0.00000000e+00)	1.63850452e+00
2               	-1.00000000e-02	(1.00000000e+00 0.00000000e+00 0.00000000e+00)	1.63257740e+00
2.05            	-1.00000000e-02	(1.00000000e+00 0.00000000e+00 0.00000000e+00)	1.62702525e+00
2.1             	-1.00000000e-02	(1.00000000e+00 0.00000000e+00 0.00000000e+00)	1.62181989e+00
2.15            	-1.00000000e-02	(1.00000000e+00 0.00000000e+00 0.00000000e+00)	1.61693571e+00
2.2             	-1.00000000e-02	(1.00000000e+00 0.00000000e+00 0.00000000e+00)	1.61234950e+00
2.25            	-1.00000000e-02	(1.00000000e+00 0.00000000e+00 0.00000000e+00)	1.60803969e+00
2.3             	-1.00000000e-02	(1.00000000e+00 0.00000000e+00 0.00000000e+00)	1.60398727e+00
2.35            	-1.00000000e-02	(1.00000000e+00 0.00000000e+00 0.00000000e+00)	1.60017428e+00
2.4             	-1.00000000e-02	(1.00000000e+00 0.00000000e+00 0.00000000e+00)	1.59658442e+00
2.45            	-1.00000000e-02	(1.00000000e+00 0.00000000e+00 0.00000000e+00)	1.59320276e+00
2.5             	-1.00000000e-02	(1.00000000e+00 0.00000000e+00 0.00000000e+00)	1.59001553e+00
2.55            	-1.00000000e-02	(1.00000000e+00 0.00000000e+00 0.00000000e+00)	1.58701008e+00
2.6             	-1.00000000e-02	(1.00000000e+00 0.00000000e+00 0.00000000e+00)	1.58417472e+00
2.65            	-1.00000000e-02	(1.00000000e+00 0.00000000e+00 0.00000000e+00)	1.58149867e+00
2.7             	-1.00000000e-02	(1.00000000e+00 0.00000000e+00 0.00000000e+00)	1.57897196e+00
2.75            	-1.00000000e-02	(1.00000000e+00 0.00000000e+00 0.00000000e+00)	1.57658535e+00
2.8             	-1.00000000e-02	(1.00000000e+00 0.00000000e+00 0.00000000e+00)	1.57434240e+00
2.85            	-1.00000000e-02	(1.00000000e+00 0.00000000e+00 0.00000000e+00)	1.57219628e+00
2.9             	-1.00000000e-02	(1.00000000e+00 0.00000000e+00 0.00000000e+00)	1.57018355e+00
2.95            	-1.00000000e-02	(1.00000000e+00 0.00000000e+00 0.00000000e+00)	1.56827729e+00
3               	-1.00000000e-02	(1.00000000e+00 0.00000000e+00 0.00000000e+00)	1.56647444e+00
3.05            	-1.00000000e-02	(1.00000000e+00 0.00000000e+00 0.00000000e+00)	1.56476848e+00
3.1             	-1.00000000e-02	(1.00000000e+00 0.00000000e+00 0.00000000e+00)	1.56315395e+00
3.15            	-1.00000000e-02	(1.00000000e+00 0.00000000e+00 0.00000000e+00)	1.56162562e+00
3.2             	-1.00000000e-02	(1.00000000e+00 0.00000000e+00 0.00000000e+00)	1.56017868e+00
3.25            	-1.00000000e-02	(1.00000000e+00 0.00000000e+00 0.00000000e+00)	1.55880852e+00
3.3             	-1.00000000e-02	(1.00000000e+00 0.00000000e+00 0.00000000e+00)	1.55751090e+00
3.35            	-1.00000000e-02	(1.00000000e+00 0.00000000e+00 0.00000000e+00)	1.55628182e+00
3.4             	-1.00000000e-02	(1.00000000e+00 0.00000000e+00 0.00000000e+00)	1.55511751e+00
3.45            	-1.00000000e-02	(1.00000000e+00 0.00000000e+00 0.00000000e+00)	1.55401461e+00
3.5             	-1.00000000e-02	(1.00000000e+00 0.00000000e+00 0.00000000e+00)	1.55296945e+00
3.55            	-1.00000000e-02	(1.00000000e+00 0.00000000e+00 0.00000000e+00)	1.55197935e+00
3.6             	-1.00000000e-02	(1.00000000e+00 0.00000000e+00 0.00000000e+00)	1.55104102e+00
3.65            	-1.00000000e-02	(1.00000000e+00 0.00000000e+00 0.00000000e+00)	1.55015199e+00
3.7             	-1.00000000e-02	(1.00000000e+00 0.00000000e+00 0.00000000e+00)	1.54930947e+00
3.75            	-1.00000000e-02	(1.00000000e+00 0.00000000e+00 0.00000000e+00)	1.54851110e+00
3.8             	-1.00000000e-02	(1.00000000e+00 0.00000000e+00 0.00000000e+00)	1.54775454e+00
3.85            	-1.00000000e-02	(1.00000000e+00 0.00000000e+00 0.00000000e+00)	1.54703763e+00
3.9             	-1.00000000e-02	(1.00000000e+00 0.00000000e+00 0.00000000e+00)	1.54635831e+00
3.95            	-1.00000000e-02	(1.00000000e+00 0.00000000e+00 0.00000000e+00)	1.54571461e+00
4               	-1.00000000e-02	(1.00000000e+00 0.00000000e+00 0.00000000e+00)	1.54510473e+00
4.05            	-1.00000000e-02	(1.00000000e+00 0.00000000e+00 0.00000000e+00)	1.54452692e+00
4.1             	-1.00000000e-02	(1.00000000e+00 0.00000000e+00 0.00000000e+00)	1.54397952e+00
4.15            	-1.00000000e-02	(1.00000000e+00 0.00000000e+00 0.00000000e+00)	1.54346100e+00
4.2             	-1.00000000e-02	(1.00000000e+00 0.00000000e+00 0.00000000e+00)	1.54296987e+00
4.25            	-1.00000000e-02	(1.00000000e+00 0.00000000e+00 0.00000000e+00)	1.54250475e+00
4.3             	-1.00000000e-02	(1.00000000e+00 0.00000000e+00 0.00000000e+00)	1.54206430e+00
4.35            	-1.00000000e-02	(1.00000000e+00 0.00000000e+00 0.00000000e+00)	1.54164729e+00
4.4             	-1.00000000e-02	(1.00000000e+00 0.00000000e+00 0.00000000e+00)	1.54125252e+00
4.45            	-1.00000000e-02	(1.00000000e+00 0.00000000e+00 0.00000000e+00)	1.54087887e+00
4.5             	-1.00000000e-02	(1.00000000e+00 0.00000000e+00 0.00000000e+00)	1.54052527e+00
4.55            	-1.00000000e-02	(1.00000000e+00 0.00000000e+00 0.00000000e+00)	1.54019071e+00
4.6             	-1.00000000e-02	(1.00000000e+00 0.00000000e+00 0.00000000e+00)	1.53987423e+00
4.65            	-1.00000000e-02	(1.00000000e+00 0.00000000e+00 0.00000000e+00)	1.53957491e+00
4.7             	-1.00000000e-02	(1.00000000e+00 0.00000000e+00 0.00000000e+00)	1.53929190e+00
4.75            	-1.00000000e-02	(1.00000000e+00 0.00000000e+00 0.00000000e+00)	1.53902436e+00
4.8             	-1.00000000e-02	(1.00000000e+00 0.00000000e+00 0.00000000e+00)	1.53877152e+00
4.85            	-1.00000000e-02	(1.00000000e+00 0.00000000e+00 0.00000000e+00)	1.53853264e+00
4.9             	-1.00000000e-02	(1.00000000e+00 0.00000000e+00 0.00000000e+00)	1.53830700e+00
4.95            	-1.00000000e-02	(1.00000000e+00 0.00000000e+00 0.00000000e+00)	1.53809396e+00
5               	-1.00000000e-02	(1.00000000e+00 0.00000000e+00 0.00000000e+00)	1.53789285e+00
5.05            	-1.00000000e-02	(1.00000000e+00 0.00000000e+00 0.00000000e+00)	1.53770309e+00
5.1             	-1.00000000e-02	(1.00000000e+00 0.00000000e+00 0.00000000e+00)	1.53752409e+00
5.15            	-1.00000000e-02	(1.00000000e+00 0.00000000e+00 0.00000000e+00)	1.53735531e+00
5.2             	-1.00000000e-02	(1.00000000e+00 0.00000000e+00 0.00000000e+00)	1.53719623e+00
5.25            	-1.00000000e-02	(1.00000000e+00 0.00000000e+00 0.00000000e+00)	1.53704636e+00
5.3             	-1.00000000e-02	(1.00000000e+00 0.00000000e+00 0.00000000e+00)	1.53690821e+00
5.35            	-1.00000000e-02	(1.00000000e+00 0.00000000e+00 0.00000000e+00)	1.53677150e+00
5.4             	-1.00000000e-02	(1.00000000e+00 0.00000000e+00 0.00000000e+00)	1.53664794e+00
5.45            	-1.00000000e-02	(1.00000000e+00 0.00000000e+00 0.00000000e+00)	1.53652971e+00
5.5             	-1.00000000e-02	(1.00000000e+00 0.00000000e+00 0.00000000e+00)	1.53641957e+00
5.55            	-1.00000000e-02	(1.00000000e+00 0.00000000e+00 0.00000000e+00)	1.53631567e+00
5.6             	-1.00000000e-02	(1.00000000e+00 0.00000000e+00 0.00000000e+00)	1.53621837e+00
5.65            	-1.00000000e-02	(1.00000000e+00 0.00000000e+00 0.00000000e+00)	1.53612699e+00
5.7             	-1.00000000e-02	(1.00000000e+00 0.00000000e+00 0.00000000e+00)	1.53604137e+00
5.75            	-1.00000000e-02	(1.00000000e+00 0.00000000e+00 0.00000000e+00)	1.53596117e+00
5.8             	-1.00000000e-02	(1.00000000e+00 0.00000000e+00 0.00000000e+00)	1.53588607e+00
5.85            	-1.00000000e-02	(1.00000000e+00 0.00000000e+00 0.00000000e+00)	1.53581592e+00
5.9             	-1.00000000e-02	(1.00000000e+00 0.00000000e+00 0.00000000e+00)	1.53575027e+00
5.95            	-1.00000000e-02	(1.00000000e+00 0.00000000e+00 0.00000000e+00)	1.53568904e+00
6               	-1.00000000e-02	(1.00000000e+00 0.00000000e+00 0.00000000e+00)	1.53563196e+00
6.05            	-1.00000000e-02	(1.00000000e+00 0.00000000e+00 0.00000000e+00)	1.53557874e+00
6.1             	-1.00000000e-02	(1.00000000e+00 0.00000000e+00 0.00000000e+00)	1.53552926e+00
6.15            	-1.00000000e-02	(1.00000000e+00 0.00000000e+00 0.00000000e+00)	1.53548325e+00
6.2             	-1.00000000e-02	(1.00000000e+00 0.00000000e+00 0.00000000e+00)	1.53544056e+00
6.25            	-1.00000000e-02	(1.00000000e+00 0.00000000e+00 0.00000000e+00)	1.53540100e+00
6.3             	-1.00000000e-02	(1.00000000e+00 0.00000000e+00 0.00000000e+00)	1.53536438e+00
6.35            	-1.00000000e-02	(1.00000000e+00 0.00000000e+00 0.00000000e+00)	1.53533055e+00
6.4             	-1.00000000e-02	(1.00000000e+00 0.00000000e+00 0.00000000e+00)	1.53529942e+00
6.45            	-1.00000000e-02	(1.00000000e+00 0.00000000e+00 0.00000000e+00)	1.53527070e+00
6.5             	-1.00000000e-02	(1.00000000e+00 0.00000000e+00 0.00000000e+00)	1.53524435e+00
6.55            	-1.00000000e-02	(1.00000000e+00 0.00000000e+00 0.00000000e+00)	1.53522022e+00
6.6             	-1.00000000e-02	(1.00000000e+00 0.00000000e+00 0.00000000e+00)	1.53519820e+00
6.65            	-1.00000000e-02	(1.00000000e+00 0.00000000e+00 0.00000000e+00)	1.53517809e+00
6.7             	-1.00000000e-02	(1.00000000e+00 0.00000000e+00 0.00000000e+00)	1.53515991e+00
6.75            	-1.00000000e-02	(1.00000000e+00 0.00000000e+00 0.00000000e+00)	1.53514341e+00
6.8             	-1.00000000e-02	(1.00000000e+00 0.00000000e+00 0.00000000e+00)	1.53512858e+00
6.85            	-1.00000000e-02	(1.00000000e+00 0.00000000e+00 0.00000000e+00)	1.53511530e+00
6.9             	-1.00000000e-02	(1.00000000e+00 0.00000000e+00 0.00000000e+00)	1.53510344e+00
6.95            	-1.00000000e-02	(1.00000000e+00 0.00000000e+00 0.00000000e+00)	1.53509299e+00
7               	-1.00000000e-02	(1.00000000e+00 0.00000000e+00 0.00000000e+00)	1.53508376e+00
7.05            	-1.00000000e-02	(1.00000000e+00 0.00000000e+00 0.00000000e+00)	1.53507579e+00
7.1             	-1.00000000e-02	(1.00000000e+00 0.00000000e+00 0.00000000e+00)	1.53506889e+00
7.15            	-1.00000000e-02	(1.00000000e+00 0.00000000e+00 0.00000000e+00)	1.53506306e+00
7.2             	-1.00000000e-02	(1.00000000e+00 0.00000000e+00 0.00000000e+00)	1.53505825e+00
7.25            	-1.00000000e-02	(1.00000000e+00 0.00000000e+00 0.00000000e+00)	1.53505427e+00
7.3             	-1.00000000e-02	(1.00000000e+00 0.00000000e+00 0.00000000e+00)	1.53505124e+00
7.35            	-1.00000000e-02	(1.00000000e+00 0.00000000e+00 0.00000000e+00)	1.53504893e+00
7.4             	-1.00000000e-02	(1.00000000e+00 0.00000000e+00 0.00000000e+00)	1.53504741e+00
7.45            	-1.00000000e-02	(1.00000000e+00 0.00000000e+00 0.00000000e+00)	1.53504657e+00
7.5             	-1.00000000e-02	(1.00000000e+00 0.00000000e+00 0.00000000e+00)	1.53504633e+00
7.55            	-1.00000000e-02	(1.00000000e+00 0.00000000e+00 0.00000000e+00)	1.53504676e+00
7.6             	-1.00000000e-02	(1.00000000e+00 0.00000000e+00 0.00000000e+00)	1.53504855e+00
7.65            	-1.00000000e-02	(1.00000000e+00 0.00000000e+00 0.00000000e+00)	1.53504819e+00
7.7             	-1.00000000e-02	(1.00000000e+00 0.00000000e+00 0.00000000e+00)	1.53504999e+00
7.75            	-1.00000000e-02	(1.00000000e+00 0.00000000e+00 0.00000000e+00)	1.53505425e+00
7.8             	-1.00000000e-02	(1.00000000e+00 0.00000000e+00 0.00000000e+00)	1.53505548e+00
7.85            	-1.00000000e-02	(1.00000000e+00 0.00000000e+00 0.00000000e+00)	1.53505949e+00
7.9             	-1.00000000e-02	(1.00000000e+00 0.00000000e+00 0.00000000e+00)	1.53506244e+00
7.95            	-1.00000000e-02	(1.00000000e+00 0.00000000e+00 0.00000000e+00)	1.53506598e+00
8               	-1.00000000e-02	(1.00000000e+00 0.00000000e+00 0.00000000e+00)	1.53506992e+00
8.05            	-1.00000000e-02	(1.00000000e+00 0.00000000e+00 0.00000000e+00)	1.53507406e+00
8.1             	-1.00000000e-02	(1.00000000e+00 0.00000000e+00 0.00000000e+00)	1.53507836e+00
8.15            	-1.00000000e-02	(1.00000000e+00 0.00000000e+00 0.00000000e+00)	1.53508287e+00
8.2             	-1.00000000e-02	(1.00000000e+00 0.00000000e+00 0.00000000e+00)	1.53508749e+00
8.25            	-1.00000000e-02	(1.00000000e+00 0.00000000e+00 0.00000000e+00)	1.53509227e+00
8.3             	-1.00000000e-02	(1.00000000e+00 0.00000000e+00 0.00000000e+00)	1.53509713e+00
8.35            	-1.00000000e-02	(1.00000000e+00 0.00000000e+00 0.00000000e+00)	1.53510207e+00
8.4             	-1.00000000e-02	(1.00000000e+00 0.00000000e+00 0.00000000e+00)	1.53510707e+00
8.45            	-1.00000000e-02	(1.00000000e+00 0.00000000e+00 0.00000000e+00)	1.53511212e+00
8.5             	-1.00000000e-02	(1.00000000e+00 0.00000000e+00 0.00000000e+00)	1.53511720e+00
8.55            	-1.00000000e-02	(1.00000000e+00 0.00000000e+00 0.00000000e+00)	1.53512228e+00
8.6             	-1.00000000e-02	(1.00000000e+00 0.00000000e+00 0.00000000e+00)	1.53512736e+00
8.65            	-1.00000000e-02	(1.00000000e+00 0.00000000e+00 0.00000000e+00)	1.53513240e+00
8.7             	-1.00000000e-02	(1.00000000e+00 0.00000000e+00 0.00000000e+00)	1.53513240e+00
8.75            	-1.00000000e-02	(1.00000000e+00 0.00000000e+00 0.00000000e+00)	1.53514763e+00
8.8             	-1.00000000e-02	(1.00000000e+00 0.00000000e+00 0.00000000e+00)	1.53514763e+00
8.85            	-1.00000000e-02	(1.00000000e+00 0.00000000e+00 0.00000000e+00)	1.53514763e+00
8.9             	-1.00000000e-02	(1.00000000e+00 0.00000000e+00 0.00000000e+00)	1.53516062e+00
8.95            	-1.00000000e-02	(1.00000000e+00 0.00000000e+00 0.00000000e+00)	1.53516174e+00
9               	-1.00000000e-02	(1.00000000e+00 0.00000000e+00 0.00000000e+00)	1.53516174e+00
9.05            	-1.00000000e-02	(1.00000000e+00 0.00000000e+00 0.00000000e+00)	1.53517524e+00
9.1             	-1.00000000e-02	(1.00000000e+00 0.00000000e+00 0.00000000e+00)	1.53517525e+00
9.15            	-1.00000000e-02	(1.00000000e+00 0.00000000e+00 0.00000000e+00)	1.53517525e+00
9.2             	-1.00000000e-02	(1.00000000e+00 0.00000000e+00 0.00000000e+00)	1.53518716e+00
9.25            	-1.00000000e-02	(1.00000000e+00 0.00000000e+00 0.00000000e+00)	1.53518767e+00
9.3             	-1.00000000e-02	(1.00000000e+00 0.00000000e+00 0.00000000e+00)	1.53518767e+00
9.35            	-1.00000000e-02	(1.00000000e+00 0.00000000e+00 0.00000000e+00)	1.53519870e+00
9.4             	-1.00000000e-02	(1.00000000e+00 0.00000000e+00 0.00000000e+00)	1.53519870e+00
9.45            	-1.00000000e-02	(1.00000000e+00 0.00000000e+00 0.00000000e+00)	1.53520064e+00
9.5             	-1.00000000e-02	(1.00000000e+00 0.00000000e+00 0.00000000e+00)	1.53520614e+00
9.55            	-1.00000000e-02	(1.00000000e+00 0.00000000e+00 0.00000000e+00)	1.53520614e+00
9.6             	-1.00000000e-02	(1.00000000e+00 0.00000000e+00 0.00000000e+00)	1.53521485e+00
9.65            	-1.00000000e-02	(1.00000000e+00 0.00000000e+00 0.00000000e+00)	1.53521492e+00
9.7             	-1.00000000e-02	(1.00000000e+00 0.00000000e+00 0.00000000e+00)	1.53521492e+00
9.75            	-1.00000000e-02	(1.00000000e+00 0.00000000e+00 0.00000000e+00)	1.53522256e+00
9.8             	-1.00000000e-02	(1.00000000e+00 0.00000000e+00 0.00000000e+00)	1.53522256e+00
9.85            	-1.00000000e-02	(1.00000000e+00 0.00000000e+00 0.00000000e+00)	1.53522462e+00
9.9             	-1.00000000e-02	(1.00000000e+00 0.00000000e+00 0.00000000e+00)	1.53522756e+00
9.95            	-1.00000000e-02	(1.00000000e+00 0.00000000e+00 0.00000000e+00)	1.53522756e+00
10              	-1.00000000e-02	(1.00000000e+00 0.00000000e+00 0.00000000e+00)	1.53523436e+00
10.05           	-1.00000000e-02	(1.00000000e+00 0.00000000e+00 0.00000000e+00)	1.53523436e+00
10.1            	-1.00000000e-02	(1.00000000e+00 0.00000000e+00 0.00000000e+00)	1.53523436e+00
10.15           	-1.00000000e-02	(1.00000000e+00 0.00000000e+00 0.00000000e+00)	1.53523436e+00
10.2            	-1.00000000e-02	(1.00000000e+00 0.00000000e+00 0.00000000e+00)	1.53524245e+00
10.25           	-1.00000000e-02	(1.00000000e+00 0.00000000e+00 0.00000000e+00)	1.53524120e+00
10.3            	-1.00000000e-02	(1.00000000e+00 0.00000000e+00 0.00000000e+00)	1.53524120e+00
10.35           	-1.00000000e-02	(1.00000000e+00 0.00000000e+00 0.00000000e+00)	1.53524249e+00
10.4            	-1.00000000e-02	(1.00000000e+00 0.00000000e+00 0.00000000e+00)	1.53524249e+00
10.45           	-1.00000000e-02	(1.00000000e+00 0.00000000e+00 0.00000000e+00)	1.53524745e+00
10.5            	-1.00000000e-02	(1.00000000e+00 0.00000000e+00 0.00000000e+00)	1.53524745e+00
10.55           	-1.00000000e-02	(1.00000000e+00 0.00000000e+00 0.00000000e+00)	1.53524745e+00
10.6            	-1.00000000e-02	(1.00000000e+00 0.00000000e+00 0.00000000e+00)	1.53524821e+00
10.65           	-1.00000000e-02	(1.00000000e+00 0.00000000e+00 0.00000000e+00)	1.53524821e+00
10.7            	-1.00000000e-02	(1.00000000e+00 0.00000000e+00 0.00000000e+00)	1.53525130e+00
10.75           	-1.00000000e-02	(1.00000000e+00 0.00000000e+00 0.00000000e+00)	1.53525148e+00
10.8            	-1.00000000e-02	(1.00000000e+00 0.00000000e+00 0.00000000e+00)	1.53525148e+00
10.85           	-1.00000000e-02	(1.00000000e+00 0.00000000e+00 0.00000000e+00)	1.53525148e+00
10.9            	-1.00000000e-02	(1.00000000e+00 0.00000000e+00 0.00000000e+00)	1.53525341e+00
10.95           	-1.00000000e-02	(1.00000000e+00 0.00000000e+00 0.00000000e+00)	1.53525367e+00
11              	-1.00000000e-02	(1.00000000e+00 0.00000000e+00 0.00000000e+00)	1.53525367e+00
11.05           	-1.00000000e-02	(1.00000000e+00 0.00000000e+00 0.00000000e+00)	1.53525367e+00
11.1            	-1.00000000e-02	(1.00000000e+00 0.00000000e+00 0.00000000e+00)	1.53525367e+00
11.15           	-1.00000000e-02	(1.00000000e+00 0.00000000e+00 0.00000000e+00)	1.53525648e+00
11.2            	-1.00000000e-02	(1.00000000e+00 0.00000000e+00 0.00000000e+00)	1.53525605e+00
11.25           	-1.00000000e-02	(1.00000000e+00 0.00000000e+00 0.00000000e+00)	1.53525605e+00
11.3            	-1.00000000e-02	(1.00000000e+00 0.00000000e+00 0.00000000e+00)	1.53525605e+00
11.35           	-1.00000000e-02	(1.00000000e+00 0.00000000e+00 0.00000000e+00)	1.53525605e+00
11.4            	-1.00000000e-02	(1.00000000e+00 0.00000000e+00 0.00000000e+00)	1.53525607e+00
11.45           	-1.00000000e-02	(1.00000000e+00 0.00000000e+00 0.00000000e+00)	1.53525607e+00
11.5            	-1.00000000e-02	(1.00000000e+00 0.00000000e+00 0.00000000e+00)	1.53525676e+00
11.55           	-1.00000000e-02	(1.00000000e+00 0.00000000e+00 0.00000000e+00)	1.53525717e+00
11.6            	-1.00000000e-02	(1.00000000e+00 0.00000000e+00 0.00000000e+00)	1.53525717e+00
11.65           	-1.00000000e-02	(1.00000000e+00 0.00000000e+00 0.00000000e+00)	1.53525717e+00
11.7            	-1.00000000e-02	(1.00000000e+00 0.00000000e+00 0.00000000e+00)	1.53525717e+00
11.75           	-1.00000000e-02	(1.00000000e+00 0.00000000e+00 0.00000000e+00)	1.53525717e+00
11.8            	-1.00000000e-02	(1.00000000e+00 0.00000000e+00 0.00000000e+00)	1.53525717e+00
11.85           	-1.00000000e-02	(1.00000000e+00 0.00000000e+00 0.00000000e+00)	1.53525717e+00
11.9            	-1.00000000e-02	(1.00000000e+00 0.00000000e+00 0.00000000e+00)	1.53525717e+00
11.95           	-1.00000000e-02	(1.00000000e+00 0.00000000e+00 0.00000000e+00)	1.53525717e+00
12              	-1.00000000e-02	(1.00000000e+00 0.00000000e+00 0.00000000e+00)	1.53525717e+00
12.05           	-1.00000000e-02	(1.00000000e+00 0.00000000e+00 0.00000000e+00)	1.53525717e+00
12.1            	-1.00000000e-02	(1.00000000e+00 0.00000000e+00 0.00000000e+00)	1.53525717e+00
12.15           	-1.00000000e-02	(1.00000000e+00 0.00000000e+00 0.00000000e+00)	1.53526075e+00
12.2            	-1.00000000e-02	(1.00000000e+00 0.00000000e+00 0.00000000e+00)	1.53525872e+00
12.25           	-1.00000000e-02	(1.00000000e+00 0.00000000e+00 0.00000000e+00)	1.53525872e+00
12.3            	-1.00000000e-02	(1.00000000e+00 0.00000000e+00 0.00000000e+00)	1.53525872e+00
12.35           	-1.00000000e-02	(1.00000000e+00 0.00000000e+00 0.00000000e+00)	1.53525682e+00
12.4            	-1.00000000e-02	(1.00000000e+00 0.00000000e+00 0.00000000e+00)	1.53525719e+00
12.45           	-1.00000000e-02	(1.00000000e+00 0.00000000e+00 0.00000000e+00)	1.53525719e+00
12.5            	-1.00000000e-02	(1.00000000e+00 0.00000000e+00 0.00000000e+00)	1.53525719e+00
12.55           	-1.00000000e-02	(1.00000000e+00 0.00000000e+00 0.00000000e+00)	1.53525719e+00
12.6            	-1.00000000e-02	(1.00000000e+00 0.00000000e+00 0.00000000e+00)	1.53526042e+00
12.65           	-1.00000000e-02	(1.00000000e+00 0.00000000e+00 0.00000000e+00)	1.53525891e+00
12.7            	-1.00000000e-02	(1.00000000e+00 0.00000000e+00 0.00000000e+00)	1.53525891e+00
12.75           	-1.00000000e-02	(1.00000000e+00 0.00000000e+00 0.00000000e+00)	1.53525891e+00
12.8            	-1.00000000e-02	(1.00000000e+00 0.00000000e+00 0.00000000e+00)	1.53525687e+00
12.85           	-1.00000000e-02	(1.00000000e+00 0.00000000e+00 0.00000000e+00)	1.53525748e+00
12.9            	-1.00000000e-02	(1.00000000e+00 0.00000000e+00 0.00000000e+00)	1.53525748e+00
12.95           	-1.00000000e-02	(1.00000000e+00 0.00000000e+00 0.00000000e+00)	1.53525748e+00
13              	-1.00000000e-02	(1.00000000e+00 0.00000000e+00 0.00000000e+00)	1.53525748e+00
13.05           	-1.00000000e-02	(1.00000000e+00 0.00000000e+00 0.00000000e+00)	1.53525995e+00
13.1            	-1.00000000e-02	(1.00000000e+00 0.00000000e+00 0.00000000e+00)	1.53525904e+00
13.15           	-1.00000000e-02	(1.00000000e+00 0.00000000e+00 0.00000000e+00)	1.53525904e+00
13.2            	-1.00000000e-02	(1.00000000e+00 0.00000000e+00 0.00000000e+00)	1.53525904e+00
13.25           	-1.00000000e-02	(1.00000000e+00 0.00000000e+00 0.00000000e+00)	1.53525675e+00
13.3            	-1.00000000e-02	(1.00000000e+00 0.00000000e+00 0.00000000e+00)	1.53525741e+00
13.35           	-1.00000000e-02	(1.00000000e+00 0.00000000e+00 0.00000000e+00)	1.53525741e+00
13.4            	-1.00000000e-02	(1.00000000e+00 0.00000000e+00 0.00000000e+00)	1.53525741e+00
13.45           	-1.00000000e-02	(1.00000000e+00 0.00000000e+00 0.00000000e+00)	1.53525967e+00
13.5            	-1.00000000e-02	(1.00000000e+00 0.00000000e+00 0.00000000e+00)	1.53525898e+00
13.55           	-1.00000000e-02	(1.00000000e+00 0.00000000e+00 0.00000000e+00)	1.53525898e+00
13.6            	-1.00000000e-02	(1.00000000e+00 0.00000000e+00 0.00000000e+00)	1.53525898e+00
13.65           	-1.00000000e-02	(1.00000000e+00 0.00000000e+00 0.00000000e+00)	1.53525692e+00
13.7            	-1.00000000e-02	(1.00000000e+00 0.00000000e+00 0.00000000e+00)	1.53525754e+00
13.75           	-1.00000000e-02	(1.00000000e+00 0.00000000e+00 0.00000000e+00)	1.53525754e+00
13.8            	-1.00000000e-02	(1.00000000e+00 0.00000000e+00 0.00000000e+00)	1.53525754e+00
13.85           	-1.00000000e-02	(1.00000000e+00 0.00000000e+00 0.00000000e+00)	1.53525934e+00
13.9            	-1.00000000e-02	(1.00000000e+00 0.00000000e+00 0.00000000e+00)	1.53525883e+00
13.95           	-1.00000000e-02	(1.00000000e+00 0.00000000e+00 0.00000000e+00)	1.53525883e+00
14              	-1.00000000e-02	(1.00000000e+00 0.00000000e+00 0.00000000e+00)	1.53525883e+00
14.05           	-1.00000000e-02	(1.00000000e+00 0.00000000e+00 0.00000000e+00)	1.53525731e+00
14.1            	-1.00000000e-02	(1.00000000e+00 0.00000000e+00 0.00000000e+00)	1.53525768e+00
14.15           	-1.00000000e-02	(1.00000000e+00 0.00000000e+00 0.00000000e+00)	1.53525768e+00
14.2            	-1.00000000e-02	(1.00000000e+00 0.00000000e+00 0.00000000e+00)	1.53525768e+00
14.25           	-1.00000000e-02	(1.00000000e+00 0.00000000e+00 0.00000000e+00)	1.53525896e+00
14.3            	-1.00000000e-02	(1.00000000e+00 0.00000000e+00 0.00000000e+00)	1.53525870e+00
14.35           	-1.00000000e-02	(1.00000000e+00 0.00000000e+00 0.00000000e+00)	1.53525870e+00
14.4            	-1.00000000e-02	(1.00000000e+00 0.00000000e+00 0.00000000e+00)	1.53525870e+00
14.45           	-1.00000000e-02	(1.00000000e+00 0.00000000e+00 0.00000000e+00)	1.53525760e+00
14.5            	-1.00000000e-02	(1.00000000e+00 0.00000000e+00 0.00000000e+00)	1.53525780e+00
14.55           	-1.00000000e-02	(1.00000000e+00 0.00000000e+00 0.00000000e+00)	1.53525780e+00
14.6            	-1.00000000e-02	(1.00000000e+00 0.00000000e+00 0.00000000e+00)	1.53525780e+00
14.65           	-1.00000000e-02	(1.00000000e+00 0.00000000e+00 0.00000000e+00)	1.53525873e+00
14.7            	-1.00000000e-02	(1.00000000e+00 0.00000000e+00 0.00000000e+00)	1.53525878e+00
14.75           	-1.00000000e-02	(1.00000000e+00 0.00000000e+00 0.00000000e+00)	1.53525878e+00
14.8            	-1.00000000e-02	(1.00000000e+00 0.00000000e+00 0.00000000e+00)	1.53525878e+00
14.85           	-1.00000000e-02	(1.00000000e+00 0.00000000e+00 0.00000000e+00)	1.53525741e+00
14.9            	-1.00000000e-02	(1.00000000e+00 0.00000000e+00 0.00000000e+00)	1.53525771e+00
14.95           	-1.00000000e-02	(1.00000000e+00 0.00000000e+00 0.00000000e+00)	1.53525771e+00
15              	-1.00000000e-02	(1.00000000e+00 0.00000000e+00 0.00000000e+00)	1.53525771e+00
15.05           	-1.00000000e-02	(1.00000000e+00 0.00000000e+00 0.00000000e+00)	1.53525771e+00
15.1            	-1.00000000e-02	(1.00000000e+00 0.00000000e+00 0.00000000e+00)	1.53525913e+00
15.15           	-1.00000000e-02	(1.00000000e+00 0.00000000e+00 0.00000000e+00)	1.53525877e+00
15.2            	-1.00000000e-02	(1.00000000e+00 0.00000000e+00 0.00000000e+00)	1.53525877e+00
15.25           	-1.00000000e-02	(1.00000000e+00 0.00000000e+00 0.00000000e+00)	1.53525877e+00
15.3            	-1.00000000e-02	(1.00000000e+00 0.00000000e+00 0.00000000e+00)	1.53525752e+00
15.35           	-1.00000000e-02	(1.00000000e+00 0.00000000e+00 0.00000000e+00)	1.53525759e+00
15.4            	-1.00000000e-02	(1.00000000e+00 0.00000000e+00 0.00000000e+00)	1.53525759e+00
15.45           	-1.00000000e-02	(1.00000000e+00 0.00000000e+00 0.00000000e+00)	1.53525759e+00
15.5            	-1.00000000e-02	(1.00000000e+00 0.00000000e+00 0.00000000e+00)	1.53525904e+00
15.55           	-1.00000000e-02	(1.00000000e+00 0.00000000e+00 0.00000000e+00)	1.53525904e+00
15.6            	-1.00000000e-02	(1.00000000e+00 0.00000000e+00 0.00000000e+00)	1.53525834e+00
15.65           	-1.00000000e-02	(1.00000000e+00 0.00000000e+00 0.00000000e+00)	1.53525808e+00