/*--------------------------------*- C++ -*----------------------------------*\
| =========                 |                                                 |
| \\      /  F ield         | OpenFOAM: The Open Source CFD Toolbox           |
|  \\    /   O peration     | Version:  v1812                                 |
|   \\  /    A nd           | Web:      www.OpenFOAM.com                      |
|    \\/     M anipulation  |                                                 |
\*---------------------------------------------------------------------------*/
FoamFile
{
    version     2.0;
    format      ascii;
    class       surfaceScalarField;
    location    "6";
    object      phi;
}
// * * * * * * * * * * * * * * * * * * * * * * * * * * * * * * * * * * * * * //

dimensions      [0 3 -1 0 0 0 0];
oriented        oriented;


internalField   nonuniform List<scalar> 
1890
(
0.0093061957
0.00069380425
0.0082843931
0.0010218027
0.0073298986
0.00095449449
0.0064869553
0.00084294334
0.0057695845
0.0007173708
0.00518986
0.00057972444
0.004738168
0.00045169205
0.00439519
0.00034297801
0.0041390268
0.00025616318
0.0039491069
0.00018991984
0.003807888
0.00014121897
0.0037013782
0.0001065098
0.0036190579
8.2320224e-05
0.0035534117
6.5646249e-05
0.0034992844
5.4127261e-05
0.0034532444
4.6040057e-05
0.0034130501
4.0194303e-05
0.0033772573
3.5792768e-05
0.0033449385
3.2318771e-05
0.0033154892
2.9449294e-05
0.0032885006
2.6988591e-05
0.0032636803
2.482032e-05
0.0032408048
2.2875509e-05
0.0032196924
2.1112459e-05
0.0032001876
1.9504714e-05
0.0031821535
1.8034094e-05
0.0031654667
1.6686821e-05
0.0031500153
1.5451471e-05
0.0031356973
1.4317969e-05
0.0031224201
1.3277152e-05
0.0031100996
1.2320601e-05
0.003098659
1.1440579e-05
0.003088029
1.0630005e-05
0.0030781466
9.8824251e-06
0.0030689546
9.1919795e-06
0.0030604013
8.5533469e-06
0.0030524397
7.9616973e-06
0.0030450271
7.4126293e-06
0.0030381251
6.9021284e-06
0.0030316987
6.426508e-06
0.0030257165
5.982393e-06
0.0030201501
5.5666732e-06
0.0030149738
5.1765159e-06
0.0030101647
4.8093281e-06
0.0030057022
4.4627981e-06
0.0030015677
4.1348585e-06
0.0029977443
3.8237429e-06
0.0029942167
3.5279396e-06
0.0029909707
3.2462522e-06
0.0029879933
2.9777333e-06
0.0029852719
2.7217354e-06
0.0029827943
2.4778253e-06
0.0029805487
2.2458197e-06
0.0029785232
2.02568e-06
0.0029767058
1.8175336e-06
0.0029750843
1.6215645e-06
0.0029736463
1.4380233e-06
0.0029723792
1.2671251e-06
0.0029712701
1.1090561e-06
0.0029703061
9.6389716e-07
0.0029694743
8.3162932e-07
0.0029687621
7.1209107e-07
0.0029681569
6.0498562e-07
0.0029676469
5.0987772e-07
0.0029672205
4.261981e-07
0.0029668671
3.5327453e-07
0.0029665766
2.9032987e-07
0.0029663399
2.3654093e-07
0.0029661487
1.9102174e-07
0.0029659957
1.5289948e-07
0.0029658743
1.2128102e-07
0.0029657789
9.5337664e-08
0.0029657046
7.4254445e-08
0.0029656473
5.7311999e-08
0.0029656034
4.3821138e-08
0.0029655702
3.3205081e-08
0.0029655452
2.4921195e-08
0.0029655267
1.8539173e-08
0.002965513
1.3656804e-08
0.0029655031
9.9750488e-09
0.0029654959
7.2115779e-09
0.0029654907
5.172392e-09
0.0029654871
3.6688483e-09
0.0029654845
2.585432e-09
0.0029654827
1.8016702e-09
0.0029654814
1.2526249e-09
0.0029654806
8.6284037e-10
0.00296548
5.9638258e-10
0.0029654796
4.0910266e-10
0.0029654793
2.8138914e-10
0.0029654791
1.9495062e-10
0.002965479
1.3890802e-10
0.0029654789
1.1816989e-10
0.0029654788
1.1962638e-10
0.0029654786
1.7388251e-10
0.0029654783
2.6558442e-10
0.0029654778
4.4314819e-10
0.0029654771
7.5282162e-10
0.0029654758
1.3872685e-09
2.1694366e-09
0.010339525
0.00035427932
0.010570754
0.00079057335
0.010606301
0.00091894821
0.010547572
0.00090167137
0.010422317
0.00084262624
0.010244356
0.00075768559
0.010039421
0.00065662744
0.0098287426
0.00055365587
0.009625135
0.00045977084
0.0094353013
0.00037975354
0.0092624277
0.00031409259
0.0091075332
0.00026140427
0.0089701539
0.0002196995
0.0088489023
0.00018689788
0.0087419715
0.00016105804
0.0086474926
0.00014051897
0.0085636939
0.00012399299
0.0084890107
0.00011047602
0.0084221096
9.9219884e-05
0.0083618774
8.968141e-05
0.0083073954
8.1470665e-05
0.0082579079
7.4307832e-05
0.0082127929
6.7990465e-05
0.0081715354
6.236993e-05
0.0081337052
5.7334905e-05
0.0080989393
5.2799988e-05
0.0080669282
4.8697926e-05
0.0080374053
4.4974384e-05
0.0080101388
4.1584459e-05
0.0079849256
3.8490358e-05
0.0079615864
3.565982e-05
0.007939962
3.3065003e-05
0.0079199103
3.0681668e-05
0.0079013041
2.8488562e-05
0.0078840292
2.646692e-05
0.0078679825
2.4600074e-05
0.007853071
2.2873119e-05
0.007839211
2.1272654e-05
0.0078263266
1.9786546e-05
0.0078143494
1.8403771e-05
0.0078032176
1.7114264e-05
0.0077928755
1.5908851e-05
0.0077832729
1.4779154e-05
0.0077743648
1.3717598e-05
0.0077661103
1.2717361e-05
0.0077584728
1.1772433e-05
0.0077514191
1.0877562e-05
0.0077449188
1.0028342e-05
0.007738944
9.2211289e-06
0.0077334687
8.4531112e-06
0.0077284683
7.7221869e-06
0.0077239192
7.0269901e-06
0.0077197983
6.3667215e-06
0.0077160828
5.7411293e-06
0.0077127499
5.1503095e-06
0.0077097767
4.5946506e-06
0.00770714
4.0746329e-06
0.0077048162
3.5907577e-06
0.0077027817
3.1433841e-06
0.0077010127
2.7326641e-06
0.0076994856
2.3584419e-06
0.0076981772
2.0202131e-06
0.0076970649
1.7171023e-06
0.0076961266
1.4478496e-06
0.0076953417
1.2108597e-06
0.0076946905
1.0042097e-06
0.0076941549
8.2575269e-07
0.0076937181
6.7313285e-07
0.0076933651
5.4391521e-07
0.0076930822
4.3559152e-07
0.0076928577
3.4571579e-07
0.007692681
2.7188931e-07
0.0076925433
2.1188309e-07
0.007692437
1.6359386e-07
0.0076923556
1.2515023e-07
0.0076922939
9.4843547e-08
0.0076922476
7.1215574e-08
0.0076922132
5.2966693e-08
0.0076921878
3.9034841e-08
0.0076921693
2.8490041e-08
0.0076921559
2.0609453e-08
0.0076921463
1.4759996e-08
0.0076921396
1.048266e-08
0.0076921348
7.3660973e-09
0.0076921315
5.143313e-09
0.0076921291
3.5509474e-09
0.0076921276
2.4491641e-09
0.0076921265
1.6661077e-09
0.0076921258
1.1467239e-09
0.0076921253
7.7062426e-10
0.007692125
5.4251002e-10
0.0076921247
3.7350374e-10
0.0076921246
3.1034512e-10
0.0076921244
2.8833391e-10
0.0076921242
3.6376526e-10
0.0076921239
5.2493383e-10
0.0076921235
7.7439712e-10
0.0076921231
1.2737963e-09
0.0076921228
1.8082138e-09
2.7087469e-09
0.010188704
0.00016557515
0.010530487
0.000448791
0.010851453
0.00059798178
0.011124174
0.00062895025
0.011350581
0.00061621887
0.011524486
0.00058378056
0.01164633
0.00053478421
0.011724155
0.0004758305
0.011767999
0.00041592666
0.011786639
0.00036111401
0.011787114
0.00031361713
0.011775058
0.00027346027
0.011754861
0.0002398972
0.011729768
0.00021199034
0.011702053
0.00018877263
0.011673239
0.00016933391
0.011644339
0.00015289299
0.011616003
0.00013881186
0.011588629
0.00012659382
0.011562446
0.00011586447
0.011537571
0.00010634495
0.011514052
9.7826996e-05
0.011491889
9.0153328e-05
0.011471056
8.3203279e-05
0.011451509
7.6882439e-05
0.011433193
7.1115243e-05
0.011416051
6.5839749e-05
0.011400022
6.1004015e-05
0.011385043
5.656364e-05
0.011371053
5.2480098e-05
0.011357993
4.8719577e-05
0.011345806
4.5252154e-05
0.011334436
4.2051156e-05
0.011323832
3.9092684e-05
0.011313944
3.6355203e-05
0.011304725
3.3819223e-05
0.011296131
3.1467016e-05
0.011288121
2.9282382e-05
0.011280657
2.7250452e-05
0.011273704
2.5357536e-05
0.011267227
2.3590992e-05
0.011261197
2.193915e-05
0.011255585
2.0391253e-05
0.011250365
1.8937433e-05
0.011245514
1.7568717e-05
0.011241009
1.6277031e-05
0.011236832
1.5055252e-05
0.011232963
1.3897196e-05
0.011229387
1.2797683e-05
0.011226087
1.1752483e-05
0.011223051
1.0758354e-05
0.011220265
9.8129169e-06
0.011217717
8.9146595e-06
0.011215396
8.0627385e-06
0.011213289
7.2569343e-06
0.011211386
6.497411e-06
0.011209676
5.7846397e-06
0.011208148
5.119153e-06
0.011206789
4.501463e-06
0.01120559
3.9318531e-06
0.011204538
3.4103201e-06
0.011203621
2.9364391e-06
0.011202829
2.5093434e-06
0.011202149
2.1276788e-06
0.01120157
1.7896267e-06
0.011201081
1.4929406e-06
0.011200671
1.2349984e-06
0.011200331
1.0128983e-06
0.011200052
8.2352106e-07
0.011199823
6.636546e-07
0.011199639
5.3004502e-07
0.011199491
4.1952005e-07
0.011199374
3.2901349e-07
0.011199282
2.5566949e-07
0.01119921
1.9683533e-07
0.011199155
1.5013741e-07
0.011199113
1.1344587e-07
0.011199081
8.4923356e-08
0.011199057
6.2972434e-08
0.011199039
4.6260737e-08
0.011199026
3.3662678e-08
0.011199016
2.4268067e-08
0.01119901
1.7331018e-08
0.011199005
1.2264004e-08
0.011199001
8.6015938e-09
0.011198999
5.9809868e-09
0.011198997
4.1296942e-09
0.011198996
2.829979e-09
0.011198995
1.9341456e-09
0.011198995
1.3146243e-09
0.011198994
9.030465e-10
0.011198994
6.3443566e-10
0.011198994
4.8302415e-10
0.011198994
4.3986473e-10
0.011198994
4.5859721e-10
0.011198994
6.2862429e-10
0.011198994
7.8465531e-10
0.011198994
1.2436092e-09
0.011198994
1.5683366e-09
2.2205526e-09
0.010097182
6.8393556e-05
0.010346961
0.00019901112
0.010662469
0.00028247387
0.010982753
0.00030866649
0.011290229
0.00030874342
0.011575251
0.00029875789
0.011829022
0.00028101346
0.012047865
0.00025698756
0.012233272
0.00023051983
0.01238924
0.00020514591
0.012520295
0.00018256237
0.012630755
0.00016299959
0.012724428
0.00014622493
0.012804515
0.00013190315
0.012873613
0.00011967429
0.012933772
0.00010917464
0.012986596
0.00010006911
0.013033332
9.207641e-05
0.01307495
8.4975303e-05
0.013112216
7.8598668e-05
0.013145739
7.2822359e-05
0.013176012
6.7553988e-05
0.013203441
6.2723959e-05
0.013228365
5.8278899e-05
0.013251071
5.4176935e-05
0.013271802
5.0384287e-05
0.013290769
4.687287e-05
0.013308154
4.361865e-05
0.013324117
4.0600569e-05
0.013338797
3.7799835e-05
0.013352317
3.519948e-05
0.013364786
3.2784036e-05
0.013376297
3.0539323e-05
0.013386938
2.8452271e-05
0.013396782
2.6510799e-05
0.013405898
2.4703693e-05
0.013414344
2.3020516e-05
0.013422175
2.1451522e-05
0.013429438
1.9987588e-05
0.013436175
1.8620162e-05
0.013442425
1.7341208e-05
0.013448221
1.6143205e-05
0.013453593
1.5019101e-05
0.013458568
1.3962359e-05
0.01346317
1.2966916e-05
0.01346742
1.2027281e-05
0.013471337
1.1138475e-05
0.013474938
1.0296169e-05
0.013478239
9.4965778e-06
0.013481255
8.7366227e-06
0.013484
8.0137656e-06
0.013486486
7.326166e-06
0.013488729
6.6724568e-06
0.01349074
6.0518757e-06
0.013492532
5.4639938e-06
0.013494121
4.9088165e-06
0.013495519
4.386492e-06
0.013496741
3.8973814e-06
0.0134978
3.4417847e-06
0.013498712
3.0199917e-06
0.01349949
2.6320625e-06
0.013500149
2.2778663e-06
0.013500701
1.956943e-06
0.01350116
1.6685391e-06
0.013501538
1.4115622e-06
0.013501847
1.1846095e-06
0.013502095
9.8600976e-07
0.013502294
8.1383631e-07
0.013502452
6.6601417e-07
0.013502575
5.4031522e-07
0.013502671
4.3450581e-07
0.013502744
3.4630225e-07
0.0135028
2.7354237e-07
0.013502841
2.1410149e-07
0.013502872
1.6606668e-07
0.013502894
1.2761355e-07
0.013502911
9.7178611e-08
0.013502922
7.330316e-08
0.013502931
5.4800113e-08
0.013502936
4.0572061e-08
0.01350294
2.9778939e-08
0.013502943
2.1638881e-08
0.013502945
1.5600039e-08
0.013502946
1.1127428e-08
0.013502947
7.8875922e-09
0.013502947
5.5255645e-09
0.013502947
3.8617394e-09
0.013502948
2.6615855e-09
0.013502948
1.8452866e-09
0.013502948
1.2576915e-09
0.013502948
8.8165901e-10
0.013502948
6.1690844e-10
0.013502948
4.7768803e-10
0.013502948
4.086117e-10
0.013502948
4.0629963e-10
0.013502948
4.8475625e-10
0.013502948
5.6485178e-10
0.013502949
8.0350602e-10
0.01350295
9.5279166e-10
1.2731123e-09
0.010068394
1.6283892e-13
0.010267405
6.5118367e-13
0.010549879
1.2343778e-12
0.010858545
1.9686444e-12
0.011167288
2.908787e-12
0.011466046
4.1065515e-12
0.01174706
5.5860646e-12
0.012004047
7.3998053e-12
0.012234567
9.5739184e-12
0.012439713
1.2197483e-11
0.012622275
1.5295661e-11
0.012785275
1.899858e-11
0.0129315
2.333813e-11
0.013063403
2.8508316e-11
0.013183077
3.4567165e-11
0.013292252
4.1790264e-11
0.013392321
5.0203197e-11
0.013484397
6.0179619e-11
0.013569373
7.162096e-11
0.013647971
8.5005108e-11
0.013720793
9.9913161e-11
0.013788347
1.1694071e-10
0.013851071
1.3525918e-10
0.01390935
1.5559703e-10
0.013963527
1.7655176e-10
0.014013911
1.9902628e-10
0.014060783
2.2115078e-10
0.014104402
2.4395604e-10
0.014145002
2.6477256e-10
0.014182801
2.8455072e-10
0.014218001
3.0010576e-10
0.014250784
3.1221706e-10
0.014281323
3.1765792e-10
0.014309775
3.1610257e-10
0.014336286
3.054161e-10
0.014360989
2.8459458e-10
0.014384009
2.5298605e-10
0.01440546
2.0830061e-10
0.014425448
1.5500364e-10
0.014444068
8.9086543e-11
0.014461409
1.5391674e-11
0.014477552
-7.7054032e-11
0.014492572
-1.6417725e-10
0.014506534
-2.607877e-10
0.014519501
-3.4682321e-10
0.014531529
-4.3896521e-10
0.014542668
-5.1181285e-10
0.014552965
-5.8637192e-10
0.014562462
-6.3383155e-10
0.014571199
-6.812309e-10
0.014579214
-6.9804424e-10
0.014586541
-7.1336041e-10
0.014593214
-6.9746197e-10
0.014599267
-6.8235338e-10
0.014604731
-6.4120175e-10
0.014609641
-6.0210172e-10
0.014614028
-5.4342366e-10
0.014617926
-4.8917235e-10
0.014621368
-4.2404883e-10
0.014624388
-3.6388417e-10
0.014627021
-2.9942344e-10
0.014629299
-2.3968981e-10
0.014631256
-1.8186926e-10
0.014632925
-1.2733118e-10
0.014634337
-7.8708578e-11
0.014635521
-3.28777e-11
0.014636507
5.6068477e-12
0.014637321
4.9999633e-11
0.014637987
7.9206742e-11
0.014638528
1.1279979e-10
0.014638962
1.327853e-10
0.014639308
1.586495e-10
0.014639582
1.6827545e-10
0.014639796
1.8686814e-10
0.014639962
1.8810084e-10
0.014640089
1.9852238e-10
0.014640186
1.8996456e-10
0.014640259
1.9327012e-10
0.014640314
1.7882447e-10
0.014640355
1.77145e-10
0.014640384
1.5852854e-10
0.014640406
1.560255e-10
0.014640421
1.3816501e-10
0.014640432
1.3598685e-10
0.01464044
1.1708518e-10
0.014640446
1.150911e-10
0.014640449
9.6953445e-11
0.014640452
9.6071346e-11
0.014640454
7.9213623e-11
0.014640455
8.3758715e-11
0.014640456
7.5303746e-11
0.014640456
9.1162195e-11
0.014640457
9.4354384e-11
0.014640457
1.191694e-10
0.014640457
1.2907283e-10
0.014640457
1.3958283e-10
0.014640458
1.4459377e-10
0.014640459
1.355676e-10
0.01464046
1.3616293e-10
1.2529791e-10
0.010068394
-6.8393556e-05
0.010267405
-0.00019901112
0.010549879
-0.00028247387
0.010858545
-0.00030866649
0.011167288
-0.00030874342
0.011466046
-0.00029875788
0.01174706
-0.00028101345
0.012004047
-0.00025698755
0.012234567
-0.00023051981
0.012439713
-0.00020514588
0.012622275
-0.00018256234
0.012785275
-0.00016299955
0.0129315
-0.00014622489
0.013063403
-0.00013190309
0.013183077
-0.00011967423
0.013292252
-0.00010917456
0.013392321
-0.00010006901
0.013484397
-9.2076296e-05
0.013569373
-8.4975168e-05
0.013647971
-7.8598508e-05
0.013720793
-7.2822171e-05
0.013788347
-6.7553769e-05
0.013851071
-6.2723706e-05
0.01390935
-5.8278609e-05
0.013963527
-5.4176607e-05
0.014013911
-5.0383918e-05
0.014060783
-4.6872461e-05
0.014104402
-4.3618201e-05
0.014145002
-4.0600081e-05
0.014182802
-3.7799313e-05
0.014218001
-3.519893e-05
0.014250785
-3.2783464e-05
0.014281324
-3.053874e-05
0.014309776
-2.845169e-05
0.014336286
-2.6510236e-05
0.01436099
-2.4703164e-05
0.01438401
-2.302004e-05
0.014405461
-2.1451119e-05
0.014425448
-1.9987277e-05
0.014444068
-1.8619964e-05
0.01446141
-1.7341141e-05
0.014477553
-1.6143287e-05
0.014492572
-1.5019335e-05
0.014506534
-1.3962754e-05
0.014519502
-1.2967464e-05
0.014531529
-1.2027985e-05
0.014542668
-1.1139315e-05
0.014552965
-1.0297137e-05
0.014562462
-9.4976443e-06
0.014571199
-8.7377761e-06
0.014579213
-8.0149675e-06
0.01458654
-7.3274032e-06
0.014593213
-6.6736899e-06
0.014599266
-6.0530947e-06
0.01460473
-5.4651631e-06
0.01460964
-4.9099299e-06
0.014614027
-4.3875218e-06
0.014617925
-3.8983268e-06
0.014621367
-3.4426274e-06
0.014624387
-3.0207347e-06
0.01462702
-2.6326962e-06
0.014629298
-2.2783954e-06
0.014631255
-1.9573667e-06
0.014632924
-1.6688627e-06
0.014634336
-1.411791e-06
0.01463552
-1.1847475e-06
0.014636507
-9.8606542e-07
0.01463732
-8.1380954e-07
0.014637986
-6.6592056e-07
0.014638527
-5.4015559e-07
0.014638961
-4.3429782e-07
0.014639308
-3.4604539e-07
0.014639581
-2.7325572e-07
0.014639795
-2.1378195e-07
0.014639961
-1.6573533e-07
0.014640089
-1.2726743e-07
0.014640186
-9.6838616e-08
0.014640259
-7.2963006e-08
0.014640314
-5.44791e-08
0.014640354
-4.0261272e-08
0.014640384
-2.9493538e-08
0.014640406
-2.1364841e-08
0.014640421
-1.5351027e-08
0.014640432
-1.0889928e-08
0.01464044
-7.6757045e-09
0.014640445
-5.3251711e-09
0.014640449
-3.6868399e-09
0.014640452
-2.4971407e-09
0.014640454
-1.7006528e-09
0.014640455
-1.1133908e-09
0.014640456
-7.4124557e-10
0.014640456
-4.602675e-10
0.014640457
-3.036665e-10
0.014640457
-2.0203315e-10
0.014640457
-1.7608123e-10
0.014640458
-2.3905674e-10
0.014640458
-3.066206e-10
0.014640459
-5.5535062e-10
0.01464046
-7.0255939e-10
-1.0514702e-09
0.010097182
-0.00016557515
0.010346961
-0.000448791
0.010662469
-0.00059798177
0.010982753
-0.00062895025
0.011290229
-0.00061621886
0.011575251
-0.00058378055
0.011829022
-0.0005347842
0.012047865
-0.00047583049
0.012233272
-0.00041592664
0.01238924
-0.00036111398
0.012520295
-0.0003136171
0.012630755
-0.00027346024
0.012724428
-0.00023989717
0.012804515
-0.00021199029
0.012873613
-0.00018877258
0.012933772
-0.00016933384
0.012986596
-0.00015289291
0.013033332
-0.00013881176
0.01307495
-0.00012659371
0.013112216
-0.00011586434
0.013145739
-0.0001063448
0.013176012
-9.7826822e-05
0.013203441
-9.0153128e-05
0.013228366
-8.3203053e-05
0.013251071
-7.6882184e-05
0.013271802
-7.1114961e-05
0.013290769
-6.583944e-05
0.013308155
-6.100368e-05
0.013324118
-5.656328e-05
0.013338798
-5.2479717e-05
0.013352319
-4.8719181e-05
0.013364787
-4.5251748e-05
0.013376299
-4.205075e-05
0.013386939
-3.9092286e-05
0.013396784
-3.6354825e-05
0.013405899
-3.3818877e-05
0.013414346
-3.1466717e-05
0.013422177
-2.928214e-05
0.01342944
-2.7250287e-05
0.013436177
-2.5357449e-05
0.013442427
-2.359101e-05
0.013448223
-2.1939264e-05
0.013453595
-2.0391489e-05
0.01345857
-1.8937765e-05
0.013463171
-1.7569174e-05
0.013467421
-1.6277575e-05
0.013471337
-1.5055909e-05
0.013474938
-1.3897917e-05
0.013478239
-1.2798497e-05
0.013481254
-1.1753331e-05
0.013483999
-1.0759263e-05
0.013486485
-9.8138259e-06
0.013488727
-8.9155976e-06
0.013490737
-8.0636466e-06
0.01349253
-7.2578386e-06
0.013494118
-6.4982607e-06
0.013495516
-5.7854588e-06
0.013496738
-5.119902e-06
0.013497797
-4.5021598e-06
0.013498709
-3.9324722e-06
0.013499487
-3.4108725e-06
0.013500145
-2.9369134e-06
0.013500698
-2.5097426e-06
0.013501157
-2.1280056e-06
0.013501535
-1.789875e-06
0.013501843
-1.4931257e-06
0.013502092
-1.2351065e-06
0.013502292
-1.0129552e-06
0.013502449
-8.2350572e-07
0.013502573
-6.6360318e-07
0.013502668
-5.2993227e-07
0.013502742
-4.1938811e-07
0.013502798
-3.2883089e-07
0.013502839
-2.5548354e-07
0.01350287
-1.9661264e-07
0.013502893
-1.4992781e-07
0.013502909
-1.1321141e-07
0.013502921
-8.4714871e-08
0.01350293
-6.2749721e-08
0.013502935
-4.6072145e-08
0.01350294
-3.3461718e-08
0.013502942
-2.4102049e-08
0.013502944
-1.7152828e-08
0.013502945
-1.2121466e-08
0.013502946
-8.4462318e-09
0.013502947
-5.8620985e-09
0.013502947
-4.0000058e-09
0.013502947
-2.7358159e-09
0.013502947
-1.8229547e-09
0.013502948
-1.2300533e-09
0.013502948
-7.9029585e-10
0.013502948
-5.4092615e-10
0.013502948
-3.4795058e-10
0.013502948
-3.1374358e-10
0.013502948
-2.9210648e-10
0.013502948
-4.637293e-10
0.013502948
-5.9990151e-10
0.013502949
-1.0770274e-09
0.01350295
-1.4018821e-09
-2.0621027e-09
0.010188704
-0.00035427932
0.010530487
-0.00079057335
0.010851453
-0.00091894821
0.011124174
-0.00090167137
0.011350581
-0.00084262623
0.011524486
-0.00075768559
0.01164633
-0.00065662743
0.011724155
-0.00055365586
0.011767999
-0.00045977082
0.011786639
-0.00037975353
0.011787114
-0.00031409257
0.011775058
-0.00026140424
0.011754861
-0.00021969947
0.011729768
-0.00018689785
0.011702054
-0.000161058
0.011673239
-0.00014051893
0.011644339
-0.00012399294
0.011616003
-0.00011047596
0.011588629
-9.9219815e-05
0.011562446
-8.968133e-05
0.011537572
-8.1470574e-05
0.011514053
-7.4307728e-05
0.01149189
-6.7990348e-05
0.011471057
-6.23698e-05
0.011451509
-5.7334761e-05
0.011433194
-5.2799832e-05
0.011416052
-4.8697758e-05
0.011400023
-4.4974206e-05
0.011385044
-4.1584273e-05
0.011371054
-3.8490166e-05
0.011357995
-3.5659626e-05
0.011345808
-3.3064812e-05
0.011334438
-3.0681485e-05
0.011323834
-2.8488393e-05
0.011313946
-2.6466771e-05
0.011304727
-2.4599952e-05
0.011296133
-2.2873034e-05
0.011288124
-2.127261e-05
0.01128066
-1.9786551e-05
0.011273706
-1.8403829e-05
0.011267229
-1.7114385e-05
0.011261199
-1.5909029e-05
0.011255587
-1.4779397e-05
0.011250367
-1.3717897e-05
0.011245515
-1.2717723e-05
0.01124101
-1.177284e-05
0.011236832
-1.0878022e-05
0.011232963
-1.0028833e-05
0.011229386
-9.2216586e-06
0.011226086
-8.4536543e-06
0.011223049
-7.7227508e-06
0.011220263
-7.0275508e-06
0.011217715
-6.3672864e-06
0.011215393
-5.7416757e-06
0.011213285
-5.1508449e-06
0.011211382
-4.5951565e-06
0.011209672
-4.0751156e-06
0.011208143
-3.5912045e-06
0.011206785
-3.1437992e-06
0.011205585
-2.7330395e-06
0.011204533
-2.358779e-06
0.011203617
-2.0205111e-06
0.011202824
-1.7173596e-06
0.011202144
-1.4480688e-06
0.011201565
-1.2110364e-06
0.011201077
-1.0043529e-06
0.011200667
-8.2585604e-07
0.011200328
-6.7320622e-07
0.011200048
-5.4395072e-07
0.01119982
-4.3560459e-07
0.011199636
-3.4569801e-07
0.011199488
-2.7185536e-07
0.011199371
-2.1182339e-07
0.01119928
-1.6352714e-07
0.011199208
-1.2506692e-07
0.011199153
-9.4760551e-08
0.011199111
-7.1122194e-08
0.011199079
-5.2881783e-08
0.011199056
-3.8946108e-08
0.011199038
-2.8411255e-08
0.011199025
-2.0525449e-08
0.011199016
-1.4686254e-08
0.011199009
-1.0404895e-08
0.011199004
-7.298863e-09
0.011199001
-5.0734179e-09
0.011198999
-3.495945e-09
0.011198997
-2.3945489e-09
0.011198996
-1.6232484e-09
0.011198995
-1.0963556e-09
0.011198995
-7.2579756e-10
0.011198994
-4.8423593e-10
0.011198994
-3.197384e-10
0.011198994
-2.4480605e-10
0.011198994
-2.3436533e-10
0.011198994
-2.9553129e-10
0.011198994
-4.4587086e-10
0.011198994
-6.9916378e-10
0.011198994
-1.2035899e-09
0.011198995
-1.7251779e-09
-2.6178842e-09
0.010339525
-0.00069380425
0.010570754
-0.0010218027
0.010606301
-0.00095449449
0.010547572
-0.00084294334
0.010422317
-0.0007173708
0.010244356
-0.00057972444
0.010039421
-0.00045169204
0.0098287427
-0.00034297801
0.009625135
-0.00025616317
0.0094353013
-0.00018991983
0.0092624277
-0.00014121897
0.0091075333
-0.00010650979
0.008970154
-8.2320215e-05
0.0088489024
-6.5646238e-05
0.0087419716
-5.4127248e-05
0.0086474928
-4.6040043e-05
0.0085636941
-4.0194286e-05
0.0084890109
-3.5792748e-05
0.0084221098
-3.2318749e-05
0.0083618778
-2.9449268e-05
0.0083073957
-2.6988562e-05
0.0082579083
-2.4820288e-05
0.0082127934
-2.2875474e-05
0.008171536
-2.1112422e-05
0.0081337059
-1.9504674e-05
0.0080989401
-1.8034052e-05
0.0080669291
-1.6686776e-05
0.0080374063
-1.5451424e-05
0.00801014
-1.431792e-05
0.0079849269
-1.3277102e-05
0.0079615878
-1.2320551e-05
0.0079399635
-1.1440529e-05
0.0079199119
-1.0629954e-05
0.0079013058
-9.8823775e-06
0.0078840309
-9.1919326e-06
0.0078679842
-8.5533042e-06
0.0078530727
-7.9616541e-06
0.0078392126
-7.4125919e-06
0.0078263281
-6.9020886e-06
0.0078143506
-6.4264755e-06
0.0078032186
-5.9823549e-06
0.0077928762
-5.5666448e-06
0.0077832733
-5.1764801e-06
0.0077743647
-4.8093061e-06
0.0077661098
-4.4627669e-06
0.0077584719
-4.1348459e-06
0.0077514178
-3.8237224e-06
0.007744917
-3.527944e-06
0.0077389418
-3.2462499e-06
0.0077334661
-2.9777597e-06
0.0077284653
-2.7217576e-06
0.0077239158
-2.4778797e-06
0.0077197946
-2.2458716e-06
0.0077160789
-2.0257627e-06
0.0077127458
-1.8176151e-06
0.0077097725
-1.6216737e-06
0.0077071357
-1.4381321e-06
0.0077048118
-1.2672536e-06
0.0077027773
-1.1091838e-06
0.0077010084
-9.6403512e-07
0.0076994814
-8.317669e-07
0.0076981732
-7.1222757e-07
0.007697061
-6.051209e-07
0.0076961229
-5.1000108e-07
0.0076953382
-4.2632149e-07
0.0076946873
-3.5337659e-07
0.0076941518
-2.9043215e-07
0.0076937153
-2.3661458e-07
0.0076933624
-1.9109847e-07
0.0076930799
-1.5294372e-07
0.0076928555
-1.2133021e-07
0.0076926791
-9.5353376e-08
0.0076925416
-7.4280095e-08
0.0076924355
-5.7306548e-08
0.0076923543
-4.3829653e-08
0.0076922928
-3.3185874e-08
0.0076922466
-2.4921392e-08
0.0076922124
-1.8514496e-08
0.0076921871
-1.3652061e-08
0.0076921687
-9.9446685e-09
0.0076921554
-7.2015081e-09
0.007692146
-5.1372518e-09
0.0076921392
-3.6559594e-09
0.0076921346
-2.5520663e-09
0.0076921313
-1.7966988e-09
0.007692129
-1.230811e-09
0.0076921275
-8.6637883e-10
0.0076921265
-5.7634933e-10
0.0076921258
-4.0573592e-10
0.0076921254
-2.4863021e-10
0.0076921251
-1.7880504e-10
0.0076921249
-1.0326266e-10
0.0076921248
-1.1748371e-10
0.0076921246
-1.0854099e-10
0.0076921244
-1.8593463e-10
0.0076921241
-2.691104e-10
0.0076921238
-4.483532e-10
0.0076921234
-7.2634876e-10
0.0076921231
-1.338378e-09
-2.1303758e-09
0.0093061957
0.0082843931
0.0073298986
0.0064869553
0.0057695845
0.00518986
0.004738168
0.00439519
0.0041390268
0.003949107
0.003807888
0.0037013782
0.003619058
0.0035534118
0.0034992845
0.0034532445
0.0034130502
0.0033772574
0.0033449387
0.0033154894
0.0032885009
0.0032636806
0.0032408051
0.0032196927
0.003200188
0.0031821539
0.0031654671
0.0031500157
0.0031356978
0.0031224207
0.0031101001
0.0030986595
0.0030880296
0.0030781472
0.0030689552
0.0030604019
0.0030524402
0.0030450276
0.0030381255
0.0030316991
0.0030257168
0.0030201502
0.0030149738
0.0030101646
0.0030057019
0.0030015673
0.0029977437
0.0029942159
0.0029909699
0.0029879923
0.0029852707
0.0029827931
0.0029805474
0.0029785218
0.0029767044
0.0029750828
0.0029736448
0.0029723777
0.0029712686
0.0029703046
0.0029694729
0.0029687607
0.0029681557
0.0029676457
0.0029672194
0.002966866
0.0029665756
0.002966339
0.0029661479
0.0029659949
0.0029658737
0.0029657783
0.0029657041
0.0029656468
0.002965603
0.0029655698
0.002965545
0.0029655265
0.0029655129
0.0029655029
0.0029654958
0.0029654906
0.002965487
0.0029654845
0.0029654827
0.0029654814
0.0029654806
0.00296548
0.0029654796
0.0029654794
0.0029654793
0.0029654791
0.002965479
0.0029654789
0.0029654787
0.0029654783
0.0029654778
0.0029654772
0.0029654759
)
;

boundaryField
{
    top
    {
        type            calculated;
        value           uniform 0;
    }
    inlet
    {
        type            calculated;
        value           nonuniform List<scalar> 10(-0.01 -0.01 -0.01 -0.01 -0.01 -0.01 -0.01 -0.01 -0.01 -0.01);
    }
    outlet
    {
        type            calculated;
        value           nonuniform List<scalar> 10(0.0029654736 0.0076921223 0.011198995 0.013502951 0.014640461 0.014640461 0.013502951 0.011198995 0.0076921226 0.0029654737);
    }
    bottom
    {
        type            calculated;
        value           uniform 0;
    }
    back
    {
        type            empty;
        value           nonuniform 0();
    }
    front
    {
        type            empty;
        value           nonuniform 0();
    }
}


// ************************************************************************* //
