/*--------------------------------*- C++ -*----------------------------------*\
| =========                 |                                                 |
| \\      /  F ield         | OpenFOAM: The Open Source CFD Toolbox           |
|  \\    /   O peration     | Version:  v1812                                 |
|   \\  /    A nd           | Web:      www.OpenFOAM.com                      |
|    \\/     M anipulation  |                                                 |
\*---------------------------------------------------------------------------*/
FoamFile
{
    version     2.0;
    format      ascii;
    class       surfaceScalarField;
    location    "9";
    object      phi;
}
// * * * * * * * * * * * * * * * * * * * * * * * * * * * * * * * * * * * * * //

dimensions      [0 3 -1 0 0 0 0];
oriented        oriented;


internalField   nonuniform List<scalar> 
1890
(
0.0093061957
0.00069380425
0.0082843931
0.0010218027
0.0073298986
0.00095449449
0.0064869553
0.00084294334
0.0057695845
0.0007173708
0.00518986
0.00057972444
0.004738168
0.00045169204
0.00439519
0.00034297801
0.0041390268
0.00025616317
0.003949107
0.00018991983
0.003807888
0.00014121897
0.0037013782
0.0001065098
0.003619058
8.2320221e-05
0.0035534117
6.5646246e-05
0.0034992845
5.4127256e-05
0.0034532444
4.604005e-05
0.0034130501
4.0194293e-05
0.0033772574
3.5792755e-05
0.0033449386
3.2318756e-05
0.0033154893
2.9449276e-05
0.0032885008
2.6988571e-05
0.0032636805
2.4820297e-05
0.003240805
2.287548e-05
0.0032196926
2.1112422e-05
0.0032001879
1.9504664e-05
0.0031821539
1.8034028e-05
0.0031654671
1.6686737e-05
0.0031500158
1.5451371e-05
0.0031356979
1.4317864e-05
0.0031224208
1.3277066e-05
0.0031101003
1.2320582e-05
0.0030986595
1.1440711e-05
0.0030880291
1.0630429e-05
0.0030781457
9.8833667e-06
0.003068952
9.193781e-06
0.0030603954
8.5565126e-06
0.0030524285
7.9669388e-06
0.0030450076
7.420922e-06
0.0030380928
6.9147582e-06
0.0030316477
6.445127e-06
0.0030256387
6.0090465e-06
0.0030200348
5.6038314e-06
0.0030148078
5.2270576e-06
0.0030099312
4.8765304e-06
0.003005381
4.5502573e-06
0.0030011346
4.2464256e-06
0.0029971712
3.9633811e-06
0.0029934716
3.699612e-06
0.0029900178
3.4537326e-06
0.0029867934
3.2244704e-06
0.0029837827
3.0106544e-06
0.0029809715
2.8112039e-06
0.0029783464
2.6251206e-06
0.0029758949
2.4514799e-06
0.0029736055
2.2894251e-06
0.0029714673
2.138162e-06
0.0029694704
1.9969529e-06
0.0029676052
1.8651136e-06
0.0029658632
1.7420071e-06
0.0029642362
1.6270403e-06
0.0029627165
1.5196592e-06
0.0029612972
1.4193445e-06
0.0029599716
1.3256082e-06
0.0029587336
1.2379914e-06
0.0029575775
1.1560609e-06
0.0029564981
1.0794117e-06
0.0029554905
1.0076616e-06
0.00295455
9.4045609e-07
0.0029536726
8.7746152e-07
0.0029528543
8.1836877e-07
0.0029520914
7.6288661e-07
0.0029513806
7.1074412e-07
0.002950719
6.6168544e-07
0.0029501035
6.1547628e-07
0.0029495316
5.7189741e-07
0.0029490009
5.3075687e-07
0.0029485091
4.9187996e-07
0.0029480541
4.5512032e-07
0.0029476338
4.2034962e-07
0.0029472463
3.8745874e-07
0.00294689
3.5635477e-07
0.002946563
3.2695136e-07
0.0029462639
2.9918005e-07
0.0029459909
2.7296891e-07
0.0029457426
2.4827789e-07
0.0029455176
2.2504424e-07
0.0029453144
2.0327056e-07
0.0029451315
1.8288159e-07
0.0029449676
1.6393579e-07
0.0029448213
1.462924e-07
0.0029446912
1.3009348e-07
0.0029445761
1.1504994e-07
0.0029444746
1.0148013e-07
0.0029443857
8.8826106e-08
0.0029443078
7.7781438e-08
0.0029442405
6.7296394e-08
0.0029441817
5.8722371e-08
0.0029441315
5.0185166e-08
0.0029440873
4.4235812e-08
3.8440013e-08
0.010339525
0.00035427932
0.010570754
0.00079057335
0.010606301
0.00091894821
0.010547572
0.00090167137
0.010422317
0.00084262624
0.010244356
0.00075768559
0.010039421
0.00065662744
0.0098287427
0.00055365586
0.009625135
0.00045977083
0.0094353013
0.00037975354
0.0092624277
0.00031409258
0.0091075332
0.00026140425
0.008970154
0.00021969948
0.0088489023
0.00018689787
0.0087419716
0.00016105803
0.0086474927
0.00014051895
0.008563694
0.00012399297
0.0084890107
0.000110476
0.0084221096
9.9219865e-05
0.0083618775
8.9681393e-05
0.0083073954
8.1470656e-05
0.0082579079
7.4307838e-05
0.0082127929
6.7990495e-05
0.0081715353
6.2369998e-05
0.0081337049
5.7335032e-05
0.0080989388
5.2800206e-05
0.0080669272
4.8698287e-05
0.0080374036
4.4974969e-05
0.0080101361
4.1585395e-05
0.0079849213
3.8491841e-05
0.0079615797
3.5662143e-05
0.0079399519
3.3068598e-05
0.0079198951
3.0687164e-05
0.0079012816
2.8496854e-05
0.0078839961
2.6479262e-05
0.0078679345
2.4618179e-05
0.0078530021
2.2899285e-05
0.0078391132
2.1309886e-05
0.0078261893
1.9838691e-05
0.0078141588
1.8475623e-05
0.0078029561
1.7211664e-05
0.0077925213
1.6038713e-05
0.0077827988
1.494947e-05
0.007773738
1.3937341e-05
0.0077652919
1.2996348e-05
0.0077574173
1.2121061e-05
0.0077500741
1.1306531e-05
0.0077432255
1.0548244e-05
0.0077368372
9.8420691e-06
0.0077308774
9.1842197e-06
0.0077253169
8.5712191e-06
0.0077201282
7.9998684e-06
0.0077152861
7.4672184e-06
0.007710767
6.9705459e-06
0.0077065491
6.5073324e-06
0.007702612
6.0752451e-06
0.0076989369
5.6721218e-06
0.007695506
5.2959555e-06
0.0076923032
4.944882e-06
0.007689313
4.6171678e-06
0.0076865215
4.3111971e-06
0.0076839154
4.0254626e-06
0.0076814824
3.7585527e-06
0.0076792112
3.509145e-06
0.0076770913
3.2759973e-06
0.0076751128
3.0579424e-06
0.0076732666
2.8538859e-06
0.0076715442
2.6628018e-06
0.007669938
2.4837318e-06
0.0076684406
2.3157834e-06
0.0076670453
2.1581253e-06
0.0076657461
2.0099862e-06
0.0076645371
1.8706508e-06
0.0076634132
1.7394566e-06
0.0076623693
1.6157983e-06
0.0076614009
1.4991212e-06
0.0076605039
1.3889345e-06
0.0076596743
1.2847996e-06
0.0076589084
1.1863443e-06
0.0076582026
1.0932421e-06
0.0076575537
1.0052285e-06
0.0076569586
9.2205937e-07
0.0076564143
8.4355496e-07
0.0076559177
7.6951274e-07
0.0076554662
6.9982862e-07
0.0076550569
6.3430625e-07
0.0076546873
5.7293977e-07
0.0076543547
5.1548617e-07
0.0076540565
4.6209724e-07
0.0076537905
4.1235163e-07
0.0076535538
3.6669046e-07
0.0076533446
3.2423295e-07
0.00765316
2.8604816e-07
0.0076529986
2.5024156e-07
0.0076528569
2.1935113e-07
0.0076527349
1.8924333e-07
0.0076526276
1.6590614e-07
0.0076525378
1.3998674e-07
0.0076524562
1.259113e-07
1.0043441e-07
0.010188704
0.00016557515
0.010530487
0.000448791
0.010851453
0.00059798177
0.011124174
0.00062895025
0.011350581
0.00061621887
0.011524486
0.00058378055
0.01164633
0.00053478421
0.011724155
0.00047583049
0.011767999
0.00041592665
0.011786639
0.00036111399
0.011787114
0.00031361711
0.011775058
0.00027346026
0.011754861
0.00023989719
0.011729768
0.00021199032
0.011702054
0.00018877261
0.011673239
0.00016933389
0.011644339
0.00015289296
0.011616003
0.00013881183
0.011588629
0.00012659379
0.011562446
0.00011586444
0.011537572
0.00010634493
0.011514052
9.7826998e-05
0.011491889
9.0153365e-05
0.011471056
8.3203374e-05
0.011451509
7.6882627e-05
0.011433193
7.1115577e-05
0.011416051
6.5840309e-05
0.011400021
6.1004922e-05
0.011385042
5.6565078e-05
0.011371051
5.248234e-05
0.01135799
4.8723027e-05
0.011345801
4.5257388e-05
0.011334429
4.2058999e-05
0.011323822
3.9104285e-05
0.011313929
3.6372145e-05
0.011304704
3.384364e-05
0.011296101
3.1501729e-05
0.01128808
2.9331052e-05
0.011280601
2.7317731e-05
0.011273627
2.5449201e-05
0.011267125
2.3714067e-05
0.011261062
2.210197e-05
0.011255408
2.0603478e-05
0.011250135
1.9209983e-05
0.011245218
1.7913619e-05
0.011240632
1.6707183e-05
0.011236354
1.5584069e-05
0.011232364
1.4538211e-05
0.011228642
1.3564033e-05
0.01122517
1.2656398e-05
0.011221931
1.1810574e-05
0.011218908
1.1022192e-05
0.011216088
1.0287215e-05
0.011213457
9.6019064e-06
0.011211002
8.962807e-06
0.01120871
8.3667071e-06
0.011206572
7.8106274e-06
0.011204576
7.2918001e-06
0.011202713
6.807651e-06
0.011200974
6.3557848e-06
0.011199352
5.9339696e-06
0.011197837
5.5401227e-06
0.011196423
5.1722985e-06
0.011195104
4.8286748e-06
0.011193872
4.5075441e-06
0.011192723
4.2073037e-06
0.01119165
3.9264489e-06
0.011190649
3.6635697e-06
0.011189716
3.4173457e-06
0.011188845
3.1865444e-06
0.011188033
2.9700181e-06
0.011187276
2.7666998e-06
0.011186571
2.5756019e-06
0.011185915
2.3958102e-06
0.011185304
2.2264852e-06
0.011184737
2.0668584e-06
0.011184209
1.9162366e-06
0.01118372
1.7739974e-06
0.011183267
1.6396e-06
0.011182848
1.5125638e-06
0.01118246
1.3924977e-06
0.011182104
1.2790366e-06
0.011181775
1.1719194e-06
0.011181474
1.0708468e-06
0.011181198
9.7567638e-07
0.011180946
8.8610638e-07
0.011180717
8.0215119e-07
0.011180509
7.233982e-07
0.011180321
6.50146e-07
0.011180152
5.8163486e-07
0.01118
5.1875045e-07
0.011179864
4.5984545e-07
0.011179743
4.0712819e-07
0.011179636
3.5686804e-07
0.011179541
3.1437305e-07
0.011179459
2.7116689e-07
0.011179385
2.3970354e-07
0.011179325
2.0088783e-07
0.011179267
1.830447e-07
1.4539927e-07
0.010097182
6.8393556e-05
0.010346961
0.00019901112
0.010662469
0.00028247387
0.010982753
0.00030866649
0.011290229
0.00030874342
0.011575251
0.00029875788
0.011829022
0.00028101346
0.012047865
0.00025698755
0.012233272
0.00023051982
0.01238924
0.0002051459
0.012520295
0.00018256236
0.012630755
0.00016299957
0.012724428
0.00014622491
0.012804515
0.00013190313
0.012873613
0.00011967426
0.012933772
0.00010917461
0.012986596
0.00010006907
0.013033332
9.2076365e-05
0.01307495
8.4975254e-05
0.013112216
7.8598615e-05
0.013145739
7.2822306e-05
0.013176012
6.7553942e-05
0.013203441
6.2723929e-05
0.013228366
5.8278902e-05
0.013251071
5.4176994e-05
0.013271802
5.0384441e-05
0.01329077
4.6873174e-05
0.013308155
4.361919e-05
0.013324119
4.0601472e-05
0.0133388
3.7801292e-05
0.013352321
3.5201765e-05
0.013364791
3.2787545e-05
0.013376306
3.054461e-05
0.01338695
2.8460111e-05
0.0133968
2.6522246e-05
0.013405923
2.4720163e-05
0.013414381
2.3043873e-05
0.013422228
2.1484174e-05
0.013429513
2.0032589e-05
0.013436281
1.86813e-05
0.013442572
1.7423095e-05
0.013448422
1.6251313e-05
0.013453866
1.5159803e-05
0.013458933
1.414288e-05
0.013463652
1.3195282e-05
0.013468047
1.2312141e-05
0.013472142
1.1488947e-05
0.013475958
1.0721523e-05
0.013479516
1.0005995e-05
0.013482834
9.338773e-06
0.013485928
8.7165234e-06
0.013488814
8.1361535e-06
0.013491507
7.5947896e-06
0.013494019
7.0897618e-06
0.013496363
6.6185862e-06
0.013498551
6.1789517e-06
0.013500593
5.7687061e-06
0.013502499
5.3858435e-06
0.013504278
5.0284948e-06
0.013505939
4.6949157e-06
0.013507489
4.3834781e-06
0.013508937
4.0926622e-06
0.013510288
3.8210449e-06
0.013511549
3.5672949e-06
0.013512727
3.3301637e-06
0.013513825
3.1084791e-06
0.013514851
2.9011414e-06
0.013515807
2.7071168e-06
0.013516699
2.5254379e-06
0.01351753
2.3551993e-06
0.013518305
2.1955554e-06
0.013519026
2.0457213e-06
0.013519696
1.9049661e-06
0.01352032
1.7726158e-06
0.013520898
1.6480486e-06
0.013521434
1.5306926e-06
0.01352193
1.4200324e-06
0.013522389
1.3155964e-06
0.013522811
1.2169752e-06
0.0135232
1.1237966e-06
0.013523557
1.0357559e-06
0.013523883
9.525658e-07
0.013524181
8.7402222e-07
0.013524452
7.9988432e-07
0.013524698
7.30052e-07
0.01352492
6.6426909e-07
0.013525119
6.0257779e-07
0.013525298
5.4460411e-07
0.013525458
4.9065654e-07
0.013525599
4.4001853e-07
0.013525724
3.9357597e-07
0.013525835
3.4975344e-07
0.013525931
3.1074233e-07
0.013526015
2.7296641e-07
0.013526088
2.4157947e-07
0.01352615
2.085739e-07
0.013526204
1.8557657e-07
0.01352625
1.5524742e-07
0.01352629
1.4259062e-07
1.1381124e-07
0.010068394
2.9860788e-13
0.010267405
3.2880361e-13
0.010549879
1.0557535e-13
0.010858545
3.8498221e-14
0.011167288
-6.3160012e-14
0.011466046
7.6648029e-15
0.01174706
7.126938e-14
0.012004047
2.017985e-13
0.012234567
3.5212451e-13
0.012439713
6.7515679e-13
0.012622275
8.6662722e-13
0.012785275
9.7988391e-13
0.0129315
1.0435648e-12
0.013063403
1.1515262e-12
0.013183077
1.0154764e-12
0.013292252
1.0695783e-12
0.013392321
1.0741026e-12
0.013484397
1.4343885e-12
0.013569373
2.0804842e-12
0.013647971
2.6729147e-12
0.013720794
3.3073548e-12
0.013788347
3.9540053e-12
0.013851071
4.5401993e-12
0.01390935
5.3451773e-12
0.013963527
5.9084724e-12
0.014013912
6.8081507e-12
0.014060785
7.7473485e-12
0.014104404
8.9776276e-12
0.014145005
1.0343787e-11
0.014182807
1.1802029e-11
0.014218009
1.349241e-11
0.014250796
1.5213612e-11
0.014281341
1.719914e-11
0.014309801
1.9228885e-11
0.014336323
2.1430159e-11
0.014361043
2.3933145e-11
0.014384087
2.6509819e-11
0.014405571
2.9476228e-11
0.014425604
3.250638e-11
0.014444285
3.5600852e-11
0.014461708
3.8699963e-11
0.014477959
4.1581076e-11
0.014493119
4.4589489e-11
0.014507262
4.7550748e-11
0.014520457
5.0639575e-11
0.014532769
5.3952682e-11
0.014544258
5.7133436e-11
0.014554979
6.0367967e-11
0.014564985
6.3103757e-11
0.014574324
6.5358737e-11
0.014583041
6.6862638e-11
0.014591177
6.7299886e-11
0.014598771
6.6852487e-11
0.014605861
6.5271645e-11
0.01461248
6.2747888e-11
0.014618659
5.9540792e-11
0.014624427
5.5322495e-11
0.014629813
5.0276091e-11
0.014634841
4.3872419e-11
0.014639536
3.5739416e-11
0.01464392
2.4628769e-11
0.014648012
1.1390719e-11
0.014651833
-3.7380839e-12
0.014655401
-2.3549736e-11
0.014658731
-4.3643856e-11
0.014661839
-6.5190559e-11
0.014664741
-8.7212796e-11
0.014667448
-1.1020759e-10
0.014669973
-1.3283266e-10
0.014672329
-1.569678e-10
0.014674524
-1.7983423e-10
0.01467657
-2.0431846e-10
0.014678476
-2.2649199e-10
0.014680248
-2.4862145e-10
0.014681897
-2.6680549e-10
0.014683428
-2.8197634e-10
0.014684848
-2.9118964e-10
0.014686164
-2.9590931e-10
0.014687381
-2.9367602e-10
0.014688505
-2.8821072e-10
0.014689541
-2.7653216e-10
0.014690494
-2.6291486e-10
0.014691368
-2.438382e-10
0.014692168
-2.2188054e-10
0.014692899
-1.9453853e-10
0.014693563
-1.6366418e-10
0.014694166
-1.2869689e-10
0.01469471
-9.239051e-11
0.014695201
-5.3422379e-11
0.014695641
-1.7604179e-11
0.014696035
2.1431838e-11
0.014696385
5.5202293e-11
0.014696695
9.0517663e-11
0.014696968
1.2095868e-10
0.01469721
1.5831069e-10
0.014697418
1.8559957e-10
0.014697603
2.2134598e-10
0.014697758
2.4055183e-10
0.014697901
2.510586e-10
2.65084e-10
0.010068394
-6.8393556e-05
0.010267405
-0.00019901112
0.010549879
-0.00028247387
0.010858545
-0.00030866649
0.011167288
-0.00030874342
0.011466046
-0.00029875788
0.01174706
-0.00028101346
0.012004047
-0.00025698755
0.012234567
-0.00023051982
0.012439713
-0.0002051459
0.012622275
-0.00018256236
0.012785275
-0.00016299957
0.0129315
-0.00014622491
0.013063403
-0.00013190312
0.013183077
-0.00011967426
0.013292252
-0.00010917461
0.013392321
-0.00010006907
0.013484397
-9.2076362e-05
0.013569373
-8.497525e-05
0.013647971
-7.859861e-05
0.013720794
-7.28223e-05
0.013788347
-6.7553935e-05
0.013851071
-6.272392e-05
0.01390935
-5.8278892e-05
0.013963527
-5.4176983e-05
0.014013912
-5.0384428e-05
0.014060785
-4.6873159e-05
0.014104404
-4.3619173e-05
0.014145006
-4.0601452e-05
0.014182807
-3.780127e-05
0.014218009
-3.520174e-05
0.014250796
-3.2787516e-05
0.014281341
-3.0544577e-05
0.014309801
-2.8460075e-05
0.014336323
-2.6522206e-05
0.014361043
-2.4720119e-05
0.014384087
-2.3043823e-05
0.014405571
-2.148412e-05
0.014425604
-2.0032529e-05
0.014444285
-1.8681235e-05
0.014461708
-1.7423023e-05
0.014477959
-1.6251236e-05
0.014493119
-1.5159721e-05
0.014507262
-1.4142792e-05
0.014520457
-1.3195188e-05
0.014532769
-1.2312041e-05
0.014544258
-1.1488842e-05
0.01455498
-1.0721412e-05
0.014564986
-1.000588e-05
0.014574324
-9.3386541e-06
0.014583041
-8.7164024e-06
0.014591177
-8.1360319e-06
0.014598772
-7.5946692e-06
0.014605861
-7.0896446e-06
0.01461248
-6.6184739e-06
0.014618659
-6.1788457e-06
0.014624427
-5.7686083e-06
0.014629813
-5.3857555e-06
0.014634842
-5.0284195e-06
0.014639537
-4.6948562e-06
0.01464392
-4.3834398e-06
0.014648013
-4.0926491e-06
0.014651834
-3.8210619e-06
0.014655401
-3.5673465e-06
0.014658731
-3.3302528e-06
0.01466184
-3.1086069e-06
0.014664741
-2.90131e-06
0.014667448
-2.707326e-06
0.014669974
-2.5256898e-06
0.014672329
-2.3554929e-06
0.014674525
-2.1958923e-06
0.01467657
-2.0460998e-06
0.014678476
-1.9053859e-06
0.014680248
-1.7730723e-06
0.014681897
-1.648538e-06
0.014683428
-1.531206e-06
0.014684848
-1.4205627e-06
0.014686164
-1.3161314e-06
0.014687381
-1.2175071e-06
0.014688505
-1.1243143e-06
0.014689541
-1.0362533e-06
0.014690494
-9.5303399e-07
0.014691368
-8.7445532e-07
0.014692168
-8.0027419e-07
0.014692898
-7.3039186e-07
0.014693562
-6.6455174e-07
0.014694165
-6.0279841e-07
0.01469471
-5.4475858e-07
0.0146952
-4.9074326e-07
0.014695641
-4.4003922e-07
0.014696034
-3.9352967e-07
0.014696384
-3.4964403e-07
0.014696695
-3.1056917e-07
0.014696967
-2.7273332e-07
0.014697209
-2.4128462e-07
0.014697417
-2.0822416e-07
0.014697603
-1.8517971e-07
0.014697758
-1.5481319e-07
0.0146979
-1.4212677e-07
-1.133357e-07
0.010097182
-0.00016557515
0.010346961
-0.000448791
0.010662469
-0.00059798178
0.010982753
-0.00062895025
0.011290229
-0.00061621887
0.011575251
-0.00058378055
0.011829022
-0.0005347842
0.012047865
-0.00047583049
0.012233272
-0.00041592665
0.01238924
-0.00036111399
0.012520295
-0.00031361711
0.012630755
-0.00027346026
0.012724428
-0.00023989719
0.012804515
-0.00021199032
0.012873613
-0.00018877261
0.012933772
-0.00016933388
0.012986596
-0.00015289296
0.013033332
-0.00013881183
0.01307495
-0.00012659379
0.013112216
-0.00011586444
0.013145739
-0.00010634493
0.013176012
-9.7826992e-05
0.013203441
-9.0153358e-05
0.013228366
-8.3203367e-05
0.013251071
-7.6882618e-05
0.013271802
-7.1115568e-05
0.01329077
-6.5840298e-05
0.013308155
-6.1004909e-05
0.013324119
-5.6565062e-05
0.0133388
-5.2482322e-05
0.013352321
-4.8723006e-05
0.013364791
-4.5257364e-05
0.013376306
-4.2058973e-05
0.01338695
-3.9104257e-05
0.0133968
-3.6372114e-05
0.013405923
-3.3843606e-05
0.013414381
-3.1501692e-05
0.013422228
-2.9331011e-05
0.013429513
-2.7317685e-05
0.013436281
-2.544915e-05
0.013442572
-2.3714011e-05
0.013448423
-2.210191e-05
0.013453866
-2.0603414e-05
0.013458933
-1.9209916e-05
0.013463652
-1.7913548e-05
0.013468047
-1.6707108e-05
0.013472142
-1.558399e-05
0.013475959
-1.453813e-05
0.013479517
-1.3563948e-05
0.013482834
-1.2656311e-05
0.013485929
-1.1810486e-05
0.013488815
-1.1022104e-05
0.013491507
-1.0287129e-05
0.013494019
-9.6018246e-06
0.013496363
-8.9627304e-06
0.013498551
-8.3666372e-06
0.013500593
-7.8105645e-06
0.013502499
-7.2917461e-06
0.013504278
-6.8076077e-06
0.013505939
-6.3557551e-06
0.01350749
-5.9339576e-06
0.013508937
-5.5401317e-06
0.013510289
-5.1723327e-06
0.01351155
-4.8287367e-06
0.013512727
-4.507635e-06
0.013513826
-4.2074243e-06
0.013514851
-3.9265984e-06
0.013515808
-3.6637481e-06
0.0135167
-3.4175531e-06
0.013517531
-3.18678e-06
0.013518305
-2.9702839e-06
0.013519026
-2.766994e-06
0.013519697
-2.5759249e-06
0.01352032
-2.3961584e-06
0.013520898
-2.2268537e-06
0.013521434
-2.0672406e-06
0.01352193
-1.9166237e-06
0.013522388
-1.7743815e-06
0.013522811
-1.6399743e-06
0.013523199
-1.5129216e-06
0.013523556
-1.3928361e-06
0.013523882
-1.2793501e-06
0.01352418
-1.1722053e-06
0.013524451
-1.0711e-06
0.013524696
-9.7589144e-07
0.013524918
-8.8627977e-07
0.013525117
-8.0227828e-07
0.013525296
-7.2347858e-07
0.013525456
-6.5017821e-07
0.013525597
-5.8162093e-07
0.013525723
-5.1868943e-07
0.013525833
-4.5974127e-07
0.013525929
-4.0697849e-07
0.013526013
-3.5667729e-07
0.013526086
-3.1414146e-07
0.013526149
-2.7090512e-07
0.013526203
-2.3941375e-07
0.013526248
-2.0058689e-07
0.013526289
-1.8272295e-07
-1.4505948e-07
0.010188704
-0.00035427932
0.010530487
-0.00079057335
0.010851453
-0.00091894821
0.011124174
-0.00090167137
0.011350581
-0.00084262624
0.011524486
-0.00075768559
0.01164633
-0.00065662744
0.011724155
-0.00055365586
0.011767999
-0.00045977083
0.011786639
-0.00037975353
0.011787114
-0.00031409258
0.011775058
-0.00026140425
0.011754861
-0.00021969949
0.011729768
-0.00018689787
0.011702054
-0.00016105803
0.011673239
-0.00014051895
0.011644339
-0.00012399297
0.011616003
-0.000110476
0.011588629
-9.921986e-05
0.011562446
-8.9681388e-05
0.011537572
-8.1470652e-05
0.011514052
-7.4307835e-05
0.011491889
-6.7990493e-05
0.011471056
-6.2369996e-05
0.011451509
-5.7335028e-05
0.011433193
-5.2800201e-05
0.011416051
-4.869828e-05
0.011400021
-4.4974959e-05
0.011385042
-4.1585383e-05
0.011371051
-3.8491827e-05
0.01135799
-3.5662128e-05
0.011345801
-3.3068583e-05
0.01133443
-3.068715e-05
0.011323822
-2.849684e-05
0.011313929
-2.6479246e-05
0.011304704
-2.4618161e-05
0.011296101
-2.2899264e-05
0.01128808
-2.1309861e-05
0.011280601
-1.9838661e-05
0.011273628
-1.847559e-05
0.011267125
-1.7211629e-05
0.011261062
-1.6038677e-05
0.011255408
-1.4949434e-05
0.011250135
-1.3937305e-05
0.011245218
-1.2996312e-05
0.011240632
-1.2121023e-05
0.011236355
-1.1306491e-05
0.011232365
-1.05482e-05
0.011228643
-9.8420214e-06
0.011225171
-9.1841701e-06
0.011221931
-8.5711697e-06
0.011218909
-7.9998218e-06
0.011216089
-7.4671766e-06
0.011213458
-6.9705099e-06
0.011211002
-6.507302e-06
0.011208711
-6.0752192e-06
0.011206572
-5.6720992e-06
0.011204577
-5.2959362e-06
0.011202714
-4.9448672e-06
0.011200975
-4.6171609e-06
0.011199353
-4.3112019e-06
0.011197838
-4.0254834e-06
0.011196424
-3.758592e-06
0.011195104
-3.5092033e-06
0.011193873
-3.2760724e-06
0.011192724
-3.0580317e-06
0.011191651
-2.8539852e-06
0.01119065
-2.6629106e-06
0.011189716
-2.4838495e-06
0.011188845
-2.315914e-06
0.011188033
-2.158271e-06
0.011187277
-2.0101511e-06
0.011186571
-1.870833e-06
0.011185915
-1.7396539e-06
0.011185304
-1.6160014e-06
0.011184736
-1.4993235e-06
0.011184209
-1.3891255e-06
0.011183719
-1.2849772e-06
0.011183266
-1.1865056e-06
0.011182846
-1.0933922e-06
0.011182459
-1.005369e-06
0.011182102
-9.2219418e-07
0.011181773
-8.4368096e-07
0.011181472
-7.6962632e-07
0.011181196
-6.9992087e-07
0.011180944
-6.3437201e-07
0.011180714
-5.7297439e-07
0.011180507
-5.1549135e-07
0.011180319
-4.6207635e-07
0.011180149
-4.1231049e-07
0.011179997
-3.6663326e-07
0.011179862
-3.2416129e-07
0.011179741
-2.8595964e-07
0.011179634
-2.501361e-07
0.011179539
-2.1923419e-07
0.011179457
-1.8912409e-07
0.011179384
-1.657865e-07
0.011179323
-1.3984191e-07
0.011179266
-1.2575058e-07
-1.002552e-07
0.010339525
-0.00069380425
0.010570754
-0.0010218027
0.010606301
-0.00095449449
0.010547572
-0.00084294334
0.010422317
-0.0007173708
0.010244356
-0.00057972444
0.010039421
-0.00045169204
0.0098287427
-0.000342978
0.009625135
-0.00025616317
0.0094353013
-0.00018991983
0.0092624277
-0.00014121897
0.0091075332
-0.0001065098
0.008970154
-8.2320223e-05
0.0088489023
-6.5646246e-05
0.0087419716
-5.4127255e-05
0.0086474927
-4.6040047e-05
0.008563694
-4.019429e-05
0.0084890108
-3.5792752e-05
0.0084221096
-3.2318753e-05
0.0083618775
-2.9449276e-05
0.0083073954
-2.6988572e-05
0.0082579079
-2.48203e-05
0.0082127929
-2.2875483e-05
0.0081715353
-2.1112423e-05
0.008133705
-1.9504663e-05
0.0080989388
-1.8034024e-05
0.0080669273
-1.6686731e-05
0.0080374037
-1.5451363e-05
0.0080101361
-1.4317856e-05
0.0079849214
-1.3277061e-05
0.0079615798
-1.2320579e-05
0.0079399519
-1.1440711e-05
0.0079198952
-1.0630429e-05
0.0079012817
-9.8833664e-06
0.0078839962
-9.1937783e-06
0.0078679346
-8.5565061e-06
0.0078530023
-7.9669286e-06
0.0078391133
-7.4209088e-06
0.0078261894
-6.9147441e-06
0.007814159
-6.445114e-06
0.0078029563
-6.009036e-06
0.0077925215
-5.6038242e-06
0.0077827991
-5.2270526e-06
0.0077737383
-4.8765259e-06
0.0077652922
-4.5502512e-06
0.0077574176
-4.2464158e-06
0.0077500745
-3.9633673e-06
0.0077432259
-3.6995945e-06
0.0077368376
-3.4537139e-06
0.0077308779
-3.2244532e-06
0.0077253174
-3.0106409e-06
0.0077201287
-2.8111959e-06
0.0077152867
-2.6251172e-06
0.0077107676
-2.4514793e-06
0.0077065497
-2.2894246e-06
0.0077026127
-2.1381587e-06
0.0076989375
-1.9969465e-06
0.0076955067
-1.8651047e-06
0.0076923039
-1.7419995e-06
0.0076893137
-1.6270381e-06
0.0076865222
-1.5196658e-06
0.007683916
-1.4193611e-06
0.007681483
-1.325633e-06
0.0076792118
-1.2380196e-06
0.0076770918
-1.1560887e-06
0.0076751132
-1.0794336e-06
0.0076732669
-1.007679e-06
0.0076715445
-9.4046983e-07
0.0076699381
-8.77479e-07
0.0076684405
-8.1839446e-07
0.0076670451
-7.6292517e-07
0.0076657457
-7.1079357e-07
0.0076645366
-6.6174231e-07
0.0076634125
-6.1552976e-07
0.0076623684
-5.719429e-07
0.0076613999
-5.3078529e-07
0.0076605028
-4.9189644e-07
0.007659673
-4.5512688e-07
0.0076589068
-4.2035836e-07
0.0076582009
-3.8747523e-07
0.0076575519
-3.5638395e-07
0.0076569566
-3.2698873e-07
0.0076564122
-2.9921919e-07
0.0076559156
-2.729974e-07
0.007655464
-2.4829098e-07
0.0076550547
-2.2503738e-07
0.0076546851
-2.0325059e-07
0.0076543525
-1.8285566e-07
0.0076540544
-1.6391294e-07
0.0076537883
-1.4627727e-07
0.0076535518
-1.3008447e-07
0.0076533427
-1.1504072e-07
0.0076531582
-1.0146644e-07
0.0076529969
-8.8809458e-08
0.0076528554
-7.7773907e-08
0.0076527335
-6.7295592e-08
0.0076526264
-5.8720244e-08
0.0076525367
-5.0157317e-08
0.0076524552
-4.4185458e-08
-3.8385194e-08
0.0093061957
0.0082843931
0.0073298986
0.0064869553
0.0057695845
0.00518986
0.004738168
0.00439519
0.0041390268
0.003949107
0.003807888
0.0037013782
0.003619058
0.0035534117
0.0034992845
0.0034532444
0.0034130501
0.0033772574
0.0033449386
0.0033154893
0.0032885008
0.0032636805
0.003240805
0.0032196926
0.0032001879
0.0031821539
0.0031654672
0.0031500158
0.0031356979
0.0031224209
0.0031101003
0.0030986596
0.0030880291
0.0030781458
0.003068952
0.0030603955
0.0030524286
0.0030450077
0.0030380929
0.0030316478
0.0030256388
0.0030200349
0.0030148079
0.0030099314
0.0030053811
0.0030011347
0.0029971713
0.0029934718
0.002990018
0.0029867936
0.0029837829
0.0029809717
0.0029783466
0.0029758951
0.0029736057
0.0029714675
0.0029694706
0.0029676055
0.0029658635
0.0029642364
0.0029627168
0.0029612974
0.0029599717
0.0029587337
0.0029575776
0.0029564982
0.0029554905
0.0029545501
0.0029536726
0.0029528542
0.0029520912
0.0029513804
0.0029507186
0.0029501031
0.0029495312
0.0029490005
0.0029485086
0.0029480535
0.0029476331
0.0029472456
0.0029468892
0.0029465622
0.002946263
0.00294599
0.0029457418
0.0029455168
0.0029453136
0.0029451307
0.0029449668
0.0029448205
0.0029446905
0.0029445754
0.002944474
0.0029443851
0.0029443073
0.00294424
0.0029441813
0.0029441311
0.002944087
)
;

boundaryField
{
    top
    {
        type            calculated;
        value           uniform 0;
    }
    inlet
    {
        type            calculated;
        value           nonuniform List<scalar> 10(-0.01 -0.01 -0.01 -0.01 -0.01 -0.01 -0.01 -0.01 -0.01 -0.01);
    }
    outlet
    {
        type            calculated;
        value           nonuniform List<scalar> 10(0.0029440488 0.0076523942 0.011179222 0.013526322 0.014698014 0.014698014 0.013526321 0.011179221 0.0076523933 0.0029440486);
    }
    bottom
    {
        type            calculated;
        value           uniform 0;
    }
    back
    {
        type            empty;
        value           nonuniform 0();
    }
    front
    {
        type            empty;
        value           nonuniform 0();
    }
}


// ************************************************************************* //
