/*--------------------------------*- C++ -*----------------------------------*\
| =========                 |                                                 |
| \\      /  F ield         | OpenFOAM: The Open Source CFD Toolbox           |
|  \\    /   O peration     | Version:  v1812                                 |
|   \\  /    A nd           | Web:      www.OpenFOAM.com                      |
|    \\/     M anipulation  |                                                 |
\*---------------------------------------------------------------------------*/
FoamFile
{
    version     2.0;
    format      ascii;
    class       volVectorField;
    location    "9";
    object      U;
}
// * * * * * * * * * * * * * * * * * * * * * * * * * * * * * * * * * * * * * //

dimensions      [0 1 -1 0 0 0 0];


internalField   nonuniform List<vector> 
1000
(
(0.91890839 0.035821913 0)
(0.86271384 0.062195638 0)
(0.7870597 0.06251009 0)
(0.69536033 0.054550395 0)
(0.61089745 0.044531651 0)
(0.54411592 0.034015971 0)
(0.49343012 0.024187539 0)
(0.45479413 0.016144229 0)
(0.42544582 0.010265785 0)
(0.40347313 0.0063041452 0)
(0.38715766 0.0037976295 0)
(0.3749622 0.0023103383 0)
(0.36566192 0.0014930151 0)
(0.35836272 0.0010851184 0)
(0.35244267 0.00090607254 0)
(0.34748201 0.0008410519 0)
(0.34320348 0.00082372419 0)
(0.33942726 0.0008193103 0)
(0.33603793 0.00081185174 0)
(0.33296114 0.00079580093 0)
(0.33014778 0.00077081124 0)
(0.32756384 0.00073870944 0)
(0.3251842 0.00070188949 0)
(0.32298902 0.00066256604 0)
(0.32096172 0.00062250006 0)
(0.31908785 0.00058295791 0)
(0.31735449 0.00054477188 0)
(0.31574995 0.00050843421 0)
(0.3142636 0.00047419139 0)
(0.31288574 0.00044212422 0)
(0.31160755 0.00041220903 0)
(0.31042101 0.00038436131 0)
(0.30931883 0.00035846488 0)
(0.30829438 0.00033439051 0)
(0.30734164 0.00031200713 0)
(0.30645515 0.00029118819 0)
(0.30562991 0.00027181483 0)
(0.30486136 0.0002537772 0)
(0.30414535 0.00023697453 0)
(0.30347806 0.00022131481 0)
(0.302856 0.00020671401 0)
(0.30227595 0.00019309535 0)
(0.30173496 0.00018038854 0)
(0.30123028 0.00016852909 0)
(0.30075941 0.00015745775 0)
(0.30032001 0.00014711998 0)
(0.29990992 0.00013746549 0)
(0.29952714 0.00012844785 0)
(0.29916981 0.00012002416 0)
(0.29883622 0.00011215463 0)
(0.29852476 0.00010480234 0)
(0.29823394 9.7932936e-05 0)
(0.29796238 9.1514389e-05 0)
(0.29770878 8.5516799e-05 0)
(0.29747196 7.9912251e-05 0)
(0.29725078 7.4674708e-05 0)
(0.29704422 6.9779863e-05 0)
(0.29685129 6.5205102e-05 0)
(0.2966711 6.0929312e-05 0)
(0.2965028 5.6932774e-05 0)
(0.29634561 5.3196984e-05 0)
(0.29619879 4.9704485e-05 0)
(0.29606167 4.6438743e-05 0)
(0.2959336 4.338408e-05 0)
(0.295814 4.0525588e-05 0)
(0.29570233 3.7849301e-05 0)
(0.29559807 3.5342024e-05 0)
(0.29550075 3.2991616e-05 0)
(0.29540993 3.0786686e-05 0)
(0.29532521 2.8716764e-05 0)
(0.29524622 2.6771938e-05 0)
(0.2951726 2.4942947e-05 0)
(0.29510404 2.3220887e-05 0)
(0.29504023 2.1597563e-05 0)
(0.29498092 2.0065195e-05 0)
(0.29492583 1.8617112e-05 0)
(0.29487475 1.7247293e-05 0)
(0.29482745 1.5950982e-05 0)
(0.29478372 1.4724093e-05 0)
(0.29474337 1.3563304e-05 0)
(0.29470622 1.2465695e-05 0)
(0.29467209 1.1428419e-05 0)
(0.29464082 1.0449006e-05 0)
(0.29461224 9.5247711e-06 0)
(0.29458621 8.6541338e-06 0)
(0.29456258 7.8348663e-06 0)
(0.2945412 7.0672877e-06 0)
(0.29452193 6.3490592e-06 0)
(0.29450461 5.6827311e-06 0)
(0.29448913 5.0635267e-06 0)
(0.29447533 4.4965068e-06 0)
(0.2944631 3.9713905e-06 0)
(0.29445229 3.4984827e-06 0)
(0.29444281 3.0594769e-06 0)
(0.29443448 2.6753764e-06 0)
(0.29442724 2.3177777e-06 0)
(0.29442098 2.0190893e-06 0)
(0.29441546 1.7489298e-06 0)
(0.29441103 1.5375037e-06 0)
(0.29440598 1.4217217e-06 0)
(1.0016583 0.05381943 0)
(1.0359761 0.10128444 0)
(1.0597199 0.11073663 0)
(1.0628947 0.10592202 0)
(1.0515569 0.096228728 0)
(1.0340529 0.083934061 0)
(1.0142795 0.070327063 0)
(0.99360703 0.056981333 0)
(0.97292577 0.045107479 0)
(0.9531074 0.03523675 0)
(0.93479538 0.02740165 0)
(0.91829012 0.021387227 0)
(0.90362379 0.016884499 0)
(0.89068067 0.013569709 0)
(0.87928174 0.011147749 0)
(0.86923242 0.0093736595 0)
(0.86034423 0.0080569287 0)
(0.85244667 0.0070571276 0)
(0.84539241 0.0062752381 0)
(0.83905793 0.0056438279 0)
(0.83334126 0.0051180902 0)
(0.82815884 0.0046686715 0)
(0.82344212 0.0042764169 0)
(0.81913467 0.0039287389 0)
(0.81518961 0.0036172042 0)
(0.81156765 0.0033359715 0)
(0.80823544 0.0030808051 0)
(0.8051644 0.0028484697 0)
(0.80232979 0.0026363694 0)
(0.79970999 0.0024423379 0)
(0.79728597 0.0022645178 0)
(0.79504086 0.0021012889 0)
(0.79295963 0.0019512248 0)
(0.7910288 0.0018130633 0)
(0.78923627 0.0016856848 0)
(0.7875711 0.0015680945 0)
(0.78602337 0.0014594081 0)
(0.78458411 0.001358838 0)
(0.7832451 0.0012656819 0)
(0.78199888 0.0011793123 0)
(0.78083859 0.001099167 0)
(0.77975798 0.0010247407 0)
(0.77875126 0.00095557836 0)
(0.77781316 0.00089126868 0)
(0.7769388 0.00083143885 0)
(0.77612366 0.00077575012 0)
(0.7753636 0.00072389386 0)
(0.77465478 0.00067558826 0)
(0.77399365 0.00063057545 0)
(0.7733769 0.0005886189 0)
(0.7728015 0.00054950122 0)
(0.7722646 0.00051302222 0)
(0.77176358 0.0004789971 0)
(0.77129601 0.00044725498 0)
(0.77085962 0.00041763761 0)
(0.77045228 0.00038999824 0)
(0.77007206 0.00036420064 0)
(0.76971712 0.00034011827 0)
(0.76938578 0.00031763344 0)
(0.76907644 0.00029663659 0)
(0.76878764 0.00027702547 0)
(0.76851803 0.00025870448 0)
(0.76826633 0.00024158394 0)
(0.76803135 0.0002255796 0)
(0.76781201 0.0002106121 0)
(0.76760729 0.00019660686 0)
(0.76741624 0.00018349379 0)
(0.76723798 0.00017120735 0)
(0.76707171 0.0001596863 0)
(0.76691667 0.00014887378 0)
(0.76677218 0.00013871685 0)
(0.76663758 0.00012916648 0)
(0.76651228 0.00012017711 0)
(0.76639574 0.0001117067 0)
(0.76628745 0.00010371668 0)
(0.76618694 9.6172199e-05 0)
(0.76609376 8.904235e-05 0)
(0.76600751 8.2300164e-05 0)
(0.76592781 7.5922911e-05 0)
(0.7658543 6.9891052e-05 0)
(0.76578664 6.4188829e-05 0)
(0.76572451 5.8801736e-05 0)
(0.7656676 5.3718853e-05 0)
(0.76561562 4.8927957e-05 0)
(0.76556828 4.4422313e-05 0)
(0.7655253 4.0190181e-05 0)
(0.76548641 3.6230733e-05 0)
(0.76545136 3.2530035e-05 0)
(0.76541987 2.9096164e-05 0)
(0.76539173 2.5905637e-05 0)
(0.76536662 2.2980725e-05 0)
(0.76534441 2.0274147e-05 0)
(0.76532474 1.7836908e-05 0)
(0.76530751 1.5574648e-05 0)
(0.76529239 1.3602903e-05 0)
(0.76527919 1.1732946e-05 0)
(0.76526797 1.0223759e-05 0)
(0.76525762 8.672618e-06 0)
(0.76525041 7.7115514e-06 0)
(0.76524033 6.3644018e-06 0)
(1.0014244 0.026824855 0)
(1.0291272 0.062791352 0)
(1.0654292 0.077736553 0)
(1.098962 0.0805972 0)
(1.1253149 0.078285171 0)
(1.145053 0.0731539 0)
(1.1594858 0.066111278 0)
(1.1694287 0.058162063 0)
(1.1755354 0.050296754 0)
(1.1785738 0.043150708 0)
(1.1793571 0.036972825 0)
(1.1785949 0.031771632 0)
(1.1768304 0.02745184 0)
(1.1744518 0.023886768 0)
(1.1717287 0.02094762 0)
(1.1688444 0.018515781 0)
(1.1659195 0.016488085 0)
(1.1630317 0.014779503 0)
(1.1602295 0.013322985 0)
(1.1575415 0.012067132 0)
(1.1549828 0.010973 0)
(1.1525601 0.010011061 0)
(1.1502747 0.0091587466 0)
(1.1481246 0.0083986046 0)
(1.1461059 0.0077169515 0)
(1.1442134 0.0071028895 0)
(1.1424414 0.0065475933 0)
(1.1407838 0.0060437966 0)
(1.1392344 0.0055854268 0)
(1.1377869 0.0051673448 0)
(1.1364353 0.0047851567 0)
(1.1351738 0.0044350758 0)
(1.1339968 0.0041138168 0)
(1.1328987 0.0038185137 0)
(1.1318746 0.0035466548 0)
(1.1309195 0.0032960299 0)
(1.1300289 0.0030646864 0)
(1.1291985 0.0028508939 0)
(1.1284242 0.0026531131 0)
(1.1277022 0.0024699705 0)
(1.1270291 0.0023002367 0)
(1.1264014 0.0021428078 0)
(1.125816 0.0019966893 0)
(1.1252702 0.001860983 0)
(1.1247612 0.0017348751 0)
(1.1242865 0.0016176269 0)
(1.1238437 0.0015085655 0)
(1.1234307 0.0014070774 0)
(1.1230455 0.0013126015 0)
(1.1226861 0.001224624 0)
(1.1223508 0.0011426734 0)
(1.1220381 0.0010663165 0)
(1.1217462 0.0009951541 0)
(1.1214739 0.00092881818 0)
(1.1212198 0.00086696868 0)
(1.1209826 0.00080929096 0)
(1.1207613 0.00075549355 0)
(1.1205548 0.00070530612 0)
(1.1203621 0.00065847767 0)
(1.1201821 0.00061477489 0)
(1.1200142 0.00057398056 0)
(1.1198575 0.00053589221 0)
(1.1197112 0.00050032065 0)
(1.1195747 0.0004670888 0)
(1.1194472 0.00043603067 0)
(1.1193283 0.00040699041 0)
(1.1192173 0.00037982177 0)
(1.1191137 0.00035438765 0)
(1.119017 0.00033055972 0)
(1.1189269 0.00030821827 0)
(1.1188428 0.00028725185 0)
(1.1187645 0.00026755704 0)
(1.1186915 0.00024903812 0)
(1.1186234 0.00023160665 0)
(1.1185601 0.00021518166 0)
(1.1185013 0.0001996891 0)
(1.1184466 0.00018506268 0)
(1.1183958 0.00017124301 0)
(1.1183487 0.00015817894 0)
(1.1183051 0.0001458255 0)
(1.1182648 0.0001341461 0)
(1.1182277 0.00012310738 0)
(1.1181934 0.00011268506 0)
(1.118162 0.00010285236 0)
(1.1181331 9.3595556e-05 0)
(1.1181068 8.4888561e-05 0)
(1.1180828 7.6730467e-05 0)
(1.118061 6.9087575e-05 0)
(1.1180412 6.1980806e-05 0)
(1.1180234 5.5350702e-05 0)
(1.1180073 4.9261636e-05 0)
(1.117993 4.3587083e-05 0)
(1.1179801 3.8489113e-05 0)
(1.1179688 3.3683176e-05 0)
(1.1179586 2.9566239e-05 0)
(1.1179498 2.5485773e-05 0)
(1.1179422 2.2403991e-05 0)
(1.117935 1.8805003e-05 0)
(1.1179303 1.6987197e-05 0)
(1.1179229 1.3490798e-05 0)
(1.0007347 0.011814722 0)
(1.0178472 0.030860927 0)
(1.0462163 0.041434441 0)
(1.0799018 0.04519357 0)
(1.1132664 0.045502351 0)
(1.143782 0.044080308 0)
(1.1708941 0.041439982 0)
(1.1945687 0.037973678 0)
(1.2148582 0.034195729 0)
(1.2319652 0.030536887 0)
(1.2462683 0.027222045 0)
(1.2582339 0.02431392 0)
(1.2683135 0.021797888 0)
(1.2768875 0.01963366 0)
(1.2842554 0.017773827 0)
(1.2906479 0.016169652 0)
(1.296243 0.01477559 0)
(1.3011791 0.013552297 0)
(1.3055645 0.012467864 0)
(1.3094838 0.011497466 0)
(1.3130042 0.010622161 0)
(1.3161792 0.0098275131 0)
(1.3190526 0.0091024112 0)
(1.3216607 0.0084381773 0)
(1.3240343 0.0078279048 0)
(1.3261995 0.0072659756 0)
(1.3281786 0.00674771 0)
(1.3299913 0.006269118 0)
(1.3316544 0.0058267285 0)
(1.3331829 0.005417474 0)
(1.3345896 0.0050386128 0)
(1.3358862 0.0046876742 0)
(1.3370827 0.0043624202 0)
(1.3381882 0.0040608159 0)
(1.3392108 0.0037810064 0)
(1.3401576 0.0035212979 0)
(1.3410349 0.0032801418 0)
(1.3418486 0.003056121 0)
(1.3426038 0.0028479373 0)
(1.3433051 0.0026544006 0)
(1.3439569 0.0024744187 0)
(1.3445629 0.0023069888 0)
(1.3451267 0.0021511889 0)
(1.3456513 0.0020061708 0)
(1.3461398 0.0018711533 0)
(1.3465947 0.0017454164 0)
(1.3470185 0.0016282958 0)
(1.3474135 0.0015191783 0)
(1.3477816 0.0014174975 0)
(1.3481248 0.0013227295 0)
(1.3484449 0.0012343899 0)
(1.3487435 0.0011520301 0)
(1.349022 0.0010752343 0)
(1.3492818 0.0010036171 0)
(1.3495242 0.00093682078 0)
(1.3497505 0.00087451312 0)
(1.3499616 0.00081638523 0)
(1.3501587 0.00076214979 0)
(1.3503427 0.00071153934 0)
(1.3505144 0.00066430473 0)
(1.3506748 0.00062021361 0)
(1.3508244 0.00057904914 0)
(1.3509642 0.00054060864 0)
(1.3510946 0.00050470246 0)
(1.3512164 0.00047115289 0)
(1.35133 0.00043979321 0)
(1.351436 0.00041046693 0)
(1.351535 0.00038302717 0)
(1.3516273 0.00035733629 0)
(1.3517133 0.0003332655 0)
(1.3517935 0.00031069453 0)
(1.3518682 0.00028951147 0)
(1.3519376 0.00026961236 0)
(1.3520022 0.00025090106 0)
(1.3520622 0.00023328899 0)
(1.3521179 0.00021669492 0)
(1.3521694 0.00020104531 0)
(1.3522171 0.00018627345 0)
(1.3522611 0.00017232103 0)
(1.3523016 0.00015913545 0)
(1.3523388 0.00014667352 0)
(1.3523729 0.00013489473 0)
(1.3524041 0.00012377016 0)
(1.3524325 0.00011326659 0)
(1.3524583 0.00010336925 0)
(1.3524816 9.4044206e-05 0)
(1.3525026 8.5295428e-05 0)
(1.3525216 7.7074622e-05 0)
(1.3525384 6.9420033e-05 0)
(1.3525535 6.2240052e-05 0)
(1.3525666 5.5646115e-05 0)
(1.3525786 4.9437327e-05 0)
(1.3525886 4.3890769e-05 0)
(1.3525979 3.8550451e-05 0)
(1.3526052 3.4071251e-05 0)
(1.3526127 2.9429183e-05 0)
(1.3526174 2.6110731e-05 0)
(1.3526238 2.1886535e-05 0)
(1.3526262 1.9970178e-05 0)
(1.3526324 1.5767062e-05 0)
(1.0005903 0.0034629159 0)
(1.0136865 0.0093660198 0)
(1.0370283 0.013046806 0)
(1.0674202 0.014563261 0)
(1.1000315 0.014854525 0)
(1.1316428 0.014564991 0)
(1.1610745 0.013888338 0)
(1.1880674 0.012919245 0)
(1.2125205 0.011806506 0)
(1.2343939 0.010696427 0)
(1.2538077 0.0096727421 0)
(1.2710339 0.0087628222 0)
(1.286401 0.0079659738 0)
(1.3002112 0.0072722149 0)
(1.3127102 0.0066688088 0)
(1.3240903 0.0061419255 0)
(1.3345036 0.0056780723 0)
(1.3440716 0.005265321 0)
(1.3528927 0.0048939351 0)
(1.3610463 0.0045563959 0)
(1.3685975 0.00424707 0)
(1.3756004 0.0039617762 0)
(1.3821012 0.0036973981 0)
(1.3881402 0.0034515832 0)
(1.3937533 0.0032225193 0)
(1.3989728 0.0030087707 0)
(1.403828 0.0028091589 0)
(1.4083456 0.0026226801 0)
(1.4125503 0.0024484505 0)
(1.4164646 0.0022856716 0)
(1.4201094 0.0021336084 0)
(1.423504 0.0019915772 0)
(1.426666 0.0018589376 0)
(1.4296121 0.0017350877 0)
(1.4323573 0.001619461 0)
(1.4349159 0.0015115243 0)
(1.4373007 0.0014107762 0)
(1.4395241 0.0013167454 0)
(1.441597 0.0012289897 0)
(1.4435301 0.0011470941 0)
(1.4453328 0.0010706701 0)
(1.4470143 0.00099935374 0)
(1.4485827 0.00093280469 0)
(1.4500459 0.00087070468 0)
(1.451411 0.00081275622 0)
(1.4526846 0.00075868144 0)
(1.4538731 0.00070822078 0)
(1.4549822 0.0006611319 0)
(1.4560172 0.00061718863 0)
(1.4569831 0.00057617987 0)
(1.4578847 0.00053790873 0)
(1.4587262 0.00050219147 0)
(1.4595117 0.0004688567 0)
(1.460245 0.00043774454 0)
(1.4609295 0.00040870576 0)
(1.4615685 0.00038160111 0)
(1.4621651 0.00035630055 0)
(1.4627221 0.00033268259 0)
(1.4632422 0.00031063378 0)
(1.4637277 0.00029004797 0)
(1.464181 0.00027082603 0)
(1.4646043 0.00025287514 0)
(1.4649995 0.00023610846 0)
(1.4653684 0.00022044465 0)
(1.4657129 0.00020580733 0)
(1.4660344 0.00019212482 0)
(1.4663345 0.00017932983 0)
(1.4666146 0.000167359 0)
(1.4668759 0.00015615305 0)
(1.4671196 0.00014565615 0)
(1.4673469 0.00013581637 0)
(1.4675587 0.000126585 0)
(1.467756 0.000117917 0)
(1.4679397 0.0001097704 0)
(1.4681105 0.00010210675 0)
(1.4682693 9.4890377e-05 0)
(1.4684167 8.8089206e-05 0)
(1.4685534 8.1673456e-05 0)
(1.4686799 7.561741e-05 0)
(1.4687968 6.9896922e-05 0)
(1.4689047 6.4492685e-05 0)
(1.469004 5.9385558e-05 0)
(1.4690952 5.456269e-05 0)
(1.4691788 5.0007945e-05 0)
(1.4692552 4.5715485e-05 0)
(1.4693249 4.1668018e-05 0)
(1.4693881 3.7869644e-05 0)
(1.4694454 3.4294294e-05 0)
(1.469497 3.0964864e-05 0)
(1.4695436 2.7830777e-05 0)
(1.4695849 2.4955597e-05 0)
(1.4696224 2.2229289e-05 0)
(1.4696547 1.9805775e-05 0)
(1.4696846 1.7439823e-05 0)
(1.4697091 1.5483006e-05 0)
(1.4697332 1.3400656e-05 0)
(1.4697503 1.1957143e-05 0)
(1.469771 1.0035314e-05 0)
(1.4697803 9.2065306e-06 0)
(1.4698011 7.2799645e-06 0)
(1.0005903 -0.0034629158 0)
(1.0136865 -0.0093660197 0)
(1.0370283 -0.013046806 0)
(1.0674202 -0.014563261 0)
(1.1000315 -0.014854525 0)
(1.1316428 -0.014564991 0)
(1.1610745 -0.013888338 0)
(1.1880674 -0.012919245 0)
(1.2125205 -0.011806506 0)
(1.2343939 -0.010696427 0)
(1.2538077 -0.009672742 0)
(1.2710339 -0.008762822 0)
(1.286401 -0.0079659737 0)
(1.3002112 -0.0072722147 0)
(1.3127102 -0.0066688086 0)
(1.3240903 -0.0061419253 0)
(1.3345036 -0.0056780721 0)
(1.3440716 -0.0052653207 0)
(1.3528927 -0.0048939347 0)
(1.3610463 -0.0045563953 0)
(1.3685975 -0.0042470693 0)
(1.3756004 -0.0039617754 0)
(1.3821012 -0.0036973972 0)
(1.3881402 -0.0034515822 0)
(1.3937533 -0.0032225182 0)
(1.3989728 -0.0030087694 0)
(1.403828 -0.0028091573 0)
(1.4083456 -0.0026226783 0)
(1.4125503 -0.0024484484 0)
(1.4164646 -0.0022856692 0)
(1.4201094 -0.0021336057 0)
(1.423504 -0.0019915742 0)
(1.4266661 -0.0018589342 0)
(1.4296121 -0.001735084 0)
(1.4323573 -0.0016194568 0)
(1.4349159 -0.0015115197 0)
(1.4373007 -0.001410771 0)
(1.4395241 -0.0013167396 0)
(1.441597 -0.0012289832 0)
(1.4435301 -0.001147087 0)
(1.4453329 -0.0010706623 0)
(1.4470143 -0.0009993454 0)
(1.4485827 -0.00093279579 0)
(1.4500459 -0.00087069524 0)
(1.451411 -0.00081274621 0)
(1.4526846 -0.00075867081 0)
(1.4538731 -0.00070820949 0)
(1.4549822 -0.00066111993 0)
(1.4560172 -0.00061717604 0)
(1.4569831 -0.00057616675 0)
(1.4578847 -0.00053789526 0)
(1.4587262 -0.00050217787 0)
(1.4595117 -0.00046884321 0)
(1.460245 -0.0004377314 0)
(1.4609295 -0.00040869314 0)
(1.4615686 -0.00038158915 0)
(1.4621652 -0.00035628937 0)
(1.4627222 -0.00033267235 0)
(1.4632422 -0.00031062473 0)
(1.4637277 -0.00029004053 0)
(1.4641811 -0.0002708207 0)
(1.4646043 -0.00025287253 0)
(1.4649995 -0.0002361091 0)
(1.4653684 -0.00022044898 0)
(1.4657129 -0.00020581567 0)
(1.4660344 -0.0001921374 0)
(1.4663345 -0.00017934675 0)
(1.4666146 -0.00016738034 0)
(1.4668759 -0.00015617889 0)
(1.4671196 -0.00014568664 0)
(1.4673469 -0.00013585157 0)
(1.4675587 -0.0001266251 0)
(1.467756 -0.00011796185 0)
(1.4679397 -0.00010981982 0)
(1.4681106 -0.0001021601 0)
(1.4682693 -9.4946775e-05 0)
(1.4684167 -8.8147579e-05 0)
(1.4685533 -8.1732573e-05 0)
(1.4686798 -7.5676191e-05 0)
(1.4687968 -6.9954456e-05 0)
(1.4689046 -6.4548163e-05 0)
(1.4690039 -5.9438409e-05 0)
(1.4690952 -5.4612112e-05 0)
(1.4691788 -5.0053166e-05 0)
(1.4692551 -4.5755472e-05 0)
(1.4693248 -4.1701772e-05 0)
(1.469388 -3.7896254e-05 0)
(1.4694453 -3.4313228e-05 0)
(1.4694969 -3.0975865e-05 0)
(1.4695435 -2.7834207e-05 0)
(1.4695848 -2.4951663e-05 0)
(1.4696223 -2.2218663e-05 0)
(1.4696547 -1.9788279e-05 0)
(1.4696846 -1.7416083e-05 0)
(1.469709 -1.5452127e-05 0)
(1.4697332 -1.3363857e-05 0)
(1.4697502 -1.1913855e-05 0)
(1.469771 -9.9876772e-06 0)
(1.4697802 -9.1558473e-06 0)
(1.469801 -7.2271043e-06 0)
(1.0007347 -0.011814722 0)
(1.0178472 -0.030860927 0)
(1.0462163 -0.041434441 0)
(1.0799018 -0.04519357 0)
(1.1132664 -0.045502351 0)
(1.143782 -0.044080308 0)
(1.1708941 -0.041439982 0)
(1.1945687 -0.037973678 0)
(1.2148582 -0.034195729 0)
(1.2319652 -0.030536886 0)
(1.2462683 -0.027222045 0)
(1.2582339 -0.02431392 0)
(1.2683135 -0.021797888 0)
(1.2768875 -0.01963366 0)
(1.2842554 -0.017773827 0)
(1.2906479 -0.016169652 0)
(1.296243 -0.01477559 0)
(1.3011791 -0.013552297 0)
(1.3055645 -0.012467863 0)
(1.3094838 -0.011497465 0)
(1.3130042 -0.010622161 0)
(1.3161792 -0.0098275125 0)
(1.3190526 -0.0091024104 0)
(1.3216607 -0.0084381764 0)
(1.3240343 -0.0078279038 0)
(1.3261995 -0.0072659745 0)
(1.3281786 -0.0067477087 0)
(1.3299913 -0.0062691164 0)
(1.3316544 -0.0058267266 0)
(1.3331829 -0.005417472 0)
(1.3345896 -0.0050386104 0)
(1.3358862 -0.0046876716 0)
(1.3370827 -0.0043624173 0)
(1.3381882 -0.0040608127 0)
(1.3392108 -0.0037810028 0)
(1.3401576 -0.0035212938 0)
(1.3410349 -0.0032801373 0)
(1.3418486 -0.003056116 0)
(1.3426038 -0.0028479318 0)
(1.3433051 -0.0026543945 0)
(1.3439569 -0.0024744121 0)
(1.3445629 -0.0023069818 0)
(1.3451267 -0.0021511814 0)
(1.3456513 -0.0020061629 0)
(1.3461398 -0.0018711448 0)
(1.3465947 -0.0017454074 0)
(1.3470185 -0.0016282862 0)
(1.3474135 -0.0015191682 0)
(1.3477816 -0.0014174869 0)
(1.3481249 -0.0013227187 0)
(1.348445 -0.0012343789 0)
(1.3487435 -0.0011520191 0)
(1.349022 -0.0010752235 0)
(1.3492818 -0.0010036067 0)
(1.3495243 -0.00093681092 0)
(1.3497505 -0.00087450385 0)
(1.3499617 -0.00081637666 0)
(1.3501588 -0.00076214212 0)
(1.3503428 -0.00071153286 0)
(1.3505145 -0.00066429979 0)
(1.3506748 -0.00062021071 0)
(1.3508245 -0.00057904871 0)
(1.3509642 -0.00054061116 0)
(1.3510947 -0.00050470823 0)
(1.3512164 -0.0004711621 0)
(1.3513301 -0.00043980591 0)
(1.3514361 -0.00041048317 0)
(1.3515351 -0.00038304701 0)
(1.3516273 -0.00035735989 0)
(1.3517134 -0.00033329288 0)
(1.3517935 -0.00031072594 0)
(1.3518682 -0.00028954671 0)
(1.3519377 -0.0002696514 0)
(1.3520023 -0.00025094332 0)
(1.3520622 -0.00023333395 0)
(1.3521179 -0.00021674168 0)
(1.3521694 -0.00020109304 0)
(1.3522171 -0.00018632122 0)
(1.352261 -0.00017236817 0)
(1.3523015 -0.00015918119 0)
(1.3523387 -0.00014671743 0)
(1.3523728 -0.00013493602 0)
(1.352404 -0.00012380827 0)
(1.3524324 -0.00011330065 0)
(1.3524581 -0.00010339847 0)
(1.3524815 -9.4067996e-05 0)
(1.3525024 -8.5313307e-05 0)
(1.3525214 -7.7086592e-05 0)
(1.3525382 -6.9426044e-05 0)
(1.3525533 -6.2240419e-05 0)
(1.3525664 -5.5640732e-05 0)
(1.3525784 -4.9426575e-05 0)
(1.3525884 -4.3874327e-05 0)
(1.3525977 -3.8528706e-05 0)
(1.352605 -3.4043941e-05 0)
(1.3526125 -2.9397341e-05 0)
(1.3526173 -2.6074879e-05 0)
(1.3526237 -2.1848099e-05 0)
(1.352626 -1.992946e-05 0)
(1.3526322 -1.5724665e-05 0)
(1.0014244 -0.026824855 0)
(1.0291272 -0.062791352 0)
(1.0654292 -0.077736553 0)
(1.098962 -0.0805972 0)
(1.1253149 -0.078285171 0)
(1.145053 -0.0731539 0)
(1.1594858 -0.066111278 0)
(1.1694287 -0.058162063 0)
(1.1755354 -0.050296754 0)
(1.1785738 -0.043150708 0)
(1.1793571 -0.036972825 0)
(1.1785949 -0.031771632 0)
(1.1768304 -0.027451839 0)
(1.1744518 -0.023886768 0)
(1.1717287 -0.02094762 0)
(1.1688444 -0.018515781 0)
(1.1659195 -0.016488085 0)
(1.1630317 -0.014779503 0)
(1.1602295 -0.013322985 0)
(1.1575415 -0.012067132 0)
(1.1549828 -0.010973 0)
(1.1525601 -0.010011061 0)
(1.1502747 -0.0091587461 0)
(1.1481246 -0.008398604 0)
(1.1461059 -0.0077169508 0)
(1.1442134 -0.0071028887 0)
(1.1424414 -0.0065475922 0)
(1.1407838 -0.0060437954 0)
(1.1392344 -0.0055854255 0)
(1.1377869 -0.0051673432 0)
(1.1364353 -0.0047851551 0)
(1.1351738 -0.004435074 0)
(1.1339968 -0.0041138148 0)
(1.1328987 -0.0038185114 0)
(1.1318746 -0.0035466523 0)
(1.1309195 -0.0032960271 0)
(1.1300289 -0.0030646833 0)
(1.1291985 -0.0028508904 0)
(1.1284242 -0.0026531092 0)
(1.1277023 -0.0024699663 0)
(1.1270291 -0.0023002323 0)
(1.1264014 -0.0021428031 0)
(1.1258161 -0.0019966843 0)
(1.1252703 -0.0018609777 0)
(1.1247612 -0.0017348696 0)
(1.1242865 -0.001617621 0)
(1.1238437 -0.0015085592 0)
(1.1234308 -0.0014070708 0)
(1.1230455 -0.0013125947 0)
(1.1226862 -0.0012246171 0)
(1.1223509 -0.0011426666 0)
(1.1220381 -0.0010663099 0)
(1.1217463 -0.00099514787 0)
(1.1214739 -0.00092881237 0)
(1.1212198 -0.00086696332 0)
(1.1209827 -0.00080928609 0)
(1.1207614 -0.00075548922 0)
(1.1205549 -0.00070530252 0)
(1.1203621 -0.00065847501 0)
(1.1201822 -0.00061477354 0)
(1.1200143 -0.0005739809 0)
(1.1198576 -0.00053589456 0)
(1.1197113 -0.00050032522 0)
(1.1195747 -0.00046709564 0)
(1.1194473 -0.00043603971 0)
(1.1193283 -0.00040700161 0)
(1.1192173 -0.00037983499 0)
(1.1191138 -0.000354403 0)
(1.1190171 -0.00033057721 0)
(1.118927 -0.00030823812 0)
(1.1188429 -0.00028727409 0)
(1.1187645 -0.0002675816 0)
(1.1186915 -0.00024906469 0)
(1.1186234 -0.00023163481 0)
(1.1185601 -0.00021521069 0)
(1.1185012 -0.00019971849 0)
(1.1184465 -0.00018509163 0)
(1.1183957 -0.00017127131 0)
(1.1183486 -0.0001582061 0)
(1.118305 -0.00014585148 0)
(1.1182647 -0.00013417053 0)
(1.1182275 -0.00012312999 0)
(1.1181932 -0.00011270524 0)
(1.1181618 -0.00010286966 0)
(1.1181329 -9.3609332e-05 0)
(1.1181066 -8.4898731e-05 0)
(1.1180825 -7.6736855e-05 0)
(1.1180607 -6.9090574e-05 0)
(1.1180409 -6.1980524e-05 0)
(1.1180231 -5.5347468e-05 0)
(1.118007 -4.9255338e-05 0)
(1.1179927 -4.3577734e-05 0)
(1.1179798 -3.8476347e-05 0)
(1.1179686 -3.3667186e-05 0)
(1.1179584 -2.9547648e-05 0)
(1.1179496 -2.5465729e-05 0)
(1.117942 -2.2382986e-05 0)
(1.1179349 -1.8782693e-05 0)
(1.1179301 -1.6962972e-05 0)
(1.1179228 -1.3464945e-05 0)
(1.0016583 -0.05381943 0)
(1.0359761 -0.10128444 0)
(1.0597199 -0.11073663 0)
(1.0628947 -0.10592202 0)
(1.0515569 -0.096228728 0)
(1.0340529 -0.083934061 0)
(1.0142795 -0.070327063 0)
(0.99360703 -0.056981333 0)
(0.97292577 -0.045107479 0)
(0.9531074 -0.03523675 0)
(0.93479538 -0.02740165 0)
(0.91829012 -0.021387227 0)
(0.90362379 -0.016884499 0)
(0.89068067 -0.013569709 0)
(0.87928174 -0.011147749 0)
(0.86923242 -0.0093736593 0)
(0.86034423 -0.0080569284 0)
(0.85244667 -0.0070571273 0)
(0.84539241 -0.0062752378 0)
(0.83905793 -0.0056438276 0)
(0.83334126 -0.0051180899 0)
(0.82815884 -0.0046686714 0)
(0.82344212 -0.0042764168 0)
(0.81913467 -0.0039287388 0)
(0.81518962 -0.003617204 0)
(0.81156765 -0.0033359711 0)
(0.80823544 -0.0030808045 0)
(0.8051644 -0.0028484689 0)
(0.80232979 -0.0026363685 0)
(0.79970999 -0.002442337 0)
(0.79728597 -0.0022645169 0)
(0.79504087 -0.0021012881 0)
(0.79295963 -0.001951224 0)
(0.79102881 -0.0018130625 0)
(0.78923628 -0.0016856839 0)
(0.78757111 -0.0015680934 0)
(0.78602339 -0.0014594067 0)
(0.78458412 -0.0013588363 0)
(0.78324512 -0.00126568 0)
(0.7819989 -0.0011793102 0)
(0.78083861 -0.0010991648 0)
(0.779758 -0.0010247386 0)
(0.77875129 -0.00095557636 0)
(0.77781319 -0.00089126673 0)
(0.77693882 -0.00083143686 0)
(0.77612369 -0.00077574798 0)
(0.77536364 -0.00072389151 0)
(0.77465482 -0.00067558568 0)
(0.77399369 -0.00063057271 0)
(0.77337695 -0.00058861614 0)
(0.77280154 -0.00054949863 0)
(0.77226465 -0.00051301997 0)
(0.77176364 -0.00047899527 0)
(0.77129607 -0.00044725359 0)
(0.77085968 -0.00041763659 0)
(0.77045235 -0.00038999745 0)
(0.77007213 -0.00036420002 0)
(0.76971719 -0.00034011782 0)
(0.76938585 -0.00031763332 0)
(0.76907651 -0.00029663707 0)
(0.76878771 -0.00027702681 0)
(0.7685181 -0.00025870693 0)
(0.76826639 -0.00024158753 0)
(0.76803141 -0.00022558421 0)
(0.76781207 -0.00021061749 0)
(0.76760734 -0.00019661272 0)
(0.76741628 -0.00018349994 0)
(0.76723801 -0.00017121371 0)
(0.76707173 -0.00015969303 0)
(0.76691668 -0.00014888113 0)
(0.76677216 -0.00013872505 0)
(0.76663755 -0.00012917564 0)
(0.76651224 -0.00012018706 0)
(0.76639568 -0.00011171702 0)
(0.76628738 -0.00010372687 0)
(0.76618685 -9.6181598e-05 0)
(0.76609365 -8.9050695e-05 0)
(0.76600738 -8.2307304e-05 0)
(0.76592766 -7.5929121e-05 0)
(0.76585413 -6.9896679e-05 0)
(0.76578646 -6.4194183e-05 0)
(0.76572431 -5.8806908e-05 0)
(0.76566739 -5.372364e-05 0)
(0.76561541 -4.8931874e-05 0)
(0.76556806 -4.4424947e-05 0)
(0.76552508 -4.0191129e-05 0)
(0.76548619 -3.6230057e-05 0)
(0.76545114 -3.2527934e-05 0)
(0.76541965 -2.9093082e-05 0)
(0.76539151 -2.590191e-05 0)
(0.76536641 -2.2976515e-05 0)
(0.76534421 -2.026932e-05 0)
(0.76532455 -1.7831392e-05 0)
(0.76530733 -1.5568677e-05 0)
(0.76529223 -1.359744e-05 0)
(0.76527905 -1.1728095e-05 0)
(0.76526783 -1.021903e-05 0)
(0.76525751 -8.6653722e-06 0)
(0.7652503 -7.7028041e-06 0)
(0.76524024 -6.3548466e-06 0)
(0.91890839 -0.035821913 0)
(0.86271384 -0.062195638 0)
(0.7870597 -0.06251009 0)
(0.69536033 -0.054550395 0)
(0.61089745 -0.044531651 0)
(0.54411592 -0.034015971 0)
(0.49343012 -0.024187539 0)
(0.45479413 -0.016144229 0)
(0.42544582 -0.010265785 0)
(0.40347313 -0.0063041451 0)
(0.38715766 -0.0037976295 0)
(0.3749622 -0.0023103384 0)
(0.36566192 -0.0014930152 0)
(0.35836272 -0.0010851185 0)
(0.35244267 -0.00090607255 0)
(0.34748201 -0.00084105182 0)
(0.34320348 -0.00082372402 0)
(0.33942726 -0.00081931009 0)
(0.33603793 -0.00081185155 0)
(0.33296114 -0.0007958008 0)
(0.33014778 -0.00077081122 0)
(0.32756384 -0.00073870952 0)
(0.3251842 -0.00070188962 0)
(0.32298902 -0.00066256617 0)
(0.32096172 -0.00062250011 0)
(0.31908785 -0.00058295782 0)
(0.31735449 -0.00054477166 0)
(0.31574996 -0.00050843388 0)
(0.3142636 -0.00047419102 0)
(0.31288574 -0.00044212389 0)
(0.31160756 -0.0004122088 0)
(0.31042101 -0.00038436122 0)
(0.30931883 -0.00035846491 0)
(0.30829438 -0.00033439059 0)
(0.30734165 -0.00031200717 0)
(0.30645515 -0.0002911881 0)
(0.30562991 -0.00027181457 0)
(0.30486137 -0.00025377675 0)
(0.30414536 -0.00023697398 0)
(0.30347807 -0.00022131424 0)
(0.30285601 -0.00020671353 0)
(0.30227596 -0.00019309504 0)
(0.30173497 -0.0001803884 0)
(0.3012303 -0.00016852908 0)
(0.30075942 -0.00015745778 0)
(0.30032002 -0.00014711993 0)
(0.29990993 -0.00013746528 0)
(0.29952715 -0.00012844746 0)
(0.29916983 -0.00012002363 0)
(0.29883624 -0.00011215408 0)
(0.29852478 -0.00010480192 0)
(0.29823396 -9.7932757e-05 0)
(0.2979624 -9.1514489e-05 0)
(0.29770881 -8.5517141e-05 0)
(0.29747198 -7.9912713e-05 0)
(0.29725081 -7.4675112e-05 0)
(0.29704424 -6.9780109e-05 0)
(0.29685132 -6.5205127e-05 0)
(0.29667113 -6.0929211e-05 0)
(0.29650283 -5.6932709e-05 0)
(0.29634563 -5.3197146e-05 0)
(0.29619881 -4.9705013e-05 0)
(0.29606169 -4.6439646e-05 0)
(0.29593362 -4.3385193e-05 0)
(0.29581402 -4.0526712e-05 0)
(0.29570234 -3.7850095e-05 0)
(0.29559807 -3.5342404e-05 0)
(0.29550075 -3.2991488e-05 0)
(0.29540993 -3.078631e-05 0)
(0.29532521 -2.8716374e-05 0)
(0.2952462 -2.6771886e-05 0)
(0.29517258 -2.4943332e-05 0)
(0.29510401 -2.3221735e-05 0)
(0.2950402 -2.1598464e-05 0)
(0.29498088 -2.0065908e-05 0)
(0.29492579 -1.8617074e-05 0)
(0.2948747 -1.7246541e-05 0)
(0.29482739 -1.5949463e-05 0)
(0.29478366 -1.4722347e-05 0)
(0.2947433 -1.3561716e-05 0)
(0.29470614 -1.246475e-05 0)
(0.29467201 -1.1428167e-05 0)
(0.29464073 -1.0449356e-05 0)
(0.29461216 -9.5251752e-06 0)
(0.29458613 -8.6542559e-06 0)
(0.2945625 -7.8342683e-06 0)
(0.29454112 -7.0660701e-06 0)
(0.29452184 -6.3474305e-06 0)
(0.29450453 -5.6811468e-06 0)
(0.29448905 -5.0623524e-06 0)
(0.29447526 -4.4958776e-06 0)
(0.29446304 -3.9711552e-06 0)
(0.29445223 -3.4984743e-06 0)
(0.29444275 -3.0596539e-06 0)
(0.29443443 -2.676117e-06 0)
(0.2944272 -2.3188194e-06 0)
(0.29442094 -2.0200446e-06 0)
(0.29441543 -1.7486825e-06 0)
(0.294411 -1.5362515e-06 0)
(0.29440596 -1.4200195e-06 0)
)
;

boundaryField
{
    top
    {
        type            fixedValue;
        value           uniform (0 0 0);
    }
    inlet
    {
        type            fixedValue;
        value           uniform (1 0 0);
    }
    outlet
    {
        type            zeroGradient;
    }
    bottom
    {
        type            fixedValue;
        value           uniform (0 0 0);
    }
    back
    {
        type            empty;
    }
    front
    {
        type            empty;
    }
}


// ************************************************************************* //
