/*--------------------------------*- C++ -*----------------------------------*\
| =========                 |                                                 |
| \\      /  F ield         | OpenFOAM: The Open Source CFD Toolbox           |
|  \\    /   O peration     | Version:  v1812                                 |
|   \\  /    A nd           | Web:      www.OpenFOAM.com                      |
|    \\/     M anipulation  |                                                 |
\*---------------------------------------------------------------------------*/
FoamFile
{
    version     2.0;
    format      ascii;
    class       surfaceScalarField;
    location    "2";
    object      phi;
}
// * * * * * * * * * * * * * * * * * * * * * * * * * * * * * * * * * * * * * //

dimensions      [0 3 -1 0 0 0 0];
oriented        oriented;


internalField   nonuniform List<scalar> 
1890
(
0.0012003028
6.8673707e-06
0.0011862642
1.4039488e-05
0.0011763769
9.8876659e-06
0.0011717872
4.5895591e-06
0.0011698894
1.8974015e-06
0.0011690601
8.2884878e-07
0.0011686948
3.6497347e-07
0.0011685384
1.5616015e-07
0.0011684634
7.4777207e-08
0.001168421
4.2335214e-08
0.0011683961
2.4774299e-08
0.0011683823
1.3853084e-08
0.0011683749
7.3702231e-09
0.0011683712
3.7015045e-09
0.0011683696
1.7178687e-09
0.0011683689
7.1813085e-10
0.0011683687
2.541731e-10
0.0011683686
5.8759019e-11
0.0011683687
-1.0250046e-11
0.0011683687
-3.0012207e-11
0.0011683688
-2.9937696e-11
0.0011683688
-2.1081268e-11
0.0011683689
-1.3096333e-11
0.0011683689
-7.0129934e-12
0.0011683689
-3.2090347e-12
0.0011683689
-6.3030288e-13
0.0011683689
1.8535608e-13
0.0011683689
1.0103497e-12
0.0011683689
6.6942375e-13
0.0011683689
9.0064999e-13
0.0011683689
2.9259772e-13
0.0011683689
3.7868574e-13
0.0011683689
2.7370735e-14
0.0011683689
2.4073804e-13
0.0011683689
6.3971445e-14
0.0011683689
4.2149084e-13
0.0011683689
3.9312367e-13
0.0011683689
8.3845793e-13
0.0011683689
6.6996483e-13
0.0011683689
1.06462e-12
0.0011683689
7.6316553e-13
0.0011683689
1.0345543e-12
0.0011683689
5.6753916e-13
0.0011683689
6.1022369e-13
0.0011683689
1.4663461e-13
0.0011683689
8.7162164e-14
0.0011683689
-4.8882363e-13
0.0011683689
-5.1701141e-13
0.0011683689
-9.6858394e-13
0.0011683689
-7.5953654e-13
0.0011683689
-1.1617415e-12
0.0011683689
-8.0005784e-13
0.0011683689
-9.87476e-13
0.0011683689
-5.0062127e-13
0.0011683689
-5.1407841e-13
0.0011683689
-4.5354374e-14
0.0011683689
8.4507097e-14
0.0011683689
6.7139647e-13
0.0011683689
6.8299555e-13
0.0011683689
1.1793901e-12
0.0011683689
1.0292236e-12
0.0011683689
1.5088181e-12
0.0011683689
1.1444654e-12
0.0011683689
1.4475864e-12
0.0011683689
9.6472335e-13
0.0011683689
1.1314282e-12
0.0011683689
5.3337298e-13
0.0011683689
4.9836915e-13
0.0011683689
-4.0825752e-14
0.0011683689
-1.6670674e-13
0.0011683689
-8.2892391e-13
0.0011683689
-8.5071221e-13
0.0011683689
-1.4559462e-12
0.0011683689
-1.3037205e-12
0.0011683689
-1.879656e-12
0.0011683689
-1.6054782e-12
0.0011683689
-2.0136107e-12
0.0011683689
-1.5625719e-12
0.0011683689
-1.8449281e-12
0.0011683689
-1.2954823e-12
0.0011683689
-1.3888728e-12
0.0011683689
-7.3656664e-13
0.0011683689
-6.9826438e-13
0.0011683689
-9.8694153e-14
0.0011683689
1.8045191e-13
0.0011683689
9.4990364e-13
0.0011683689
1.0767104e-12
0.0011683689
1.8177241e-12
0.0011683689
1.7489005e-12
0.0011683689
2.237996e-12
0.0011683689
1.5694949e-12
0.0011683689
4.243539e-13
0.0011683689
-2.3493718e-12
0.0011683689
-1.0042529e-11
0.001168369
-3.3350841e-11
0.0011683691
-7.7803489e-11
0.0011683692
-1.7613252e-10
0.0011683698
-5.5492326e-10
0.0011683705
-7.0089936e-10
-1.559864e-11
0.002319396
7.5465987e-06
0.0023153291
1.8107223e-05
0.0023103707
1.4846295e-05
0.0023068526
8.10752e-06
0.0023049618
3.7878467e-06
0.002304045
1.7452459e-06
0.0023036127
7.9702692e-07
0.0023034068
3.6181355e-07
0.0023033006
1.8074609e-07
0.002303239
1.0389106e-07
0.0023032008
6.29197e-08
0.0023031772
3.7431253e-08
0.0023031631
2.1509677e-08
0.002303155
1.1869104e-08
0.0023031505
6.2557145e-09
0.0023031481
3.1452076e-09
0.0023031469
1.5079362e-09
0.0023031463
6.8319623e-10
0.0023031461
2.8762279e-10
0.0023031459
1.0582363e-10
0.0023031459
2.9409113e-11
0.0023031459
7.8812746e-13
0.0023031459
-6.5374096e-12
0.0023031459
-6.8407875e-12
0.002303146
-4.7045284e-12
0.002303146
-3.0242998e-12
0.002303146
-1.2283637e-12
0.002303146
-7.4007957e-13
0.002303146
-4.933994e-14
0.002303146
-2.8670493e-13
0.002303146
-9.1020329e-14
0.002303146
-4.1055434e-13
0.002303146
-1.8876888e-13
0.002303146
-2.0527536e-13
0.002303146
5.0544234e-14
0.002303146
2.7578594e-13
0.002303146
7.5497265e-13
0.002303146
8.6224088e-13
0.002303146
1.3200025e-12
0.002303146
1.1458066e-12
0.002303146
1.4916337e-12
0.002303146
1.0620001e-12
0.002303146
1.1517091e-12
0.002303146
5.1251172e-13
0.002303146
4.1289823e-13
0.002303146
-1.4298571e-13
0.002303146
-5.033078e-13
0.002303146
-1.0782002e-12
0.002303146
-1.0546267e-12
0.002303146
-1.5311999e-12
0.002303146
-1.2607141e-12
0.002303146
-1.5616246e-12
0.002303146
-1.0213214e-12
0.002303146
-1.067848e-12
0.002303146
-4.1536358e-13
0.002303146
-2.8431136e-13
0.002303146
3.0579428e-13
0.002303146
7.0314533e-13
0.002303146
1.2764203e-12
0.002303146
1.2919099e-12
0.002303146
1.8878637e-12
0.002303146
1.6744066e-12
0.002303146
2.0818673e-12
0.002303146
1.608749e-12
0.002303146
1.8367037e-12
0.002303146
1.1935978e-12
0.002303146
1.1915955e-12
0.002303146
4.2507455e-13
0.002303146
2.5013416e-13
0.002303146
-3.7158974e-13
0.002303146
-7.9902903e-13
0.002303146
-1.4833743e-12
0.002303146
-1.5456088e-12
0.002303146
-2.2326701e-12
0.002303146
-2.11988e-12
0.002303146
-2.6895653e-12
0.002303146
-2.3415712e-12
0.002303146
-2.6889e-12
0.002303146
-2.1729796e-12
0.002303146
-2.3483869e-12
0.002303146
-1.6352584e-12
0.002303146
-1.602578e-12
0.002303146
-8.0841512e-13
0.002303146
-5.8658858e-13
0.002303146
1.9154555e-13
0.002303146
7.853203e-13
0.002303146
1.5781405e-12
0.002303146
1.6482513e-12
0.002303146
2.001327e-12
0.002303146
9.4785217e-13
0.002303146
-1.0158579e-12
0.002303146
-6.531836e-12
0.002303146
-1.670728e-11
0.0023031461
-4.0490084e-11
0.0023031461
-9.5052069e-11
0.0023031462
-1.9974958e-10
0.0023031465
-3.906443e-10
0.0023031469
-9.7556816e-10
0.0023031473
-1.128236e-09
-6.2757958e-11
0.0027737521
4.9271103e-06
0.0027783528
1.3507389e-05
0.002780839
1.2360421e-05
0.0027814822
7.4641632e-06
0.0027815117
3.7580546e-06
0.0027814578
1.7988491e-06
0.0027814121
8.4245762e-07
0.0027813802
3.9345829e-07
0.0027813607
2.0007343e-07
0.0027813485
1.1603242e-07
0.0027813397
7.1702197e-08
0.0027813331
4.4044089e-08
0.0027813284
2.624885e-08
0.0027813253
1.5067897e-08
0.0027813233
8.3035809e-09
0.0027813221
4.3965942e-09
0.0027813215
2.2404047e-09
0.0027813211
1.0975724e-09
0.0027813209
5.1308266e-10
0.0027813208
2.2566974e-10
0.0027813208
9.000704e-11
0.0027813208
3.0209284e-11
0.0027813208
5.7396291e-12
0.0027813208
-2.3797947e-12
0.0027813208
-4.4325808e-12
0.0027813208
-3.9884774e-12
0.0027813208
-3.2057757e-12
0.0027813209
-2.180659e-12
0.0027813209
-1.764993e-12
0.0027813209
-1.3011866e-12
0.0027813209
-1.1313829e-12
0.0027813209
-9.7226509e-13
0.0027813209
-6.4030997e-13
0.0027813209
-5.0588044e-13
0.0027813209
-4.0459818e-14
0.0027813209
1.7840506e-13
0.0027813209
7.2773123e-13
0.0027813209
9.5835614e-13
0.0027813209
1.1553376e-12
0.0027813209
1.3562778e-12
0.0027813209
1.2036587e-12
0.0027813209
1.2116307e-12
0.0027813209
8.2976921e-13
0.0027813209
6.173086e-13
0.0027813209
1.7507878e-13
0.0027813209
-1.9074387e-13
0.0027813209
-5.2266993e-13
0.0027813209
-9.8708889e-13
0.0027813209
-1.2427595e-12
0.0027813209
-1.2384257e-12
0.0027813209
-1.4254195e-12
0.0027813209
-1.1729941e-12
0.0027813209
-1.1516355e-12
0.0027813209
-7.2824593e-13
0.0027813209
-5.1149673e-13
0.0027813209
-5.3650741e-14
0.0027813209
3.0243841e-13
0.0027813209
6.501293e-13
0.0027813209
1.1186142e-12
0.0027813209
1.4490126e-12
0.0027813209
1.4920608e-12
0.0027813209
1.7894658e-12
0.0027813209
1.6117685e-12
0.0027813209
1.7413328e-12
0.0027813209
1.377884e-12
0.0027813209
1.3260136e-12
0.0027813209
8.3094995e-13
0.0027813209
5.9346197e-13
0.0027813209
1.0066058e-13
0.0027813209
-2.8801663e-13
0.0027813209
-6.9830607e-13
0.0027813209
-1.1564153e-12
0.0027813209
-1.6206667e-12
0.0027813209
-1.7196193e-12
0.0027813209
-2.1587003e-12
0.0027813209
-2.090195e-12
0.0027813209
-2.3827626e-12
0.0027813209
-2.1343529e-12
0.0027813209
-2.2618472e-12
0.0027813209
-1.8603441e-12
0.0027813209
-1.8189416e-12
0.0027813209
-1.3076759e-12
0.0027813209
-1.1033975e-12
0.0027813209
-5.3632212e-13
0.0027813209
-6.9052362e-14
0.0027813209
4.4635393e-13
0.0027813209
1.0042755e-12
0.0027813209
1.3140359e-12
0.0027813209
9.7306343e-13
0.0027813209
-3.4812385e-13
0.0027813209
-3.7670993e-12
0.0027813209
-1.0486878e-11
0.0027813209
-2.447717e-11
0.0027813209
-5.2246515e-11
0.0027813209
-1.1269016e-10
0.0027813209
-2.2509576e-10
0.002781321
-4.0357472e-10
0.0027813209
-8.8144978e-10
0.0027813208
-1.047876e-09
-1.2341272e-10
0.0029379643
2.2118539e-06
0.0029448135
6.6590924e-06
0.0029506364
6.5378444e-06
0.0029539033
4.1971487e-06
0.002955449
2.2120372e-06
0.0029561609
1.0866321e-06
0.0029564854
5.1774671e-07
0.0029566329
2.4578612e-07
0.0029567068
1.2604063e-07
0.0029567495
7.3297317e-08
0.0029567756
4.5692387e-08
0.0029567911
2.8509806e-08
0.0029568002
1.7301976e-08
0.0029568052
1.012197e-08
0.0029568079
5.6906951e-09
0.0029568093
3.0749474e-09
0.00295681
1.6007609e-09
0.0029568103
8.0004469e-10
0.0029568105
3.8283319e-10
0.0029568106
1.7090854e-10
0.0029568107
6.9963177e-11
0.0029568107
2.2332061e-11
0.0029568108
3.6760679e-12
0.0029568108
-4.2596255e-12
0.0029568108
-5.3181102e-12
0.0029568108
-5.9064486e-12
0.0029568108
-4.1878097e-12
0.0029568108
-3.976201e-12
0.0029568108
-2.6051567e-12
0.0029568108
-2.4739329e-12
0.0029568108
-1.4984737e-12
0.0029568108
-1.5527464e-12
0.0029568108
-7.047321e-13
0.0029568108
-7.4806944e-13
0.0029568108
9.6486897e-14
0.0029568108
4.2091431e-14
0.0029568108
8.3917637e-13
0.0029568108
6.7538492e-13
0.0029568108
1.2686986e-12
0.0029568108
8.3451128e-13
0.0029568108
1.252904e-12
0.0029568108
5.1863891e-13
0.0029568108
9.194782e-13
0.0029568108
3.509296e-14
0.0029568108
3.1119824e-13
0.0029568108
-4.4838158e-13
0.0029568108
-2.3863694e-13
0.0029568108
-1.0175843e-12
0.0029568108
-6.9538107e-13
0.0029568108
-1.2368867e-12
0.0029568108
-5.6822217e-13
0.0029568108
-1.1449589e-12
0.0029568108
-3.2939074e-13
0.0029568108
-7.712772e-13
0.0029568108
1.2905017e-13
0.0029568108
-2.2417456e-13
0.0029568108
4.758101e-13
0.0029568108
2.9979839e-13
0.0029568108
1.0660639e-12
0.0029568108
7.6353878e-13
0.0029568108
1.3545136e-12
0.0029568108
7.4200725e-13
0.0029568108
1.4688569e-12
0.0029568108
6.412397e-13
0.0029568108
1.2679459e-12
0.0029568108
3.7933273e-13
0.0029568108
9.1603803e-13
0.0029568108
-5.4486071e-14
0.0029568108
3.6541849e-13
0.0029568108
-3.9007693e-13
0.0029568108
-1.8960575e-13
0.0029568108
-1.0226956e-12
0.0029568108
-6.9405685e-13
0.0029568108
-1.4651131e-12
0.0029568108
-8.5434387e-13
0.0029568108
-1.7378206e-12
0.0029568108
-1.0027602e-12
0.0029568108
-1.7938878e-12
0.0029568108
-9.3463686e-13
0.0029568108
-1.6512287e-12
0.0029568108
-7.6259231e-13
0.0029568108
-1.3459359e-12
0.0029568108
-4.2085249e-13
0.0029568108
-8.55933e-13
0.0029568108
-8.5959341e-14
0.0029568108
-1.525443e-13
0.0029568108
7.1303667e-13
0.0029568108
4.455314e-13
0.0029568108
6.9520349e-13
0.0029568108
-7.3398268e-13
0.0029568108
-2.3348283e-12
0.0029568108
-7.7759845e-12
0.0029568108
-1.5678986e-11
0.0029568108
-3.4658426e-11
0.0029568108
-7.0374048e-11
0.0029568107
-1.3999259e-10
0.0029568105
-2.4156055e-10
0.0029568101
-4.9473075e-10
0.0029568097
-5.9248919e-10
-8.910104e-11
0.0029882712
-1.3819068e-10
0.0029949313
-7.3764543e-11
0.0030014697
-2.4179613e-10
0.0030056672
-4.8729373e-10
0.0030078795
-5.4975301e-10
0.0030089664
-5.0334139e-10
0.0030094844
-3.7326139e-10
0.0030097303
-2.5698305e-10
0.0030098565
-1.8108703e-10
0.0030099299
-1.3882814e-10
0.0030099758
-1.1159035e-10
0.0030100045
-9.4168398e-11
0.003010022
-8.2026752e-11
0.0030100323
-7.1093548e-11
0.0030100381
-6.2388217e-11
0.0030100414
-5.3763724e-11
0.0030100431
-4.7186749e-11
0.003010044
-3.9591475e-11
0.0030100445
-3.4029464e-11
0.0030100448
-2.7552422e-11
0.0030100449
-2.3227737e-11
0.003010045
-1.8016055e-11
0.003010045
-1.4969247e-11
0.003010045
-1.1410062e-11
0.003010045
-9.5849112e-12
0.0030100451
-7.0539461e-12
0.0030100451
-6.1934784e-12
0.0030100451
-4.3105973e-12
0.0030100451
-4.0015509e-12
0.0030100451
-2.4216442e-12
0.0030100451
-2.4046274e-12
0.0030100451
-1.1180586e-12
0.0030100451
-1.2921297e-12
0.0030100451
-8.3146297e-14
0.0030100451
-3.5289998e-13
0.0030100451
6.2095549e-13
0.0030100451
1.9307272e-13
0.0030100451
1.0664169e-12
0.0030100451
4.4142986e-13
0.0030100451
1.0517394e-12
0.0030100451
2.2828764e-13
0.0030100451
7.9608097e-13
0.0030100451
-6.4087903e-14
0.0030100451
4.1623974e-13
0.0030100451
-4.5057151e-13
0.0030100451
1.3528998e-13
0.0030100451
-6.4978221e-13
0.0030100451
-9.4413895e-14
0.0030100451
-8.2932727e-13
0.0030100451
-6.5611211e-14
0.0030100451
-6.5359631e-13
0.0030100451
8.5358073e-14
0.0030100451
-5.0299603e-13
0.0030100451
3.2611691e-13
0.0030100451
-2.3838724e-13
0.0030100451
4.8366652e-13
0.0030100451
-1.3766972e-13
0.0030100451
6.3776252e-13
0.0030100451
4.9076927e-14
0.0030100451
7.3055862e-13
0.0030100451
1.20308e-14
0.0030100451
6.8566352e-13
0.0030100451
-2.1989359e-14
0.0030100451
5.8514492e-13
0.0030100451
-1.7070627e-13
0.0030100451
5.1195539e-13
0.0030100451
-2.4562361e-13
0.0030100451
3.8720797e-13
0.0030100451
-3.5660479e-13
0.0030100451
3.3838162e-13
0.0030100451
-4.114514e-13
0.0030100451
1.4948332e-13
0.0030100451
-5.8549947e-13
0.0030100451
1.0347214e-13
0.0030100451
-5.7437362e-13
0.0030100451
3.7253706e-14
0.0030100451
-6.6299176e-13
0.0030100451
1.5184879e-14
0.0030100451
-6.4198124e-13
0.0030100451
-4.1557386e-14
0.0030100451
-7.2673103e-13
0.0030100451
-5.6400407e-14
0.0030100451
-7.1745781e-13
0.0030100451
-9.9104982e-14
0.0030100451
-7.5575545e-13
0.0030100451
8.3206332e-14
0.0030100451
-3.4107624e-13
0.0030100451
5.8028555e-13
0.0030100451
1.7611282e-13
0.0030100451
1.1587236e-12
0.0030100451
7.2915689e-13
0.0030100451
2.0840185e-12
0.0030100451
2.1543907e-12
0.003010045
3.9866992e-12
0.003010045
3.8204886e-12
0.0030100448
4.818719e-12
0.0030100446
4.2710596e-12
0.0030100441
3.4735154e-12
0.0030100435
1.7181158e-12
9.4903253e-13
0.0029882715
-2.2118026e-06
0.0029949314
-6.6590766e-06
0.00300147
-6.5383752e-06
0.0030056675
-4.1980644e-06
0.0030078797
-2.2129466e-06
0.0030089664
-1.0873855e-06
0.0030094843
-5.1833148e-07
0.0030097302
-2.4622432e-07
0.0030098564
-1.2636308e-07
0.0030099299
-7.3542606e-08
0.0030099758
-4.5887809e-08
0.0030100045
-2.8673159e-08
0.003010022
-1.7442287e-08
0.0030100323
-1.0243696e-08
0.0030100381
-5.7975385e-09
0.0030100414
-3.1681054e-09
0.0030100431
-1.682202e-09
0.003010044
-8.6952457e-10
0.0030100445
-4.4219749e-10
0.0030100447
-2.2008939e-10
0.0030100449
-1.1092291e-10
0.003010045
-5.5075486e-11
0.003010045
-3.0388643e-11
0.003010045
-1.6580969e-11
0.0030100451
-1.1743046e-11
0.0030100451
-7.8147794e-12
0.0030100451
-6.6396177e-12
0.0030100451
-4.7408168e-12
0.0030100451
-4.1983741e-12
0.0030100451
-2.6518655e-12
0.0030100451
-2.401606e-12
0.0030100451
-1.1941342e-12
0.0030100451
-1.0916495e-12
0.0030100451
-3.4564251e-14
0.0030100451
-2.4093574e-13
0.0030100451
5.1751407e-13
0.0030100451
1.2254153e-13
0.0030100451
7.5367089e-13
0.0030100451
1.882376e-13
0.0030100451
5.3356889e-13
0.0030100451
-1.0595082e-13
0.0030100451
3.784466e-13
0.0030100451
-3.5097972e-13
0.0030100451
1.4317067e-13
0.0030100451
-4.4571322e-13
0.0030100451
1.9225964e-13
0.0030100451
-3.2057921e-13
0.0030100451
2.1471809e-13
0.0030100451
-2.327812e-13
0.0030100451
4.2794199e-13
0.0030100451
-1.7533492e-14
0.0030100451
5.6604925e-13
0.0030100451
1.7300435e-14
0.0030100451
6.632106e-13
0.0030100451
1.1174887e-14
0.0030100451
4.2889521e-13
0.0030100451
-1.9171891e-13
0.0030100451
2.3492257e-13
0.0030100451
-3.8963411e-13
0.0030100451
1.4011379e-15
0.0030100451
-5.9083178e-13
0.0030100451
-1.156147e-13
0.0030100451
-7.698371e-13
0.0030100451
-1.8361383e-13
0.0030100451
-8.0436718e-13
0.0030100451
-2.5051319e-14
0.0030100451
-6.0106492e-13
0.0030100451
1.2267781e-13
0.0030100451
-3.0063118e-13
0.0030100451
5.0308071e-13
0.0030100451
4.2434582e-14
0.0030100451
6.5149296e-13
0.0030100451
2.1841985e-13
0.0030100451
9.1111193e-13
0.0030100451
4.0796264e-13
0.0030100451
9.9239508e-13
0.0030100451
3.9521203e-13
0.0030100451
1.0390142e-12
0.0030100451
3.1160666e-13
0.0030100451
7.7795718e-13
0.0030100451
6.3491423e-14
0.0030100451
4.8234421e-13
0.0030100451
-3.1285318e-13
0.0030100451
-2.7633709e-14
0.0030100451
-7.5690517e-13
0.0030100451
-2.7240912e-13
0.0030100451
-6.987264e-13
0.0030100451
1.8409375e-13
0.0030100451
3.872716e-13
0.0030100451
2.6922215e-12
0.0030100451
4.300623e-12
0.0030100451
1.1309844e-11
0.0030100451
2.0280569e-11
0.003010045
4.1586943e-11
0.003010045
7.7739541e-11
0.0030100448
1.4899598e-10
0.0030100446
2.4982782e-10
0.0030100441
5.0051252e-10
0.0030100435
5.9572561e-10
9.090288e-11
0.0029379655
-4.927155e-06
0.0029448149
-1.3507463e-05
0.0029506375
-1.2360491e-05
0.0029539039
-7.4642939e-06
0.0029554491
-3.7583271e-06
0.0029561608
-1.7991814e-06
0.0029564851
-8.4277266e-07
0.0029566326
-3.9370918e-07
0.0029567066
-2.002747e-07
0.0029567493
-1.1618976e-07
0.0029567754
-7.1826772e-08
0.002956791
-4.4144298e-08
0.0029568001
-2.6331101e-08
0.0029568051
-1.5139827e-08
0.0029568079
-8.3652807e-09
0.0029568093
-4.4534225e-09
0.00295681
-2.2891089e-09
0.0029568103
-1.1426305e-09
0.0029568105
-5.5033827e-10
0.0029568106
-2.5983894e-10
0.0029568107
-1.1704039e-10
0.0029568107
-5.458927e-11
0.0029568108
-2.3985758e-11
0.0029568108
-1.4165182e-11
0.0029568108
-7.5318935e-12
0.0029568108
-7.3516667e-12
0.0029568108
-4.9167248e-12
0.0029568108
-5.3622807e-12
0.0029568108
-3.1884404e-12
0.0029568108
-3.5468375e-12
0.0029568108
-1.4825741e-12
0.0029568108
-2.0506968e-12
0.0029568108
-9.4768931e-14
0.0029568108
-9.3526589e-13
0.0029568108
6.2326085e-13
0.0029568108
-6.0434304e-13
0.0029568108
8.5759788e-13
0.0029568108
-5.3812174e-13
0.0029568108
6.5357202e-13
0.0029568108
-8.4720771e-13
0.0029568108
4.6311209e-13
0.0029568108
-9.5010374e-13
0.0029568108
3.1724422e-13
0.0029568108
-9.3986769e-13
0.0029568108
5.2179063e-13
0.0029568108
-5.9506304e-13
0.0029568108
8.4476506e-13
0.0029568108
-3.3804964e-13
0.0029568108
1.2300348e-12
0.0029568108
-4.3964675e-15
0.0029568108
1.3993143e-12
0.0029568108
6.9471864e-14
0.0029568108
1.3441182e-12
0.0029568108
5.5285105e-15
0.0029568108
9.3877494e-13
0.0029568108
-4.8562573e-13
0.0029568108
5.3277818e-13
0.0029568108
-9.834703e-13
0.0029568108
5.0616462e-14
0.0029568108
-1.508333e-12
0.0029568108
-2.4210866e-13
0.0029568108
-1.7205455e-12
0.0029568108
-4.5874786e-13
0.0029568108
-1.733994e-12
0.0029568108
-3.0880347e-13
0.0029568108
-1.3490617e-12
0.0029568108
5.0746965e-14
0.0029568108
-8.9544825e-13
0.0029568108
7.1440844e-13
0.0029568108
-2.6660616e-13
0.0029568108
1.3137293e-12
0.0029568108
1.7240042e-13
0.0029568108
1.8587168e-12
0.0029568108
6.6517455e-13
0.0029568108
2.1038126e-12
0.0029568108
8.5774418e-13
0.0029568108
2.1685257e-12
0.0029568108
8.9650557e-13
0.0029568108
1.8938241e-12
0.0029568108
5.6064741e-13
0.0029568108
1.5127072e-12
0.0029568108
6.5365024e-14
0.0029568108
8.2667949e-13
0.0029568108
-8.019766e-13
0.0029568108
1.3819065e-13
0.0029568108
-1.4595996e-12
0.0029568108
-2.1735879e-13
0.0029568108
-1.2649825e-12
0.0029568108
1.090484e-12
0.0029568108
1.2893295e-12
0.0029568108
7.0376916e-12
0.0029568108
1.2342946e-11
0.0029568108
2.9480156e-11
0.0029568108
5.6181214e-11
0.0029568108
1.198495e-10
0.0029568107
2.3148124e-10
0.0029568105
4.1039924e-10
0.0029568101
8.8590987e-10
0.0029568097
1.0501013e-09
1.2481202e-10
0.0027737527
-7.546587e-06
0.0027783533
-1.8107144e-05
0.0027808394
-1.4846033e-05
0.0027814824
-8.1071788e-06
0.0027815115
-3.7876405e-06
0.0027814574
-1.7452402e-06
0.0027814116
-7.9717054e-07
0.0027813798
-3.6200311e-07
0.0027813604
-1.8091882e-07
0.0027813482
-1.0402456e-07
0.0027813395
-6.3015317e-08
0.002781333
-3.7497615e-08
0.0027813283
-2.1555273e-08
0.0027813252
-1.1902414e-08
0.0027813233
-6.2810158e-09
0.0027813221
-3.1668248e-09
0.0027813214
-1.5263059e-09
0.0027813211
-7.0044811e-10
0.0027813209
-3.0213401e-10
0.0027813208
-1.1998844e-10
0.0027813208
-4.1658452e-11
0.0027813208
-1.2000867e-11
0.0027813208
-2.4924233e-12
0.0027813208
-1.1614176e-12
0.0027813208
-1.9597338e-12
0.0027813208
-3.1439431e-12
0.0027813208
-3.7361777e-12
0.0027813209
-3.6574572e-12
0.0027813209
-3.1934274e-12
0.0027813209
-2.6116212e-12
0.0027813209
-1.9076868e-12
0.0027813209
-1.2574135e-12
0.0027813209
-6.5980182e-13
0.0027813209
-3.8741449e-13
0.0027813209
-1.4657496e-13
0.0027813209
-1.0527165e-13
0.0027813209
-4.2972835e-14
0.0027813209
-2.4811871e-13
0.0027813209
-3.7216415e-13
0.0027813209
-4.9134626e-13
0.0027813209
-4.8558594e-13
0.0027813209
-5.7895944e-13
0.0027813209
-5.4926064e-13
0.0027813209
-3.5464865e-13
0.0027813209
-1.1061107e-13
0.0027813209
6.8251319e-14
0.0027813209
3.1692861e-13
0.0027813209
5.6851854e-13
0.0027813209
8.478613e-13
0.0027813209
8.8425567e-13
0.0027813209
9.8083599e-13
0.0027813209
1.0013098e-12
0.0027813209
8.9471715e-13
0.0027813209
6.9730241e-13
0.0027813209
3.9497415e-13
0.0027813209
1.212379e-13
0.0027813209
-1.7348608e-13
0.0027813209
-5.615766e-13
0.0027813209
-8.5344776e-13
0.0027813209
-1.0891703e-12
0.0027813209
-1.2254663e-12
0.0027813209
-1.41309e-12
0.0027813209
-1.4673086e-12
0.0027813209
-1.3339132e-12
0.0027813209
-1.1863587e-12
0.0027813209
-9.4785086e-13
0.0027813209
-7.1985685e-13
0.0027813209
-3.1601387e-13
0.0027813209
1.175185e-13
0.0027813209
4.3163826e-13
0.0027813209
8.0174794e-13
0.0027813209
1.1058292e-12
0.0027813209
1.5084365e-12
0.0027813209
1.6656738e-12
0.0027813209
1.8156112e-12
0.0027813209
1.943707e-12
0.0027813209
1.9708442e-12
0.0027813209
1.8756654e-12
0.0027813209
1.6638358e-12
0.0027813209
1.5131093e-12
0.0027813209
1.225847e-12
0.0027813209
8.3603665e-13
0.0027813209
3.9924551e-13
0.0027813209
-6.2895811e-14
0.0027813209
-4.7710179e-13
0.0027813209
-9.4720829e-13
0.0027813209
-1.209186e-12
0.0027813209
-1.1915308e-12
0.0027813209
-6.4359451e-13
0.0027813209
4.0289186e-13
0.0027813209
3.0355014e-12
0.0027813209
8.3195904e-12
0.0027813209
1.9393476e-11
0.0027813209
4.2777186e-11
0.0027813209
9.895787e-11
0.002781321
2.0438184e-10
0.002781321
3.948214e-10
0.0027813209
9.7795612e-10
0.0027813208
1.1293826e-09
6.3581161e-11
0.0023193955
-6.8672175e-06
0.0023153283
-1.403922e-05
0.0023103701
-9.8872813e-06
0.0023068521
-4.5892807e-06
0.0023049614
-1.8972775e-06
0.0023040447
-8.2892045e-07
0.0023036124
-3.6518399e-07
0.0023034065
-1.5641582e-07
0.0023033004
-7.4990043e-08
0.0023032388
-4.2488247e-08
0.0023032006
-2.4873857e-08
0.0023031771
-1.391271e-08
0.002303163
-7.4017592e-09
0.0023031549
-3.7136628e-09
0.0023031504
-1.7197276e-09
0.0023031481
-7.1308944e-10
0.0023031469
-2.4737775e-10
0.0023031463
-5.0776341e-11
0.002303146
1.9369772e-11
0.0023031459
3.6925505e-11
0.0023031459
3.3928553e-11
0.0023031459
2.5278217e-11
0.0023031459
1.5997584e-11
0.0023031459
9.533134e-12
0.002303146
3.8143807e-12
0.002303146
1.6718661e-12
0.002303146
-9.8473451e-13
0.002303146
-5.7819974e-13
0.002303146
-1.7429184e-12
0.002303146
-6.6244729e-13
0.002303146
-1.2847017e-12
0.002303146
-1.3056993e-15
0.002303146
-7.2806959e-13
0.002303146
3.8791863e-13
0.002303146
-5.1868391e-13
0.002303146
4.827887e-13
0.002303146
-6.0659326e-13
0.002303146
2.1943952e-13
0.002303146
-8.9136261e-13
0.002303146
1.6727263e-14
0.002303146
-1.0699292e-12
0.002303146
-1.109773e-13
0.002303146
-1.0242341e-12
0.002303146
1.29957e-13
0.002303146
-7.0259406e-13
0.002303146
4.8756675e-13
0.002303146
-2.5824756e-13
0.002303146
9.8298724e-13
0.002303146
1.6950103e-13
0.002303146
1.2649189e-12
0.002303146
3.7688522e-13
0.002303146
1.3554826e-12
0.002303146
3.058675e-13
0.002303146
1.0771256e-12
0.002303146
-8.2982057e-14
0.002303146
6.4707019e-13
0.002303146
-6.1861441e-13
0.002303146
3.9347559e-14
0.002303146
-1.180952e-12
0.002303146
-3.8857345e-13
0.002303146
-1.5756253e-12
0.002303146
-7.113274e-13
0.002303146
-1.7037721e-12
0.002303146
-6.4047573e-13
0.002303146
-1.5277911e-12
0.002303146
-3.6290195e-13
0.002303146
-1.1031626e-12
0.002303146
2.3572485e-13
0.002303146
-4.7484986e-13
0.002303146
8.2535182e-13
0.002303146
1.5295311e-13
0.002303146
1.483567e-12
0.002303146
7.1882273e-13
0.002303146
1.8729384e-12
0.002303146
1.0654391e-12
0.002303146
2.1088568e-12
0.002303146
1.1665714e-12
0.002303146
1.9999036e-12
0.002303146
9.6266978e-13
0.002303146
1.7246206e-12
0.002303146
5.385848e-13
0.002303146
1.1466213e-12
0.002303146
-1.1490762e-13
0.002303146
4.9402756e-13
0.002303146
-8.6858382e-13
0.002303146
-2.8737839e-13
0.002303146
-1.5657049e-12
0.002303146
-7.7438188e-13
0.002303146
-1.8897657e-12
0.002303146
-8.4198577e-13
0.002303146
-1.4500985e-12
0.002303146
9.4843153e-13
0.002303146
2.0821169e-12
0.0023031461
1.0958448e-11
0.0023031461
3.4144486e-11
0.0023031462
8.0174903e-11
0.0023031465
1.7749999e-10
0.0023031469
5.5500672e-10
0.0023031473
7.007052e-10
1.5895643e-11
0.0012003028
0.0011862639
0.0011763767
0.0011717872
0.0011698897
0.0011690606
0.0011686952
0.0011685386
0.0011684636
0.001168421
0.0011683962
0.0011683823
0.0011683749
0.0011683712
0.0011683695
0.0011683689
0.0011683687
0.0011683686
0.0011683687
0.0011683687
0.0011683688
0.0011683688
0.0011683689
0.0011683689
0.0011683689
0.0011683689
0.0011683689
0.0011683689
0.0011683689
0.0011683689
0.0011683689
0.0011683689
0.0011683689
0.0011683689
0.0011683689
0.0011683689
0.0011683689
0.0011683689
0.0011683689
0.0011683689
0.0011683689
0.0011683689
0.0011683689
0.0011683689
0.0011683689
0.0011683689
0.0011683689
0.0011683689
0.0011683689
0.0011683689
0.0011683689
0.0011683689
0.0011683689
0.0011683689
0.0011683689
0.0011683689
0.0011683689
0.0011683689
0.0011683689
0.0011683689
0.0011683689
0.0011683689
0.0011683689
0.0011683689
0.0011683689
0.0011683689
0.0011683689
0.0011683689
0.0011683689
0.0011683689
0.0011683689
0.0011683689
0.0011683689
0.0011683689
0.0011683689
0.0011683689
0.0011683689
0.0011683689
0.0011683689
0.0011683689
0.0011683689
0.0011683689
0.0011683689
0.0011683689
0.0011683689
0.0011683689
0.0011683689
0.0011683689
0.0011683689
0.0011683689
0.0011683689
0.0011683689
0.0011683689
0.0011683689
0.001168369
0.0011683691
0.0011683692
0.0011683698
0.0011683705
)
;

boundaryField
{
    top
    {
        type            calculated;
        value           uniform 0;
    }
    inlet
    {
        type            calculated;
        value           nonuniform List<scalar> 10(-0.0012071694 -0.0023200745 -0.0027711318 -0.0029352482 -0.0029860584 -0.0029860589 -0.0029352494 -0.0027711325 -0.0023200741 -0.0012071696);
    }
    outlet
    {
        type            calculated;
        value           nonuniform List<scalar> 10(0.0011683705 0.0023031473 0.0027813208 0.0029568096 0.0030100434 0.0030100434 0.0029568096 0.0027813208 0.0023031473 0.0011683705);
    }
    bottom
    {
        type            calculated;
        value           uniform 0;
    }
    back
    {
        type            empty;
        value           nonuniform 0();
    }
    front
    {
        type            empty;
        value           nonuniform 0();
    }
}


// ************************************************************************* //
