/*--------------------------------*- C++ -*----------------------------------*\
| =========                 |                                                 |
| \\      /  F ield         | OpenFOAM: The Open Source CFD Toolbox           |
|  \\    /   O peration     | Version:  v1812                                 |
|   \\  /    A nd           | Web:      www.OpenFOAM.com                      |
|    \\/     M anipulation  |                                                 |
\*---------------------------------------------------------------------------*/
FoamFile
{
    version     2.0;
    format      ascii;
    class       surfaceScalarField;
    location    "0.15";
    object      phi;
}
// * * * * * * * * * * * * * * * * * * * * * * * * * * * * * * * * * * * * * //

dimensions      [0 3 -1 0 0 0 0];
oriented        oriented;


internalField   nonuniform List<scalar> 
1890
(
0.0093849273
0.00061508816
0.0088371656
0.00054776882
0.0084938004
0.00034336091
0.0082954937
0.00019829759
0.0081992032
9.6283328e-05
0.008157982
4.121971e-05
0.0081407509
1.7234888e-05
0.0081332129
7.5440181e-06
0.0081296687
3.5496272e-06
0.0081278914
1.7806611e-06
0.0081269605
9.3211359e-07
0.008126461
4.9966536e-07
0.0081261898
2.7103085e-07
0.0081260424
1.4776262e-07
0.0081259624
8.0750185e-08
0.0081259194
4.4261053e-08
0.0081258962
2.4526995e-08
0.0081258835
1.3933279e-08
0.0081258761
8.3559454e-09
0.0081258716
5.2878303e-09
0.0081258683
3.8664558e-09
0.0081258659
2.9473959e-09
0.0081258639
2.4128325e-09
0.0081258623
2.0323838e-09
0.0081258609
1.7689865e-09
0.0081258597
1.5406103e-09
0.0081258587
1.3823127e-09
0.0081258578
1.2301051e-09
0.0081258569
1.1296768e-09
0.0081258561
1.0194192e-09
0.0081258552
9.5447189e-10
0.0081258545
8.6573904e-10
0.0081258537
8.1233184e-10
0.0081258531
7.2842699e-10
0.0081258524
6.8218174e-10
0.0081258518
6.0180759e-10
0.0081258512
5.5660843e-10
0.0081258507
4.7802237e-10
0.0081258502
4.4056419e-10
0.0081258498
3.6935993e-10
0.0081258494
3.3726307e-10
0.0081258491
2.7244758e-10
0.0081258488
2.5189925e-10
0.0081258486
1.9686399e-10
0.0081258484
1.8329517e-10
0.0081258482
1.341717e-10
0.0081258481
1.3199522e-10
0.008125848
9.0175069e-11
0.0081258478
9.3652583e-11
0.0081258478
5.2696454e-11
0.0081258477
6.7745391e-11
0.0081258477
2.6738003e-11
0.0081258476
4.8614462e-11
0.0081258476
3.9308921e-12
0.0081258476
3.4040913e-11
0.0081258476
-8.7641973e-12
0.0081258475
2.1862534e-11
0.0081258476
-2.0783828e-11
0.0081258475
1.0924568e-11
0.0081258475
-3.3154969e-11
0.0081258475
-9.7262011e-12
0.0081258476
-5.7452097e-11
0.0081258476
-4.3334119e-11
0.0081258476
-8.8759988e-11
0.0081258476
-9.3087549e-11
0.0081258477
-1.4752884e-10
0.0081258477
-1.6794323e-10
0.0081258478
-2.387272e-10
0.0081258479
-2.8725333e-10
0.0081258481
-3.8639783e-10
0.0081258482
-4.6658486e-10
0.0081258485
-5.9843836e-10
0.0081258488
-7.1673506e-10
0.0081258492
-8.7981361e-10
0.0081258497
-1.0219754e-09
0.0081258504
-1.1888131e-09
0.0081258512
-1.315308e-09
0.0081258524
-1.435973e-09
0.0081258537
-1.4940325e-09
0.0081258551
-1.4970865e-09
0.0081258558
-1.4160333e-09
0.0081258549
-1.2279863e-09
0.0081258519
-9.6749153e-10
0.0081258475
-7.9332591e-10
0.0081258448
-6.4972957e-10
0.0081258477
-6.9318684e-10
0.008125857
-2.791502e-10
0.0081258674
1.1936875e-09
0.0081258675
4.5937148e-09
0.0081258478
1.109679e-08
0.0081258048
2.3312763e-08
0.008125746
4.119415e-08
0.0081256472
9.6603626e-08
0.008125541
1.219048e-07
0.0081249842
5.7930878e-07
0.0081247101
2.8670925e-07
0.0081195258
5.1788309e-06
0.0081183109
1.1972544e-06
0.0081322018
-1.3905749e-05
-3.3424398e-06
0.01027025
0.00034485495
0.010377819
0.00044020723
0.010398711
0.00032246433
0.010392346
0.00020465285
0.010372
0.00011662198
0.01035223
6.0987767e-05
0.010338833
3.0635859e-05
0.010331062
1.5320868e-05
0.010326842
7.7749676e-06
0.010324599
4.0266058e-06
0.010323408
2.1243007e-06
0.010322771
1.1367731e-06
0.010322427
6.1450839e-07
0.010322241
3.3465188e-07
0.010322139
1.8333555e-07
0.010322083
1.0115155e-07
0.010322052
5.6386067e-08
0.010322035
3.2042089e-08
0.010322026
1.8766097e-08
0.01032202
1.1616199e-08
0.010322017
7.7146775e-09
0.010322015
5.5230061e-09
0.010322013
4.2343579e-09
0.010322012
3.4673703e-09
0.010322011
2.933803e-09
0.01032201
2.5792651e-09
0.01032201
2.2787583e-09
0.010322009
2.067109e-09
0.010322008
1.855589e-09
0.010322008
1.7053345e-09
0.010322007
1.536257e-09
0.010322007
1.4172587e-09
0.010322006
1.2687136e-09
0.010322006
1.1655871e-09
0.010322006
1.0306361e-09
0.010322005
9.4056096e-10
0.010322005
8.1693735e-10
0.010322005
7.3876395e-10
0.010322004
6.2890832e-10
0.010322004
5.6567128e-10
0.010322004
4.6999758e-10
0.010322004
4.209835e-10
0.010322003
3.4076473e-10
0.010322003
3.0699909e-10
0.010322003
2.4010694e-10
0.010322003
2.1837086e-10
0.010322003
1.6354907e-10
0.010322003
1.5329499e-10
0.010322003
1.0677405e-10
0.010322003
1.0408401e-10
0.010322003
6.3790756e-11
0.010322003
6.9050869e-11
0.010322003
3.1528323e-11
0.010322003
4.3822083e-11
0.010322003
2.4685588e-12
0.010322003
2.4210548e-11
0.010322003
-1.5697363e-11
0.010322003
7.8436013e-12
0.010322003
-3.6146687e-11
0.010322003
-1.8354026e-11
0.010322003
-6.7302487e-11
0.010322003
-6.9269274e-11
0.010322003
-1.199854e-10
0.010322003
-1.3852226e-10
0.010322003
-2.0674693e-10
0.010322003
-2.5111162e-10
0.010322003
-3.4835275e-10
0.010322003
-4.3104816e-10
0.010322003
-5.7409289e-10
0.010322003
-7.1452312e-10
0.010322003
-9.1973707e-10
0.010322004
-1.1278716e-09
0.010322004
-1.3964562e-09
0.010322004
-1.6657422e-09
0.010322005
-1.9718352e-09
0.010322005
-2.2432939e-09
0.010322006
-2.492995e-09
0.010322007
-2.6613641e-09
0.010322009
-2.7499835e-09
0.01032201
-2.7398249e-09
0.01032201
-2.6277023e-09
0.01032201
-2.3996803e-09
0.010322006
-2.1695332e-09
0.010322002
-1.876414e-09
0.010322
-1.7233006e-09
0.010322003
-1.2937975e-09
0.010322013
-1.1665954e-10
0.010322024
2.7121929e-09
0.010322025
8.6422372e-09
0.010322007
1.9301667e-08
0.01032197
3.9028406e-08
0.010321919
7.3807792e-08
0.010321866
1.4838656e-07
0.010321745
2.6058097e-07
0.010321731
6.1683847e-07
0.010321194
8.3657718e-07
0.010323882
2.4843726e-06
0.010325505
-4.4462384e-07
0.010316199
-4.6147845e-06
2.9183364e-06
0.01016464
0.00018022971
0.010330665
0.00027418837
0.010428594
0.00022452975
0.010480328
0.000152908
0.010502487
9.4454886e-05
0.010509338
5.4133933e-05
0.010510456
2.9520648e-05
0.010510083
1.569964e-05
0.010509571
8.291631e-06
0.010509205
4.3950631e-06
0.010508981
2.3485933e-06
0.010508851
1.2661814e-06
0.010508777
6.881283e-07
0.010508734
3.7663013e-07
0.01050871
2.0758199e-07
0.010508697
1.1537957e-07
0.010508689
6.4925631e-08
0.010508684
3.7258716e-08
0.010508682
2.200305e-08
0.01050868
1.3812688e-08
0.010508678
9.1673365e-09
0.010508677
6.5687854e-09
0.010508676
5.0548052e-09
0.010508676
4.1468408e-09
0.010508675
3.5388537e-09
0.010508674
3.1220693e-09
0.010508674
2.7865441e-09
0.010508673
2.5249755e-09
0.010508673
2.2818393e-09
0.010508673
2.0808743e-09
0.010508672
1.881984e-09
0.010508672
1.7126224e-09
0.010508671
1.5371676e-09
0.010508671
1.388621e-09
0.010508671
1.234548e-09
0.01050867
1.1049708e-09
0.01050867
9.6778275e-10
0.01050867
8.5651421e-10
0.01050867
7.4045335e-10
0.010508669
6.4901728e-10
0.010508669
5.5056e-10
0.010508669
4.7786779e-10
0.010508669
3.9984215e-10
0.010508669
3.4570375e-10
0.010508669
2.8216415e-10
0.010508669
2.42966e-10
0.010508669
1.9471179e-10
0.010508669
1.6823225e-10
0.010508669
1.2844073e-10
0.010508668
1.1074876e-10
0.010508668
7.8804054e-11
0.010508668
6.901639e-11
0.010508668
4.1429358e-11
0.010508668
3.427485e-11
0.010508668
1.9434157e-11
0.010508668
2.8553844e-12
0.010508668
1.6577465e-12
0.010508668
-2.1759278e-11
0.010508668
-3.0059941e-11
0.010508668
-4.6537398e-11
0.010508668
-8.1524039e-11
0.010508668
-1.047146e-10
0.010508668
-1.5636366e-10
0.010508668
-2.0022835e-10
0.010508668
-2.775883e-10
0.010508668
-3.548559e-10
0.010508668
-4.727015e-10
0.010508669
-6.0195892e-10
0.010508669
-7.8618862e-10
0.010508669
-9.9278418e-10
0.010508669
-1.2607272e-09
0.010508669
-1.55432e-09
0.010508669
-1.9103791e-09
0.01050867
-2.2774926e-09
0.01050867
-2.6702684e-09
0.010508671
-3.017361e-09
0.010508672
-3.3205868e-09
0.010508673
-3.5027248e-09
0.010508674
-3.5951234e-09
0.010508676
-3.5422702e-09
0.010508677
-3.4129323e-09
0.010508676
-3.191974e-09
0.010508673
-2.983488e-09
0.010508668
-2.8383891e-09
0.010508666
-2.6680782e-09
0.01050867
-2.2407572e-09
0.010508682
-8.7268109e-10
0.010508696
2.2223362e-09
0.010508701
8.1968024e-09
0.010508692
1.8986238e-08
0.010508672
3.8314206e-08
0.010508655
7.3122053e-08
0.010508664
1.3850912e-07
0.010508696
2.4584212e-07
0.010508886
4.504428e-07
0.010509121
6.1422364e-07
0.010510698
9.0156178e-07
0.010510627
-3.9216595e-07
0.01050659
-5.9372523e-07
2.6131587e-06
0.010101584
7.8661261e-05
0.010246224
0.00012955458
0.010357826
0.00011292186
0.010430506
8.0216419e-05
0.010473378
5.1574161e-05
0.010496651
3.0857084e-05
0.010508667
1.7506214e-05
0.010514767
9.6045042e-06
0.010517878
5.1837856e-06
0.010519489
2.7863736e-06
0.010520335
1.5023514e-06
0.010520784
8.1529438e-07
0.010521025
4.4581733e-07
0.010521155
2.4587514e-07
0.010521225
1.3691286e-07
0.010521263
7.7303053e-08
0.010521284
4.4454015e-08
0.010521295
2.6268734e-08
0.0105213
1.6320151e-08
0.010521303
1.0771512e-08
0.010521304
7.5743639e-09
0.010521305
5.8054932e-09
0.010521305
4.6737118e-09
0.010521304
4.0326592e-09
0.010521304
3.505937e-09
0.010521304
3.1973097e-09
0.010521303
2.8455115e-09
0.010521303
2.6411485e-09
0.010521303
2.347999e-09
0.010521302
2.1909146e-09
0.010521302
1.9265429e-09
0.010521302
1.798289e-09
0.010521301
1.5556908e-09
0.010521301
1.4541075e-09
0.010521301
1.2320526e-09
0.0105213
1.1528888e-09
0.0105213
9.5152949e-10
0.0105213
8.9668573e-10
0.0105213
7.1648381e-10
0.010521299
6.8235306e-10
0.010521299
5.2243272e-10
0.010521299
5.1092354e-10
0.010521299
3.6954017e-10
0.010521299
3.7692953e-10
0.010521299
2.5051006e-10
0.010521299
2.7743818e-10
0.010521299
1.6095263e-10
0.010521299
2.0313733e-10
0.010521299
9.082318e-11
0.010521299
1.5345864e-10
0.010521299
3.0015882e-11
0.010521299
1.1623781e-10
0.010521299
-1.7334098e-11
0.010521299
9.0325819e-11
0.010521299
-4.8584421e-11
0.010521299
6.5529372e-11
0.010521299
-7.5466792e-11
0.010521299
4.6192786e-11
0.010521299
-1.008643e-10
0.010521299
7.7931199e-13
0.010521299
-1.4684726e-10
0.010521299
-7.3844755e-11
0.010521299
-2.2570986e-10
0.010521299
-2.0167487e-10
0.010521299
-3.6064933e-10
0.010521299
-3.8527108e-10
0.010521299
-5.8701064e-10
0.010521299
-6.8000934e-10
0.010521299
-9.5455923e-10
0.010521299
-1.1361991e-09
0.010521299
-1.5053641e-09
0.010521299
-1.7876785e-09
0.010521299
-2.2507194e-09
0.0105213
-2.6027847e-09
0.0105213
-3.0878631e-09
0.010521301
-3.3993252e-09
0.010521302
-3.7432969e-09
0.010521304
-3.8585593e-09
0.010521305
-3.9349711e-09
0.010521307
-3.8147906e-09
0.010521307
-3.6481333e-09
0.010521307
-3.431406e-09
0.010521304
-3.3445831e-09
0.010521299
-3.3633109e-09
0.010521297
-3.6300626e-09
0.010521302
-3.3871711e-09
0.010521315
-2.5548782e-09
0.010521332
-1.5596009e-10
0.010521342
4.0050999e-09
0.010521341
1.0745572e-08
0.010521336
2.2446522e-08
0.010521348
4.3097754e-08
0.010521406
8.0053831e-08
0.010521532
1.389205e-07
0.01052178
2.2647094e-07
0.010522121
2.8534243e-07
0.010522724
2.9255921e-07
0.010522419
-1.0573696e-07
0.010521616
1.9487828e-07
1.2455042e-06
0.010078658
1.7740145e-08
0.010208212
6.5734944e-09
0.010321125
1.7166543e-09
0.010401327
2.3711905e-09
0.010452886
4.0918969e-09
0.010483733
5.3632926e-09
0.010501234
5.930173e-09
0.010510836
5.8040883e-09
0.010516017
5.447726e-09
0.010518799
5.0794359e-09
0.010520296
4.9708022e-09
0.010521104
5.0092633e-09
0.010521542
5.1978692e-09
0.01052178
5.276879e-09
0.010521911
5.3186785e-09
0.010521982
5.1343704e-09
0.010522021
4.9423334e-09
0.010522042
4.5680571e-09
0.010522053
4.3556553e-09
0.010522059
4.0130122e-09
0.010522062
3.8164929e-09
0.010522063
3.5046806e-09
0.010522064
3.3485353e-09
0.010522064
3.0602922e-09
0.010522064
2.9241921e-09
0.010522064
2.6381189e-09
0.010522063
2.5097084e-09
0.010522063
2.2249565e-09
0.010522063
2.1111986e-09
0.010522062
1.837015e-09
0.010522062
1.7427772e-09
0.010522062
1.484508e-09
0.010522062
1.4150389e-09
0.010522061
1.1770563e-09
0.010522061
1.1304013e-09
0.010522061
9.1217408e-10
0.010522061
8.8891837e-10
0.01052206
6.9128339e-10
0.01052206
6.8728187e-10
0.01052206
5.0763911e-10
0.01052206
5.2274325e-10
0.01052206
3.6169509e-10
0.01052206
3.9258864e-10
0.01052206
2.4647478e-10
0.01052206
2.9502368e-10
0.01052206
1.5958037e-10
0.01052206
2.2170172e-10
0.01052206
8.8878207e-11
0.01052206
1.6827874e-10
0.01052206
3.5998335e-11
0.01052206
1.2927555e-10
0.01052206
-1.4989604e-11
0.01052206
1.0080488e-10
0.01052206
-4.4259071e-11
0.01052206
7.2436014e-11
0.01052206
-6.3295361e-11
0.01052206
4.6094594e-11
0.01052206
-8.639572e-11
0.01052206
2.1913566e-11
0.01052206
-1.2979202e-10
0.01052206
-2.893361e-11
0.01052206
-1.9274858e-10
0.01052206
-1.3549511e-10
0.010522059
-3.0491017e-10
0.01052206
-2.9037103e-10
0.010522059
-4.9177381e-10
0.01052206
-5.3393193e-10
0.010522059
-8.0047454e-10
0.01052206
-9.1932236e-10
0.010522059
-1.2731721e-09
0.01052206
-1.4875784e-09
0.01052206
-1.9394531e-09
0.01052206
-2.235946e-09
0.010522061
-2.7386523e-09
0.010522061
-3.0353646e-09
0.010522062
-3.4520351e-09
0.010522063
-3.5909759e-09
0.010522065
-3.7619172e-09
0.010522066
-3.6564851e-09
0.010522068
-3.5402187e-09
0.010522069
-3.2726089e-09
0.010522068
-3.1132187e-09
0.010522065
-3.0869108e-09
0.010522061
-3.4680009e-09
0.010522059
-3.885476e-09
0.010522065
-4.3405427e-09
0.010522079
-4.1030434e-09
0.010522097
-3.4739375e-09
0.01052211
-2.6255429e-09
0.010522113
-2.1927426e-09
0.010522118
-2.3761104e-09
0.010522146
-2.7783714e-09
0.01052223
-2.8080534e-09
0.01052239
-2.2477144e-09
0.010522642
-1.41943e-09
0.010522941
-7.7427198e-10
0.010523229
-7.0456919e-10
0.010523106
-6.7942909e-10
0.010523287
-6.0382475e-10
9.5050703e-11
0.010078661
-7.8629039e-05
0.010208216
-0.00012954488
0.010321129
-0.0001129193
0.010401329
-8.0210781e-05
0.010452886
-5.1564885e-05
0.010483731
-3.0845803e-05
0.010501232
-1.7494745e-05
0.010510834
-9.5938702e-06
0.010516015
-5.1741691e-06
0.010518798
-2.7774073e-06
0.010520295
-1.4933964e-06
0.010521103
-8.0597871e-07
0.010521541
-4.3598359e-07
0.010521779
-2.3575089e-07
0.010521909
-1.2676584e-07
0.01052198
-6.7490871e-08
0.010522019
-3.5150798e-08
0.010522041
-1.7733094e-08
0.010522052
-8.2434991e-09
0.010522058
-3.2744681e-09
0.010522061
-5.6152131e-10
0.010522062
7.4014553e-10
0.010522063
1.4760666e-09
0.010522063
1.7196095e-09
0.010522063
1.8751123e-09
0.010522063
1.7904486e-09
0.010522063
1.767733e-09
0.010522062
1.5827064e-09
0.010522062
1.5151813e-09
0.010522062
1.3049842e-09
0.010522062
1.2388006e-09
0.010522061
1.0370316e-09
0.010522061
9.9278585e-10
0.010522061
8.0569494e-10
0.010522061
7.826161e-10
0.010522061
6.1685697e-10
0.01052206
6.15224e-10
0.01052206
4.6410399e-10
0.01052206
4.7545723e-10
0.01052206
3.4162614e-10
0.01052206
3.6515689e-10
0.01052206
2.4274258e-10
0.01052206
2.7529157e-10
0.01052206
1.6456665e-10
0.01052206
2.1823598e-10
0.01052206
9.9165269e-11
0.01052206
1.7515054e-10
0.01052206
3.685313e-11
0.01052206
1.5001648e-10
0.01052206
-1.3271694e-11
0.01052206
1.2407385e-10
0.01052206
-4.6282742e-11
0.01052206
1.0882793e-10
0.01052206
-7.5142383e-11
0.01052206
8.8785661e-11
0.01052206
-9.7549237e-11
0.01052206
7.2182243e-11
0.01052206
-1.1450391e-10
0.01052206
4.1386239e-11
0.01052206
-1.4624463e-10
0.01052206
-1.0110569e-11
0.01052206
-2.0198418e-10
0.010522059
-1.1106821e-10
0.010522059
-2.9682089e-10
0.010522059
-2.7515206e-10
0.010522059
-4.6941549e-10
0.010522059
-5.1233225e-10
0.010522059
-7.629085e-10
0.010522059
-8.7301818e-10
0.010522059
-1.204521e-09
0.010522059
-1.3997216e-09
0.01052206
-1.8075646e-09
0.01052206
-2.0609879e-09
0.01052206
-2.4895053e-09
0.010522061
-2.7125363e-09
0.010522062
-3.0097824e-09
0.010522064
-3.0580161e-09
0.010522065
-3.0926284e-09
0.010522067
-2.8995351e-09
0.010522069
-2.6480745e-09
0.010522069
-2.307082e-09
0.010522068
-2.1439761e-09
0.010522065
-2.2354413e-09
0.010522061
-3.0332428e-09
0.010522059
-3.9051123e-09
0.010522065
-5.0558453e-09
0.01052208
-5.5885924e-09
0.010522098
-6.4107231e-09
0.010522111
-8.7643055e-09
0.010522114
-1.4484221e-08
0.010522118
-2.6421386e-08
0.010522147
-4.7949833e-08
0.010522231
-8.4855062e-08
0.010522391
-1.4294523e-07
0.010522643
-2.2912898e-07
0.010522942
-2.8741016e-07
0.010523229
-2.9429935e-07
0.010523106
1.038518e-07
0.010523287
-1.9560272e-07
-1.2451365e-06
0.010101592
-0.00018020862
0.010246234
-0.00027418415
0.010357833
-0.00022452703
0.010430508
-0.00015290065
0.010473376
-9.4444698e-05
0.010496647
-5.4123339e-05
0.010508663
-2.951125e-05
0.010514763
-1.5691804e-05
0.010517875
-8.2850777e-06
0.010519486
-4.3888079e-06
0.010520332
-2.3420432e-06
0.010520782
-1.2587419e-06
0.010521022
-6.8004177e-07
0.010521151
-3.6799848e-07
0.010521221
-1.9909161e-07
0.010521259
-1.0712996e-07
0.01052128
-5.7421849e-08
0.010521291
-3.0274436e-08
0.010521297
-1.5838601e-08
0.0105213
-7.8306049e-09
0.010521301
-3.7595109e-09
0.010521302
-1.3488412e-09
0.010521302
-2.7795485e-10
0.010521302
5.2719689e-10
0.010521302
6.9496918e-10
0.010521302
9.8724541e-10
0.010521301
8.4534438e-10
0.010521301
9.7297416e-10
0.010521301
7.2145915e-10
0.010521301
8.0891783e-10
0.0105213
5.310358e-10
0.0105213
6.3208157e-10
0.0105213
3.5996463e-10
0.0105213
4.8763295e-10
0.0105213
2.2641896e-10
0.0105213
3.934848e-10
0.010521299
1.3231175e-10
0.010521299
3.3098083e-10
0.010521299
5.6762968e-11
0.010521299
2.9800421e-10
0.010521299
-9.4337368e-12
0.010521299
2.7545032e-10
0.010521299
-6.6141614e-11
0.010521299
2.5806639e-10
0.010521299
-8.8573476e-11
0.010521299
2.3619477e-10
0.010521299
-1.1388256e-10
0.010521299
2.1787513e-10
0.010521299
-1.3235761e-10
0.010521299
1.9821629e-10
0.010521299
-1.5137171e-10
0.010521299
1.8164799e-10
0.010521299
-1.5160656e-10
0.010521299
1.6157867e-10
0.010521299
-1.6542228e-10
0.010521299
1.4639631e-10
0.010521299
-1.7847035e-10
0.010521299
1.3103798e-10
0.010521299
-2.0653017e-10
0.010521299
1.1245744e-10
0.010521299
-2.4882064e-10
0.010521299
5.8443585e-11
0.010521298
-3.2344453e-10
0.010521298
-3.3654619e-11
0.010521298
-4.3563459e-10
0.010521298
-2.1286426e-10
0.010521298
-6.1398214e-10
0.010521298
-4.8938686e-10
0.010521298
-8.9931254e-10
0.010521298
-8.6347184e-10
0.010521298
-1.3170973e-09
0.010521298
-1.3379462e-09
0.010521299
-1.8017659e-09
0.010521299
-1.8201043e-09
0.0105213
-2.1788986e-09
0.010521302
-2.073562e-09
0.010521303
-2.1864181e-09
0.010521305
-1.8960085e-09
0.010521306
-1.6924433e-09
0.010521308
-1.2409523e-09
0.010521309
-9.6186133e-10
0.010521308
-7.5072791e-10
0.010521304
-1.3719953e-09
0.010521299
-2.2129262e-09
0.010521297
-4.0558268e-09
0.010521304
-5.3524226e-09
0.010521319
-6.7002249e-09
0.010521335
-8.2059866e-09
0.010521345
-1.1721011e-08
0.010521342
-2.0694586e-08
0.010521336
-3.9755857e-08
0.010521349
-7.5307922e-08
0.010521409
-1.4214051e-07
0.010521534
-2.4969733e-07
0.010521782
-4.5407819e-07
0.010522122
-6.1681374e-07
0.010522725
-9.0343557e-07
0.010522421
3.9126675e-07
0.010521618
5.9341862e-07
-2.6125749e-06
0.010164647
-0.00034484116
0.01033067
-0.00044020132
0.010428596
-0.0003224606
0.01048033
-0.00020464885
0.010502489
-0.00011661727
0.010509339
-6.0982611e-05
0.010510456
-3.0630409e-05
0.01051008
-1.5315459e-05
0.010509567
-7.7697668e-06
0.0105092
-4.0216609e-06
0.010508975
-2.1194502e-06
0.010508845
-1.1318751e-06
0.010508771
-6.0943284e-07
0.010508728
-3.2944428e-07
0.010508705
-1.7808109e-07
0.010508691
-9.6041544e-08
0.010508684
-5.1530326e-08
0.010508679
-2.7551392e-08
0.010508677
-1.4628612e-08
0.010508675
-7.7792375e-09
0.010508674
-4.1018293e-09
0.010508673
-2.2280559e-09
0.010508673
-1.0982551e-09
0.010508672
-5.2081744e-10
0.010508672
-1.2573315e-10
0.010508671
1.4936639e-11
0.010508671
1.6493256e-10
0.010508671
1.3309987e-10
0.010508671
1.8202133e-10
0.01050867
7.6911098e-11
0.01050867
1.2358849e-10
0.01050867
-1.749336e-11
0.01050867
5.2663402e-11
0.010508669
-9.6211265e-11
0.010508669
1.0499915e-11
0.010508669
-1.1141635e-10
0.010508669
-1.3549891e-11
0.010508669
-1.0712143e-10
0.010508669
-1.6190894e-11
0.010508669
-8.0529677e-11
0.010508669
-1.178989e-11
0.010508669
-6.8728207e-11
0.010508669
3.2429485e-12
0.010508668
-5.0820464e-11
0.010508668
1.6494254e-11
0.010508668
-4.5810157e-11
0.010508668
2.7134943e-11
0.010508668
-3.727156e-11
0.010508668
2.8303855e-11
0.010508668
-4.3247399e-11
0.010508668
3.2925331e-11
0.010508668
-4.3012494e-11
0.010508668
3.5414627e-11
0.010508668
-5.4389283e-11
0.010508668
3.4241251e-11
0.010508668
-5.7418479e-11
0.010508668
1.9701615e-11
0.010508668
-6.8036035e-11
0.010508668
5.6306106e-12
0.010508668
-7.4684737e-11
0.010508668
-3.4431665e-11
0.010508668
-1.0960249e-10
0.010508668
-9.2209524e-11
0.010508668
-1.6567141e-10
0.010508668
-1.8869462e-10
0.010508668
-2.8309268e-10
0.010508668
-3.2902056e-10
0.010508668
-4.5887138e-10
0.010508668
-5.404583e-10
0.010508668
-7.0799915e-10
0.010508668
-8.0300705e-10
0.010508668
-9.8390383e-10
0.010508668
-1.0500343e-09
0.010508669
-1.1709821e-09
0.01050867
-1.1124377e-09
0.010508671
-1.0530952e-09
0.010508673
-8.1891265e-10
0.010508675
-5.8126117e-10
0.010508676
-1.5395259e-10
0.010508678
1.6933418e-10
0.010508679
4.4894433e-10
0.010508677
2.1323473e-10
0.010508672
-7.3193325e-10
0.010508667
-2.447424e-09
0.010508666
-4.2888053e-09
0.010508673
-5.297318e-09
0.010508688
-5.0496344e-09
0.010508702
-4.9018077e-09
0.010508705
-7.9660695e-09
0.010508692
-1.8051929e-08
0.010508671
-3.9767838e-08
0.010508655
-7.7351383e-08
0.010508666
-1.533542e-07
0.010508701
-2.6451286e-07
0.01050889
-6.1831674e-07
0.010509124
-8.3633098e-07
0.010510699
-2.4838173e-06
0.010510628
4.4392564e-07
0.010506593
4.613948e-06
-2.9184902e-06
0.010270248
-0.00061506786
0.010377816
-0.00054776001
0.010398714
-0.00034336494
0.010392355
-0.00019830604
0.010372011
-9.6289555e-05
0.010352239
-4.1220745e-05
0.010338836
-1.7230958e-05
0.01033106
-7.5372794e-06
0.010326835
-3.5426524e-06
0.01032459
-1.7753726e-06
0.010323398
-9.2908246e-07
0.010322762
-4.985235e-07
0.01032242
-2.7073465e-07
0.010322234
-1.4751226e-07
0.010322133
-7.9888772e-08
0.010322078
-4.2812028e-08
0.010322047
-2.2520477e-08
0.01032203
-1.1795088e-08
0.010322021
-6.1616448e-09
0.010322015
-3.4438026e-09
0.010322012
-2.089103e-09
0.01032201
-1.741646e-09
0.010322008
-1.2262081e-09
0.010322007
-1.064843e-09
0.010322007
-7.4571881e-10
0.010322006
-6.9007449e-10
0.010322006
-4.4378518e-10
0.010322006
-4.6499117e-10
0.010322006
-3.1537256e-10
0.010322005
-3.5945591e-10
0.010322005
-2.5460792e-10
0.010322005
-3.6100493e-10
0.010322005
-2.5133312e-10
0.010322004
-3.6184072e-10
0.010322004
-2.3666922e-10
0.010322004
-3.4592893e-10
0.010322004
-2.1045665e-10
0.010322003
-3.0019368e-10
0.010322003
-1.6512288e-10
0.010322003
-2.5382061e-10
0.010322003
-1.179612e-10
0.010322003
-2.0435615e-10
0.010322003
-6.2083115e-11
0.010322003
-1.7027309e-10
0.010322003
-2.2579779e-11
0.010322003
-1.3344714e-10
0.010322003
7.0596094e-12
0.010322003
-1.1228363e-10
0.010322003
2.0354516e-11
0.010322003
-9.1835983e-11
0.010322003
3.7534871e-11
0.010322003
-8.6142757e-11
0.010322003
4.1357967e-11
0.010322003
-7.7166033e-11
0.010322003
4.8836108e-11
0.010322003
-8.0934916e-11
0.010322003
4.2444362e-11
0.010322003
-7.9500507e-11
0.010322003
4.119255e-11
0.010322003
-9.2837526e-11
0.010322003
2.2850859e-11
0.010322002
-1.1114318e-10
0.010322002
3.7243936e-12
0.010322002
-1.5216416e-10
0.010322002
-4.9080432e-11
0.010322002
-2.0543427e-10
0.010322002
-1.2292735e-10
0.010322002
-2.9070178e-10
0.010322002
-2.2049952e-10
0.010322002
-3.8556295e-10
0.010322002
-2.7814057e-10
0.010322002
-4.5414267e-10
0.010322003
-2.3177567e-10
0.010322003
-3.2951784e-10
0.010322005
5.1249808e-12
0.010322006
8.7020781e-11
0.010322007
4.4628393e-10
0.010322009
6.2278081e-10
0.010322011
9.6482323e-10
0.010322012
9.2827533e-10
0.010322012
7.2586921e-10
0.01032201
-3.9436985e-10
0.010322005
-1.8278931e-09
0.010322
-3.2539124e-09
0.010322
-3.1809724e-09
0.010322008
-1.0312842e-09
0.010322021
2.1272179e-09
0.010322032
3.2051269e-09
0.010322028
-1.1042197e-09
0.010322004
-1.1887859e-08
0.010321966
-2.9163515e-08
0.010321919
-4.9186265e-08
0.010321871
-1.0154711e-07
0.010321753
-1.2114007e-07
0.010321737
-5.738229e-07
0.010321196
-2.8092033e-07
0.010323881
-5.1769404e-06
0.010325505
-1.1998319e-06
0.010316202
1.3901409e-05
3.3411154e-06
0.0093849407
0.008837181
0.0084938092
0.0082954941
0.0081991975
0.0081579736
0.0081407427
0.0081332071
0.0081296657
0.0081278905
0.0081269603
0.0081264601
0.0081261875
0.0081260385
0.0081259574
0.0081259139
0.0081258908
0.0081258786
0.0081258718
0.0081258679
0.0081258651
0.0081258627
0.0081258608
0.0081258592
0.0081258578
0.0081258567
0.0081258558
0.008125855
0.0081258543
0.0081258537
0.0081258531
0.0081258526
0.008125852
0.0081258515
0.008125851
0.0081258505
0.0081258501
0.0081258497
0.0081258493
0.008125849
0.0081258487
0.0081258485
0.0081258483
0.0081258482
0.008125848
0.0081258479
0.0081258478
0.0081258477
0.0081258476
0.0081258476
0.0081258475
0.0081258475
0.0081258475
0.0081258475
0.0081258474
0.0081258474
0.0081258474
0.0081258474
0.0081258473
0.0081258473
0.0081258473
0.0081258472
0.0081258471
0.0081258471
0.008125847
0.0081258469
0.0081258467
0.0081258466
0.0081258464
0.0081258464
0.0081258463
0.0081258465
0.0081258469
0.0081258476
0.0081258486
0.00812585
0.0081258517
0.0081258536
0.0081258556
0.0081258569
0.0081258565
0.0081258534
0.0081258482
0.0081258441
0.0081258451
0.0081258536
0.0081258665
0.0081258746
0.0081258679
0.0081258422
0.0081257999
0.0081257477
0.0081256556
0.0081255503
0.008124988
0.0081247078
0.0081195222
0.0081183118
0.0081322093
)
;

boundaryField
{
    top
    {
        type            calculated;
        value           uniform 0;
    }
    inlet
    {
        type            calculated;
        value           nonuniform List<scalar> 10(-0.01 -0.01 -0.01 -0.01 -0.01 -0.01 -0.01 -0.01 -0.01 -0.01);
    }
    outlet
    {
        type            calculated;
        value           nonuniform List<scalar> 10(0.0081355401 0.010309934 0.010506891 0.010522979 0.010524528 0.010524529 0.010522982 0.010506894 0.010309938 0.0081355504);
    }
    bottom
    {
        type            calculated;
        value           uniform 0;
    }
    back
    {
        type            empty;
        value           nonuniform 0();
    }
    front
    {
        type            empty;
        value           nonuniform 0();
    }
}


// ************************************************************************* //
