/*--------------------------------*- C++ -*----------------------------------*\
| =========                 |                                                 |
| \\      /  F ield         | OpenFOAM: The Open Source CFD Toolbox           |
|  \\    /   O peration     | Version:  2112                                  |
|   \\  /    A nd           | Website:  www.openfoam.com                      |
|    \\/     M anipulation  |                                                 |
\*---------------------------------------------------------------------------*/
FoamFile
{
    version     2.0;
    format      ascii;
    arch        "LSB;label=32;scalar=64";
    class       volScalarField;
    location    "20";
    object      p;
}
// * * * * * * * * * * * * * * * * * * * * * * * * * * * * * * * * * * * * * //

dimensions      [0 2 -2 0 0 0 0];

internalField   nonuniform List<scalar> 
1000
(
1.5270022
1.510772
1.4947437
1.4788692
1.463102
1.4474092
1.43177
1.416172
1.4006079
1.3850724
1.369561
1.35407
1.3385963
1.3231378
1.3076927
1.29226
1.2768383
1.261427
1.246025
1.2306318
1.2152467
1.1998691
1.1844985
1.1691344
1.1537765
1.1384242
1.1230773
1.1077354
1.0923982
1.0770654
1.0617367
1.046412
1.0310909
1.0157732
1.0004588
0.98514748
0.96983901
0.95453325
0.93923004
0.92392925
0.90863072
0.89333434
0.87803997
0.86274751
0.84745685
0.83216788
0.81688051
0.80159465
0.78631021
0.77102712
0.75574528
0.74046465
0.72518514
0.70990669
0.69462924
0.67935274
0.66407713
0.64880236
0.63352839
0.61825516
0.60298263
0.58771077
0.57243953
0.55716888
0.54189879
0.52662922
0.51136014
0.49609153
0.48082335
0.46555559
0.45028821
0.43502119
0.41975452
0.40448817
0.38922213
0.37395637
0.35869088
0.34342564
0.32816064
0.31289586
0.29763129
0.28236692
0.26710273
0.25183872
0.23657487
0.22131117
0.20604762
0.1907842
0.17552091
0.16025774
0.14499467
0.12973172
0.11446886
0.099206088
0.083943406
0.068680804
0.053418279
0.03815582
0.022893438
0.0076310966
1.5268107
1.5105528
1.4946591
1.4789059
1.4631846
1.4474865
1.431829
1.4162183
1.4006483
1.3851095
1.3695949
1.3541
1.3386227
1.323161
1.3077135
1.2922787
1.2768555
1.2614427
1.2460395
1.2306452
1.2152591
1.1998806
1.1845092
1.1691444
1.1537858
1.1384329
1.1230854
1.107743
1.0924054
1.0770721
1.0617431
1.0464179
1.0310965
1.0157785
1.0004638
0.98515212
0.96984338
0.95453736
0.93923391
0.92393289
0.90863415
0.89333756
0.87804301
0.86275037
0.84745954
0.83217042
0.8168829
0.8015969
0.78631233
0.77102911
0.75574716
0.74046641
0.7251868
0.70990825
0.69463071
0.67935413
0.66407843
0.64880359
0.63352954
0.61825624
0.60298365
0.58771172
0.57244043
0.55716973
0.54189958
0.52662996
0.51136084
0.49609219
0.48082397
0.46555616
0.45028875
0.4350217
0.419755
0.40448862
0.38922255
0.37395676
0.35869125
0.34342598
0.32816096
0.31289616
0.29763157
0.28236718
0.26710298
0.25183895
0.23657509
0.22131137
0.20604781
0.19078438
0.17552107
0.16025789
0.14499482
0.12973185
0.11446898
0.099206205
0.083943515
0.068680904
0.053418373
0.038155902
0.022893513
0.007631135
1.5264625
1.5101069
1.4943939
1.478853
1.4632446
1.4475651
1.4318863
1.416255
1.4006767
1.3851371
1.3696224
1.3541258
1.3386452
1.3231803
1.3077302
1.2922936
1.276869
1.261455
1.2460507
1.2306555
1.2152685
1.1998893
1.1845172
1.1691518
1.1537927
1.1384393
1.1230914
1.1077486
1.0924106
1.077077
1.0617476
1.0464222
1.0311005
1.0157822
1.0004673
0.98515543
0.96984648
0.95454028
0.93923665
0.92393547
0.90863657
0.89333984
0.87804515
0.86275239
0.84746144
0.8321722
0.81688458
0.80159848
0.78631382
0.77103051
0.75574848
0.74046765
0.72518797
0.70990935
0.69463175
0.6793551
0.66407935
0.64880445
0.63353035
0.618257
0.60298437
0.5877124
0.57244106
0.55717032
0.54190014
0.52663049
0.51136134
0.49609265
0.48082441
0.46555658
0.45028914
0.43502207
0.41975534
0.40448894
0.38922285
0.37395704
0.35869151
0.34342623
0.32816119
0.31289638
0.29763178
0.28236737
0.26710316
0.25183912
0.23657524
0.22131152
0.20604794
0.19078451
0.17552119
0.160258
0.14499492
0.12973195
0.11446907
0.09920629
0.083943594
0.068680977
0.053418437
0.038155959
0.022893548
0.0076311576
1.5261129
1.5096233
1.494062
1.4787438
1.4632773
1.4476368
1.4319432
1.4162906
1.4007031
1.3851637
1.3696509
1.3541537
1.3386704
1.323202
1.307749
1.2923103
1.276884
1.2614687
1.2460632
1.2306668
1.2152788
1.1998987
1.1845259
1.1691599
1.1538002
1.1384463
1.1230979
1.1077546
1.0924162
1.0770822
1.0617525
1.0464268
1.0311047
1.0157862
1.000471
0.98515896
0.9698498
0.95454339
0.93923959
0.92393822
0.90863917
0.89334229
0.87804745
0.86275456
0.84746348
0.83217412
0.81688639
0.80160018
0.78631542
0.77103202
0.7557499
0.740469
0.72518923
0.70991054
0.69463287
0.67935616
0.66408035
0.64880539
0.63353123
0.61825784
0.60298515
0.58771314
0.57244176
0.55717098
0.54190076
0.52663107
0.51136188
0.49609316
0.48082489
0.46555703
0.45028956
0.43502247
0.41975572
0.4044893
0.38922318
0.37395736
0.3586918
0.34342651
0.32816145
0.31289662
0.29763201
0.28236759
0.26710336
0.25183931
0.23657542
0.22131169
0.2060481
0.19078465
0.17552133
0.16025813
0.14499504
0.12973206
0.11446918
0.09920639
0.083943684
0.068681063
0.053418509
0.038156029
0.022893593
0.0076312077
1.5259009
1.5093194
1.4938403
1.4786598
1.4632894
1.4476803
1.43198
1.4163138
1.4007199
1.3851808
1.3696698
1.3541729
1.338688
1.3232175
1.3077626
1.2923224
1.2768951
1.2614788
1.2460725
1.2306753
1.2152866
1.1999059
1.1845326
1.169166
1.1538059
1.1384516
1.1231028
1.1077592
1.0924205
1.0770862
1.0617563
1.0464303
1.0311081
1.0157894
1.000474
0.98516171
0.96985238
0.95454583
0.93924187
0.92394038
0.9086412
0.8933442
0.87804925
0.86275625
0.84746508
0.83217563
0.81688781
0.80160152
0.78631668
0.77103321
0.75575102
0.74047005
0.72519023
0.70991148
0.69463376
0.67935699
0.66408113
0.64880613
0.63353193
0.61825849
0.60298577
0.58771372
0.57244231
0.5571715
0.54190125
0.52663153
0.51136232
0.49609357
0.48082527
0.46555739
0.4502899
0.43502279
0.41975602
0.40448958
0.38922345
0.37395761
0.35869204
0.34342673
0.32816166
0.31289682
0.29763219
0.28236776
0.26710352
0.25183946
0.23657556
0.22131182
0.20604823
0.19078477
0.17552144
0.16025823
0.14499514
0.12973215
0.11446926
0.09920647
0.083943756
0.068681134
0.053418569
0.038156089
0.022893637
0.0076312573
1.5259009
1.5093194
1.4938403
1.4786598
1.4632893
1.4476803
1.43198
1.4163138
1.4007199
1.3851808
1.3696698
1.3541729
1.338688
1.3232175
1.3077626
1.2923224
1.2768951
1.2614788
1.2460725
1.2306753
1.2152866
1.1999059
1.1845326
1.169166
1.1538059
1.1384516
1.1231028
1.1077592
1.0924205
1.0770862
1.0617563
1.0464303
1.0311081
1.0157894
1.000474
0.98516171
0.96985239
0.95454583
0.93924187
0.92394038
0.9086412
0.8933442
0.87804925
0.86275625
0.84746508
0.83217563
0.81688781
0.80160152
0.78631668
0.77103321
0.75575102
0.74047005
0.72519023
0.70991148
0.69463376
0.67935699
0.66408113
0.64880613
0.63353193
0.61825849
0.60298577
0.58771372
0.57244231
0.5571715
0.54190125
0.52663153
0.51136232
0.49609357
0.48082527
0.46555739
0.4502899
0.43502279
0.41975602
0.40448958
0.38922345
0.37395761
0.35869204
0.34342673
0.32816166
0.31289682
0.29763219
0.28236776
0.26710352
0.25183946
0.23657556
0.22131182
0.20604823
0.19078477
0.17552144
0.16025823
0.14499514
0.12973215
0.11446926
0.099206471
0.083943757
0.068681134
0.053418569
0.03815609
0.022893638
0.0076312584
1.5261129
1.5096233
1.494062
1.4787438
1.4632772
1.4476368
1.4319432
1.4162906
1.4007031
1.3851637
1.3696509
1.3541537
1.3386704
1.323202
1.307749
1.2923103
1.276884
1.2614687
1.2460632
1.2306668
1.2152788
1.1998988
1.1845259
1.1691599
1.1538002
1.1384463
1.1230979
1.1077546
1.0924162
1.0770822
1.0617525
1.0464268
1.0311047
1.0157862
1.0004711
0.98515896
0.9698498
0.95454339
0.93923959
0.92393822
0.90863917
0.89334229
0.87804745
0.86275456
0.84746348
0.83217412
0.81688639
0.80160018
0.78631542
0.77103202
0.7557499
0.740469
0.72518923
0.70991054
0.69463287
0.67935616
0.66408035
0.64880539
0.63353123
0.61825784
0.60298515
0.58771314
0.57244176
0.55717098
0.54190076
0.52663107
0.51136188
0.49609316
0.48082489
0.46555703
0.45028956
0.43502247
0.41975572
0.4044893
0.38922318
0.37395736
0.3586918
0.34342651
0.32816145
0.31289662
0.29763201
0.28236759
0.26710336
0.25183931
0.23657542
0.22131169
0.2060481
0.19078465
0.17552133
0.16025813
0.14499504
0.12973206
0.11446918
0.09920639
0.083943684
0.068681064
0.05341851
0.03815603
0.022893596
0.0076312103
1.5264625
1.5101069
1.4943939
1.478853
1.4632446
1.447565
1.4318863
1.416255
1.4006766
1.3851371
1.3696224
1.3541258
1.3386452
1.3231803
1.3077302
1.2922936
1.276869
1.261455
1.2460507
1.2306555
1.2152685
1.1998893
1.1845172
1.1691518
1.1537927
1.1384394
1.1230914
1.1077486
1.0924106
1.077077
1.0617476
1.0464222
1.0311005
1.0157822
1.0004673
0.98515543
0.96984648
0.95454028
0.93923665
0.92393547
0.90863657
0.89333984
0.87804516
0.86275239
0.84746144
0.8321722
0.81688458
0.80159848
0.78631382
0.77103051
0.75574848
0.74046765
0.72518797
0.70990935
0.69463175
0.6793551
0.66407935
0.64880445
0.63353035
0.618257
0.60298437
0.5877124
0.57244106
0.55717032
0.54190014
0.52663049
0.51136134
0.49609265
0.48082441
0.46555658
0.45028914
0.43502206
0.41975534
0.40448894
0.38922285
0.37395704
0.35869151
0.34342623
0.32816119
0.31289638
0.29763178
0.28236737
0.26710316
0.25183912
0.23657524
0.22131152
0.20604794
0.19078451
0.17552119
0.160258
0.14499492
0.12973195
0.11446907
0.099206291
0.083943595
0.068680978
0.053418438
0.03815596
0.022893551
0.0076311602
1.5268107
1.5105528
1.4946591
1.4789059
1.4631846
1.4474865
1.431829
1.4162183
1.4006482
1.3851095
1.3695949
1.3541
1.3386227
1.323161
1.3077135
1.2922787
1.2768555
1.2614427
1.2460395
1.2306452
1.2152591
1.1998806
1.1845092
1.1691444
1.1537858
1.1384329
1.1230855
1.107743
1.0924054
1.0770721
1.0617431
1.0464179
1.0310965
1.0157785
1.0004638
0.98515212
0.96984338
0.95453736
0.93923391
0.92393289
0.90863415
0.89333756
0.87804301
0.86275037
0.84745954
0.83217042
0.8168829
0.8015969
0.78631233
0.77102911
0.75574716
0.74046641
0.7251868
0.70990825
0.69463071
0.67935413
0.66407843
0.64880359
0.63352954
0.61825624
0.60298365
0.58771172
0.57244043
0.55716973
0.54189958
0.52662996
0.51136084
0.49609218
0.48082397
0.46555616
0.45028875
0.4350217
0.419755
0.40448862
0.38922255
0.37395676
0.35869125
0.34342598
0.32816096
0.31289616
0.29763157
0.28236718
0.26710298
0.25183895
0.23657509
0.22131137
0.20604781
0.19078438
0.17552107
0.16025789
0.14499482
0.12973185
0.11446898
0.099206206
0.083943517
0.068680905
0.053418374
0.038155903
0.022893515
0.0076311365
1.5270021
1.510772
1.4947437
1.4788692
1.463102
1.4474092
1.43177
1.416172
1.4006079
1.3850724
1.369561
1.35407
1.3385963
1.3231378
1.3076927
1.29226
1.2768383
1.261427
1.246025
1.2306318
1.2152467
1.1998691
1.1844985
1.1691344
1.1537765
1.1384242
1.1230773
1.1077354
1.0923982
1.0770654
1.0617367
1.046412
1.0310909
1.0157732
1.0004588
0.98514748
0.96983901
0.95453325
0.93923004
0.92392925
0.90863072
0.89333434
0.87803997
0.86274751
0.84745685
0.83216788
0.81688051
0.80159465
0.78631021
0.77102711
0.75574528
0.74046465
0.72518514
0.70990669
0.69462924
0.67935274
0.66407713
0.64880236
0.63352839
0.61825516
0.60298263
0.58771077
0.57243953
0.55716888
0.54189879
0.52662922
0.51136014
0.49609153
0.48082335
0.46555559
0.45028821
0.43502119
0.41975452
0.40448817
0.38922213
0.37395637
0.35869088
0.34342564
0.32816064
0.31289586
0.29763129
0.28236692
0.26710273
0.25183872
0.23657487
0.22131117
0.20604762
0.1907842
0.17552091
0.16025774
0.14499467
0.12973172
0.11446886
0.09920609
0.083943408
0.068680805
0.053418279
0.038155821
0.022893439
0.0076310974
)
;

boundaryField
{
    top
    {
        type            zeroGradient;
    }
    inlet
    {
        type            fixedValue;
        value           uniform 1.5352;
    }
    outlet
    {
        type            fixedValue;
        value           uniform 0;
    }
    bottom
    {
        type            zeroGradient;
    }
    back
    {
        type            empty;
    }
    front
    {
        type            empty;
    }
}


// ************************************************************************* //
