/*--------------------------------*- C++ -*----------------------------------*\
| =========                 |                                                 |
| \\      /  F ield         | OpenFOAM: The Open Source CFD Toolbox           |
|  \\    /   O peration     | Version:  2112                                  |
|   \\  /    A nd           | Website:  www.openfoam.com                      |
|    \\/     M anipulation  |                                                 |
\*---------------------------------------------------------------------------*/
FoamFile
{
    version     2.0;
    format      ascii;
    arch        "LSB;label=32;scalar=64";
    class       surfaceScalarField;
    location    "20";
    object      phi;
}
// * * * * * * * * * * * * * * * * * * * * * * * * * * * * * * * * * * * * * //

dimensions      [0 3 -1 0 0 0 0];

oriented        oriented;

internalField   nonuniform List<scalar> 
1890
(
0.003425193
1.2427619e-06
0.0034208748
4.31907e-06
0.0034153631
5.5121364e-06
0.0034102126
5.1503865e-06
0.0034060091
4.2031545e-06
0.0034026678
3.341014e-06
0.0033999189
2.7486923e-06
0.0033975564
2.3621683e-06
0.0033954767
2.0794916e-06
0.0033936348
1.8416634e-06
0.003392002
1.6325998e-06
0.003390548
1.4538221e-06
0.0033892416
1.3062291e-06
0.0033880559
1.1855527e-06
0.0033869708
1.0850018e-06
0.0033859721
9.9858297e-07
0.0033850496
9.2242725e-07
0.0033841951
8.5442514e-07
0.0033834016
7.9335163e-07
0.0033826633
7.3826812e-07
0.0033819749
6.8832377e-07
0.0033813321
6.4277014e-07
0.003380731
6.0100125e-07
0.0033801684
5.6254844e-07
0.0033796413
5.2704536e-07
0.0033791471
4.9418948e-07
0.0033786833
4.6372108e-07
0.0033782479
4.3541123e-07
0.0033778388
4.0906055e-07
0.0033774543
3.8449344e-07
0.0033770927
3.6155759e-07
0.0033767525
3.4011701e-07
0.0033764325
3.2005258e-07
0.0033761312
3.0125596e-07
0.0033758475
2.8363189e-07
0.0033755804
2.6709254e-07
0.0033753288
2.5156078e-07
0.0033750919
2.3696456e-07
0.0033748686
2.2324069e-07
0.0033746583
2.103292e-07
0.0033744601
1.9817766e-07
0.0033742733
1.8673558e-07
0.0033740974
1.7595902e-07
0.0033739315
1.6580495e-07
0.0033737753
1.5623618e-07
0.0033736281
1.472157e-07
0.0033734894
1.3871182e-07
0.0033733587
1.3069235e-07
0.0033732355
1.2313005e-07
0.0033731195
1.1599678e-07
0.0033730103
1.09269e-07
0.0033729073
1.0292189e-07
0.0033728104
9.6935007e-08
0.0033727191
9.1286362e-08
0.0033726331
8.5958186e-08
0.0033725522
8.0930868e-08
0.003372476
7.6188886e-08
0.0033724043
7.1714744e-08
0.0033723368
6.7494906e-08
0.0033722733
6.3513651e-08
0.0033722135
5.9759137e-08
0.0033721573
5.6217257e-08
0.0033721044
5.2877692e-08
0.0033720547
4.9727681e-08
0.0033720079
4.6758208e-08
0.003371964
4.3957751e-08
0.0033719227
4.1318492e-08
0.0033718838
3.8829918e-08
0.0033718473
3.6485243e-08
0.0033718131
3.4274886e-08
0.0033717809
3.2193051e-08
0.0033717506
3.0230863e-08
0.0033717223
2.8383428e-08
0.0033716956
2.6642485e-08
0.0033716706
2.500409e-08
0.0033716472
2.3460315e-08
0.0033716252
2.2008224e-08
0.0033716045
2.0640002e-08
0.0033715852
1.9353978e-08
0.003371567
1.8141951e-08
0.00337155
1.7003904e-08
0.0033715341
1.5930632e-08
0.0033715192
1.4924575e-08
0.0033715052
1.3974362e-08
0.0033714921
1.3086137e-08
0.0033714799
1.2244703e-08
0.0033714684
1.1462015e-08
0.0033714577
1.0716341e-08
0.0033714477
1.0028552e-08
0.0033714383
9.3666682e-09
0.0033714295
8.7648128e-09
0.0033714213
8.1760801e-09
0.0033714137
7.652384e-09
0.0033714066
7.1286819e-09
0.0033713999
6.6748939e-09
0.0033713937
6.2161602e-09
0.0033713879
5.8232093e-09
0.0033713824
5.4679144e-09
0.0033713772
5.1664716e-09
5.3211503e-09
0.0086982134
1.330536e-06
0.0086965845
5.9492201e-06
0.0086935052
8.5919446e-06
0.0086897891
8.8665075e-06
0.0086860833
7.9085711e-06
0.0086825964
6.8276763e-06
0.0086793185
6.0263654e-06
0.008676214
5.466529e-06
0.0086732817
5.0115442e-06
0.0086705393
4.5838916e-06
0.0086679972
4.1745445e-06
0.0086656499
3.8009466e-06
0.0086634816
3.4743714e-06
0.0086614742
3.1929039e-06
0.0086596114
2.9477162e-06
0.0086578798
2.7300365e-06
0.0086562681
2.5340412e-06
0.008654766
2.3564448e-06
0.0086533642
2.1951301e-06
0.0086520541
2.0482571e-06
0.0086508283
1.9140446e-06
0.0086496802
1.7908741e-06
0.0086486038
1.6773901e-06
0.0086475938
1.5725033e-06
0.0086466454
1.4753256e-06
0.0086457545
1.3851081e-06
0.008644917
1.3011971e-06
0.0086441293
1.223019e-06
0.0086433883
1.1500676e-06
0.0086426909
1.0819001e-06
0.0086420343
1.0181242e-06
0.008641416
9.5839382e-07
0.0086408336
9.0239762e-07
0.008640285
8.498583e-07
0.0086397681
8.0052342e-07
0.008639281
7.5416704e-07
0.008638822
7.1058161e-07
0.0086383894
6.6958077e-07
0.0086379816
6.3099168e-07
0.0086375972
5.946586e-07
0.008637235
5.6043574e-07
0.0086368935
5.2819164e-07
0.0086365717
4.9780213e-07
0.0086362683
4.6915506e-07
0.0086359824
4.4214362e-07
0.0086357129
4.1667152e-07
0.008635459
3.9264621e-07
0.0086352197
3.6998428e-07
0.0086349942
3.4860491e-07
0.0086347818
3.2843555e-07
0.0086345816
3.0940528e-07
0.0086343931
2.9145058e-07
0.0086342155
2.7450882e-07
0.0086340483
2.5852428e-07
0.0086338908
2.4344154e-07
0.0086337425
2.2921145e-07
0.0086336029
2.157847e-07
0.0086334715
2.0311799e-07
0.0086333478
1.9116743e-07
0.0086332314
1.7989466e-07
0.0086331219
1.6926046e-07
0.0086330189
1.5923093e-07
0.008632922
1.4977106e-07
0.0086328309
1.4085072e-07
0.0086327452
1.3243854e-07
0.0086326647
1.2450784e-07
0.008632589
1.1703057e-07
0.0086325178
1.0998295e-07
0.008632451
1.0333981e-07
0.0086323881
9.7079991e-08
0.0086323292
9.1181104e-08
0.0086322738
8.5624037e-08
0.0086322218
8.0388934e-08
0.0086321729
7.5458437e-08
0.0086321271
7.0815332e-08
0.0086320842
6.6443299e-08
0.0086320438
6.2327898e-08
0.008632006
5.8453205e-08
0.0086319706
5.4808255e-08
0.0086319373
5.1376154e-08
0.0086319062
4.8150519e-08
0.008631877
4.5111667e-08
0.0086318497
4.2260137e-08
0.0086318241
3.9570029e-08
0.0086318001
3.7052705e-08
0.0086317777
3.4670638e-08
0.0086317567
3.2453119e-08
0.0086317371
3.0341429e-08
0.0086317187
2.8394765e-08
0.0086317016
2.6517397e-08
0.0086316855
2.4819218e-08
0.0086316705
2.3140335e-08
0.0086316565
2.167668e-08
0.0086316435
2.0157857e-08
0.0086316312
1.8928721e-08
0.0086316199
1.7528879e-08
0.0086316092
1.6571575e-08
0.0086315994
1.5268095e-08
0.0086315898
1.473324e-08
1.3458063e-08
0.012509184
9.714832e-07
0.012510176
4.9583917e-06
0.01251108
7.6883527e-06
0.012511546
8.4001552e-06
0.01251166
7.7938482e-06
0.012511555
6.93266e-06
0.012511274
6.3069628e-06
0.012510844
5.8962388e-06
0.012510295
5.5607118e-06
0.012509665
5.2142324e-06
0.012508986
4.852819e-06
0.012508283
4.5038942e-06
0.01250757
4.1871286e-06
0.012506858
3.9055342e-06
0.012506152
3.6526865e-06
0.012505461
3.4213713e-06
0.012504788
3.2072678e-06
0.012504136
3.0085157e-06
0.012503507
2.8241427e-06
0.012502902
2.6531161e-06
0.012502321
2.4941986e-06
0.012501766
2.3461521e-06
0.012501236
2.2079084e-06
0.012500729
2.0785994e-06
0.012500247
1.9575069e-06
0.012499788
1.8440035e-06
0.012499352
1.7375217e-06
0.012498937
1.637543e-06
0.012498544
1.5435982e-06
0.01249817
1.4552626e-06
0.012497816
1.3721533e-06
0.012497481
1.2939208e-06
0.012497163
1.2202464e-06
0.012496862
1.1508361e-06
0.012496577
1.0854205e-06
0.012496308
1.0237495e-06
0.012496052
9.6559353e-07
0.012495811
9.1073833e-07
0.012495583
8.589867e-07
0.012495368
8.101535e-07
0.012495164
7.6406814e-07
0.012494972
7.2056958e-07
0.01249479
6.7950933e-07
0.012494618
6.4074653e-07
0.012494456
6.041513e-07
0.012494304
5.6959985e-07
0.012494159
5.3697801e-07
0.012494023
5.0617652e-07
0.012493894
4.7709473e-07
0.012493773
4.4963586e-07
0.012493659
4.2371087e-07
0.012493551
3.9923375e-07
0.01249345
3.761256e-07
0.012493354
3.5430983e-07
0.012493264
3.3371636e-07
0.012493178
3.1427681e-07
0.012493098
2.9592889e-07
0.012493023
2.7861152e-07
0.012492952
2.6226925e-07
0.012492885
2.4684739e-07
0.012492822
2.3229659e-07
0.012492762
2.1856789e-07
0.012492707
2.0561732e-07
0.012492654
1.9340093e-07
0.012492605
1.8187964e-07
0.012492558
1.7101397e-07
0.012492514
1.6076914e-07
0.012492473
1.5110956e-07
0.012492434
1.4200446e-07
0.012492398
1.3342165e-07
0.012492364
1.2533399e-07
0.012492332
1.177121e-07
0.012492302
1.1053241e-07
0.012492273
1.0376773e-07
0.012492247
9.7398115e-08
0.012492222
9.1397668e-08
0.012492198
8.5750554e-08
0.012492177
8.0430989e-08
0.012492156
7.5428252e-08
0.012492137
7.0714612e-08
0.012492118
6.6286693e-08
0.012492101
6.2111442e-08
0.012492085
5.8196868e-08
0.012492071
5.4498575e-08
0.012492057
5.1043634e-08
0.012492043
4.7765704e-08
0.012492031
4.4724776e-08
0.01249202
4.1813443e-08
0.012492009
3.9149986e-08
0.012491999
3.6551691e-08
0.01249199
3.4240853e-08
0.012491981
3.1897989e-08
0.012491973
2.9931325e-08
0.012491965
2.7776092e-08
0.012491958
2.6172858e-08
0.012491951
2.4125385e-08
0.012491945
2.2953998e-08
0.012491939
2.0925016e-08
0.012491933
2.0302887e-08
1.8274714e-08
0.014975045
4.9827711e-07
0.014977287
2.7175286e-06
0.014980604
4.3718297e-06
0.014984078
4.9250333e-06
0.014987213
4.6588137e-06
0.01498996
4.1854827e-06
0.014992416
3.850551e-06
0.014994663
3.6489256e-06
0.014996732
3.4919057e-06
0.014998627
3.3189195e-06
0.015000354
3.1261426e-06
0.015001924
2.9330526e-06
0.015003357
2.7544348e-06
0.015004669
2.5936385e-06
0.015005874
2.4472457e-06
0.015006984
2.3110501e-06
0.015008009
2.1827434e-06
0.015008956
2.0616433e-06
0.015009832
1.947603e-06
0.015010645
1.8403468e-06
0.0150114
1.7393882e-06
0.015012101
1.6441835e-06
0.015012755
1.5542626e-06
0.015013364
1.4692568e-06
0.015013933
1.3888674e-06
0.015014464
1.3128317e-06
0.015014961
1.2409017e-06
0.015015425
1.1728453e-06
0.015015861
1.1084427e-06
0.015016268
1.047494e-06
0.015016651
9.8980984e-07
0.015017009
9.3521727e-07
0.015017346
8.8354953e-07
0.015017662
8.3465373e-07
0.015017959
7.8838076e-07
0.015018238
7.4459472e-07
0.015018501
7.031619e-07
0.015018747
6.6396121e-07
0.01501898
6.268724e-07
0.015019198
5.917874e-07
0.015019403
5.5859783e-07
0.015019597
5.2720702e-07
0.015019779
4.9751714e-07
0.01501995
4.694418e-07
0.015020111
4.4289262e-07
0.015020263
4.1779232e-07
0.015020406
3.9406096e-07
0.015020541
3.7162953e-07
0.015020667
3.5042571e-07
0.015020786
3.303878e-07
0.015020899
3.114503e-07
0.015021004
2.9355821e-07
0.015021104
2.7665223e-07
0.015021197
2.6068326e-07
0.015021286
2.4559755e-07
0.015021369
2.3135144e-07
0.015021447
2.1789625e-07
0.01502152
2.0519308e-07
0.015021589
1.9319778e-07
0.015021654
1.8187589e-07
0.015021715
1.7118738e-07
0.015021773
1.6110164e-07
0.015021827
1.5158234e-07
0.015021877
1.4260243e-07
0.015021925
1.3412898e-07
0.01502197
1.26138e-07
0.015022012
1.185996e-07
0.015022052
1.1149259e-07
0.015022089
1.0478994e-07
0.015022124
9.8472795e-08
0.015022157
9.2516751e-08
0.015022188
8.6904969e-08
0.015022217
8.1615702e-08
0.015022244
7.663352e-08
0.015022269
7.1939403e-08
0.015022293
6.7518762e-08
0.015022315
6.3355814e-08
0.015022336
5.9435621e-08
0.015022356
5.5746603e-08
0.015022374
5.2271808e-08
0.015022392
4.9005943e-08
0.015022408
4.5926806e-08
0.015022423
4.3039205e-08
0.015022437
4.0310246e-08
0.015022451
3.7762097e-08
0.015022463
3.534103e-08
0.015022475
3.3099736e-08
0.015022486
3.0945743e-08
0.015022496
2.8986225e-08
0.015022505
2.7057712e-08
0.015022514
2.5364334e-08
0.015022522
2.3615299e-08
0.01502253
2.2185515e-08
0.015022537
2.0562063e-08
0.015022544
1.9414539e-08
0.01502255
1.7853932e-08
0.015022556
1.7035989e-08
0.015022562
1.5457328e-08
0.015022567
1.5030831e-08
1.3517428e-08
0.016184308
3.3636496e-11
0.016187026
1.0565784e-10
0.016191398
5.1326883e-11
0.016196323
-9.8763622e-12
0.016200981
-2.8360616e-11
0.016205166
1.1068356e-11
0.016209016
6.750333e-11
0.016212665
1.0624891e-10
0.016216157
1.1796622e-10
0.016219475
1.1950625e-10
0.016222601
1.2071837e-10
0.016225534
1.2572737e-10
0.016228288
1.2857854e-10
0.016230882
1.2887271e-10
0.016233329
1.2443302e-10
0.01623564
1.1778184e-10
0.016237822
1.0881554e-10
0.016239884
9.9065509e-11
0.016241831
8.8277509e-11
0.016243671
7.7017762e-11
0.01624541
6.5455996e-11
0.016247055
5.3802103e-11
0.016248609
4.2652237e-11
0.016250078
3.1754897e-11
0.016251467
2.1866773e-11
0.01625278
1.2361872e-11
0.01625402
4.3367064e-12
0.016255193
-3.4432705e-12
0.016256302
-1.0107117e-11
0.016257349
-1.6247027e-11
0.016258339
-2.0846297e-11
0.016259274
-2.5410998e-11
0.016260158
-2.8461358e-11
0.016260992
-3.1794991e-11
0.016261781
-3.370401e-11
0.016262525
-3.6072e-11
0.016263229
-3.7059702e-11
0.016263893
-3.8785815e-11
0.016264519
-3.9199092e-11
0.016265111
-4.0408608e-11
0.01626567
-4.0276656e-11
0.016266197
-4.1121427e-11
0.016266695
-4.0642621e-11
0.016267164
-4.1118045e-11
0.016267607
-4.0212791e-11
0.016268025
-4.0413619e-11
0.016268419
-3.9265397e-11
0.016268791
-3.9192129e-11
0.016269141
-3.7744513e-11
0.016269472
-3.7533478e-11
0.016269783
-3.6019918e-11
0.016270077
-3.5713932e-11
0.016270353
-3.4096828e-11
0.016270614
-3.3841772e-11
0.01627086
-3.2345784e-11
0.016271091
-3.2154895e-11
0.016271309
-3.0686218e-11
0.016271514
-3.0638628e-11
0.016271707
-2.9349388e-11
0.016271889
-2.9379131e-11
0.016272061
-2.8095126e-11
0.016272222
-2.8208681e-11
0.016272373
-2.7022886e-11
0.016272516
-2.7109353e-11
0.01627265
-2.5818605e-11
0.016272776
-2.5873212e-11
0.016272895
-2.4576545e-11
0.016273006
-2.4511471e-11
0.016273111
-2.3042389e-11
0.01627321
-2.2898141e-11
0.016273302
-2.1407074e-11
0.016273389
-2.1152618e-11
0.016273471
-1.9527738e-11
0.016273547
-1.925414e-11
0.016273619
-1.7687103e-11
0.016273687
-1.7400125e-11
0.01627375
-1.5803615e-11
0.01627381
-1.5608572e-11
0.016273865
-1.4176529e-11
0.016273918
-1.4078272e-11
0.016273967
-1.2711501e-11
0.016274013
-1.2800435e-11
0.016274056
-1.1672945e-11
0.016274096
-1.1938057e-11
0.016274134
-1.0931195e-11
0.016274169
-1.1446479e-11
0.016274202
-1.0723849e-11
0.016274233
-1.1472202e-11
0.016274262
-1.0926045e-11
0.016274289
-1.1993019e-11
0.016274315
-1.1945899e-11
0.016274338
-1.364178e-11
0.016274361
-1.428062e-11
0.016274381
-1.6413553e-11
0.016274401
-1.7327934e-11
0.016274418
-1.8313331e-11
0.016274436
-1.992484e-11
0.016274451
-2.0573823e-11
0.016274466
-2.6446764e-11
-3.2794204e-11
0.016184307
-4.9832534e-07
0.016187025
-2.7178129e-06
0.016191398
-4.3721363e-06
0.016196322
-4.9252297e-06
0.016200981
-4.6588807e-06
0.016205166
-4.1854709e-06
0.016209016
-3.8504851e-06
0.016212665
-3.6488145e-06
0.016216157
-3.4917632e-06
0.016219475
-3.3187503e-06
0.016222601
-3.1259526e-06
0.016225534
-2.9328451e-06
0.016228288
-2.754218e-06
0.016230882
-2.5934185e-06
0.016233329
-2.4470302e-06
0.01623564
-2.3108435e-06
0.016237822
-2.1825504e-06
0.016239884
-2.0614665e-06
0.016241831
-1.9474448e-06
0.016243671
-1.8402085e-06
0.016245411
-1.7392705e-06
0.016247055
-1.6440867e-06
0.016248609
-1.554186e-06
0.016250078
-1.4691999e-06
0.016251467
-1.3888287e-06
0.01625278
-1.3128101e-06
0.01625402
-1.2408952e-06
0.016255193
-1.1728528e-06
0.016256302
-1.1084624e-06
0.016257349
-1.0475246e-06
0.016258339
-9.8984917e-07
0.016259274
-9.352645e-07
0.016260158
-8.8360268e-07
0.016260992
-8.3471249e-07
0.016261781
-7.884433e-07
0.016262525
-7.4466102e-07
0.016263229
-7.0323041e-07
0.016263893
-6.6403228e-07
0.016264519
-6.2694457e-07
0.016265111
-5.9186115e-07
0.01626567
-5.586718e-07
0.016266197
-5.2728191e-07
0.016266695
-4.9759155e-07
0.016267164
-4.6951642e-07
0.016267607
-4.4296612e-07
0.016268025
-4.1786554e-07
0.016268419
-3.9413254e-07
0.016268791
-3.7170031e-07
0.016269141
-3.5049443e-07
0.016269471
-3.3045549e-07
0.016269783
-3.1151572e-07
0.016270077
-2.9362242e-07
0.016270353
-2.7671411e-07
0.016270614
-2.6074404e-07
0.01627086
-2.4565613e-07
0.016271091
-2.3140903e-07
0.016271309
-2.1795181e-07
0.016271514
-2.0524794e-07
0.016271707
-1.9325085e-07
0.016271889
-1.8192838e-07
0.01627206
-1.7123821e-07
0.016272222
-1.6115208e-07
0.016272373
-1.5163119e-07
0.016272516
-1.4265081e-07
0.01627265
-1.341757e-07
0.016272776
-1.2618421e-07
0.016272895
-1.1864401e-07
0.016273006
-1.1153626e-07
0.016273111
-1.0483161e-07
0.016273209
-9.8513594e-08
0.016273302
-9.2555389e-08
0.016273389
-8.6942515e-08
0.016273471
-8.1650948e-08
0.016273547
-7.6667669e-08
0.016273619
-7.1971246e-08
0.016273687
-6.7549464e-08
0.01627375
-6.3384268e-08
0.01627381
-5.9463135e-08
0.016273865
-5.5772069e-08
0.016273918
-5.2296489e-08
0.016273967
-4.9028817e-08
0.016274013
-4.5949266e-08
0.016274056
-4.3060206e-08
0.016274096
-4.0331122e-08
0.016274134
-3.778187e-08
0.016274169
-3.5361149e-08
0.016274202
-3.3119195e-08
0.016274233
-3.096593e-08
0.016274262
-2.9006222e-08
0.016274289
-2.7079049e-08
0.016274314
-2.5386281e-08
0.016274338
-2.363952e-08
0.01627436
-2.2211613e-08
0.016274381
-2.0591363e-08
0.0162744
-1.9445734e-08
0.016274418
-1.7887037e-08
0.016274435
-1.7071371e-08
0.016274451
-1.5492977e-08
0.016274466
-1.5075998e-08
-1.3571128e-08
0.014975045
-9.7147896e-07
0.014977287
-4.958331e-06
0.014980604
-7.6883174e-06
0.014984078
-8.4001924e-06
0.014987213
-7.7939053e-06
0.01498996
-6.932712e-06
0.014992416
-6.3069779e-06
0.014994663
-5.8962188e-06
0.014996732
-5.5606517e-06
0.014998627
-5.2141437e-06
0.015000354
-4.8527019e-06
0.015001924
-4.5037597e-06
0.015003357
-4.1869786e-06
0.015004669
-3.9053781e-06
0.015005874
-3.6525273e-06
0.015006985
-3.4212164e-06
0.015008009
-3.2071198e-06
0.015008956
-3.0083792e-06
0.015009832
-2.8240193e-06
0.015010645
-2.6530077e-06
0.0150114
-2.4941061e-06
0.015012102
-2.3460755e-06
0.015012755
-2.207848e-06
0.015013365
-2.0785538e-06
0.015013933
-1.9574764e-06
0.015014464
-1.8439856e-06
0.015014961
-1.7375167e-06
0.015015426
-1.6375478e-06
0.015015861
-1.5436136e-06
0.015016269
-1.4552852e-06
0.015016651
-1.3721841e-06
0.015017009
-1.293956e-06
0.015017346
-1.2202878e-06
0.015017662
-1.1508799e-06
0.015017959
-1.0854688e-06
0.015018238
-1.0237986e-06
0.015018501
-9.6564605e-07
0.015018748
-9.1079062e-07
0.01501898
-8.5904156e-07
0.015019198
-8.102073e-07
0.015019403
-7.6412403e-07
0.015019597
-7.2062383e-07
0.015019779
-6.7956516e-07
0.01501995
-6.4080017e-07
0.015020111
-6.0420622e-07
0.015020263
-5.6965215e-07
0.015020406
-5.3703119e-07
0.01502054
-5.062267e-07
0.015020667
-4.7714564e-07
0.015020786
-4.4968356e-07
0.015020899
-4.237591e-07
0.015021004
-3.9927864e-07
0.015021104
-3.7617114e-07
0.015021197
-3.543521e-07
0.015021285
-3.337593e-07
0.015021368
-3.1431658e-07
0.015021446
-2.9596963e-07
0.01502152
-2.786493e-07
0.015021589
-2.6230809e-07
0.015021654
-2.4688338e-07
0.015021715
-2.3233387e-07
0.015021772
-2.1860245e-07
0.015021826
-2.0565313e-07
0.015021877
-1.9343398e-07
0.015021925
-1.81914e-07
0.01502197
-1.710455e-07
0.015022012
-1.6080177e-07
0.015022051
-1.5113921e-07
0.015022089
-1.4203515e-07
0.015022123
-1.3344923e-07
0.015022156
-1.2536238e-07
0.015022187
-1.1773723e-07
0.015022216
-1.1055834e-07
0.015022243
-1.0379039e-07
0.015022269
-9.7421462e-08
0.015022292
-9.1417729e-08
0.015022315
-8.5771465e-08
0.015022336
-8.0448759e-08
0.015022355
-7.544693e-08
0.015022374
-7.0730301e-08
0.015022391
-6.6303597e-08
0.015022407
-6.2125632e-08
0.015022423
-5.8212454e-08
0.015022437
-5.4511693e-08
0.01502245
-5.1058557e-08
0.015022462
-4.7778491e-08
0.015022474
-4.4739651e-08
0.015022485
-4.1826455e-08
0.015022495
-3.9165614e-08
0.015022505
-3.6565897e-08
0.015022513
-3.4258173e-08
0.015022522
-3.1914167e-08
0.015022529
-2.9951433e-08
0.015022537
-2.7795494e-08
0.015022543
-2.6196372e-08
0.01502255
-2.4148516e-08
0.015022556
-2.2978637e-08
0.015022561
-2.0948254e-08
0.015022566
-2.0326467e-08
-1.8299316e-08
0.012509184
-1.3305153e-06
0.012510176
-5.9490795e-06
0.01251108
-8.5917531e-06
0.012511546
-8.8663967e-06
0.01251166
-7.908607e-06
0.012511555
-6.8278223e-06
0.012511274
-6.0265431e-06
0.012510845
-5.4666741e-06
0.012510295
-5.0116317e-06
0.012509665
-4.5839266e-06
0.012508987
-4.1745396e-06
0.012508284
-3.8009145e-06
0.012507571
-3.4743182e-06
0.012506858
-3.1928352e-06
0.012506153
-2.9476366e-06
0.012505462
-2.729952e-06
0.012504788
-2.5339566e-06
0.012504136
-2.3563641e-06
0.012503507
-2.1950561e-06
0.012502902
-2.0481913e-06
0.012502322
-1.9139882e-06
0.012501767
-1.7908272e-06
0.012501236
-1.6773531e-06
0.01250073
-1.5724756e-06
0.012500248
-1.4753072e-06
0.012499789
-1.3850976e-06
0.012499352
-1.3011943e-06
0.012498938
-1.2230225e-06
0.012498544
-1.1500773e-06
0.012498171
-1.0819142e-06
0.012497817
-1.0181427e-06
0.012497481
-9.5841523e-07
0.012497163
-9.0242214e-07
0.012496862
-8.4988429e-07
0.012496577
-8.0055136e-07
0.012496308
-7.541956e-07
0.012496053
-7.106115e-07
0.012495811
-6.6961056e-07
0.012495583
-6.3102223e-07
0.012495368
-5.9468873e-07
0.012495164
-5.6046645e-07
0.012494972
-5.2822155e-07
0.01249479
-4.9783228e-07
0.012494618
-4.6918428e-07
0.012494456
-4.4217302e-07
0.012494303
-4.166997e-07
0.012494159
-3.9267429e-07
0.012494023
-3.7001108e-07
0.012493894
-3.4863161e-07
0.012493773
-3.2846076e-07
0.012493659
-3.0943023e-07
0.012493551
-2.9147411e-07
0.012493449
-2.7453223e-07
0.012493353
-2.5854623e-07
0.012493263
-2.4346333e-07
0.012493178
-2.2923198e-07
0.012493098
-2.1580534e-07
0.012493022
-2.031374e-07
0.012492951
-1.9118694e-07
0.012492884
-1.7991315e-07
0.012492821
-1.6927927e-07
0.012492762
-1.5924869e-07
0.012492706
-1.4978905e-07
0.012492653
-1.4086776e-07
0.012492604
-1.324559e-07
0.012492557
-1.245241e-07
0.012492514
-1.1704697e-07
0.012492473
-1.0999825e-07
0.012492434
-1.0335526e-07
0.012492398
-9.7094146e-08
0.012492363
-9.1195197e-08
0.012492331
-8.5636855e-08
0.012492301
-8.040175e-08
0.012492273
-7.5469846e-08
0.012492246
-7.082661e-08
0.012492221
-6.6453287e-08
0.012492198
-6.2337925e-08
0.012492176
-5.8461924e-08
0.012492155
-5.4816997e-08
0.012492136
-5.138381e-08
0.012492118
-4.8158466e-08
0.012492101
-4.5118593e-08
0.012492085
-4.2267418e-08
0.01249207
-3.9576562e-08
0.012492056
-3.7059917e-08
0.012492043
-3.46772e-08
0.01249203
-3.2460481e-08
0.012492019
-3.0348438e-08
0.012492008
-2.8402961e-08
0.012491998
-2.6525357e-08
0.012491989
-2.4828465e-08
0.01249198
-2.3149347e-08
0.012491972
-2.1686926e-08
0.012491964
-2.0167605e-08
0.012491957
-1.8940164e-08
0.01249195
-1.7541614e-08
0.012491944
-1.6582719e-08
0.012491938
-1.5278599e-08
0.012491933
-1.4733585e-08
-1.3452568e-08
0.0086982141
-1.242695e-06
0.0086965851
-4.3189549e-06
0.0086935059
-5.5120309e-06
0.0086897898
-5.1503411e-06
0.0086860841
-4.203237e-06
0.0086825971
-3.3412092e-06
0.0086793191
-2.7489392e-06
0.0086762145
-2.3623897e-06
0.0086732822
-2.0796592e-06
0.0086705397
-1.8417747e-06
0.0086679976
-1.6326742e-06
0.0086656503
-1.4538705e-06
0.008663482
-1.3062612e-06
0.0086614745
-1.1855698e-06
0.0086596117
-1.0850085e-06
0.0086578802
-9.9858165e-07
0.0086562685
-9.2242226e-07
0.0086547664
-8.5441871e-07
0.0086533646
-7.9334578e-07
0.0086520545
-7.3826387e-07
0.0086508288
-6.8832135e-07
0.0086496806
-6.4277038e-07
0.0086486042
-6.010035e-07
0.0086475942
-5.6255358e-07
0.0086466459
-5.2705208e-07
0.0086457549
-4.9419885e-07
0.0086449174
-4.6373138e-07
0.0086441297
-4.3542376e-07
0.0086433887
-4.0907327e-07
0.0086426912
-3.8450792e-07
0.0086420346
-3.6157164e-07
0.0086414163
-3.4013243e-07
0.0086408339
-3.2006695e-07
0.0086402853
-3.0127139e-07
0.0086397683
-2.8364593e-07
0.0086392812
-2.6710752e-07
0.0086388221
-2.5157409e-07
0.0086383895
-2.3697874e-07
0.0086379817
-2.2325315e-07
0.0086375973
-2.1034259e-07
0.008637235
-1.9818922e-07
0.0086368935
-1.867481e-07
0.0086365717
-1.7596973e-07
0.0086362683
-1.6581668e-07
0.0086359823
-1.5624602e-07
0.0086357129
-1.4722655e-07
0.0086354589
-1.3872078e-07
0.0086352196
-1.3070236e-07
0.0086349941
-1.2313807e-07
0.0086347816
-1.1600584e-07
0.0086345814
-1.0927612e-07
0.0086343929
-1.0293012e-07
0.0086342153
-9.6941257e-08
0.008634048
-9.129377e-08
0.0086338905
-8.5963727e-08
0.0086337422
-8.093769e-08
0.0086336026
-7.6193861e-08
0.0086334712
-7.1721065e-08
0.0086333475
-6.7499506e-08
0.0086332311
-6.3519702e-08
0.0086331216
-5.9763464e-08
0.0086330186
-5.6223049e-08
0.0086329217
-5.2881829e-08
0.0086328305
-4.9733317e-08
0.0086327448
-4.6762118e-08
0.0086326643
-4.3963104e-08
0.0086325885
-4.132213e-08
0.0086325174
-3.8834979e-08
0.0086324505
-3.6488484e-08
0.0086323877
-3.4279472e-08
0.0086323287
-3.2195825e-08
0.0086322733
-3.0234976e-08
0.0086322213
-2.8385653e-08
0.0086321725
-2.664601e-08
0.0086321266
-2.5005787e-08
0.0086320837
-2.3463363e-08
0.0086320433
-2.2009429e-08
0.0086320055
-2.0642579e-08
0.00863197
-1.9354831e-08
0.0086319368
-1.8144276e-08
0.0086319057
-1.7004535e-08
0.0086318765
-1.5932786e-08
0.0086318491
-1.4925179e-08
0.0086318235
-1.39766e-08
0.0086317996
-1.3086863e-08
0.0086317771
-1.2247114e-08
0.0086317561
-1.1463058e-08
0.0086317365
-1.0719174e-08
0.0086317181
-1.0030076e-08
0.008631701
-9.369992e-09
0.0086316849
-8.7667607e-09
0.0086316699
-8.1795088e-09
0.0086316559
-7.6537082e-09
0.0086316429
-7.1313485e-09
0.0086316306
-6.6763534e-09
0.0086316193
-6.2185268e-09
0.0086316086
-5.8245661e-09
0.0086315988
-5.4705708e-09
0.0086315892
-5.1593678e-09
-5.3068362e-09
0.003425194
0.0034208754
0.0034153635
0.003410213
0.0034060096
0.0034026682
0.003399919
0.0033975565
0.0033954767
0.0033936347
0.0033920019
0.0033905479
0.0033892415
0.0033880558
0.0033869707
0.0033859721
0.0033850496
0.0033841951
0.0033834017
0.0033826634
0.003381975
0.0033813322
0.0033807311
0.0033801685
0.0033796415
0.0033791472
0.0033786835
0.003378248
0.0033778389
0.0033774544
0.0033770928
0.0033767526
0.0033764326
0.0033761313
0.0033758476
0.0033755805
0.0033753289
0.0033750919
0.0033748686
0.0033746583
0.0033744601
0.0033742733
0.0033740974
0.0033739315
0.0033737753
0.003373628
0.0033734893
0.0033733586
0.0033732355
0.0033731195
0.0033730102
0.0033729072
0.0033728103
0.003372719
0.003372633
0.0033725521
0.0033724759
0.0033724042
0.0033723367
0.0033722732
0.0033722134
0.0033721572
0.0033721043
0.0033720546
0.0033720078
0.0033719638
0.0033719225
0.0033718837
0.0033718472
0.0033718129
0.0033717807
0.0033717505
0.0033717221
0.0033716954
0.0033716704
0.003371647
0.003371625
0.0033716043
0.003371585
0.0033715668
0.0033715498
0.0033715339
0.003371519
0.003371505
0.0033714919
0.0033714797
0.0033714682
0.0033714575
0.0033714474
0.0033714381
0.0033714293
0.0033714211
0.0033714135
0.0033714063
0.0033713997
0.0033713935
0.0033713876
0.0033713822
0.003371377
)
;

boundaryField
{
    top
    {
        type            calculated;
        value           uniform 0;
    }
    inlet
    {
        type            calculated;
        value           nonuniform List<scalar> 10(-0.0034264348 -0.0086983004 -0.012508824 -0.014974571 -0.016183808 -0.016183807 -0.014974571 -0.012508824 -0.008698301 -0.0034264361);
    }
    outlet
    {
        type            calculated;
        value           nonuniform List<scalar> 10(0.0033713719 0.0086315817 0.012491929 0.015022572 0.01627448 0.016274479 0.015022571 0.012491928 0.008631581 0.0033713717);
    }
    bottom
    {
        type            calculated;
        value           uniform 0;
    }
    back
    {
        type            empty;
        value           nonuniform List<scalar> 0();
    }
    front
    {
        type            empty;
        value           nonuniform List<scalar> 0();
    }
}


// ************************************************************************* //
