/*--------------------------------*- C++ -*----------------------------------*\
| =========                 |                                                 |
| \\      /  F ield         | OpenFOAM: The Open Source CFD Toolbox           |
|  \\    /   O peration     | Version:  2112                                  |
|   \\  /    A nd           | Website:  www.openfoam.com                      |
|    \\/     M anipulation  |                                                 |
\*---------------------------------------------------------------------------*/
FoamFile
{
    version     2.0;
    format      ascii;
    arch        "LSB;label=32;scalar=64";
    class       volVectorField;
    location    "20";
    object      U;
}
// * * * * * * * * * * * * * * * * * * * * * * * * * * * * * * * * * * * * * //

dimensions      [0 1 -1 0 0 0 0];

internalField   nonuniform List<vector> 
1000
(
(0.34261362 0.00010949379 0)
(0.34238048 0.00033790606 0)
(0.34184354 0.00038952149 0)
(0.3412766 0.00031260366 0)
(0.34079942 0.0002117657 0)
(0.34042363 0.00014168028 0)
(0.34012236 0.00010533518 0)
(0.33986893 8.7194435e-05 0)
(0.33964777 7.5067547e-05 0)
(0.3394521 6.4528615e-05 0)
(0.3392787 5.5430713e-05 0)
(0.33912474 4.8340151e-05 0)
(0.33898712 4.3183371e-05 0)
(0.33886287 3.9386776e-05 0)
(0.33874961 3.6354588e-05 0)
(0.33864563 3.3719536e-05 0)
(0.33854973 3.1333779e-05 0)
(0.33846101 2.916032e-05 0)
(0.33837873 2.7186367e-05 0)
(0.33830224 2.5391178e-05 0)
(0.33823099 2.3747838e-05 0)
(0.33816451 2.2232579e-05 0)
(0.33810238 2.0828857e-05 0)
(0.33804426 1.952587e-05 0)
(0.33798983 1.8315574e-05 0)
(0.33793881 1.7190613e-05 0)
(0.33789095 1.614389e-05 0)
(0.33784603 1.5168632e-05 0)
(0.33780384 1.4258786e-05 0)
(0.33776419 1.3408913e-05 0)
(0.33772692 1.2614269e-05 0)
(0.33769186 1.1870497e-05 0)
(0.33765887 1.1173751e-05 0)
(0.33762783 1.0520439e-05 0)
(0.3375986 9.9074175e-06 0)
(0.33757108 9.3317196e-06 0)
(0.33754517 8.7907764e-06 0)
(0.33752076 8.2821298e-06 0)
(0.33749776 7.8036651e-06 0)
(0.3374761 7.3533143e-06 0)
(0.33745569 6.9293179e-06 0)
(0.33743645 6.529923e-06 0)
(0.33741833 6.1536554e-06 0)
(0.33740125 5.7990082e-06 0)
(0.33738516 5.464734e-06 0)
(0.33737 5.1495302e-06 0)
(0.33735571 4.8523351e-06 0)
(0.33734225 4.5720063e-06 0)
(0.33732957 4.3076325e-06 0)
(0.33731762 4.0582092e-06 0)
(0.33730636 3.8229525e-06 0)
(0.33729576 3.6009675e-06 0)
(0.33728577 3.3915755e-06 0)
(0.33727637 3.1939811e-06 0)
(0.33726751 3.0075974e-06 0)
(0.33725917 2.8317084e-06 0)
(0.33725132 2.6658047e-06 0)
(0.33724393 2.5092457e-06 0)
(0.33723697 2.3615916e-06 0)
(0.33723043 2.2222611e-06 0)
(0.33722427 2.0908732e-06 0)
(0.33721847 1.966905e-06 0)
(0.33721302 1.8500292e-06 0)
(0.3372079 1.7397677e-06 0)
(0.33720308 1.6358381e-06 0)
(0.33719854 1.5378074e-06 0)
(0.33719428 1.4454355e-06 0)
(0.33719028 1.3583221e-06 0)
(0.33718651 1.2762626e-06 0)
(0.33718298 1.1988906e-06 0)
(0.33717966 1.1260365e-06 0)
(0.33717654 1.0573559e-06 0)
(0.33717361 9.9271029e-07 0)
(0.33717086 9.3177785e-07 0)
(0.33716828 8.7445446e-07 0)
(0.33716586 8.2042643e-07 0)
(0.33716359 7.6962583e-07 0)
(0.33716146 7.2174303e-07 0)
(0.33715946 6.7675734e-07 0)
(0.33715759 6.3434029e-07 0)
(0.33715583 5.9453279e-07 0)
(0.33715419 5.5696864e-07 0)
(0.33715264 5.2178091e-07 0)
(0.3371512 4.8851928e-07 0)
(0.33714985 4.5745299e-07 0)
(0.33714858 4.2799377e-07 0)
(0.3371474 4.006192e-07 0)
(0.33714629 3.7451122e-07 0)
(0.33714525 3.5044905e-07 0)
(0.33714429 3.2728903e-07 0)
(0.33714338 3.0621226e-07 0)
(0.33714253 2.8567989e-07 0)
(0.33714174 2.6727052e-07 0)
(0.337141 2.4923533e-07 0)
(0.33714032 2.3308348e-07 0)
(0.33713966 2.1802057e-07 0)
(0.33713908 2.0369739e-07 0)
(0.33713848 1.9473966e-07 0)
(0.33713803 1.8494754e-07 0)
(0.33713732 2.0649283e-07 0)
(0.86974132 0.00011709614 0)
(0.86995527 0.00054301734 0)
(0.86964743 0.0007979252 0)
(0.86919256 0.00081762987 0)
(0.86877591 0.00071051973 0)
(0.86841878 0.00058650352 0)
(0.86809263 0.00049278801 0)
(0.86777883 0.00042916867 0)
(0.86747599 0.00038141871 0)
(0.86718957 0.00033993538 0)
(0.86692367 0.00030232946 0)
(0.86667883 0.00026943225 0)
(0.86645335 0.0002418826 0)
(0.86624495 0.0002191846 0)
(0.8660517 0.00020022326 0)
(0.86587215 0.00018394499 0)
(0.86570513 0.00016964735 0)
(0.86554959 0.00015693315 0)
(0.86540455 0.00014556114 0)
(0.86526911 0.00013534223 0)
(0.86514246 0.00012610599 0)
(0.86502389 0.00011770386 0)
(0.86491277 0.00011001608 0)
(0.86480855 0.00010295029 0)
(0.86471072 9.6434519e-05 0)
(0.86461884 9.0410039e-05 0)
(0.86453249 8.4826858e-05 0)
(0.86445131 7.9641612e-05 0)
(0.86437494 7.4816658e-05 0)
(0.86430307 7.0319306e-05 0)
(0.86423543 6.6121108e-05 0)
(0.86417173 6.2197046e-05 0)
(0.86411175 5.8524994e-05 0)
(0.86405524 5.5085184e-05 0)
(0.86400201 5.1859955e-05 0)
(0.86395184 4.8833379e-05 0)
(0.86390457 4.5991144e-05 0)
(0.86386002 4.3320244e-05 0)
(0.86381804 4.0808923e-05 0)
(0.86377846 3.8446402e-05 0)
(0.86374116 3.6222889e-05 0)
(0.863706 3.4129344e-05 0)
(0.86367285 3.2157525e-05 0)
(0.86364162 3.0299762e-05 0)
(0.86361217 2.8549041e-05 0)
(0.86358443 2.6898799e-05 0)
(0.86355828 2.5343018e-05 0)
(0.86353363 2.3876026e-05 0)
(0.86351041 2.2492616e-05 0)
(0.86348853 2.1187857e-05 0)
(0.86346792 1.9957219e-05 0)
(0.8634485 1.8796383e-05 0)
(0.8634302 1.7701379e-05 0)
(0.86341298 1.6668411e-05 0)
(0.86339675 1.5693996e-05 0)
(0.86338147 1.4774776e-05 0)
(0.86336709 1.3907676e-05 0)
(0.86335355 1.3089725e-05 0)
(0.86334081 1.2318209e-05 0)
(0.86332881 1.1590485e-05 0)
(0.86331753 1.0904149e-05 0)
(0.86330691 1.0256849e-05 0)
(0.86329692 9.6464591e-06 0)
(0.86328753 9.0708792e-06 0)
(0.86327869 8.5282185e-06 0)
(0.86327039 8.0166027e-06 0)
(0.86326258 7.5343602e-06 0)
(0.86325524 7.0798056e-06 0)
(0.86324835 6.6514552e-06 0)
(0.86324187 6.2477929e-06 0)
(0.86323579 5.867516e-06 0)
(0.86323007 5.5092437e-06 0)
(0.86322471 5.171835e-06 0)
(0.86321967 4.8540227e-06 0)
(0.86321494 4.5548367e-06 0)
(0.86321051 4.2730803e-06 0)
(0.86320634 4.0079581e-06 0)
(0.86320244 3.7583031e-06 0)
(0.86319878 3.5235383e-06 0)
(0.86319535 3.3024469e-06 0)
(0.86319213 3.0947297e-06 0)
(0.86318912 2.899014e-06 0)
(0.8631863 2.7154126e-06 0)
(0.86318365 2.5422072e-06 0)
(0.86318118 2.3801274e-06 0)
(0.86317886 2.2268241e-06 0)
(0.86317669 2.0840071e-06 0)
(0.86317466 1.9482262e-06 0)
(0.86317276 1.8227278e-06 0)
(0.86317099 1.7022556e-06 0)
(0.86316933 1.5924675e-06 0)
(0.86316778 1.4852485e-06 0)
(0.86316633 1.3899178e-06 0)
(0.86316497 1.2940653e-06 0)
(0.86316373 1.2124162e-06 0)
(0.86316251 1.1265879e-06 0)
(0.8631615 1.0591455e-06 0)
(0.86316031 9.849129e-07 0)
(0.86315965 9.3769698e-07 0)
(0.86315824 8.9521426e-07 0)
(1.2507033 9.3312723e-05 0)
(1.2513077 0.00049928999 0)
(1.2513285 0.00081107642 0)
(1.2511928 0.00091740591 0)
(1.2511203 0.00087714796 0)
(1.2511199 0.00078871011 0)
(1.2511317 0.00071041768 0)
(1.2511165 0.00065373574 0)
(1.2510705 0.00060892235 0)
(1.2510062 0.00056651078 0)
(1.2509355 0.00052390315 0)
(1.2508641 0.00048277351 0)
(1.250793 0.00044515089 0)
(1.2507221 0.00041170918 0)
(1.2506512 0.00038200389 0)
(1.2505812 0.00035526963 0)
(1.2505126 0.0003309155 0)
(1.2504461 0.00030860434 0)
(1.2503819 0.0002881392 0)
(1.2503202 0.00026935606 0)
(1.2502609 0.00025208545 0)
(1.2502041 0.00023616028 0)
(1.2501498 0.00022143172 0)
(1.2500979 0.00020777534 0)
(1.2500485 0.0001950879 0)
(1.2500014 0.0001832813 0)
(1.2499567 0.00017227805 0)
(1.2499141 0.00016200909 0)
(1.2498737 0.00015241284 0)
(1.2498354 0.00014343459 0)
(1.249799 0.00013502562 0)
(1.2497646 0.00012714248 0)
(1.2497319 0.00011974604 0)
(1.249701 0.00011280105 0)
(1.2496717 0.0001062755 0)
(1.249644 0.00010014037 0)
(1.2496177 9.4369146e-05 0)
(1.249593 8.8937675e-05 0)
(1.2495695 8.3823755e-05 0)
(1.2495473 7.9007055e-05 0)
(1.2495264 7.446878e-05 0)
(1.2495066 7.0191649e-05 0)
(1.2494879 6.6159604e-05 0)
(1.2494702 6.235783e-05 0)
(1.2494536 5.877249e-05 0)
(1.2494378 5.5390788e-05 0)
(1.249423 5.2200724e-05 0)
(1.249409 4.9191167e-05 0)
(1.2493957 4.6351642e-05 0)
(1.2493833 4.3672418e-05 0)
(1.2493715 4.1144306e-05 0)
(1.2493604 3.8758755e-05 0)
(1.2493499 3.6507664e-05 0)
(1.2493401 3.4383497e-05 0)
(1.2493308 3.2379091e-05 0)
(1.249322 3.0487779e-05 0)
(1.2493137 2.8703207e-05 0)
(1.249306 2.7019466e-05 0)
(1.2492986 2.5430912e-05 0)
(1.2492917 2.3932292e-05 0)
(1.2492853 2.2518582e-05 0)
(1.2492791 2.1185112e-05 0)
(1.2492734 1.9927405e-05 0)
(1.249268 1.8741297e-05 0)
(1.2492629 1.7622798e-05 0)
(1.2492581 1.656819e-05 0)
(1.2492536 1.5573919e-05 0)
(1.2492493 1.4636659e-05 0)
(1.2492453 1.3753241e-05 0)
(1.2492416 1.2920678e-05 0)
(1.2492381 1.2136168e-05 0)
(1.2492348 1.1397003e-05 0)
(1.2492316 1.0700719e-05 0)
(1.2492287 1.0044837e-05 0)
(1.249226 9.4272377e-06 0)
(1.2492234 8.8455876e-06 0)
(1.249221 8.2981418e-06 0)
(1.2492187 7.7826092e-06 0)
(1.2492166 7.2977066e-06 0)
(1.2492146 6.8410145e-06 0)
(1.2492127 6.4118742e-06 0)
(1.249211 6.0074674e-06 0)
(1.2492093 5.628086e-06 0)
(1.2492078 5.2700352e-06 0)
(1.2492063 4.93514e-06 0)
(1.249205 4.6180086e-06 0)
(1.2492037 4.3230714e-06 0)
(1.2492025 4.0417715e-06 0)
(1.2492014 3.7830661e-06 0)
(1.2492004 3.5326251e-06 0)
(1.2491994 3.307423e-06 0)
(1.2491985 3.0826554e-06 0)
(1.2491976 2.8896205e-06 0)
(1.2491969 2.6845896e-06 0)
(1.2491961 2.5246623e-06 0)
(1.2491954 2.3323421e-06 0)
(1.2491948 2.2107572e-06 0)
(1.2491941 2.0239751e-06 0)
(1.2491938 1.9536009e-06 0)
(1.2491929 1.7713078e-06 0)
(1.4971977 5.8706148e-05 0)
(1.4980539 0.00033807507 0)
(1.4982781 0.00057623533 0)
(1.4983415 0.0006799818 0)
(1.4985054 0.00067346212 0)
(1.4987826 0.0006228892 0)
(1.4990895 0.00057397912 0)
(1.4993636 0.00053912415 0)
(1.4995907 0.00051250601 0)
(1.4997832 0.0004866988 0)
(1.4999561 0.00045917365 0)
(1.5001168 0.00043110538 0)
(1.5002665 0.00040434308 0)
(1.5004045 0.0003797843 0)
(1.5005307 0.00035736458 0)
(1.5006463 0.0003366545 0)
(1.5007525 0.000317298 0)
(1.5008506 0.00029911818 0)
(1.5009415 0.00028204401 0)
(1.5010257 0.00026602361 0)
(1.501104 0.00025098953 0)
(1.5011767 0.00023686348 0)
(1.5012443 0.00022357082 0)
(1.5013073 0.00021104814 0)
(1.5013661 0.00019924262 0)
(1.501421 0.00018810857 0)
(1.5014723 0.00017760427 0)
(1.5015203 0.00016769104 0)
(1.5015652 0.00015833277 0)
(1.5016073 0.0001494962 0)
(1.5016467 0.00014115048 0)
(1.5016837 0.00013326718 0)
(1.5017184 0.00012581967 0)
(1.501751 0.00011878321 0)
(1.5017816 0.00011213447 0)
(1.5018104 0.00010585176 0)
(1.5018375 9.9914516e-05 0)
(1.5018629 9.4303641e-05 0)
(1.5018868 8.9000965e-05 0)
(1.5019093 8.3989609e-05 0)
(1.5019305 7.9253455e-05 0)
(1.5019504 7.4777542e-05 0)
(1.5019691 7.0547535e-05 0)
(1.5019868 6.6550146e-05 0)
(1.5020034 6.2772598e-05 0)
(1.502019 5.920307e-05 0)
(1.5020337 5.5830153e-05 0)
(1.5020476 5.2643314e-05 0)
(1.5020606 4.9632351e-05 0)
(1.5020729 4.6787868e-05 0)
(1.5020845 4.410073e-05 0)
(1.5020954 4.1562551e-05 0)
(1.5021056 3.9165141e-05 0)
(1.5021152 3.6901012e-05 0)
(1.5021243 3.4762817e-05 0)
(1.5021329 3.2743863e-05 0)
(1.5021409 3.0837559e-05 0)
(1.5021485 2.9037926e-05 0)
(1.5021556 2.7339042e-05 0)
(1.5021623 2.5735566e-05 0)
(1.5021686 2.4222182e-05 0)
(1.5021745 2.2794115e-05 0)
(1.5021801 2.1446591e-05 0)
(1.5021853 2.0175341e-05 0)
(1.5021902 1.8976083e-05 0)
(1.5021948 1.7844996e-05 0)
(1.5021992 1.6778238e-05 0)
(1.5022033 1.5772389e-05 0)
(1.5022071 1.4824009e-05 0)
(1.5022107 1.3930021e-05 0)
(1.5022141 1.3087366e-05 0)
(1.5022173 1.2293251e-05 0)
(1.5022203 1.1544986e-05 0)
(1.5022231 1.0839997e-05 0)
(1.5022257 1.0175975e-05 0)
(1.5022282 9.5504715e-06 0)
(1.5022305 8.9616163e-06 0)
(1.5022326 8.406945e-06 0)
(1.5022347 7.8851531e-06 0)
(1.5022366 7.393529e-06 0)
(1.5022383 6.9315929e-06 0)
(1.50224 6.4959854e-06 0)
(1.5022416 6.0875404e-06 0)
(1.5022431 5.7015415e-06 0)
(1.5022444 5.3410499e-06 0)
(1.5022457 4.9987211e-06 0)
(1.5022469 4.681512e-06 0)
(1.502248 4.3771703e-06 0)
(1.5022491 4.0995666e-06 0)
(1.5022501 3.8274842e-06 0)
(1.502251 3.5870662e-06 0)
(1.5022519 3.3410281e-06 0)
(1.5022526 3.1370831e-06 0)
(1.5022534 2.9098242e-06 0)
(1.502254 2.7442096e-06 0)
(1.5022548 2.5272322e-06 0)
(1.5022552 2.4057765e-06 0)
(1.502256 2.189738e-06 0)
(1.5022563 2.1225608e-06 0)
(1.5022572 1.8979933e-06 0)
(1.6180761 1.9928275e-05 0)
(1.6190563 0.00011837284 0)
(1.619375 0.00020589758 0)
(1.6195268 0.00024733049 0)
(1.6197984 0.00024826793 0)
(1.620209 0.00023176353 0)
(1.6206648 0.00021499592 0)
(1.6210905 0.00020322189 0)
(1.6214651 0.00019456364 0)
(1.6218003 0.00018619248 0)
(1.6221126 0.00017703085 0)
(1.6224101 0.00016746016 0)
(1.6226938 0.00015819215 0)
(1.6229623 0.00014960662 0)
(1.6232152 0.00014170991 0)
(1.623453 0.00013435381 0)
(1.6236771 0.00012740988 0)
(1.6238888 0.00012081736 0)
(1.6240889 0.00011455783 0)
(1.6242781 0.00010862139 0)
(1.6244569 0.00010299202 0)
(1.6246259 9.7648717e-05 0)
(1.6247857 9.257101e-05 0)
(1.6249367 8.7741982e-05 0)
(1.6250794 8.314823e-05 0)
(1.6252144 7.8778475e-05 0)
(1.625342 7.4622448e-05 0)
(1.6254625 7.0670399e-05 0)
(1.6255765 6.6913039e-05 0)
(1.6256842 6.3341569e-05 0)
(1.625786 5.994767e-05 0)
(1.6258821 5.6723439e-05 0)
(1.625973 5.3661308e-05 0)
(1.6260588 5.0754e-05 0)
(1.6261399 4.7994499e-05 0)
(1.6262165 4.5376055e-05 0)
(1.6262888 4.2892154e-05 0)
(1.6263571 4.0536535e-05 0)
(1.6264216 3.830316e-05 0)
(1.6264825 3.6186241e-05 0)
(1.6265399 3.4180196e-05 0)
(1.6265942 3.2279681e-05 0)
(1.6266454 3.0479549e-05 0)
(1.6266937 2.8774889e-05 0)
(1.6267393 2.7160976e-05 0)
(1.6267823 2.56333e-05 0)
(1.6268228 2.4187534e-05 0)
(1.6268611 2.2819561e-05 0)
(1.6268972 2.1525427e-05 0)
(1.6269312 2.0301375e-05 0)
(1.6269632 1.9143803e-05 0)
(1.6269935 1.8049298e-05 0)
(1.6270219 1.7014587e-05 0)
(1.6270488 1.603657e-05 0)
(1.6270741 1.5112276e-05 0)
(1.6270979 1.4238903e-05 0)
(1.6271204 1.3413764e-05 0)
(1.6271415 1.2634321e-05 0)
(1.6271614 1.1898144e-05 0)
(1.6271801 1.1202949e-05 0)
(1.6271978 1.0546544e-05 0)
(1.6272144 9.9268644e-06 0)
(1.62723 9.3419355e-06 0)
(1.6272447 8.7899016e-06 0)
(1.6272585 8.2689868e-06 0)
(1.6272715 7.7775142e-06 0)
(1.6272838 7.3138891e-06 0)
(1.6272952 6.8766016e-06 0)
(1.6273061 6.4642276e-06 0)
(1.6273162 6.0753932e-06 0)
(1.6273257 5.708834e-06 0)
(1.6273347 5.363297e-06 0)
(1.6273431 5.0376793e-06 0)
(1.627351 4.730808e-06 0)
(1.6273585 4.4417506e-06 0)
(1.6273654 4.169379e-06 0)
(1.627372 3.9129664e-06 0)
(1.6273781 3.6713496e-06 0)
(1.6273839 3.4440753e-06 0)
(1.6273893 3.2298345e-06 0)
(1.6273943 3.0285898e-06 0)
(1.6273991 2.8386673e-06 0)
(1.6274035 2.6607046e-06 0)
(1.6274077 2.4922986e-06 0)
(1.6274116 2.3352486e-06 0)
(1.6274152 2.1857469e-06 0)
(1.6274186 2.0476241e-06 0)
(1.6274219 1.9144994e-06 0)
(1.6274248 1.7937822e-06 0)
(1.6274277 1.6744597e-06 0)
(1.6274302 1.5701843e-06 0)
(1.6274328 1.4618362e-06 0)
(1.6274349 1.3737741e-06 0)
(1.6274372 1.2731421e-06 0)
(1.627439 1.202182e-06 0)
(1.6274412 1.1056248e-06 0)
(1.6274425 1.0541958e-06 0)
(1.6274447 9.5753612e-07 0)
(1.6274454 9.29054e-07 0)
(1.6274479 8.2688509e-07 0)
(1.6180759 -1.9927013e-05 0)
(1.6190562 -0.00011836864 0)
(1.619375 -0.00020589701 0)
(1.6195268 -0.00024733489 0)
(1.6197984 -0.00024827263 0)
(1.6202089 -0.00023176119 0)
(1.6206647 -0.00021498442 0)
(1.6210905 -0.00020320303 0)
(1.6214651 -0.00019454118 0)
(1.6218003 -0.00018616839 0)
(1.6221125 -0.000177006 0)
(1.6224101 -0.00016743447 0)
(1.6226938 -0.00015816603 0)
(1.6229623 -0.00014958053 0)
(1.6232152 -0.00014168461 0)
(1.623453 -0.0001343298 0)
(1.6236771 -0.00012738761 0)
(1.6238888 -0.00012079706 0)
(1.6240889 -0.0001145397 0)
(1.6242781 -0.00010860553 0)
(1.6244569 -0.00010297848 0)
(1.6246259 -9.7637522e-05 0)
(1.6247857 -9.256207e-05 0)
(1.6249367 -8.7735247e-05 0)
(1.6250795 -8.3143513e-05 0)
(1.6252144 -7.8775698e-05 0)
(1.625342 -7.4621366e-05 0)
(1.6254625 -7.0670911e-05 0)
(1.6255765 -6.6914861e-05 0)
(1.6256842 -6.3344619e-05 0)
(1.625786 -5.9951674e-05 0)
(1.6258821 -5.6728352e-05 0)
(1.625973 -5.3666873e-05 0)
(1.6260588 -5.076022e-05 0)
(1.6261399 -4.8001142e-05 0)
(1.6262165 -4.5383156e-05 0)
(1.6262888 -4.2899501e-05 0)
(1.6263571 -4.0544201e-05 0)
(1.6264216 -3.8310951e-05 0)
(1.6264825 -3.6194247e-05 0)
(1.6265399 -3.4188226e-05 0)
(1.6265942 -3.2287846e-05 0)
(1.6266454 -3.0487664e-05 0)
(1.6266937 -2.8783067e-05 0)
(1.6267393 -2.7169026e-05 0)
(1.6267823 -2.5641353e-05 0)
(1.6268228 -2.4195404e-05 0)
(1.6268611 -2.282738e-05 0)
(1.6268972 -2.153301e-05 0)
(1.6269312 -2.0308873e-05 0)
(1.6269632 -1.9151043e-05 0)
(1.6269935 -1.8056435e-05 0)
(1.6270219 -1.7021452e-05 0)
(1.6270488 -1.6043336e-05 0)
(1.6270741 -1.5118785e-05 0)
(1.6270979 -1.4245327e-05 0)
(1.6271203 -1.3419944e-05 0)
(1.6271415 -1.2640441e-05 0)
(1.6271614 -1.1904048e-05 0)
(1.6271801 -1.1208811e-05 0)
(1.6271978 -1.05522e-05 0)
(1.6272144 -9.9324939e-06 0)
(1.62723 -9.3473716e-06 0)
(1.6272447 -8.7953096e-06 0)
(1.6272585 -8.2741903e-06 0)
(1.6272715 -7.7826806e-06 0)
(1.6272837 -7.3188417e-06 0)
(1.6272952 -6.8814975e-06 0)
(1.627306 -6.4688838e-06 0)
(1.6273162 -6.0799739e-06 0)
(1.6273257 -5.7131612e-06 0)
(1.6273347 -5.3675302e-06 0)
(1.6273431 -5.0416395e-06 0)
(1.627351 -4.7346665e-06 0)
(1.6273584 -4.4453377e-06 0)
(1.6273654 -4.1728645e-06 0)
(1.6273719 -3.9161816e-06 0)
(1.6273781 -3.6744773e-06 0)
(1.6273838 -3.4469559e-06 0)
(1.6273892 -3.2326494e-06 0)
(1.6273943 -3.0311785e-06 0)
(1.627399 -2.841223e-06 0)
(1.6274035 -2.6630733e-06 0)
(1.6274077 -2.4946715e-06 0)
(1.6274115 -2.3374675e-06 0)
(1.6274152 -2.1880151e-06 0)
(1.6274186 -2.0497874e-06 0)
(1.6274218 -1.9167596e-06 0)
(1.6274248 -1.7959824e-06 0)
(1.6274276 -1.6768148e-06 0)
(1.6274302 -1.5725597e-06 0)
(1.6274327 -1.4644686e-06 0)
(1.6274349 -1.3765744e-06 0)
(1.6274372 -1.2762943e-06 0)
(1.627439 -1.2055977e-06 0)
(1.6274412 -1.1091957e-06 0)
(1.6274425 -1.0580629e-06 0)
(1.6274447 -9.6139131e-07 0)
(1.6274454 -9.3375317e-07 0)
(1.6274479 -8.3315763e-07 0)
(1.4971978 -5.8706459e-05 0)
(1.4980539 -0.00033808331 0)
(1.4982781 -0.00057625178 0)
(1.4983415 -0.00068000215 0)
(1.4985054 -0.00067347969 0)
(1.4987826 -0.00062289984 0)
(1.4990895 -0.00057398159 0)
(1.4993636 -0.00053912013 0)
(1.4995907 -0.00051249727 0)
(1.4997832 -0.00048668679 0)
(1.4999561 -0.00045915894 0)
(1.5001168 -0.00043108857 0)
(1.5002665 -0.00040432472 0)
(1.5004045 -0.00037976519 0)
(1.5005308 -0.00035734539 0)
(1.5006463 -0.00033663588 0)
(1.5007525 -0.00031728037 0)
(1.5008506 -0.00029910191 0)
(1.5009415 -0.00028202932 0)
(1.5010258 -0.00026601068 0)
(1.501104 -0.00025097847 0)
(1.5011767 -0.00023685429 0)
(1.5012443 -0.00022356351 0)
(1.5013073 -0.0002110426 0)
(1.5013661 -0.00019923881 0)
(1.501421 -0.0001881063 0)
(1.5014723 -0.00017760346 0)
(1.5015203 -0.00016769148 0)
(1.5015652 -0.00015833438 0)
(1.5016073 -0.00014949877 0)
(1.5016467 -0.00014115394 0)
(1.5016837 -0.00013327131 0)
(1.5017185 -0.00012582443 0)
(1.501751 -0.00011878841 0)
(1.5017817 -0.00011214012 0)
(1.5018104 -0.00010585766 0)
(1.5018375 -9.9920718e-05 0)
(1.5018629 -9.4309982e-05 0)
(1.5018868 -8.9007502e-05 0)
(1.5019093 -8.3996189e-05 0)
(1.5019305 -7.9260155e-05 0)
(1.5019504 -7.4784219e-05 0)
(1.5019691 -7.0554269e-05 0)
(1.5019868 -6.6556792e-05 0)
(1.5020034 -6.2779248e-05 0)
(1.502019 -5.9209584e-05 0)
(1.5020337 -5.5836625e-05 0)
(1.5020476 -5.2649602e-05 0)
(1.5020606 -4.9638561e-05 0)
(1.5020729 -4.6793871e-05 0)
(1.5020845 -4.4106636e-05 0)
(1.5020953 -4.1568232e-05 0)
(1.5021056 -3.9170723e-05 0)
(1.5021152 -3.6906378e-05 0)
(1.5021243 -3.4768095e-05 0)
(1.5021328 -3.2748936e-05 0)
(1.5021409 -3.0842563e-05 0)
(1.5021484 -2.9042749e-05 0)
(1.5021556 -2.7343817e-05 0)
(1.5021622 -2.5740174e-05 0)
(1.5021685 -2.4226756e-05 0)
(1.5021745 -2.2798537e-05 0)
(1.50218 -2.1450986e-05 0)
(1.5021853 -2.0179581e-05 0)
(1.5021902 -1.8980291e-05 0)
(1.5021948 -1.7849044e-05 0)
(1.5021992 -1.6782242e-05 0)
(1.5022032 -1.5776211e-05 0)
(1.5022071 -1.4827769e-05 0)
(1.5022107 -1.3933587e-05 0)
(1.5022141 -1.3090854e-05 0)
(1.5022172 -1.2296526e-05 0)
(1.5022202 -1.1548171e-05 0)
(1.502223 -1.0842966e-05 0)
(1.5022256 -1.0178852e-05 0)
(1.5022281 -9.5531299e-06 0)
(1.5022304 -8.9641884e-06 0)
(1.5022326 -8.4093152e-06 0)
(1.5022346 -7.8874539e-06 0)
(1.5022365 -7.3956434e-06 0)
(1.5022383 -6.9336614e-06 0)
(1.50224 -6.4978997e-06 0)
(1.5022415 -6.08944e-06 0)
(1.502243 -5.7033141e-06 0)
(1.5022444 -5.342843e-06 0)
(1.5022457 -5.0004279e-06 0)
(1.5022468 -4.6832805e-06 0)
(1.502248 -4.3788868e-06 0)
(1.502249 -4.1013911e-06 0)
(1.50225 -3.829308e-06 0)
(1.5022509 -3.5890664e-06 0)
(1.5022518 -3.3430973e-06 0)
(1.5022525 -3.1394231e-06 0)
(1.5022534 -2.9123227e-06 0)
(1.502254 -2.7469966e-06 0)
(1.5022547 -2.5301292e-06 0)
(1.5022552 -2.4088854e-06 0)
(1.502256 -2.1927768e-06 0)
(1.5022562 -2.1260709e-06 0)
(1.5022571 -1.9021162e-06 0)
(1.2507033 -9.3312829e-05 0)
(1.2513077 -0.00049928398 0)
(1.2513286 -0.00081106651 0)
(1.2511928 -0.00091739913 0)
(1.2511203 -0.00087714639 0)
(1.2511199 -0.00078871345 0)
(1.2511317 -0.0007104226 0)
(1.2511166 -0.00065373965 0)
(1.2510705 -0.00060892306 0)
(1.2510062 -0.00056650806 0)
(1.2509355 -0.00052389718 0)
(1.2508641 -0.00048276522 0)
(1.2507931 -0.0004451408 0)
(1.2507221 -0.000411698 0)
(1.2506513 -0.00038199204 0)
(1.2505812 -0.00035525769 0)
(1.2505127 -0.00033090387 0)
(1.2504462 -0.00030859339 0)
(1.250382 -0.00028812921 0)
(1.2503202 -0.00026934719 0)
(1.2502609 -0.00025207784 0)
(1.2502041 -0.00023615395 0)
(1.2501498 -0.0002214267 0)
(1.250098 -0.00020777154 0)
(1.2500485 -0.00019508532 0)
(1.2500015 -0.00018327978 0)
(1.2499567 -0.00017227757 0)
(1.2499142 -0.00016200944 0)
(1.2498738 -0.00015241403 0)
(1.2498354 -0.00014343639 0)
(1.2497991 -0.00013502806 0)
(1.2497646 -0.0001271453 0)
(1.2497319 -0.00011974932 0)
(1.249701 -0.00011280455 0)
(1.2496717 -0.00010627932 0)
(1.249644 -0.00010014428 0)
(1.2496178 -9.4373272e-05 0)
(1.249593 -8.8941805e-05 0)
(1.2495695 -8.3828033e-05 0)
(1.2495473 -7.9011272e-05 0)
(1.2495264 -7.4473106e-05 0)
(1.2495066 -7.0195873e-05 0)
(1.2494879 -6.6163896e-05 0)
(1.2494702 -6.2361978e-05 0)
(1.2494536 -5.8776683e-05 0)
(1.2494378 -5.539481e-05 0)
(1.249423 -5.2204759e-05 0)
(1.249409 -4.9195003e-05 0)
(1.2493957 -4.6355481e-05 0)
(1.2493832 -4.3676046e-05 0)
(1.2493715 -4.1147922e-05 0)
(1.2493604 -3.876215e-05 0)
(1.2493499 -3.6511058e-05 0)
(1.24934 -3.438668e-05 0)
(1.2493307 -3.2382278e-05 0)
(1.249322 -3.0490765e-05 0)
(1.2493137 -2.870622e-05 0)
(1.2493059 -2.7022297e-05 0)
(1.2492986 -2.5433779e-05 0)
(1.2492917 -2.3934987e-05 0)
(1.2492852 -2.2521333e-05 0)
(1.2492791 -2.1187702e-05 0)
(1.2492733 -1.9930047e-05 0)
(1.2492679 -1.8743775e-05 0)
(1.2492628 -1.7625331e-05 0)
(1.249258 -1.6570556e-05 0)
(1.2492535 -1.5576324e-05 0)
(1.2492493 -1.463888e-05 0)
(1.2492453 -1.3755495e-05 0)
(1.2492415 -1.2922741e-05 0)
(1.249238 -1.2138244e-05 0)
(1.2492347 -1.1398873e-05 0)
(1.2492316 -1.0702603e-05 0)
(1.2492287 -1.0046514e-05 0)
(1.2492259 -9.42892e-06 0)
(1.2492233 -8.8470613e-06 0)
(1.2492209 -8.2996341e-06 0)
(1.2492187 -7.783907e-06 0)
(1.2492165 -7.2990289e-06 0)
(1.2492145 -6.8421538e-06 0)
(1.2492127 -6.4130642e-06 0)
(1.2492109 -6.0084991e-06 0)
(1.2492093 -5.6291845e-06 0)
(1.2492077 -5.2709943e-06 0)
(1.2492063 -4.9362003e-06 0)
(1.2492049 -4.6189583e-06 0)
(1.2492036 -4.3241464e-06 0)
(1.2492025 -4.042758e-06 0)
(1.2492013 -3.7842209e-06 0)
(1.2492003 -3.5337266e-06 0)
(1.2491993 -3.3087327e-06 0)
(1.2491984 -3.0839339e-06 0)
(1.2491976 -2.8911356e-06 0)
(1.2491968 -2.6861053e-06 0)
(1.249196 -2.5263756e-06 0)
(1.2491953 -2.3341717e-06 0)
(1.2491947 -2.2125923e-06 0)
(1.249194 -2.0257955e-06 0)
(1.2491937 -1.9552289e-06 0)
(1.2491928 -1.7722908e-06 0)
(0.86974138 -0.00011709286 0)
(0.86995534 -0.00054300364 0)
(0.8696475 -0.00079790689 0)
(0.86919262 -0.00081761639 0)
(0.86877598 -0.00071051921 0)
(0.86841885 -0.00058651693 0)
(0.8680927 -0.00049281016 0)
(0.86777889 -0.0004291918 0)
(0.86747604 -0.00038143775 0)
(0.86718961 -0.00033994859 0)
(0.86692371 -0.00030233778 0)
(0.86667887 -0.00026943695 0)
(0.86645338 -0.00024188478 0)
(0.86624498 -0.0002191848 0)
(0.86605174 -0.00020022202 0)
(0.86587219 -0.00018394275 0)
(0.86570517 -0.00016964462 0)
(0.86554963 -0.00015693032 0)
(0.86540459 -0.00014555849 0)
(0.86526915 -0.00013533996 0)
(0.8651425 -0.00012610417 0)
(0.86502393 -0.00011770258 0)
(0.86491281 -0.00011001529 0)
(0.86480859 -0.00010295004 0)
(0.86471076 -9.6434724e-05 0)
(0.86461888 -9.0410706e-05 0)
(0.86453253 -8.4827865e-05 0)
(0.86445134 -7.9642983e-05 0)
(0.86437497 -7.4818258e-05 0)
(0.86430311 -7.0321161e-05 0)
(0.86423546 -6.6123079e-05 0)
(0.86417176 -6.219918e-05 0)
(0.86411177 -5.8527156e-05 0)
(0.86405527 -5.5087434e-05 0)
(0.86400203 -5.1862163e-05 0)
(0.86395186 -4.8835636e-05 0)
(0.86390459 -4.5993326e-05 0)
(0.86386004 -4.3322446e-05 0)
(0.86381805 -4.0811023e-05 0)
(0.86377847 -3.8448516e-05 0)
(0.86374116 -3.6224896e-05 0)
(0.863706 -3.4131357e-05 0)
(0.86367286 -3.2159419e-05 0)
(0.86364162 -3.0301663e-05 0)
(0.86361217 -2.8550823e-05 0)
(0.86358442 -2.6900579e-05 0)
(0.86355827 -2.5344667e-05 0)
(0.86353362 -2.3877675e-05 0)
(0.8635104 -2.2494136e-05 0)
(0.86348852 -2.1189371e-05 0)
(0.8634679 -1.9958597e-05 0)
(0.86344848 -1.8797763e-05 0)
(0.86343018 -1.7702635e-05 0)
(0.86341295 -1.6669674e-05 0)
(0.86339673 -1.5695137e-05 0)
(0.86338145 -1.477594e-05 0)
(0.86336706 -1.3908736e-05 0)
(0.86335352 -1.3090815e-05 0)
(0.86334078 -1.23192e-05 0)
(0.86332878 -1.1591521e-05 0)
(0.86331749 -1.0905099e-05 0)
(0.86330688 -1.0257845e-05 0)
(0.86329689 -9.6473663e-06 0)
(0.86328749 -9.0718358e-06 0)
(0.86327866 -8.5290902e-06 0)
(0.86327035 -8.017515e-06 0)
(0.86326254 -7.5351748e-06 0)
(0.8632552 -7.0806577e-06 0)
(0.86324831 -6.6522082e-06 0)
(0.86324183 -6.2485715e-06 0)
(0.86323574 -5.8681823e-06 0)
(0.86323003 -5.5099343e-06 0)
(0.86322466 -5.1724161e-06 0)
(0.86321962 -4.8546221e-06 0)
(0.86321489 -4.5553209e-06 0)
(0.86321046 -4.2735899e-06 0)
(0.86320629 -4.0083643e-06 0)
(0.86320239 -3.7587377e-06 0)
(0.86319873 -3.5238728e-06 0)
(0.8631953 -3.3028246e-06 0)
(0.86319208 -3.0950264e-06 0)
(0.86318907 -2.8993625e-06 0)
(0.86318624 -2.7156881e-06 0)
(0.8631836 -2.5425523e-06 0)
(0.86318112 -2.3804211e-06 0)
(0.8631788 -2.227197e-06 0)
(0.86317663 -2.0843389e-06 0)
(0.86317461 -1.9486548e-06 0)
(0.8631727 -1.823141e-06 0)
(0.86317093 -1.7027772e-06 0)
(0.86316927 -1.5929768e-06 0)
(0.86316772 -1.4858493e-06 0)
(0.86316627 -1.3904658e-06 0)
(0.86316491 -1.2946423e-06 0)
(0.86316367 -1.2129821e-06 0)
(0.86316245 -1.1272631e-06 0)
(0.86316143 -1.0596381e-06 0)
(0.86316025 -9.8557771e-07 0)
(0.86315959 -9.3747836e-07 0)
(0.86315818 -8.9385329e-07 0)
(0.34261374 -0.00010948867 0)
(0.34238057 -0.0003378962 0)
(0.34184359 -0.0003895134 0)
(0.34127664 -0.0003126021 0)
(0.34079947 -0.00021177456 0)
(0.34042367 -0.00014169747 0)
(0.34012239 -0.00010535546 0)
(0.33986894 -8.7211942e-05 0)
(0.33964777 -7.5080112e-05 0)
(0.33945209 -6.4536517e-05 0)
(0.33927868 -5.5435795e-05 0)
(0.33912473 -4.8343565e-05 0)
(0.33898711 -4.3185888e-05 0)
(0.33886286 -3.9388505e-05 0)
(0.3387496 -3.6355771e-05 0)
(0.33864562 -3.3720302e-05 0)
(0.33854973 -3.1334377e-05 0)
(0.33846101 -2.916087e-05 0)
(0.33837873 -2.7186959e-05 0)
(0.33830225 -2.5391846e-05 0)
(0.338231 -2.3748565e-05 0)
(0.33816452 -2.2233395e-05 0)
(0.33810239 -2.0829712e-05 0)
(0.33804427 -1.952681e-05 0)
(0.33798984 -1.8316516e-05 0)
(0.33793882 -1.7191621e-05 0)
(0.33789096 -1.6144868e-05 0)
(0.33784604 -1.5169661e-05 0)
(0.33780385 -1.4259751e-05 0)
(0.3377642 -1.3409911e-05 0)
(0.33772693 -1.261518e-05 0)
(0.33769187 -1.1871435e-05 0)
(0.33765888 -1.117458e-05 0)
(0.33762784 -1.0521288e-05 0)
(0.33759861 -9.9081516e-06 0)
(0.33757109 -9.3324814e-06 0)
(0.33754517 -8.7914176e-06 0)
(0.33752076 -8.2828009e-06 0)
(0.33749777 -7.8042202e-06 0)
(0.3374761 -7.3539133e-06 0)
(0.33745569 -6.9298007e-06 0)
(0.33743645 -6.5304526e-06 0)
(0.33741833 -6.1540743e-06 0)
(0.33740125 -5.799485e-06 0)
(0.33738516 -5.4650974e-06 0)
(0.33736999 -5.1499496e-06 0)
(0.33735571 -4.852644e-06 0)
(0.33734224 -4.5723791e-06 0)
(0.33732956 -4.3078907e-06 0)
(0.33731761 -4.0585284e-06 0)
(0.33730635 -3.8231613e-06 0)
(0.33729575 -3.6012466e-06 0)
(0.33728576 -3.3917435e-06 0)
(0.33727636 -3.1942186e-06 0)
(0.3372675 -3.0077311e-06 0)
(0.33725916 -2.8319232e-06 0)
(0.33725131 -2.665917e-06 0)
(0.33724392 -2.5094387e-06 0)
(0.33723696 -2.3616893e-06 0)
(0.33723042 -2.222449e-06 0)
(0.33722426 -2.090965e-06 0)
(0.33721846 -1.9670831e-06 0)
(0.33721301 -1.8501148e-06 0)
(0.33720788 -1.7399449e-06 0)
(0.33720306 -1.635918e-06 0)
(0.33719853 -1.5379712e-06 0)
(0.33719427 -1.4455027e-06 0)
(0.33719026 -1.3584761e-06 0)
(0.3371865 -1.2763139e-06 0)
(0.33718296 -1.1990205e-06 0)
(0.33717964 -1.1260651e-06 0)
(0.33717652 -1.0574673e-06 0)
(0.33717359 -9.927166e-07 0)
(0.33717084 -9.3186152e-07 0)
(0.33716826 -8.7443766e-07 0)
(0.33716584 -8.2049465e-07 0)
(0.33716357 -7.695933e-07 0)
(0.33716144 -7.2179321e-07 0)
(0.33715944 -6.7671431e-07 0)
(0.33715757 -6.3438993e-07 0)
(0.33715581 -5.9449087e-07 0)
(0.33715417 -5.5701816e-07 0)
(0.33715262 -5.2174694e-07 0)
(0.33715118 -4.8858649e-07 0)
(0.33714983 -4.5743799e-07 0)
(0.33714856 -4.280781e-07 0)
(0.33714738 -4.0062859e-07 0)
(0.33714627 -3.7462877e-07 0)
(0.33714523 -3.5049409e-07 0)
(0.33714426 -3.2743733e-07 0)
(0.33714336 -3.0627758e-07 0)
(0.33714251 -2.8582194e-07 0)
(0.33714172 -2.6726913e-07 0)
(0.33714098 -2.4928969e-07 0)
(0.3371403 -2.3307588e-07 0)
(0.33713964 -2.1802738e-07 0)
(0.33713906 -2.0364249e-07 0)
(0.33713846 -1.9472843e-07 0)
(0.33713801 -1.8418646e-07 0)
(0.3371373 -2.0529194e-07 0)
)
;

boundaryField
{
    top
    {
        type            fixedValue;
        value           uniform (0 0 0);
    }
    inlet
    {
        type            pressureNormalInletOutletVelocity;
        phi             phi;
        rho             rho;