/*--------------------------------*- C++ -*----------------------------------*\
| =========                 |                                                 |
| \\      /  F ield         | OpenFOAM: The Open Source CFD Toolbox           |
|  \\    /   O peration     | Version:  v1812                                 |
|   \\  /    A nd           | Web:      www.OpenFOAM.com                      |
|    \\/     M anipulation  |                                                 |
\*---------------------------------------------------------------------------*/
FoamFile
{
    version     2.0;
    format      ascii;
    class       surfaceScalarField;
    location    "14.7";
    object      phi;
}
// * * * * * * * * * * * * * * * * * * * * * * * * * * * * * * * * * * * * * //

dimensions      [0 3 -1 0 0 0 0];
oriented        oriented;


internalField   nonuniform List<scalar> 
1890
(
0.0093061958
0.00069380425
0.0082843931
0.0010218027
0.0073298986
0.00095449446
0.0064869553
0.00084294331
0.0057695845
0.00071737078
0.00518986
0.00057972443
0.004738168
0.00045169205
0.00439519
0.00034297802
0.0041390268
0.00025616318
0.003949107
0.00018991984
0.003807888
0.00014121897
0.0037013782
0.0001065098
0.003619058
8.2320224e-05
0.0035534117
6.5646247e-05
0.0034992845
5.4127251e-05
0.0034532444
4.604004e-05
0.0034130501
4.0194284e-05
0.0033772574
3.579275e-05
0.0033449386
3.2318759e-05
0.0033154893
2.9449285e-05
0.0032885008
2.6988587e-05
0.0032636805
2.4820311e-05
0.003240805
2.2875489e-05
0.0032196926
2.1112421e-05
0.0032001879
1.9504654e-05
0.0031821539
1.8034008e-05
0.0031654672
1.6686719e-05
0.0031500158
1.5451355e-05
0.0031356979
1.431786e-05
0.0031224209
1.3277071e-05
0.0031101003
1.2320597e-05
0.0030986596
1.1440729e-05
0.0030880291
1.0630444e-05
0.0030781458
9.883374e-06
0.003068952
9.1937755e-06
0.0030603955
8.5564945e-06
0.0030524286
7.9669109e-06
0.0030450076
7.4208934e-06
0.0030380929
6.9147387e-06
0.0030316478
6.4451183e-06
0.0030256387
6.0090545e-06
0.0030200349
5.6038483e-06
0.0030148078
5.2270791e-06
0.0030099313
4.8765454e-06
0.003005381
4.5502554e-06
0.0030011346
4.2464051e-06
0.0029971713
3.9633371e-06
0.0029934717
3.6995559e-06
0.002990018
3.453675e-06
0.0029867936
3.2244162e-06
0.002983783
3.0106165e-06
0.0029809718
2.8111761e-06
0.0029783467
2.6250973e-06
0.0029758953
2.4514486e-06
0.002973606
2.2893639e-06
0.0029714679
2.1380662e-06
0.0029694711
1.9968116e-06
0.0029676061
1.8649519e-06
0.0029658642
1.7418541e-06
0.0029642373
1.6269344e-06
0.0029627176
1.5196483e-06
0.0029612982
1.4194667e-06
0.0029599723
1.3259103e-06
0.0029587338
1.2385182e-06
0.0029575769
1.1568692e-06
0.0029564964
1.0805903e-06
0.002955487
1.0093262e-06
0.0029545442
9.4276455e-07
0.0029536636
8.8062676e-07
0.0029528409
8.2260963e-07
0.0029520724
7.6846033e-07
0.0029513546
7.1789636e-07
0.0029506839
6.7065399e-07
0.0029500575
6.2649519e-07
0.0029494723
5.8520352e-07
0.0029489257
5.4658899e-07
0.0029484152
5.1051503e-07
0.0029479384
4.7680903e-07
0.0029474929
4.4538891e-07
0.0029470768
4.1606628e-07
0.002946688
3.8874497e-07
0.0029463248
3.6320961e-07
0.0029459855
3.3936501e-07
0.0029456686
3.1699837e-07
0.0029453725
2.9609685e-07
0.0029450961
2.7643295e-07
0.0029448379
2.5821407e-07
0.0029445967
2.4104923e-07
0.0029443712
2.2531302e-07
0.002944161
2.1040007e-07
0.0029439642
1.9684206e-07
0.0029437803
1.8377827e-07
0.0029436082
1.7212733e-07
0.002943448
1.603955e-07
0.0029432978
1.5020034e-07
0.0029431574
1.4029443e-07
0.0029430254
1.3209721e-07
0.0029429003
1.2509608e-07
0.0029427809
1.1940035e-07
1.2576868e-07
0.010339525
0.00035427931
0.010570754
0.00079057333
0.010606301
0.00091894817
0.010547572
0.00090167133
0.010422317
0.0008426262
0.010244356
0.00075768557
0.010039421
0.00065662743
0.0098287427
0.00055365586
0.009625135
0.00045977083
0.0094353013
0.00037975354
0.0092624277
0.00031409259
0.0091075332
0.00026140426
0.008970154
0.00021969949
0.0088489023
0.00018689786
0.0087419715
0.00016105802
0.0086474926
0.00014051894
0.008563694
0.00012399296
0.0084890107
0.000110476
0.0084221096
9.9219872e-05
0.0083618775
8.9681411e-05
0.0083073954
8.1470675e-05
0.0082579079
7.4307856e-05
0.0082127929
6.7990503e-05
0.0081715353
6.2369992e-05
0.0081337049
5.7335014e-05
0.0080989388
5.280018e-05
0.0080669272
4.869826e-05
0.0080374036
4.4974952e-05
0.0080101361
4.1585388e-05
0.0079849213
3.8491848e-05
0.0079615798
3.5662158e-05
0.0079399519
3.3068617e-05
0.0079198952
3.0687179e-05
0.0079012817
2.8496857e-05
0.0078839962
2.6479247e-05
0.0078679345
2.4618145e-05
0.0078530022
2.2899242e-05
0.0078391132
2.1309843e-05
0.0078261893
1.9838657e-05
0.0078141589
1.8475608e-05
0.0078029563
1.7211664e-05
0.0077925214
1.6038726e-05
0.007782799
1.4949482e-05
0.0077737382
1.3937343e-05
0.0077652921
1.2996326e-05
0.0077574175
1.2121006e-05
0.0077500743
1.1306453e-05
0.0077432258
1.0548146e-05
0.0077368375
9.841967e-06
0.0077308778
9.1841282e-06
0.0077253173
8.5711396e-06
0.0077201287
7.9998098e-06
0.0077152866
7.4671656e-06
0.0077107676
6.9704876e-06
0.0077065496
6.5072555e-06
0.0077026125
6.0751415e-06
0.0076989373
5.6720196e-06
0.0076955063
5.2958987e-06
0.0076923033
4.9449535e-06
0.0076893128
4.6174629e-06
0.0076865206
4.311825e-06
0.0076839136
4.02656e-06
0.0076814792
3.7602598e-06
0.0076792061
3.5116448e-06
0.0076770834
3.2795115e-06
0.0076751012
3.062753e-06
0.0076732501
2.860363e-06
0.0076715215
2.6713955e-06
0.0076699071
2.494971e-06
0.0076683995
2.3302769e-06
0.0076669915
2.1765114e-06
0.0076656765
2.0329281e-06
0.0076644484
1.8988322e-06
0.0076633013
1.7735477e-06
0.0076622299
1.6565078e-06
0.0076612293
1.5471502e-06
0.0076602948
1.445023e-06
0.0076594219
1.3496447e-06
0.0076586067
1.2606436e-06
0.0076578453
1.177534e-06
0.0076571341
1.1000184e-06
0.0076564698
1.0275186e-06
0.0076558493
9.5989443e-07
0.0076552697
8.965085e-07
0.0076547283
8.3745657e-07
0.0076542228
7.8191911e-07
0.0076537504
7.304855e-07
0.0076533093
6.8214696e-07
0.0076528971
6.3759795e-07
0.0076525126
5.9495061e-07
0.0076521528
5.5668654e-07
0.0076518171
5.1951784e-07
0.0076515028
4.8640413e-07
0.0076512106
4.5247459e-07
0.0076509355
4.2513521e-07
0.0076506806
3.9528185e-07
0.0076504385
3.7432924e-07
0.0076502164
3.4708219e-07
0.0076499998
3.3604581e-07
3.1075993e-07
0.010188704
0.00016557515
0.010530487
0.00044879097
0.010851453
0.00059798174
0.011124174
0.00062895021
0.011350581
0.00061621883
0.011524486
0.00058378053
0.01164633
0.00053478419
0.011724155
0.00047583049
0.011767999
0.00041592665
0.011786639
0.00036111399
0.011787114
0.00031361711
0.011775058
0.00027346026
0.011754861
0.00023989719
0.011729768
0.00021199031
0.011702054
0.00018877261
0.011673239
0.00016933388
0.011644339
0.00015289296
0.011616003
0.00013881183
0.011588629
0.0001265938
0.011562446
0.00011586445
0.011537572
0.00010634494
0.011514052
9.7827003e-05
0.01149189
9.0153365e-05
0.011471056
8.3203368e-05
0.011451509
7.6882614e-05
0.011433193
7.1115562e-05
0.011416051
6.5840296e-05
0.011400021
6.1004909e-05
0.011385041
5.6565071e-05
0.011371051
5.2482337e-05
0.01135799
4.8723029e-05
0.011345801
4.5257391e-05
0.01133443
4.2058998e-05
0.011323822
3.9104277e-05
0.011313929
3.6372124e-05
0.011304704
3.3843608e-05
0.011296101
3.1501692e-05
0.01128808
2.9331017e-05
0.011280601
2.7317701e-05
0.011273628
2.5449177e-05
0.011267125
2.3714052e-05
0.011261062
2.2101955e-05
0.011255408
2.060346e-05
0.011250135
1.9209952e-05
0.011245218
1.791357e-05
0.011240632
1.6707116e-05
0.011236354
1.5583984e-05
0.011232364
1.4538117e-05
0.011228643
1.3563933e-05
0.01122517
1.2656298e-05
0.011221931
1.1810486e-05
0.011218909
1.1022107e-05
0.011216089
1.0287134e-05
0.011213457
9.6018229e-06
0.011211002
8.9627181e-06
0.01120871
8.3666322e-06
0.011206572
7.8106014e-06
0.011204576
7.2918886e-06
0.011202713
6.8079276e-06
0.011200974
6.3563495e-06
0.011199351
5.9349549e-06
0.011197836
5.5416714e-06
0.011196421
5.1746087e-06
0.011195101
4.8319773e-06
0.011193868
4.5121419e-06
0.011192718
4.2135699e-06
0.011191643
3.9348415e-06
0.01119064
3.6746358e-06
0.011189703
3.4317241e-06
0.011188829
3.2049271e-06
0.011188012
2.9931881e-06
0.011187249
2.7954584e-06
0.011186537
2.6108157e-06
0.011185873
2.4383681e-06
0.011185252
2.277337e-06
0.011184672
2.1269335e-06
0.01118413
1.9865251e-06
0.011183625
1.8553805e-06
0.011183152
1.7329979e-06
0.011182711
1.6186389e-06
0.011182299
1.5119281e-06
0.011181915
1.4121069e-06
0.011181556
1.3190523e-06
0.01118122
1.2318391e-06
0.011180907
1.1507005e-06
0.011180614
1.0745314e-06
0.011180341
1.0041244e-06
0.011180086
9.372846e-07
0.011179847
8.7619673e-07
0.011179625
8.1774263e-07
0.011179416
7.6530429e-07
0.011179222
7.1273282e-07
0.01117904
6.6810124e-07
0.011178872
6.2104069e-07
0.011178712
5.8531718e-07
0.011178566
5.4115666e-07
0.011178425
5.1519678e-07
0.0111783
4.7225398e-07
0.011178177
4.5901478e-07
4.1606504e-07
0.010097182
6.8393549e-05
0.010346961
0.0001990111
0.010662469
0.00028247385
0.010982753
0.00030866646
0.011290229
0.00030874339
0.011575251
0.00029875786
0.011829022
0.00028101344
0.012047865
0.00025698754
0.012233272
0.00023051981
0.01238924
0.00020514589
0.012520295
0.00018256235
0.012630755
0.00016299956
0.012724428
0.0001462249
0.012804515
0.00013190312
0.012873613
0.00011967427
0.012933772
0.00010917461
0.012986596
0.00010006907
0.013033332
9.2076371e-05
0.01307495
8.4975257e-05
0.013112216
7.8598616e-05
0.013145739
7.2822305e-05
0.013176012
6.7553941e-05
0.013203441
6.2723926e-05
0.013228366
5.8278897e-05
0.013251071
5.4176991e-05
0.013271802
5.0384435e-05
0.01329077
4.6873166e-05
0.013308155
4.3619182e-05
0.013324119
4.0601462e-05
0.0133388
3.7801283e-05
0.013352321
3.5201756e-05
0.013364791
3.2787534e-05
0.013376306
3.0544596e-05
0.01338695
2.8460092e-05
0.0133968
2.6522224e-05
0.013405923
2.4720139e-05
0.013414381
2.3043846e-05
0.013422228
2.1484146e-05
0.013429513
2.0032561e-05
0.013436281
1.8681271e-05
0.013442572
1.7423062e-05
0.013448423
1.6251278e-05
0.013453866
1.5159762e-05
0.013458933
1.4142831e-05
0.013463652
1.3195223e-05
0.013468047
1.2312074e-05
0.013472142
1.1488875e-05
0.013475959
1.0721444e-05
0.013479517
1.0005914e-05
0.013482834
9.3386916e-06
0.013485928
8.7164385e-06
0.013488814
8.1360702e-06
0.013491507
7.5947008e-06
0.013494019
7.0896691e-06
0.013496363
6.6184997e-06
0.013498551
6.1788919e-06
0.013500593
5.7687021e-06
0.013502499
5.3859278e-06
0.013504278
5.0287154e-06
0.013505939
4.6953343e-06
0.01350749
4.384167e-06
0.013508938
4.093728e-06
0.01351029
3.8226122e-06
0.013511552
3.5695319e-06
0.013512731
3.3332781e-06
0.013513832
3.1127287e-06
0.01351486
2.9068386e-06
0.01351582
2.7146184e-06
0.013516716
2.5351562e-06
0.013517554
2.3675945e-06
0.013518336
2.2111212e-06
0.013519066
2.0650018e-06
0.013519748
1.9285595e-06
0.013520386
1.8011382e-06
0.013520981
1.6821831e-06
0.013521537
1.5710924e-06
0.013522056
1.4673942e-06
0.013522541
1.3705288e-06
0.013522994
1.2801146e-06
0.013523417
1.1955936e-06
0.013523812
1.116728e-06
0.013524181
1.0429294e-06
0.013524526
9.741722e-07
0.013524848
9.0971005e-07
0.013525148
8.4992224e-07
0.01352543
7.9367657e-07
0.013525692
7.4161908e-07
0.013525937
6.9217048e-07
0.013526166
6.4741075e-07
0.013526381
6.0398832e-07
0.01352658
5.6506352e-07
0.013526766
5.2577084e-07
0.01352694
4.9376472e-07
0.013527104
4.5848924e-07
0.013527257
4.326058e-07
0.013527398
3.988644e-07
0.013527533
3.8081652e-07
0.013527659
3.4710224e-07
0.01352778
3.3800376e-07
3.0562563e-07
0.010068394
-5.1071572e-12
0.010267405
-1.3185864e-11
0.010549879
-1.4153628e-11
0.010858545
-1.2164517e-11
0.011167288
-9.8136796e-12
0.011466046
-1.0190283e-11
0.01174706
-1.1011076e-11
0.012004047
-1.1722693e-11
0.012234567
-1.1545198e-11
0.012439713
-1.0943327e-11
0.012622275
-8.8578049e-12
0.012785275
-5.5761896e-12
0.0129315
-2.9763342e-12
0.013063403
-7.5306978e-13
0.013183077
1.8223388e-12
0.013292252
2.5652229e-12
0.013392321
2.59578e-12
0.013484397
2.6894497e-12
0.013569373
3.4579166e-12
0.013647971
3.9526432e-12
0.013720794
2.7588571e-12
0.013788347
1.0301583e-12
0.013851071
5.832047e-13
0.01390935
-1.8215067e-13
0.013963527
5.7670081e-14
0.014013912
9.1681987e-13
0.014060785
1.1086442e-12
0.014104404
1.3709356e-12
0.014145005
3.0122714e-12
0.014182807
3.5774156e-12
0.014218009
3.9076014e-12
0.014250796
2.1593844e-12
0.014281341
-2.7173823e-14
0.014309801
-3.0056508e-12
0.014336323
-4.5793794e-12
0.014361043
-3.2212772e-12
0.014384087
5.410414e-13
0.014405571
4.6332656e-12
0.014425604
7.5319152e-12
0.014444285
8.5542995e-12
0.014461708
7.1672551e-12
0.014477959
2.8453014e-12
0.014493119
-1.2447148e-12
0.014507262
-5.9590736e-12
0.014520457
-8.0543796e-12
0.014532769
-7.0192207e-12
0.014544258
-4.2907803e-12
0.01455498
-1.9893116e-13
0.014564985
6.9362575e-12
0.014574324
1.4638663e-11
0.014583041
1.7663038e-11
0.014591177
1.1696579e-11
0.014598771
3.662129e-12
0.014605861
-7.1527087e-12
0.014612479
-1.5925144e-11
0.014618658
-1.5635086e-11
0.014624427
-6.0723339e-12
0.014629813
5.5538483e-12
0.014634842
1.8909596e-11
0.014639537
2.5022818e-11
0.014643921
2.2246694e-11
0.014648015
1.1847388e-11
0.014651837
1.1167208e-12
0.014655407
-1.2543652e-11
0.01465874
-2.0613827e-11
0.014661853
-1.7785432e-11
0.01466476
-7.8616222e-12
0.014667475
8.5243051e-12
0.01467001
2.7910012e-11
0.014672377
3.626773e-11
0.014674588
3.3178773e-11
0.014676653
1.4032857e-11
0.014678582
-8.0559436e-12
0.014680383
-2.9863272e-11
0.014682065
-4.1320374e-11
0.014683636
-2.7481077e-11
0.014685104
-2.8861575e-12
0.014686474
3.1565927e-11
0.014687754
5.4629205e-11
0.01468895
4.8147487e-11
0.014690067
2.1830001e-11
0.014691109
-5.6366166e-12
0.014692084
-4.1284049e-11
0.014692993
-5.5127782e-11
0.014693843
-2.259489e-11
0.014694637
9.3171123e-12
0.014695379
2.1688018e-11
0.014696071
5.7530455e-11
0.014696718
1.1825484e-10
0.014697323
5.6165129e-11
0.014697888
-6.9243519e-11
0.014698412
-1.080677e-10
0.014698906
-9.8294967e-11
0.014699366
3.3713309e-11
0.014699799
1.4621036e-10
0.014700195
8.7564072e-11
0.014700576
-2.3935276e-11
0.014700926
-8.1113914e-11
0.014701264
-8.963971e-11
-7.5142816e-11
0.010068394
-6.8393558e-05
0.010267405
-0.00019901113
0.010549879
-0.00028247388
0.010858545
-0.00030866649
0.011167288
-0.00030874342
0.011466046
-0.00029875789
0.01174706
-0.00028101346
0.012004047
-0.00025698756
0.012234567
-0.00023051983
0.012439713
-0.00020514591
0.012622275
-0.00018256236
0.012785275
-0.00016299957
0.0129315
-0.00014622491
0.013063403
-0.00013190312
0.013183077
-0.00011967426
0.013292252
-0.00010917461
0.013392321
-0.00010006907
0.013484397
-9.2076362e-05
0.013569373
-8.4975248e-05
0.013647971
-7.8598609e-05
0.013720794
-7.28223e-05
0.013788347
-6.7553935e-05
0.013851071
-6.2723924e-05
0.01390935
-5.8278898e-05
0.013963527
-5.4176989e-05
0.014013912
-5.0384435e-05
0.014060785
-4.6873166e-05
0.014104404
-4.3619179e-05
0.014145005
-4.0601457e-05
0.014182807
-3.7801275e-05
0.014218009
-3.5201752e-05
0.014250796
-3.2787532e-05
0.014281341
-3.0544597e-05
0.014309801
-2.8460098e-05
0.014336323
-2.6522229e-05
0.014361043
-2.4720139e-05
0.014384087
-2.3043843e-05
0.014405571
-2.1484141e-05
0.014425604
-2.003255e-05
0.014444285
-1.8681257e-05
0.014461708
-1.7423053e-05
0.014477959
-1.6251272e-05
0.014493119
-1.5159762e-05
0.014507262
-1.4142837e-05
0.014520457
-1.3195235e-05
0.014532769
-1.2312087e-05
0.014544258
-1.1488882e-05
0.01455498
-1.0721444e-05
0.014564985
-1.0005901e-05
0.014574324
-9.3386685e-06
0.014583041
-8.716419e-06
0.014591177
-8.1360527e-06
0.014598771
-7.5946966e-06
0.014605861
-7.0896792e-06
0.014612479
-6.6185171e-06
0.014618658
-6.178906e-06
0.014624427
-5.7687034e-06
0.014629813
-5.3859199e-06
0.014634842
-5.0286944e-06
0.014639537
-4.6952983e-06
0.014643921
-4.3841374e-06
0.014648015
-4.0937079e-06
0.014651837
-3.8226111e-06
0.014655407
-3.5695458e-06
0.01465874
-3.3333072e-06
0.014661853
-3.1127584e-06
0.01466476
-2.9068483e-06
0.014667475
-2.7146056e-06
0.01467001
-2.5351224e-06
0.014672377
-2.3675392e-06
0.014674588
-2.2110836e-06
0.014676653
-2.0649862e-06
0.014678582
-1.9285739e-06
0.014680383
-1.8011815e-06
0.014682065
-1.6822258e-06
0.014683636
-1.5711162e-06
0.014685104
-1.4673833e-06
0.014686474
-1.3704862e-06
0.014687754
-1.2800614e-06
0.01468895
-1.1955437e-06
0.014690067
-1.1167079e-06
0.01469111
-1.0429516e-06
0.014692084
-9.7421445e-07
0.014692993
-9.0976448e-07
0.014693843
-8.4994521e-07
0.014694637
-7.9365231e-07
0.014695379
-7.4158673e-07
0.014696071
-6.9212052e-07
0.014696718
-6.4727868e-07
0.014697323
-6.038222e-07
0.014697887
-5.6525376e-07
0.014698412
-5.2610058e-07
0.014698906
-4.9357748e-07
0.014699367
-4.5817532e-07
0.014699798
-4.3275421e-07
0.014700195
-3.991151e-07
0.014700577
-3.8081447e-07
0.014700926
-3.4702067e-07
0.014701264
-3.3804506e-07
-3.0572402e-07
0.010097182
-0.00016557515
0.010346961
-0.000448791
0.010662469
-0.00059798177
0.010982753
-0.00062895025
0.011290229
-0.00061621886
0.011575251
-0.00058378055
0.011829022
-0.0005347842
0.012047865
-0.0004758305
0.012233272
-0.00041592666
0.01238924
-0.000361114
0.012520295
-0.00031361712
0.012630755
-0.00027346026
0.012724428
-0.00023989719
0.012804515
-0.00021199031
0.012873613
-0.00018877261
0.012933772
-0.00016933388
0.012986596
-0.00015289296
0.013033332
-0.00013881182
0.01307495
-0.00012659379
0.013112216
-0.00011586444
0.013145739
-0.00010634493
0.013176012
-9.7826999e-05
0.013203441
-9.0153363e-05
0.013228366
-8.3203368e-05
0.013251071
-7.6882617e-05
0.013271802
-7.1115565e-05
0.01329077
-6.5840294e-05
0.013308155
-6.1004907e-05
0.013324119
-5.6565067e-05
0.0133388
-5.2482335e-05
0.013352321
-4.8723023e-05
0.013364791
-4.5257387e-05
0.013376306
-4.2058997e-05
0.01338695
-3.9104275e-05
0.0133968
-3.6372126e-05
0.013405923
-3.3843613e-05
0.013414381
-3.1501697e-05
0.013422228
-2.9331016e-05
0.013429513
-2.7317697e-05
0.013436281
-2.5449172e-05
0.013442572
-2.3714041e-05
0.013448423
-2.2101948e-05
0.013453866
-2.0603456e-05
0.013458933
-1.9209955e-05
0.013463652
-1.7913577e-05
0.013468047
-1.6707124e-05
0.013472142
-1.5583992e-05
0.013475959
-1.4538117e-05
0.013479517
-1.356393e-05
0.013482834
-1.2656295e-05
0.013485928
-1.1810473e-05
0.013488814
-1.1022097e-05
0.013491507
-1.0287124e-05
0.013494019
-9.6018171e-06
0.013496363
-8.962721e-06
0.013498551
-8.3666416e-06
0.013500593
-7.8106178e-06
0.013502499
-7.2918925e-06
0.013504278
-6.8079221e-06
0.013505939
-6.3563382e-06
0.01350749
-5.934929e-06
0.013508938
-5.5416487e-06
0.01351029
-5.1745924e-06
0.013511552
-4.8319793e-06
0.013512731
-4.512152e-06
0.013513832
-4.2135843e-06
0.01351486
-3.9348592e-06
0.01351582
-3.6746429e-06
0.013516716
-3.4317159e-06
0.013517554
-3.204918e-06
0.013518336
-2.9931627e-06
0.013519066
-2.7954361e-06
0.013519748
-2.6108048e-06
0.013520386
-2.4383676e-06
0.013520981
-2.2773475e-06
0.013521537
-2.1269557e-06
0.013522056
-1.98655e-06
0.013522541
-1.8553943e-06
0.013522994
-1.7329883e-06
0.013523417
-1.6186109e-06
0.013523812
-1.5118918e-06
0.013524181
-1.4120741e-06
0.013524526
-1.3190375e-06
0.013524848
-1.2318434e-06
0.013525149
-1.1507629e-06
0.01352543
-1.0745681e-06
0.013525692
-1.0040604e-06
0.013525937
-9.3724719e-07
0.013526166
-8.7630542e-07
0.01352638
-8.1777941e-07
0.01352658
-7.6501964e-07
0.013526766
-7.1250664e-07
0.013526941
-6.683401e-07
0.013527104
-6.2133591e-07
0.013527256
-5.8526894e-07
0.013527398
-5.4104564e-07
0.013527533
-5.1517252e-07
0.013527659
-4.7223082e-07
0.013527779
-4.5902274e-07
-4.1607804e-07
0.010188704
-0.00035427932
0.010530487
-0.00079057335
0.010851453
-0.0009189482
0.011124174
-0.00090167137
0.011350581
-0.00084262623
0.011524486
-0.00075768559
0.01164633
-0.00065662744
0.011724155
-0.00055365586
0.011767999
-0.00045977083
0.011786639
-0.00037975354
0.011787114
-0.00031409259
0.011775058
-0.00026140427
0.011754861
-0.0002196995
0.011729768
-0.00018689787
0.011702054
-0.00016105802
0.011673239
-0.00014051894
0.011644339
-0.00012399295
0.011616003
-0.00011047599
0.011588629
-9.9219865e-05
0.011562446
-8.9681402e-05
0.011537572
-8.1470669e-05
0.011514052
-7.4307849e-05
0.01149189
-6.79905e-05
0.011471056
-6.2369993e-05
0.011451509
-5.7335016e-05
0.011433193
-5.2800185e-05
0.011416051
-4.8698265e-05
0.011400021
-4.4974952e-05
0.011385042
-4.1585389e-05
0.011371051
-3.8491845e-05
0.01135799
-3.5662155e-05
0.011345801
-3.3068611e-05
0.01133443
-3.0687173e-05
0.011323822
-2.8496852e-05
0.011313929
-2.6479245e-05
0.011304704
-2.461815e-05
0.011296101
-2.289925e-05
0.01128808
-2.1309852e-05
0.011280601
-1.9838664e-05
0.011273628
-1.8475609e-05
0.011267125
-1.7211661e-05
0.011261062
-1.6038715e-05
0.011255408
-1.4949472e-05
0.011250135
-1.3937334e-05
0.011245218
-1.2996323e-05
0.011240632
-1.2121012e-05
0.011236354
-1.1306459e-05
0.011232364
-1.0548157e-05
0.011228643
-9.8419776e-06
0.01122517
-9.1841344e-06
0.011221931
-8.5711444e-06
0.011218909
-7.9998007e-06
0.011216089
-7.46715e-06
0.011213457
-6.9704663e-06
0.011211002
-6.5072371e-06
0.01120871
-6.0751412e-06
0.011206572
-5.6720315e-06
0.011204576
-5.2959237e-06
0.011202713
-4.9449761e-06
0.011200974
-4.6174757e-06
0.011199351
-4.311826e-06
0.011197836
-4.0265382e-06
0.011196421
-3.760231e-06
0.011195101
-3.5116133e-06
0.011193868
-3.2794895e-06
0.011192718
-3.0627511e-06
0.011191643
-2.86038e-06
0.01119064
-2.6714279e-06
0.011189703
-2.4950135e-06
0.011188829
-2.3303027e-06
0.011188012
-2.1765173e-06
0.011187249
-2.0329036e-06
0.011186537
-1.8987839e-06
0.011185873
-1.7734972e-06
0.011185252
-1.6564744e-06
0.011184672
-1.5471497e-06
0.01118413
-1.4450657e-06
0.011183625
-1.3497098e-06
0.011183152
-1.2607088e-06
0.011182711
-1.1775604e-06
0.0111823
-1.0999928e-06
0.011181915
-1.0274551e-06
0.011181556
-9.5980439e-07
0.01118122
-8.9644098e-07
0.011180907
-8.374404e-07
0.011180614
-7.8197147e-07
0.011180341
-7.3056896e-07
0.011180086
-6.8219956e-07
0.011179847
-6.3766448e-07
0.011179624
-5.950227e-07
0.011179416
-5.5652868e-07
0.011179222
-5.1914821e-07
0.01117904
-4.8629425e-07
0.011178872
-4.5280726e-07
0.011178712
-4.2543285e-07
0.011178566
-3.9519258e-07
0.011178425
-3.7416236e-07
0.0111783
-3.4706194e-07
0.011178177
-3.3599296e-07
-3.1069674e-07
0.010339525
-0.00069380425
0.010570754
-0.0010218027
0.010606301
-0.00095449448
0.010547572
-0.00084294333
0.010422317
-0.0007173708
0.010244356
-0.00057972444
0.010039421
-0.00045169205
0.0098287427
-0.00034297801
0.009625135
-0.00025616318
0.0094353013
-0.00018991983
0.0092624277
-0.00014121897
0.0091075332
-0.0001065098
0.008970154
-8.2320226e-05
0.0088489023
-6.5646249e-05
0.0087419716
-5.4127254e-05
0.0086474927
-4.6040044e-05
0.008563694
-4.0194285e-05
0.0084890108
-3.579275e-05
0.0084221096
-3.2318756e-05
0.0083618775
-2.9449281e-05
0.0083073954
-2.6988579e-05
0.0082579079
-2.4820304e-05
0.0082127929
-2.2875483e-05
0.0081715353
-2.1112419e-05
0.0081337049
-1.9504656e-05
0.0080989388
-1.8034016e-05
0.0080669272
-1.6686726e-05
0.0080374036
-1.5451363e-05
0.0080101361
-1.4317863e-05
0.0079849213
-1.3277072e-05
0.0079615798
-1.2320591e-05
0.0079399519
-1.144072e-05
0.0079198952
-1.0630434e-05
0.0079012817
-9.8833651e-06
0.0078839962
-9.1937721e-06
0.0078679345
-8.5564982e-06
0.0078530022
-7.9669222e-06
0.0078391133
-7.4209074e-06
0.0078261893
-6.9147496e-06
0.0078141589
-6.445126e-06
0.0078029563
-6.0090515e-06
0.0077925214
-5.6038391e-06
0.007782799
-5.2270632e-06
0.0077737382
-4.8765291e-06
0.0077652921
-4.5502459e-06
0.0077574175
-4.2464027e-06
0.0077500744
-3.9633478e-06
0.0077432258
-3.6995726e-06
0.0077368375
-3.4536934e-06
0.0077308778
-3.2244351e-06
0.0077253173
-3.0106223e-06
0.0077201286
-2.8111705e-06
0.0077152866
-2.6250779e-06
0.0077107675
-2.4514188e-06
0.0077065496
-2.2893394e-06
0.0077026126
-2.1380519e-06
0.0076989373
-1.9968246e-06
0.0076955064
-1.8649799e-06
0.0076923033
-1.74189e-06
0.0076893128
-1.6269672e-06
0.0076865206
-1.5196605e-06
0.0076839135
-1.4194564e-06
0.0076814792
-1.3258761e-06
0.007679206
-1.2384715e-06
0.0076770834
-1.1568294e-06
0.0076751012
-1.0805693e-06
0.0076732502
-1.0093392e-06
0.0076715216
-9.428119e-07
0.0076699072
-8.806844e-07
0.0076683996
-8.2266568e-07
0.0076669915
-7.6848354e-07
0.0076656765
-7.1787459e-07
0.0076644483
-6.7059787e-07
0.0076633013
-6.2642012e-07
0.00766223
-5.8514346e-07
0.0076612294
-5.465716e-07
0.0076602949
-5.1054683e-07
0.007659422
-4.7689161e-07
0.0076586068
-4.454804e-07
0.0076578453
-4.1613108e-07
0.0076571341
-3.8875035e-07
0.0076564698
-3.631462e-07
0.0076558493
-3.392654e-07
0.0076552697
-3.1688378e-07
0.0076547284
-2.9604832e-07
0.0076542229
-2.7646346e-07
0.0076537506
-2.582736e-07
0.0076533094
-2.4116859e-07
0.0076528971
-2.2547749e-07
0.0076525126
-2.1041194e-07
0.0076521529
-1.9666424e-07
0.0076518173
-1.8360998e-07
0.0076515029
-1.7206103e-07
0.0076512106
-1.6041331e-07
0.0076509355
-1.5029535e-07
0.0076506807
-1.404113e-07
0.0076504386
-1.3209104e-07
0.0076502165
-1.2500256e-07
0.0076499999
-1.1933199e-07
-1.2571529e-07
0.0093061957
0.0082843931
0.0073298986
0.0064869553
0.0057695845
0.00518986
0.004738168
0.00439519
0.0041390268
0.0039491069
0.003807888
0.0037013782
0.003619058
0.0035534117
0.0034992845
0.0034532444
0.0034130501
0.0033772574
0.0033449386
0.0033154893
0.0032885008
0.0032636805
0.003240805
0.0032196926
0.0032001879
0.0031821539
0.0031654672
0.0031500158
0.0031356979
0.0031224208
0.0031101003
0.0030986595
0.0030880291
0.0030781458
0.003068952
0.0030603955
0.0030524286
0.0030450077
0.0030380929
0.0030316478
0.0030256387
0.0030200349
0.0030148078
0.0030099313
0.0030053811
0.0030011347
0.0029971713
0.0029934717
0.002990018
0.0029867936
0.0029837829
0.0029809718
0.0029783467
0.0029758953
0.002973606
0.002971468
0.0029694711
0.0029676061
0.0029658642
0.0029642372
0.0029627175
0.0029612981
0.0029599722
0.0029587338
0.002957577
0.0029564965
0.0029554871
0.0029545443
0.0029536635
0.0029528408
0.0029520723
0.0029513545
0.0029506839
0.0029500575
0.0029494724
0.0029489259
0.0029484153
0.0029479384
0.0029474928
0.0029470767
0.0029466879
0.0029463248
0.0029459856
0.0029456687
0.0029453727
0.0029450963
0.002944838
0.0029445966
0.0029443711
0.002944161
0.0029439642
0.0029437803
0.0029436083
0.0029434482
0.0029432979
0.0029431574
0.0029430253
0.0029429003
0.0029427809
)
;

boundaryField
{
    top
    {
        type            calculated;
        value           uniform 0;
    }
    inlet
    {
        type            calculated;
        value           nonuniform List<scalar> 10(-0.01 -0.01 -0.01 -0.01 -0.01 -0.01 -0.01 -0.01 -0.01 -0.01);
    }
    outlet
    {
        type            calculated;
        value           nonuniform List<scalar> 10(0.0029426551 0.0076498148 0.011178072 0.01352789 0.014701569 0.014701569 0.01352789 0.011178072 0.0076498149 0.0029426552);
    }
    bottom
    {
        type            calculated;
        value           uniform 0;
    }
    back
    {
        type            empty;
        value           nonuniform 0();
    }
    front
    {
        type            empty;
        value           nonuniform 0();
    }
}


// ************************************************************************* //
