/*--------------------------------*- C++ -*----------------------------------*\
| =========                 |                                                 |
| \\      /  F ield         | OpenFOAM: The Open Source CFD Toolbox           |
|  \\    /   O peration     | Version:  v1812                                 |
|   \\  /    A nd           | Web:      www.OpenFOAM.com                      |
|    \\/     M anipulation  |                                                 |
\*---------------------------------------------------------------------------*/
FoamFile
{
    version     2.0;
    format      ascii;
    class       surfaceScalarField;
    location    "17";
    object      phi;
}
// * * * * * * * * * * * * * * * * * * * * * * * * * * * * * * * * * * * * * //

dimensions      [0 3 -1 0 0 0 0];
oriented        oriented;


internalField   nonuniform List<scalar> 
1890
(
0.0032604265
1.6538616e-06
0.003254757
5.6705522e-06
0.0032476274
7.1298724e-06
0.0032410584
6.5688245e-06
0.0032357566
5.301419e-06
0.0032315676
4.1885575e-06
0.003228129
3.4382116e-06
0.003225181
2.9476652e-06
0.0032225979
2.5828767e-06
0.0032203239
2.2736481e-06
0.0032183196
2.0040668e-06
0.0032165427
1.7766864e-06
0.0032149516
1.5908603e-06
0.0032135121
1.4393456e-06
0.0032121992
1.3127608e-06
0.0032109954
1.203621e-06
0.0032098879
1.1074009e-06
0.0032088662
1.0216558e-06
0.0032079212
9.4485475e-07
0.0032070454
8.757357e-07
0.0032062322
8.1316265e-07
0.0032054759
7.5617295e-07
0.0032047719
7.040105e-07
0.0032041157
6.5609251e-07
0.0032035037
6.119562e-07
0.0032029325
5.7121148e-07
0.0032023989
5.3352156e-07
0.0032019003
4.9859028e-07
0.0032014341
4.6616153e-07
0.003200998
4.3601014e-07
0.0032005901
4.0794096e-07
0.0032002083
3.8177928e-07
0.0031998509
3.5737197e-07
0.0031995163
3.3457971e-07
0.003199203
3.1327996e-07
0.0031989096
2.9335985e-07
0.0031986349
2.7472003e-07
0.0031983776
2.5726778e-07
0.0031981367
2.4092145e-07
0.0031979111
2.2560374e-07
0.0031976998
2.1124668e-07
0.003197502
1.9778509e-07
0.0031973169
1.8516181e-07
0.0031971435
1.7332123e-07
0.0031969813
1.6221481e-07
0.0031968295
1.517947e-07
0.0031966875
1.4201939e-07
0.0031965546
1.328473e-07
0.0031964304
1.2424266e-07
0.0031963142
1.1616917e-07
0.0031962056
1.0859586e-07
0.0031961042
1.0149079e-07
0.0031960093
9.4827021e-08
0.0031959208
8.8576386e-08
0.003195838
8.271541e-08
0.0031957608
7.7219113e-08
0.0031956888
7.2066977e-08
0.0031956215
6.7236841e-08
0.0031955588
6.2710794e-08
0.0031955004
5.8469072e-08
0.0031954459
5.4496006e-08
0.0031953951
5.0773996e-08
0.0031953478
4.7289368e-08
0.0031953038
4.4026364e-08
0.0031952628
4.0973027e-08
0.0031952247
3.8115275e-08
0.0031951893
3.5442694e-08
0.0031951563
3.2942624e-08
0.0031951257
3.0605973e-08
0.0031950973
2.8421384e-08
0.0031950709
2.6380977e-08
0.0031950464
2.4474481e-08
0.0031950237
2.2695059e-08
0.0031950027
2.1033448e-08
0.0031949832
1.9483792e-08
0.0031949652
1.8037637e-08
0.0031949485
1.6690009e-08
0.0031949331
1.5433169e-08
0.0031949188
1.4263047e-08
0.0031949057
1.3172374e-08
0.0031948935
1.2158012e-08
0.0031948823
1.1212946e-08
0.003194872
1.0335211e-08
0.0031948625
9.5175413e-09
0.0031948537
8.7595639e-09
0.0031948456
8.0530545e-09
0.0031948382
7.4001537e-09
0.0031948315
6.7903124e-09
0.0031948252
6.2297545e-09
0.0031948195
5.7034607e-09
0.0031948143
5.2244757e-09
0.0031948095
4.7697959e-09
0.0031948052
4.3633485e-09
0.0031948012
3.9693763e-09
0.0031947976
3.6272487e-09
0.0031947943
3.285259e-09
0.0031947913
2.9996354e-09
0.0031947886
2.7140938e-09
0.0031947861
2.4882065e-09
2.407375e-09
0.0082097646
1.7735224e-06
0.0082076176
7.8188754e-06
0.0082035877
1.1160301e-05
0.0081987697
1.1386704e-05
0.0081939963
1.0074347e-05
0.0081895223
8.6621817e-06
0.0081853305
7.6297101e-06
0.0081813796
6.8983902e-06
0.008177671
6.2911716e-06
0.0081742261
5.718378e-06
0.008171053
5.1769397e-06
0.0081681394
4.690101e-06
0.0081654613
4.2687465e-06
0.0081629936
3.9069075e-06
0.0081607145
3.5917229e-06
0.0081586061
3.3119752e-06
0.0081566527
3.0606566e-06
0.0081548405
2.8337446e-06
0.0081531569
2.6283838e-06
0.0081515906
2.4419679e-06
0.0081501317
2.2720365e-06
0.0081487714
2.1164433e-06
0.0081475019
1.9734368e-06
0.0081463163
1.8416142e-06
0.0081452084
1.7198188e-06
0.0081441725
1.6070645e-06
0.0081432035
1.5024887e-06
0.0081422967
1.4053379e-06
0.0081414479
1.3149501e-06
0.0081406532
1.2307479e-06
0.0081399089
1.1522192e-06
0.0081392117
1.0789119e-06
0.0081385587
1.0104189e-06
0.0081379468
9.463775e-07
0.0081373736
8.8645768e-07
0.0081368366
8.303637e-07
0.0081363335
7.7782412e-07
0.0081358622
7.2859461e-07
0.0081354206
6.8244882e-07
0.0081350071
6.3918219e-07
0.0081346197
5.986036e-07
0.0081342569
5.6054004e-07
0.0081339173
5.2482863e-07
0.0081335993
4.9132158e-07
0.0081333016
4.5987876e-07
0.008133023
4.3037309e-07
0.0081327623
4.0268321e-07
0.0081325185
3.7669901e-07
0.0081322904
3.5231466e-07
0.0081320771
3.2943437e-07
0.0081318778
3.0796548e-07
0.0081316914
2.8782417e-07
0.0081315173
2.689289e-07
0.0081313547
2.5120624e-07
0.0081312028
2.3458425e-07
0.0081310611
2.1899835e-07
0.0081309288
2.0438486e-07
0.0081308053
1.9068698e-07
0.0081306902
1.7784834e-07
0.0081305828
1.658188e-07
0.0081304828
1.545483e-07
0.0081303896
1.4399271e-07
0.0081303027
1.3410759e-07
0.0081302219
1.2485396e-07
0.0081301467
1.1619226e-07
0.0081300767
1.0808815e-07
0.0081300117
1.0050649e-07
0.0081299512
9.3416934e-08
0.008129895
8.6788119e-08
0.0081298428
8.0593352e-08
0.0081297944
7.4804742e-08
0.0081297495
6.9398668e-08
0.0081297078
6.4350253e-08
0.0081296692
5.9638692e-08
0.0081296335
5.5241924e-08
0.0081296004
5.1141441e-08
0.0081295698
4.7317712e-08
0.0081295414
4.375424e-08
0.0081295153
4.0434058e-08
0.0081294911
3.7342014e-08
0.0081294688
3.4463777e-08
0.0081294482
3.1784915e-08
0.0081294293
2.9294394e-08
0.0081294118
2.6977084e-08
0.0081293958
2.4826499e-08
0.008129381
2.282465e-08
0.0081293674
2.0972456e-08
0.008129355
1.9244727e-08
0.0081293435
1.765517e-08
0.0081293331
1.6163628e-08
0.0081293235
1.4807232e-08
0.0081293147
1.3515915e-08
0.0081293067
1.2370316e-08
0.0081292995
1.1242096e-08
0.0081292928
1.0295258e-08
0.0081292868
9.2888935e-09
0.0081292812
8.5528335e-09
0.0081292763
7.624749e-09
0.0081292716
7.1811283e-09
6.2493653e-09
0.011738217
1.2856114e-06
0.011739541
6.4961831e-06
0.011740722
9.9803139e-06
0.011741312
1.0795994e-05
0.011741437
9.9486187e-06
0.011741265
8.8336128e-06
0.011740863
8.0322963e-06
0.011740267
7.4937565e-06
0.011739523
7.0348434e-06
0.011738683
6.5584542e-06
0.011737789
6.0703016e-06
0.011736872
5.6073235e-06
0.011735949
5.1912532e-06
0.011735034
4.8222215e-06
0.011734135
4.4904451e-06
0.01173326
4.1869099e-06
0.011732414
3.9067189e-06
0.0117316
3.6477236e-06
0.01173082
3.4084871e-06
0.011730074
3.187362e-06
0.011729364
2.9825243e-06
0.011728688
2.7922723e-06
0.011728046
2.6151876e-06
0.011727437
2.4501147e-06
0.011726861
2.2960769e-06
0.011726316
2.1522061e-06
0.011725801
2.0177162e-06
0.011725314
1.8918936e-06
0.011724855
1.7740965e-06
0.011724422
1.6637458e-06
0.011724014
1.5603188e-06
0.011723629
1.4633383e-06
0.011723267
1.372369e-06
0.011722927
1.2870097e-06
0.011722606
1.2068935e-06
0.011722305
1.1316798e-06
0.011722022
1.0610565e-06
0.011721756
9.947324e-07
0.011721506
9.3243956e-07
0.011721271
8.7392692e-07
0.01172105
8.1896302e-07
0.011720844
7.6732999e-07
0.01172065
7.188267e-07
0.011720468
6.7326308e-07
0.011720297
6.3046357e-07
0.011720137
5.902616e-07
0.011719987
5.5250332e-07
0.011719847
5.1704218e-07
0.011719716
4.8374293e-07
0.011719593
4.5247632e-07
0.011719477
4.231231e-07
0.01171937
3.9556896e-07
0.011719269
3.6970862e-07
0.011719175
3.4544081e-07
0.011719087
3.2267241e-07
0.011719004
3.0131356e-07
0.011718927
2.8128188e-07
0.011718856
2.6249758e-07
0.011718789
2.4488768e-07
0.011718726
2.2838126e-07
0.011718668
2.1291372e-07
0.011718613
1.9842202e-07
0.011718562
1.8484891e-07
0.011718515
1.7213829e-07
0.011718471
1.6023951e-07
0.01171843
1.4910268e-07
0.011718392
1.3868291e-07
0.011718356
1.2893578e-07
0.011718323
1.1982161e-07
0.011718293
1.1130084e-07
0.011718264
1.0333838e-07
0.011718238
9.5898935e-08
0.011718213
8.8951582e-08
0.01171819
8.246481e-08
0.011718169
7.6411422e-08
0.011718149
7.0763108e-08
0.011718131
6.5496234e-08
0.011718114
6.0585125e-08
0.011718099
5.6009631e-08
0.011718084
5.1745848e-08
0.011718071
4.7777529e-08
0.011718059
4.4081357e-08
0.011718047
4.0646008e-08
0.011718037
3.7446493e-08
0.011718027
3.4478986e-08
0.011718018
3.1712701e-08
0.01171801
2.9156606e-08
0.011718003
2.6765957e-08
0.011717996
2.4573578e-08
0.01171799
2.2504747e-08
0.011717984
2.063834e-08
0.011717978
1.8837808e-08
0.011717973
1.7272238e-08
0.011717969
1.5680963e-08
0.011717965
1.4411391e-08
0.011717961
1.2959476e-08
0.011717958
1.2017603e-08
0.011717955
1.0618408e-08
0.011717952
1.0092027e-08
8.6916696e-09
0.013995942
6.5514158e-07
0.013998891
3.5486977e-06
0.014003205
5.6658464e-06
0.014007677
6.3237346e-06
0.014011682
5.9431848e-06
0.014015179
5.3365895e-06
0.014018298
4.9128677e-06
0.014021141
4.650971e-06
0.014023742
4.433462e-06
0.014026108
4.1916503e-06
0.01402825
3.928394e-06
0.014030187
3.6701503e-06
0.014031945
3.4337401e-06
0.014033546
3.2210572e-06
0.014035009
3.0267532e-06
0.01403635
2.8457056e-06
0.014037581
2.6754991e-06
0.014038714
2.5155032e-06
0.014039757
2.365451e-06
0.014040719
2.2248081e-06
0.014041609
2.0928167e-06
0.014042432
1.9687269e-06
0.014043195
1.8519186e-06
0.014043904
1.7419031e-06
0.014044561
1.6382639e-06
0.014045173
1.5406244e-06
0.014045742
1.448625e-06
0.014046272
1.3619327e-06
0.014046766
1.2802339e-06
0.014047226
1.2032435e-06
0.014047656
1.1306905e-06
0.014048057
1.0623269e-06
0.014048431
9.979138e-07
0.014048781
9.3723185e-07
0.014049108
8.8006821e-07
0.014049413
8.2622862e-07
0.014049699
7.7552321e-07
0.014049966
7.2777945e-07
0.014050215
6.8282753e-07
0.014050449
6.4051402e-07
0.014050667
6.0068689e-07
0.014050871
5.6320952e-07
0.014051062
5.2794566e-07
0.01405124
4.9477378e-07
0.014051407
4.6357174e-07
0.014051563
4.3423136e-07
0.014051709
4.0664305e-07
0.014051846
3.8071066e-07
0.014051973
3.5633591e-07
0.014052092
3.3343326e-07
0.014052203
3.1191451e-07
0.014052307
2.9170375e-07
0.014052404
2.7272185e-07
0.014052495
2.549014e-07
0.014052579
2.3817137e-07
0.014052658
2.2247207e-07
0.014052732
2.0773978e-07
0.0140528
1.9392163e-07
0.014052864
1.8096039e-07
0.014052924
1.688094e-07
0.014052979
1.5741732e-07
0.014053031
1.467429e-07
0.014053079
1.3674004e-07
0.014053124
1.2737246e-07
0.014053165
1.1859877e-07
0.014053204
1.1038699e-07
0.01405324
1.0269993e-07
0.014053273
9.5509552e-08
0.014053304
8.8782461e-08
0.014053333
8.2494019e-08
0.01405336
7.6614181e-08
0.014053385
7.1121426e-08
0.014053408
6.5988783e-08
0.014053429
6.1197361e-08
0.014053449
5.6722958e-08
0.014053467
5.2549019e-08
0.014053484
4.8654022e-08
0.014053499
4.5023208e-08
0.014053514
4.1637711e-08
0.014053527
3.8483904e-08
0.014053539
3.5546092e-08
0.01405355
3.2810642e-08
0.014053561
3.0265995e-08
0.01405357
2.7896591e-08
0.014053579
2.5697483e-08
0.014053587
2.3647189e-08
0.014053595
2.1752463e-08
0.014053601
1.9978313e-08
0.014053608
1.8353764e-08
0.014053613
1.6815005e-08
0.014053619
1.5434306e-08
0.014053623
1.4089338e-08
0.014053628
1.2936368e-08
0.014053632
1.1738933e-08
0.014053635
1.081384e-08
0.014053638
9.7093797e-09
0.014053641
9.0369845e-09
0.014053644
7.9548654e-09
0.014053647
7.5903573e-09
6.5425727e-09
0.015095087
3.4001329e-11
0.015098637
1.0451419e-10
0.015104303
4.623152e-11
0.015110626
-4.4344561e-12
0.015116569
3.8519354e-12
0.015121905
6.9634323e-11
0.015126817
1.4254427e-10
0.015131468
1.8558407e-10
0.015135901
1.968837e-10
0.015140092
1.9879371e-10
0.01514402
2.0121744e-10
0.01514769
2.0518573e-10
0.015151123
2.0463108e-10
0.015154344
1.9911386e-10
0.015157371
1.8841036e-10
0.015160216
1.7495488e-10
0.015162891
1.5958447e-10
0.015165406
1.4302432e-10
0.015167772
1.2585707e-10
0.015169996
1.0806031e-10
0.015172089
9.0685085e-11
0.015174058
7.3300159e-11
0.015175909
5.7229494e-11
0.015177651
4.1583375e-11
0.015179289
2.7730699e-11
0.01518083
1.4479653e-11
0.015182279
3.5907069e-12
0.015183641
-7.6456148e-12
0.015184921
-1.6375085e-11
0.015186124
-2.4700147e-11
0.015187255
-3.0944037e-11
0.015188317
-3.7140919e-11
0.015189315
-4.1304329e-11
0.015190252
-4.5813793e-11
0.015191132
-4.8489168e-11
0.015191959
-5.1712364e-11
0.015192734
-5.3208181e-11
0.015193462
-5.5562643e-11
0.015194145
-5.6320508e-11
0.015194785
-5.7978818e-11
0.015195386
-5.8041303e-11
0.015195949
-5.9179318e-11
0.015196477
-5.8771651e-11
0.015196972
-5.9380374e-11
0.015197436
-5.8400733e-11
0.01519787
-5.8566576e-11
0.015198277
-5.7202135e-11
0.015198658
-5.691556e-11
0.015199014
-5.5093586e-11
0.015199348
-5.4490053e-11
0.01519966
-5.2451508e-11
0.015199951
-5.1578036e-11
0.015200224
-4.9284929e-11
0.015200479
-4.8295828e-11
0.015200717
-4.5983511e-11
0.01520094
-4.4901169e-11
0.015201148
-4.2483843e-11
0.015201341
-4.1395891e-11
0.015201522
-3.9032226e-11
0.015201691
-3.7884324e-11
0.015201849
-3.5414794e-11
0.015201996
-3.4225046e-11
0.015202132
-3.175203e-11
0.01520226
-3.0432129e-11
0.015202378
-2.7784777e-11
0.015202489
-2.6355525e-11
0.015202591
-2.3655641e-11
0.015202687
-2.2070426e-11
0.015202776
-1.9207263e-11
0.015202858
-1.7548202e-11
0.015202935
-1.4706619e-11
0.015203006
-1.299497e-11
0.015203072
-1.013857e-11
0.015203133
-8.5052143e-12
0.01520319
-5.8595017e-12
0.015203243
-4.346155e-12
0.015203291
-1.9421786e-12
0.015203336
-6.945101e-13
0.015203378
1.4579268e-12
0.015203416
2.3378397e-12
0.015203452
4.1770078e-12
0.015203485
4.6298776e-12
0.015203515
6.0292255e-12
0.015203543
6.0902489e-12
0.015203569
7.1717037e-12
0.015203592
6.8126565e-12
0.015203614
7.4699487e-12
0.015203634
6.7575759e-12
0.015203652
7.1460571e-12
0.015203669
6.0509228e-12
0.015203685
5.9649976e-12
0.015203699
4.2788394e-12
0.015203712
3.6302658e-12
0.015203723
1.5922135e-12
0.015203734
7.9420938e-13
0.015203744
-1.7339646e-13
0.015203753
-1.1311775e-12
0.015203761
-1.3838076e-12
0.015203768
-5.3151398e-12
-7.8915973e-12
0.015095086
-6.5520397e-07
0.015098636
-3.5490459e-06
0.015104302
-5.6661932e-06
0.015110626
-6.3239088e-06
0.015116568
-5.9431755e-06
0.015121904
-5.3364795e-06
0.015126817
-4.9126856e-06
0.015131468
-4.6507314e-06
0.015135901
-4.433181e-06
0.015140092
-4.1913362e-06
0.01514402
-3.9280572e-06
0.01514769
-3.6697993e-06
0.015151123
-3.4333866e-06
0.015154344
-3.2207101e-06
0.015157371
-3.0264212e-06
0.015160216
-2.8453943e-06
0.015162891
-2.6752134e-06
0.015165407
-2.5152461e-06
0.015167772
-2.3652246e-06
0.015169997
-2.2246135e-06
0.015172089
-2.0926536e-06
0.015174058
-1.9685951e-06
0.01517591
-1.8518164e-06
0.015177651
-1.7418291e-06
0.01517929
-1.6382155e-06
0.01518083
-1.5405999e-06
0.015182279
-1.4486213e-06
0.015183641
-1.3619486e-06
0.015184921
-1.2802663e-06
0.015186124
-1.2032906e-06
0.015187255
-1.1307493e-06
0.015188317
-1.0623965e-06
0.015189315
-9.9799139e-07
0.015190252
-9.3731701e-07
0.015191132
-8.8015859e-07
0.015191959
-8.2632414e-07
0.015192734
-7.7562192e-07
0.015193462
-7.278817e-07
0.015194145
-6.8293152e-07
0.015194786
-6.4062026e-07
0.015195386
-6.0079373e-07
0.01519595
-5.6331767e-07
0.015196478
-5.2805347e-07
0.015196972
-4.9488193e-07
0.015197436
-4.6367864e-07
0.01519787
-4.3433781e-07
0.015198277
-4.0674746e-07
0.015198658
-3.8081379e-07
0.015199014
-3.5643628e-07
0.015199348
-3.3353181e-07
0.015199659
-3.120098e-07
0.015199951
-2.9179673e-07
0.015200224
-2.7281122e-07
0.015200479
-2.5498829e-07
0.015200717
-2.3825452e-07
0.01520094
-2.2255256e-07
0.015201147
-2.0781647e-07
0.015201341
-1.9399569e-07
0.015201522
-1.8103065e-07
0.015201691
-1.6887692e-07
0.015201849
-1.5748095e-07
0.015201995
-1.4680377e-07
0.015202132
-1.3679691e-07
0.01520226
-1.2742632e-07
0.015202378
-1.1864841e-07
0.015202489
-1.1043346e-07
0.015202591
-1.0274199e-07
0.015202687
-9.5548152e-08
0.015202776
-8.8816443e-08
0.015202858
-8.2524451e-08
0.015202935
-7.6639928e-08
0.015203006
-7.1143533e-08
0.015203072
-6.6006261e-08
0.015203133
-6.1211405e-08
0.01520319
-5.6732647e-08
0.015203242
-5.2555549e-08
0.015203291
-4.865663e-08
0.015203336
-4.502317e-08
0.015203378
-4.1634277e-08
0.015203416
-3.8478426e-08
0.015203452
-3.5537907e-08
0.015203485
-3.2801197e-08
0.015203515
-3.0254586e-08
0.015203543
-2.78846e-08
0.015203568
-2.568423e-08
0.015203592
-2.3634131e-08
0.015203614
-2.173884e-08
0.015203634
-1.9965493e-08
0.015203652
-1.8340988e-08
0.015203669
-1.680374e-08
0.015203684
-1.5423842e-08
0.015203698
-1.4081273e-08
0.015203711
-1.2930108e-08
0.015203723
-1.1735872e-08
0.015203734
-1.0812298e-08
0.015203744
-9.7098546e-09
0.015203753
-9.0384587e-09
0.015203761
-7.9564993e-09
0.015203768
-7.5976416e-09
-6.5532012e-09
0.013995943
-1.2855998e-06
0.013998891
-6.496096e-06
0.014003205
-9.9802618e-06
0.014007677
-1.0796023e-05
0.014011682
-9.948657e-06
0.014015179
-8.8336237e-06
0.014018298
-8.0322479e-06
0.01402114
-7.4936559e-06
0.014023742
-7.0346924e-06
0.014026108
-6.5582678e-06
0.01402825
-6.0700842e-06
0.014030187
-5.6070877e-06
0.014031945
-5.1910049e-06
0.014033546
-4.8219715e-06
0.014035009
-4.4901998e-06
0.014036351
-4.1866768e-06
0.014037582
-3.9065025e-06
0.014038714
-3.6475277e-06
0.014039757
-3.4083143e-06
0.014040719
-3.1872128e-06
0.014041609
-2.9824002e-06
0.014042433
-2.7921715e-06
0.014043196
-2.6151109e-06
0.014043904
-2.4500588e-06
0.014044562
-2.2960423e-06
0.014045173
-2.1521887e-06
0.014045742
-2.0177167e-06
0.014046272
-1.8919072e-06
0.014046766
-1.7741246e-06
0.014047227
-1.6637832e-06
0.014047656
-1.560367e-06
0.014048057
-1.4633923e-06
0.014048432
-1.372431e-06
0.014048781
-1.287075e-06
0.014049108
-1.2069645e-06
0.014049414
-1.1317522e-06
0.014049699
-1.0611332e-06
0.014049966
-9.9480906e-07
0.014050216
-9.3251943e-07
0.014050449
-8.7400575e-07
0.014050667
-8.1904438e-07
0.014050871
-7.6740958e-07
0.014051062
-7.1890809e-07
0.014051241
-6.73342e-07
0.014051407
-6.3054377e-07
0.014051563
-5.9033877e-07
0.014051709
-5.525811e-07
0.014051846
-5.1711635e-07
0.014051973
-4.8381733e-07
0.014052092
-4.5254672e-07
0.014052203
-4.2319328e-07
0.014052307
-3.9563481e-07
0.014052404
-3.6977412e-07
0.014052494
-3.4550188e-07
0.014052579
-3.2273294e-07
0.014052658
-3.013696e-07
0.014052731
-2.8133744e-07
0.0140528
-2.6254871e-07
0.014052864
-2.4493825e-07
0.014052923
-2.2842739e-07
0.014052979
-2.1295934e-07
0.01405303
-1.9846319e-07
0.014053079
-1.8488939e-07
0.014053123
-1.7217421e-07
0.014053165
-1.6027468e-07
0.014053204
-1.4913319e-07
0.01405324
-1.3871241e-07
0.014053273
-1.2896046e-07
0.014053304
-1.1984521e-07
0.014053333
-1.1131957e-07
0.01405336
-1.0335588e-07
0.014053384
-9.5911551e-08
0.014053407
-8.8963107e-08
0.014053429
-8.2471628e-08
0.014053448
-7.6417256e-08
0.014053466
-7.0764495e-08
0.014053483
-6.5497045e-08
0.014053499
-6.0581929e-08
0.014053513
-5.6006198e-08
0.014053526
-5.1738893e-08
0.014053539
-4.7770955e-08
0.01405355
-4.4071861e-08
0.01405356
-4.0637367e-08
0.01405357
-3.7435474e-08
0.014053579
-3.4469454e-08
0.014053587
-3.1701357e-08
0.014053594
-2.9147197e-08
0.014053601
-2.6755178e-08
0.014053607
-2.456531e-08
0.014053613
-2.2495599e-08
0.014053618
-2.0632161e-08
0.014053623
-1.8831008e-08
0.014053627
-1.726906e-08
0.014053631
-1.5677416e-08
0.014053635
-1.4411464e-08
0.014053638
-1.2959171e-08
0.014053641
-1.2018396e-08
0.014053644
-1.0617804e-08
0.014053646
-1.0090572e-08
-8.6911234e-09
0.011738217
-1.7734929e-06
0.011739541
-7.8186978e-06
0.011740721
-1.1160078e-05
0.011741312
-1.1386601e-05
0.011741437
-1.0074423e-05
0.011741265
-8.6623661e-06
0.011740863
-7.6299003e-06
0.011740267
-6.8985216e-06
0.011739523
-6.2912269e-06
0.011738683
-5.7183705e-06
0.01173779
-5.1768869e-06
0.011736872
-4.6900167e-06
0.01173595
-4.2686388e-06
0.011735034
-3.9067843e-06
0.011734136
-3.5915921e-06
0.011733261
-3.3118444e-06
0.011732414
-3.0605319e-06
0.0117316
-2.8336299e-06
0.01173082
-2.6282819e-06
0.011730075
-2.44188e-06
0.011729364
-2.2719635e-06
0.011728688
-2.1163847e-06
0.011728047
-1.9733927e-06
0.011727438
-1.8415832e-06
0.011726862
-1.7198006e-06
0.011726317
-1.607057e-06
0.011725801
-1.5024915e-06
0.011725315
-1.4053488e-06
0.011724856
-1.314969e-06
0.011724423
-1.2307724e-06
0.011724014
-1.1522492e-06
0.01172363
-1.0789455e-06
0.011723268
-1.0104563e-06
0.011722927
-9.4641673e-07
0.011722607
-8.8649927e-07
0.011722305
-8.3040604e-07
0.011722022
-7.7786802e-07
0.011721756
-7.2863841e-07
0.011721506
-6.824935e-07
0.011721271
-6.3922638e-07
0.011721051
-5.986484e-07
0.011720844
-5.6058392e-07
0.01172065
-5.248727e-07
0.011720468
-4.9136453e-07
0.011720297
-4.5992174e-07
0.011720137
-4.3041458e-07
0.011719987
-4.0272434e-07
0.011719847
-3.7673848e-07
0.011719716
-3.5235364e-07
0.011719592
-3.2947139e-07
0.011719477
-3.0800171e-07
0.01171937
-2.8785841e-07
0.011719269
-2.6896237e-07
0.011719174
-2.5123756e-07
0.011719086
-2.3461468e-07
0.011719004
-2.1902675e-07
0.011718927
-2.0441251e-07
0.011718855
-1.9071255e-07
0.011718788
-1.7787309e-07
0.011718726
-1.6584162e-07
0.011718667
-1.5457043e-07
0.011718613
-1.4401283e-07
0.011718562
-1.3412689e-07
0.011718515
-1.248713e-07
0.011718471
-1.1620881e-07
0.01171843
-1.0810259e-07
0.011718391
-1.0051996e-07
0.011718356
-9.3428292e-08
0.011718323
-8.6798529e-08
0.011718292
-8.0601519e-08
0.011718264
-7.481182e-08
0.011718237
-6.9403597e-08
0.011718212
-6.4354234e-08
0.01171819
-5.9640527e-08
0.011718168
-5.5242829e-08
0.011718149
-5.114046e-08
0.011718131
-4.7316112e-08
0.011718114
-4.3750922e-08
0.011718098
-4.0430284e-08
0.011718084
-3.7336913e-08
0.011718071
-3.4458652e-08
0.011718058
-3.1778721e-08
0.011718047
-2.9288413e-08
0.011718036
-2.6970451e-08
0.011718027
-2.4820503e-08
0.011718018
-2.2818228e-08
0.01171801
-2.0966879e-08
0.011718002
-1.9239074e-08
0.011717995
-1.7650742e-08
0.011717989
-1.6159261e-08
0.011717983
-1.4804179e-08
0.011717978
-1.3512891e-08
0.011717973
-1.236853e-08
0.011717969
-1.1239965e-08
0.011717964
-1.029478e-08
0.011717961
-9.2891102e-09
0.011717957
-8.5524232e-09
0.011717954
-7.622921e-09
0.011717951
-7.1730373e-09
-6.239682e-09
0.0082097651
-1.6537727e-06
0.008207618
-5.6704101e-06
0.0082035882
-7.1297638e-06
0.0081987703
-6.5688177e-06
0.0081939969
-5.301576e-06
0.0081895229
-4.1888352e-06
0.008185331
-3.4385219e-06
0.00818138
-2.9479234e-06
0.0081776714
-2.5830594e-06
0.0081742264
-2.273763e-06
0.0081710533
-2.0041385e-06
0.0081681397
-1.7767282e-06
0.0081654617
-1.5908818e-06
0.008162994
-1.4393504e-06
0.0081607149
-1.3127545e-06
0.0081586065
-1.2036083e-06
0.0081566532
-1.1073859e-06
0.008154841
-1.0216419e-06
0.0081531575
-9.448428e-07
0.0081515912
-8.7572742e-07
0.0081501323
-8.1315723e-07
0.008148772
-7.561719e-07
0.0081475025
-7.0401217e-07
0.0081463169
-6.5609839e-07
0.008145209
-6.1196398e-07
0.0081441731
-5.7122283e-07
0.0081432041
-5.3353391e-07
0.0081422973
-4.9860551e-07
0.0081414485
-4.6617681e-07
0.0081406537
-4.3602763e-07
0.0081399094
-4.0795775e-07
0.0081392122
-3.8179773e-07
0.0081385591
-3.5738904e-07
0.0081379472
-3.3459803e-07
0.008137374
-3.1329656e-07
0.008136837
-2.9337753e-07
0.0081363338
-2.7473573e-07
0.0081358625
-2.5728447e-07
0.0081354209
-2.4093614e-07
0.0081350073
-2.2561948e-07
0.0081346199
-2.1126036e-07
0.0081342571
-1.9779982e-07
0.0081339174
-1.8517453e-07
0.0081335993
-1.7333504e-07
0.0081333016
-1.6222653e-07
0.008133023
-1.5180746e-07
0.0081327623
-1.4203006e-07
0.0081325184
-1.32859e-07
0.0081322903
-1.2425219e-07
0.008132077
-1.1617966e-07
0.0081318776
-1.086042e-07
0.0081316913
-1.0150012e-07
0.0081315172
-9.4834169e-08
0.0081313545
-8.8584521e-08
0.0081312026
-8.2721479e-08
0.0081310608
-7.7226255e-08
0.0081309285
-7.2072085e-08
0.008130805
-6.7243058e-08
0.0081306899
-6.2715104e-08
0.0081305825
-5.8474567e-08
0.0081304824
-5.4499601e-08
0.0081303892
-5.0778766e-08
0.0081303024
-4.7292307e-08
0.0081302215
-4.4030484e-08
0.0081301463
-4.0975254e-08
0.0081300763
-3.8118608e-08
0.0081300113
-3.544415e-08
0.0081299508
-3.2945151e-08
0.0081298946
-3.0606537e-08
0.0081298424
-2.8422944e-08
0.008129794
-2.6380604e-08
0.0081297491
-2.4475105e-08
0.0081297074
-2.2693718e-08
0.0081296688
-2.1033096e-08
0.008129633
-1.948158e-08
0.0081295999
-1.8036498e-08
0.0081295693
-1.6687057e-08
0.008129541
-1.543136e-08
0.0081295148
-1.4259597e-08
0.0081294907
-1.3170214e-08
0.0081294684
-1.2154308e-08
0.0081294478
-1.1210636e-08
0.0081294289
-1.0331547e-08
0.0081294114
-9.5154151e-09
0.0081293954
-8.7561629e-09
0.0081293806
-8.0512711e-09
0.008129367
-7.3972486e-09
0.0081293546
-6.7891291e-09
0.0081293432
-6.2275073e-09
0.0081293327
-5.7029433e-09
0.0081293231
-5.2228294e-09
0.0081293144
-4.7695798e-09
0.0081293064
-4.3613572e-09
0.0081292991
-3.9686449e-09
0.0081292924
-3.6255553e-09
0.0081292864
-3.2842615e-09
0.0081292809
-2.9982319e-09
0.008129276
-2.7130046e-09
0.0081292713
-2.4823599e-09
-2.398813e-09
0.0032604275
0.0032547575
0.0032476279
0.0032410588
0.003235757
0.0032315679
0.0032281291
0.0032251809
0.0032225977
0.0032203237
0.0032183194
0.0032165425
0.0032149515
0.003213512
0.0032121992
0.0032109955
0.003209888
0.0032088663
0.0032079214
0.0032070456
0.0032062324
0.0032054761
0.0032047721
0.0032041159
0.0032035039
0.0032029327
0.0032023991
0.0032019005
0.0032014343
0.0032009982
0.0032005903
0.0032002085
0.003199851
0.0031995164
0.0031992031
0.0031989097
0.003198635
0.0031983777
0.0031981368
0.0031979111
0.0031976999
0.0031975021
0.0031973169
0.0031971436
0.0031969813
0.0031968295
0.0031966875
0.0031965546
0.0031964304
0.0031963142
0.0031962056
0.0031961041
0.0031960093
0.0031959207
0.003195838
0.0031957607
0.0031956887
0.0031956214
0.0031955587
0.0031955002
0.0031954457
0.003195395
0.0031953477
0.0031953036
0.0031952627
0.0031952246
0.0031951891
0.0031951562
0.0031951256
0.0031950971
0.0031950708
0.0031950463
0.0031950236
0.0031950026
0.0031949831
0.0031949651
0.0031949484
0.0031949329
0.0031949187
0.0031949055
0.0031948934
0.0031948822
0.0031948718
0.0031948623
0.0031948536
0.0031948455
0.0031948381
0.0031948313
0.0031948251
0.0031948194
0.0031948142
0.0031948094
0.003194805
0.0031948011
0.0031947975
0.0031947942
0.0031947912
0.0031947885
0.003194786
)
;

boundaryField
{
    top
    {
        type            calculated;
        value           uniform 0;
    }
    inlet
    {
        type            calculated;
        value           nonuniform List<scalar> 10(-0.0032620793 -0.0082098833 -0.011737728 -0.013995311 -0.015094431 -0.01509443 -0.013995311 -0.011737728 -0.0082098838 -0.0032620806);
    }
    outlet
    {
        type            calculated;
        value           nonuniform List<scalar> 10(0.0031947837 0.0081292678 0.011717949 0.014053649 0.015203775 0.015203775 0.014053648 0.011717949 0.0081292675 0.0031947836);
    }
    bottom
    {
        type            calculated;
        value           uniform 0;
    }
    back
    {
        type            empty;
        value           nonuniform 0();
    }
    front
    {
        type            empty;
        value           nonuniform 0();
    }
}


// ************************************************************************* //
