/*--------------------------------*- C++ -*----------------------------------*\
| =========                 |                                                 |
| \\      /  F ield         | OpenFOAM: The Open Source CFD Toolbox           |
|  \\    /   O peration     | Version:  v1812                                 |
|   \\  /    A nd           | Web:      www.OpenFOAM.com                      |
|    \\/     M anipulation  |                                                 |
\*---------------------------------------------------------------------------*/
FoamFile
{
    version     2.0;
    format      ascii;
    class       volVectorField;
    location    "17";
    object      U;
}
// * * * * * * * * * * * * * * * * * * * * * * * * * * * * * * * * * * * * * //

dimensions      [0 1 -1 0 0 0 0];


internalField   nonuniform List<vector> 
1000
(
(0.32616826 0.00014406179 0)
(0.32586058 0.00043618307 0)
(0.32515943 0.00049506938 0)
(0.32443018 0.0003915329 0)
(0.32382501 0.00026268087 0)
(0.32335289 0.00017569377 0)
(0.32297588 0.00013118974 0)
(0.32265924 0.00010844561 0)
(0.32238384 9.2648872e-05 0)
(0.32214151 7.8977879e-05 0)
(0.32192807 6.7492783e-05 0)
(0.32173955 5.8750089e-05 0)
(0.3215717 5.2436844e-05 0)
(0.32142063 4.7732258e-05 0)
(0.32128336 4.3904873e-05 0)
(0.3211578 4.0549246e-05 0)
(0.32104244 3.7517712e-05 0)
(0.32093616 3.4772223e-05 0)
(0.32083797 3.2289555e-05 0)
(0.32074706 3.0035792e-05 0)
(0.32066273 2.7974441e-05 0)
(0.32058435 2.6076582e-05 0)
(0.32051142 2.432293e-05 0)
(0.32044349 2.270025e-05 0)
(0.32038015 2.1197787e-05 0)
(0.32032105 1.9805334e-05 0)
(0.32026586 1.8513259e-05 0)
(0.3202143 1.731263e-05 0)
(0.32016611 1.6195625e-05 0)
(0.32012104 1.515523e-05 0)
(0.32007888 1.4185315e-05 0)
(0.32003942 1.3280234e-05 0)
(0.3200025 1.2435015e-05 0)
(0.31996793 1.1645026e-05 0)
(0.31993556 1.0906222e-05 0)
(0.31990525 1.0214795e-05 0)
(0.31987687 9.5674377e-06 0)
(0.31985029 8.9609922e-06 0)
(0.31982541 8.3927262e-06 0)
(0.3198021 7.8599817e-06 0)
(0.31978027 7.360477e-06 0)
(0.31975984 6.8919569e-06 0)
(0.31974071 6.4525007e-06 0)
(0.3197228 6.0401706e-06 0)
(0.31970603 5.6533338e-06 0)
(0.31969034 5.2903151e-06 0)
(0.31967567 4.9497182e-06 0)
(0.31966193 4.6300774e-06 0)
(0.31964909 4.3301895e-06 0)
(0.31963708 4.0487688e-06 0)
(0.31962585 3.7847754e-06 0)
(0.31961536 3.53707e-06 0)
(0.31960555 3.3047493e-06 0)
(0.31959639 3.0868047e-06 0)
(0.31958783 2.8824521e-06 0)
(0.31957984 2.6907908e-06 0)
(0.31957238 2.5111381e-06 0)
(0.31956542 2.342693e-06 0)
(0.31955893 2.1848631e-06 0)
(0.31955288 2.0369292e-06 0)
(0.31954724 1.8983765e-06 0)
(0.31954198 1.768563e-06 0)
(0.31953708 1.6470436e-06 0)
(0.31953252 1.5332389e-06 0)
(0.31952827 1.4267626e-06 0)
(0.31952432 1.327096e-06 0)
(0.31952065 1.2339063e-06 0)
(0.31951723 1.1467223e-06 0)
(0.31951406 1.0652564e-06 0)
(0.31951111 9.890846e-07 0)
(0.31950837 9.1796107e-07 0)
(0.31950583 8.5149794e-07 0)
(0.31950348 7.8948469e-07 0)
(0.31950129 7.3157025e-07 0)
(0.31949927 6.7757813e-07 0)
(0.3194974 6.271837e-07 0)
(0.31949566 5.8024072e-07 0)
(0.31949406 5.3645124e-07 0)
(0.31949257 4.9570107e-07 0)
(0.3194912 4.5770661e-07 0)
(0.31948994 4.2238661e-07 0)
(0.31948877 3.8946726e-07 0)
(0.3194877 3.5891002e-07 0)
(0.31948671 3.3042912e-07 0)
(0.31948579 3.0404354e-07 0)
(0.31948495 2.7943354e-07 0)
(0.31948418 2.5670861e-07 0)
(0.31948347 2.3546479e-07 0)
(0.31948282 2.1595321e-07 0)
(0.31948223 1.9762177e-07 0)
(0.31948168 1.8094295e-07 0)
(0.31948118 1.6512328e-07 0)
(0.31948073 1.5093624e-07 0)
(0.31948031 1.3729767e-07 0)
(0.31947993 1.2523266e-07 0)
(0.31947959 1.1364457e-07 0)
(0.31947928 1.0326267e-07 0)
(0.31947898 9.4626368e-08 0)
(0.31947875 8.6146222e-08 0)
(0.31947843 8.9773079e-08 0)
(0.82087343 0.00015754759 0)
(0.82115348 0.00071619594 0)
(0.82074312 0.0010364771 0)
(0.82015005 0.0010467599 0)
(0.81961424 0.0008991793 0)
(0.81915705 0.00073749938 0)
(0.81873922 0.00061807764 0)
(0.818338 0.00053683308 0)
(0.81795318 0.00047469612 0)
(0.81759213 0.00042031675 0)
(0.8172594 0.0003715286 0)
(0.81695486 0.00032952045 0)
(0.81667576 0.00029474848 0)
(0.81641899 0.00026621093 0)
(0.81618199 0.00024232902 0)
(0.81596285 0.00022177593 0)
(0.81575997 0.00020372323 0)
(0.81557191 0.00018770426 0)
(0.81539735 0.00017341385 0)
(0.81523506 0.00016059787 0)
(0.81508399 0.00014902966 0)
(0.81494319 0.00013851899 0)
(0.81481184 0.00012891685 0)
(0.81468922 0.00012010892 0)
(0.81457467 0.00011200479 0)
(0.81446759 0.00010452931 0)
(0.81436745 9.7618053e-05 0)
(0.81427375 9.1215275e-05 0)
(0.81418605 8.5272803e-05 0)
(0.81410395 7.974887e-05 0)
(0.81402707 7.4607093e-05 0)
(0.81395506 6.9815376e-05 0)
(0.81388762 6.534529e-05 0)
(0.81382443 6.1171408e-05 0)
(0.81376523 5.7271011e-05 0)
(0.81370977 5.3623595e-05 0)
(0.81365781 5.0210718e-05 0)
(0.81360913 4.70156e-05 0)
(0.81356353 4.4023049e-05 0)
(0.81352081 4.1219122e-05 0)
(0.8134808 3.8591132e-05 0)
(0.81344332 3.6127357e-05 0)
(0.81340823 3.3817089e-05 0)
(0.81337538 3.1650366e-05 0)
(0.81334462 2.9618054e-05 0)
(0.81331584 2.7711612e-05 0)
(0.8132889 2.5923194e-05 0)
(0.81326369 2.4245414e-05 0)
(0.81324012 2.2671477e-05 0)
(0.81321807 2.119496e-05 0)
(0.81319746 1.9809952e-05 0)
(0.81317819 1.8510835e-05 0)
(0.81316019 1.7292432e-05 0)
(0.81314337 1.6149816e-05 0)
(0.81312766 1.5078449e-05 0)
(0.81311299 1.4073987e-05 0)
(0.8130993 1.3132435e-05 0)
(0.81308652 1.2249962e-05 0)
(0.8130746 1.1423052e-05 0)
(0.81306349 1.0648315e-05 0)
(0.81305313 9.9226441e-06 0)
(0.81304348 9.2430431e-06 0)
(0.81303448 8.6067741e-06 0)
(0.81302611 8.0111777e-06 0)
(0.81301832 7.4538317e-06 0)
(0.81301106 6.9323808e-06 0)
(0.81300432 6.4446889e-06 0)
(0.81299805 5.9886614e-06 0)
(0.81299222 5.5624066e-06 0)
(0.81298681 5.1640662e-06 0)
(0.81298179 4.7919728e-06 0)
(0.81297712 4.4444691e-06 0)
(0.8129728 4.1200802e-06 0)
(0.81296879 3.8173309e-06 0)
(0.81296508 3.5349281e-06 0)
(0.81296164 3.2715473e-06 0)
(0.81295846 3.0260554e-06 0)
(0.81295551 2.7972588e-06 0)
(0.81295279 2.5841883e-06 0)
(0.81295028 2.3857424e-06 0)
(0.81294796 2.2011163e-06 0)
(0.81294582 2.0292609e-06 0)
(0.81294384 1.8695755e-06 0)
(0.81294202 1.7209828e-06 0)
(0.81294035 1.5831501e-06 0)
(0.81293881 1.4548533e-06 0)
(0.8129374 1.3361802e-06 0)
(0.8129361 1.2255345e-06 0)
(0.8129349 1.123686e-06 0)
(0.81293381 1.0282937e-06 0)
(0.81293281 9.4129654e-07 0)
(0.8129319 8.589562e-07 0)
(0.81293106 7.851982e-07 0)
(0.81293029 7.1379812e-07 0)
(0.8129296 6.5209593e-07 0)
(0.81292896 5.895902e-07 0)
(0.81292841 5.3971912e-07 0)
(0.81292783 4.8469001e-07 0)
(0.81292748 4.4986097e-07 0)
(0.81292682 4.0667999e-07 0)
(1.1735428 0.00012514355 0)
(1.1743356 0.00066076696 0)
(1.1743508 0.0010600163 0)
(1.1741717 0.0011843981 0)
(1.174083 0.0011216735 0)
(1.1740857 0.001003406 0)
(1.1740978 0.0009020392 0)
(1.1740717 0.00082833456 0)
(1.1740062 0.0007682929 0)
(1.1739195 0.0007105784 0)
(1.1738265 0.00065311256 0)
(1.1737336 0.00059856141 0)
(1.1736415 0.00054931811 0)
(1.17355 0.00050582705 0)
(1.1734592 0.00046725572 0)
(1.1733702 0.00043256782 0)
(1.1732837 0.00040104406 0)
(1.1732005 0.00037228041 0)
(1.1731206 0.00034601293 0)
(1.1730443 0.00032199852 0)
(1.1729715 0.00029999 0)
(1.1729021 0.00027975568 0)
(1.1728362 0.00026109676 0)
(1.1727737 0.00024384921 0)
(1.1727144 0.00022787599 0)
(1.1726584 0.00021305893 0)
(1.1726054 0.00019929373 0)
(1.1725553 0.00018648786 0)
(1.172508 0.00017455932 0)
(1.1724634 0.00016343559 0)
(1.1724214 0.00015305221 0)
(1.1723818 0.00014335164 0)
(1.1723445 0.00013428211 0)
(1.1723093 0.00012579698 0)
(1.1722763 0.00011785395 0)
(1.1722452 0.00011041465 0)
(1.172216 0.00010344408 0)
(1.1721886 9.6910317e-05 0)
(1.1721628 9.0784025e-05 0)
(1.1721386 8.5038324e-05 0)
(1.1721158 7.9648377e-05 0)
(1.1720945 7.4591324e-05 0)
(1.1720744 6.9845942e-05 0)
(1.1720557 6.5392627e-05 0)
(1.172038 6.1213095e-05 0)
(1.1720215 5.7290419e-05 0)
(1.1720061 5.360875e-05 0)
(1.1719916 5.0153375e-05 0)
(1.171978 4.6910477e-05 0)
(1.1719653 4.3867212e-05 0)
(1.1719534 4.101148e-05 0)
(1.1719422 3.8332021e-05 0)
(1.1719318 3.5818198e-05 0)
(1.1719221 3.3460109e-05 0)
(1.171913 3.1248383e-05 0)
(1.1719044 2.9174291e-05 0)
(1.1718965 2.7229553e-05 0)
(1.1718891 2.5406463e-05 0)
(1.1718821 2.36977e-05 0)
(1.1718756 2.2096449e-05 0)
(1.1718696 2.0596226e-05 0)
(1.171864 1.9191003e-05 0)
(1.1718587 1.7875036e-05 0)
(1.1718538 1.6642986e-05 0)
(1.1718493 1.5489758e-05 0)
(1.171845 1.4410625e-05 0)
(1.1718411 1.3401072e-05 0)
(1.1718374 1.2456909e-05 0)
(1.1718339 1.1574125e-05 0)
(1.1718308 1.0749011e-05 0)
(1.1718278 9.9780132e-06 0)
(1.1718251 9.2578369e-06 0)
(1.1718225 8.585332e-06 0)
(1.1718201 7.957574e-06 0)
(1.1718179 7.3717823e-06 0)
(1.1718159 6.8253457e-06 0)
(1.171814 6.3158229e-06 0)
(1.1718123 5.8408656e-06 0)
(1.1718106 5.3983677e-06 0)
(1.1718091 4.9861656e-06 0)
(1.1718078 4.6025086e-06 0)
(1.1718065 4.2453204e-06 0)
(1.1718053 3.9132905e-06 0)
(1.1718042 3.6042449e-06 0)
(1.1718032 3.3174998e-06 0)
(1.1718023 3.0504613e-06 0)
(1.1718014 2.803485e-06 0)
(1.1718006 2.5729249e-06 0)
(1.1717999 2.3610089e-06 0)
(1.1717993 2.161813e-06 0)
(1.1717986 1.9811382e-06 0)
(1.1717981 1.8083356e-06 0)
(1.1717976 1.6561932e-06 0)
(1.1717971 1.5044438e-06 0)
(1.1717967 1.3798317e-06 0)
(1.1717963 1.2428132e-06 0)
(1.171796 1.1479603e-06 0)
(1.1717956 1.0178848e-06 0)
(1.1717954 9.6120553e-07 0)
(1.171795 8.3133664e-07 0)
(1.3991992 7.8333268e-05 0)
(1.4003178 0.00044679646 0)
(1.4005907 0.00075314865 0)
(1.400666 0.00087868698 0)
(1.400885 0.00086259638 0)
(1.4012496 0.00079421357 0)
(1.4016436 0.0007310793 0)
(1.4019885 0.00068608755 0)
(1.402271 0.00065030217 0)
(1.4025104 0.00061461927 0)
(1.4027258 0.00057680821 0)
(1.4029254 0.00053893598 0)
(1.4031101 0.00050333011 0)
(1.403279 0.00047085319 0)
(1.4034325 0.00044121442 0)
(1.4035722 0.00041381683 0)
(1.4037001 0.00038824299 0)
(1.4038177 0.00036430401 0)
(1.4039261 0.00034191293 0)
(1.4040262 0.00032098491 0)
(1.4041186 0.00030141252 0)
(1.4042041 0.00028308213 0)
(1.4042832 0.00026589148 0)
(1.4043566 0.00024975513 0)
(1.4044248 0.00023460062 0)
(1.4044881 0.00022036363 0)
(1.404547 0.0002069847 0)
(1.4046019 0.00019440877 0)
(1.404653 0.0001825847 0)
(1.4047006 0.00017146558 0)
(1.404745 0.00016100791 0)
(1.4047865 0.00015117156 0)
(1.4048252 0.00014191895 0)
(1.4048614 0.00013321522 0)
(1.4048951 0.00012502753 0)
(1.4049267 0.0001173254 0)
(1.4049562 0.00011008006 0)
(1.4049838 0.00010326478 0)
(1.4050096 9.6854214e-05 0)
(1.4050337 9.0824842e-05 0)
(1.4050563 8.5154302e-05 0)
(1.4050773 7.9821828e-05 0)
(1.4050971 7.4807634e-05 0)
(1.4051155 7.0093363e-05 0)
(1.4051327 6.5661477e-05 0)
(1.4051489 6.1495723e-05 0)
(1.4051639 5.7580529e-05 0)
(1.405178 5.3901489e-05 0)
(1.4051912 5.0444763e-05 0)
(1.4052035 4.7197567e-05 0)
(1.405215 4.4147588e-05 0)
(1.4052257 4.1283478e-05 0)
(1.4052358 3.8594274e-05 0)
(1.4052451 3.6069899e-05 0)
(1.4052539 3.3700586e-05 0)
(1.405262 3.1477387e-05 0)
(1.4052696 2.9391599e-05 0)
(1.4052767 2.7435277e-05 0)
(1.4052834 2.5600664e-05 0)
(1.4052895 2.3880707e-05 0)
(1.4052953 2.2268496e-05 0)
(1.4053006 2.0757772e-05 0)
(1.4053056 1.9342373e-05 0)
(1.4053102 1.801675e-05 0)
(1.4053145 1.6775413e-05 0)
(1.4053186 1.5613442e-05 0)
(1.4053223 1.4525944e-05 0)
(1.4053258 1.3508558e-05 0)
(1.405329 1.2556927e-05 0)
(1.405332 1.1667188e-05 0)
(1.4053347 1.0835459e-05 0)
(1.4053373 1.0058316e-05 0)
(1.4053397 9.3323113e-06 0)
(1.4053419 8.6544041e-06 0)
(1.4053439 8.0215376e-06 0)
(1.4053458 7.4310016e-06 0)
(1.4053476 6.8801098e-06 0)
(1.4053492 6.3664175e-06 0)
(1.4053507 5.887614e-06 0)
(1.4053521 5.4414246e-06 0)
(1.4053533 5.0259575e-06 0)
(1.4053545 4.6389711e-06 0)
(1.4053556 4.2791271e-06 0)
(1.4053566 3.943954e-06 0)
(1.4053575 3.6329749e-06 0)
(1.4053583 3.3429893e-06 0)
(1.4053591 3.0750336e-06 0)
(1.4053598 2.8241949e-06 0)
(1.4053605 2.5943638e-06 0)
(1.4053611 2.3769763e-06 0)
(1.4053616 2.1814503e-06 0)
(1.4053621 1.9917889e-06 0)
(1.4053625 1.8281241e-06 0)
(1.405363 1.6598632e-06 0)
(1.4053633 1.5276647e-06 0)
(1.4053637 1.3733386e-06 0)
(1.405364 1.2754649e-06 0)
(1.4053643 1.1259722e-06 0)
(1.4053645 1.0697485e-06 0)
(1.4053649 9.1541939e-07 0)
(1.5090538 2.650186e-05 0)
(1.5103313 0.00015622276 0)
(1.5107212 0.00026892962 0)
(1.5109067 0.00031947911 0)
(1.5112639 0.00031789264 0)
(1.5118017 0.00029543993 0)
(1.5123884 0.0002738664 0)
(1.5129282 0.00025880594 0)
(1.5133997 0.000247231 0)
(1.5138216 0.00023562188 0)
(1.5142152 0.0002229724 0)
(1.5145895 0.00021000263 0)
(1.5149447 0.00019762638 0)
(1.515279 0.00018622682 0)
(1.515592 0.00017573158 0)
(1.5158852 0.00016593185 0)
(1.5161605 0.00015667978 0)
(1.5164194 0.00014791575 0)
(1.516663 0.00013962165 0)
(1.5168923 0.00013178082 0)
(1.5171079 0.00012436703 0)
(1.5173108 0.00011735001 0)
(1.5175016 0.00011070253 0)
(1.5176811 0.00010440259 0)
(1.5178499 9.8432224e-05 0)
(1.5180086 9.2775534e-05 0)
(1.5181579 8.7417567e-05 0)
(1.5182983 8.2344024e-05 0)
(1.5184303 7.7541273e-05 0)
(1.5185543 7.2996394e-05 0)
(1.5186709 6.8697104e-05 0)
(1.5187804 6.4631688e-05 0)
(1.5188833 6.0788885e-05 0)
(1.51898 5.7157872e-05 0)
(1.5190708 5.3728225e-05 0)
(1.519156 5.0489945e-05 0)
(1.519236 4.743341e-05 0)
(1.5193111 4.4549404e-05 0)
(1.5193815 4.1829073e-05 0)
(1.5194476 3.9263961e-05 0)
(1.5195096 3.6845951e-05 0)
(1.5195678 3.4567304e-05 0)
(1.5196223 3.2420608e-05 0)
(1.5196734 3.0398814e-05 0)
(1.5197212 2.8495179e-05 0)
(1.5197661 2.6703299e-05 0)
(1.5198081 2.5017055e-05 0)
(1.5198474 2.3430654e-05 0)
(1.5198842 2.1938563e-05 0)
(1.5199187 2.0535548e-05 0)
(1.5199509 1.9216613e-05 0)
(1.5199811 1.7977049e-05 0)
(1.5200093 1.6812361e-05 0)
(1.5200356 1.5718311e-05 0)
(1.5200603 1.469086e-05 0)
(1.5200833 1.3726211e-05 0)
(1.5201048 1.2820743e-05 0)
(1.5201248 1.1971051e-05 0)
(1.5201435 1.1173893e-05 0)
(1.520161 1.0426229e-05 0)
(1.5201773 9.7251605e-06 0)
(1.5201925 9.0679693e-06 0)
(1.5202067 8.4520648e-06 0)
(1.5202199 7.8750269e-06 0)
(1.5202321 7.3345451e-06 0)
(1.5202436 6.828458e-06 0)
(1.5202542 6.3547042e-06 0)
(1.5202641 5.9113625e-06 0)
(1.5202733 5.4965981e-06 0)
(1.5202819 5.1086955e-06 0)
(1.5202898 4.7460214e-06 0)
(1.5202972 4.4070514e-06 0)
(1.520304 4.0903379e-06 0)
(1.5203104 3.7945151e-06 0)
(1.5203163 3.5183045e-06 0)
(1.5203217 3.2604834e-06 0)
(1.5203268 3.0199389e-06 0)
(1.5203315 2.7955511e-06 0)
(1.5203358 2.5863701e-06 0)
(1.5203398 2.3913521e-06 0)
(1.5203435 2.2097473e-06 0)
(1.5203469 2.0404946e-06 0)
(1.5203501 1.8831158e-06 0)
(1.520353 1.7364074e-06 0)
(1.5203556 1.6003351e-06 0)
(1.5203581 1.4732768e-06 0)
(1.5203604 1.3559916e-06 0)
(1.5203625 1.2459271e-06 0)
(1.5203644 1.1453458e-06 0)
(1.5203661 1.0497477e-06 0)
(1.5203677 9.6426784e-07 0)
(1.5203692 8.8055332e-07 0)
(1.5203705 8.0918276e-07 0)
(1.5203718 7.3451019e-07 0)
(1.5203728 6.771885e-07 0)
(1.520374 6.0832852e-07 0)
(1.5203748 5.6631497e-07 0)
(1.5203759 4.992872e-07 0)
(1.5203763 4.751827e-07 0)
(1.5203775 4.0538813e-07 0)
(1.5090537 -2.6500934e-05 0)
(1.5103312 -0.00015621979 0)
(1.5107211 -0.00026893039 0)
(1.5109066 -0.00031948238 0)
(1.5112638 -0.00031789141 0)
(1.5118016 -0.00029542675 0)
(1.5123884 -0.00027384083 0)
(1.5129282 -0.00025877167 0)
(1.5133996 -0.00024719269 0)
(1.5138216 -0.00023558174 0)
(1.5142152 -0.00022293138 0)
(1.5145895 -0.00020996102 0)
(1.5149447 -0.00019758499 0)
(1.515279 -0.00018618654 0)
(1.515592 -0.00017569332 0)
(1.5158852 -0.00016589622 0)
(1.5161605 -0.00015664721 0)
(1.5164194 -0.00014788651 0)
(1.5166631 -0.00013959586 0)
(1.5168923 -0.00013175861 0)
(1.517108 -0.00012434832 0)
(1.5173108 -0.0001173348 0)
(1.5175016 -0.00011069058 0)
(1.5176811 -0.00010439379 0)
(1.5178499 -9.842626e-05 0)
(1.5180086 -9.2772275e-05 0)
(1.5181579 -8.7416643e-05 0)
(1.5182983 -8.2345283e-05 0)
(1.5184303 -7.7544307e-05 0)
(1.5185543 -7.3001088e-05 0)
(1.5186709 -6.8703093e-05 0)
(1.5187804 -6.4638906e-05 0)
(1.5188833 -6.0796997e-05 0)
(1.51898 -5.7166869e-05 0)
(1.5190708 -5.3737812e-05 0)
(1.519156 -5.0500155e-05 0)
(1.519236 -4.744398e-05 0)
(1.5193111 -4.4560412e-05 0)
(1.5193816 -4.1840286e-05 0)
(1.5194477 -3.9275473e-05 0)
(1.5195097 -3.6857537e-05 0)
(1.5195678 -3.4579079e-05 0)
(1.5196223 -3.2432354e-05 0)
(1.5196734 -3.0410646e-05 0)
(1.5197212 -2.8506878e-05 0)
(1.5197661 -2.671499e-05 0)
(1.5198081 -2.5028527e-05 0)
(1.5198474 -2.3442032e-05 0)
(1.5198842 -2.1949637e-05 0)
(1.5199187 -2.0546457e-05 0)
(1.5199509 -1.9227164e-05 0)
(1.5199811 -1.7987384e-05 0)
(1.5200093 -1.6822292e-05 0)
(1.5200356 -1.5727998e-05 0)
(1.5200602 -1.4700128e-05 0)
(1.5200833 -1.3735218e-05 0)
(1.5201047 -1.2829317e-05 0)
(1.5201248 -1.197936e-05 0)
(1.5201435 -1.118177e-05 0)
(1.520161 -1.0433833e-05 0)
(1.5201773 -9.7323197e-06 0)
(1.5201925 -9.0748446e-06 0)
(1.5202066 -8.4584864e-06 0)
(1.5202198 -7.8811434e-06 0)
(1.5202321 -7.3401805e-06 0)
(1.5202436 -6.8337645e-06 0)
(1.5202542 -6.3595103e-06 0)
(1.5202641 -5.9158131e-06 0)
(1.5202733 -5.5005211e-06 0)
(1.5202819 -5.112246e-06 0)
(1.5202898 -4.7490384e-06 0)
(1.5202972 -4.4096896e-06 0)
(1.520304 -4.0924414e-06 0)
(1.5203104 -3.7962545e-06 0)
(1.5203163 -3.5195382e-06 0)
(1.5203217 -3.2613846e-06 0)
(1.5203268 -3.0203703e-06 0)
(1.5203315 -2.795702e-06 0)
(1.5203358 -2.5861251e-06 0)
(1.5203398 -2.3908962e-06 0)
(1.5203435 -2.2089599e-06 0)
(1.5203469 -2.0395719e-06 0)
(1.52035 -1.8819442e-06 0)
(1.5203529 -1.7351788e-06 0)
(1.5203556 -1.5989296e-06 0)
(1.5203581 -1.4718943e-06 0)
(1.5203603 -1.3545105e-06 0)
(1.5203624 -1.2445428e-06 0)
(1.5203643 -1.1439244e-06 0)
(1.5203661 -1.0484971e-06 0)
(1.5203677 -9.6305777e-07 0)
(1.5203692 -8.796206e-07 0)
(1.5203705 -8.0840769e-07 0)
(1.5203718 -7.3410952e-07 0)
(1.5203728 -6.7698905e-07 0)
(1.520374 -6.0833769e-07 0)
(1.5203747 -5.6649389e-07 0)
(1.5203758 -4.9946334e-07 0)
(1.5203763 -4.7597719e-07 0)
(1.5203774 -4.0683381e-07 0)
(1.3991993 -7.8333692e-05 0)
(1.4003178 -0.0004468065 0)
(1.4005906 -0.00075316738 0)
(1.4006659 -0.00087870749 0)
(1.400885 -0.00086261043 0)
(1.4012496 -0.00079421702 0)
(1.4016436 -0.00073107199 0)
(1.4019884 -0.00068607218 0)
(1.402271 -0.00065028118 0)
(1.4025104 -0.00061459445 0)
(1.4027258 -0.00057678042 0)
(1.4029254 -0.00053890619 0)
(1.4031101 -0.00050329928 0)
(1.403279 -0.00047082238 0)
(1.4034325 -0.00044118454 0)
(1.4035722 -0.00041378856 0)
(1.4037002 -0.00038821687 0)
(1.4038178 -0.00036428036 0)
(1.4039262 -0.00034189202 0)
(1.4040262 -0.00032096682 0)
(1.4041186 -0.00030139735 0)
(1.4042041 -0.00028306977 0)
(1.4042833 -0.00026588189 0)
(1.4043567 -0.00024974809 0)
(1.4044248 -0.00023459603 0)
(1.4044882 -0.00022036119 0)
(1.4045471 -0.00020698428 0)
(1.4046019 -0.00019441005 0)
(1.404653 -0.00018258757 0)
(1.4047007 -0.00017146974 0)
(1.4047451 -0.00016101326 0)
(1.4047865 -0.00015117782 0)
(1.4048253 -0.00014192606 0)
(1.4048614 -0.00013322292 0)
(1.4048952 -0.00012503581 0)
(1.4049267 -0.00011733405 0)
(1.4049562 -0.0001100891 0)
(1.4049838 -0.00010327402 0)
(1.4050096 -9.6863722e-05 0)
(1.4050337 -9.0834434e-05 0)
(1.4050563 -8.5164054e-05 0)
(1.4050774 -7.9831575e-05 0)
(1.4050971 -7.4817456e-05 0)
(1.4051155 -7.0103093e-05 0)
(1.4051328 -6.5671202e-05 0)
(1.4051489 -6.1505284e-05 0)
(1.4051639 -5.7590013e-05 0)
(1.405178 -5.3910735e-05 0)
(1.4051912 -5.0453868e-05 0)
(1.4052035 -4.7206385e-05 0)
(1.405215 -4.4156218e-05 0)
(1.4052257 -4.1291777e-05 0)
(1.4052358 -3.8602356e-05 0)
(1.4052451 -3.6077633e-05 0)
(1.4052539 -3.3708089e-05 0)
(1.405262 -3.1484529e-05 0)
(1.4052696 -2.9398505e-05 0)
(1.4052767 -2.7441826e-05 0)
(1.4052833 -2.5606975e-05 0)
(1.4052895 -2.3886656e-05 0)
(1.4052952 -2.2274202e-05 0)
(1.4053006 -2.0763112e-05 0)
(1.4053056 -1.934746e-05 0)
(1.4053102 -1.8021454e-05 0)
(1.4053145 -1.6779846e-05 0)
(1.4053185 -1.5617477e-05 0)
(1.4053222 -1.4529689e-05 0)
(1.4053257 -1.3511883e-05 0)
(1.4053289 -1.2559944e-05 0)
(1.4053319 -1.1669776e-05 0)
(1.4053347 -1.0837731e-05 0)
(1.4053373 -1.0060155e-05 0)
(1.4053396 -9.3338398e-06 0)
(1.4053418 -8.6555182e-06 0)
(1.4053439 -8.022364e-06 0)
(1.4053458 -7.4314408e-06 0)
(1.4053475 -6.8803024e-06 0)
(1.4053491 -6.3662761e-06 0)
(1.4053506 -5.8872727e-06 0)
(1.405352 -5.4407996e-06 0)
(1.4053533 -5.0251954e-06 0)
(1.4053545 -4.637997e-06 0)
(1.4053555 -4.2780834e-06 0)
(1.4053565 -3.9427617e-06 0)
(1.4053575 -3.6317795e-06 0)
(1.4053583 -3.3417148e-06 0)
(1.4053591 -3.0738194e-06 0)
(1.4053598 -2.8229565e-06 0)
(1.4053604 -2.5932439e-06 0)
(1.405361 -2.3758925e-06 0)
(1.4053616 -2.1805508e-06 0)
(1.4053621 -1.9909906e-06 0)
(1.4053625 -1.8275859e-06 0)
(1.4053629 -1.6594998e-06 0)
(1.4053633 -1.5275475e-06 0)
(1.4053637 -1.3733476e-06 0)
(1.4053639 -1.2755896e-06 0)
(1.4053643 -1.12605e-06 0)
(1.4053644 -1.0700667e-06 0)
(1.4053648 -9.1596019e-07 0)
(1.1735427 -0.00012514323 0)
(1.1743356 -0.0006607582 0)
(1.1743508 -0.0010600031 0)
(1.1741716 -0.0011843892 0)
(1.174083 -0.001121671 0)
(1.1740857 -0.0010034083 0)
(1.1740978 -0.00090204181 0)
(1.1740717 -0.00082833427 0)
(1.1740062 -0.00076828782 0)
(1.1739195 -0.00071056886 0)
(1.1738265 -0.00065309929 0)
(1.1737336 -0.00059854561 0)
(1.1736416 -0.00054930057 0)
(1.17355 -0.00050580863 0)
(1.1734593 -0.00046723712 0)
(1.1733702 -0.00043254972 0)
(1.1732838 -0.00040102702 0)
(1.1732005 -0.00037226481 0)
(1.1731207 -0.00034599908 0)
(1.1730444 -0.00032198652 0)
(1.1729715 -0.00029998001 0)
(1.1729022 -0.00027974759 0)
(1.1728363 -0.00026109061 0)
(1.1727738 -0.00024384479 0)
(1.1727145 -0.00022787329 0)
(1.1726584 -0.00021305766 0)
(1.1726054 -0.00019929388 0)
(1.1725553 -0.00018648911 0)
(1.1725081 -0.00017456169 0)
(1.1724635 -0.00016343875 0)
(1.1724214 -0.00015305619 0)
(1.1723818 -0.00014335611 0)
(1.1723445 -0.00013428716 0)
(1.1723094 -0.00012580231 0)
(1.1722763 -0.00011785967 0)
(1.1722453 -0.00011042049 0)
(1.1722161 -0.00010345019 0)
(1.1721886 -9.691644e-05 0)
(1.1721628 -9.0790324e-05 0)
(1.1721386 -8.504456e-05 0)
(1.1721158 -7.9654736e-05 0)
(1.1720945 -7.4597568e-05 0)
(1.1720745 -6.9852254e-05 0)
(1.1720557 -6.5398771e-05 0)
(1.172038 -6.121927e-05 0)
(1.1720215 -5.7296385e-05 0)
(1.1720061 -5.3614697e-05 0)
(1.1719916 -5.0159071e-05 0)
(1.171978 -4.6916127e-05 0)
(1.1719653 -4.3872583e-05 0)
(1.1719533 -4.1016771e-05 0)
(1.1719422 -3.8337009e-05 0)
(1.1719318 -3.5823098e-05 0)
(1.171922 -3.3464702e-05 0)
(1.1719129 -3.1252878e-05 0)
(1.1719044 -2.9178475e-05 0)
(1.1718965 -2.7233646e-05 0)
(1.171889 -2.5410254e-05 0)
(1.1718821 -2.3701396e-05 0)
(1.1718756 -2.2099843e-05 0)
(1.1718696 -2.0599532e-05 0)
(1.1718639 -1.9194009e-05 0)
(1.1718587 -1.7877942e-05 0)
(1.1718538 -1.6645583e-05 0)
(1.1718492 -1.5492252e-05 0)
(1.171845 -1.4412805e-05 0)
(1.171841 -1.3403129e-05 0)
(1.1718373 -1.2458637e-05 0)
(1.1718339 -1.1575728e-05 0)
(1.1718307 -1.0750282e-05 0)
(1.1718277 -9.9791477e-06 0)
(1.171825 -9.2586383e-06 0)
(1.1718224 -8.5860094e-06 0)
(1.1718201 -7.9579349e-06 0)
(1.1718179 -7.3720299e-06 0)
(1.1718158 -6.825298e-06 0)
(1.1718139 -6.3156965e-06 0)
(1.1718122 -5.8404794e-06 0)
(1.1718106 -5.3979304e-06 0)
(1.1718091 -4.9855074e-06 0)
(1.1718077 -4.6018515e-06 0)
(1.1718064 -4.2444928e-06 0)
(1.1718052 -3.9125032e-06 0)
(1.1718042 -3.6033292e-06 0)
(1.1718031 -3.3166758e-06 0)
(1.1718022 -3.0495542e-06 0)
(1.1718014 -2.8027055e-06 0)
(1.1718006 -2.5720952e-06 0)
(1.1717999 -2.3603525e-06 0)
(1.1717992 -2.1611427e-06 0)
(1.1717986 -1.9806774e-06 0)
(1.171798 -1.8078745e-06 0)
(1.1717975 -1.6559651e-06 0)
(1.1717971 -1.5042221e-06 0)
(1.1717966 -1.3798076e-06 0)
(1.1717962 -1.2428609e-06 0)
(1.1717959 -1.1480193e-06 0)
(1.1717955 -1.0179003e-06 0)
(1.1717953 -9.6097936e-07 0)
(1.1717949 -8.3080267e-07 0)
(0.82087348 -0.00015754291 0)
(0.82115353 -0.00071617827 0)
(0.82074317 -0.0010364556 0)
(0.8201501 -0.0010467476 0)
(0.81961429 -0.00089918454 0)
(0.8191571 -0.00073752062 0)
(0.81873928 -0.00061810649 0)
(0.81833805 -0.00053686013 0)
(0.81795322 -0.00047471641 0)
(0.81759216 -0.00042032952 0)
(0.81725943 -0.00037153554 0)
(0.81695489 -0.00032952321 0)
(0.81667579 -0.00029474827 0)
(0.81641902 -0.00026620852 0)
(0.81618203 -0.00024232514 0)
(0.81596289 -0.0002217713 0)
(0.81576001 -0.00020371843 0)
(0.81557196 -0.00018769977 0)
(0.8153974 -0.00017340989 0)
(0.81523512 -0.00016059465 0)
(0.81508404 -0.00014902719 0)
(0.81494325 -0.00013851734 0)
(0.8148119 -0.00012891593 0)
(0.81468928 -0.00012010876 0)
(0.81457473 -0.00011200523 0)
(0.81446765 -0.00010453036 0)
(0.81436751 -9.7619537e-05 0)
(0.81427381 -9.1217219e-05 0)
(0.81418611 -8.5275026e-05 0)
(0.81410401 -7.9751404e-05 0)
(0.81402712 -7.4609754e-05 0)
(0.81395511 -6.9818225e-05 0)
(0.81388766 -6.5348161e-05 0)
(0.81382447 -6.1174377e-05 0)
(0.81376527 -5.7273923e-05 0)
(0.81370981 -5.3626557e-05 0)
(0.81365784 -5.0213588e-05 0)
(0.81360916 -4.7018487e-05 0)
(0.81356355 -4.4025815e-05 0)
(0.81352083 -4.1221899e-05 0)
(0.81348082 -3.8593785e-05 0)
(0.81344334 -3.6130009e-05 0)
(0.81340825 -3.3819605e-05 0)
(0.81337539 -3.1652879e-05 0)
(0.81334463 -2.9620428e-05 0)
(0.81331584 -2.7713971e-05 0)
(0.8132889 -2.5925398e-05 0)
(0.81326369 -2.4247596e-05 0)
(0.81324011 -2.2673501e-05 0)
(0.81321806 -2.119695e-05 0)
(0.81319745 -1.9811772e-05 0)
(0.81317818 -1.8512622e-05 0)
(0.81316017 -1.7294057e-05 0)
(0.81314335 -1.6151405e-05 0)
(0.81312764 -1.5079875e-05 0)
(0.81311297 -1.4075389e-05 0)
(0.81309927 -1.3133689e-05 0)
(0.81308649 -1.2251195e-05 0)
(0.81307457 -1.1424139e-05 0)
(0.81306346 -1.0649392e-05 0)
(0.8130531 -9.9235878e-06 0)
(0.81304344 -9.2439756e-06 0)
(0.81303445 -8.607568e-06 0)
(0.81302607 -8.0119624e-06 0)
(0.81301828 -7.4544808e-06 0)
(0.81301102 -6.9330111e-06 0)
(0.81300428 -6.4451723e-06 0)
(0.81299801 -5.9891234e-06 0)
(0.81299218 -5.5627224e-06 0)
(0.81298677 -5.1643513e-06 0)
(0.81298174 -4.792104e-06 0)
(0.81297708 -4.4445733e-06 0)
(0.81297276 -4.1200393e-06 0)
(0.81296875 -3.8172642e-06 0)
(0.81296503 -3.53472e-06 0)
(0.8129616 -3.2713284e-06 0)
(0.81295841 -3.0257157e-06 0)
(0.81295547 -2.7969215e-06 0)
(0.81295275 -2.5837452e-06 0)
(0.81295024 -2.3853271e-06 0)
(0.81294791 -2.2006241e-06 0)
(0.81294578 -2.0288149e-06 0)
(0.8129438 -1.86907e-06 0)
(0.81294198 -1.7205484e-06 0)
(0.81294031 -1.5826831e-06 0)
(0.81293877 -1.4544719e-06 0)
(0.81293736 -1.3357796e-06 0)
(0.81293606 -1.2252383e-06 0)
(0.81293486 -1.1233939e-06 0)
(0.81293377 -1.0281153e-06 0)
(0.81293277 -9.4112274e-07 0)
(0.81293186 -8.588767e-07 0)
(0.81293102 -7.8508528e-07 0)
(0.81293026 -7.1371194e-07 0)
(0.81292957 -6.5202396e-07 0)
(0.81292892 -5.8956558e-07 0)
(0.81292838 -5.396211e-07 0)
(0.8129278 -4.8460559e-07 0)
(0.81292744 -4.4923589e-07 0)
(0.81292678 -4.0560674e-07 0)
(0.32616839 -0.00014405503 0)
(0.32586067 -0.00043617111 0)
(0.32515948 -0.00049506143 0)
(0.32443022 -0.00039153505 0)
(0.32382504 -0.00026269605 0)
(0.32335293 -0.00017571751 0)
(0.32297589 -0.00013121482 0)
(0.32265924 -0.00010846579 0)
(0.32238382 -9.2662593e-05 0)
(0.32214149 -7.8986277e-05 0)
(0.32192805 -6.7498076e-05 0)
(0.32173953 -5.8753553e-05 0)
(0.32157168 -5.2439191e-05 0)
(0.32142062 -4.7733715e-05 0)
(0.32128336 -4.3905743e-05 0)
(0.32115779 -4.05498e-05 0)
(0.32104245 -3.7518171e-05 0)
(0.32093616 -3.4772744e-05 0)
(0.32083798 -3.2290152e-05 0)
(0.32074708 -3.003653e-05 0)
(0.32066274 -2.7975239e-05 0)
(0.32058437 -2.6077514e-05 0)
(0.32051144 -2.4323891e-05 0)
(0.32044351 -2.2701325e-05 0)
(0.32038017 -2.1198841e-05 0)
(0.32032107 -1.9806469e-05 0)
(0.32026588 -1.8514333e-05 0)
(0.32021432 -1.7313765e-05 0)
(0.32016613 -1.6196663e-05 0)
(0.32012106 -1.5156305e-05 0)
(0.3200789 -1.418627e-05 0)
(0.32003944 -1.3281219e-05 0)
(0.32000251 -1.2435861e-05 0)
(0.31996794 -1.1645895e-05 0)
(0.31993558 -1.090695e-05 0)
(0.31990527 -1.0215554e-05 0)
(0.31987688 -9.5680543e-06 0)
(0.3198503 -8.9616426e-06 0)
(0.31982541 -8.3932433e-06 0)
(0.3198021 -7.8605479e-06 0)
(0.31978028 -7.3609132e-06 0)
(0.31975984 -6.8924448e-06 0)
(0.31974071 -6.4528673e-06 0)
(0.3197228 -6.0405992e-06 0)
(0.31970603 -5.6536399e-06 0)
(0.31969034 -5.2906797e-06 0)
(0.31967566 -4.9499643e-06 0)
(0.31966193 -4.6303877e-06 0)
(0.31964909 -4.3303781e-06 0)
(0.31963708 -4.0490167e-06 0)
(0.31962585 -3.7849066e-06 0)
(0.31961535 -3.5372679e-06 0)
(0.31960554 -3.3048308e-06 0)
(0.31959638 -3.0869514e-06 0)
(0.31958782 -2.8824913e-06 0)
(0.31957983 -2.6909054e-06 0)
(0.31957237 -2.511148e-06 0)
(0.31956541 -2.3427776e-06 0)
(0.31955892 -2.1848517e-06 0)
(0.31955287 -2.037001e-06 0)
(0.31954722 -1.8983525e-06 0)
(0.31954196 -1.768618e-06 0)
(0.31953707 -1.6470072e-06 0)
(0.3195325 -1.533285e-06 0)
(0.31952826 -1.4267134e-06 0)
(0.31952431 -1.3271212e-06 0)
(0.31952063 -1.2338373e-06 0)
(0.31951722 -1.1467288e-06 0)
(0.31951404 -1.0651636e-06 0)
(0.31951109 -9.8905942e-07 0)
(0.31950836 -9.1783878e-07 0)
(0.31950582 -8.5144663e-07 0)
(0.31950346 -7.893341e-07 0)
(0.31950128 -7.3148641e-07 0)
(0.31949925 -6.7740123e-07 0)
(0.31949738 -6.2708129e-07 0)
(0.31949565 -5.8004739e-07 0)
(0.31949404 -5.3633222e-07 0)
(0.31949256 -4.9550044e-07 0)
(0.31949119 -4.5759044e-07 0)
(0.31948993 -4.2219269e-07 0)
(0.31948876 -3.893585e-07 0)
(0.31948768 -3.5873278e-07 0)
(0.31948669 -3.3034626e-07 0)
(0.31948578 -3.038945e-07 0)
(0.31948494 -2.7937781e-07 0)
(0.31948417 -2.5659356e-07 0)
(0.31948346 -2.3544995e-07 0)
(0.31948281 -2.1588058e-07 0)
(0.31948222 -1.9764425e-07 0)
(0.31948167 -1.8089803e-07 0)
(0.31948117 -1.6514955e-07 0)
(0.31948072 -1.5084307e-07 0)
(0.3194803 -1.3725751e-07 0)
(0.31947992 -1.2514008e-07 0)
(0.31947957 -1.1356469e-07 0)
(0.31947927 -1.0315423e-07 0)
(0.31947897 -9.4499544e-08 0)
(0.31947874 -8.5676764e-08 0)
(0.31947842 -8.9166499e-08 0)
)
;

boundaryField
{
    top
    {
        type            fixedValue;
        value           uniform (0 0 0);
    }
    inlet
    {
        type            pressureNormalInletOutletVelocity;
        phi             phi;
        rho             rho;