/*--------------------------------*- C++ -*----------------------------------*\
| =========                 |                                                 |
| \\      /  F ield         | OpenFOAM: The Open Source CFD Toolbox           |
|  \\    /   O peration     | Version:  v1812                                 |
|   \\  /    A nd           | Web:      www.OpenFOAM.com                      |
|    \\/     M anipulation  |                                                 |
\*---------------------------------------------------------------------------*/
FoamFile
{
    version     2.0;
    format      ascii;
    class       surfaceScalarField;
    location    "2.65";
    object      phi;
}
// * * * * * * * * * * * * * * * * * * * * * * * * * * * * * * * * * * * * * //

dimensions      [0 3 -1 0 0 0 0];
oriented        oriented;


internalField   nonuniform List<scalar> 
1890
(
0.0093061961
0.00069380393
0.0082843975
0.0010217987
0.0073299111
0.00095448643
0.0064869932
0.00084291792
0.0057696745
0.00071731865
0.0051900207
0.00057965385
0.0047384413
0.00045157943
0.004395628
0.00034281343
0.0041396778
0.0002559502
0.0039500446
0.00018963317
0.0038092535
0.00014079105
0.003703389
0.00010586446
0.0036219871
8.1401903e-05
0.0035575835
6.4403524e-05
0.0035051035
5.2479901e-05
0.0034612319
4.3871572e-05
0.0034238571
3.7374838e-05
0.0033916513
3.2205772e-05
0.003363787
2.7864333e-05
0.0033397441
2.4043008e-05
0.00331917
2.0574094e-05
0.0033017812
1.7388913e-05
0.0032873052
1.4475946e-05
0.0032754588
1.1846391e-05
0.0032659444
9.5143609e-06
0.0032584539
7.490481e-06
0.0032526778
5.7759787e-06
0.0032483185
4.3593298e-06
0.0032451005
3.2179356e-06
0.003242779
2.3214673e-06
0.0032411437
1.6353358e-06
0.0032400198
1.123878e-06
0.0032392671
7.5271763e-07
0.0032387765
4.9062354e-07
0.0032384659
3.1065471e-07
0.0032382753
1.9061546e-07
0.0032381623
1.1294568e-07
0.003238098
6.4291287e-08
0.0032380631
3.4894962e-08
0.0032380453
1.780886e-08
0.0032380369
8.3228835e-09
0.0032380335
3.3529726e-09
0.0032380326
9.2088787e-10
0.0032380326
-3.3375786e-12
0.0032380329
-3.6232829e-10
0.0032380333
-4.057244e-10
0.0032380336
-3.2825223e-10
0.0032380338
-2.2445065e-10
0.003238034
-1.3576293e-10
0.003238034
-6.9501767e-11
0.0032380341
-2.6169703e-11
0.0032380341
-2.2081038e-12
0.0032380341
1.0206028e-11
0.003238034
1.7105304e-11
0.003238034
1.8570868e-11
0.003238034
1.8151093e-11
0.003238034
1.7004782e-11
0.003238034
1.3701579e-11
0.003238034
1.4392801e-11
0.003238034
7.6796181e-12
0.0032380339
1.4094643e-11
0.0032380339
-1.7298424e-16
0.0032380339
1.8140881e-11
0.0032380339
-1.1676058e-11
0.0032380339
2.8786864e-11
0.0032380339
-2.9580803e-11
0.0032380339
4.7612007e-11
0.0032380339
-5.452287e-11
0.0032380339
7.2771046e-11
0.003238034
-8.0914878e-11
0.0032380339
9.3227657e-11
0.003238034
-9.1499068e-11
0.0032380339
8.464646e-11
0.0032380339
-5.6216934e-11
0.0032380339
1.4995606e-11
0.0032380339
4.8545907e-11
0.003238034
-1.227216e-10
0.0032380338
2.0945163e-10
0.0032380341
-2.8181512e-10
0.0032380337
3.3485821e-10
0.0032380341
-3.3326842e-10
0.0032380338
2.8677033e-10
0.0032380339
-1.6616333e-10
0.0032380339
3.8489046e-11
0.0032380338
1.3333384e-10
0.003238034
-2.2635548e-10
0.0032380336
3.5532496e-10
0.0032380339
-2.7109502e-10
0.0032380335
3.6672141e-10
0.0032380336
-8.0582901e-11
0.0032380332
4.5095028e-10
0.003238033
2.3779221e-10
0.0032380319
1.0602836e-09
0.0032380308
1.0884632e-09
0.003238028
2.6887452e-09
0.0032380242
3.8124627e-09
0.0032380171
7.1280148e-09
0.0032380052
1.1964272e-08
0.0032379846
2.0726385e-08
3.0088723e-08
0.010339525
0.00035427916
0.010570759
0.00079056424
0.010606318
0.00091892771
0.010547598
0.00090163785
0.010422358
0.00084255881
0.010244439
0.00075757334
0.010039574
0.00065644379
0.0098290303
0.00055335736
0.009625648
0.00045933252
0.0094361447
0.0003791365
0.0092637598
0.00031317592
0.0091096163
0.00026000786
0.0089733594
0.00021765882
0.00885371
0.00018405283
0.0087490022
0.00015718761
0.0086575621
0.00013531162
0.0085778653
0.00011707157
0.0085085867
0.00010148444
0.0084486133
8.7837712e-05
0.008397025
7.5631386e-05
0.0083530412
6.4557916e-05
0.0083159586
5.4471501e-05
0.0082851059
4.5328678e-05
0.0082598201
3.7132186e-05
0.0082394395
2.9894856e-05
0.0082233074
2.3622538e-05
0.0082107827
1.8300596e-05
0.0082012551
1.3886883e-05
0.0081941604
1.0312504e-05
0.0081889939
7.4879807e-06
0.0081853177
5.3115336e-06
0.0081827644
3.6772233e-06
0.0081810351
2.4819668e-06
0.0081798947
1.6310807e-06
0.0081791634
1.041899e-06
0.0081787086
6.4546599e-07
0.0081784349
3.8660724e-07
0.0081782763
2.22867e-07
0.0081781884
1.2278442e-07
0.0081781422
6.3945935e-08
0.0081781197
3.0823299e-08
0.0081781099
1.3150115e-08
0.0081781065
4.3229019e-09
0.0081781058
6.1883622e-10
0.0081781063
-8.3586987e-10
0.008178107
-1.1577066e-09
0.0081781077
-9.9892029e-10
0.0081781081
-7.1113055e-10
0.0081781084
-4.4222381e-10
0.0081781086
-2.3867559e-10
0.0081781087
-1.0135775e-10
0.0081781087
-1.911191e-11
0.0081781087
2.6561774e-11
0.0081781087
4.6833703e-11
0.0081781086
5.5278818e-11
0.0081781086
5.2510691e-11
0.0081781086
5.2067126e-11
0.0081781085
4.0908387e-11
0.0081781085
4.4329295e-11
0.0081781085
2.4988346e-11
0.0081781085
4.1708253e-11
0.0081781085
5.5297154e-12
0.0081781084
4.8898174e-11
0.0081781084
-2.1580022e-11
0.0081781084
6.9918795e-11
0.0081781084
-6.053673e-11
0.0081781084
1.0633645e-10
0.0081781084
-1.0996484e-10
0.0081781084
1.5004123e-10
0.0081781084
-1.5318853e-10
0.0081781083
1.7225895e-10
0.0081781084
-1.4871152e-10
0.0081781084
1.1900386e-10
0.0081781083
-3.497545e-11
0.0081781084
-6.9398941e-11
0.0081781083
2.2041667e-10
0.0081781085
-3.7097577e-10
0.0081781082
5.2968954e-10
0.0081781085
-6.242147e-10
0.0081781082
6.5439732e-10
0.0081781084
-5.417038e-10
0.0081781084
3.3395917e-10
0.0081781082
2.1881418e-11
0.0081781086
-3.5357035e-10
0.008178108
7.1747466e-10
0.0081781086
-8.1539837e-10
0.008178108
9.2040078e-10
0.0081781083
-5.4880829e-10
0.0081781081
5.559244e-10
0.0081781079
1.4277722e-10
0.0081781078
5.5758435e-10
0.0081781073
7.0684528e-10
0.0081781066
1.7645945e-09
0.0081781056
2.0878934e-09
0.0081781037
4.5611994e-09
0.0081781006
6.8775184e-09
0.0081780962
1.1492742e-08
0.0081780892
1.9084953e-08
0.0081780826
2.7434368e-08
3.7830731e-08
0.010188704
0.00016557489
0.010530485
0.0004487835
0.01085145
0.00059796252
0.011124167
0.00062892078
0.011350563
0.00061616345
0.011524454
0.00058368226
0.011646276
0.00053462194
0.011724077
0.00047555606
0.011767915
0.00041549501
0.011786562
0.00036048866
0.011787041
0.0003126974
0.011774989
0.00027205966
0.01175483
0.00023781784
0.011729832
0.00020905081
0.011702284
0.00018473493
0.011673748
0.00016384766
0.011645283
0.0001455365
0.011617602
0.00012916583
0.011591182
0.00011425798
0.011566355
0.00010045858
0.011543363
8.7549784e-05
0.011522386
7.544842e-05
0.011503549
6.4165487e-05
0.011486923
5.3757948e-05
0.01147252
4.4297813e-05
0.01146029
3.5852913e-05
0.011450121
2.8469367e-05
0.01144185
2.2157933e-05
0.011435273
1.688921e-05
0.011430164
1.259718e-05
0.011426288
9.1874198e-06
0.011423418
6.5470634e-06
0.011421345
4.5550155e-06
0.011419885
3.0912384e-06
0.011418883
2.0440984e-06
0.011418213
1.3152266e-06
0.011417778
8.2194206e-07
0.011417503
4.976732e-07
0.011417335
2.9093191e-07
0.011417235
1.6336406e-07
0.011417179
8.7400528e-08
0.011417148
4.3942402e-08
0.011417132
2.022683e-08
0.011417124
8.0889414e-09
0.011417121
2.3382208e-09
0.01141712
-1.1967427e-10
0.01141712
-8.6526721e-10
0.01141712
-9.008054e-10
0.01141712
-6.8872415e-10
0.011417121
-4.4115799e-10
0.011417121
-2.3597685e-10
0.011417121
-9.3019575e-11
0.011417121
-1.8627316e-12
0.011417121
4.6412794e-11
0.011417121
7.2171221e-11
0.011417121
7.6296392e-11
0.011417121
8.050696e-11
0.011417121
6.6736321e-11
0.011417121
7.2295721e-11
0.011417121
4.5358958e-11
0.011417121
6.7372903e-11
0.011417121
1.794136e-11
0.011417121
7.4028649e-11
0.011417121
-1.8222363e-11
0.011417121
9.6879399e-11
0.011417121
-6.64505e-11
0.011417121
1.3502283e-10
0.011417121
-1.2061403e-10
0.011417121
1.7315588e-10
0.011417121
-1.542985e-10
0.011417121
1.6985562e-10
0.011417121
-1.1266724e-10
0.011417121
5.9170926e-11
0.011417121
7.1967486e-11
0.011417121
-2.0589369e-10
0.011417121
3.9500563e-10
0.011417121
-5.5295899e-10
0.011417121
6.9891213e-10
0.011417121
-7.2347608e-10
0.011417121
6.5118044e-10
0.01141712
-3.8233663e-10
0.011417121
1.5946442e-11
0.01141712
4.9043251e-10
0.011417121
-8.7057289e-10
0.01141712
1.1983695e-09
0.011417121
-1.1150057e-09
0.011417121
9.9575728e-10
0.01141712
-3.3230813e-10
0.011417121
1.6520611e-10
0.01141712
6.6031104e-10
0.011417121
1.602241e-10
0.01141712
9.7332761e-10
0.01141712
1.7492241e-09
0.01141712
2.0849436e-09
0.01141712
4.5927534e-09
0.01141712
6.913261e-09
0.011417121
1.0612859e-08
0.011417123
1.7233727e-08
0.011417128
2.2598635e-08
3.0429245e-08
0.010097182
6.839329e-05
0.010346958
0.00019900724
0.010662457
0.00028246347
0.010982728
0.00030864956
0.011290179
0.00030871268
0.011575158
0.00029870334
0.011828856
0.00028092363
0.012047579
0.00025683309
0.012232805
0.00023026876
0.012388517
0.00020477719
0.012519191
0.00018202371
0.012629068
0.00016218197
0.012721885
0.00014500113
0.012800779
0.00013015698
0.012868253
0.00011726066
0.012926221
0.00010587941
0.012976127
9.5630509e-05
0.013019066
8.622708e-05
0.013055871
7.7452706e-05
0.013087188
6.9141981e-05
0.013113544
6.1193968e-05
0.013135412
5.3580153e-05
0.013153251
4.6326148e-05
0.013167523
3.9486573e-05
0.013178692
3.3128555e-05
0.013187224
2.7320885e-05
0.013193571
2.2122322e-05
0.013198158
1.7570871e-05
0.013201369
1.3677765e-05
0.013203539
1.0427133e-05
0.013204947
7.7793559e-06
0.013205818
5.6764422e-06
0.013206325
4.0485077e-06
0.013206595
2.8204493e-06
0.013206722
1.9179153e-06
0.013206765
1.2719002e-06
0.013206765
8.2170103e-07
0.013206746
5.164257e-07
0.013206722
3.1514979e-07
0.013206699
1.8625727e-07
0.01320668
1.0621283e-07
0.013206666
5.8113366e-08
0.013206656
3.0245186e-08
0.01320665
1.4773593e-08
0.013206645
6.589068e-09
0.013206643
2.5139219e-09
0.013206641
6.7236936e-10
0.01320664
-4.1771466e-11
0.01320664
-2.3323752e-10
0.01320664
-2.1198473e-10
0.013206639
-1.2802553e-10
0.013206639
-4.6099101e-11
0.013206639
1.9830768e-11
0.013206639
5.7807579e-11
0.013206639
8.0349648e-11
0.013206639
8.5433384e-11
0.013206639
8.9332413e-11
0.013206639
7.8268999e-11
0.013206639
8.1048949e-11
0.013206639
5.8974412e-11
0.013206639
7.2920888e-11
0.013206639
3.4446267e-11
0.013206639
7.2634311e-11
0.013206639
4.8190881e-12
0.013206639
8.3471212e-11
0.013206639
-3.1395641e-11
0.013206639
1.035573e-10
0.013206639
-6.7408882e-11
0.013206639
1.1968992e-10
0.013206639
-8.2608629e-11
0.013206639
1.0109944e-10
0.013206639
-3.8393913e-11
0.013206639
4.7437702e-12
0.013206639
1.0382905e-10
0.013206639
-1.8819986e-10
0.013206639
3.2188038e-10
0.013206639
-4.0212639e-10
0.013206639
4.7873566e-10
0.013206639
-4.3927965e-10
0.013206639
3.4580567e-10
0.013206639
-9.3859385e-11
0.013206639
-1.8273308e-10
0.013206639
5.3582812e-10
0.013206639
-7.3433325e-10
0.013206639
8.9578601e-10
0.013206639
-7.0546065e-10
0.01320664
5.244901e-10
0.013206639
3.7890708e-11
0.013206639
-1.4633253e-10
0.013206639
6.2682419e-10
0.01320664
1.5879969e-11
0.01320664
6.0528979e-10
0.013206641
1.1929641e-09
0.013206641
1.1977939e-09
0.013206643
2.8589362e-09
0.013206646
4.1967328e-09
0.01320665
6.0908401e-09
0.013206658
9.7685014e-09
0.013206668
1.2276206e-08
1.6396478e-08
0.010068393
2.7968332e-11
0.0102674
6.9952784e-11
0.010549864
8.1227252e-11
0.010858513
7.1122769e-11
0.011167226
4.1338483e-11
0.011465929
-1.1572922e-11
0.011746853
-6.634077e-11
0.012003686
-1.0877206e-10
0.012233955
-1.3059705e-10
0.012438732
-1.4119957e-10
0.012620756
-1.3621039e-10
0.012782938
-1.1910321e-10
0.01292794
-9.9434852e-11
0.013058097
-9.638974e-11
0.013175357
-1.2146733e-10
0.013281237
-1.6697255e-10
0.013376868
-2.2348931e-10
0.013463095
-2.7415832e-10
0.013540548
-3.1415987e-10
0.013609691
-3.2950337e-10
0.013670885
-3.1984486e-10
0.013724465
-2.8197355e-10
0.013770792
-2.2755042e-10
0.013810279
-1.6557827e-10
0.013843407
-1.1083341e-10
0.013870728
-7.1263128e-11
0.01389285
-5.4319597e-11
0.013910421
-5.8955647e-11
0.013924099
-8.2142605e-11
0.013934526
-1.1536917e-10
0.013942306
-1.4946968e-10
0.013947983
-1.7564725e-10
0.013952031
-1.8715194e-10
0.013954852
-1.8177984e-10
0.01395677
-1.5861626e-10
0.013958042
-1.2147574e-10
0.013958864
-7.5369279e-11
0.01395938
-2.5962192e-11
0.013959696
2.192356e-11
0.013959882
6.4127108e-11
0.013959988
9.7685312e-11
0.013960046
1.2237694e-10
0.013960076
1.3797441e-10
0.013960091
1.4781162e-10
0.013960097
1.5131455e-10
0.013960099
1.4892547e-10
0.0139601
1.4491956e-10
0.0139601
1.4142387e-10
0.013960099
1.3589523e-10
0.013960099
1.3155704e-10
0.013960099
1.251531e-10
0.013960099
1.1949965e-10
0.013960099
1.1255804e-10
0.013960098
1.061364e-10
0.013960098
9.7807539e-11
0.013960098
9.0747652e-11
0.013960098
8.2101868e-11
0.013960098
7.5125849e-11
0.013960098
6.6923539e-11
0.013960098
6.0592029e-11
0.013960099
5.3207055e-11
0.013960099
4.7905411e-11
0.013960099
4.1756839e-11
0.013960099
3.7409912e-11
0.013960099
3.2063607e-11
0.013960098
2.8774547e-11
0.013960099
2.4474946e-11
0.013960098
2.2077364e-11
0.013960099
1.8591773e-11
0.013960098
1.7007594e-11
0.013960099
1.4337248e-11
0.013960099
1.3474909e-11
0.013960099
1.1462569e-11
0.013960099
1.1251118e-11
0.013960098
1.0283289e-11
0.013960099
1.0451265e-11
0.013960098
9.6663253e-12
0.013960099
1.0872617e-11
0.013960098
1.0892343e-11
0.013960099
1.2854679e-11
0.013960099
1.3582519e-11
0.013960098
1.5105213e-11
0.013960099
1.782664e-11
0.013960098
2.2044989e-11
0.013960099
2.4559196e-11
0.013960098
2.8381684e-11
0.013960099
3.0377425e-11
0.013960099
3.4610544e-11
0.013960099
3.4058156e-11
0.013960099
3.3848526e-11
0.013960099
3.5439905e-11
0.0139601
3.4561437e-11
0.013960101
3.6693655e-11
0.013960102
4.1803635e-11
0.013960105
4.2723014e-11
0.013960109
3.9774194e-11
0.013960115
3.5169766e-11
0.013960125
3.5756361e-11
0.013960137
3.344658e-11
3.5868029e-11
0.010068393
-6.8393231e-05
0.0102674
-0.00019900711
0.010549864
-0.00028246333
0.010858513
-0.00030864944
0.011167226
-0.00030871261
0.011465929
-0.00029870336
0.011746853
-0.00028092375
0.012003686
-0.00025683328
0.012233955
-0.000230269
0.012438732
-0.00020477745
0.012620756
-0.00018202395
0.012782938
-0.00016218217
0.012927939
-0.0001450013
0.013058097
-0.00013015715
0.013175357
-0.0001172609
0.013281237
-0.00010587973
0.013376868
-9.5630943e-05
0.013463095
-8.6227617e-05
0.013540548
-7.7453313e-05
0.01360969
-6.9142617e-05
0.013670885
-6.1194572e-05
0.013724465
-5.358068e-05
0.013770792
-4.6326561e-05
0.013810278
-3.9486866e-05
0.013843407
-3.3128741e-05
0.013870728
-2.7320999e-05
0.01389285
-2.2122409e-05
0.013910421
-1.7570972e-05
0.013924099
-1.3677917e-05
0.013934526
-1.042735e-05
0.013942306
-7.7796401e-06
0.013947982
-5.6767724e-06
0.013952031
-4.0488563e-06
0.013954852
-2.8207802e-06
0.01395677
-1.918198e-06
0.013958042
-1.2721071e-06
0.013958863
-8.2181728e-07
0.01395938
-5.1644905e-07
0.013959695
-3.1508493e-07
0.013959881
-1.8611621e-07
0.013959987
-1.0601401e-07
0.013960045
-5.7873403e-08
0.013960075
-2.9980404e-08
0.01396009
-1.4495778e-08
0.013960096
-6.3067593e-09
0.013960099
-2.2430436e-09
0.013960099
-4.1005308e-10
0.013960099
2.9626711e-10
0.013960099
4.7682888e-10
0.013960099
4.468586e-10
0.013960098
3.511388e-10
0.013960098
2.5720376e-10
0.013960098
1.807492e-10
0.013960098
1.301626e-10
0.013960098
9.3063876e-11
0.013960098
7.4560161e-11
0.013960098
5.5721224e-11
0.013960098
5.3618941e-11
0.013960098
3.6744177e-11
0.013960098
4.6869215e-11
0.013960098
2.0393804e-11
0.013960098
4.8731508e-11
0.013960098
5.0482125e-13
0.013960098
5.9896736e-11
0.013960098
-2.758474e-11
0.013960098
8.0916947e-11
0.013960098
-6.1007795e-11
0.013960098
1.0520222e-10
0.013960098
-8.7369701e-11
0.013960098
1.1166068e-10
0.013960098
-7.6122959e-11
0.013960098
6.1418277e-11
0.013960098
1.5695629e-11
0.013960099
-8.4989986e-11
0.013960098
2.0709882e-10
0.013960099
-3.037728e-10
0.013960098
4.1994177e-10
0.013960099
-4.5931847e-10
0.013960098
4.5964861e-10
0.013960099
-3.2228533e-10
0.013960098
1.2068208e-10
0.013960098
2.0814839e-10
0.013960099
-5.0285022e-10
0.013960098
7.7572618e-10
0.013960099
-8.4971559e-10
0.013960098
7.5837541e-10
0.013960099
-4.6803849e-10
0.013960099
2.5628558e-11
0.013960099
2.1127567e-10
0.013960099
-5.678529e-10
0.013960099
5.1900896e-11
0.0139601
-5.3897993e-10
0.013960101
-1.1260955e-09
0.013960102
-1.117128e-09
0.013960105
-2.7811458e-09
0.013960109
-4.1219294e-09
0.013960115
-6.0208738e-09
0.013960125
-9.6910853e-09
0.013960137
-1.2203462e-08
-1.6319816e-08
0.010097182
-0.00016557486
0.010346958
-0.00044878342
0.010662457
-0.00059796243
0.010982728
-0.00062892069
0.011290179
-0.00061616341
0.011575158
-0.00058368229
0.011828856
-0.00053462204
0.012047579
-0.0004755562
0.012232805
-0.00041549518
0.012388517
-0.00036048883
0.01251919
-0.00031269755
0.012629068
-0.00027205979
0.012721885
-0.00023781796
0.012800778
-0.00020905095
0.012868253
-0.00018473512
0.012926221
-0.00016384793
0.012976127
-0.00014553687
0.013019065
-0.00012916628
0.01305587
-0.00011425849
0.013087187
-0.00010045909
0.013113543
-8.7550253e-05
0.013135411
-7.5448808e-05
0.01315325
-6.4165774e-05
0.013167521
-5.375813e-05
0.013178691
-4.4297912e-05
0.013187223
-3.5852963e-05
0.01319357
-2.8469408e-05
0.013198157
-2.2158004e-05
0.013201368
-1.6889333e-05
0.013203538
-1.2597367e-05
0.013204946
-9.1876591e-06
0.013205817
-6.5473357e-06
0.013206323
-4.5552905e-06
0.013206594
-3.0914867e-06
0.01320672
-2.0442924e-06
0.013206763
-1.3153512e-06
0.013206764
-8.2198901e-07
0.013206745
-4.9764515e-07
0.013206721
-2.9083541e-07
0.013206698
-1.6321587e-07
0.013206679
-8.7216603e-08
0.013206665
-4.373838e-08
0.013206655
-2.0011578e-08
0.013206648
-7.8723552e-09
0.013206644
-2.1058878e-09
0.013206641
3.0882965e-10
0.01320664
1.051462e-09
0.013206639
1.0780565e-09
0.013206639
8.5942997e-10
0.013206639
6.0220506e-10
0.013206639
3.9027638e-10
0.013206639
2.3700288e-10
0.013206639
1.3915795e-10
0.013206639
7.9649261e-11
0.013206639
4.5861807e-11
0.013206639
2.9738955e-11
0.013206639
1.7441004e-11
0.013206639
1.9584788e-11
0.013206639
6.5091436e-12
0.013206639
2.2793725e-11
0.013206639
-5.471114e-12
0.013206639
3.489495e-11
0.013206639
-2.5954042e-11
0.013206639
5.848293e-11
0.013206639
-6.0176265e-11
0.013206639
9.6612428e-11
0.013206639
-1.0708175e-10
0.013206639
1.4306614e-10
0.013206639
-1.5170775e-10
0.013206639
1.7130923e-10
0.013206639
-1.5293913e-10
0.013206639
1.2600216e-10
0.013206639
-4.5174902e-11
0.013206639
-5.9354273e-11
0.013206639
2.1889965e-10
0.013206639
-3.8338018e-10
0.013206639
5.67092e-10
0.013206639
-6.856045e-10
0.013206639
7.4006433e-10
0.013206639
-6.342944e-10
0.013206639
4.0360843e-10
0.013206639
7.4392773e-12
0.013206639
-4.6791617e-10
0.013206639
9.0119239e-10
0.013206639
-1.1604932e-09
0.013206639
1.1555436e-09
0.013206639
-9.501656e-10
0.013206639
3.7776856e-10
0.013206639
-1.144207e-10
0.013206639
-6.1467122e-10
0.01320664
-1.0850626e-10
0.01320664
-9.2510226e-10
0.013206641
-1.6920234e-09
0.013206641
-2.0240771e-09
0.013206643
-4.5290704e-09
0.013206646
-6.8551125e-09
0.01320665
-1.0554266e-08
0.013206658
-1.7169181e-08
0.013206668
-2.2515895e-08
-3.0345862e-08
0.010188704
-0.00035427914
0.010530485
-0.0007905642
0.01085145
-0.00091892767
0.011124167
-0.00090163781
0.011350563
-0.00084255879
0.011524454
-0.00075757334
0.011646275
-0.00065644382
0.011724077
-0.00055335743
0.011767914
-0.00045933261
0.011786562
-0.0003791366
0.01178704
-0.000313176
0.011774989
-0.00026000793
0.01175483
-0.0002176589
0.011729831
-0.00018405292
0.011702284
-0.00015718772
0.011673748
-0.00013531176
0.011645283
-0.00011707176
0.011617601
-0.00010148468
0.011591181
-8.7837982e-05
0.011566353
-7.5631654e-05
0.011543361
-6.4558163e-05
0.011522384
-5.4471703e-05
0.011503547
-4.532882e-05
0.011486921
-3.7132272e-05
0.011472518
-2.9894898e-05
0.011460288
-2.3622557e-05
0.011450119
-1.8300615e-05
0.011441848
-1.3886926e-05
0.011435271
-1.031258e-05
0.011430162
-7.4880961e-06
0.011426286
-5.3116772e-06
0.011423416
-3.6773822e-06
0.011421343
-2.4821201e-06
0.011419883
-1.6312115e-06
0.011418881
-1.0419919e-06
0.011418211
-6.4551375e-07
0.011417775
-3.8660871e-07
0.011417501
-2.2283103e-07
0.011417333
-1.2270722e-07
0.011417233
-6.3846546e-08
0.011417177
-3.0709062e-08
0.011417146
-1.3029821e-08
0.01141713
-4.1989586e-09
0.011417123
-5.0732252e-10
0.01141712
9.5114797e-10
0.011417119
1.2575104e-09
0.011417119
1.091613e-09
0.011417119
7.9803345e-10
0.011417119
5.2485822e-10
0.01141712
3.1566149e-10
0.01141712
1.7518212e-10
0.01141712
8.7444972e-11
0.01141712
3.8103105e-11
0.01141712
1.2320666e-11
0.01141712
-3.5053381e-13
0.01141712
-3.5699221e-12
0.01141712
-7.1441711e-12
0.01141712
-1.6839833e-12
0.01141712
-8.8872908e-12
0.011417121
5.2286911e-12
0.011417121
-1.4239747e-11
0.011417121
1.7488801e-11
0.011417121
-2.80473e-11
0.011417121
3.8752639e-11
0.011417121
-5.4214891e-11
0.011417121
7.3147869e-11
0.011417121
-9.4612204e-11
0.011417121
1.1923672e-10
0.011417121
-1.4100597e-10
0.011417121
1.6026604e-10
0.011417121
-1.6501429e-10
0.011417121
1.5455139e-10
0.011417121
-1.1234255e-10
0.011417121
4.1179751e-11
0.011417121
7.4655683e-11
0.011417121
-2.1385517e-10
0.011417121
3.7935641e-10
0.011417121
-5.2196914e-10
0.011417121
6.3401519e-10
0.011417121
-6.4422056e-10
0.011417121
5.5436544e-10
0.011417121
-3.2116831e-10
0.01141712
-7.3208503e-12
0.011417121
3.7113223e-10
0.01141712
-6.9552019e-10
0.011417121
8.3823504e-10
0.011417121
-8.9480936e-10
0.01141712
5.7428256e-10
0.011417121
-5.2823019e-10
0.01141712
-1.164754e-10
0.011417121
-5.2594512e-10
0.011417121
-6.731521e-10
0.011417121
-1.7266192e-09
0.011417121
-2.0534352e-09
0.011417121
-4.5377223e-09
0.01141712
-6.8564159e-09
0.011417121
-1.1460701e-08
0.011417123
-1.9034964e-08
0.011417128
-2.736313e-08
-3.7758875e-08
0.010339525
-0.00069380394
0.010570759
-0.0010217987
0.010606318
-0.00095448642
0.010547598
-0.0008429179
0.010422358
-0.00071731861
0.010244438
-0.0005796538
0.010039574
-0.0004515794
0.00982903
-0.00034281345
0.0096256477
-0.00025595025
0.0094361444
-0.00018963323
0.0092637595
-0.00014079109
0.0091096161
-0.00010586451
0.0089733591
-8.1401951e-05
0.0088537096
-6.4403554e-05
0.0087490017
-5.2479909e-05
0.0086575614
-4.3871574e-05
0.0085778644
-3.7374849e-05
0.0085085856
-3.2205806e-05
0.008448612
-2.7864383e-05
0.0083970236
-2.4043076e-05
0.0083530397
-2.0574167e-05
0.0083159571
-1.7388986e-05
0.0082851044
-1.4476008e-05
0.0082598186
-1.1846436e-05
0.0082394381
-9.5143903e-06
0.008223306
-7.4904935e-06
0.0082107813
-5.7759873e-06
0.0082012537
-4.3593345e-06
0.008194159
-3.2179496e-06
0.0081889924
-2.3214868e-06
0.0081853161
-1.6353663e-06
0.0081827627
-1.1239119e-06
0.0081810334
-7.5275377e-07
0.0081798929
-4.9065407e-07
0.0081791616
-3.1067803e-07
0.0081787068
-1.9062744e-07
0.0081784331
-1.1294778e-07
0.0081782746
-6.428188e-08
0.0081781868
-3.4876422e-08
0.0081781408
-1.7784591e-08
0.0081781183
-8.2980542e-09
0.0081781086
-3.323987e-09
0.0081781053
-8.9310139e-10
0.0081781048
2.8149918e-11
0.0081781053
3.8596069e-10
0.0081781062
4.2855293e-10
0.0081781069
3.4740717e-10
0.0081781075
2.4452201e-10
0.0081781079
1.5303567e-10
0.0081781081
8.8247466e-11
0.0081781082
4.3550581e-11
0.0081781083
1.8518284e-11
0.0081781083
3.2474077e-12
0.0081781084
-1.918286e-12
0.0081781084
-6.8916703e-12
0.0081781084
-5.1736791e-12
0.0081781084
-7.8800081e-12
0.0081781084
-3.2179401e-12
0.0081781084
-7.5989769e-12
0.0081781084
3.6192936e-13
0.0081781084
-9.3341026e-12
0.0081781084
6.5155573e-12
0.0081781084
-1.506608e-11
0.0081781084
1.681481e-11
0.0081781084
-2.693361e-11
0.0081781085
3.3667123e-11
0.0081781084
-4.6652992e-11
0.0081781085
5.7943604e-11
0.0081781084
-7.2400924e-11
0.0081781085
8.3886284e-11
0.0081781084
-9.3150086e-11
0.0081781085
9.4400324e-11
0.0081781084
-8.4545807e-11
0.0081781084
5.9335676e-11
0.0081781085
-1.4951977e-11
0.0081781083
-4.4966549e-11
0.0081781086
1.2443872e-10
0.0081781083
-2.0539427e-10
0.0081781086
2.83895e-10
0.0081781083
-3.298649e-10
0.0081781085
3.3567456e-10
0.0081781085
-2.8148826e-10
0.0081781083
1.6885362e-10
0.0081781087
-3.2698644e-11
0.0081781081
-1.2861697e-10
0.0081781087
2.327544e-10
0.0081781082
-3.5066169e-10
0.0081781085
2.795889e-10
0.0081781083
-3.5719605e-10
0.0081781081
9.5993639e-11
0.008178108
-4.3173818e-10
0.0081781076
-2.1914545e-10
0.0081781069
-1.056463e-09
0.0081781059
-1.0955058e-09
0.008178104
-2.7059978e-09
0.0081781009
-3.8133312e-09
0.0081780966
-7.1044277e-09
0.0081780896
-1.1924123e-08
0.008178083
-2.0677009e-08
-3.0047165e-08
0.0093061961
0.0082843974
0.0073299109
0.006486993
0.0057696744
0.0051900207
0.0047384413
0.0043956279
0.0041396777
0.0039500445
0.0038092533
0.0037033888
0.0036219868
0.0035575832
0.0035051032
0.0034612316
0.0034238568
0.003391651
0.0033637867
0.0033397437
0.0033191696
0.0033017806
0.0032873047
0.0032754582
0.0032659438
0.0032584533
0.0032526773
0.0032483179
0.0032450999
0.0032427785
0.0032411431
0.0032400192
0.0032392665
0.0032387759
0.0032384652
0.0032382746
0.0032381617
0.0032380974
0.0032380625
0.0032380447
0.0032380364
0.0032380331
0.0032380322
0.0032380322
0.0032380326
0.0032380331
0.0032380334
0.0032380337
0.0032380338
0.0032380339
0.0032380339
0.003238034
0.003238034
0.003238034
0.003238034
0.003238034
0.003238034
0.003238034
0.003238034
0.003238034
0.003238034
0.003238034
0.0032380339
0.003238034
0.0032380339
0.003238034
0.0032380339
0.003238034
0.0032380339
0.003238034
0.0032380339
0.003238034
0.0032380339
0.003238034
0.003238034
0.0032380339
0.003238034
0.0032380338
0.0032380341
0.0032380338
0.0032380341
0.0032380338
0.003238034
0.003238034
0.0032380338
0.0032380341
0.0032380337
0.003238034
0.0032380336
0.0032380337
0.0032380333
0.0032380331
0.003238032
0.0032380309
0.0032380281
0.0032380243
0.0032380173
0.0032380054
0.0032379847
)
;

boundaryField
{
    top
    {
        type            calculated;
        value           uniform 0;
    }
    inlet
    {
        type            calculated;
        value           nonuniform List<scalar> 10(-0.01 -0.01 -0.01 -0.01 -0.01 -0.01 -0.01 -0.01 -0.01 -0.01);
    }
    outlet
    {
        type            calculated;
        value           nonuniform List<scalar> 10(0.0032379545 0.0081780748 0.011417135 0.013206682 0.013960153 0.013960153 0.013206682 0.011417136 0.0081780753 0.0032379547);
    }
    bottom
    {
        type            calculated;
        value           uniform 0;
    }
    back
    {
        type            empty;
        value           nonuniform 0();
    }
    front
    {
        type            empty;
        value           nonuniform 0();
    }
}


// ************************************************************************* //
