/*--------------------------------*- C++ -*----------------------------------*\
| =========                 |                                                 |
| \\      /  F ield         | OpenFOAM: The Open Source CFD Toolbox           |
|  \\    /   O peration     | Version:  v1812                                 |
|   \\  /    A nd           | Web:      www.OpenFOAM.com                      |
|    \\/     M anipulation  |                                                 |
\*---------------------------------------------------------------------------*/
FoamFile
{
    version     2.0;
    format      ascii;
    class       volScalarField;
    location    "2.5";
    object      p;
}
// * * * * * * * * * * * * * * * * * * * * * * * * * * * * * * * * * * * * * //

dimensions      [0 2 -2 0 0 0 0];


internalField   nonuniform List<scalar> 
1000
(
1.7305021
1.6094241
1.5134434
1.4497871
1.4012778
1.3588067
1.3212744
1.2891108
1.261725
1.2379084
1.2165456
1.1968318
1.1782308
1.1604004
1.1431361
1.1263264
1.1099156
1.093877
1.078197
1.062865
1.047868
1.033187
1.0187968
1.0046668
0.99076316
0.97705067
0.96349521
0.95006515
0.93673243
0.92347317
0.91026777
0.89710072
0.88396016
0.87083735
0.85772604
0.84462193
0.83152215
0.81842487
0.80532898
0.79223377
0.77913884
0.76604406
0.75294931
0.73985456
0.72675978
0.71366499
0.70057018
0.68747535
0.67438052
0.66128569
0.64819086
0.63509602
0.62200118
0.60890635
0.59581151
0.58271668
0.56962184
0.556527
0.54343217
0.53033734
0.5172425
0.50414767
0.49105283
0.477958
0.46486316
0.45176833
0.43867349
0.42557866
0.41248383
0.39938899
0.38629416
0.37319933
0.36010449
0.34700966
0.33391482
0.32081999
0.30772516
0.29463032
0.28153549
0.26844065
0.25534583
0.24225098
0.22915615
0.21606132
0.20296647
0.18987166
0.1767768
0.16368199
0.15058715
0.13749231
0.12439749
0.11130265
0.098207815
0.085113006
0.072018183
0.058923421
0.04582868
0.032734057
0.019639587
0.0065459199
1.6132826
1.5583536
1.4974015
1.4458342
1.4025648
1.3635982
1.3280136
1.2962444
1.2682938
1.2435348
1.2211596
1.2004967
1.1810757
1.1625808
1.1448002
1.1275969
1.110887
1.0946205
1.0787654
1.0632973
1.0481931
1.0334274
1.0189704
1.0047884
0.99084506
0.97710324
0.96352688
0.95008257
0.93674066
0.92347588
0.91026746
0.89709902
0.88395805
0.87083534
0.85772437
0.84462065
0.83152124
0.81842426
0.80532856
0.79223353
0.77913871
0.76604399
0.75294928
0.73985454
0.72675978
0.71366499
0.70057018
0.68747536
0.67438053
0.66128569
0.64819086
0.63509602
0.62200118
0.60890635
0.59581151
0.58271668
0.56962184
0.55652701
0.54343217
0.53033734
0.5172425
0.50414767
0.49105283
0.477958
0.46486316
0.45176833
0.43867349
0.42557866
0.41248382
0.399389
0.38629416
0.37319933
0.36010449
0.34700966
0.33391482
0.32081999
0.30772516
0.29463031
0.2815355
0.26844064
0.25534583
0.24225098
0.22915615
0.21606133
0.20296647
0.18987167
0.17677681
0.16368198
0.15058716
0.1374923
0.12439749
0.11130265
0.098207781
0.085112994
0.072018115
0.058923323
0.045828478
0.032733718
0.019638986
0.0065453976
1.5524619
1.5262871
1.4878912
1.4467596
1.4076757
1.3710874
1.3367928
1.3050781
1.2762301
1.2501506
1.2264314
1.2045841
1.1841907
1.1649369
1.1465879
1.1289674
1.1119503
1.0954558
1.0794305
1.0638331
1.0486268
1.0337772
1.0192499
1.005009
0.99101662
0.97723422
0.96362477
0.95015406
0.93679163
0.92351131
0.91029145
0.89711479
0.8839681
0.87084154
0.85772804
0.84462273
0.83152235
0.8184248
0.8053288
0.79223354
0.7791387
0.76604396
0.75294925
0.73985452
0.72675976
0.71366498
0.70057017
0.68747535
0.67438053
0.66128569
0.64819086
0.63509602
0.62200118
0.60890635
0.59581151
0.58271668
0.56962184
0.55652701
0.54343217
0.53033734
0.5172425
0.50414767
0.49105283
0.477958
0.46486316
0.45176833
0.43867349
0.42557867
0.41248382
0.399389
0.38629415
0.37319933
0.36010449
0.34700966
0.33391483
0.32081998
0.30772517
0.29463031
0.28153551
0.26844064
0.25534583
0.24225098
0.22915615
0.21606133
0.20296647
0.18987166
0.1767768
0.16368198
0.15058715
0.13749229
0.12439745
0.11130261
0.098207699
0.085112871
0.072017913
0.058922988
0.045827923
0.032732921
0.019637968
0.0065446939
1.5230539
1.5075562
1.4806876
1.4467659
1.4109666
1.3760181
1.3427207
1.3113717
1.2822496
1.2554846
1.2309431
1.2083039
1.1872117
1.1673718
1.1485526
1.1305645
1.1132598
1.0965384
1.080334
1.0645939
1.0492696
1.0343179
1.0197003
1.0053795
0.99131701
0.97747369
0.96381207
0.95029762
0.93689939
0.92359048
0.91034834
0.89715476
0.88399551
0.87085989
0.85774002
0.84463034
0.83152705
0.81842762
0.80533043
0.79223448
0.77913919
0.76604421
0.75294936
0.73985457
0.72675978
0.71366498
0.70057017
0.68747535
0.67438052
0.66128569
0.64819086
0.63509602
0.62200118
0.60890635
0.59581151
0.58271668
0.56962184
0.55652701
0.54343217
0.53033734
0.5172425
0.50414767
0.49105283
0.477958
0.46486316
0.45176833
0.43867349
0.42557867
0.41248382
0.399389
0.38629415
0.37319933
0.36010449
0.34700966
0.33391483
0.32081998
0.30772517
0.2946303
0.28153551
0.26844063
0.25534584
0.24225097
0.22915615
0.21606132
0.20296646
0.18987167
0.17677678
0.16368199
0.15058711
0.13749229
0.12439741
0.11130254
0.098207627
0.085112694
0.072017652
0.0589226
0.045827294
0.032732134
0.019637121
0.0065441654
1.5103227
1.4983698
1.476137
1.4458518
1.4119926
1.378
1.3453077
1.3143071
1.2852196
1.2582377
1.233363
1.2103716
1.1889512
1.1688236
1.1497642
1.131581
1.1141177
1.0972666
1.0809567
1.0651303
1.0497329
1.0347164
1.0200399
1.0056656
0.99155466
0.97766792
0.96396785
0.95042003
0.93699354
0.92366131
0.91040043
0.89719216
0.88402172
0.87087779
0.85775194
0.84463807
0.83153191
0.81843059
0.80533218
0.79223547
0.77913972
0.76604448
0.75294949
0.73985462
0.72675979
0.71366498
0.70057016
0.68747534
0.67438052
0.66128569
0.64819085
0.63509602
0.62200118
0.60890635
0.59581151
0.58271668
0.56962184
0.55652701
0.54343217
0.53033734
0.5172425
0.50414767
0.49105283
0.477958
0.46486316
0.45176833
0.43867349
0.42557867
0.41248382
0.399389
0.38629415
0.37319933
0.36010448
0.34700966
0.33391483
0.32081998
0.30772517
0.29463029
0.28153552
0.26844062
0.25534585
0.24225096
0.22915616
0.21606132
0.20296645
0.18987168
0.17677676
0.16368201
0.15058709
0.13749228
0.1243974
0.11130248
0.098207582
0.085112576
0.072017469
0.058922363
0.045826911
0.032731682
0.01963669
0.0065439147
1.5103226
1.4983698
1.476137
1.4458518
1.4119926
1.378
1.3453077
1.3143071
1.2852196
1.2582377
1.233363
1.2103716
1.1889512
1.1688236
1.1497642
1.131581
1.1141177
1.0972666
1.0809567
1.0651303
1.0497329
1.0347164
1.0200399
1.0056656
0.99155466
0.97766792
0.96396785
0.95042002
0.93699354
0.92366131
0.91040042
0.89719215
0.88402172
0.87087779
0.85775194
0.84463806
0.83153191
0.81843058
0.80533218
0.79223547
0.77913972
0.76604448
0.75294949
0.73985462
0.72675979
0.71366498
0.70057016
0.68747534
0.67438052
0.66128569
0.64819085
0.63509602
0.62200118
0.60890635
0.59581151
0.58271668
0.56962184
0.55652701
0.54343217
0.53033734
0.5172425
0.50414767
0.49105283
0.477958
0.46486316
0.45176833
0.43867349
0.42557867
0.41248382
0.399389
0.38629415
0.37319933
0.36010448
0.34700966
0.33391483
0.32081998
0.30772517
0.29463029
0.28153552
0.26844062
0.25534585
0.24225096
0.22915616
0.21606132
0.20296645
0.18987168
0.17677676
0.16368201
0.15058709
0.13749228
0.1243974
0.11130248
0.098207581
0.085112576
0.072017469
0.058922363
0.045826911
0.032731682
0.01963669
0.0065439148
1.5230539
1.5075562
1.4806876
1.4467659
1.4109666
1.3760181
1.3427207
1.3113717
1.2822496
1.2554846
1.2309431
1.2083039
1.1872117
1.1673718
1.1485526
1.1305645
1.1132598
1.0965384
1.080334
1.0645939
1.0492696
1.0343179
1.0197003
1.0053795
0.991317
0.97747369
0.96381207
0.95029761
0.93689938
0.92359048
0.91034834
0.89715475
0.88399551
0.87085988
0.85774001
0.84463033
0.83152704
0.81842761
0.80533042
0.79223448
0.77913918
0.76604421
0.75294936
0.73985457
0.72675978
0.71366498
0.70057017
0.68747535
0.67438052
0.66128569
0.64819086
0.63509602
0.62200119
0.60890635
0.59581151
0.58271668
0.56962184
0.55652701
0.54343217
0.53033734
0.5172425
0.50414767
0.49105283
0.477958
0.46486316
0.45176833
0.43867349
0.42557867
0.41248382
0.399389
0.38629415
0.37319933
0.36010449
0.34700966
0.33391483
0.32081998
0.30772517
0.2946303
0.28153551
0.26844063
0.25534584
0.24225097
0.22915615
0.21606132
0.20296646
0.18987167
0.17677678
0.16368199
0.15058711
0.13749229
0.12439741
0.11130254
0.098207626
0.085112694
0.072017653
0.058922601
0.045827294
0.032732134
0.019637122
0.0065441656
1.5524619
1.5262871
1.4878912
1.4467596
1.4076757
1.3710874
1.3367929
1.3050781
1.2762301
1.2501506
1.2264314
1.2045841
1.1841907
1.1649369
1.1465879
1.1289674
1.1119503
1.0954558
1.0794305
1.0638331
1.0486268
1.0337772
1.0192499
1.005009
0.99101661
0.97723421
0.96362476
0.95015405
0.93679163
0.92351131
0.91029144
0.89711479
0.88396809
0.87084152
0.85772803
0.84462272
0.83152234
0.81842479
0.80532879
0.79223354
0.77913869
0.76604396
0.75294925
0.73985452
0.72675976
0.71366498
0.70057017
0.68747535
0.67438053
0.66128569
0.64819086
0.63509602
0.62200119
0.60890635
0.59581151
0.58271668
0.56962184
0.55652701
0.54343217
0.53033734
0.5172425
0.50414767
0.49105283
0.477958
0.46486316
0.45176833
0.43867349
0.42557867
0.41248382
0.399389
0.38629415
0.37319933
0.36010449
0.34700966
0.33391483
0.32081998
0.30772517
0.29463031
0.28153551
0.26844063
0.25534583
0.24225098
0.22915615
0.21606133
0.20296646
0.18987166
0.1767768
0.16368198
0.15058715
0.13749229
0.12439745
0.11130261
0.098207698
0.08511287
0.072017913
0.05892299
0.045827923
0.03273292
0.019637968
0.0065446936
1.6132826
1.5583536
1.4974015
1.4458342
1.4025648
1.3635982
1.3280136
1.2962444
1.2682938
1.2435348
1.2211596
1.2004967
1.1810757
1.1625808
1.1448002
1.1275969
1.110887
1.0946205
1.0787654
1.0632973
1.0481931
1.0334273
1.0189704
1.0047884
0.99084505
0.97710323
0.96352688
0.95008257
0.93674066
0.92347587
0.91026746
0.89709901
0.88395804
0.87083533
0.85772435
0.84462064
0.83152123
0.81842425
0.80532855
0.79223352
0.7791387
0.76604398
0.75294928
0.73985454
0.72675978
0.71366499
0.70057018
0.68747536
0.67438053
0.6612857
0.64819086
0.63509602
0.62200119
0.60890635
0.59581151
0.58271668
0.56962184
0.55652701
0.54343217
0.53033734
0.5172425
0.50414767
0.49105283
0.477958
0.46486316
0.45176833
0.43867349
0.42557866
0.41248382
0.399389
0.38629416
0.37319933
0.36010449
0.34700966
0.33391482
0.32081998
0.30772516
0.29463031
0.2815355
0.26844064
0.25534583
0.24225098
0.22915614
0.21606133
0.20296647
0.18987166
0.17677681
0.16368198
0.15058716
0.1374923
0.12439749
0.11130265
0.098207779
0.085112993
0.072018116
0.058923324
0.045828477
0.032733716
0.019638985
0.0065453972
1.7305021
1.6094241
1.5134434
1.4497871
1.4012778
1.3588067
1.3212744
1.2891108
1.261725
1.2379084
1.2165456
1.1968318
1.1782308
1.1604004
1.1431361
1.1263264
1.1099156
1.093877
1.078197
1.062865
1.047868
1.033187
1.0187968
1.0046668
0.99076314
0.97705066
0.9634952
0.95006514
0.93673242
0.92347316
0.91026776
0.89710071
0.88396015
0.87083734
0.85772602
0.84462191
0.83152213
0.81842486
0.80532898
0.79223376
0.77913884
0.76604406
0.75294931
0.73985456
0.72675978
0.71366499
0.70057018
0.68747536
0.67438053
0.66128569
0.64819086
0.63509602
0.62200119
0.60890635
0.59581151
0.58271668
0.56962184
0.55652701
0.54343217
0.53033734
0.5172425
0.50414767
0.49105283
0.477958
0.46486316
0.45176833
0.4386735
0.42557866
0.41248383
0.399389
0.38629416
0.37319933
0.36010449
0.34700966
0.33391482
0.32081999
0.30772516
0.29463032
0.28153549
0.26844065
0.25534582
0.24225098
0.22915615
0.21606132
0.20296647
0.18987166
0.1767768
0.16368199
0.15058715
0.13749231
0.12439749
0.11130264
0.098207814
0.085113007
0.072018185
0.058923422
0.045828678
0.032734053
0.019639585
0.0065459197
)
;

boundaryField
{
    top
    {
        type            zeroGradient;
    }
    inlet
    {
        type            zeroGradient;
    }
    outlet
    {
        type            fixedValue;
        value           uniform 0;
    }
    bottom
    {
        type            zeroGradient;
    }
    back
    {
        type            empty;
    }
    front
    {
        type            empty;
    }
}


// ************************************************************************* //
