/*--------------------------------*- C++ -*----------------------------------*\
| =========                 |                                                 |
| \\      /  F ield         | OpenFOAM: The Open Source CFD Toolbox           |
|  \\    /   O peration     | Version:  v1812                                 |
|   \\  /    A nd           | Web:      www.OpenFOAM.com                      |
|    \\/     M anipulation  |                                                 |
\*---------------------------------------------------------------------------*/
FoamFile
{
    version     2.0;
    format      ascii;
    class       volVectorField;
    location    "2.5";
    object      U;
}
// * * * * * * * * * * * * * * * * * * * * * * * * * * * * * * * * * * * * * //

dimensions      [0 1 -1 0 0 0 0];


internalField   nonuniform List<vector> 
1000
(
(0.91890832 0.035821766 0)
(0.86271421 0.06219556 0)
(0.78706035 0.062509489 0)
(0.69536261 0.054547637 0)
(0.6109054 0.044527869 0)
(0.54413274 0.034006164 0)
(0.49346586 0.024165903 0)
(0.4548553 0.016116006 0)
(0.42553466 0.010233055 0)
(0.40360004 0.0062531801 0)
(0.38734607 0.0037139592 0)
(0.37524508 0.0021934226 0)
(0.36607911 0.0013490225 0)
(0.35896178 0.00091486367 0)
(0.35328297 0.000705477 0)
(0.3486378 0.00060773082 0)
(0.34476474 0.00055827779 0)
(0.3414969 0.00052265717 0)
(0.33872822 0.00048390989 0)
(0.33638997 0.00043690077 0)
(0.33443407 0.00038334128 0)
(0.33282117 0.00032722564 0)
(0.33151412 0.00027217845 0)
(0.33047541 0.00022070482 0)
(0.32966723 0.00017439189 0)
(0.32905233 0.00013425617 0)
(0.32859531 0.00010071382 0)
(0.32826383 7.3609118e-05 0)
(0.32802942 5.2388802e-05 0)
(0.32786799 3.6282349e-05 0)
(0.32775991 2.4430364e-05 0)
(0.32768965 1.5978717e-05 0)
(0.32764543 1.0136578e-05 0)
(0.32761855 6.2222857e-06 0)
(0.32760286 3.6831131e-06 0)
(0.32759413 2.0918024e-06 0)
(0.32758954 1.1304147e-06 0)
(0.32758733 5.7171915e-07 0)
(0.32758639 2.5677133e-07 0)
(0.32758609 8.9312396e-08 0)
(0.32758606 1.4904188e-08 0)
(0.32758614 -1.317338e-08 0)
(0.32758624 -2.0022266e-08 0)
(0.32758632 -1.806187e-08 0)
(0.32758638 -1.3578375e-08 0)
(0.32758642 -9.0159816e-09 0)
(0.32758644 -5.5172469e-09 0)
(0.32758646 -2.9086942e-09 0)
(0.32758646 -1.25469e-09 0)
(0.32758646 -1.7363134e-11 0)
(0.32758646 4.8357108e-10 0)
(0.32758646 7.467071e-10 0)
(0.32758645 7.2531309e-10 0)
(0.32758645 7.2689433e-10 0)
(0.32758645 5.9728256e-10 0)
(0.32758645 5.4565759e-10 0)
(0.32758645 4.3953126e-10 0)
(0.32758645 3.6667907e-10 0)
(0.32758644 3.3714927e-10 0)
(0.32758644 1.8402314e-10 0)
(0.32758644 3.3504683e-10 0)
(0.32758644 -4.6978486e-11 0)
(0.32758644 4.9501118e-10 0)
(0.32758644 -4.48741e-10 0)
(0.32758644 9.4711788e-10 0)
(0.32758644 -1.192871e-09 0)
(0.32758643 1.8838068e-09 0)
(0.32758645 -2.5085729e-09 0)
(0.32758643 3.5100193e-09 0)
(0.32758646 -4.5100542e-09 0)
(0.32758641 5.7821817e-09 0)
(0.32758648 -6.8916264e-09 0)
(0.32758639 7.9708256e-09 0)
(0.3275865 -8.3860239e-09 0)
(0.32758635 8.2207342e-09 0)
(0.32758654 -6.6063567e-09 0)
(0.32758631 3.8451639e-09 0)
(0.32758659 1.0865047e-09 0)
(0.32758627 -6.7305563e-09 0)
(0.32758662 1.3866086e-08 0)
(0.32758624 -2.0156016e-08 0)
(0.32758665 2.6238204e-08 0)
(0.32758621 -2.8184555e-08 0)
(0.32758667 2.87313e-08 0)
(0.3275862 -2.2318674e-08 0)
(0.32758668 1.5903998e-08 0)
(0.32758617 -2.0534242e-09 0)
(0.3275867 4.3717659e-10 0)
(0.32758613 2.1860997e-08 0)
(0.3275867 -6.033178e-09 0)
(0.32758608 5.2579566e-08 0)
(0.32758663 1.2227401e-08 0)
(0.32758599 1.1884272e-07 0)
(0.32758641 9.1612545e-08 0)
(0.32758564 2.7561212e-07 0)
(0.32758583 3.437526e-07 0)
(0.32758454 6.6114042e-07 0)
(0.32758423 1.0350722e-06 0)
(0.32758096 1.6601589e-06 0)
(0.32757933 2.1866168e-06 0)
(1.0016582 0.053819349 0)
(1.035976 0.10128338 0)
(1.0597199 0.11073518 0)
(1.062894 0.10591777 0)
(1.051559 0.096219747 0)
(1.0340578 0.083919258 0)
(1.0142941 0.070300041 0)
(0.99364419 0.056936432 0)
(0.97299325 0.045047253 0)
(0.95321284 0.035158792 0)
(0.93496303 0.027285773 0)
(0.91856361 0.021206619 0)
(0.90405649 0.016620036 0)
(0.89133438 0.01320317 0)
(0.88023993 0.010648599 0)
(0.87060992 0.0087021 0)
(0.86228861 0.0071782052 0)
(0.8551336 0.005948532 0)
(0.84902152 0.0049247219 0)
(0.84384749 0.0040496025 0)
(0.83951892 0.0032915469 0)
(0.83594827 0.002635739 0)
(0.83304955 0.0020747366 0)
(0.83073754 0.0016025328 0)
(0.8289289 0.001212536 0)
(0.82754336 0.00089737391 0)
(0.82650521 0.00064877604 0)
(0.82574527 0.00045764134 0)
(0.82520239 0.00031452623 0)
(0.8248244 0.00021026971 0)
(0.82456824 0.00013646723 0)
(0.82439954 8.5769152e-05 0)
(0.82429179 5.2024718e-05 0)
(0.82422525 3.0306502e-05 0)
(0.82418565 1.6829367e-05 0)
(0.82416309 8.8010274e-06 0)
(0.82415089 4.2399892e-06 0)
(0.82414473 1.7954455e-06 0)
(0.82414192 5.780096e-07 0)
(0.82414086 2.8907756e-08 0)
(0.82414062 -1.8066217e-07 0)
(0.8241407 -2.1239211e-07 0)
(0.82414088 -1.7763181e-07 0)
(0.82414106 -1.2631716e-07 0)
(0.8241412 -8.0409296e-08 0)
(0.82414129 -4.604064e-08 0)
(0.82414135 -2.3175454e-08 0)
(0.82414138 -9.1041383e-09 0)
(0.82414139 -1.2446021e-09 0)
(0.8241414 2.9529835e-09 0)
(0.8241414 4.6047306e-09 0)
(0.82414139 5.0214453e-09 0)
(0.82414139 4.709565e-09 0)
(0.82414139 4.2307461e-09 0)
(0.82414138 3.6517565e-09 0)
(0.82414138 3.0940638e-09 0)
(0.82414137 2.7066891e-09 0)
(0.82414137 2.1246523e-09 0)
(0.82414137 2.1192574e-09 0)
(0.82414137 1.2284173e-09 0)
(0.82414136 1.9802325e-09 0)
(0.82414137 1.4539199e-10 0)
(0.82414136 2.5251942e-09 0)
(0.82414137 -1.584409e-09 0)
(0.82414135 4.2241335e-09 0)
(0.82414138 -4.6069325e-09 0)
(0.82414133 7.7614125e-09 0)
(0.8241414 -9.6374706e-09 0)
(0.8241413 1.3629605e-08 0)
(0.82414145 -1.6733428e-08 0)
(0.82414123 2.106378e-08 0)
(0.82414153 -2.3867379e-08 0)
(0.82414113 2.6219497e-08 0)
(0.82414165 -2.508067e-08 0)
(0.82414099 2.0966313e-08 0)
(0.8241418 -1.0672902e-08 0)
(0.82414082 -4.3781046e-09 0)
(0.82414196 2.6664776e-08 0)
(0.82414068 -5.1149608e-08 0)
(0.82414208 7.7617468e-08 0)
(0.8241406 -9.6788854e-08 0)
(0.82414211 1.0735181e-07 0)
(0.8241406 -9.658798e-08 0)
(0.82414207 7.0656482e-08 0)
(0.82414065 -1.902545e-08 0)
(0.82414202 -3.3109386e-08 0)
(0.82414069 9.8282368e-08 0)
(0.82414199 -1.1978119e-07 0)
(0.82414069 1.6015861e-07 0)
(0.82414194 -9.2809621e-08 0)
(0.82414071 1.3272229e-07 0)
(0.8241418 4.14997e-08 0)
(0.82414066 1.7111795e-07 0)
(0.82414167 2.2337543e-07 0)
(0.82414019 4.6237931e-07 0)
(0.82414152 6.3949695e-07 0)
(0.82413882 1.1758841e-06 0)
(0.82414083 1.8431709e-06 0)
(0.82413513 2.8441675e-06 0)
(0.82413984 4.2135345e-06 0)
(1.0014244 0.026824826 0)
(1.0291267 0.062789867 0)
(1.0654279 0.077733979 0)
(1.098958 0.080592122 0)
(1.125309 0.078274075 0)
(1.1450439 0.073135743 0)
(1.1594718 0.066081702 0)
(1.1694156 0.058111972 0)
(1.1755269 0.050222324 0)
(1.1785602 0.043048327 0)
(1.1793294 0.036821697 0)
(1.1785619 0.031536788 0)
(1.176808 0.027102536 0)
(1.1744451 0.023396376 0)
(1.1717361 0.020276236 0)
(1.1688749 0.017604946 0)
(1.1659978 0.015274411 0)
(1.1631904 0.013206804 0)
(1.1605071 0.011344805 0)
(1.1579895 0.0096489302 0)
(1.1556716 0.0080994033 0)
(1.1535781 0.0066926791 0)
(1.1517239 0.0054330196 0)
(1.1501149 0.0043254057 0)
(1.1487493 0.0033720438 0)
(1.1476175 0.0025708164 0)
(1.1467019 0.0019146018 0)
(1.1459794 0.0013914558 0)
(1.1454237 0.00098576721 0)
(1.1450071 0.00067992827 0)
(1.144703 0.00045594663 0)
(1.144487 0.00029672604 0)
(1.1443377 0.00018696825 0)
(1.1442374 0.00011369215 0)
(1.144172 6.6400578e-05 0)
(1.1441307 3.6974487e-05 0)
(1.1441054 1.9392994e-05 0)
(1.1440906 9.3681996e-06 0)
(1.1440822 3.9734775e-06 0)
(1.1440777 1.2768151e-06 0)
(1.1440754 5.9279574e-08 0)
(1.1440744 -3.7965324e-07 0)
(1.144074 -4.5226966e-07 0)
(1.1440739 -3.815534e-07 0)
(1.1440739 -2.7454056e-07 0)
(1.1440739 -1.7699029e-07 0)
(1.144074 -1.0307489e-07 0)
(1.144074 -5.3131441e-08 0)
(1.1440741 -2.2230963e-08 0)
(1.1440741 -4.8052584e-09 0)
(1.1440741 4.2358783e-09 0)
(1.1440741 8.1399968e-09 0)
(1.1440741 9.3669221e-09 0)
(1.1440741 9.0796411e-09 0)
(1.1440741 8.4001317e-09 0)
(1.1440741 7.2288079e-09 0)
(1.1440741 6.5726407e-09 0)
(1.1440741 5.19709e-09 0)
(1.1440741 5.2433801e-09 0)
(1.1440741 3.2734715e-09 0)
(1.1440741 4.7754902e-09 0)
(1.1440741 1.0409747e-09 0)
(1.144074 5.5787321e-09 0)
(1.1440741 -2.2713206e-09 0)
(1.144074 8.3884385e-09 0)
(1.1440741 -7.6597874e-09 0)
(1.144074 1.4098816e-08 0)
(1.1440742 -1.5875348e-08 0)
(1.1440739 2.2813279e-08 0)
(1.1440743 -2.5961013e-08 0)
(1.1440738 3.1770208e-08 0)
(1.1440744 -3.2689173e-08 0)
(1.1440735 3.2587393e-08 0)
(1.1440747 -2.449154e-08 0)
(1.1440733 1.1209302e-08 0)
(1.144075 1.2872982e-08 0)
(1.144073 -4.2841501e-08 0)
(1.1440753 8.0697494e-08 0)
(1.1440728 -1.1518021e-07 0)
(1.1440754 1.4301274e-07 0)
(1.1440728 -1.4655418e-07 0)
(1.1440752 1.2525489e-07 0)
(1.144073 -6.3079708e-08 0)
(1.1440749 -1.7369276e-08 0)
(1.1440733 1.2219161e-07 0)
(1.1440746 -1.9373755e-07 0)
(1.1440735 2.4849066e-07 0)
(1.1440745 -2.0481679e-07 0)
(1.1440735 1.631697e-07 0)
(1.1440746 -1.8323776e-09 0)
(1.1440735 2.3143634e-08 0)
(1.1440747 1.7082598e-07 0)
(1.1440733 1.5129121e-07 0)
(1.1440749 2.559931e-07 0)
(1.1440728 5.704946e-07 0)
(1.1440754 7.241913e-07 0)
(1.144072 1.2768047e-06 0)
(1.144076 2.0399942e-06 0)
(1.1440697 2.81611e-06 0)
(1.1440783 4.0350265e-06 0)
(1.0007346 0.011814706 0)
(1.0178466 0.030859826 0)
(1.0462141 0.041432061 0)
(1.0798952 0.04518934 0)
(1.1132562 0.045493769 0)
(1.1437659 0.044065914 0)
(1.1708656 0.041416998 0)
(1.1945279 0.037935284 0)
(1.2148038 0.03413633 0)
(1.2318735 0.030450799 0)
(1.2461045 0.027092475 0)
(1.2579784 0.024113313 0)
(1.2679508 0.021500503 0)
(1.2763729 0.019216837 0)
(1.2835109 0.017205402 0)
(1.2895854 0.015403034 0)
(1.2947717 0.013758725 0)
(1.2991908 0.012236819 0)
(1.3029252 0.010810429 0)
(1.3060437 0.0094603759 0)
(1.3086125 0.0081790998 0)
(1.310693 0.0069706371 0)
(1.3123429 0.0058455244 0)
(1.3136189 0.0048156929 0)
(1.3145793 0.0038917124 0)
(1.3152812 0.003081196 0)
(1.3157778 0.0023874735 0)
(1.3161165 0.001808872 0)
(1.3163378 0.0013389591 0)
(1.3164753 0.00096753441 0)
(1.3165555 0.0006819449 0)
(1.3165983 0.00046841535 0)
(1.316618 0.00031323026 0)
(1.3166244 0.00020365106 0)
(1.316624 0.00012851804 0)
(1.3166206 7.8539538e-05 0)
(1.3166164 4.6326486e-05 0)
(1.3166125 2.6246541e-05 0)
(1.3166094 1.4172136e-05 0)
(1.316607 7.2015453e-06 0)
(1.3166053 3.3714399e-06 0)
(1.3166042 1.3783148e-06 0)
(1.3166036 4.2124891e-07 0)
(1.3166031 1.3502853e-08 0)
(1.3166029 -1.2241562e-07 0)
(1.3166028 -1.3780254e-07 0)
(1.3166027 -1.0931952e-07 0)
(1.3166027 -7.2508886e-08 0)
(1.3166027 -4.0975312e-08 0)
(1.3166027 -1.8491961e-08 0)
(1.3166027 -4.1226857e-09 0)
(1.3166027 4.0282561e-09 0)
(1.3166027 8.2299251e-09 0)
(1.3166027 9.7362076e-09 0)
(1.3166027 1.0090099e-08 0)
(1.3166027 9.3425184e-09 0)
(1.3166027 8.8784257e-09 0)
(1.3166027 7.3876519e-09 0)
(1.3166026 7.3992889e-09 0)
(1.3166027 5.1275871e-09 0)
(1.3166026 6.6218713e-09 0)
(1.3166027 2.4904817e-09 0)
(1.3166026 7.1148963e-09 0)
(1.3166027 -1.1474431e-09 0)
(1.3166026 9.5483545e-09 0)
(1.3166027 -6.5707254e-09 0)
(1.3166025 1.4505391e-08 0)
(1.3166028 -1.4063009e-08 0)
(1.3166024 2.1418182e-08 0)
(1.316603 -2.1818473e-08 0)
(1.3166022 2.6559561e-08 0)
(1.3166033 -2.3733242e-08 0)
(1.3166018 2.1130183e-08 0)
(1.3166036 -8.8165955e-09 0)
(1.3166015 -6.5876518e-09 0)
(1.316604 3.2375662e-08 0)
(1.3166011 -5.9616417e-08 0)
(1.3166043 9.0673171e-08 0)
(1.316601 -1.1120273e-07 0)
(1.3166043 1.2047921e-07 0)
(1.3166012 -1.0076298e-07 0)
(1.3166039 5.8786707e-08 0)
(1.3166017 1.6392288e-08 0)
(1.3166033 -9.3605819e-08 0)
(1.3166022 1.7641066e-07 0)
(1.3166029 -2.062761e-07 0)
(1.3166024 2.076378e-07 0)
(1.3166029 -1.1816342e-07 0)
(1.3166023 5.1601015e-08 0)
(1.3166031 8.9206242e-08 0)
(1.3166021 -4.5359065e-08 0)
(1.3166035 1.6290033e-07 0)
(1.3166018 1.3881304e-07 0)
(1.316604 1.6755291e-07 0)
(1.3166016 4.7949617e-07 0)
(1.3166049 5.7053096e-07 0)
(1.3166012 9.594282e-07 0)
(1.3166063 1.547699e-06 0)
(1.3165999 2.0006606e-06 0)
(1.3166103 2.7296258e-06 0)
(1.0005901 0.0034629077 0)
(1.0136859 0.0093656465 0)
(1.0370258 0.013045868 0)
(1.0674124 0.014561632 0)
(1.1000193 0.014851372 0)
(1.1316241 0.014559589 0)
(1.1610409 0.013879684 0)
(1.1880171 0.012904988 0)
(1.2124496 0.011784176 0)
(1.2342725 0.010663146 0)
(1.2535905 0.0096220389 0)
(1.270691 0.0086847102 0)
(1.2859047 0.0078509579 0)
(1.2994944 0.0071116853 0)
(1.3116593 0.0064506949 0)
(1.3225727 0.0058489706 0)
(1.332376 0.0052910762 0)
(1.3411603 0.0047663403 0)
(1.3489791 0.0042664259 0)
(1.3558758 0.0037850666 0)
(1.3618962 0.0033198803 0)
(1.3670862 0.0028727532 0)
(1.3714924 0.0024481703 0)
(1.3751684 0.0020514455 0)
(1.3781782 0.0016877764 0)
(1.3805944 0.0013616185 0)
(1.3824944 0.0010760392 0)
(1.3839559 0.00083225262 0)
(1.3850549 0.00062951681 0)
(1.385862 0.00046535675 0)
(1.3864406 0.00033597909 0)
(1.3868452 0.00023676214 0)
(1.3871209 0.00016274086 0)
(1.3873038 0.00010902604 0)
(1.3874217 7.1121373e-05 0)
(1.3874956 4.5120236e-05 0)
(1.3875403 2.779247e-05 0)
(1.3875665 1.6584453e-05 0)
(1.3875812 9.5573555e-06 0)
(1.3875891 5.2954787e-06 0)
(1.3875931 2.8021961e-06 0)
(1.3875949 1.3998371e-06 0)
(1.3875957 6.4652921e-07 0)
(1.3875959 2.6573469e-07 0)
(1.3875959 8.7864781e-08 0)
(1.3875958 1.4627175e-08 0)
(1.3875957 -8.732668e-09 0)
(1.3875957 -1.0832654e-08 0)
(1.3875956 -5.7963693e-09 0)
(1.3875956 2.2769018e-10 0)
(1.3875956 4.9089374e-09 0)
(1.3875956 7.9532898e-09 0)
(1.3875956 9.5138585e-09 0)
(1.3875956 1.0025505e-08 0)
(1.3875956 9.8881133e-09 0)
(1.3875956 9.283794e-09 0)
(1.3875956 8.6603594e-09 0)
(1.3875956 7.6452384e-09 0)
(1.3875956 7.1934987e-09 0)
(1.3875956 5.8468492e-09 0)
(1.3875956 6.0605646e-09 0)
(1.3875956 3.9727324e-09 0)
(1.3875956 5.5643412e-09 0)
(1.3875956 1.8183965e-09 0)
(1.3875955 5.9629306e-09 0)
(1.3875957 -9.0341437e-10 0)
(1.3875954 7.4216584e-09 0)
(1.3875958 -4.2102286e-09 0)
(1.3875953 9.561897e-09 0)
(1.387596 -7.1949887e-09 0)
(1.387595 1.0658582e-08 0)
(1.3875964 -7.2118062e-09 0)
(1.3875946 7.0730013e-09 0)
(1.3875968 2.4160584e-11 0)
(1.3875942 -5.3423363e-09 0)
(1.3875972 1.7262767e-08 0)
(1.3875938 -2.6331171e-08 0)
(1.3875974 3.8650813e-08 0)
(1.3875938 -4.2739447e-08 0)
(1.3875973 4.4365195e-08 0)
(1.3875941 -3.0530683e-08 0)
(1.3875967 1.224534e-08 0)
(1.3875948 2.143519e-08 0)
(1.3875961 -4.8727405e-08 0)
(1.3875954 7.9537376e-08 0)
(1.3875956 -7.933503e-08 0)
(1.3875956 7.4599965e-08 0)
(1.3875957 -2.7214008e-08 0)
(1.3875953 4.5691263e-09 0)
(1.3875962 5.3066661e-08 0)
(1.387595 -2.5079314e-08 0)
(1.3875966 6.305297e-08 0)
(1.3875947 6.3242256e-08 0)
(1.3875972 5.5637006e-08 0)
(1.3875947 1.883142e-07 0)
(1.3875982 2.1814234e-07 0)
(1.3875946 3.5197641e-07 0)
(1.3876 5.7128376e-07 0)
(1.3875936 7.169885e-07 0)
(1.3876046 9.4972036e-07 0)
(1.0005901 -0.003462901 0)
(1.0136859 -0.0093656321 0)
(1.0370258 -0.013045852 0)
(1.0674124 -0.014561622 0)
(1.1000193 -0.014851373 0)
(1.1316241 -0.014559605 0)
(1.1610409 -0.013879709 0)
(1.1880171 -0.012905015 0)
(1.2124496 -0.011784201 0)
(1.2342725 -0.01066317 0)
(1.2535905 -0.0096220612 0)
(1.270691 -0.0086847311 0)
(1.2859047 -0.0078509801 0)
(1.2994944 -0.0071117139 0)
(1.3116593 -0.0064507347 0)
(1.3225727 -0.0058490233 0)
(1.3323759 -0.0052911396 0)
(1.3411603 -0.0047664103 0)
(1.3489791 -0.0042664971 0)
(1.3558758 -0.0037851333 0)
(1.3618962 -0.0033199374 0)
(1.3670862 -0.0028727979 0)
(1.3714924 -0.0024482022 0)
(1.3751684 -0.0020514669 0)
(1.3781781 -0.0016877916 0)
(1.3805944 -0.0013616323 0)
(1.3824943 -0.0010760566 0)
(1.3839559 -0.00083227669 0)
(1.3850548 -0.00062954911 0)
(1.385862 -0.00046539645 0)
(1.3864406 -0.00033602374 0)
(1.3868452 -0.00023680788 0)
(1.3871209 -0.00016278358 0)
(1.3873037 -0.00010906195 0)
(1.3874217 -7.1147716e-05 0)
(1.3874955 -4.5135495e-05 0)
(1.3875403 -2.7796526e-05 0)
(1.3875665 -1.6578324e-05 0)
(1.3875812 -9.5425725e-06 0)
(1.387589 -5.273973e-06 0)
(1.387593 -2.7761307e-06 0)
(1.3875949 -1.370867e-06 0)
(1.3875956 -6.1670171e-07 0)
(1.3875958 -2.3556998e-07 0)
(1.3875958 -5.8079593e-08 0)
(1.3875958 1.4660941e-08 0)
(1.3875957 3.7140749e-08 0)
(1.3875956 3.8463865e-08 0)
(1.3875956 3.2329837e-08 0)
(1.3875956 2.5291472e-08 0)
(1.3875956 1.9250083e-08 0)
(1.3875956 1.4958155e-08 0)
(1.3875956 1.1822278e-08 0)
(1.3875956 9.881199e-09 0)
(1.3875956 8.3200126e-09 0)
(1.3875956 7.4467707e-09 0)
(1.3875956 6.3913558e-09 0)
(1.3875956 6.0171521e-09 0)
(1.3875956 4.9347915e-09 0)
(1.3875956 5.0715234e-09 0)
(1.3875956 3.5172143e-09 0)
(1.3875956 4.6038383e-09 0)
(1.3875956 1.8869126e-09 0)
(1.3875956 4.8312966e-09 0)
(1.3875955 -2.4799093e-10 0)
(1.3875957 5.9951376e-09 0)
(1.3875954 -3.0917112e-09 0)
(1.3875958 8.087934e-09 0)
(1.3875953 -6.2846644e-09 0)
(1.387596 1.0174791e-08 0)
(1.387595 -8.1296421e-09 0)
(1.3875964 9.5863997e-09 0)
(1.3875946 -5.020224e-09 0)
(1.3875968 2.0022541e-09 0)
(1.3875942 7.1767132e-09 0)
(1.3875972 -1.5299106e-08 0)
(1.3875938 2.8243636e-08 0)
(1.3875974 -3.6494064e-08 0)
(1.3875938 4.4981131e-08 0)
(1.3875973 -4.1709686e-08 0)
(1.3875941 3.346563e-08 0)
(1.3875967 -8.7191809e-09 0)
(1.3875948 -1.7453284e-08 0)
(1.387596 5.3457681e-08 0)
(1.3875954 -7.4076844e-08 0)
(1.3875956 8.5672661e-08 0)
(1.3875956 -6.7738423e-08 0)
(1.3875957 3.4554046e-08 0)
(1.3875953 2.6728208e-09 0)
(1.3875961 -4.5845334e-08 0)
(1.387595 3.219137e-08 0)
(1.3875966 -5.5708301e-08 0)
(1.3875947 -5.5031668e-08 0)
(1.3875972 -4.6952758e-08 0)
(1.3875947 -1.792577e-07 0)
(1.3875982 -2.1000539e-07 0)
(1.3875946 -3.4420296e-07 0)
(1.3876001 -5.6295696e-07 0)
(1.3875936 -7.0998804e-07 0)
(1.3876046 -9.421508e-07 0)
(1.0007346 -0.011814701 0)
(1.0178466 -0.030859815 0)
(1.0462141 -0.041432051 0)
(1.0798952 -0.045189335 0)
(1.1132562 -0.045493774 0)
(1.1437659 -0.04406593 0)
(1.1708656 -0.04141702 0)
(1.1945279 -0.037935307 0)
(1.2148038 -0.034136351 0)
(1.2318734 -0.030450817 0)
(1.2461045 -0.02709249 0)
(1.2579784 -0.024113328 0)
(1.2679508 -0.021500521 0)
(1.2763729 -0.019216862 0)
(1.2835109 -0.017205438 0)
(1.2895854 -0.015403082 0)
(1.2947717 -0.013758783 0)
(1.2991908 -0.012236884 0)
(1.3029251 -0.010810494 0)
(1.3060436 -0.0094604356 0)
(1.3086124 -0.0081791493 0)
(1.3106929 -0.0069706738 0)
(1.3123427 -0.0058455485 0)
(1.3136188 -0.0048157073 0)
(1.3145792 -0.0038917216 0)
(1.3152811 -0.0030812052 0)
(1.3157777 -0.0023874871 0)
(1.3161163 -0.0018088931 0)
(1.3163377 -0.0013389883 0)
(1.3164752 -0.00096757053 0)
(1.3165554 -0.0006819848 0)
(1.3165981 -0.00046845505 0)
(1.3166178 -0.00031326582 0)
(1.3166243 -0.00020367914 0)
(1.3166239 -0.00012853655 0)
(1.3166205 -7.8547681e-05 0)
(1.3166163 -4.6324684e-05 0)
(1.3166124 -2.623636e-05 0)
(1.3166092 -1.4155294e-05 0)
(1.3166068 -7.1801556e-06 0)
(1.3166052 -3.3474884e-06 0)
(1.3166041 -1.3532967e-06 0)
(1.3166034 -3.9554018e-07 0)
(1.316603 1.1833209e-08 0)
(1.3166028 1.4708628e-07 0)
(1.3166026 1.6154605e-07 0)
(1.3166026 1.3222218e-07 0)
(1.3166026 9.4442174e-08 0)
(1.3166026 6.2086945e-08 0)
(1.3166026 3.8560607e-08 0)
(1.3166026 2.3167619e-08 0)
(1.3166026 1.3782174e-08 0)
(1.3166026 8.4340566e-09 0)
(1.3166026 5.5896338e-09 0)
(1.3166026 4.0159554e-09 0)
(1.3166026 3.4033565e-09 0)
(1.3166026 2.6850314e-09 0)
(1.3166026 2.9085898e-09 0)
(1.3166026 1.8473098e-09 0)
(1.3166026 3.0042089e-09 0)
(1.3166026 6.3228462e-10 0)
(1.3166026 3.8228637e-09 0)
(1.3166026 -1.5173194e-09 0)
(1.3166027 5.9671298e-09 0)
(1.3166026 -5.2852694e-09 0)
(1.3166027 1.0208736e-08 0)
(1.3166025 -1.1282008e-08 0)
(1.3166028 1.6794179e-08 0)
(1.3166024 -1.8971509e-08 0)
(1.316603 2.3901076e-08 0)
(1.3166022 -2.4639986e-08 0)
(1.3166033 2.5398534e-08 0)
(1.3166018 -1.9521218e-08 0)
(1.3166036 1.0268788e-08 0)
(1.3166014 8.0632776e-09 0)
(1.316604 -3.0921387e-08 0)
(1.3166011 6.1256808e-08 0)
(1.3166043 -8.8964464e-08 0)
(1.316601 1.1319538e-07 0)
(1.3166043 -1.1827621e-07 0)
(1.3166012 1.0341224e-07 0)
(1.3166039 -5.5748186e-08 0)
(1.3166017 -1.2746922e-08 0)
(1.3166033 9.7838806e-08 0)
(1.3166022 -1.7158646e-07 0)
(1.3166029 2.116057e-07 0)
(1.3166024 -2.0175619e-07 0)
(1.3166029 1.2429909e-07 0)
(1.3166023 -4.532641e-08 0)
(1.3166031 -8.3042971e-08 0)
(1.3166021 5.1321104e-08 0)
(1.3166035 -1.5708688e-07 0)
(1.3166018 -1.3195729e-07 0)
(1.316604 -1.6045848e-07 0)
(1.3166016 -4.7194118e-07 0)
(1.3166049 -5.6349183e-07 0)
(1.3166013 -9.5234215e-07 0)
(1.3166063 -1.5400639e-06 0)
(1.3165999 -1.9925497e-06 0)
(1.3166103 -2.7211798e-06 0)
(1.0014244 -0.026824823 0)
(1.0291267 -0.062789862 0)
(1.0654279 -0.077733974 0)
(1.098958 -0.08059212 0)
(1.1253089 -0.078274079 0)
(1.1450438 -0.073135752 0)
(1.1594718 -0.066081715 0)
(1.1694156 -0.058111986 0)
(1.1755269 -0.050222336 0)
(1.1785602 -0.043048337 0)
(1.1793294 -0.036821705 0)
(1.1785619 -0.031536797 0)
(1.176808 -0.027102548 0)
(1.174445 -0.023396394 0)
(1.171736 -0.020276261 0)
(1.1688748 -0.017604978 0)
(1.1659977 -0.015274451 0)
(1.1631903 -0.013206848 0)
(1.160507 -0.011344848 0)
(1.1579893 -0.0096489686 0)
(1.1556714 -0.0080994337 0)
(1.1535779 -0.0066927 0)
(1.1517237 -0.0054330316 0)
(1.1501147 -0.0043254113 0)
(1.1487492 -0.0033720467 0)
(1.1476173 -0.0025708207 0)
(1.1467017 -0.0019146106 0)
(1.1459793 -0.001391471 0)
(1.1454235 -0.00098578863 0)
(1.1450069 -0.00067995438 0)
(1.1447028 -0.00045597443 0)
(1.1444868 -0.00029675238 0)
(1.1443375 -0.00018699018 0)
(1.1442372 -0.00011370755 0)
(1.1441718 -6.6408372e-05 0)
(1.1441305 -3.6974758e-05 0)
(1.1441052 -1.9386508e-05 0)
(1.1440904 -9.3561052e-06 0)
(1.144082 -3.9577603e-06 0)
(1.1440775 -1.259744e-06 0)
(1.1440752 -4.1701508e-08 0)
(1.1440742 3.9669605e-07 0)
(1.1440738 4.6907182e-07 0)
(1.1440737 3.9743291e-07 0)
(1.1440737 2.8965623e-07 0)
(1.1440738 1.9111732e-07 0)
(1.1440739 1.1658521e-07 0)
(1.1440739 6.581174e-08 0)
(1.144074 3.434178e-08 0)
(1.144074 1.6026509e-08 0)
(1.144074 6.5117961e-09 0)
(1.144074 1.7826479e-09 0)
(1.144074 -4.6723676e-11 0)
(1.144074 -6.7196785e-10 0)
(1.144074 -6.3694372e-10 0)
(1.144074 -3.8169853e-10 0)
(1.144074 -3.2237332e-10 0)
(1.144074 2.1555261e-10 0)
(1.144074 -3.3581864e-10 0)
(1.144074 8.9917235e-10 0)
(1.144074 -9.8824155e-10 0)
(1.144074 2.1274493e-09 0)
(1.144074 -2.6993515e-09 0)
(1.1440741 4.6274532e-09 0)
(1.144074 -6.2303011e-09 0)
(1.1440741 9.3899229e-09 0)
(1.144074 -1.2478622e-08 0)
(1.1440741 1.7143628e-08 0)
(1.1440739 -2.1573345e-08 0)
(1.1440743 2.6930109e-08 0)
(1.1440738 -3.075719e-08 0)
(1.1440744 3.3493114e-08 0)
(1.1440735 -3.1668183e-08 0)
(1.1440747 2.527414e-08 0)
(1.1440733 -1.0222728e-08 0)
(1.144075 -1.2009005e-08 0)
(1.144073 4.3926058e-08 0)
(1.1440753 -7.962315e-08 0)
(1.1440728 1.1658959e-07 0)
(1.1440754 -1.4150516e-07 0)
(1.1440728 1.4849386e-07 0)
(1.1440752 -1.2309443e-07 0)
(1.144073 6.5816567e-08 0)
(1.1440749 2.0392845e-08 0)
(1.1440733 -1.1872617e-07 0)
(1.1440746 1.9735482e-07 0)
(1.1440735 -2.4447465e-07 0)
(1.1440745 2.0886059e-07 0)
(1.1440736 -1.5884762e-07 0)
(1.1440746 5.8613961e-09 0)
(1.1440735 -1.8952003e-08 0)
(1.1440747 -1.6658671e-07 0)
(1.1440733 -1.4679144e-07 0)
(1.144075 -2.5141193e-07 0)
(1.1440729 -5.6578444e-07 0)
(1.1440755 -7.1971051e-07 0)
(1.144072 -1.2717116e-06 0)
(1.1440761 -2.0339393e-06 0)
(1.1440698 -2.80793e-06 0)
(1.1440783 -4.026794e-06 0)
(1.0016582 -0.053819348 0)
(1.035976 -0.10128338 0)
(1.0597199 -0.11073518 0)
(1.062894 -0.10591777 0)
(1.0515589 -0.096219744 0)
(1.0340577 -0.083919255 0)
(1.0142941 -0.070300041 0)
(0.99364416 -0.056936436 0)
(0.97299322 -0.04504726 0)
(0.95321281 -0.035158799 0)
(0.934963 -0.02728578 0)
(0.91856359 -0.021206627 0)
(0.90405647 -0.016620045 0)
(0.89133433 -0.013203178 0)
(0.88023986 -0.010648605 0)
(0.87060983 -0.0087021075 0)
(0.8622885 -0.0071782152 0)
(0.85513348 -0.0059485445 0)
(0.84902138 -0.0049247354 0)
(0.84384734 -0.0040496153 0)
(0.83951877 -0.0032915579 0)
(0.83594812 -0.0026357476 0)
(0.83304941 -0.0020747427 0)
(0.83073741 -0.0016025368 0)
(0.82892878 -0.0012125391 0)
(0.82754323 -0.00089737706 0)
(0.82650508 -0.00064878043 0)
(0.82574512 -0.00045764738 0)
(0.82520224 -0.00031453411 0)
(0.82482424 -0.00021027856 0)
(0.82456806 -0.00013647624 0)
(0.82439935 -8.5777164e-05 0)
(0.8242916 -5.2030947e-05 0)
(0.82422505 -3.0310278e-05 0)
(0.82418546 -1.6830584e-05 0)
(0.8241629 -8.7996987e-06 0)
(0.82415071 -4.2366122e-06 0)
(0.82414456 -1.7903001e-06 0)
(0.82414176 -5.7226372e-07 0)
(0.82414071 -2.2453585e-08 0)
(0.82414049 1.8716695e-07 0)
(0.82414058 2.1879004e-07 0)
(0.82414077 1.8314799e-07 0)
(0.82414096 1.314397e-07 0)
(0.82414111 8.5028014e-08 0)
(0.82414121 5.0417881e-08 0)
(0.82414128 2.7141195e-08 0)
(0.82414131 1.2948564e-08 0)
(0.82414134 4.8385658e-09 0)
(0.82414135 7.3569583e-10 0)
(0.82414135 -1.2496207e-09 0)
(0.82414135 -1.7922021e-09 0)
(0.82414136 -1.865903e-09 0)
(0.82414136 -1.5480462e-09 0)
(0.82414136 -1.3681379e-09 0)
(0.82414136 -9.6193391e-10 0)
(0.82414136 -9.4124234e-10 0)
(0.82414136 -4.7332216e-10 0)
(0.82414136 -8.0280386e-10 0)
(0.82414136 2.3557604e-11 0)
(0.82414136 -1.0153119e-09 0)
(0.82414136 7.8882219e-10 0)
(0.82414136 -1.8426716e-09 0)
(0.82414137 2.266668e-09 0)
(0.82414135 -3.7508218e-09 0)
(0.82414138 5.116955e-09 0)
(0.82414133 -7.4344565e-09 0)
(0.8241414 1.0029606e-08 0)
(0.8241413 -1.3385044e-08 0)
(0.82414145 1.7074889e-08 0)
(0.82414124 -2.0847205e-08 0)
(0.82414153 2.4204927e-08 0)
(0.82414114 -2.5974534e-08 0)
(0.82414165 2.5470971e-08 0)
(0.824141 -2.0647001e-08 0)
(0.82414181 1.1147703e-08 0)
(0.82414083 4.7836447e-09 0)
(0.82414197 -2.6040355e-08 0)
(0.82414069 5.1747802e-08 0)
(0.82414209 -7.6776574e-08 0)
(0.82414061 9.7643033e-08 0)
(0.82414212 -1.0624527e-07 0)
(0.82414062 9.7725535e-08 0)
(0.82414209 -6.9323491e-08 0)
(0.82414067 2.0388217e-08 0)
(0.82414203 3.4642585e-08 0)
(0.8241407 -9.6836097e-08 0)
(0.82414201 1.2134047e-07 0)
(0.82414071 -1.5854894e-07 0)
(0.82414195 9.4875183e-08 0)
(0.82414074 -1.3019036e-07 0)
(0.82414183 -3.8650279e-08 0)
(0.82414069 -1.6878519e-07 0)
(0.8241417 -2.2219535e-07 0)
(0.82414022 -4.6266916e-07 0)
(0.82414155 -6.3937504e-07 0)
(0.82413886 -1.1739556e-06 0)
(0.82414087 -1.8387301e-06 0)
(0.82413516 -2.837237e-06 0)
(0.82413988 -4.2072463e-06 0)
(0.91890832 -0.035821766 0)
(0.8627142 -0.06219556 0)
(0.78706034 -0.062509488 0)
(0.6953626 -0.054547636 0)
(0.61090539 -0.044527866 0)
(0.54413273 -0.034006161 0)
(0.49346587 -0.024165903 0)
(0.4548553 -0.01611601 0)
(0.42553465 -0.010233061 0)
(0.40360002 -0.0062531848 0)
(0.38734605 -0.0037139628 0)
(0.37524506 -0.0021934251 0)
(0.36607908 -0.0013490227 0)
(0.35896175 -0.00091486096 0)
(0.35328294 -0.00070547277 0)
(0.34863777 -0.00060772774 0)
(0.34476471 -0.00055827677 0)
(0.34149687 -0.00052265837 0)
(0.33872818 -0.00048391232 0)
(0.33638993 -0.00043690415 0)
(0.33443402 -0.00038334503 0)
(0.33282112 -0.00032722915 0)
(0.33151406 -0.00027218128 0)
(0.33047535 -0.00022070636 0)
(0.32966717 -0.00017439254 0)
(0.32905227 -0.00013425584 0)
(0.32859526 -0.0001007133 0)
(0.32826377 -7.360836e-05 0)
(0.32802936 -5.2388391e-05 0)
(0.32786793 -3.6282139e-05 0)
(0.32775984 -2.4430697e-05 0)
(0.32768958 -1.5979329e-05 0)
(0.32764536 -1.0137453e-05 0)
(0.32761848 -6.2231411e-06 0)
(0.32760279 -3.6839671e-06 0)
(0.32759406 -2.0924997e-06 0)
(0.32758947 -1.1311414e-06 0)
(0.32758726 -5.7243084e-07 0)
(0.32758633 -2.5745278e-07 0)
(0.32758604 -8.917645e-08 0)
(0.32758602 -1.4789513e-08 0)
(0.3275861 1.3475156e-08 0)
(0.3275862 2.012393e-08 0)
(0.32758629 1.8244809e-08 0)
(0.32758635 1.3567371e-08 0)
(0.3275864 9.1195904e-09 0)
(0.32758642 5.4376848e-09 0)
(0.32758644 3.0542314e-09 0)
(0.32758644 1.346749e-09 0)
(0.32758645 4.7769842e-10 0)
(0.32758645 -2.3168939e-10 0)
(0.32758645 -3.6429171e-10 0)
(0.32758645 -5.2891051e-10 0)
(0.32758645 -4.0804594e-10 0)
(0.32758645 -4.6607348e-10 0)
(0.32758644 -2.8323884e-10 0)
(0.32758644 -3.6247774e-10 0)
(0.32758644 -1.5668299e-10 0)
(0.32758644 -3.0916181e-10 0)
(0.32758644 -6.406507e-12 0)
(0.32758644 -3.4099996e-10 0)
(0.32758644 1.7607782e-10 0)
(0.32758644 -5.3602841e-10 0)
(0.32758644 5.5920573e-10 0)
(0.32758644 -9.9751768e-10 0)
(0.32758645 1.29054e-09 0)
(0.32758644 -1.9429691e-09 0)
(0.32758645 2.6106645e-09 0)
(0.32758643 -3.5582082e-09 0)
(0.32758646 4.6221634e-09 0)
(0.32758642 -5.8180039e-09 0)
(0.32758648 7.0238222e-09 0)
(0.32758639 -7.9833147e-09 0)
(0.32758651 8.5375406e-09 0)
(0.32758636 -8.2072701e-09 0)
(0.32758655 6.7940579e-09 0)
(0.32758632 -3.783616e-09 0)
(0.32758659 -8.5116222e-10 0)
(0.32758627 6.8006535e-09 0)
(0.32758663 -1.3613615e-08 0)
(0.32758624 2.0268402e-08 0)
(0.32758666 -2.5940674e-08 0)
(0.32758622 2.8357271e-08 0)
(0.32758667 -2.8425994e-08 0)
(0.3275862 2.2388656e-08 0)
(0.32758669 -1.5789984e-08 0)
(0.32758617 1.9428772e-09 0)
(0.32758671 -2.9369937e-10 0)
(0.32758614 -2.1531342e-08 0)
(0.32758671 7.1133849e-09 0)
(0.3275861 -5.1164854e-08 0)
(0.32758664 -1.0996747e-08 0)
(0.32758601 -1.1912447e-07 0)
(0.32758642 -9.3577683e-08 0)
(0.32758565 -2.7807591e-07 0)
(0.32758584 -3.4454357e-07 0)
(0.32758455 -6.5968824e-07 0)
(0.32758426 -1.0317451e-06 0)
(0.32758099 -1.6563849e-06 0)
(0.32757935 -2.184058e-06 0)
)
;

boundaryField
{
    top
    {
        type            fixedValue;
        value           uniform (0 0 0);
    }
    inlet
    {
        type            fixedValue;
        value           uniform (1 0 0);
    }
    outlet
    {
        type            zeroGradient;
    }
    bottom
    {
        type            fixedValue;
        value           uniform (0 0 0);
    }
    back
    {
        type            empty;
    }
    front
    {
        type            empty;
    }
}


// ************************************************************************* //
