/*--------------------------------*- C++ -*----------------------------------*\
| =========                 |                                                 |
| \\      /  F ield         | OpenFOAM: The Open Source CFD Toolbox           |
|  \\    /   O peration     | Version:  v1812                                 |
|   \\  /    A nd           | Web:      www.OpenFOAM.com                      |
|    \\/     M anipulation  |                                                 |
\*---------------------------------------------------------------------------*/
FoamFile
{
    version     2.0;
    format      ascii;
    class       surfaceScalarField;
    location    "10.7";
    object      phi;
}
// * * * * * * * * * * * * * * * * * * * * * * * * * * * * * * * * * * * * * //

dimensions      [0 3 -1 0 0 0 0];
oriented        oriented;


internalField   nonuniform List<scalar> 
1890
(
0.0093061957
0.00069380425
0.0082843931
0.0010218027
0.0073298986
0.00095449449
0.0064869553
0.00084294334
0.0057695845
0.0007173708
0.00518986
0.00057972444
0.004738168
0.00045169204
0.00439519
0.000342978
0.0041390268
0.00025616317
0.003949107
0.00018991983
0.003807888
0.00014121897
0.0037013782
0.0001065098
0.003619058
8.2320222e-05
0.0035534117
6.5646245e-05
0.0034992845
5.4127254e-05
0.0034532444
4.6040048e-05
0.0034130501
4.0194292e-05
0.0033772574
3.5792755e-05
0.0033449386
3.2318757e-05
0.0033154893
2.9449279e-05
0.0032885008
2.6988573e-05
0.0032636805
2.4820298e-05
0.003240805
2.2875479e-05
0.0032196926
2.1112419e-05
0.0032001879
1.950466e-05
0.0031821539
1.8034024e-05
0.0031654672
1.6686734e-05
0.0031500158
1.545137e-05
0.0031356979
1.4317865e-05
0.0031224208
1.3277069e-05
0.0031101003
1.2320585e-05
0.0030986595
1.1440712e-05
0.0030880291
1.0630427e-05
0.0030781458
9.8833624e-06
0.003068952
9.1937745e-06
0.0030603955
8.556505e-06
0.0030524286
7.9669318e-06
0.0030450076
7.4209169e-06
0.0030380929
6.9147556e-06
0.0030316477
6.4451267e-06
0.0030256387
6.0090471e-06
0.0030200349
5.6038312e-06
0.0030148078
5.2270545e-06
0.0030099313
4.8765229e-06
0.0030053811
4.5502447e-06
0.0030011346
4.246408e-06
0.0029971713
3.9633597e-06
0.0029934717
3.6995876e-06
0.002990018
3.4537061e-06
0.0029867935
3.2244412e-06
0.0029837829
3.0106203e-06
0.0029809718
2.8111618e-06
0.0029783467
2.625066e-06
0.0029758953
2.4514095e-06
0.002973606
2.289337e-06
0.0029714679
2.1380576e-06
0.0029694711
1.9968383e-06
0.0029676061
1.864999e-06
0.0029658642
1.7419087e-06
0.0029642372
1.6269795e-06
0.0029627175
1.5196641e-06
0.002961298
1.419452e-06
0.0029599722
1.3258663e-06
0.0029587337
1.2384637e-06
0.0029575769
1.1568309e-06
0.0029564963
1.0805847e-06
0.002955487
1.0093695e-06
0.0029545441
9.4285387e-07
0.0029536634
8.8073025e-07
0.0029528406
8.2270809e-07
0.0029520721
7.685163e-07
0.0029513542
7.1789752e-07
0.0029506836
6.70612e-07
0.0029500572
6.264335e-07
0.002949472
5.8515647e-07
0.0029489255
5.465839e-07
0.0029484149
5.1054549e-07
0.0029479381
4.7686486e-07
0.0029474927
4.4540052e-07
0.0029470767
4.1598247e-07
0.0029466882
3.8849432e-07
0.0029463254
3.6276084e-07
0.0029459867
3.3870558e-07
0.0029456706
3.1613644e-07
0.0029453756
2.9504888e-07
0.0029451004
2.7520361e-07
0.0029448437
2.5670781e-07
0.0029446045
2.3921058e-07
0.0029443815
2.2299187e-07
0.002944174
2.0748897e-07
0.0029439808
1.9327274e-07
0.0029438014
1.7942935e-07
0.0029436344
1.6701055e-07
0.0029434798
1.5457081e-07
0.002943336
1.4384947e-07
0.0029432032
1.3278142e-07
0.0029430794
1.2378767e-07
0.0029429645
1.1488096e-07
0.002942856
1.0849872e-07
1.0945148e-07
0.010339525
0.00035427932
0.010570754
0.00079057335
0.010606301
0.00091894821
0.010547572
0.00090167137
0.010422317
0.00084262624
0.010244356
0.00075768559
0.010039421
0.00065662744
0.0098287426
0.00055365586
0.009625135
0.00045977083
0.0094353013
0.00037975353
0.0092624277
0.00031409258
0.0091075332
0.00026140426
0.008970154
0.00021969949
0.0088489023
0.00018689787
0.0087419716
0.00016105803
0.0086474927
0.00014051895
0.008563694
0.00012399297
0.0084890107
0.000110476
0.0084221096
9.9219863e-05
0.0083618775
8.9681393e-05
0.0083073954
8.1470657e-05
0.0082579079
7.4307839e-05
0.0082127929
6.7990495e-05
0.0081715353
6.2369996e-05
0.0081337049
5.7335027e-05
0.0080989388
5.2800199e-05
0.0080669272
4.869828e-05
0.0080374036
4.4974963e-05
0.0080101361
4.1585391e-05
0.0079849213
3.8491839e-05
0.0079615798
3.5662142e-05
0.0079399519
3.3068597e-05
0.0079198951
3.0687162e-05
0.0079012817
2.8496849e-05
0.0078839962
2.6479252e-05
0.0078679345
2.4618165e-05
0.0078530022
2.2899269e-05
0.0078391132
2.130987e-05
0.0078261893
1.9838675e-05
0.0078141588
1.847561e-05
0.0078029562
1.7211653e-05
0.0077925214
1.6038702e-05
0.0077827989
1.4949457e-05
0.0077737382
1.3937324e-05
0.0077652921
1.2996323e-05
0.0077574175
1.2121026e-05
0.0077500743
1.1306486e-05
0.0077432257
1.054819e-05
0.0077368374
9.8420058e-06
0.0077308777
9.1841489e-06
0.0077253172
8.5711418e-06
0.0077201286
7.9997846e-06
0.0077152865
7.4671282e-06
0.0077107675
6.9704506e-06
0.0077065496
6.5072366e-06
0.0077026125
6.0751605e-06
0.0076989373
5.6720702e-06
0.0076955063
5.295973e-06
0.0076923032
4.9450225e-06
0.0076893126
4.6175064e-06
0.0076865204
4.3118344e-06
0.0076839134
4.0265277e-06
0.007681479
3.7602098e-06
0.0076792059
3.5115978e-06
0.0076770832
3.2794973e-06
0.007675101
3.0627956e-06
0.00767325
2.8604597e-06
0.0076715213
2.6715287e-06
0.0076699069
2.4951109e-06
0.0076683992
2.3303741e-06
0.0076669912
2.1765446e-06
0.0076656762
2.0328927e-06
0.007664448
1.8987405e-06
0.007663301
1.7734411e-06
0.0076622298
1.6564044e-06
0.0076612294
1.5470573e-06
0.007660295
1.444899e-06
0.0076594225
1.3494215e-06
0.0076586076
1.2602139e-06
0.0076578468
1.1768037e-06
0.0076571364
1.0988685e-06
0.0076564733
1.025926e-06
0.0076558542
9.5776421e-07
0.0076552766
8.9383826e-07
0.0076547375
8.3411916e-07
0.0076542348
7.7791758e-07
0.007653766
7.255241e-07
0.0076533293
6.7592965e-07
0.0076529224
6.2997467e-07
0.0076525439
5.8598477e-07
0.0076521914
5.4578041e-07
0.0076518644
5.0641282e-07
0.00765156
4.7151325e-07
0.0076512788
4.3577432e-07
0.0076510165
4.0619172e-07
0.0076507762
3.7309051e-07
0.0076505501
3.4986462e-07
0.0076503463
3.1870399e-07
0.0076501492
3.0559677e-07
2.7405276e-07
0.010188704
0.00016557515
0.010530487
0.000448791
0.010851453
0.00059798177
0.011124174
0.00062895025
0.011350581
0.00061621887
0.011524486
0.00058378056
0.01164633
0.00053478421
0.011724155
0.00047583049
0.011767999
0.00041592665
0.011786639
0.00036111399
0.011787114
0.00031361711
0.011775058
0.00027346026
0.011754861
0.00023989719
0.011729768
0.00021199032
0.011702054
0.00018877261
0.011673239
0.00016933389
0.011644339
0.00015289296
0.011616003
0.00013881183
0.011588629
0.00012659379
0.011562446
0.00011586444
0.011537572
0.00010634493
0.011514052
9.7826995e-05
0.01149189
9.0153363e-05
0.011471056
8.3203372e-05
0.011451509
7.6882624e-05
0.011433193
7.1115573e-05
0.011416051
6.5840304e-05
0.011400021
6.1004915e-05
0.011385042
5.656507e-05
0.011371051
5.2482332e-05
0.01135799
4.8723018e-05
0.011345801
4.5257379e-05
0.01133443
4.205899e-05
0.011323822
3.9104275e-05
0.011313929
3.6372133e-05
0.011304704
3.3843625e-05
0.011296101
3.1501712e-05
0.01128808
2.9331033e-05
0.011280601
2.7317709e-05
0.011273628
2.5449177e-05
0.011267125
2.3714041e-05
0.011261062
2.2101942e-05
0.011255408
2.0603448e-05
0.011250135
1.920995e-05
0.011245218
1.7913582e-05
0.011240632
1.6707139e-05
0.011236354
1.5584017e-05
0.011232364
1.4538149e-05
0.011228642
1.356396e-05
0.01122517
1.2656314e-05
0.011221931
1.181048e-05
0.011218909
1.1022092e-05
0.011216089
1.0287113e-05
0.011213457
9.6018117e-06
0.011211002
8.9627319e-06
0.01120871
8.3666714e-06
0.011206572
7.8106606e-06
0.011204576
7.2919462e-06
0.011202713
6.807974e-06
0.011200974
6.3563742e-06
0.011199351
5.9349481e-06
0.011197836
5.5416516e-06
0.011196421
5.1745845e-06
0.011195101
4.8319762e-06
0.011193868
4.5121759e-06
0.011192717
4.2136448e-06
0.011191643
3.9349485e-06
0.01119064
3.6747511e-06
0.011189703
3.4318131e-06
0.011188828
3.2049778e-06
0.011188012
2.9931772e-06
0.011187249
2.795406e-06
0.011186537
2.6107371e-06
0.011185872
2.4382845e-06
0.011185252
2.2772379e-06
0.011184672
2.1268033e-06
0.01118413
1.986285e-06
0.011183625
1.8549665e-06
0.011183153
1.7322808e-06
0.011182712
1.6175619e-06
0.011182301
1.5103895e-06
0.011181916
1.410086e-06
0.011181558
1.3164117e-06
0.011181223
1.22857e-06
0.011180911
1.1466073e-06
0.011180619
1.0694359e-06
0.011180347
9.9763728e-07
0.011180093
9.2951271e-07
0.011179857
8.6665596e-07
0.011179637
8.0610192e-07
0.011179431
7.5135776e-07
0.011179241
6.9690294e-07
0.011179062
6.499143e-07
0.011178898
5.9988301e-07
0.011178743
5.6103981e-07
0.011178603
5.1338747e-07
0.011178469
4.8446695e-07
0.01117835
4.3677299e-07
0.011178235
4.2136823e-07
3.7244211e-07
0.010097182
6.8393555e-05
0.010346961
0.00019901112
0.010662469
0.00028247387
0.010982753
0.00030866649
0.011290229
0.00030874342
0.011575251
0.00029875789
0.011829022
0.00028101346
0.012047865
0.00025698755
0.012233272
0.00023051982
0.01238924
0.00020514589
0.012520295
0.00018256236
0.012630755
0.00016299957
0.012724428
0.00014622491
0.012804515
0.00013190313
0.012873613
0.00011967427
0.012933772
0.00010917461
0.012986596
0.00010006907
0.013033332
9.2076365e-05
0.01307495
8.4975251e-05
0.013112216
7.8598611e-05
0.013145739
7.2822301e-05
0.013176012
6.7553936e-05
0.013203441
6.2723924e-05
0.013228366
5.8278898e-05
0.013251071
5.4176992e-05
0.013271802
5.0384439e-05
0.01329077
4.6873171e-05
0.013308155
4.3619185e-05
0.013324119
4.0601463e-05
0.0133388
3.7801281e-05
0.013352321
3.5201752e-05
0.013364791
3.2787529e-05
0.013376306
3.0544593e-05
0.01338695
2.8460095e-05
0.0133968
2.6522231e-05
0.013405923
2.4720148e-05
0.013414381
2.3043857e-05
0.013422228
2.1484155e-05
0.013429513
2.0032566e-05
0.013436281
1.8681272e-05
0.013442572
1.7423061e-05
0.013448423
1.6251274e-05
0.013453866
1.5159762e-05
0.013458933
1.4142837e-05
0.013463652
1.3195238e-05
0.013468047
1.2312095e-05
0.013472142
1.1488899e-05
0.013475959
1.0721469e-05
0.013479517
1.0005934e-05
0.013482834
9.3387018e-06
0.013485928
8.7164425e-06
0.013488814
8.1360655e-06
0.013491507
7.5947008e-06
0.013494019
7.0896807e-06
0.013496363
6.6185261e-06
0.013498551
6.1789287e-06
0.013500593
5.7687415e-06
0.013502499
5.3859664e-06
0.013504278
5.0287445e-06
0.013505939
4.6953493e-06
0.01350749
4.3841748e-06
0.013508938
4.0937282e-06
0.01351029
3.8226205e-06
0.013511552
3.569555e-06
0.013512731
3.3333227e-06
0.013513832
3.1127923e-06
0.01351486
2.9069081e-06
0.01351582
2.7146831e-06
0.013516716
2.5351997e-06
0.013517554
2.3676056e-06
0.013518336
2.2111109e-06
0.013519066
2.0649764e-06
0.013519748
1.9285243e-06
0.013520386
1.8011025e-06
0.013520981
1.6821193e-06
0.013521537
1.570985e-06
0.013522056
1.4671878e-06
0.01352254
1.3701898e-06
0.013522993
1.2795716e-06
0.013523416
1.1948304e-06
0.013523811
1.1156717e-06
0.013524179
1.0415771e-06
0.013524523
9.7241553e-07
0.013524844
9.0755024e-07
0.013525144
8.4710059e-07
0.013525423
7.9014272e-07
0.013525683
7.3727113e-07
0.013525926
6.8697335e-07
0.013526152
6.4077993e-07
0.013526362
5.959816e-07
0.013526557
5.5590944e-07
0.013526739
5.1545783e-07
0.013526907
4.8136489e-07
0.013527063
4.4392802e-07
0.013527208
4.162177e-07
0.013527342
3.8012442e-07
0.013527466
3.6002227e-07
0.01352758
3.2319796e-07
0.013527688
3.1278467e-07
2.7657071e-07
0.010068394
-2.4073667e-12
0.010267405
-2.3834129e-12
0.010549879
-9.3628611e-13
0.010858545
6.4244897e-13
0.011167288
1.2623115e-12
0.011466046
9.5685235e-13
0.01174706
-2.5597968e-13
0.012004047
-1.3860917e-12
0.012234567
-1.76399e-12
0.012439713
-1.1957699e-12
0.012622275
-4.5611343e-13
0.012785275
1.2272646e-12
0.0129315
2.8636589e-12
0.013063403
3.6238684e-12
0.013183077
3.5341777e-12
0.013292252
2.5544766e-12
0.013392321
1.2642843e-12
0.013484397
-1.1338501e-12
0.013569373
-2.8598549e-12
0.013647971
-3.5001937e-12
0.013720794
-2.9350097e-12
0.013788347
-1.710587e-12
0.013851071
1.1093024e-12
0.01390935
4.0205423e-12
0.013963527
5.6902174e-12
0.014013912
6.1838078e-12
0.014060785
4.8506305e-12
0.014104404
2.829249e-12
0.014145005
-2.2351789e-13
0.014182807
-2.626071e-12
0.014218009
-3.3735061e-12
0.014250796
-2.5777197e-12
0.014281341
-4.8184422e-13
0.014309801
4.1506301e-12
0.014336323
7.672151e-12
0.014361043
1.0741131e-11
0.014384087
1.1895256e-11
0.014405571
1.0571941e-11
0.014425604
7.5998119e-12
0.014444285
4.2870464e-12
0.014461708
1.7253062e-12
0.014477959
9.6828289e-13
0.014493119
2.1824073e-12
0.014507262
7.9478143e-12
0.014520457
1.3184465e-11
0.014532769
1.898684e-11
0.014544258
2.2803533e-11
0.014554979
2.3274821e-11
0.014564985
2.0856507e-11
0.014574324
1.6082155e-11
0.01458304
1.1654236e-11
0.014591177
9.0753958e-12
0.014598771
1.0122616e-11
0.014605861
1.5093818e-11
0.014612479
2.2347931e-11
0.014618658
3.0268019e-11
0.014624427
3.612307e-11
0.014629813
3.713232e-11
0.014634842
3.3400041e-11
0.014639537
2.5636198e-11
0.014643921
1.7658505e-11
0.014648015
1.1935054e-11
0.014651837
1.0359698e-11
0.014655407
1.6470686e-11
0.01465874
2.33503e-11
0.014661853
3.2292211e-11
0.01466476
3.8095205e-11
0.014667475
3.6620247e-11
0.01467001
2.755084e-11
0.014672377
1.4059049e-11
0.014674588
-4.2771795e-13
0.014676653
-1.2555472e-11
0.014678582
-1.7434207e-11
0.014680383
-1.5400641e-11
0.014682065
-8.094879e-12
0.014683636
-1.1797663e-12
0.014685103
-2.005005e-13
0.014686474
-5.7518903e-12
0.014687753
-2.4141706e-11
0.014688948
-4.7888958e-11
0.014690064
-7.2419266e-11
0.014691105
-8.9905112e-11
0.014692078
-9.6126121e-11
0.014692986
-9.0375264e-11
0.014693833
-7.7754674e-11
0.014694623
-6.6331126e-11
0.01469536
-6.0565449e-11
0.014696047
-6.5629843e-11
0.014696688
-7.8616478e-11
0.014697284
-9.5517704e-11
0.01469784
-1.0403142e-10
0.014698356
-1.0646579e-10
0.014698837
-8.4829268e-11
0.014699281
-6.2487916e-11
0.014699698
-2.6527371e-11
0.014700078
4.4519517e-12
0.014700438
3.8098316e-11
0.014700761
7.4971763e-11
0.014701074
9.7013184e-11
1.3408157e-10
0.010068394
-6.839356e-05
0.010267405
-0.00019901112
0.010549879
-0.00028247387
0.010858545
-0.00030866649
0.011167288
-0.00030874342
0.011466046
-0.00029875788
0.01174706
-0.00028101346
0.012004047
-0.00025698756
0.012234567
-0.00023051982
0.012439713
-0.0002051459
0.012622275
-0.00018256235
0.012785275
-0.00016299957
0.0129315
-0.00014622491
0.013063403
-0.00013190312
0.013183077
-0.00011967426
0.013292252
-0.00010917461
0.013392321
-0.00010006907
0.013484397
-9.2076368e-05
0.013569373
-8.4975256e-05
0.013647971
-7.8598616e-05
0.013720794
-7.2822304e-05
0.013788347
-6.7553936e-05
0.013851071
-6.272392e-05
0.01390935
-5.827889e-05
0.013963527
-5.4176982e-05
0.014013912
-5.0384429e-05
0.014060785
-4.6873164e-05
0.014104404
-4.3619182e-05
0.014145006
-4.0601465e-05
0.014182807
-3.7801286e-05
0.014218009
-3.5201756e-05
0.014250796
-3.2787531e-05
0.014281341
-3.054459e-05
0.014309801
-2.8460085e-05
0.014336323
-2.6522216e-05
0.014361043
-2.4720129e-05
0.014384087
-2.3043838e-05
0.014405571
-2.148414e-05
0.014425604
-2.0032556e-05
0.014444285
-1.8681266e-05
0.014461708
-1.7423057e-05
0.014477959
-1.6251269e-05
0.014493119
-1.5159752e-05
0.014507262
-1.4142818e-05
0.014520457
-1.3195211e-05
0.014532769
-1.2312061e-05
0.014544258
-1.1488861e-05
0.014554979
-1.0721432e-05
0.014564985
-1.0005901e-05
0.014574324
-9.3386754e-06
0.014583041
-8.7164206e-06
0.014591177
-8.1360445e-06
0.014598771
-7.5946751e-06
0.014605861
-7.0896461e-06
0.014612479
-6.6184805e-06
0.014618658
-6.178873e-06
0.014624427
-5.7686806e-06
0.014629813
-5.3859067e-06
0.014634842
-5.0286922e-06
0.014639537
-4.6953079e-06
0.014643921
-4.3841426e-06
0.014648015
-4.093701e-06
0.014651838
-3.8225909e-06
0.014655407
-3.5695165e-06
0.01465874
-3.3332738e-06
0.014661853
-3.1127337e-06
0.01466476
-2.9068468e-06
0.014667475
-2.714629e-06
0.01467001
-2.5351628e-06
0.014672377
-2.3675902e-06
0.014674589
-2.2111152e-06
0.014676654
-2.0649953e-06
0.014678582
-1.9285462e-06
0.014680383
-1.8011183e-06
0.014682065
-1.6821271e-06
0.014683636
-1.5709895e-06
0.014685103
-1.467201e-06
0.014686474
-1.3702227e-06
0.014687753
-1.2796369e-06
0.014688948
-1.1949313e-06
0.014690064
-1.1158046e-06
0.014691106
-1.0417301e-06
0.014692078
-9.7257421e-07
0.014692986
-9.0770095e-07
0.014693833
-8.4724009e-07
0.014694623
-7.9027261e-07
0.01469536
-7.3740347e-07
0.014696047
-6.8711707e-07
0.014696688
-6.4094378e-07
0.014697284
-5.9616334e-07
0.01469784
-5.5609738e-07
0.014698356
-5.1563753e-07
0.014698837
-4.8151339e-07
0.014699281
-4.4403419e-07
0.014699698
-4.1627932e-07
0.014700078
-3.801333e-07
0.014700438
-3.5999711e-07
0.014700761
-3.2311812e-07
0.014701074
-3.126753e-07
-2.7640459e-07
0.010097182
-0.00016557516
0.010346961
-0.000448791
0.010662469
-0.00059798177
0.010982753
-0.00062895025
0.011290229
-0.00061621887
0.011575251
-0.00058378056
0.011829022
-0.00053478421
0.012047865
-0.0004758305
0.012233272
-0.00041592665
0.01238924
-0.00036111399
0.012520295
-0.00031361711
0.012630755
-0.00027346025
0.012724428
-0.00023989718
0.012804515
-0.00021199032
0.012873613
-0.00018877261
0.012933772
-0.00016933389
0.012986596
-0.00015289297
0.013033332
-0.00013881183
0.01307495
-0.00012659379
0.013112216
-0.00011586444
0.013145739
-0.00010634493
0.013176012
-9.7826991e-05
0.013203441
-9.0153358e-05
0.013228366
-8.3203369e-05
0.013251071
-7.6882623e-05
0.013271803
-7.1115574e-05
0.01329077
-6.5840305e-05
0.013308155
-6.1004916e-05
0.013324119
-5.656507e-05
0.0133388
-5.248233e-05
0.013352321
-4.8723013e-05
0.013364791
-4.5257373e-05
0.013376306
-4.2058982e-05
0.01338695
-3.9104267e-05
0.0133968
-3.6372126e-05
0.013405923
-3.3843619e-05
0.013414381
-3.1501707e-05
0.013422228
-2.9331027e-05
0.013429513
-2.7317702e-05
0.013436281
-2.5449168e-05
0.013442572
-2.3714029e-05
0.013448423
-2.2101928e-05
0.013453866
-2.0603431e-05
0.013458933
-1.9209932e-05
0.013463652
-1.7913564e-05
0.013468047
-1.6707121e-05
0.013472142
-1.5583999e-05
0.013475959
-1.4538131e-05
0.013479517
-1.356394e-05
0.013482834
-1.2656292e-05
0.013485928
-1.1810455e-05
0.013488814
-1.1022063e-05
0.013491507
-1.0287081e-05
0.013494019
-9.6017783e-06
0.013496363
-8.9626985e-06
0.013498551
-8.3666397e-06
0.013500593
-7.8106309e-06
0.013502499
-7.291917e-06
0.013504278
-6.8079445e-06
0.013505939
-6.3563419e-06
0.01350749
-5.9349124e-06
0.013508938
-5.5416132e-06
0.01351029
-5.1745448e-06
0.013511552
-4.8319389e-06
0.013512731
-4.5121433e-06
0.013513832
-4.2136191e-06
0.01351486
-3.9349299e-06
0.01351582
-3.6747371e-06
0.013516717
-3.431802e-06
0.013517554
-3.2049666e-06
0.013518336
-2.9931654e-06
0.013519066
-2.7953956e-06
0.013519749
-2.6107313e-06
0.013520386
-2.4382888e-06
0.013520981
-2.2772559e-06
0.013521537
-2.1268382e-06
0.013522056
-1.9863366e-06
0.013522541
-1.8550301e-06
0.013522994
-1.7323524e-06
0.013523416
-1.6176371e-06
0.013523811
-1.510467e-06
0.013524179
-1.4101691e-06
0.013524523
-1.3165039e-06
0.013524844
-1.2286764e-06
0.013525144
-1.1467284e-06
0.013525423
-1.0695698e-06
0.013525683
-9.9777797e-07
0.013525926
-9.2965336e-07
0.013526152
-8.6678967e-07
0.013526362
-8.0622754e-07
0.013526557
-7.5147219e-07
0.013526739
-6.9701079e-07
0.013526907
-6.5001263e-07
0.013527063
-5.9997258e-07
0.013527208
-5.6112037e-07
0.013527341
-5.1344426e-07
0.013527466
-4.8452226e-07
0.01352758
-4.368039e-07
0.013527688
-4.2142264e-07
-3.7247442e-07
0.010188704
-0.00035427932
0.010530487
-0.00079057335
0.010851453
-0.00091894821
0.011124174
-0.00090167137
0.011350581
-0.00084262624
0.011524486
-0.00075768559
0.01164633
-0.00065662744
0.011724155
-0.00055365586
0.011767999
-0.00045977082
0.011786639
-0.00037975353
0.011787114
-0.00031409258
0.011775058
-0.00026140426
0.011754861
-0.00021969949
0.011729768
-0.00018689787
0.011702054
-0.00016105803
0.011673239
-0.00014051896
0.011644339
-0.00012399297
0.011616003
-0.00011047599
0.011588629
-9.9219857e-05
0.011562446
-8.9681387e-05
0.011537572
-8.1470653e-05
0.011514052
-7.4307838e-05
0.01149189
-6.7990498e-05
0.011471056
-6.2370001e-05
0.011451509
-5.7335032e-05
0.011433193
-5.2800203e-05
0.011416051
-4.869828e-05
0.011400021
-4.4974959e-05
0.011385042
-4.1585384e-05
0.011371051
-3.8491831e-05
0.01135799
-3.5662135e-05
0.011345801
-3.3068593e-05
0.01133443
-3.0687161e-05
0.011323822
-2.8496851e-05
0.011313929
-2.6479255e-05
0.011304704
-2.4618167e-05
0.011296101
-2.2899268e-05
0.01128808
-2.1309864e-05
0.011280601
-1.9838665e-05
0.011273628
-1.8475597e-05
0.011267125
-1.721164e-05
0.011261062
-1.6038691e-05
0.011255408
-1.494945e-05
0.011250135
-1.393732e-05
0.011245218
-1.2996321e-05
0.011240632
-1.2121023e-05
0.011236355
-1.1306479e-05
0.011232365
-1.0548177e-05
0.011228643
-9.8419874e-06
0.01122517
-9.1841266e-06
0.011221931
-8.5711186e-06
0.011218909
-7.9997638e-06
0.011216089
-7.4671124e-06
0.011213457
-6.9704401e-06
0.011211002
-6.5072298e-06
0.011208711
-6.0751539e-06
0.011206572
-5.6720592e-06
0.011204576
-5.2959548e-06
0.011202713
-4.9449963e-06
0.011200974
-4.6174748e-06
0.011199351
-4.3118026e-06
0.011197836
-4.0265012e-06
0.011196422
-3.7601933e-06
0.011195101
-3.5115919e-06
0.011193869
-3.2794992e-06
0.011192718
-3.0628e-06
0.011191643
-2.8604596e-06
0.01119064
-2.6715199e-06
0.011189703
-2.4950924e-06
0.011188829
-2.3303503e-06
0.011188012
-2.1765235e-06
0.01118725
-2.0328823e-06
0.011186538
-1.8987479e-06
0.011185873
-1.7734673e-06
0.011185252
-1.6564449e-06
0.011184672
-1.5471044e-06
0.011184131
-1.4449429e-06
0.011183625
-1.3494564e-06
0.011183153
-1.2602384e-06
0.011182712
-1.1768237e-06
0.011182301
-1.0988938e-06
0.011181917
-1.0259668e-06
0.011181558
-9.5782609e-07
0.011181223
-8.9392062e-07
0.011180911
-8.3421291e-07
0.011180619
-7.7801267e-07
0.011180347
-7.2560836e-07
0.011180093
-6.7599945e-07
0.011179857
-6.3002929e-07
0.011179636
-5.8603355e-07
0.011179431
-5.4582924e-07
0.01117924
-5.0647153e-07
0.011179062
-4.7158203e-07
0.011178898
-4.3584933e-07
0.011178743
-4.0626654e-07
0.011178603
-3.7314714e-07
0.011178468
-3.4992522e-07
0.01117835
-3.18775e-07
0.011178234
-3.0573372e-07
-2.7420489e-07
0.010339525
-0.00069380425
0.010570754
-0.0010218027
0.010606301
-0.00095449449
0.010547573
-0.00084294334
0.010422317
-0.0007173708
0.010244356
-0.00057972444
0.01003942
-0.00045169204
0.0098287426
-0.000342978
0.009625135
-0.00025616317
0.0094353013
-0.00018991983
0.0092624277
-0.00014121898
0.0091075332
-0.0001065098
0.008970154
-8.2320222e-05
0.0088489024
-6.5646244e-05
0.0087419716
-5.4127252e-05
0.0086474927
-4.6040046e-05
0.008563694
-4.019429e-05
0.0084890107
-3.5792753e-05
0.0084221096
-3.2318756e-05
0.0083618775
-2.9449279e-05
0.0083073954
-2.6988575e-05
0.0082579079
-2.48203e-05
0.0082127929
-2.2875481e-05
0.0081715353
-2.111242e-05
0.008133705
-1.950466e-05
0.0080989388
-1.8034022e-05
0.0080669272
-1.6686731e-05
0.0080374036
-1.5451367e-05
0.0080101361
-1.4317862e-05
0.0079849213
-1.3277068e-05
0.0079615798
-1.2320585e-05
0.0079399519
-1.1440714e-05
0.0079198952
-1.063043e-05
0.0079012817
-9.8833637e-06
0.0078839962
-9.1937742e-06
0.0078679346
-8.5565027e-06
0.0078530022
-7.9669277e-06
0.0078391133
-7.420912e-06
0.0078261893
-6.914751e-06
0.0078141589
-6.4451237e-06
0.0078029563
-6.009046e-06
0.0077925214
-5.6038318e-06
0.007782799
-5.2270558e-06
0.0077737382
-4.8765232e-06
0.0077652922
-4.5502432e-06
0.0077574175
-4.2464036e-06
0.0077500744
-3.9633529e-06
0.0077432258
-3.6995799e-06
0.0077368375
-3.4536986e-06
0.0077308778
-3.2244359e-06
0.0077253173
-3.0106175e-06
0.0077201287
-2.8111611e-06
0.0077152867
-2.6250664e-06
0.0077107676
-2.4514086e-06
0.0077065498
-2.2893339e-06
0.0077026127
-2.138051e-06
0.0076989374
-1.9968287e-06
0.0076955065
-1.8649881e-06
0.0076923033
-1.7418984e-06
0.0076893128
-1.6269727e-06
0.0076865207
-1.5196615e-06
0.0076839136
-1.4194532e-06
0.0076814793
-1.3258698e-06
0.0076792062
-1.2384661e-06
0.0076770836
-1.1568305e-06
0.0076751014
-1.0805797e-06
0.0076732503
-1.009361e-06
0.0076715216
-9.4284459e-07
0.0076699072
-8.8072255e-07
0.0076683995
-8.2270565e-07
0.0076669915
-7.6851979e-07
0.0076656765
-7.1790635e-07
0.0076644484
-6.7062462e-07
0.0076633014
-6.2644594e-07
0.0076622302
-5.8516717e-07
0.0076612297
-5.4659101e-07
0.0076602953
-5.1054972e-07
0.0076594226
-4.768685e-07
0.0076586078
-4.4540568e-07
0.0076578469
-4.1599155e-07
0.0076571365
-3.8850911e-07
0.0076564734
-3.6277965e-07
0.0076558543
-3.3872892e-07
0.0076552766
-3.161596e-07
0.0076547375
-2.95072e-07
0.0076542347
-2.7522345e-07
0.0076537658
-2.5672575e-07
0.007653329
-2.3922578e-07
0.0076529219
-2.2300786e-07
0.0076525434
-2.0750424e-07
0.0076521909
-1.9329291e-07
0.0076518639
-1.794498e-07
0.0076515594
-1.6703816e-07
0.0076512782
-1.5459503e-07
0.0076510158
-1.438792e-07
0.0076507755
-1.3280272e-07
0.0076505494
-1.2382734e-07
0.0076503455
-1.1492822e-07
0.0076501483
-1.0856995e-07
-1.0954593e-07
0.0093061957
0.0082843931
0.0073298986
0.0064869553
0.0057695845
0.00518986
0.004738168
0.00439519
0.0041390268
0.003949107
0.003807888
0.0037013782
0.003619058
0.0035534117
0.0034992845
0.0034532444
0.0034130501
0.0033772574
0.0033449386
0.0033154893
0.0032885008
0.0032636805
0.003240805
0.0032196926
0.0032001879
0.0031821539
0.0031654672
0.0031500158
0.0031356979
0.0031224209
0.0031101003
0.0030986596
0.0030880291
0.0030781458
0.003068952
0.0030603955
0.0030524286
0.0030450076
0.0030380929
0.0030316478
0.0030256387
0.0030200349
0.0030148078
0.0030099313
0.0030053811
0.0030011347
0.0029971713
0.0029934717
0.002990018
0.0029867936
0.002983783
0.0029809718
0.0029783468
0.0029758954
0.002973606
0.002971468
0.0029694711
0.0029676061
0.0029658642
0.0029642373
0.0029627176
0.0029612982
0.0029599723
0.0029587338
0.002957577
0.0029564964
0.0029554871
0.0029545442
0.0029536635
0.0029528408
0.0029520722
0.0029513543
0.0029506837
0.0029500573
0.0029494721
0.0029489255
0.002948415
0.0029479381
0.0029474927
0.0029470767
0.0029466882
0.0029463254
0.0029459867
0.0029456706
0.0029453755
0.0029451003
0.0029448435
0.0029446043
0.0029443813
0.0029441738
0.0029439805
0.0029438011
0.002943634
0.0029434794
0.0029433356
0.0029432027
0.0029430789
0.002942964
0.0029428554
)
;

boundaryField
{
    top
    {
        type            calculated;
        value           uniform 0;
    }
    inlet
    {
        type            calculated;
        value           nonuniform List<scalar> 10(-0.01 -0.01 -0.01 -0.01 -0.01 -0.01 -0.01 -0.01 -0.01 -0.01);
    }
    outlet
    {
        type            calculated;
        value           nonuniform List<scalar> 10(0.0029427466 0.0076499846 0.011178136 0.013527784 0.01470135 0.01470135 0.013527785 0.011178136 0.0076499836 0.0029427458);
    }
    bottom
    {
        type            calculated;
        value           uniform 0;
    }
    back
    {
        type            empty;
        value           nonuniform 0();
    }
    front
    {
        type            empty;
        value           nonuniform 0();
    }
}


// ************************************************************************* //
