/*--------------------------------*- C++ -*----------------------------------*\
| =========                 |                                                 |
| \\      /  F ield         | OpenFOAM: The Open Source CFD Toolbox           |
|  \\    /   O peration     | Version:  v1812                                 |
|   \\  /    A nd           | Web:      www.OpenFOAM.com                      |
|    \\/     M anipulation  |                                                 |
\*---------------------------------------------------------------------------*/
FoamFile
{
    version     2.0;
    format      ascii;
    class       volVectorField;
    location    "10.7";
    object      U;
}
// * * * * * * * * * * * * * * * * * * * * * * * * * * * * * * * * * * * * * //

dimensions      [0 1 -1 0 0 0 0];


internalField   nonuniform List<vector> 
1000
(
(0.91890839 0.035821913 0)
(0.86271384 0.062195638 0)
(0.7870597 0.06251009 0)
(0.69536033 0.054550395 0)
(0.61089745 0.044531651 0)
(0.54411592 0.034015971 0)
(0.49343012 0.024187539 0)
(0.45479413 0.016144229 0)
(0.42544582 0.010265785 0)
(0.40347313 0.0063041452 0)
(0.38715766 0.0037976296 0)
(0.3749622 0.0023103384 0)
(0.36566192 0.0014930151 0)
(0.35836272 0.0010851184 0)
(0.35244267 0.00090607244 0)
(0.34748201 0.00084105179 0)
(0.34320348 0.00082372412 0)
(0.33942726 0.00081931029 0)
(0.33603793 0.00081185181 0)
(0.33296114 0.00079580103 0)
(0.33014778 0.00077081132 0)
(0.32756384 0.00073870945 0)
(0.3251842 0.0007018894 0)
(0.32298902 0.00066256587 0)
(0.32096172 0.00062249985 0)
(0.31908785 0.00058295772 0)
(0.31735449 0.00054477177 0)
(0.31574995 0.0005084342 0)
(0.3142636 0.00047419148 0)
(0.31288574 0.00044212436 0)
(0.31160755 0.00041220915 0)
(0.31042101 0.00038436135 0)
(0.30931883 0.0003584648 0)
(0.30829438 0.00033439029 0)
(0.30734165 0.00031200681 0)
(0.30645515 0.00029118784 0)
(0.30562991 0.00027181454 0)
(0.30486136 0.000253777 0)
(0.30414535 0.00023697447 0)
(0.30347807 0.00022131484 0)
(0.302856 0.00020671407 0)
(0.30227596 0.00019309534 0)
(0.30173496 0.00018038835 0)
(0.30123029 0.00016852864 0)
(0.30075942 0.000157457 0)
(0.30032002 0.00014711892 0)
(0.29990993 0.00013746415 0)
(0.29952715 0.00012844626 0)
(0.29916983 0.0001200223 0)
(0.29883624 0.00011215243 0)
(0.29852478 0.00010479966 0)
(0.29823396 9.7929551e-05 0)
(0.29796241 9.1510014e-05 0)
(0.29770882 8.551118e-05 0)
(0.297472 7.9905198e-05 0)
(0.29725084 7.4666173e-05 0)
(0.29704429 6.9770008e-05 0)
(0.29685137 6.5194275e-05 0)
(0.29667119 6.0918111e-05 0)
(0.2965029 5.6921997e-05 0)
(0.29634571 5.3187687e-05 0)
(0.29619889 4.9698048e-05 0)
(0.29606175 4.6436969e-05 0)
(0.29593365 4.3389388e-05 0)
(0.295814 4.0541196e-05 0)
(0.29570223 3.7879314e-05 0)
(0.29559783 3.5391634e-05 0)
(0.2955003 3.3066902e-05 0)
(0.29540921 3.0894719e-05 0)
(0.29532411 2.8865229e-05 0)
(0.29524462 2.6969196e-05 0)
(0.29517037 2.5197749e-05 0)
(0.295101 2.3542537e-05 0)
(0.29503621 2.1995605e-05 0)
(0.29497569 2.0549721e-05 0)
(0.29491915 1.9197977e-05 0)
(0.29486634 1.7934526e-05 0)
(0.29481702 1.6753316e-05 0)
(0.29477094 1.5649647e-05 0)
(0.29472791 1.4617645e-05 0)
(0.29468772 1.3653398e-05 0)
(0.2946502 1.2750574e-05 0)
(0.29461515 1.1906536e-05 0)
(0.29458244 1.1114152e-05 0)
(0.29455191 1.0373494e-05 0)
(0.29452343 9.6757749e-06 0)
(0.29449685 9.0254058e-06 0)
(0.29447208 8.4096467e-06 0)
(0.29444898 7.839169e-06 0)
(0.29442749 7.2937562e-06 0)
(0.29440745 6.7938377e-06 0)
(0.29438886 6.3079432e-06 0)
(0.29437153 5.8710027e-06 0)
(0.29435548 5.4384869e-06 0)
(0.29434059 5.0602879e-06 0)
(0.2943267 4.6913301e-06 0)
(0.29431408 4.3742756e-06 0)
(0.2943017 4.1384343e-06 0)
(0.29429172 3.9480328e-06 0)
(0.29427755 4.2968253e-06 0)
(1.0016583 0.05381943 0)
(1.0359761 0.10128444 0)
(1.0597199 0.11073663 0)
(1.0628947 0.10592202 0)
(1.0515569 0.096228728 0)
(1.0340529 0.083934061 0)
(1.0142795 0.070327063 0)
(0.99360703 0.056981333 0)
(0.97292577 0.045107479 0)
(0.95310739 0.03523675 0)
(0.93479538 0.02740165 0)
(0.91829012 0.021387227 0)
(0.90362379 0.016884499 0)
(0.89068067 0.013569709 0)
(0.87928174 0.011147749 0)
(0.86923242 0.0093736593 0)
(0.86034423 0.0080569284 0)
(0.85244667 0.0070571274 0)
(0.84539241 0.006275238 0)
(0.83905793 0.005643828 0)
(0.83334126 0.0051180903 0)
(0.82815884 0.0046686717 0)
(0.82344212 0.0042764169 0)
(0.81913467 0.0039287386 0)
(0.81518962 0.0036172037 0)
(0.81156765 0.0033359709 0)
(0.80823544 0.0030808045 0)
(0.8051644 0.0028484692 0)
(0.80232979 0.0026363692 0)
(0.79970999 0.002442338 0)
(0.79728597 0.002264518 0)
(0.79504086 0.002101289 0)
(0.79295963 0.0019512247 0)
(0.7910288 0.0018130629 0)
(0.78923627 0.001685684 0)
(0.7875711 0.0015680935 0)
(0.78602338 0.0014594069 0)
(0.78458411 0.0013588369 0)
(0.78324511 0.001265681 0)
(0.78199889 0.0011793117 0)
(0.7808386 0.0010991665 0)
(0.77975798 0.0010247402 0)
(0.77875127 0.00095557768 0)
(0.77781318 0.00089126751 0)
(0.77693881 0.00083143699 0)
(0.77612368 0.00077574747 0)
(0.77536362 0.00072389042 0)
(0.7746548 0.00067558413 0)
(0.77399367 0.00063057072 0)
(0.77337693 0.00058861363 0)
(0.77280153 0.00054949539 0)
(0.77226463 0.0005130157 0)
(0.77176362 0.0004789897 0)
(0.77129606 0.00044724664 0)
(0.77085966 0.00041762855 0)
(0.77045233 0.00038998925 0)
(0.77007211 0.00036419335 0)
(0.76971716 0.00034011538 0)
(0.7693858 0.00031763897 0)
(0.76907643 0.00029665608 0)
(0.76878759 0.00027706623 0)
(0.7685179 0.00025877586 0)
(0.76826608 0.00024169772 0)
(0.76803094 0.00022575045 0)
(0.76781137 0.00021085821 0)
(0.76760634 0.00019695039 0)
(0.76741487 0.00018396141 0)
(0.76723606 0.00017183025 0)
(0.76706907 0.00016050034 0)
(0.76691312 0.00014991872 0)
(0.76676748 0.00014003606 0)
(0.76663146 0.00013080572 0)
(0.76650443 0.00012218424 0)
(0.76638579 0.0001141302 0)
(0.76627499 0.00010660573 0)
(0.76617151 9.957428e-05 0)
(0.76607486 9.3003895e-05 0)
(0.76598461 8.6862239e-05 0)
(0.76590032 8.1123042e-05 0)
(0.76582162 7.5756117e-05 0)
(0.76574812 7.0740379e-05 0)
(0.76567952 6.6045029e-05 0)
(0.76561546 6.1655525e-05 0)
(0.7655557 5.7537772e-05 0)
(0.7654999 5.36884e-05 0)
(0.76544789 5.0065708e-05 0)
(0.76539932 4.6685025e-05 0)
(0.76535413 4.3487427e-05 0)
(0.76531193 4.0518147e-05 0)
(0.76527276 3.7683407e-05 0)
(0.76523618 3.5078464e-05 0)
(0.76520231 3.2547472e-05 0)
(0.76517071 3.0272023e-05 0)
(0.76514146 2.7992403e-05 0)
(0.76511445 2.6034928e-05 0)
(0.76508892 2.3972661e-05 0)
(0.76506668 2.2371276e-05 0)
(0.76504299 2.0552362e-05 0)
(0.7650277 1.9495546e-05 0)
(0.76500039 1.8267524e-05 0)
(1.0014244 0.026824855 0)
(1.0291272 0.062791352 0)
(1.0654292 0.077736553 0)
(1.098962 0.0805972 0)
(1.1253149 0.078285171 0)
(1.145053 0.0731539 0)
(1.1594858 0.066111278 0)
(1.1694287 0.058162063 0)
(1.1755354 0.050296754 0)
(1.1785738 0.043150708 0)
(1.1793571 0.036972825 0)
(1.1785949 0.031771632 0)
(1.1768304 0.02745184 0)
(1.1744518 0.023886768 0)
(1.1717287 0.020947621 0)
(1.1688444 0.018515781 0)
(1.1659195 0.016488085 0)
(1.1630317 0.014779503 0)
(1.1602295 0.013322985 0)
(1.1575415 0.012067132 0)
(1.1549828 0.010973 0)
(1.1525601 0.010011061 0)
(1.1502747 0.0091587466 0)
(1.1481246 0.0083986045 0)
(1.1461059 0.0077169512 0)
(1.1442134 0.007102889 0)
(1.1424414 0.0065475926 0)
(1.1407838 0.0060437958 0)
(1.1392344 0.0055854261 0)
(1.1377869 0.0051673441 0)
(1.1364353 0.0047851562 0)
(1.1351738 0.0044350754 0)
(1.1339968 0.0041138163 0)
(1.1328987 0.003818513 0)
(1.1318746 0.0035466538 0)
(1.1309195 0.0032960285 0)
(1.1300289 0.0030646847 0)
(1.1291985 0.002850892 0)
(1.1284242 0.002653111 0)
(1.1277022 0.0024699684 0)
(1.1270291 0.0023002347 0)
(1.1264014 0.0021428058 0)
(1.1258161 0.0019966872 0)
(1.1252702 0.0018609805 0)
(1.1247612 0.0017348721 0)
(1.1242865 0.001617623 0)
(1.1238437 0.0015085605 0)
(1.1234307 0.0014070712 0)
(1.1230455 0.001312594 0)
(1.1226861 0.0012246153 0)
(1.1223509 0.0011426638 0)
(1.1220381 0.001066306 0)
(1.1217462 0.00099514297 0)
(1.1214739 0.00092880689 0)
(1.1212198 0.00086695805 0)
(1.1209827 0.00080928253 0)
(1.1207614 0.00075548994 0)
(1.1205548 0.00070531154 0)
(1.120362 0.00065849846 0)
(1.1201821 0.00061482009 0)
(1.1200142 0.00057406257 0)
(1.1198574 0.00053602725 0)
(1.1197111 0.00050052953 0)
(1.1195744 0.00046739749 0)
(1.1194469 0.0004364711 0)
(1.1193278 0.00040760123 0)
(1.1192167 0.00038064921 0)
(1.1191129 0.00035548596 0)
(1.119016 0.00033199173 0)
(1.1189255 0.0003100549 0)
(1.118841 0.00028957205 0)
(1.1187621 0.00027044585 0)
(1.1186884 0.00025258629 0)
(1.1186196 0.00023590742 0)
(1.1185554 0.00022033063 0)
(1.1184954 0.0002057794 0)
(1.1184394 0.00019218638 0)
(1.1183871 0.00017948323 0)
(1.1183383 0.0001676146 0)
(1.1182927 0.00015651737 0)
(1.1182501 0.00014614897 0)
(1.1182104 0.00013644575 0)
(1.1181732 0.00012738043 0)
(1.1181386 0.00011888055 0)
(1.1181063 0.00011094298 0)
(1.1180762 0.00010347377 0)
(1.1180479 9.651355e-05 0)
(1.1180218 8.9921947e-05 0)
(1.1179971 8.3819591e-05 0)
(1.1179745 7.796816e-05 0)
(1.117953 7.2636913e-05 0)
(1.1179335 6.7389874e-05 0)
(1.1179148 6.2781803e-05 0)
(1.1178979 5.7989495e-05 0)
(1.1178818 5.4123178e-05 0)
(1.117867 4.9609332e-05 0)
(1.1178539 4.6632406e-05 0)
(1.1178398 4.22013e-05 0)
(1.1178312 4.0491303e-05 0)
(1.1178148 3.6020641e-05 0)
(1.0007347 0.011814721 0)
(1.0178472 0.030860927 0)
(1.0462163 0.041434441 0)
(1.0799018 0.04519357 0)
(1.1132664 0.045502351 0)
(1.143782 0.044080308 0)
(1.1708941 0.041439982 0)
(1.1945687 0.037973678 0)
(1.2148582 0.034195729 0)
(1.2319652 0.030536886 0)
(1.2462683 0.027222044 0)
(1.2582339 0.02431392 0)
(1.2683135 0.021797888 0)
(1.2768875 0.01963366 0)
(1.2842554 0.017773827 0)
(1.2906479 0.016169652 0)
(1.296243 0.01477559 0)
(1.3011791 0.013552297 0)
(1.3055645 0.012467863 0)
(1.3094838 0.011497465 0)
(1.3130042 0.010622161 0)
(1.3161792 0.0098275127 0)
(1.3190526 0.0091024108 0)
(1.3216607 0.0084381769 0)
(1.3240343 0.0078279045 0)
(1.3261995 0.0072659753 0)
(1.3281786 0.0067477096 0)
(1.3299913 0.0062691174 0)
(1.3316544 0.0058267277 0)
(1.3331829 0.0054174731 0)
(1.3345896 0.0050386117 0)
(1.3358862 0.004687673 0)
(1.3370827 0.0043624189 0)
(1.3381882 0.0040608146 0)
(1.3392108 0.003781005 0)
(1.3401576 0.0035212963 0)
(1.3410349 0.0032801401 0)
(1.3418486 0.0030561191 0)
(1.3426038 0.002847935 0)
(1.3433051 0.0026543979 0)
(1.3439569 0.0024744157 0)
(1.3445629 0.0023069854 0)
(1.3451267 0.0021511852 0)
(1.3456513 0.0020061669 0)
(1.3461398 0.001871149 0)
(1.3465947 0.0017454116 0)
(1.3470185 0.0016282904 0)
(1.3474135 0.0015191721 0)
(1.3477816 0.0014174901 0)
(1.3481249 0.0013227209 0)
(1.3484449 0.00123438 0)
(1.3487435 0.0011520189 0)
(1.349022 0.0010752223 0)
(1.3492818 0.0010036049 0)
(1.3495242 0.00093680958 0)
(1.3497505 0.00087450445 0)
(1.3499616 0.00081638149 0)
(1.3501587 0.00076215452 0)
(1.3503427 0.00071155769 0)
(1.3505145 0.00066434406 0)
(1.3506748 0.00062028422 0)
(1.3508245 0.00057916494 0)
(1.3509643 0.00054078788 0)
(1.3510948 0.00050496831 0)
(1.3512167 0.00047153405 0)
(1.3513305 0.00044032439 0)
(1.3514368 0.00041118964 0)
(1.3515361 0.00038399 0)
(1.3516288 0.0003585956 0)
(1.3517153 0.00033488528 0)
(1.3517962 0.00031274692 0)
(1.3518717 0.00029207539 0)
(1.3519422 0.00027277388 0)
(1.3520081 0.00025474995 0)
(1.3520696 0.00023791956 0)
(1.3521271 0.0002221998 0)
(1.3521807 0.00020751839 0)
(1.3522309 0.00019379993 0)
(1.3522777 0.00018098513 0)
(1.3523214 0.00016900334 0)
(1.3523622 0.0001578114 0)
(1.3524003 0.00014733695 0)
(1.3524358 0.00013755798 0)
(1.3524691 0.00012838798 0)
(1.3525 0.00011983832 0)
(1.352529 0.00011178685 0)
(1.3525558 0.00010430688 0)
(1.3525812 9.7201479e-05 0)
(1.3526042 9.0663435e-05 0)
(1.3526264 8.4343206e-05 0)
(1.352646 7.86621e-05 0)
(1.3526657 7.2966328e-05 0)
(1.3526821 6.8110139e-05 0)
(1.3526998 6.2856657e-05 0)
(1.3527128 5.8866076e-05 0)
(1.3527293 5.3832962e-05 0)
(1.3527388 5.0862494e-05 0)
(1.3527551 4.5796831e-05 0)
(1.3527604 4.4144589e-05 0)
(1.3527784 3.8790521e-05 0)
(1.0005903 0.0034629157 0)
(1.0136865 0.0093660195 0)
(1.0370283 0.013046806 0)
(1.0674202 0.014563261 0)
(1.1000315 0.014854525 0)
(1.1316428 0.014564991 0)
(1.1610745 0.013888338 0)
(1.1880674 0.012919245 0)
(1.2125205 0.011806506 0)
(1.2343939 0.010696427 0)
(1.2538077 0.009672742 0)
(1.2710339 0.0087628221 0)
(1.286401 0.0079659739 0)
(1.3002112 0.007272215 0)
(1.3127102 0.006668809 0)
(1.3240903 0.0061419257 0)
(1.3345036 0.0056780724 0)
(1.3440716 0.0052653209 0)
(1.3528927 0.0048939348 0)
(1.3610463 0.0045563954 0)
(1.3685975 0.0042470693 0)
(1.3756004 0.0039617756 0)
(1.3821012 0.0036973976 0)
(1.3881402 0.0034515828 0)
(1.3937533 0.0032225192 0)
(1.3989728 0.0030087706 0)
(1.403828 0.0028091586 0)
(1.4083456 0.0026226796 0)
(1.4125503 0.0024484497 0)
(1.4164646 0.0022856703 0)
(1.4201094 0.0021336068 0)
(1.423504 0.0019915755 0)
(1.4266661 0.0018589359 0)
(1.4296121 0.001735086 0)
(1.4323573 0.0016194594 0)
(1.4349159 0.0015115228 0)
(1.4373007 0.0014107746 0)
(1.4395241 0.0013167435 0)
(1.441597 0.0012289873 0)
(1.4435301 0.0011470911 0)
(1.4453328 0.0010706664 0)
(1.4470143 0.00099934963 0)
(1.4485827 0.00093280032 0)
(1.4500459 0.00087070022 0)
(1.451411 0.00081275184 0)
(1.4526846 0.00075867711 0)
(1.4538731 0.00070821635 0)
(1.4549822 0.00066112707 0)
(1.4560172 0.0006171831 0)
(1.4569831 0.00057617344 0)
(1.4578847 0.00053790129 0)
(1.4587262 0.00050218322 0)
(1.4595117 0.00046884804 0)
(1.460245 0.00043773609 0)
(1.4609295 0.00040869828 0)
(1.4615685 0.00038159542 0)
(1.4621651 0.0003562976 0)
(1.4627221 0.00033268357 0)
(1.4632422 0.00031064041 0)
(1.4637278 0.00029006293 0)
(1.4641811 0.00027085322 0)
(1.4646045 0.00025292016 0)
(1.4649998 0.00023617879 0)
(1.4653689 0.00022054976 0)
(1.4657136 0.00020595896 0)
(1.4660355 0.00019233686 0)
(1.4663361 0.00017961851 0)
(1.4666168 0.00016774306 0)
(1.466879 0.00015665413 0)
(1.4671238 0.00014629906 0)
(1.4673524 0.00013662937 0)
(1.467566 0.00012759968 0)
(1.4677654 0.00011916821 0)
(1.4679516 0.00011129488 0)
(1.4681256 0.0001039432 0)
(1.468288 9.7076761e-05 0)
(1.4684397 9.0664064e-05 0)
(1.4685814 8.4671374e-05 0)
(1.4687137 7.9073387e-05 0)
(1.4688373 7.3838372e-05 0)
(1.4689527 6.8949005e-05 0)
(1.4690605 6.4372514e-05 0)
(1.469161 6.010234e-05 0)
(1.469255 5.6097362e-05 0)
(1.4693424 5.2367932e-05 0)
(1.4694244 4.8852809e-05 0)
(1.4695004 4.5594357e-05 0)
(1.469572 4.2490863e-05 0)
(1.4696377 3.9647527e-05 0)
(1.4697003 3.6882528e-05 0)
(1.4697567 3.4420046e-05 0)
(1.4698118 3.1921779e-05 0)
(1.4698594 2.9831075e-05 0)
(1.4699086 2.7518297e-05 0)
(1.4699474 2.5818848e-05 0)
(1.469993 2.3591958e-05 0)
(1.4700219 2.2344112e-05 0)
(1.4700671 2.0091379e-05 0)
(1.4700837 1.9400671e-05 0)
(1.470134 1.7005308e-05 0)
(1.0005903 -0.0034629162 0)
(1.0136865 -0.00936602 0)
(1.0370283 -0.013046806 0)
(1.0674202 -0.014563261 0)
(1.1000315 -0.014854524 0)
(1.1316428 -0.014564991 0)
(1.1610745 -0.013888338 0)
(1.1880674 -0.012919245 0)
(1.2125205 -0.011806506 0)
(1.2343939 -0.010696427 0)
(1.2538077 -0.0096727421 0)
(1.2710339 -0.0087628219 0)
(1.286401 -0.0079659734 0)
(1.3002112 -0.0072722143 0)
(1.3127102 -0.0066688083 0)
(1.3240903 -0.0061419251 0)
(1.3345036 -0.0056780721 0)
(1.3440716 -0.005265321 0)
(1.3528927 -0.0048939353 0)
(1.3610463 -0.0045563961 0)
(1.3685975 -0.00424707 0)
(1.3756004 -0.0039617759 0)
(1.3821012 -0.0036973975 0)
(1.3881402 -0.0034515822 0)
(1.3937533 -0.0032225181 0)
(1.3989728 -0.0030087694 0)
(1.403828 -0.0028091575 0)
(1.4083456 -0.0026226789 0)
(1.4125503 -0.0024484496 0)
(1.4164646 -0.0022856707 0)
(1.4201094 -0.0021336075 0)
(1.423504 -0.0019915761 0)
(1.4266661 -0.001858936 0)
(1.4296121 -0.0017350854 0)
(1.4323573 -0.001619458 0)
(1.4349159 -0.0015115208 0)
(1.4373007 -0.0014107723 0)
(1.4395241 -0.0013167414 0)
(1.441597 -0.0012289857 0)
(1.4435301 -0.0011470902 0)
(1.4453329 -0.0010706662 0)
(1.4470143 -0.0009993495 0)
(1.4485827 -0.00093279982 0)
(1.4500459 -0.00087069892 0)
(1.451411 -0.00081274942 0)
(1.4526846 -0.00075867355 0)
(1.4538731 -0.00070821201 0)
(1.4549822 -0.00066112253 0)
(1.4560172 -0.00061717893 0)
(1.4569831 -0.00057617006 0)
(1.4578847 -0.00053789878 0)
(1.4587262 -0.00050218126 0)
(1.4595117 -0.00046884601 0)
(1.460245 -0.00043773324 0)
(1.4609295 -0.00040869407 0)
(1.4615685 -0.00038158967 0)
(1.4621651 -0.0003562907 0)
(1.4627221 -0.00033267631 0)
(1.4632422 -0.0003106337 0)
(1.4637278 -0.00029005753 0)
(1.4641812 -0.00027084939 0)
(1.4646045 -0.00025291757 0)
(1.4649998 -0.00023617658 0)
(1.4653689 -0.00022054694 0)
(1.4657136 -0.00020595466 0)
(1.4660355 -0.00019233079 0)
(1.4663361 -0.00017961127 0)
(1.4666168 -0.00016773588 0)
(1.466879 -0.00015664843 0)
(1.4671238 -0.00014629608 0)
(1.4673525 -0.00013662944 0)
(1.467566 -0.00012760223 0)
(1.4677654 -0.00011917186 0)
(1.4679516 -0.00011129812 0)
(1.4681256 -0.00010394507 0)
(1.468288 -9.7077098e-05 0)
(1.4684397 -9.0663835e-05 0)
(1.4685814 -8.4672492e-05 0)
(1.4687137 -7.9077658e-05 0)
(1.4688373 -7.3847208e-05 0)
(1.4689527 -6.8962581e-05 0)
(1.4690605 -6.4389668e-05 0)
(1.469161 -6.0121062e-05 0)
(1.469255 -5.6115428e-05 0)
(1.4693424 -5.2384018e-05 0)
(1.4694244 -4.8866598e-05 0)
(1.4695004 -4.5607077e-05 0)
(1.469572 -4.2504255e-05 0)
(1.4696377 -3.9663198e-05 0)
(1.4697003 -3.6901277e-05 0)
(1.4697567 -3.4440598e-05 0)
(1.4698118 -3.1942834e-05 0)
(1.4698594 -2.9848683e-05 0)
(1.4699086 -2.7531405e-05 0)
(1.4699474 -2.5824926e-05 0)
(1.469993 -2.3591736e-05 0)
(1.4700219 -2.2338719e-05 0)
(1.4700671 -2.0079273e-05 0)
(1.4700837 -1.9385299e-05 0)
(1.470134 -1.6980135e-05 0)
(1.0007347 -0.011814722 0)
(1.0178472 -0.030860927 0)
(1.0462163 -0.041434441 0)
(1.0799018 -0.04519357 0)
(1.1132664 -0.045502351 0)
(1.143782 -0.044080308 0)
(1.1708941 -0.041439982 0)
(1.1945687 -0.037973678 0)
(1.2148582 -0.034195729 0)
(1.2319652 -0.030536886 0)
(1.2462683 -0.027222044 0)
(1.2582339 -0.02431392 0)
(1.2683135 -0.021797888 0)
(1.2768875 -0.01963366 0)
(1.2842554 -0.017773827 0)
(1.2906479 -0.016169652 0)
(1.296243 -0.01477559 0)
(1.3011791 -0.013552298 0)
(1.3055645 -0.012467864 0)
(1.3094838 -0.011497466 0)
(1.3130042 -0.010622161 0)
(1.3161792 -0.0098275125 0)
(1.3190526 -0.0091024104 0)
(1.3216607 -0.0084381763 0)
(1.3240343 -0.0078279038 0)
(1.3261995 -0.0072659747 0)
(1.3281786 -0.0067477092 0)
(1.3299913 -0.0062691172 0)
(1.3316544 -0.0058267278 0)
(1.3331829 -0.0054174733 0)
(1.3345896 -0.0050386118 0)
(1.3358862 -0.0046876729 0)
(1.3370827 -0.0043624184 0)
(1.3381882 -0.0040608137 0)
(1.3392108 -0.0037810037 0)
(1.3401576 -0.0035212949 0)
(1.3410349 -0.0032801387 0)
(1.3418486 -0.0030561179 0)
(1.3426038 -0.0028479341 0)
(1.3433051 -0.0026543972 0)
(1.3439569 -0.002474415 0)
(1.3445629 -0.0023069846 0)
(1.3451267 -0.002151184 0)
(1.3456513 -0.002006165 0)
(1.3461398 -0.0018711466 0)
(1.3465947 -0.0017454088 0)
(1.3470185 -0.0016282873 0)
(1.3474135 -0.001519169 0)
(1.3477816 -0.0014174874 0)
(1.3481249 -0.0013227185 0)
(1.3484449 -0.0012343777 0)
(1.3487435 -0.0011520165 0)
(1.349022 -0.0010752195 0)
(1.3492818 -0.0010036015 0)
(1.3495242 -0.00093680534 0)
(1.3497505 -0.00087449964 0)
(1.3499617 -0.00081637646 0)
(1.3501587 -0.00076214965 0)
(1.3503427 -0.00071155335 0)
(1.3505145 -0.00066434034 0)
(1.3506748 -0.000620281 0)
(1.3508245 -0.00057916188 0)
(1.3509643 -0.00054078457 0)
(1.3510948 -0.00050496443 0)
(1.3512167 -0.00047152954 0)
(1.3513305 -0.00044031956 0)
(1.3514368 -0.00041118496 0)
(1.3515361 -0.00038398603 0)
(1.3516288 -0.00035859288 0)
(1.3517154 -0.00033488395 0)
(1.3517962 -0.00031274691 0)
(1.3518717 -0.00029207624 0)
(1.3519422 -0.00027277503 0)
(1.3520081 -0.00025475108 0)
(1.3520696 -0.00023792058 0)
(1.3521271 -0.00022220124 0)
(1.3521808 -0.00020752101 0)
(1.3522309 -0.00019380441 0)
(1.3522777 -0.00018099213 0)
(1.3523214 -0.00016901281 0)
(1.3523622 -0.00015782293 0)
(1.3524003 -0.00014734976 0)
(1.3524358 -0.00013757129 0)
(1.3524691 -0.00012840124 0)
(1.3525 -0.00011985138 0)
(1.352529 -0.00011179999 0)
(1.3525558 -0.00010432064 0)
(1.3525812 -9.7216201e-05 0)
(1.3526042 -9.0679288e-05 0)
(1.3526264 -8.435982e-05 0)
(1.352646 -7.8678523e-05 0)
(1.3526657 -7.2981724e-05 0)
(1.352682 -6.8123155e-05 0)
(1.3526998 -6.2866665e-05 0)
(1.3527128 -5.8872982e-05 0)
(1.3527293 -5.3835918e-05 0)
(1.3527388 -5.0863539e-05 0)
(1.3527551 -4.5793507e-05 0)
(1.3527604 -4.4140415e-05 0)
(1.3527784 -3.8783397e-05 0)
(1.0014244 -0.026824855 0)
(1.0291272 -0.062791352 0)
(1.0654292 -0.077736553 0)
(1.098962 -0.0805972 0)
(1.1253149 -0.078285171 0)
(1.145053 -0.0731539 0)
(1.1594858 -0.066111279 0)
(1.1694287 -0.058162063 0)
(1.1755354 -0.050296754 0)
(1.1785738 -0.043150707 0)
(1.1793571 -0.036972824 0)
(1.1785949 -0.031771631 0)
(1.1768304 -0.027451839 0)
(1.1744518 -0.023886768 0)
(1.1717287 -0.020947621 0)
(1.1688444 -0.018515781 0)
(1.1659195 -0.016488086 0)
(1.1630317 -0.014779503 0)
(1.1602295 -0.013322985 0)
(1.1575415 -0.012067131 0)
(1.1549828 -0.010972999 0)
(1.1525601 -0.010011061 0)
(1.1502747 -0.0091587462 0)
(1.1481246 -0.0083986043 0)
(1.1461059 -0.0077169513 0)
(1.1442134 -0.0071028892 0)
(1.1424414 -0.0065475928 0)
(1.1407838 -0.0060437959 0)
(1.1392344 -0.0055854259 0)
(1.1377869 -0.0051673437 0)
(1.1364353 -0.0047851556 0)
(1.1351738 -0.0044350747 0)
(1.1339968 -0.0041138156 0)
(1.1328987 -0.0038185124 0)
(1.1318746 -0.0035466534 0)
(1.1309195 -0.0032960283 0)
(1.1300289 -0.0030646845 0)
(1.1291985 -0.0028508916 0)
(1.1284242 -0.0026531104 0)
(1.1277022 -0.0024699675 0)
(1.1270291 -0.0023002335 0)
(1.1264014 -0.0021428044 0)
(1.1258161 -0.0019966857 0)
(1.1252702 -0.0018609791 0)
(1.1247612 -0.0017348708 0)
(1.1242865 -0.0016176218 0)
(1.1238437 -0.0015085593 0)
(1.1234308 -0.0014070699 0)
(1.1230455 -0.0013125925 0)
(1.1226861 -0.0012246134 0)
(1.1223509 -0.0011426615 0)
(1.1220381 -0.0010663033 0)
(1.1217462 -0.00099514018 0)
(1.1214739 -0.00092880415 0)
(1.1212198 -0.00086695552 0)
(1.1209827 -0.00080928031 0)
(1.1207614 -0.00075548793 0)
(1.1205548 -0.00070530956 0)
(1.1203621 -0.00065849627 0)
(1.1201821 -0.00061481747 0)
(1.1200142 -0.0005740595 0)
(1.1198574 -0.00053602388 0)
(1.1197111 -0.00050052618 0)
(1.1195745 -0.00046739456 0)
(1.1194469 -0.00043646885 0)
(1.1193279 -0.00040759981 0)
(1.1192167 -0.00038064843 0)
(1.1191129 -0.00035548552 0)
(1.119016 -0.00033199127 0)
(1.1189255 -0.00031005412 0)
(1.118841 -0.00028957096 0)
(1.1187621 -0.00027044476 0)
(1.1186885 -0.00025258575 0)
(1.1186197 -0.00023590805 0)
(1.1185555 -0.00022033284 0)
(1.1184955 -0.00020578337 0)
(1.1184395 -0.00019219178 0)
(1.1183872 -0.00017948945 0)
(1.1183383 -0.00016762098 0)
(1.1182927 -0.00015652347 0)
(1.1182501 -0.00014615479 0)
(1.1182104 -0.00013645183 0)
(1.1181733 -0.00012738742 0)
(1.1181387 -0.00011888917 0)
(1.1181063 -0.0001109533 0)
(1.1180762 -0.00010348556 0)
(1.1180479 -9.6525867e-05 0)
(1.1180218 -8.9933944e-05 0)
(1.1179971 -8.3830344e-05 0)
(1.1179745 -7.7977602e-05 0)
(1.117953 -7.2644996e-05 0)
(1.1179334 -6.739739e-05 0)
(1.1179147 -6.278913e-05 0)
(1.1178979 -5.7996707e-05 0)
(1.1178818 -5.4130651e-05 0)
(1.117867 -4.9614803e-05 0)
(1.1178538 -4.6637838e-05 0)
(1.1178397 -4.220521e-05 0)
(1.1178312 -4.0497623e-05 0)
(1.1178148 -3.6031882e-05 0)
(1.0016583 -0.053819431 0)
(1.0359761 -0.10128444 0)
(1.0597199 -0.11073663 0)
(1.0628947 -0.10592202 0)
(1.0515569 -0.096228728 0)
(1.0340529 -0.083934061 0)
(1.0142795 -0.070327063 0)
(0.99360702 -0.056981333 0)
(0.97292576 -0.045107478 0)
(0.95310739 -0.035236749 0)
(0.93479538 -0.02740165 0)
(0.91829012 -0.021387227 0)
(0.90362379 -0.016884499 0)
(0.89068067 -0.01356971 0)
(0.87928174 -0.011147749 0)
(0.86923242 -0.0093736594 0)
(0.86034423 -0.0080569284 0)
(0.85244667 -0.0070571272 0)
(0.84539241 -0.0062752376 0)
(0.83905793 -0.0056438275 0)
(0.83334126 -0.00511809 0)
(0.82815884 -0.0046686716 0)
(0.82344212 -0.004276417 0)
(0.81913467 -0.003928739 0)
(0.81518962 -0.0036172041 0)
(0.81156765 -0.0033359711 0)
(0.80823544 -0.0030808045 0)
(0.8051644 -0.002848469 0)
(0.80232979 -0.0026363687 0)
(0.79970999 -0.0024423374 0)
(0.79728597 -0.0022645174 0)
(0.79504086 -0.0021012887 0)
(0.79295963 -0.0019512246 0)
(0.79102881 -0.0018130631 0)
(0.78923628 -0.0016856843 0)
(0.7875711 -0.0015680937 0)
(0.78602338 -0.0014594069 0)
(0.78458412 -0.0013588365 0)
(0.78324511 -0.0012656803 0)
(0.78199889 -0.0011793108 0)
(0.7808386 -0.0010991656 0)
(0.77975799 -0.0010247395 0)
(0.77875128 -0.00095557722 0)
(0.77781318 -0.00089126731 0)
(0.77693882 -0.00083143695 0)
(0.77612369 -0.00077574738 0)
(0.77536363 -0.00072389008 0)
(0.77465481 -0.00067558341 0)
(0.77399368 -0.00063056959 0)
(0.77337694 -0.00058861222 0)
(0.77280153 -0.0005494939 0)
(0.77226465 -0.00051301435 0)
(0.77176364 -0.00047898871 0)
(0.77129607 -0.00044724605 0)
(0.77085968 -0.00041762829 0)
(0.77045235 -0.00038998906 0)
(0.77007213 -0.00036419292 0)
(0.76971718 -0.00034011447 0)
(0.76938581 -0.00031763748 0)
(0.76907645 -0.0002966542 0)
(0.76878761 -0.00027706428 0)
(0.76851792 -0.00025877425 0)
(0.76826611 -0.00024169681 0)
(0.76803097 -0.00022575031 0)
(0.76781141 -0.00021085872 0)
(0.76760637 -0.00019695113 0)
(0.7674149 -0.0001839619 0)
(0.76723609 -0.00017183017 0)
(0.7670691 -0.00016049952 0)
(0.76691315 -0.00014991744 0)
(0.76676751 -0.00014003482 0)
(0.76663149 -0.00013080514 0)
(0.76650447 -0.00012218486 0)
(0.76638583 -0.00011413213 0)
(0.76627503 -0.00010660877 0)
(0.76617154 -9.9577828e-05 0)
(0.76607489 -9.3007233e-05 0)
(0.76598463 -8.6864842e-05 0)
(0.76590033 -8.1124704e-05 0)
(0.76582163 -7.5757204e-05 0)
(0.76574813 -7.0741594e-05 0)
(0.76567953 -6.6047129e-05 0)
(0.76561547 -6.1659101e-05 0)
(0.7655557 -5.7542742e-05 0)
(0.76549989 -5.3694307e-05 0)
(0.76544787 -5.0071652e-05 0)
(0.7653993 -4.6690187e-05 0)
(0.7653541 -4.3491339e-05 0)
(0.7653119 -4.0520863e-05 0)
(0.76527272 -3.7685457e-05 0)
(0.76523613 -3.5080658e-05 0)
(0.76520226 -3.2550342e-05 0)
(0.76517066 -3.0276103e-05 0)
(0.7651414 -2.7996984e-05 0)
(0.76511439 -2.6040002e-05 0)
(0.76508885 -2.39764e-05 0)
(0.7650666 -2.2376135e-05 0)
(0.76504291 -2.055785e-05 0)
(0.76502761 -1.9506612e-05 0)
(0.76500029 -1.8283307e-05 0)
(0.91890839 -0.035821913 0)
(0.86271384 -0.062195638 0)
(0.7870597 -0.06251009 0)
(0.69536033 -0.054550395 0)
(0.61089745 -0.044531651 0)
(0.54411592 -0.034015971 0)
(0.49343012 -0.024187539 0)
(0.45479413 -0.016144229 0)
(0.42544582 -0.010265785 0)
(0.40347313 -0.0063041452 0)
(0.38715766 -0.0037976297 0)
(0.3749622 -0.0023103385 0)
(0.36566192 -0.0014930153 0)
(0.35836272 -0.0010851185 0)
(0.35244267 -0.00090607249 0)
(0.34748201 -0.00084105173 0)
(0.34320348 -0.00082372394 0)
(0.33942726 -0.00081931007 0)
(0.33603793 -0.00081185159 0)
(0.33296114 -0.0007958009 0)
(0.33014778 -0.00077081132 0)
(0.32756384 -0.00073870957 0)
(0.3251842 -0.00070188962 0)
(0.32298902 -0.00066256609 0)
(0.32096172 -0.00062249999 0)
(0.31908785 -0.00058295772 0)
(0.31735449 -0.00054477163 0)
(0.31574995 -0.00050843396 0)
(0.3142636 -0.00047419121 0)
(0.31288574 -0.00044212415 0)
(0.31160755 -0.00041220906 0)
(0.31042101 -0.00038436141 0)
(0.30931883 -0.00035846497 0)
(0.30829438 -0.00033439051 0)
(0.30734165 -0.000312007 0)
(0.30645515 -0.0002911879 0)
(0.30562991 -0.00027181443 0)
(0.30486136 -0.00025377675 0)
(0.30414535 -0.00023697412 0)
(0.30347807 -0.00022131452 0)
(0.30285601 -0.00020671385 0)
(0.30227596 -0.00019309529 0)
(0.30173496 -0.00018038847 0)
(0.30123029 -0.00016852885 0)
(0.30075942 -0.0001574572 0)
(0.30032002 -0.00014711898 0)
(0.29990993 -0.000137464 0)
(0.29952715 -0.00012844592 0)
(0.29916983 -0.00012002183 0)
(0.29883624 -0.00011215197 0)
(0.29852478 -0.00010479933 0)
(0.29823397 -9.7929445e-05 0)
(0.29796241 -9.1510152e-05 0)
(0.29770883 -8.5511463e-05 0)
(0.29747201 -7.9905498e-05 0)
(0.29725085 -7.4666306e-05 0)
(0.29704429 -6.9769856e-05 0)
(0.29685138 -6.5193833e-05 0)
(0.2966712 -6.0917463e-05 0)
(0.29650291 -5.6921373e-05 0)
(0.29634572 -5.3187288e-05 0)
(0.2961989 -4.9698026e-05 0)
(0.29606176 -4.6437354e-05 0)
(0.29593366 -4.3390012e-05 0)
(0.29581401 -4.0541851e-05 0)
(0.29570224 -3.7879724e-05 0)
(0.29559784 -3.5391633e-05 0)
(0.29550031 -3.3066499e-05 0)
(0.29540922 -3.0894041e-05 0)
(0.29532412 -2.8864593e-05 0)
(0.29524463 -2.6968879e-05 0)
(0.29517038 -2.5197943e-05 0)
(0.29510102 -2.3543285e-05 0)
(0.29503622 -2.1996683e-05 0)
(0.2949757 -2.0550856e-05 0)
(0.29491916 -1.9198818e-05 0)
(0.29486635 -1.793487e-05 0)
(0.29481702 -1.6753163e-05 0)
(0.29477095 -1.5649181e-05 0)
(0.29472791 -1.461719e-05 0)
(0.29468772 -1.3653313e-05 0)
(0.2946502 -1.2750976e-05 0)
(0.29461515 -1.190749e-05 0)
(0.29458244 -1.1115322e-05 0)
(0.2945519 -1.0374659e-05 0)
(0.29452341 -9.6765597e-06 0)
(0.29449683 -9.0257613e-06 0)
(0.29447206 -8.4095549e-06 0)
(0.29444896 -7.8389787e-06 0)
(0.29442747 -7.2936174e-06 0)
(0.29440743 -6.7942153e-06 0)
(0.29438883 -6.3087062e-06 0)
(0.2943715 -5.8724039e-06 0)
(0.29435545 -5.4398893e-06 0)
(0.29434055 -5.0619632e-06 0)
(0.29432666 -4.6927748e-06 0)
(0.29431404 -4.3769526e-06 0)
(0.29430165 -4.1423175e-06 0)
(0.29429166 -3.9538274e-06 0)
(0.29427748 -4.3028011e-06 0)
)
;

boundaryField
{
    top
    {
        type            fixedValue;
        value           uniform (0 0 0);
    }
    inlet
    {
        type            fixedValue;
        value           uniform (1 0 0);
    }
    outlet
    {
        type            zeroGradient;
    }
    bottom
    {
        type            fixedValue;
        value           uniform (0 0 0);
    }
    back
    {
        type            empty;
    }
    front
    {
        type            empty;
    }
}


// ************************************************************************* //
