/*--------------------------------*- C++ -*----------------------------------*\
| =========                 |                                                 |
| \\      /  F ield         | OpenFOAM: The Open Source CFD Toolbox           |
|  \\    /   O peration     | Version:  2112                                  |
|   \\  /    A nd           | Website:  www.openfoam.com                      |
|    \\/     M anipulation  |                                                 |
\*---------------------------------------------------------------------------*/
FoamFile
{
    version     2.0;
    format      ascii;
    arch        "LSB;label=32;scalar=64";
    class       volScalarField;
    location    "1";
    object      p;
}
// * * * * * * * * * * * * * * * * * * * * * * * * * * * * * * * * * * * * * //

dimensions      [0 2 -2 0 0 0 0];

internalField   nonuniform List<scalar> 
1000
(
1.5265379
1.5104053
1.4949805
1.4795961
1.4642071
1.448844
1.4334949
1.4181528
1.4028159
1.3874821
1.3721497
1.3568179
1.3414865
1.3261552
1.3108239
1.2954927
1.2801614
1.2648302
1.249499
1.2341677
1.2188365
1.2035052
1.1881739
1.1728427
1.1575114
1.1421802
1.1268489
1.1115176
1.0961864
1.0808551
1.0655238
1.0501925
1.0348613
1.01953
1.0041987
0.98886744
0.97353617
0.95820489
0.94287362
0.92754235
0.91221108
0.89687981
0.88154854
0.86621727
0.850886
0.83555473
0.82022345
0.80489218
0.78956091
0.77422963
0.75889835
0.74356707
0.7282358
0.71290452
0.69757324
0.68224197
0.66691069
0.65157942
0.63624815
0.62091687
0.60558561
0.59025434
0.57492307
0.5595918
0.54426054
0.52892927
0.513598
0.49826673
0.48293546
0.46760419
0.45227292
0.43694164
0.42161037
0.40627909
0.39094781
0.37561653
0.36028525
0.34495397
0.32962269
0.31429141
0.29896013
0.28362885
0.26829757
0.25296629
0.23763502
0.22230374
0.20697247
0.19164119
0.17630992
0.16097865
0.14564738
0.13031611
0.11498484
0.099653574
0.084322308
0.068991048
0.053659814
0.038328518
0.02299698
0.007665575
1.5262371
1.5100537
1.4948164
1.4795285
1.4641643
1.4488222
1.4334867
1.4181493
1.4028143
1.3874815
1.3721495
1.3568179
1.3414865
1.3261552
1.3108239
1.2954927
1.2801615
1.2648302
1.249499
1.2341677
1.2188365
1.2035052
1.1881739
1.1728427
1.1575114
1.1421802
1.1268489
1.1115176
1.0961864
1.0808551
1.0655238
1.0501925
1.0348613
1.01953
1.0041987
0.98886744
0.97353617
0.95820489
0.94287362
0.92754235
0.91221108
0.89687981
0.88154854
0.86621727
0.850886
0.83555473
0.82022345
0.80489218
0.78956091
0.77422963
0.75889835
0.74356707
0.7282358
0.71290452
0.69757324
0.68224197
0.66691069
0.65157942
0.63624815
0.62091687
0.60558561
0.59025434
0.57492307
0.5595918
0.54426054
0.52892927
0.513598
0.49826673
0.48293546
0.46760419
0.45227292
0.43694164
0.42161037
0.40627909
0.39094781
0.37561653
0.36028525
0.34495397
0.32962269
0.31429141
0.29896013
0.28362885
0.26829757
0.25296629
0.23763502
0.22230374
0.20697247
0.19164119
0.17630992
0.16097865
0.14564738
0.13031611
0.11498484
0.099653572
0.084322303
0.068991037
0.053659808
0.038328553
0.022997029
0.0076656057
1.5260194
1.5098008
1.4947022
1.4794728
1.4641301
1.4488033
1.4334766
1.4181438
1.4028114
1.3874801
1.3721488
1.3568176
1.3414863
1.3261551
1.3108239
1.2954927
1.2801615
1.2648302
1.249499
1.2341677
1.2188365
1.2035052
1.1881739
1.1728427
1.1575114
1.1421802
1.1268489
1.1115176
1.0961864
1.0808551
1.0655238
1.0501925
1.0348613
1.01953
1.0041987
0.98886744
0.97353617
0.95820489
0.94287362
0.92754235
0.91221108
0.89687981
0.88154854
0.86621727
0.850886
0.83555473
0.82022345
0.80489218
0.78956091
0.77422963
0.75889835
0.74356707
0.7282358
0.71290452
0.69757324
0.68224197
0.66691069
0.65157942
0.63624815
0.62091688
0.60558561
0.59025434
0.57492307
0.5595918
0.54426054
0.52892927
0.513598
0.49826673
0.48293546
0.46760419
0.45227292
0.43694164
0.42161037
0.40627909
0.39094781
0.37561653
0.36028525
0.34495397
0.32962269
0.31429141
0.29896013
0.28362885
0.26829757
0.25296629
0.23763502
0.22230374
0.20697247
0.19164119
0.17630992
0.16097865
0.14564738
0.13031611
0.11498484
0.099653572
0.084322303
0.068991035
0.053659812
0.038328593
0.022997035
0.0076655887
1.5259041
1.5096502
1.4946177
1.479427
1.4641018
1.4487863
1.4334667
1.4181379
1.4028083
1.3874785
1.372148
1.3568171
1.3414861
1.326155
1.3108239
1.2954927
1.2801614
1.2648302
1.249499
1.2341677
1.2188365
1.2035052
1.1881739
1.1728427
1.1575114
1.1421802
1.1268489
1.1115176
1.0961864
1.0808551
1.0655238
1.0501925
1.0348613
1.01953
1.0041987
0.98886744
0.97353617
0.95820489
0.94287362
0.92754235
0.91221108
0.89687981
0.88154854
0.86621727
0.850886
0.83555473
0.82022345
0.80489218
0.78956091
0.77422963
0.75889835
0.74356707
0.7282358
0.71290452
0.69757324
0.68224197
0.66691069
0.65157942
0.63624815
0.62091688
0.60558561
0.59025434
0.57492307
0.5595918
0.54426054
0.52892927
0.513598
0.49826673
0.48293546
0.46760419
0.45227292
0.43694164
0.42161037
0.40627909
0.39094781
0.37561653
0.36028525
0.34495397
0.32962269
0.31429141
0.29896013
0.28362885
0.26829757
0.25296629
0.23763502
0.22230374
0.20697247
0.19164119
0.17630992
0.16097865
0.14564738
0.13031611
0.11498484
0.099653573
0.084322305
0.068991036
0.053659816
0.038328611
0.02299704
0.0076655837
1.5258576
1.5095845
1.494575
1.4794019
1.464086
1.4487765
1.4334609
1.4181346
1.4028063
1.3874774
1.3721475
1.3568169
1.341486
1.326155
1.3108238
1.2954927
1.2801614
1.2648302
1.249499
1.2341677
1.2188365
1.2035052
1.1881739
1.1728427
1.1575114
1.1421802
1.1268489
1.1115176
1.0961864
1.0808551
1.0655238
1.0501925
1.0348613
1.01953
1.0041987
0.98886744
0.97353617
0.95820489
0.94287362
0.92754235
0.91221108
0.89687981
0.88154854
0.86621727
0.850886
0.83555473
0.82022345
0.80489218
0.7895609
0.77422963
0.75889835
0.74356707
0.7282358
0.71290452
0.69757324
0.68224197
0.66691069
0.65157942
0.63624815
0.62091688
0.60558561
0.59025434
0.57492307
0.5595918
0.54426054
0.52892927
0.513598
0.49826673
0.48293546
0.46760419
0.45227292
0.43694164
0.42161037
0.40627909
0.39094781
0.37561653
0.36028525
0.34495397
0.32962269
0.31429141
0.29896013
0.28362885
0.26829757
0.25296629
0.23763502
0.22230374
0.20697247
0.19164119
0.17630992
0.16097865
0.14564738
0.13031611
0.11498484
0.099653574
0.084322306
0.068991037
0.053659817
0.038328618
0.022997044
0.0076655824
1.5258577
1.5095849
1.4945753
1.4794021
1.4640861
1.4487765
1.4334609
1.4181346
1.4028063
1.3874774
1.3721475
1.3568169
1.341486
1.326155
1.3108238
1.2954927
1.2801615
1.2648302
1.249499
1.2341677
1.2188365
1.2035052
1.1881739
1.1728427
1.1575114
1.1421802
1.1268489
1.1115176
1.0961864
1.0808551
1.0655238
1.0501925
1.0348613
1.01953
1.0041987
0.98886744
0.97353617
0.95820489
0.94287362
0.92754235
0.91221108
0.89687981
0.88154854
0.86621727
0.850886
0.83555473
0.82022345
0.80489218
0.7895609
0.77422963
0.75889835
0.74356707
0.7282358
0.71290452
0.69757324
0.68224197
0.66691069
0.65157942
0.63624815
0.62091688
0.60558561
0.59025434
0.57492307
0.5595918
0.54426054
0.52892927
0.513598
0.49826673
0.48293546
0.46760419
0.45227292
0.43694164
0.42161037
0.40627909
0.39094781
0.37561653
0.36028525
0.34495397
0.32962269
0.31429141
0.29896013
0.28362885
0.26829757
0.25296629
0.23763502
0.22230374
0.20697247
0.19164119
0.17630992
0.16097865
0.14564738
0.13031611
0.11498484
0.099653574
0.084322306
0.068991037
0.053659818
0.038328618
0.022997044
0.0076655825
1.5259045
1.5096507
1.4946183
1.4794272
1.4641018
1.4487862
1.4334666
1.4181379
1.4028083
1.3874785
1.372148
1.3568172
1.3414862
1.3261551
1.3108239
1.2954927
1.2801615
1.2648302
1.249499
1.2341677
1.2188365
1.2035052
1.1881739
1.1728427
1.1575114
1.1421802
1.1268489
1.1115176
1.0961864
1.0808551
1.0655238
1.0501925
1.0348613
1.01953
1.0041987
0.98886744
0.97353617
0.95820489
0.94287362
0.92754235
0.91221108
0.89687981
0.88154854
0.86621727
0.850886
0.83555473
0.82022345
0.80489218
0.7895609
0.77422963
0.75889835
0.74356707
0.7282358
0.71290452
0.69757324
0.68224197
0.66691069
0.65157942
0.63624815
0.62091688
0.60558561
0.59025434
0.57492307
0.5595918
0.54426054
0.52892927
0.513598
0.49826673
0.48293546
0.46760419
0.45227292
0.43694164
0.42161037
0.40627909
0.39094781
0.37561653
0.36028525
0.34495397
0.32962269
0.31429141
0.29896013
0.28362885
0.26829757
0.25296629
0.23763502
0.22230374
0.20697247
0.19164119
0.17630992
0.16097865
0.14564738
0.13031611
0.11498484
0.099653574
0.084322305
0.068991036
0.053659816
0.038328611
0.02299704
0.0076655837
1.5260193
1.5098009
1.4947019
1.4794724
1.4641297
1.4488029
1.4334764
1.4181437
1.4028113
1.3874801
1.3721489
1.3568176
1.3414864
1.3261552
1.3108239
1.2954927
1.2801615
1.2648302
1.249499
1.2341677
1.2188365
1.2035052
1.1881739
1.1728427
1.1575114
1.1421802
1.1268489
1.1115176
1.0961863
1.0808551
1.0655238
1.0501925
1.0348613
1.01953
1.0041987
0.98886744
0.97353617
0.95820489
0.94287362
0.92754235
0.91221108
0.89687981
0.88154854
0.86621727
0.850886
0.83555473
0.82022345
0.80489218
0.7895609
0.77422963
0.75889835
0.74356707
0.7282358
0.71290452
0.69757324
0.68224197
0.66691069
0.65157942
0.63624815
0.62091688
0.60558561
0.59025434
0.57492307
0.5595918
0.54426054
0.52892927
0.513598
0.49826673
0.48293546
0.46760419
0.45227292
0.43694164
0.42161037
0.40627909
0.39094781
0.37561653
0.36028525
0.34495397
0.32962269
0.31429141
0.29896013
0.28362885
0.26829757
0.25296629
0.23763502
0.22230374
0.20697247
0.1916412
0.17630992
0.16097865
0.14564738
0.13031611
0.11498484
0.099653573
0.084322304
0.068991035
0.053659813
0.038328593
0.022997035
0.0076655888
1.5262369
1.5100527
1.4948152
1.4795276
1.4641635
1.4488216
1.4334863
1.418149
1.4028142
1.3874815
1.3721495
1.3568179
1.3414865
1.3261552
1.310824
1.2954927
1.2801615
1.2648302
1.249499
1.2341677
1.2188365
1.2035052
1.1881739
1.1728427
1.1575114
1.1421802
1.1268489
1.1115176
1.0961863
1.0808551
1.0655238
1.0501925
1.0348613
1.01953
1.0041987
0.98886744
0.97353617
0.95820489
0.94287362
0.92754235
0.91221108
0.89687981
0.88154854
0.86621727
0.850886
0.83555473
0.82022345
0.80489218
0.7895609
0.77422963
0.75889835
0.74356707
0.7282358
0.71290452
0.69757324
0.68224197
0.66691069
0.65157942
0.63624815
0.62091688
0.60558561
0.59025434
0.57492307
0.55959181
0.54426054
0.52892927
0.513598
0.49826673
0.48293546
0.46760419
0.45227292
0.43694164
0.42161036
0.40627909
0.39094781
0.37561653
0.36028525
0.34495397
0.32962269
0.31429141
0.29896013
0.28362885
0.26829757
0.2529663
0.23763502
0.22230374
0.20697247
0.1916412
0.17630992
0.16097865
0.14564738
0.13031611
0.11498484
0.099653573
0.084322304
0.068991038
0.053659808
0.038328554
0.02299703
0.007665606
1.5265377
1.5104042
1.4949793
1.4795953
1.4642064
1.4488435
1.4334946
1.4181526
1.4028158
1.3874821
1.3721497
1.3568179
1.3414865
1.3261552
1.3108239
1.2954927
1.2801615
1.2648302
1.249499
1.2341677
1.2188365
1.2035052
1.1881739
1.1728427
1.1575114
1.1421802
1.1268489
1.1115176
1.0961863
1.0808551
1.0655238
1.0501925
1.0348613
1.01953
1.0041987
0.98886744
0.97353617
0.95820489
0.94287362
0.92754235
0.91221108
0.89687981
0.88154854
0.86621727
0.850886
0.83555472
0.82022345
0.80489218
0.7895609
0.77422963
0.75889835
0.74356707
0.7282358
0.71290452
0.69757324
0.68224197
0.66691069
0.65157942
0.63624815
0.62091688
0.60558561
0.59025434
0.57492307
0.55959181
0.54426054
0.52892927
0.513598
0.49826673
0.48293546
0.46760419
0.45227291
0.43694164
0.42161036
0.40627909
0.39094781
0.37561653
0.36028525
0.34495397
0.32962269
0.31429141
0.29896013
0.28362885
0.26829757
0.2529663
0.23763502
0.22230374
0.20697247
0.1916412
0.17630992
0.16097865
0.14564738
0.13031611
0.11498484
0.099653576
0.08432231
0.06899105
0.053659815
0.038328519
0.022996981
0.0076655754
)
;

boundaryField
{
    top
    {
        type            zeroGradient;
    }
    inlet
    {
        type            fixedValue;
        value           uniform 1.5352;
    }
    outlet
    {
        type            fixedValue;
        value           uniform 0;
    }
    bottom
    {
        type            zeroGradient;
    }
    back
    {
        type            empty;
    }
    front
    {
        type            empty;
    }
}


// ************************************************************************* //
