/*--------------------------------*- C++ -*----------------------------------*\
| =========                 |                                                 |
| \\      /  F ield         | OpenFOAM: The Open Source CFD Toolbox           |
|  \\    /   O peration     | Version:  2112                                  |
|   \\  /    A nd           | Website:  www.openfoam.com                      |
|    \\/     M anipulation  |                                                 |
\*---------------------------------------------------------------------------*/
FoamFile
{
    version     2.0;
    format      ascii;
    arch        "LSB;label=32;scalar=64";
    class       surfaceScalarField;
    location    "1";
    object      phi;
}
// * * * * * * * * * * * * * * * * * * * * * * * * * * * * * * * * * * * * * //

dimensions      [0 3 -1 0 0 0 0];

oriented        oriented;

internalField   nonuniform List<scalar> 
1890
(
0.00079672462
3.0568884e-06
0.00079445369
2.2710942e-06
0.00079491107
-4.5762567e-07
0.00079568142
-7.7078775e-07
0.00079587187
-1.9083669e-07
0.00079583145
4.0220271e-08
0.00079573965
9.1785058e-08
0.00079564859
9.1137781e-08
0.00079557914
6.9600672e-08
0.00079553524
4.4058258e-08
0.00079550936
2.6030887e-08
0.00079549435
1.5145582e-08
0.00079548579
8.663124e-09
0.00079548099
4.8879466e-09
0.00079547832
2.7290373e-09
0.00079547685
1.5134994e-09
0.00079547605
8.3364245e-10
0.00079547561
4.559577e-10
0.00079547538
2.4729104e-10
0.00079547526
1.3352945e-10
0.00079547519
7.1483329e-11
0.00079547516
3.8381863e-11
0.00079547514
2.031879e-11
0.00079547513
1.0888204e-11
0.00079547512
5.4413482e-12
0.00079547512
2.478024e-12
0.00079547512
5.3103254e-13
0.00079547512
-3.40178e-13
0.00079547512
-1.0510332e-12
0.00079547513
-1.3073981e-12
0.00079547513
-1.5782534e-12
0.00079547513
-1.3573312e-12
0.00079547513
-1.2394527e-12
0.00079547513
-6.8353167e-13
0.00079547513
-3.6120932e-13
0.00079547513
2.1233324e-13
0.00079547513
6.2211753e-13
0.00079547513
1.0632671e-12
0.00079547513
1.1717318e-12
0.00079547512
1.3406547e-12
0.00079547512
1.1466724e-12
0.00079547512
1.0123222e-12
0.00079547512
5.3119049e-13
0.00079547512
1.4249108e-13
0.00079547512
-4.5965064e-13
0.00079547512
-8.1586386e-13
0.00079547513
-1.3437199e-12
0.00079547513
-1.5690961e-12
0.00079547513
-1.8821889e-12
0.00079547513
-1.8040487e-12
0.00079547513
-1.8185199e-12
0.00079547514
-1.4513605e-12
0.00079547514
-1.1528922e-12
0.00079547514
-5.5877582e-13
0.00079547514
-6.5513543e-14
0.00079547513
5.9709601e-13
0.00079547513
1.0557808e-12
0.00079547513
1.692367e-12
0.00079547513
1.9770076e-12
0.00079547513
2.4102894e-12
0.00079547512
2.4540422e-12
0.00079547512
2.6032765e-12
0.00079547512
2.3154917e-12
0.00079547512
2.1501254e-12
0.00079547512
1.6037012e-12
0.00079547511
1.2107241e-12
0.00079547511
4.8298195e-13
0.00079547512
-1.4758073e-13
0.00079547512
-8.4635959e-13
0.00079547512
-1.3729675e-12
0.00079547512
-2.1095477e-12
0.00079547512
-2.5167427e-12
0.00079547513
-3.0286705e-12
0.00079547513
-3.191335e-12
0.00079547513
-3.4475998e-12
0.00079547514
-3.345462e-12
0.00079547514
-3.2833891e-12
0.00079547514
-2.8836568e-12
0.00079547514
-2.5962692e-12
0.00079547514
-1.975767e-12
0.00079547514
-1.4772307e-12
0.00079547514
-7.0687522e-13
0.00079547514
3.1473161e-14
0.00079547514
9.1677632e-13
0.00079547514
1.7422332e-12
0.00079547514
2.7089078e-12
0.00079547513
3.1140601e-12
0.00079547513
3.1334849e-12
0.00079547513
1.8367256e-12
0.00079547513
-1.0633691e-12
0.00079547514
-6.5680927e-12
0.00079547516
-1.8127184e-11
0.00079547521
-4.5958598e-11
0.00079547532
-1.074216e-10
0.00079547554
-2.2503003e-10
0.00079547614
-5.9870209e-10
0.00079547805
-1.900239e-09
0.00079548082
-2.778389e-09
0.00079547974
1.0752081e-09
4.4537198e-09
0.0013335397
2.1977218e-06
0.0013349864
8.2437764e-07
0.0013363317
-1.8032194e-06
0.001337282
-1.7215911e-06
0.0013378599
-7.6914021e-07
0.0013381297
-2.2970465e-07
0.0013382387
-1.7263412e-08
0.0013382739
5.6114056e-08
0.0013382782
6.5463982e-08
0.0013382722
5.0199168e-08
0.0013382648
3.361149e-08
0.0013382588
2.1223472e-08
0.0013382547
1.2913937e-08
0.001338252
7.6687118e-09
0.0013382503
4.4624264e-09
0.0013382493
2.564826e-09
0.0013382488
1.4543928e-09
0.0013382484
8.1600684e-10
0.0013382482
4.5293408e-10
0.0013382481
2.48464e-10
0.0013382481
1.3505915e-10
0.001338248
7.2497315e-11
0.001338248
3.8566384e-11
0.001338248
1.9894328e-11
0.001338248
1.0013955e-11
0.001338248
4.3959663e-12
0.001338248
1.4645774e-12
0.001338248
-3.9455614e-13
0.001338248
-1.1054321e-12
0.001338248
-1.7787589e-12
0.001338248
-1.7357334e-12
0.001338248
-1.8121942e-12
0.001338248
-1.3084999e-12
0.001338248
-1.0145766e-12
0.001338248
-3.591016e-13
0.001338248
8.1665108e-14
0.001338248
6.6797059e-13
0.001338248
1.0465467e-12
0.001338248
1.3071613e-12
0.001338248
1.2891948e-12
0.001338248
1.2982415e-12
0.001338248
9.3089369e-13
0.001338248
6.0499646e-13
0.001338248
5.2404479e-14
0.001338248
-4.7837391e-13
0.001338248
-1.0125356e-12
0.001338248
-1.4139032e-12
0.001338248
-1.8844132e-12
0.001338248
-1.9425437e-12
0.001338248
-2.1493974e-12
0.001338248
-1.8764909e-12
0.001338248
-1.7647745e-12
0.001338248
-1.1770502e-12
0.001338248
-7.5281771e-13
0.001338248
-6.8295376e-14
0.001338248
5.5818525e-13
0.001338248
1.2463465e-12
0.001338248
1.7019179e-12
0.001338248
2.3341439e-12
0.001338248
2.492493e-12
0.001338248
2.9088882e-12
0.001338248
2.738609e-12
0.001338248
2.8094554e-12
0.001338248
2.3018047e-12
0.001338248
2.0608126e-12
0.001338248
1.3326095e-12
0.001338248
7.7784349e-13
0.001338248
-1.8947562e-14
0.001338248
-7.352121e-13
0.001338248
-1.5209018e-12
0.001338248
-2.0707461e-12
0.001338248
-2.8404069e-12
0.001338248
-3.1262401e-12
0.001338248
-3.664069e-12
0.001338248
-3.6622005e-12
0.001338248
-3.9209246e-12
0.001338248
-3.5711511e-12
0.001338248
-3.5154955e-12
0.001338248
-2.923142e-12
0.001338248
-2.6355299e-12
0.001338248
-1.8445589e-12
0.001338248
-1.3019819e-12
0.001338248
-4.2550174e-13
0.001338248
4.2545967e-13
0.001338248
1.3884804e-12
0.001338248
1.8795599e-12
0.001338248
1.9332218e-12
0.001338248
6.0404678e-13
0.001338248
-3.0656024e-12
0.001338248
-1.0750409e-11
0.0013382481
-2.5020065e-11
0.0013382481
-5.3659424e-11
0.0013382482
-1.1271265e-10
0.0013382483
-2.3553973e-10
0.0013382485
-4.6189211e-10
0.0013382489
-9.8120547e-10
0.0013382494
-2.4136271e-09
0.00133825
-3.3962981e-09
0.0013382491
1.9776502e-09
6.7893791e-09
0.0014864783
1.0535957e-06
0.0014874471
-1.4411328e-07
0.0014873566
-1.7128974e-06
0.0014872147
-1.5800764e-06
0.0014872827
-8.3743379e-07
0.0014873927
-3.3986662e-07
0.0014874778
-1.0234908e-07
0.0014875365
-2.4026881e-09
0.0014875733
2.8727661e-08
0.0014875924
3.1351051e-08
0.0014876019
2.4274819e-08
0.0014876065
1.6732038e-08
0.0014876087
1.0820667e-08
0.0014876097
6.7130943e-09
0.0014876102
4.0509788e-09
0.0014876104
2.391423e-09
0.0014876105
1.388751e-09
0.0014876106
7.9408127e-10
0.0014876106
4.4755643e-10
0.0014876106
2.4894884e-10
0.0014876106
1.3664422e-10
0.0014876106
7.4010688e-11
0.0014876106
3.934401e-11
0.0014876106
2.0421386e-11
0.0014876106
1.0223396e-11
0.0014876106
4.7013926e-12
0.0014876106
1.6205572e-12
0.0014876106
1.2294747e-13
0.0014876106
-8.4289324e-13
0.0014876106
-1.1123348e-12
0.0014876106
-1.3241202e-12
0.0014876106
-1.1286882e-12
0.0014876106
-9.53197e-13
0.0014876106
-5.5949443e-13
0.0014876106
-1.981855e-13
0.0014876106
1.9010819e-13
0.0014876106
6.0926888e-13
0.0014876106
7.7149719e-13
0.0014876106
1.0537287e-12
0.0014876106
9.8339646e-13
0.0014876106
9.6379367e-13
0.0014876106
7.2124093e-13
0.0014876106
4.4920279e-13
0.0014876106
3.3364034e-14
0.0014876106
-2.9837794e-13
0.0014876106
-7.6665354e-13
0.0014876106
-9.7962654e-13
0.0014876106
-1.379547e-12
0.0014876106
-1.4781499e-12
0.0014876106
-1.5510494e-12
0.0014876106
-1.4993565e-12
0.0014876106
-1.2872361e-12
0.0014876106
-1.0157354e-12
0.0014876106
-6.1716188e-13
0.0014876106
-1.4882612e-13
0.0014876106
2.662279e-13
0.0014876106
8.4061589e-13
0.0014876106
1.1485587e-12
0.0014876106
1.6071904e-12
0.0014876106
1.9030859e-12
0.0014876106
2.0456734e-12
0.0014876106
2.1947153e-12
0.0014876106
2.0567583e-12
0.0014876106
1.9720289e-12
0.0014876106
1.610447e-12
0.0014876106
1.2905073e-12
0.0014876106
7.9788382e-13
0.0014876106
2.3456033e-13
0.0014876106
-2.2473964e-13
0.0014876106
-8.6395444e-13
0.0014876106
-1.3578825e-12
0.0014876106
-1.8080097e-12
0.0014876106
-2.2902141e-12
0.0014876106
-2.4994741e-12
0.0014876106
-2.8308814e-12
0.0014876106
-2.801416e-12
0.0014876106
-2.9143775e-12
0.0014876106
-2.6690132e-12
0.0014876106
-2.5885931e-12
0.0014876106
-2.1916302e-12
0.0014876106
-1.9406007e-12
0.0014876106
-1.4449211e-12
0.0014876106
-9.9731143e-13
0.0014876106
-4.8702625e-13
0.0014876106
1.1421866e-13
0.0014876106
1.5013331e-13
0.0014876106
-3.0660402e-13
0.0014876106
-2.1864001e-12
0.0014876106
-6.7746926e-12
0.0014876106
-1.542529e-11
0.0014876107
-3.2227136e-11
0.0014876107
-6.3598572e-11
0.0014876107
-1.2473612e-10
0.0014876107
-2.4182483e-10
0.0014876107
-4.5103301e-10
0.0014876105
-8.4994554e-10
0.0014876098
-1.6924736e-09
0.0014876085
-2.1192258e-09
0.0014876093
1.2283312e-09
4.5235445e-09
0.0015239355
4.0734463e-07
0.0015240077
-2.159155e-07
0.0015231955
-9.0077396e-07
0.0015224576
-8.4252892e-07
0.0015221107
-4.9084132e-07
0.0015219966
-2.2593321e-07
0.0015219788
-8.4441547e-08
0.001521995
-1.8542623e-08
0.0015220182
5.7428525e-09
0.0015220372
1.2480996e-08
0.0015220503
1.1328163e-08
0.0015220588
8.4405774e-09
0.001522064
5.7236801e-09
0.0015220671
3.6661901e-09
0.001522069
2.2669787e-09
0.0015220701
1.3616019e-09
0.0015220707
8.0000417e-10
0.0015220711
4.6069104e-10
0.0015220713
2.6120298e-10
0.0015220714
1.4504053e-10
0.0015220714
7.9501154e-11
0.0015220715
4.2271322e-11
0.0015220715
2.2348164e-11
0.0015220715
1.1021767e-11
0.0015220715
5.5425461e-12
0.0015220715
2.0685812e-12
0.0015220715
8.6332037e-13
0.0015220715
-3.2260876e-13
0.0015220715
-3.1721587e-13
0.0015220715
-7.526066e-13
0.0015220715
-4.8148489e-13
0.0015220715
-5.8258585e-13
0.0015220715
-2.2497176e-13
0.0015220715
-1.8552152e-13
0.0015220715
1.9352146e-13
0.0015220715
2.4108742e-13
0.0015220715
5.9519113e-13
0.0015220715
5.6961799e-13
0.0015220715
7.4668019e-13
0.0015220715
6.5256305e-13
0.0015220715
7.0699743e-13
0.0015220715
4.3182218e-13
0.0015220715
4.245435e-13
0.0015220715
1.3754657e-14
0.0015220715
-3.8253206e-14
0.0015220715
-4.1538357e-13
0.0015220715
-4.8731532e-13
0.0015220715
-7.4252736e-13
0.0015220715
-8.0905204e-13
0.0015220715
-9.681426e-13
0.0015220715
-8.576553e-13
0.0015220715
-9.278657e-13
0.0015220715
-6.2476183e-13
0.0015220715
-6.0729504e-13
0.0015220715
-1.7293274e-13
0.0015220715
-8.4919044e-14
0.0015220715
3.324463e-13
0.0015220715
4.8031378e-13
0.0015220715
8.1556499e-13
0.0015220715
9.6751565e-13
0.0015220715
1.2526361e-12
0.0015220715
1.2191656e-12
0.0015220715
1.4449709e-12
0.0015220715
1.2029678e-12
0.0015220715
1.316849e-12
0.0015220715
9.2339827e-13
0.0015220715
9.2482258e-13
0.0015220715
4.2916565e-13
0.0015220715
2.8481877e-13
0.0015220715
-1.3915621e-13
0.0015220715
-4.0060253e-13
0.0015220715
-8.2667691e-13
0.0015220715
-1.0340438e-12
0.0015220715
-1.4255543e-12
0.0015220715
-1.4377078e-12
0.0015220715
-1.8109746e-12
0.0015220715
-1.6531325e-12
0.0015220715
-1.942661e-12
0.0015220715
-1.656931e-12
0.0015220715
-1.8752742e-12
0.0015220715
-1.5280972e-12
0.0015220715
-1.6558902e-12
0.0015220715
-1.252413e-12
0.0015220715
-1.2786753e-12
0.0015220715
-8.7984328e-13
0.0015220715
-1.088543e-12
0.0015220715
-1.2463891e-12
0.0015220715
-2.8287378e-12
0.0015220715
-5.2675437e-12
0.0015220715
-1.1411718e-11
0.0015220715
-2.1421795e-11
0.0015220715
-4.1594517e-11
0.0015220714
-7.7454895e-11
0.0015220713
-1.4503585e-10
0.0015220711
-2.5938584e-10
0.0015220707
-4.5749489e-10
0.0015220699
-8.0602658e-10
0.0015220687
-9.2278726e-10
0.0015220694
5.3384744e-10
2.0490685e-09
0.001531493
1.8371931e-11
0.0015312776
-3.2751923e-10
0.0015303772
-3.5626965e-10
0.0015295348
-5.1901896e-10
0.0015290441
-4.7495674e-10
0.0015288183
-3.1907321e-10
0.0015287342
-2.5172737e-10
0.001528716
-1.9455591e-10
0.001528722
-1.7315359e-10
0.0015287349
-1.4734853e-10
0.0015287465
-1.2438345e-10
0.0015287552
-1.037623e-10
0.0015287611
-8.6517583e-11
0.001528765
-6.9483353e-11
0.0015287674
-5.5944276e-11
0.0015287688
-4.3505917e-11
0.0015287697
-3.4401644e-11
0.0015287702
-2.5936013e-11
0.0015287705
-1.9861286e-11
0.0015287707
-1.4405001e-11
0.0015287708
-1.092506e-11
0.0015287708
-7.6034875e-12
0.0015287709
-5.7969107e-12
0.0015287709
-3.7703793e-12
0.0015287709
-2.9839314e-12
0.0015287709
-1.7665308e-12
0.0015287709
-1.5045693e-12
0.0015287709
-7.6620727e-13
0.0015287709
-6.8594176e-13
0.0015287709
-1.3344763e-13
0.0015287709
-2.1313091e-13
0.0015287709
2.1352475e-13
0.0015287709
4.5381602e-14
0.0015287709
4.2855293e-13
0.0015287709
2.1178697e-13
0.0015287709
5.5299734e-13
0.0015287709
2.7130354e-13
0.0015287709
6.1080294e-13
0.0015287709
2.8982565e-13
0.0015287709
5.5598687e-13
0.0015287709
2.0789249e-13
0.0015287709
4.8121724e-13
0.0015287709
9.2730245e-14
0.0015287709
3.3304248e-13
0.0015287709
-6.0507329e-14
0.0015287709
1.8275172e-13
0.0015287709
-2.1160406e-13
0.0015287709
-2.4255362e-14
0.0015287709
-3.773741e-13
0.0015287709
-1.7311045e-13
0.0015287709
-5.1931204e-13
0.0015287709
-2.7480698e-13
0.0015287709
-5.8469693e-13
0.0015287709
-2.4612554e-13
0.0015287709
-5.0979539e-13
0.0015287709
-1.3468362e-13
0.0015287709
-3.6357584e-13
0.0015287709
8.7506117e-14
0.0015287709
-9.0902728e-14
0.0015287709
3.5077375e-13
0.0015287709
1.736216e-13
0.0015287709
6.3268336e-13
0.0015287709
4.6097621e-13
0.0015287709
8.4781127e-13
0.0015287709
5.8363548e-13
0.0015287709
9.4932216e-13
0.0015287709
6.0336978e-13
0.0015287709
8.6843032e-13
0.0015287709
4.4974521e-13
0.0015287709
6.6385307e-13
0.0015287709
2.0583565e-13
0.0015287709
2.9704798e-13
0.0015287709
-1.5625387e-13
0.0015287709
-6.6088143e-14
0.0015287709
-5.2086116e-13
0.0015287709
-4.4683125e-13
0.0015287709
-8.7635962e-13
0.0015287709
-7.407801e-13
0.0015287709
-1.157568e-12
0.0015287709
-1.0047213e-12
0.0015287709
-1.4500376e-12
0.0015287709
-1.2497659e-12
0.0015287709
-1.6891946e-12
0.0015287709
-1.4157901e-12
0.0015287709
-1.7324057e-12
0.0015287709
-1.2639708e-12
0.0015287709
-1.389707e-12
0.0015287709
-8.2959512e-13
0.0015287709
-9.0567602e-13
0.0015287709
-3.8746266e-13
0.0015287708
-4.3054706e-13
0.0015287708
3.2796717e-13
0.0015287707
7.6903551e-13
0.0015287706
1.9840233e-12
0.0015287703
2.1546866e-12
0.0015287699
2.6017162e-12
0.0015287691
1.7371649e-12
0.0015287681
1.1868819e-12
0.0015287687
2.7591638e-13
-4.8282371e-14
0.0015314926
-4.075344e-07
0.0015312775
2.1551227e-07
0.0015303771
9.0006933e-07
0.0015295347
8.4167456e-07
0.001529044
4.9009409e-07
0.0015288183
2.2537705e-07
0.0015287342
8.4019485e-08
0.0015287159
1.8218037e-08
0.0015287221
-6.0555997e-09
0.0015287349
-1.2746067e-08
0.0015287465
-1.1540916e-08
0.0015287552
-8.625321e-09
0.0015287612
-5.8798311e-09
0.001528765
-3.7925568e-09
0.0015287674
-2.3691774e-09
0.0015287688
-1.4433963e-09
0.0015287697
-8.6353849e-10
0.0015287702
-5.0955958e-10
0.0015287705
-2.9819789e-10
0.0015287707
-1.7248846e-10
0.0015287708
-9.9910957e-11
0.0015287708
-5.7089132e-11
0.0015287709
-3.3260541e-11
0.0015287709
-1.8569974e-11
0.0015287709
-1.1086981e-11
0.0015287709
-5.8298882e-12
0.0015287709
-3.5748162e-12
0.0015287709
-1.6776551e-12
0.0015287709
-7.1697421e-13
0.0015287709
-1.227123e-14
0.0015287709
2.6384661e-13
0.0015287709
5.1351252e-13
0.0015287709
5.1797673e-13
0.0015287709
5.8733063e-13
0.0015287709
4.0926091e-13
0.0015287709
4.3619635e-13
0.0015287709
2.0596522e-13
0.0015287709
2.9798887e-13
0.0015287709
7.3541375e-14
0.0015287709
1.7876673e-13
0.0015287709
3.2198274e-14
0.0015287709
2.4855818e-13
0.0015287709
8.6215901e-14
0.0015287709
3.5989619e-13
0.0015287709
1.9572725e-13
0.0015287709
4.9768989e-13
0.0015287709
2.7494447e-13
0.0015287709
4.49187e-13
0.0015287709
2.6328143e-13
0.0015287709
3.0486496e-13
0.0015287709
5.1998756e-14
0.0015287709
2.3609708e-14
0.0015287709
-2.4958204e-13
0.0015287709
-1.8186181e-13
0.0015287709
-5.5833182e-13
0.0015287709
-4.1914241e-13
0.0015287709
-7.4385726e-13
0.0015287709
-4.7750687e-13
0.0015287709
-7.2594016e-13
0.0015287709
-4.5437483e-13
0.0015287709
-5.3355343e-13
0.0015287709
-2.2184051e-13
0.0015287709
-1.4212593e-13
0.0015287709
1.6578974e-13
0.0015287709
1.9401474e-13
0.0015287709
6.3106256e-13
0.0015287709
5.2180815e-13
0.0015287709
9.3567748e-13
0.0015287709
7.7804908e-13
0.0015287709
1.1382503e-12
0.0015287709
8.8090422e-13
0.0015287709
1.0662554e-12
0.0015287709
8.214873e-13
0.0015287709
8.6397997e-13
0.0015287709
6.2785668e-13
0.0015287709
4.6262356e-13
0.0015287709
2.4509354e-13
0.0015287709
4.9221822e-14
0.0015287709
-2.8758393e-13
0.0015287709
-4.0794265e-13
0.0015287709
-9.2143944e-13
0.0015287709
-1.0145531e-12
0.0015287709
-1.6619071e-12
0.0015287709
-1.6332924e-12
0.0015287709
-2.0361789e-12
0.0015287709
-1.4740229e-12
0.0015287709
-8.7140776e-13
0.0015287709
1.1913597e-12
0.0015287709
4.1974472e-12
0.0015287709
1.0802423e-11
0.0015287708
2.1061608e-11
0.0015287708
4.2271299e-11
0.0015287707
7.9239588e-11
0.0015287706
1.4875937e-10
0.0015287703
2.6381933e-10
0.0015287699
4.6234315e-10
0.0015287691
8.0983463e-10
0.0015287681
9.2437904e-10
0.0015287687
-5.3352446e-10
-2.0493129e-09
0.0015239353
-1.0538947e-06
0.0015240076
1.4389949e-07
0.0015231954
1.7125625e-06
0.0015224575
1.5797552e-06
0.0015221106
8.3706876e-07
0.0015219966
3.3957144e-07
0.0015219788
1.0213629e-07
0.001521995
2.2991724e-09
0.0015220182
-2.8931383e-08
0.0015220373
-3.1511395e-08
0.0015220504
-2.4411631e-08
0.0015220588
-1.6854571e-08
0.001522064
-1.092757e-08
0.0015220672
-6.8054776e-09
0.001522069
-4.1288233e-09
0.0015220701
-2.4560374e-09
0.0015220707
-1.4402292e-09
0.0015220711
-8.3466724e-10
0.0015220713
-4.7807972e-10
0.0015220714
-2.7284993e-10
0.0015220714
-1.5376158e-10
0.0015220715
-8.7360427e-11
0.0015220715
-4.8311869e-11
0.0015220715
-2.7731796e-11
0.0015220715
-1.4737205e-11
0.0015220715
-8.5652455e-12
0.0015220715
-4.1585547e-12
0.0015220715
-2.1146231e-12
0.0015220715
-3.1562057e-13
0.0015220715
-1.2999725e-14
0.0015220715
8.6129687e-13
0.0015220715
5.8497709e-13
0.0015220715
1.0447694e-12
0.0015220715
4.9934349e-13
0.0015220715
6.905948e-13
0.0015220715
-5.4240709e-15
0.0015220715
2.9660536e-13
0.0015220715
-3.0704696e-13
0.0015220715
-7.0132303e-15
0.0015220715
-4.3726938e-13
0.0015220715
6.6880353e-14
0.0015220715
-2.8339477e-13
0.0015220715
3.8973626e-13
0.0015220715
6.8643921e-14
0.0015220715
7.8902875e-13
0.0015220715
4.8717097e-13
0.0015220715
1.0508605e-12
0.0015220715
6.9566504e-13
0.0015220715
1.0756223e-12
0.0015220715
6.2198602e-13
0.0015220715
7.6950343e-13
0.0015220715
1.3532133e-13
0.0015220715
3.6234862e-13
0.0015220715
-4.4251387e-13
0.0015220715
-2.5696245e-13
0.0015220715
-1.0452397e-12
0.0015220715
-7.1571366e-13
0.0015220715
-1.4316441e-12
0.0015220715
-9.8760868e-13
0.0015220715
-1.5271009e-12
0.0015220715
-9.7181636e-13
0.0015220715
-1.2707915e-12
0.0015220715
-5.5202132e-13
0.0015220715
-8.2511793e-13
0.0015220715
1.0171132e-13
0.0015220715
-1.027172e-13
0.0015220715
7.7653083e-13
0.0015220715
5.7308463e-13
0.0015220715
1.4321324e-12
0.0015220715
1.1502074e-12
0.0015220715
1.8654861e-12
0.0015220715
1.4531276e-12
0.0015220715
2.0106842e-12
0.0015220715
1.5347713e-12
0.0015220715
1.8513523e-12
0.0015220715
1.2565499e-12
0.0015220715
1.4681696e-12
0.0015220715
7.996955e-13
0.0015220715
8.1549488e-13
0.0015220715
2.2836202e-14
0.0015220715
4.8284019e-16
0.0015220715
-1.0314617e-12
0.0015220715
-1.1259134e-12
0.0015220715
-2.2526954e-12
0.0015220715
-1.9407897e-12
0.0015220715
-2.3356525e-12
0.0015220715
-8.1452832e-13
0.0015220715
1.438649e-12
0.0015220715
7.0861915e-12
0.0015220715
1.5104451e-11
0.0015220715
3.3174784e-11
0.0015220715
6.3932171e-11
0.0015220714
1.272352e-10
0.0015220713
2.4449562e-10
0.0015220711
4.5606326e-10
0.0015220707
8.542868e-10
0.0015220699
1.6950522e-09
0.0015220687
2.1203851e-09
0.0015220694
-1.2284651e-09
-4.523927e-09
0.0014864787
-2.1973263e-06
0.001487447
-8.2383046e-07
0.0014873566
1.8030225e-06
0.0014872146
1.7216756e-06
0.0014872826
7.6902877e-07
0.0014873927
2.2959789e-07
0.0014874778
1.7228136e-08
0.0014875365
-5.615519e-08
0.0014875734
-6.5530894e-08
0.0014875924
-5.0262448e-08
0.0014876019
-3.3661399e-08
0.0014876066
-2.1271037e-08
0.0014876088
-1.2960009e-08
0.0014876098
-7.7133852e-09
0.0014876103
-4.5024992e-09
0.0014876105
-2.6008753e-09
0.0014876106
-1.4856178e-09
0.0014876106
-8.4110713e-10
0.0014876106
-4.7258059e-10
0.0014876106
-2.639371e-10
0.0014876106
-1.4671594e-10
0.0014876106
-8.1412923e-11
0.0014876106
-4.5065668e-11
0.0014876106
-2.4805982e-11
0.0014876106
-1.3351071e-11
0.0014876106
-7.0595457e-12
0.0014876106
-3.5607156e-12
0.0014876106
-1.3358385e-12
0.0014876106
8.8359722e-14
0.0014876106
6.7233577e-13
0.0014876106
1.0152648e-12
0.0014876106
1.1408933e-12
0.0014876106
1.0128739e-12
0.0014876106
7.3758109e-13
0.0014876106
3.9278803e-13
0.0014876106
1.6657621e-14
0.0014876106
-2.3727849e-13
0.0014876106
-5.1485748e-13
0.0014876106
-6.5095197e-13
0.0014876106
-6.4575665e-13
0.0014876106
-4.8963508e-13
0.0014876106
-3.3002085e-13
0.0014876106
-4.9463919e-15
0.0014876106
3.5063335e-13
0.0014876106
6.9952154e-13
0.0014876106
1.0413495e-12
0.0014876106
1.2397479e-12
0.0014876106
1.4354648e-12
0.0014876106
1.4486331e-12
0.0014876106
1.3073588e-12
0.0014876106
1.100409e-12
0.0014876106
8.165054e-13
0.0014876106
4.320425e-13
0.0014876106
-4.5842555e-14
0.0014876106
-5.2638741e-13
0.0014876106
-9.1719652e-13
0.0014876106
-1.3587973e-12
0.0014876106
-1.6788239e-12
0.0014876106
-1.8896593e-12
0.0014876106
-1.9754118e-12
0.0014876106
-1.9417222e-12
0.0014876106
-1.8130288e-12
0.0014876106
-1.5520561e-12
0.0014876106
-1.1790262e-12
0.0014876106
-7.2210445e-13
0.0014876106
-2.3346919e-13
0.0014876106
2.9742742e-13
0.0014876106
8.2401382e-13
0.0014876106
1.320981e-12
0.0014876106
1.8072259e-12
0.0014876106
2.1489641e-12
0.0014876106
2.4508228e-12
0.0014876106
2.6156339e-12
0.0014876106
2.6529109e-12
0.0014876106
2.5941382e-12
0.0014876106
2.505572e-12
0.0014876106
2.2558491e-12
0.0014876106
1.9143337e-12
0.0014876106
1.4681903e-12
0.0014876106
1.0160969e-12
0.0014876106
3.7487299e-13
0.0014876106
-3.5981392e-13
0.0014876106
-1.2418719e-12
0.0014876106
-2.0406913e-12
0.0014876106
-2.6677156e-12
0.0014876106
-2.9177517e-12
0.0014876106
-2.2167322e-12
0.0014876106
-2.5561564e-13
0.0014876106
4.0018248e-12
0.0014876106
1.1576899e-11
0.0014876107
2.60213e-11
0.0014876107
5.4498443e-11
0.0014876107
1.1438886e-10
0.0014876107
2.3784786e-10
0.0014876107
4.6569792e-10
0.0014876105
9.8456852e-10
0.0014876098
2.4156341e-09
0.0014876085
3.3964235e-09
0.0014876093
-1.9780857e-09
-6.7900559e-09
0.0013335397
-3.0561086e-06
0.0013349866
-2.2708313e-06
0.001336332
4.5722564e-07
0.001337282
7.711922e-07
0.00133786
1.9061931e-07
0.0013381297
-4.0332567e-08
0.0013382387
-9.1754183e-08
0.0013382739
-9.1205999e-08
0.0013382782
-6.962463e-08
0.0013382723
-4.4051523e-08
0.0013382649
-2.6008874e-08
0.0013382589
-1.5118986e-08
0.0013382548
-8.641168e-09
0.0013382521
-4.873048e-09
0.0013382504
-2.721799e-09
0.0013382494
-1.5104337e-09
0.0013382488
-8.3443291e-10
0.0013382485
-4.576369e-10
0.0013382483
-2.5046507e-10
0.0013382482
-1.3599441e-10
0.0013382481
-7.4391896e-11
0.0013382481
-4.0846648e-11
0.001338248
-2.2953425e-11
0.001338248
-1.2155128e-11
0.001338248
-6.8616108e-12
0.001338248
-3.2562998e-12
0.001338248
-1.7525832e-12
0.001338248
-7.6605982e-14
0.001338248
2.2126734e-13
0.001338248
1.0029397e-12
0.001338248
7.5971389e-13
0.001338248
1.1851096e-12
0.001338248
5.5309414e-13
0.001338248
6.6542034e-13
0.001338248
-1.4758321e-13
0.001338248
-8.996667e-14
0.001338248
-8.2314806e-13
0.001338248
-6.3835504e-13
0.001338248
-1.1933689e-12
0.001338248
-7.080532e-13
0.001338248
-9.8571046e-13
0.001338248
-2.9426389e-13
0.001338248
-3.7666711e-13
0.001338248
4.7163515e-13
0.001338248
4.3702378e-13
0.001338248
1.2257989e-12
0.001338248
1.0671482e-12
0.001338248
1.7306015e-12
0.001338248
1.3572806e-12
0.001338248
1.6032965e-12
0.001338248
1.0666197e-12
0.001338248
1.1485496e-12
0.001338248
3.2294552e-13
0.001338248
2.7332236e-13
0.001338248
-6.4825665e-13
0.001338248
-6.386505e-13
0.001338248
-1.5685613e-12
0.001338248
-1.4411305e-12
0.001338248
-2.1722323e-12
0.001338248
-1.82464e-12
0.001338248
-2.2234852e-12
0.001338248
-1.7079795e-12
0.001338248
-1.8982692e-12
0.001338248
-1.1096335e-12
0.001338248
-1.1037675e-12
0.001338248
-1.7526921e-13
0.001338248
-8.2540152e-14
0.001338248
8.9506298e-13
0.001338248
9.4929258e-13
0.001338248
1.9020442e-12
0.001338248
1.8859108e-12
0.001338248
2.5738012e-12
0.001338248
2.3975803e-12
0.001338248
2.7877194e-12
0.001338248
2.4553546e-12
0.001338248
2.7030744e-12
0.001338248
2.1323964e-12
0.001338248
2.1686219e-12
0.001338248
1.4406489e-12
0.001338248
1.3320001e-12
0.001338248
3.8429687e-13
0.001338248
1.1360077e-13
0.001338248
-1.0515386e-12
0.001338248
-1.4669626e-12
0.001338248
-2.5152923e-12
0.001338248
-2.5896954e-12
0.001338248
-3.08779e-12
0.001338248
-2.0649942e-12
0.001338248
-8.961956e-13
0.001338248
2.3874734e-12
0.0013382481
7.1746943e-12
0.0013382481
1.9081986e-11
0.0013382482
4.6159312e-11
0.0013382483
1.0868094e-10
0.0013382485
2.2676489e-10
0.0013382489
6.0120339e-10
0.0013382494
1.901069e-09
0.00133825
2.7779084e-09
0.0013382491
-1.076125e-09
-4.4543523e-09
0.00079672492
0.00079445386
0.00079491075
0.00079568164
0.00079587205
0.00079583164
0.00079573991
0.00079564878
0.00079557927
0.00079553534
0.00079550945
0.00079549442
0.00079548586
0.00079548105
0.00079547838
0.0007954769
0.00079547609
0.00079547565
0.00079547541
0.00079547528
0.00079547521
0.00079547517
0.00079547515
0.00079547514
0.00079547513
0.00079547513
0.00079547513
0.00079547513
0.00079547513
0.00079547513
0.00079547513
0.00079547513
0.00079547513
0.00079547513
0.00079547513
0.00079547513
0.00079547513
0.00079547513
0.00079547513
0.00079547512
0.00079547512
0.00079547512
0.00079547512
0.00079547512
0.00079547512
0.00079547512
0.00079547513
0.00079547513
0.00079547513
0.00079547513
0.00079547513
0.00079547513
0.00079547513
0.00079547513
0.00079547513
0.00079547513
0.00079547513
0.00079547513
0.00079547513
0.00079547512
0.00079547512
0.00079547512
0.00079547512
0.00079547512
0.00079547512
0.00079547512
0.00079547512
0.00079547512
0.00079547512
0.00079547512
0.00079547512
0.00079547512
0.00079547513
0.00079547513
0.00079547513
0.00079547513
0.00079547514
0.00079547514
0.00079547514
0.00079547514
0.00079547514
0.00079547514
0.00079547514
0.00079547514
0.00079547514
0.00079547514
0.00079547513
0.00079547513
0.00079547513
0.00079547514
0.00079547514
0.00079547516
0.00079547521
0.00079547532
0.00079547555
0.00079547615
0.00079547804
0.00079548082
0.00079547974
)
;

boundaryField
{
    top
    {
        type            calculated;
        value           uniform 0;
    }
    inlet
    {
        type            calculated;
        value           nonuniform List<scalar> 10(-0.0007997813 -0.0013326804 -0.0014853339 -0.0015232888 -0.001531085 -0.0015310848 -0.001523288 -0.0014853348 -0.0013326805 -0.00079978108);
    }
    outlet
    {
        type            calculated;
        value           nonuniform List<scalar> 10(0.00079547529 0.0013382468 0.0014876116 0.0015220718 0.0015287707 0.0015287707 0.0015220718 0.0014876116 0.0013382468 0.00079547529);
    }
    bottom
    {
        type            calculated;
        value           uniform 0;
    }
    back
    {
        type            empty;
        value           nonuniform List<scalar> 0();
    }
    front
    {
        type            empty;
        value           nonuniform List<scalar> 0();
    }
}


// ************************************************************************* //
