/*--------------------------------*- C++ -*----------------------------------*\
| =========                 |                                                 |
| \\      /  F ield         | OpenFOAM: The Open Source CFD Toolbox           |
|  \\    /   O peration     | Version:  2112                                  |
|   \\  /    A nd           | Website:  www.openfoam.com                      |
|    \\/     M anipulation  |                                                 |
\*---------------------------------------------------------------------------*/
FoamFile
{
    version     2.0;
    format      ascii;
    arch        "LSB;label=32;scalar=64";
    class       volVectorField;
    location    "1";
    object      U;
}
// * * * * * * * * * * * * * * * * * * * * * * * * * * * * * * * * * * * * * //

dimensions      [0 1 -1 0 0 0 0];

internalField   nonuniform List<vector> 
1000
(
(0.079752322 0.00017750276 0)
(0.080017559 0.00014582348 0)
(0.07942464 -3.0103782e-05 0)
(0.079516952 -4.5459115e-05 0)
(0.079610701 -2.6238848e-06 0)
(0.079591716 1.076984e-05 0)
(0.079577211 9.3404958e-06 0)
(0.079570192 7.2158197e-06 0)
(0.079561974 4.9733098e-06 0)
(0.079555701 3.0042106e-06 0)
(0.079552127 1.718981e-06 0)
(0.079550124 9.7261768e-07 0)
(0.079548967 5.4456746e-07 0)
(0.079548312 3.0140639e-07 0)
(0.079547949 1.6558015e-07 0)
(0.079547748 9.0510679e-08 0)
(0.079547639 4.9162971e-08 0)
(0.07954758 2.6521353e-08 0)
(0.079547548 1.4193123e-08 0)
(0.079547531 7.5569648e-09 0)
(0.079547522 3.9869765e-09 0)
(0.079547517 2.0988168e-09 0)
(0.079547515 1.0796478e-09 0)
(0.079547513 5.5618559e-10 0)
(0.079547513 2.674736e-10 0)
(0.079547512 1.3108967e-10 0)
(0.079547512 3.0263648e-11 0)
(0.079547512 -2.4610017e-11 0)
(0.079547512 -7.8052366e-11 0)
(0.079547512 -9.1264127e-11 0)
(0.079547513 -1.0876983e-10 0)
(0.079547513 -9.3826359e-11 0)
(0.079547513 -8.4157652e-11 0)
(0.079547513 -4.8233811e-11 0)
(0.079547513 -2.6252225e-11 0)
(0.079547513 1.7317939e-11 0)
(0.079547513 3.6543555e-11 0)
(0.079547513 7.1853981e-11 0)
(0.079547513 7.5068174e-11 0)
(0.079547513 8.8867969e-11 0)
(0.079547512 7.2894321e-11 0)
(0.079547512 6.8096211e-11 0)
(0.079547512 3.2861748e-11 0)
(0.079547512 1.4639454e-11 0)
(0.079547512 -2.7211518e-11 0)
(0.079547512 -4.9400769e-11 0)
(0.079547512 -8.9755373e-11 0)
(0.079547513 -1.0254078e-10 0)
(0.079547513 -1.2319632e-10 0)
(0.079547513 -1.1573927e-10 0)
(0.079547513 -1.1843602e-10 0)
(0.079547513 -9.2643685e-11 0)
(0.079547514 -7.5779642e-11 0)
(0.079547514 -3.3260218e-11 0)
(0.079547514 -8.7547038e-12 0)
(0.079547514 4.0619122e-11 0)
(0.079547513 7.0061268e-11 0)
(0.079547513 1.1377833e-10 0)
(0.079547513 1.3012038e-10 0)
(0.079547513 1.5795993e-10 0)
(0.079547512 1.5806368e-10 0)
(0.079547512 1.6867403e-10 0)
(0.079547512 1.4771286e-10 0)
(0.079547512 1.3855244e-10 0)
(0.079547512 1.0151413e-10 0)
(0.079547512 7.7800968e-11 0)
(0.079547512 2.6587493e-11 0)
(0.079547512 -4.2934993e-12 0)
(0.079547512 -6.1853798e-11 0)
(0.079547512 -9.5575234e-11 0)
(0.079547512 -1.4358735e-10 0)
(0.079547512 -1.6693982e-10 0)
(0.079547513 -1.9994591e-10 0)
(0.079547513 -2.0707598e-10 0)
(0.079547513 -2.2433201e-10 0)
(0.079547513 -2.1441077e-10 0)
(0.079547514 -2.1125931e-10 0)
(0.079547514 -1.8238843e-10 0)
(0.079547514 -1.6467625e-10 0)
(0.079547514 -1.2289221e-10 0)
(0.079547514 -9.0290979e-11 0)
(0.079547514 -3.3920476e-11 0)
(0.079547514 7.4030493e-12 0)
(0.079547514 8.042088e-11 0)
(0.079547514 1.3735143e-10 0)
(0.079547514 2.0706278e-10 0)
(0.079547514 2.4222368e-10 0)
(0.079547513 2.6957133e-10 0)
(0.079547513 2.2771565e-10 0)
(0.079547513 1.2926554e-10 0)
(0.079547514 -1.5806044e-10 0)
(0.079547515 -7.7795119e-10 0)
(0.079547518 -2.3982983e-09 0)
(0.079547525 -6.0793759e-09 0)
(0.079547522 -1.409544e-08 0)
(0.07954757 -4.2123301e-08 0)
(0.079547914 -1.2284594e-07 0)
(0.079547902 -1.5988037e-07 0)
(0.079546489 8.931908e-08 0)
(0.079549553 2.9656244e-07 0)
(0.13292825 0.00028417667 0)
(0.13451933 0.00017397502 0)
(0.13348129 -0.00014797648 0)
(0.13360647 -0.0001582529 0)
(0.13381285 -5.6556552e-05 0)
(0.13380991 -7.6702586e-06 0)
(0.13381307 5.810405e-06 0)
(0.1338268 9.3210348e-06 0)
(0.13382928 8.1843174e-06 0)
(0.13382789 5.6316919e-06 0)
(0.1338269 3.522402e-06 0)
(0.13382622 2.1261451e-06 0)
(0.1338257 1.252959e-06 0)
(0.13382534 7.2386071e-07 0)
(0.13382511 4.1252309e-07 0)
(0.13382498 2.327133e-07 0)
(0.1338249 1.3004124e-07 0)
(0.13382486 7.1985525e-08 0)
(0.13382483 3.9463132e-08 0)
(0.13382482 2.1442129e-08 0)
(0.13382481 1.1543802e-08 0)
(0.13382481 6.1572639e-09 0)
(0.1338248 3.2366263e-09 0)
(0.1338248 1.6727152e-09 0)
(0.1338248 8.3090356e-10 0)
(0.1338248 3.792333e-10 0)
(0.1338248 1.1334557e-10 0)
(0.1338248 -4.2696837e-11 0)
(0.1338248 -1.432417e-10 0)
(0.1338248 -1.8756803e-10 0)
(0.1338248 -2.0880917e-10 0)
(0.1338248 -1.9318179e-10 0)
(0.1338248 -1.6129767e-10 0)
(0.1338248 -1.0644757e-10 0)
(0.1338248 -5.0987032e-11 0)
(0.1338248 1.3537798e-11 0)
(0.1338248 6.693763e-11 0)
(0.1338248 1.1393841e-10 0)
(0.1338248 1.3906616e-10 0)
(0.1338248 1.5067363e-10 0)
(0.1338248 1.3856971e-10 0)
(0.1338248 1.1438186e-10 0)
(0.1338248 6.5952273e-11 0)
(0.1338248 1.4474423e-11 0)
(0.1338248 -4.5053788e-11 0)
(0.1338248 -1.0067802e-10 0)
(0.1338248 -1.5794229e-10 0)
(0.1338248 -1.9795849e-10 0)
(0.1338248 -2.249887e-10 0)
(0.1338248 -2.268238e-10 0)
(0.1338248 -2.191575e-10 0)
(0.1338248 -1.8535609e-10 0)
(0.1338248 -1.3988148e-10 0)
(0.1338248 -7.5207846e-11 0)
(0.1338248 -1.1570673e-11 0)
(0.1338248 6.1238949e-11 0)
(0.1338248 1.3209557e-10 0)
(0.1338248 2.0028389e-10 0)
(0.1338248 2.4923189e-10 0)
(0.1338248 2.9083373e-10 0)
(0.1338248 3.0912841e-10 0)
(0.1338248 3.1729243e-10 0)
(0.1338248 2.9519133e-10 0)
(0.1338248 2.6436717e-10 0)
(0.1338248 2.1061967e-10 0)
(0.1338248 1.5133004e-10 0)
(0.1338248 7.140405e-11 0)
(0.1338248 -6.6268771e-12 0)
(0.1338248 -9.2131429e-11 0)
(0.1338248 -1.7096256e-10 0)
(0.1338248 -2.5220603e-10 0)
(0.1338248 -3.1339e-10 0)
(0.1338248 -3.6870111e-10 0)
(0.1338248 -3.9893709e-10 0)
(0.1338248 -4.2411631e-10 0)
(0.1338248 -4.2119914e-10 0)
(0.1338248 -4.0769206e-10 0)
(0.1338248 -3.6887907e-10 0)
(0.1338248 -3.2658462e-10 0)
(0.1338248 -2.6316002e-10 0)
(0.1338248 -1.9360868e-10 0)
(0.1338248 -1.060573e-10 0)
(0.1338248 -1.7360015e-11 0)
(0.1338248 9.0456205e-11 0)
(0.1338248 2.0153523e-10 0)
(0.1338248 2.9811787e-10 0)
(0.1338248 3.3491089e-10 0)
(0.1338248 2.7357431e-10 0)
(0.1338248 4.3076894e-11 0)
(0.1338248 -4.6676907e-10 0)
(0.1338248 -1.5261304e-09 0)
(0.13382481 -3.6773086e-09 0)
(0.13382481 -8.4647979e-09 0)
(0.13382482 -1.8657049e-08 0)
(0.13382481 -3.80587e-08 0)
(0.13382484 -9.2170818e-08 0)
(0.13382535 -2.5331481e-07 0)
(0.13382501 -3.5528874e-07 0)
(0.1338214 1.7842355e-07 0)
(0.1338287 6.6301275e-07 0)
(0.14811669 0.00015678081 0)
(0.1500543 8.7978687e-06 0)
(0.14864547 -0.00021155828 0)
(0.14861878 -0.00019350116 0)
(0.1487727 -9.7774303e-05 0)
(0.14873696 -3.828342e-05 0)
(0.14873346 -1.0747825e-05 0)
(0.14875081 9.0620069e-07 0)
(0.14875702 4.1458224e-06 0)
(0.14875857 3.9132851e-06 0)
(0.14875977 2.882545e-06 0)
(0.1487605 1.9317695e-06 0)
(0.14876081 1.2264781e-06 0)
(0.14876095 7.5069286e-07 0)
(0.14876101 4.4813412e-07 0)
(0.14876104 2.6258515e-07 0)
(0.14876105 1.5147873e-07 0)
(0.14876106 8.6168341e-08 0)
(0.14876106 4.839209e-08 0)
(0.14876106 2.6842693e-08 0)
(0.14876106 1.4715169e-08 0)
(0.14876106 7.9554467e-09 0)
(0.14876106 4.2433488e-09 0)
(0.14876106 2.2143142e-09 0)
(0.14876106 1.1146448e-09 0)
(0.14876106 5.0238629e-10 0)
(0.14876106 1.7294917e-10 0)
(0.14876106 -1.6287786e-11 0)
(0.14876106 -1.0728081e-10 0)
(0.14876106 -1.5977904e-10 0)
(0.14876106 -1.6939461e-10 0)
(0.14876106 -1.6254302e-10 0)
(0.14876106 -1.2808114e-10 0)
(0.14876106 -8.9698572e-11 0)
(0.14876106 -3.8208898e-11 0)
(0.14876106 5.7940321e-12 0)
(0.14876106 5.5990656e-11 0)
(0.14876106 8.6018309e-11 0)
(0.14876106 1.1080161e-10 0)
(0.14876106 1.1540919e-10 0)
(0.14876106 1.1170586e-10 0)
(0.14876106 8.5017819e-11 0)
(0.14876106 5.2819544e-11 0)
(0.14876106 4.0167577e-12 0)
(0.14876106 -3.7579903e-11 0)
(0.14876106 -8.7292319e-11 0)
(0.14876106 -1.2628284e-10 0)
(0.14876106 -1.6070878e-10 0)
(0.14876106 -1.7879625e-10 0)
(0.14876106 -1.8844533e-10 0)
(0.14876106 -1.7767778e-10 0)
(0.14876106 -1.5798718e-10 0)
(0.14876106 -1.1587525e-10 0)
(0.14876106 -7.2199778e-11 0)
(0.14876106 -1.3500173e-11 0)
(0.14876106 3.858572e-11 0)
(0.14876106 9.970321e-11 0)
(0.14876106 1.5051914e-10 0)
(0.14876106 1.9757357e-10 0)
(0.14876106 2.2942838e-10 0)
(0.14876106 2.5577737e-10 0)
(0.14876106 2.5916054e-10 0)
(0.14876106 2.5365093e-10 0)
(0.14876106 2.2484358e-10 0)
(0.14876106 1.9187032e-10 0)
(0.14876106 1.3812973e-10 0)
(0.14876106 8.2911269e-11 0)
(0.14876106 1.326897e-11 0)
(0.14876106 -4.7667408e-11 0)
(0.14876106 -1.158778e-10 0)
(0.14876106 -1.7823663e-10 0)
(0.14876106 -2.3957908e-10 0)
(0.14876106 -2.8341351e-10 0)
(0.14876106 -3.2228678e-10 0)
(0.14876106 -3.4083326e-10 0)
(0.14876106 -3.5276771e-10 0)
(0.14876106 -3.4065155e-10 0)
(0.14876106 -3.2527676e-10 0)
(0.14876106 -2.9019651e-10 0)
(0.14876106 -2.5411821e-10 0)
(0.14876106 -1.9915295e-10 0)
(0.14876106 -1.4594287e-10 0)
(0.14876106 -7.4868104e-11 0)
(0.14876106 -8.881417e-12 0)
(0.14876106 6.3474537e-11 0)
(0.14876106 9.9106343e-11 0)
(0.14876106 5.9886923e-11 0)
(0.14876106 -1.4476001e-10 0)
(0.14876106 -5.916013e-10 0)
(0.14876106 -1.5082249e-09 0)
(0.14876106 -3.2267216e-09 0)
(0.14876107 -6.555232e-09 0)
(0.14876107 -1.3178071e-08 0)
(0.14876107 -2.6325125e-08 0)
(0.14876104 -4.9866529e-08 0)
(0.14876101 -9.8609883e-08 0)
(0.1487615 -2.1990069e-07 0)
(0.14876115 -2.9277702e-07 0)
(0.14875669 1.6989476e-07 0)
(0.14876533 6.0585236e-07 0)
(0.15187448 6.994412e-05 0)
(0.15384325 -1.8858306e-05 0)
(0.15226917 -0.00013359504 0)
(0.15216269 -0.00012716803 0)
(0.15227096 -7.4077589e-05 0)
(0.15220371 -3.4452634e-05 0)
(0.15218551 -1.3025725e-05 0)
(0.15219731 -2.867504e-06 0)
(0.15220147 9.8433535e-07 0)
(0.15220269 1.8167394e-06 0)
(0.15220426 1.6220284e-06 0)
(0.15220547 1.2004011e-06 0)
(0.15220617 8.11598e-07 0)
(0.15220657 5.1981293e-07 0)
(0.15220682 3.2104868e-07 0)
(0.15220696 1.9303779e-07 0)
(0.15220704 1.1366713e-07 0)
(0.15220709 6.5692019e-08 0)
(0.15220712 3.7377032e-08 0)
(0.15220713 2.0911765e-08 0)
(0.15220714 1.1545253e-08 0)
(0.15220715 6.2464931e-09 0)
(0.15220715 3.3423243e-09 0)
(0.15220715 1.7205518e-09 0)
(0.15220715 8.6610328e-10 0)
(0.15220715 3.760686e-10 0)
(0.15220715 1.4183917e-10 0)
(0.15220715 -1.0181737e-11 0)
(0.15220715 -5.4429655e-11 0)
(0.15220715 -1.0199907e-10 0)
(0.15220715 -8.479366e-11 0)
(0.15220715 -9.4461465e-11 0)
(0.15220715 -5.2342857e-11 0)
(0.15220715 -4.5176584e-11 0)
(0.15220715 5.3956759e-12 0)
(0.15220715 1.5464866e-11 0)
(0.15220715 6.0336989e-11 0)
(0.15220715 6.2779827e-11 0)
(0.15220715 9.2256324e-11 0)
(0.15220715 7.3033312e-11 0)
(0.15220715 8.4700489e-11 0)
(0.15220715 4.8380404e-11 0)
(0.15220715 4.4152547e-11 0)
(0.15220715 -2.793276e-12 0)
(0.15220715 -1.5629166e-11 0)
(0.15220715 -6.4408712e-11 0)
(0.15220715 -7.3502662e-11 0)
(0.15220715 -1.1370112e-10 0)
(0.15220715 -1.0614869e-10 0)
(0.15220715 -1.3064529e-10 0)
(0.15220715 -1.0616208e-10 0)
(0.15220715 -1.1315188e-10 0)
(0.15220715 -7.2761126e-11 0)
(0.15220715 -6.3613284e-11 0)
(0.15220715 -1.2082351e-11 0)
(0.15220715 6.771512e-12 0)
(0.15220715 6.2276013e-11 0)
(0.15220715 7.9132989e-11 0)
(0.15220715 1.3010391e-10 0)
(0.15220715 1.321939e-10 0)
(0.15220715 1.7013805e-10 0)
(0.15220715 1.5708373e-10 0)
(0.15220715 1.7859899e-10 0)
(0.15220715 1.4765396e-10 0)
(0.15220715 1.4980612e-10 0)
(0.15220715 1.024035e-10 0)
(0.15220715 8.8018834e-11 0)
(0.15220715 2.9974136e-11 0)
(0.15220715 4.9301012e-12 0)
(0.15220715 -5.7585543e-11 0)
(0.15220715 -7.8682326e-11 0)
(0.15220715 -1.3832699e-10 0)
(0.15220715 -1.5109985e-10 0)
(0.15220715 -2.0023158e-10 0)
(0.15220715 -2.0161542e-10 0)
(0.15220715 -2.3537123e-10 0)
(0.15220715 -2.2063578e-10 0)
(0.15220715 -2.3691897e-10 0)
(0.15220715 -2.0755851e-10 0)
(0.15220715 -2.1028327e-10 0)
(0.15220715 -1.7033084e-10 0)
(0.15220715 -1.6187722e-10 0)
(0.15220715 -1.1160122e-10 0)
(0.15220715 -9.3151048e-11 0)
(0.15220715 -4.8010221e-11 0)
(0.15220715 -6.3569053e-11 0)
(0.15220715 -1.095234e-10 0)
(0.15220715 -3.1903755e-10 0)
(0.15220715 -7.1858615e-10 0)
(0.15220715 -1.5486515e-09 0)
(0.15220715 -3.0448339e-09 0)
(0.15220715 -5.8840369e-09 0)
(0.15220715 -1.1171607e-08 0)
(0.15220714 -2.1080435e-08 0)
(0.1522071 -3.8041893e-08 0)
(0.15220703 -6.7390872e-08 0)
(0.15220751 -1.2396053e-07 0)
(0.15220722 -1.4850418e-07 0)
(0.15220256 8.7588195e-08 0)
(0.15221142 3.2305539e-07 0)
(0.1526398 1.9276161e-05 0)
(0.1546065 -8.2741706e-06 0)
(0.15299622 -4.2716026e-05 0)
(0.15287612 -4.2180936e-05 0)
(0.15297106 -2.6251168e-05 0)
(0.15289003 -1.3068727e-05 0)
(0.15286301 -5.444375e-06 0)
(0.15287028 -1.6516513e-06 0)
(0.15287222 -3.9088015e-08 0)
(0.15287248 4.3505981e-07 0)
(0.15287381 4.7408753e-07 0)
(0.15287503 3.7868543e-07 0)
(0.15287582 2.6681259e-07 0)
(0.15287631 1.7533423e-07 0)
(0.15287662 1.0988022e-07 0)
(0.15287682 6.6463331e-08 0)
(0.15287693 3.9123654e-08 0)
(0.152877 2.2480415e-08 0)
(0.15287704 1.260494e-08 0)
(0.15287706 6.8817015e-09 0)
(0.15287707 3.6483311e-09 0)
(0.15287708 1.8666224e-09 0)
(0.15287708 9.0633979e-10 0)
(0.15287709 3.9950304e-10 0)
(0.15287709 1.4253847e-10 0)
(0.15287709 2.0347663e-11 0)
(0.15287709 -3.647589e-11 0)
(0.15287709 -5.6275364e-11 0)
(0.15287709 -5.7244964e-11 0)
(0.15287709 -4.9164257e-11 0)
(0.15287709 -3.4434771e-11 0)
(0.15287709 -2.2388812e-11 0)
(0.15287709 -5.3836714e-12 0)
(0.15287709 8.6162591e-12 0)
(0.15287709 2.5500349e-11 0)
(0.15287709 3.503734e-11 0)
(0.15287709 4.5918305e-11 0)
(0.15287709 5.1506822e-11 0)
(0.15287709 5.8222871e-11 0)
(0.15287709 5.2224603e-11 0)
(0.15287709 4.8946269e-11 0)
(0.15287709 3.8401363e-11 0)
(0.15287709 2.9662299e-11 0)
(0.15287709 1.2836325e-11 0)
(0.15287709 -1.8653415e-12 0)
(0.15287709 -1.8371099e-11 0)
(0.15287709 -2.9951888e-11 0)
(0.15287709 -4.7284544e-11 0)
(0.15287709 -5.4312607e-11 0)
(0.15287709 -6.1993741e-11 0)
(0.15287709 -6.0944228e-11 0)
(0.15287709 -6.2281279e-11 0)
(0.15287709 -5.483984e-11 0)
(0.15287709 -4.5119353e-11 0)
(0.15287709 -2.9454685e-11 0)
(0.15287709 -1.4938469e-11 0)
(0.15287709 5.441448e-12 0)
(0.15287709 2.32661e-11 0)
(0.15287709 4.5907333e-11 0)
(0.15287709 5.8398426e-11 0)
(0.15287709 7.4763101e-11 0)
(0.15287709 8.4109927e-11 0)
(0.15287709 9.6187077e-11 0)
(0.15287709 9.615916e-11 0)
(0.15287709 9.6874475e-11 0)
(0.15287709 8.9031646e-11 0)
(0.15287709 7.991907e-11 0)
(0.15287709 6.0410246e-11 0)
(0.15287709 4.2440232e-11 0)
(0.15287709 1.7580381e-11 0)
(0.15287709 -3.1488984e-12 0)
(0.15287709 -2.9190931e-11 0)
(0.15287709 -5.1344196e-11 0)
(0.15287709 -7.4057736e-11 0)
(0.15287709 -9.2001868e-11 0)
(0.15287709 -1.1149091e-10 0)
(0.15287709 -1.2494375e-10 0)
(0.15287709 -1.356363e-10 0)
(0.15287709 -1.4170321e-10 0)
(0.15287709 -1.4717732e-10 0)
(0.15287709 -1.5059112e-10 0)
(0.15287709 -1.5068608e-10 0)
(0.15287709 -1.4718546e-10 0)
(0.15287709 -1.4260573e-10 0)
(0.15287709 -1.33777e-10 0)
(0.15287709 -1.323483e-10 0)
(0.15287709 -1.4782356e-10 0)
(0.15287709 -2.1125587e-10 0)
(0.15287709 -3.6522917e-10 0)
(0.15287709 -6.6655538e-10 0)
(0.15287709 -1.2413147e-09 0)
(0.15287708 -2.2831611e-09 0)
(0.15287708 -4.2112517e-09 0)
(0.15287707 -7.695877e-09 0)
(0.15287702 -1.3575813e-08 0)
(0.15287695 -2.2981421e-08 0)
(0.15287742 -3.8299568e-08 0)
(0.15287717 -4.2485793e-08 0)
(0.15287248 2.4452853e-08 0)
(0.15288134 9.404925e-08 0)
(0.1526398 -1.9273916e-05 0)
(0.15460646 8.2477323e-06 0)
(0.1529962 4.266422e-05 0)
(0.15287611 4.2120816e-05 0)
(0.15297105 2.6188447e-05 0)
(0.15289002 1.3012283e-05 0)
(0.15286301 5.4005929e-06 0)
(0.15287028 1.6179473e-06 0)
(0.15287222 8.9397717e-09 0)
(0.15287248 -4.6147501e-07 0)
(0.15287381 -4.9717311e-07 0)
(0.15287504 -3.9828698e-07 0)
(0.15287582 -2.8323448e-07 0)
(0.15287631 -1.8872591e-07 0)
(0.15287663 -1.2077026e-07 0)
(0.15287682 -7.5068946e-08 0)
(0.15287693 -4.590369e-08 0)
(0.152877 -2.7618638e-08 0)
(0.15287704 -1.6530278e-08 0)
(0.15287706 -9.7695965e-09 0)
(0.15287707 -5.8297036e-09 0)
(0.15287708 -3.4101962e-09 0)
(0.15287709 -2.0653646e-09 0)
(0.15287709 -1.1949271e-09 0)
(0.15287709 -7.5388143e-10 0)
(0.15287709 -4.100052e-10 0)
(0.15287709 -2.8211476e-10 0)
(0.15287709 -1.1552826e-10 0)
(0.15287709 -1.001276e-10 0)
(0.15287709 -2.140387e-12 0)
(0.15287709 -2.7571528e-11 0)
(0.15287709 4.4266756e-11 0)
(0.15287709 3.6398074e-12 0)
(0.15287709 6.6722746e-11 0)
(0.15287709 1.4462497e-11 0)
(0.15287709 6.3661744e-11 0)
(0.15287709 1.0180789e-11 0)
(0.15287709 6.0915925e-11 0)
(0.15287709 3.2962159e-12 0)
(0.15287709 5.4420522e-11 0)
(0.15287709 -1.1758625e-12 0)
(0.15287709 5.2997777e-11 0)
(0.15287709 -4.7112315e-13 0)
(0.15287709 4.751032e-11 0)
(0.15287709 -5.8079488e-12 0)
(0.15287709 4.4252539e-11 0)
(0.15287709 -1.1447534e-11 0)
(0.15287709 3.3707376e-11 0)
(0.15287709 -2.7503061e-11 0)
(0.15287709 1.8980879e-11 0)
(0.15287709 -4.347589e-11 0)
(0.15287709 -1.0746238e-12 0)
(0.15287709 -5.8460225e-11 0)
(0.15287709 -1.1864092e-11 0)
(0.15287709 -6.5752631e-11 0)
(0.15287709 -1.6776912e-11 0)
(0.15287709 -6.492378e-11 0)
(0.15287709 -6.0817721e-12 0)
(0.15287709 -5.0850048e-11 0)
(0.15287709 1.4544573e-11 0)
(0.15287709 -2.7229049e-11 0)
(0.15287709 4.5356109e-11 0)
(0.15287709 1.7037107e-12 0)
(0.15287709 6.8407277e-11 0)
(0.15287709 2.7500279e-11 0)
(0.15287709 9.3684583e-11 0)
(0.15287709 4.8095627e-11 0)
(0.15287709 1.0244402e-10 0)
(0.15287709 5.0915995e-11 0)
(0.15287709 9.9951668e-11 0)
(0.15287709 4.0457472e-11 0)
(0.15287709 7.7335559e-11 0)
(0.15287709 1.1424768e-11 0)
(0.15287709 4.8229537e-11 0)
(0.15287709 -1.9155985e-11 0)
(0.15287709 1.3778321e-11 0)
(0.15287709 -5.1929964e-11 0)
(0.15287709 -1.7271336e-11 0)
(0.15287709 -8.6855985e-11 0)
(0.15287709 -6.1922705e-11 0)
(0.15287709 -1.3282368e-10 0)
(0.15287709 -1.0688988e-10 0)
(0.15287709 -1.773192e-10 0)
(0.15287709 -1.4686952e-10 0)
(0.15287709 -1.94834e-10 0)
(0.15287709 -1.2173471e-10 0)
(0.15287709 -1.1407608e-10 0)
(0.15287709 5.478895e-11 0)
(0.15287709 1.991426e-10 0)
(0.15287709 5.8898542e-10 0)
(0.15287709 1.1650534e-09 0)
(0.15287708 2.351103e-09 0)
(0.15287708 4.3727701e-09 0)
(0.15287707 8.0799314e-09 0)
(0.15287702 1.4019344e-08 0)
(0.15287695 2.3492484e-08 0)
(0.15287742 3.868592e-08 0)
(0.15287717 4.2701978e-08 0)
(0.15287248 -2.4395456e-08 0)
(0.15288134 -9.4056003e-08 0)
(0.1518745 -6.9971464e-05 0)
(0.15384324 1.8827193e-05 0)
(0.15226917 0.00013354592 0)
(0.15216267 0.00012710216 0)
(0.15227094 7.4011776e-05 0)
(0.15220371 3.4400464e-05 0)
(0.15218551 1.298673e-05 0)
(0.15219731 2.8356929e-06 0)
(0.15220147 -1.0090972e-06 0)
(0.15220269 -1.8381616e-06 0)
(0.15220427 -1.640774e-06 0)
(0.15220548 -1.2165219e-06 0)
(0.15220617 -8.2508084e-07 0)
(0.15220658 -5.310647e-07 0)
(0.15220682 -3.3017883e-07 0)
(0.15220696 -2.004162e-07 0)
(0.15220705 -1.194864e-07 0)
(0.15220709 -7.0287232e-08 0)
(0.15220712 -4.087049e-08 0)
(0.15220713 -2.3587437e-08 0)
(0.15220714 -1.3497382e-08 0)
(0.15220715 -7.7180548e-09 0)
(0.15220715 -4.3815253e-09 0)
(0.15220715 -2.5080366e-09 0)
(0.15220715 -1.3979815e-09 0)
(0.15220715 -7.9407505e-10 0)
(0.15220715 -4.136507e-10 0)
(0.15220715 -2.2563248e-10 0)
(0.15220715 -7.587607e-11 0)
(0.15220715 -1.8449511e-11 0)
(0.15220715 4.1996477e-11 0)
(0.15220715 4.3482674e-11 0)
(0.15220715 7.1966159e-11 0)
(0.15220715 5.0980785e-11 0)
(0.15220715 5.9592943e-11 0)
(0.15220715 2.5143834e-11 0)
(0.15220715 3.2781846e-11 0)
(0.15220715 8.2498541e-13 0)
(0.15220715 1.0044946e-11 0)
(0.15220715 -1.6438527e-11 0)
(0.15220715 7.1800697e-12 0)
(0.15220715 -6.3674663e-12 0)
(0.15220715 2.0406494e-11 0)
(0.15220715 1.0932045e-11 0)
(0.15220715 4.469432e-11 0)
(0.15220715 3.6839893e-11 0)
(0.15220715 6.1496633e-11 0)
(0.15220715 4.2119099e-11 0)
(0.15220715 6.1142142e-11 0)
(0.15220715 3.4547119e-11 0)
(0.15220715 4.2205829e-11 0)
(0.15220715 6.3681594e-12 0)
(0.15220715 9.3038859e-12 0)
(0.15220715 -2.8600028e-11 0)
(0.15220715 -2.9586059e-11 0)
(0.15220715 -6.8926233e-11 0)
(0.15220715 -6.1652345e-11 0)
(0.15220715 -9.0274332e-11 0)
(0.15220715 -7.475823e-11 0)
(0.15220715 -9.3522332e-11 0)
(0.15220715 -6.1474826e-11 0)
(0.15220715 -6.7352448e-11 0)
(0.15220715 -3.3203096e-11 0)
(0.15220715 -3.2782481e-11 0)
(0.15220715 1.1248519e-11 0)
(0.15220715 1.8252179e-11 0)
(0.15220715 6.1367276e-11 0)
(0.15220715 6.2943785e-11 0)
(0.15220715 1.0495186e-10 0)
(0.15220715 1.0430366e-10 0)
(0.15220715 1.3199805e-10 0)
(0.15220715 1.1563902e-10 0)
(0.15220715 1.338944e-10 0)
(0.15220715 1.0830982e-10 0)
(0.15220715 1.1291831e-10 0)
(0.15220715 7.9446375e-11 0)
(0.15220715 8.1295867e-11 0)
(0.15220715 4.2736166e-11 0)
(0.15220715 3.343194e-11 0)
(0.15220715 -1.9674158e-11 0)
(0.15220715 -3.6118067e-11 0)
(0.15220715 -9.7990089e-11 0)
(0.15220715 -1.260405e-10 0)
(0.15220715 -1.8623365e-10 0)
(0.15220715 -1.8054761e-10 0)
(0.15220715 -1.6893424e-10 0)
(0.15220715 -3.6889549e-11 0)
(0.15220715 1.7920519e-10 0)
(0.15220715 6.6630575e-10 0)
(0.15220715 1.4922148e-09 0)
(0.15220715 3.0631297e-09 0)
(0.15220715 5.9262032e-09 0)
(0.15220715 1.137669e-08 0)
(0.15220714 2.138919e-08 0)
(0.1522071 3.8504452e-08 0)
(0.15220703 6.7857178e-08 0)
(0.15220751 1.2431028e-07 0)
(0.15220722 1.4866106e-07 0)
(0.15220256 -8.7570578e-08 0)
(0.15221142 -3.2308477e-07 0)
(0.14811666 -0.00015679543 0)
(0.15005435 -8.8323856e-06 0)
(0.14864546 0.00021152513 0)
(0.14861876 0.00019347253 0)
(0.14877269 9.7738895e-05 0)
(0.14873695 3.8252286e-05 0)
(0.14873346 1.0721544e-05 0)
(0.14875081 -9.3049009e-07 0)
(0.14875702 -4.16469e-06 0)
(0.14875858 -3.9280855e-06 0)
(0.14875978 -2.8941415e-06 0)
(0.14876051 -1.9414754e-06 0)
(0.14876082 -1.2347012e-06 0)
(0.14876095 -7.5785471e-07 0)
(0.14876102 -4.5417343e-07 0)
(0.14876104 -2.6769247e-07 0)
(0.14876106 -1.5555021e-07 0)
(0.14876106 -8.9468826e-08 0)
(0.14876106 -5.0920809e-08 0)
(0.14876106 -2.8822721e-08 0)
(0.14876107 -1.6145295e-08 0)
(0.14876106 -9.0895241e-09 0)
(0.14876106 -5.049141e-09 0)
(0.14876106 -2.857928e-09 0)
(0.14876106 -1.5430621e-09 0)
(0.14876106 -8.769834e-10 0)
(0.14876106 -4.0410462e-10 0)
(0.14876106 -2.1619833e-10 0)
(0.14876106 -1.3239764e-11 0)
(0.14876106 1.7013582e-11 0)
(0.14876106 1.1365761e-10 0)
(0.14876106 7.3849837e-11 0)
(0.14876106 1.2519143e-10 0)
(0.14876106 4.8738152e-11 0)
(0.14876106 7.399282e-11 0)
(0.14876106 -7.5138293e-12 0)
(0.14876106 2.1309729e-11 0)
(0.14876106 -5.5686282e-11 0)
(0.14876106 -1.512948e-11 0)
(0.14876106 -7.2146059e-11 0)
(0.14876106 -6.2089786e-12 0)
(0.14876106 -4.4981435e-11 0)
(0.14876106 2.8864869e-11 0)
(0.14876106 4.2251016e-12 0)
(0.14876106 8.7909348e-11 0)
(0.14876106 5.8561484e-11 0)
(0.14876106 1.2810849e-10 0)
(0.14876106 8.7949302e-11 0)
(0.14876106 1.4688612e-10 0)
(0.14876106 8.2338669e-11 0)
(0.14876106 1.1599466e-10 0)
(0.14876106 3.663692e-11 0)
(0.14876106 5.7827798e-11 0)
(0.14876106 -3.2629578e-11 0)
(0.14876106 -2.1912359e-11 0)
(0.14876106 -1.1148381e-10 0)
(0.14876106 -8.8990684e-11 0)
(0.14876106 -1.6978769e-10 0)
(0.14876106 -1.3603018e-10 0)
(0.14876106 -1.9751388e-10 0)
(0.14876106 -1.3201106e-10 0)
(0.14876106 -1.7721518e-10 0)
(0.14876106 -9.7212485e-11 0)
(0.14876106 -1.2075608e-10 0)
(0.14876106 -2.3647549e-11 0)
(0.14876106 -3.7293638e-11 0)
(0.14876106 5.9962414e-11 0)
(0.14876106 5.3280409e-11 0)
(0.14876106 1.5246289e-10 0)
(0.14876106 1.3792143e-10 0)
(0.14876106 2.1795123e-10 0)
(0.14876106 1.892941e-10 0)
(0.14876106 2.5622077e-10 0)
(0.14876106 2.0510469e-10 0)
(0.14876106 2.4807422e-10 0)
(0.14876106 1.8170654e-10 0)
(0.14876106 2.1276832e-10 0)
(0.14876106 1.3033514e-10 0)
(0.14876106 1.4278448e-10 0)
(0.14876106 4.7184334e-11 0)
(0.14876106 4.3373246e-11 0)
(0.14876106 -7.5624539e-11 0)
(0.14876106 -1.0488626e-10 0)
(0.14876106 -2.2928315e-10 0)
(0.14876106 -2.2771138e-10 0)
(0.14876106 -2.7653121e-10 0)
(0.14876106 -1.201229e-10 0)
(0.14876106 8.3584205e-11 0)
(0.14876106 6.5306513e-10 0)
(0.14876106 1.5391258e-09 0)
(0.14876106 3.3237546e-09 0)
(0.14876107 6.6160128e-09 0)
(0.14876107 1.3371846e-08 0)
(0.14876107 2.6563376e-08 0)
(0.14876104 5.0295865e-08 0)
(0.14876101 9.9005376e-08 0)
(0.1487615 2.2013997e-07 0)
(0.14876115 2.9283349e-07 0)
(0.14875669 -1.6993003e-07 0)
(0.14876533 -6.059138e-07 0)
(0.13292834 -0.00028412438 0)
(0.13451932 -0.00017388979 0)
(0.13348131 0.00014809001 0)
(0.13360649 0.00015834224 0)
(0.13381284 5.6616592e-05 0)
(0.13380992 7.6975978e-06 0)
(0.13381307 -5.8039207e-06 0)
(0.13382681 -9.3194266e-06 0)
(0.13382928 -8.1842052e-06 0)
(0.13382789 -5.6309275e-06 0)
(0.13382691 -3.5215624e-06 0)
(0.13382623 -2.1258135e-06 0)
(0.1338257 -1.2534779e-06 0)
(0.13382534 -7.2495058e-07 0)
(0.13382512 -4.1403257e-07 0)
(0.13382499 -2.3426861e-07 0)
(0.13382491 -1.3151579e-07 0)
(0.13382486 -7.3215468e-08 0)
(0.13382483 -4.0496577e-08 0)
(0.13382482 -2.2190069e-08 0)
(0.13382481 -1.2103952e-08 0)
(0.13382481 -6.4864554e-09 0)
(0.1338248 -3.4848836e-09 0)
(0.1338248 -1.8287545e-09 0)
(0.1338248 -1.0007263e-09 0)
(0.1338248 -4.8960184e-10 0)
(0.1338248 -2.4515077e-10 0)
(0.1338248 -3.8535992e-11 0)
(0.1338248 2.5888741e-11 0)
(0.1338248 1.1737148e-10 0)
(0.1338248 1.0759858e-10 0)
(0.1338248 1.4344807e-10 0)
(0.1338248 8.8743036e-11 0)
(0.1338248 8.8418511e-11 0)
(0.1338248 1.3771569e-11 0)
(0.1338248 1.0931462e-11 0)
(0.1338248 -6.0299792e-11 0)
(0.1338248 -5.4097659e-11 0)
(0.1338248 -1.0444359e-10 0)
(0.1338248 -6.7485261e-11 0)
(0.1338248 -9.08759e-11 0)
(0.1338248 -3.2446615e-11 0)
(0.1338248 -3.1775691e-11 0)
(0.1338248 4.5630236e-11 0)
(0.1338248 5.3769054e-11 0)
(0.1338248 1.2311973e-10 0)
(0.1338248 1.1978164e-10 0)
(0.1338248 1.7505971e-10 0)
(0.1338248 1.4813322e-10 0)
(0.1338248 1.7532626e-10 0)
(0.1338248 1.1693307e-10 0)
(0.1338248 1.2065731e-10 0)
(0.1338248 4.3886539e-11 0)
(0.1338248 2.6080996e-11 0)
(0.1338248 -6.1507886e-11 0)
(0.1338248 -7.6257265e-11 0)
(0.1338248 -1.5572389e-10 0)
(0.1338248 -1.6136823e-10 0)
(0.1338248 -2.2494572e-10 0)
(0.1338248 -2.0280356e-10 0)
(0.1338248 -2.4319488e-10 0)
(0.1338248 -1.9539026e-10 0)
(0.1338248 -2.0473584e-10 0)
(0.1338248 -1.2860908e-10 0)
(0.1338248 -1.1621435e-10 0)
(0.1338248 -2.9933345e-11 0)
(0.1338248 -6.4862889e-12 0)
(0.1338248 9.0934255e-11 0)
(0.1338248 1.1442497e-10 0)
(0.1338248 1.9407552e-10 0)
(0.1338248 2.0514679e-10 0)
(0.1338248 2.7779237e-10 0)
(0.1338248 2.7189855e-10 0)
(0.1338248 3.1854814e-10 0)
(0.1338248 2.8457538e-10 0)
(0.1338248 3.0593468e-10 0)
(0.1338248 2.4886314e-10 0)
(0.1338248 2.4529133e-10 0)
(0.1338248 1.6698419e-10 0)
(0.1338248 1.492749e-10 0)
(0.1338248 5.1342247e-11 0)
(0.1338248 6.1879384e-12 0)
(0.1338248 -1.1541045e-10 0)
(0.1338248 -1.7349996e-10 0)
(0.1338248 -2.955548e-10 0)
(0.1338248 -3.118094e-10 0)
(0.1338248 -3.2720228e-10 0)
(0.1338248 -1.5734427e-10 0)
(0.1338248 7.5764633e-11 0)
(0.1338248 6.4216478e-10 0)
(0.1338248 1.6497573e-09 0)
(0.13382481 3.837712e-09 0)
(0.13382481 8.6060773e-09 0)
(0.13382482 1.8922736e-08 0)
(0.13382481 3.8423813e-08 0)
(0.13382484 9.2520309e-08 0)
(0.13382535 2.534341e-07 0)
(0.13382501 3.5522158e-07 0)
(0.1338214 -1.78502e-07 0)
(0.1338287 -6.6308781e-07 0)
(0.079752419 -0.00017745003 0)
(0.080017569 -0.00014572026 0)
(0.079424638 3.0237227e-05 0)
(0.07951695 4.5550065e-05 0)
(0.079610717 2.6904984e-06 0)
(0.079591735 -1.0735086e-05 0)
(0.079577235 -9.327403e-06 0)
(0.079570214 -7.2070285e-06 0)
(0.07956199 -4.9663813e-06 0)
(0.079555713 -2.9987151e-06 0)
(0.079552136 -1.7148892e-06 0)
(0.079550132 -9.6973347e-07 0)
(0.079548975 -5.4290402e-07 0)
(0.079548319 -3.0047163e-07 0)
(0.079547955 -1.6520109e-07 0)
(0.079547754 -9.0374321e-08 0)
(0.079547644 -4.9242854e-08 0)
(0.079547583 -2.6603923e-08 0)
(0.079547551 -1.4311724e-08 0)
(0.079547533 -7.5854248e-09 0)
(0.079547524 -4.0064041e-09 0)
(0.079547519 -1.9994729e-09 0)
(0.079547516 -1.0079593e-09 0)
(0.079547514 -4.6551487e-10 0)
(0.079547513 -2.5897195e-10 0)
(0.079547513 -9.5536882e-11 0)
(0.079547513 -6.3395552e-11 0)
(0.079547513 1.9046979e-11 0)
(0.079547513 1.3676258e-11 0)
(0.079547513 6.8744539e-11 0)
(0.079547513 4.0358992e-11 0)
(0.079547513 7.3990108e-11 0)
(0.079547513 2.4920352e-11 0)
(0.079547513 4.4321901e-11 0)
(0.079547513 -9.6005431e-12 0)
(0.079547513 8.4494049e-12 0)
(0.079547513 -4.7936841e-11 0)
(0.079547513 -2.5543106e-11 0)
(0.079547513 -6.9102278e-11 0)
(0.079547512 -3.306905e-11 0)
(0.079547512 -6.5960071e-11 0)
(0.079547512 -1.8164423e-11 0)
(0.079547512 -3.4732566e-11 0)
(0.079547512 2.4041685e-11 0)
(0.079547512 9.605076e-12 0)
(0.079547512 6.6237697e-11 0)
(0.079547513 4.897312e-11 0)
(0.079547513 9.5303471e-11 0)
(0.079547513 6.3422473e-11 0)
(0.079547513 9.8896358e-11 0)
(0.079547513 5.4433638e-11 0)
(0.079547513 7.6920552e-11 0)
(0.079547513 2.007445e-11 0)
(0.079547513 3.078041e-11 0)
(0.079547513 -3.0654385e-11 0)
(0.079547513 -2.0145648e-11 0)
(0.079547513 -8.1779682e-11 0)
(0.079547513 -6.6483468e-11 0)
(0.079547513 -1.1713004e-10 0)
(0.079547513 -8.9571802e-11 0)
(0.079547512 -1.3512583e-10 0)
(0.079547512 -9.256751e-11 0)
(0.079547512 -1.1800949e-10 0)
(0.079547512 -6.1579737e-11 0)
(0.079547512 -7.939882e-11 0)
(0.079547512 -1.7244326e-11 0)
(0.079547512 -2.3539136e-11 0)
(0.079547512 4.3749429e-11 0)
(0.079547512 3.5730865e-11 0)
(0.079547512 9.4706477e-11 0)
(0.079547512 8.4108737e-11 0)
(0.079547512 1.4196787e-10 0)
(0.079547513 1.2213353e-10 0)
(0.079547513 1.6827028e-10 0)
(0.079547513 1.3632418e-10 0)
(0.079547513 1.6709838e-10 0)
(0.079547514 1.1999825e-10 0)
(0.079547514 1.3710223e-10 0)
(0.079547514 8.2020844e-11 0)
(0.079547514 9.3507824e-11 0)
(0.079547514 2.7914598e-11 0)
(0.079547514 2.6918417e-11 0)
(0.079547514 -4.7398242e-11 0)
(0.079547514 -5.5860023e-11 0)
(0.079547514 -1.4406628e-10 0)
(0.079547514 -1.4650652e-10 0)
(0.079547513 -2.0241054e-10 0)
(0.079547513 -1.5605551e-10 0)
(0.079547513 -1.5504423e-10 0)