/*--------------------------------*- C++ -*----------------------------------*\
| =========                 |                                                 |
| \\      /  F ield         | OpenFOAM: The Open Source CFD Toolbox           |
|  \\    /   O peration     | Version:  v1812                                 |
|   \\  /    A nd           | Web:      www.OpenFOAM.com                      |
|    \\/     M anipulation  |                                                 |
\*---------------------------------------------------------------------------*/
FoamFile
{
    version     2.0;
    format      ascii;
    class       volVectorField;
    location    "20";
    object      U;
}
// * * * * * * * * * * * * * * * * * * * * * * * * * * * * * * * * * * * * * //

dimensions      [0 1 -1 0 0 0 0];


internalField   nonuniform List<vector> 
1000
(
(0.91890839 0.035821913 0)
(0.86271384 0.062195638 0)
(0.7870597 0.06251009 0)
(0.69536033 0.054550395 0)
(0.61089745 0.044531651 0)
(0.54411592 0.034015971 0)
(0.49343012 0.024187539 0)
(0.45479414 0.01614423 0)
(0.42544583 0.010265786 0)
(0.40347313 0.0063041459 0)
(0.38715767 0.0037976301 0)
(0.3749622 0.0023103385 0)
(0.36566192 0.0014930146 0)
(0.35836272 0.0010851174 0)
(0.35244268 0.00090607131 0)
(0.34748201 0.00084105092 0)
(0.34320348 0.00082372381 0)
(0.33942726 0.00081931061 0)
(0.33603793 0.00081185254 0)
(0.33296114 0.00079580182 0)
(0.33014778 0.00077081189 0)
(0.32756384 0.00073870965 0)
(0.3251842 0.00070188926 0)
(0.32298902 0.00066256546 0)
(0.32096172 0.00062249923 0)
(0.31908785 0.00058295697 0)
(0.31735449 0.00054477107 0)
(0.31574996 0.00050843381 0)
(0.31426361 0.00047419161 0)
(0.31288575 0.00044212501 0)
(0.31160756 0.00041221012 0)
(0.31042102 0.00038436222 0)
(0.30931883 0.0003584652 0)
(0.30829438 0.00033439003 0)
(0.30734165 0.00031200596 0)
(0.30645516 0.00029118672 0)
(0.30562992 0.0002718136 0)
(0.30486137 0.0002537766 0)
(0.30414536 0.00023697471 0)
(0.30347808 0.00022131552 0)
(0.30285602 0.00020671485 0)
(0.30227597 0.00019309594 0)
(0.30173497 0.00018038866 0)
(0.3012303 0.00016852865 0)
(0.30075943 0.00015745667 0)
(0.30032002 0.00014711823 0)
(0.29990994 0.00013746318 0)
(0.29952716 0.00012844528 0)
(0.29916984 0.00012002171 0)
(0.29883625 0.00011215255 0)
(0.29852479 0.00010480054 0)
(0.29823398 9.793085e-05 0)
(0.29796242 9.1511116e-05 0)
(0.29770883 8.55115e-05 0)
(0.29747201 7.990455e-05 0)
(0.29725085 7.4664838e-05 0)
(0.2970443 6.9768559e-05 0)
(0.29685139 6.5193233e-05 0)
(0.29667121 6.0917735e-05 0)
(0.29650292 5.6922254e-05 0)
(0.29634573 5.3188355e-05 0)
(0.29619891 4.9698777e-05 0)
(0.29606177 4.643745e-05 0)
(0.29593367 4.3389304e-05 0)
(0.29581401 4.0540311e-05 0)
(0.29570225 3.7877518e-05 0)
(0.29559785 3.5389056e-05 0)
(0.29550033 3.3063946e-05 0)
(0.29540923 3.0892025e-05 0)
(0.29532414 2.8863253e-05 0)
(0.29524466 2.6968098e-05 0)
(0.29517041 2.5197001e-05 0)
(0.29510105 2.3541235e-05 0)
(0.29503625 2.1992902e-05 0)
(0.29497573 2.0545562e-05 0)
(0.2949192 1.9193088e-05 0)
(0.29486639 1.7930298e-05 0)
(0.29481706 1.6751099e-05 0)
(0.29477098 1.5650654e-05 0)
(0.29472794 1.4621652e-05 0)
(0.29468773 1.3660003e-05 0)
(0.29465016 1.275983e-05 0)
(0.29461508 1.1922544e-05 0)
(0.29458231 1.1140395e-05 0)
(0.29455169 1.0409015e-05 0)
(0.29452309 9.7149173e-06 0)
(0.29449636 9.0690924e-06 0)
(0.29447142 8.4676402e-06 0)
(0.29444812 7.925973e-06 0)
(0.29442637 7.4129209e-06 0)
(0.294406 6.9355496e-06 0)
(0.29438698 6.4617107e-06 0)
(0.29436921 6.0361655e-06 0)
(0.29435262 5.6344627e-06 0)
(0.29433717 5.2935322e-06 0)
(0.29432251 4.9831061e-06 0)
(0.2943092 4.6986795e-06 0)
(0.2942957 4.5439935e-06 0)
(0.29428502 4.4079547e-06 0)
(0.29426874 5.057323e-06 0)
(1.0016583 0.05381943 0)
(1.0359761 0.10128444 0)
(1.0597199 0.11073663 0)
(1.0628947 0.10592202 0)
(1.0515569 0.096228728 0)
(1.0340529 0.08393406 0)
(1.0142795 0.070327062 0)
(0.99360703 0.056981333 0)
(0.97292577 0.04510748 0)
(0.9531074 0.035236751 0)
(0.93479539 0.027401651 0)
(0.91829012 0.021387228 0)
(0.90362379 0.016884499 0)
(0.89068067 0.013569708 0)
(0.87928175 0.011147747 0)
(0.86923242 0.0093736573 0)
(0.86034424 0.0080569272 0)
(0.85244667 0.0070571273 0)
(0.84539242 0.0062752388 0)
(0.83905793 0.0056438292 0)
(0.83334127 0.0051180915 0)
(0.82815884 0.0046686724 0)
(0.82344213 0.004276417 0)
(0.81913467 0.0039287382 0)
(0.81518962 0.0036172028 0)
(0.81156765 0.0033359695 0)
(0.80823544 0.003080803 0)
(0.80516441 0.0028484681 0)
(0.8023298 0.0026363689 0)
(0.79971 0.0024423387 0)
(0.79728598 0.0022645195 0)
(0.79504087 0.0021012907 0)
(0.79295964 0.0019512258 0)
(0.79102881 0.0018130629 0)
(0.78923628 0.0016856829 0)
(0.78757111 0.0015680915 0)
(0.78602339 0.0014594049 0)
(0.78458413 0.0013588354 0)
(0.78324512 0.0012656806 0)
(0.7819989 0.0011793123 0)
(0.78083862 0.0010991676 0)
(0.779758 0.0010247414 0)
(0.77875129 0.00095557853 0)
(0.77781319 0.00089126786 0)
(0.77693882 0.00083143662 0)
(0.77612369 0.0007757462 0)
(0.77536364 0.00072388835 0)
(0.77465482 0.00067558172 0)
(0.77399369 0.00063056879 0)
(0.77337695 0.0005886129 0)
(0.77280155 0.00054949617 0)
(0.77226466 0.00051301759 0)
(0.77176365 0.00047899171 0)
(0.77129608 0.00044724763 0)
(0.77085968 0.00041762784 0)
(0.77045235 0.00038998694 0)
(0.77007213 0.00036419022 0)
(0.76971719 0.0003401124 0)
(0.76938582 0.0003176369 0)
(0.76907646 0.0002966552 0)
(0.76878762 0.00027706644 0)
(0.76851793 0.00025877669 0)
(0.76826611 0.00024169853 0)
(0.76803098 0.00022575039 0)
(0.76781141 0.00021085657 0)
(0.76760637 0.0001969467 0)
(0.7674149 0.00018395587 0)
(0.7672361 0.00017182362 0)
(0.76706911 0.00016049409 0)
(0.76691317 0.00014991411 0)
(0.76676753 0.000140034 0)
(0.76663152 0.00013080578 0)
(0.76650448 0.00012218552 0)
(0.76638584 0.00011413148 0)
(0.76627503 0.0001066078 0)
(0.76617154 9.957893e-05 0)
(0.76607487 9.3015429e-05 0)
(0.7659846 8.6884043e-05 0)
(0.76590027 8.1160071e-05 0)
(0.76582152 7.581131e-05 0)
(0.76574795 7.0819432e-05 0)
(0.76567926 6.6150764e-05 0)
(0.76561506 6.1797656e-05 0)
(0.76555514 5.7724279e-05 0)
(0.76549912 5.3928796e-05 0)
(0.76544686 5.0356788e-05 0)
(0.76539797 4.7035288e-05 0)
(0.76535241 4.3913519e-05 0)
(0.76530973 4.1056783e-05 0)
(0.76526999 3.8350028e-05 0)
(0.76523273 3.5869591e-05 0)
(0.76519806 3.3449339e-05 0)
(0.7651656 3.1288398e-05 0)
(0.76513521 2.9163993e-05 0)
(0.76510716 2.7370099e-05 0)
(0.76508 2.5532044e-05 0)
(0.76505666 2.4082638e-05 0)
(0.76503059 2.256672e-05 0)
(0.76501448 2.1607837e-05 0)
(0.76498348 2.0997928e-05 0)
(1.0014244 0.026824854 0)
(1.0291272 0.062791352 0)
(1.0654292 0.077736552 0)
(1.098962 0.080597199 0)
(1.1253149 0.07828517 0)
(1.145053 0.073153899 0)
(1.1594858 0.066111278 0)
(1.1694287 0.058162064 0)
(1.1755354 0.050296755 0)
(1.1785738 0.043150709 0)
(1.1793571 0.036972826 0)
(1.1785949 0.031771632 0)
(1.1768304 0.027451839 0)
(1.1744518 0.023886766 0)
(1.1717287 0.020947618 0)
(1.1688444 0.018515779 0)
(1.1659195 0.016488084 0)
(1.1630317 0.014779502 0)
(1.1602295 0.013322985 0)
(1.1575415 0.012067133 0)
(1.1549828 0.010973001 0)
(1.1525601 0.010011061 0)
(1.1502747 0.0091587466 0)
(1.1481246 0.0083986038 0)
(1.1461059 0.0077169499 0)
(1.1442134 0.0071028873 0)
(1.1424414 0.0065475909 0)
(1.1407838 0.0060437948 0)
(1.1392344 0.0055854262 0)
(1.1377869 0.0051673453 0)
(1.1364353 0.0047851578 0)
(1.1351738 0.0044350768 0)
(1.1339968 0.0041138168 0)
(1.1328987 0.0038185123 0)
(1.1318746 0.0035466521 0)
(1.1309195 0.0032960263 0)
(1.1300289 0.0030646827 0)
(1.1291985 0.0028508906 0)
(1.1284242 0.0026531105 0)
(1.1277023 0.0024699687 0)
(1.1270291 0.0023002355 0)
(1.1264014 0.0021428067 0)
(1.1258161 0.0019966879 0)
(1.1252703 0.0018609806 0)
(1.1247612 0.0017348711 0)
(1.1242865 0.0016176207 0)
(1.1238437 0.0015085573 0)
(1.1234308 0.0014070679 0)
(1.1230455 0.0013125917 0)
(1.1226862 0.0012246146 0)
(1.1223509 0.0011426647 0)
(1.1220381 0.0010663077 0)
(1.1217463 0.00099514428 0)
(1.1214739 0.00092880676 0)
(1.1212198 0.00086695611 0)
(1.1209827 0.00080927905 0)
(1.1207614 0.00075548566 0)
(1.1205548 0.00070530731 0)
(1.1203621 0.0006584951 0)
(1.1201821 0.00061481811 0)
(1.1200142 0.00057406209 0)
(1.1198574 0.00053602782 0)
(1.1197111 0.00050053017 0)
(1.1195745 0.00046739677 0)
(1.1194469 0.00043646781 0)
(1.1193279 0.0004075947 0)
(1.1192167 0.00038064012 0)
(1.1191129 0.00035547591 0)
(1.119016 0.00033198318 0)
(1.1189255 0.00031004947 0)
(1.118841 0.0002895706 0)
(1.1187621 0.00027044706 0)
(1.1186885 0.00025258905 0)
(1.1186197 0.00023591054 0)
(1.1185554 0.00022033669 0)
(1.1184955 0.00020579158 0)
(1.1184394 0.00019221177 0)
(1.1183871 0.00017952596 0)
(1.1183383 0.00016768254 0)
(1.1182927 0.00015661453 0)
(1.11825 0.0001462889 0)
(1.1182103 0.00013663777 0)
(1.1181731 0.00012764238 0)
(1.1181384 0.00011921248 0)
(1.1181059 0.00011135631 0)
(1.1180758 0.0001039737 0)
(1.1180474 9.7142742e-05 0)
(1.1180211 9.0708442e-05 0)
(1.1179962 8.4805782e-05 0)
(1.1179734 7.9147872e-05 0)
(1.1179517 7.4024819e-05 0)
(1.1179319 6.8988952e-05 0)
(1.1179128 6.4633037e-05 0)
(1.1178955 6.013773e-05 0)
(1.117879 5.6576608e-05 0)
(1.1178636 5.2437578e-05 0)
(1.1178501 4.9748511e-05 0)
(1.1178349 4.5809937e-05 0)
(1.1178261 4.4325156e-05 0)
(1.1178083 4.058186e-05 0)
(1.0007347 0.011814721 0)
(1.0178472 0.030860926 0)
(1.0462163 0.041434441 0)
(1.0799018 0.045193569 0)
(1.1132664 0.045502351 0)
(1.143782 0.044080308 0)
(1.1708941 0.041439983 0)
(1.1945687 0.037973679 0)
(1.2148582 0.03419573 0)
(1.2319652 0.030536887 0)
(1.2462683 0.027222045 0)
(1.2582339 0.024313919 0)
(1.2683135 0.021797887 0)
(1.2768875 0.019633658 0)
(1.2842554 0.017773825 0)
(1.2906479 0.016169651 0)
(1.296243 0.01477559 0)
(1.3011791 0.013552297 0)
(1.3055645 0.012467863 0)
(1.3094838 0.011497465 0)
(1.3130042 0.010622161 0)
(1.3161792 0.0098275127 0)
(1.3190526 0.0091024105 0)
(1.3216607 0.0084381761 0)
(1.3240343 0.007827903 0)
(1.3261995 0.0072659736 0)
(1.3281786 0.0067477082 0)
(1.3299913 0.0062691169 0)
(1.3316544 0.0058267283 0)
(1.3331829 0.0054174743 0)
(1.3345896 0.0050386129 0)
(1.3358862 0.0046876736 0)
(1.3370827 0.0043624186 0)
(1.3381883 0.0040608133 0)
(1.3392108 0.0037810031 0)
(1.3401576 0.0035212944 0)
(1.3410349 0.0032801386 0)
(1.3418486 0.0030561181 0)
(1.3426038 0.0028479345 0)
(1.3433052 0.0026543977 0)
(1.3439569 0.0024744158 0)
(1.3445629 0.0023069859 0)
(1.3451267 0.0021511857 0)
(1.3456513 0.0020061667 0)
(1.3461398 0.0018711476 0)
(1.3465947 0.0017454088 0)
(1.3470185 0.0016282868 0)
(1.3474135 0.0015191687 0)
(1.3477816 0.0014174879 0)
(1.3481249 0.0013227202 0)
(1.3484449 0.0012343804 0)
(1.3487435 0.0011520195 0)
(1.349022 0.0010752221 0)
(1.3492818 0.0010036035 0)
(1.3495242 0.00093680692 0)
(1.3497505 0.00087450087 0)
(1.3499617 0.00081637731 0)
(1.3501588 0.00076215008 0)
(1.3503427 0.00071155362 0)
(1.3505145 0.00066434101 0)
(1.3506748 0.00062028263 0)
(1.3508245 0.00057916458 0)
(1.3509643 0.0005407879 0)
(1.3510949 0.00050496721 0)
(1.3512167 0.00047153051 0)
(1.3513306 0.00044031765 0)
(1.3514368 0.00041118046 0)
(1.3515361 0.0003839801 0)
(1.3516288 0.00035858746 0)
(1.3517154 0.00033488022 0)
(1.3517962 0.0003127455 0)
(1.3518717 0.00029207596 0)
(1.3519422 0.00027277572 0)
(1.3520081 0.00025475231 0)
(1.3520696 0.0002379255 0)
(1.3521271 0.00022221168 0)
(1.3521808 0.00020754202 0)
(1.3522309 0.00019383694 0)
(1.3522777 0.00018104225 0)
(1.3523215 0.00016908326 0)
(1.3523623 0.0001579318 0)
(1.3524005 0.00014751003 0)
(1.352436 0.00013780007 0)
(1.3524695 0.0001286833 0)
(1.3525004 0.00012019241 0)
(1.3525297 0.00011221392 0)
(1.3525566 0.0001048726 0)
(1.3525822 9.7925933e-05 0)
(1.3526053 9.1565343e-05 0)
(1.3526281 8.539236e-05 0)
(1.352648 7.9893304e-05 0)
(1.3526685 7.4405541e-05 0)
(1.352685 6.9808927e-05 0)
(1.3527036 6.4843263e-05 0)
(1.3527169 6.113175e-05 0)
(1.3527349 5.6446731e-05 0)
(1.3527448 5.3741117e-05 0)
(1.352763 4.9138143e-05 0)
(1.3527683 4.7704375e-05 0)
(1.3527888 4.2964614e-05 0)
(1.0005903 0.0034629159 0)
(1.0136865 0.0093660198 0)
(1.0370283 0.013046806 0)
(1.0674202 0.014563262 0)
(1.1000315 0.014854526 0)
(1.1316428 0.014564993 0)
(1.1610745 0.01388834 0)
(1.1880674 0.012919247 0)
(1.2125205 0.011806507 0)
(1.2343939 0.010696427 0)
(1.2538077 0.009672741 0)
(1.2710339 0.0087628203 0)
(1.286401 0.0079659717 0)
(1.3002112 0.0072722131 0)
(1.3127102 0.0066688076 0)
(1.3240903 0.0061419249 0)
(1.3345036 0.005678072 0)
(1.3440716 0.0052653206 0)
(1.3528927 0.0048939345 0)
(1.3610463 0.004556395 0)
(1.3685975 0.0042470689 0)
(1.3756004 0.0039617751 0)
(1.3821012 0.0036973968 0)
(1.3881402 0.0034515816 0)
(1.3937533 0.0032225177 0)
(1.3989728 0.0030087693 0)
(1.403828 0.002809158 0)
(1.4083456 0.0026226798 0)
(1.4125503 0.0024484505 0)
(1.4164646 0.0022856712 0)
(1.4201095 0.0021336073 0)
(1.423504 0.0019915752 0)
(1.4266661 0.0018589349 0)
(1.4296121 0.0017350846 0)
(1.4323573 0.0016194579 0)
(1.4349159 0.0015115215 0)
(1.4373007 0.0014107737 0)
(1.4395241 0.0013167429 0)
(1.441597 0.0012289868 0)
(1.4435301 0.0011470907 0)
(1.4453329 0.0010706664 0)
(1.4470143 0.00099934975 0)
(1.4485827 0.0009328002 0)
(1.4500459 0.00087069934 0)
(1.451411 0.00081274987 0)
(1.4526847 0.00075867431 0)
(1.4538731 0.00070821336 0)
(1.4549822 0.00066112466 0)
(1.4560172 0.00061718166 0)
(1.4569831 0.00057617284 0)
(1.4578847 0.00053790092 0)
(1.4587262 0.00050218238 0)
(1.4595117 0.00046884631 0)
(1.460245 0.00043773352 0)
(1.4609295 0.00040869516 0)
(1.4615685 0.00038159195 0)
(1.4621651 0.00035629383 0)
(1.4627222 0.00033267976 0)
(1.4632422 0.00031063694 0)
(1.4637278 0.00029006026 0)
(1.4641812 0.0002708516 0)
(1.4646045 0.00025291928 0)
(1.4649998 0.00023617789 0)
(1.4653689 0.00022054781 0)
(1.4657136 0.00020595522 0)
(1.4660355 0.00019233131 0)
(1.4663361 0.00017961216 0)
(1.4666168 0.00016773733 0)
(1.466879 0.00015665042 0)
(1.4671238 0.0001462976 0)
(1.4673524 0.00013662966 0)
(1.467566 0.00012760028 0)
(1.4677654 0.00011916875 0)
(1.4679516 0.0001112954 0)
(1.4681256 0.00010394579 0)
(1.4682881 9.7082358e-05 0)
(1.4684398 9.0674549e-05 0)
(1.4685815 8.4686521e-05 0)
(1.4687138 7.9095537e-05 0)
(1.4688375 7.3870048e-05 0)
(1.4689529 6.9001239e-05 0)
(1.4690608 6.4451092e-05 0)
(1.4691614 6.0207189e-05 0)
(1.4692557 5.6212344e-05 0)
(1.4693432 5.2497964e-05 0)
(1.4694257 4.9016217e-05 0)
(1.469502 4.5829479e-05 0)
(1.4695743 4.2796834e-05 0)
(1.4696401 4.0014153e-05 0)
(1.4697037 3.7289828e-05 0)
(1.4697606 3.4894026e-05 0)
(1.4698174 3.2487709e-05 0)
(1.4698655 3.0513317e-05 0)
(1.4699165 2.8322403e-05 0)
(1.4699558 2.6729006e-05 0)
(1.4700044 2.463615e-05 0)
(1.4700343 2.3485606e-05 0)
(1.4700834 2.1417461e-05 0)
(1.4701 2.0813838e-05 0)
(1.4701555 1.8657543e-05 0)
(1.0005903 -0.0034629156 0)
(1.0136865 -0.0093660189 0)
(1.0370283 -0.013046804 0)
(1.0674202 -0.014563259 0)
(1.1000315 -0.014854522 0)
(1.1316428 -0.014564988 0)
(1.1610745 -0.013888336 0)
(1.1880674 -0.012919244 0)
(1.2125205 -0.011806506 0)
(1.2343939 -0.010696428 0)
(1.2538077 -0.0096727435 0)
(1.2710339 -0.0087628238 0)
(1.286401 -0.0079659752 0)
(1.3002112 -0.0072722156 0)
(1.3127102 -0.0066688091 0)
(1.3240903 -0.0061419255 0)
(1.3345036 -0.0056780725 0)
(1.3440716 -0.0052653215 0)
(1.3528927 -0.0048939357 0)
(1.3610463 -0.0045563965 0)
(1.3685975 -0.0042470705 0)
(1.3756004 -0.0039617768 0)
(1.3821012 -0.0036973987 0)
(1.3881402 -0.0034515836 0)
(1.3937533 -0.0032225191 0)
(1.3989728 -0.0030087697 0)
(1.403828 -0.0028091571 0)
(1.4083456 -0.0026226781 0)
(1.4125503 -0.0024484489 0)
(1.4164646 -0.0022856706 0)
(1.4201095 -0.0021336079 0)
(1.423504 -0.001991577 0)
(1.4266661 -0.0018589372 0)
(1.4296121 -0.0017350865 0)
(1.4323573 -0.0016194589 0)
(1.4349159 -0.0015115214 0)
(1.4373007 -0.0014107728 0)
(1.4395241 -0.0013167418 0)
(1.441597 -0.001228986 0)
(1.4435301 -0.0011470903 0)
(1.4453329 -0.0010706661 0)
(1.4470143 -0.00099934986 0)
(1.4485827 -0.00093280094 0)
(1.4500459 -0.00087070087 0)
(1.451411 -0.00081275185 0)
(1.4526847 -0.0007586759 0)
(1.4538731 -0.00070821375 0)
(1.4549822 -0.00066112352 0)
(1.4560172 -0.00061717948 0)
(1.4569831 -0.00057617073 0)
(1.4578847 -0.00053790011 0)
(1.4587262 -0.00050218334 0)
(1.4595117 -0.00046884869 0)
(1.460245 -0.00043773624 0)
(1.4609295 -0.00040869724 0)
(1.4615685 -0.00038159293 0)
(1.4621651 -0.00035629382 0)
(1.4627222 -0.00033267891 0)
(1.4632422 -0.00031063554 0)
(1.4637278 -0.00029005859 0)
(1.4641812 -0.00027085008 0)
(1.4646045 -0.00025291852 0)
(1.4649998 -0.00023617849 0)
(1.4653689 -0.00022054998 0)
(1.4657136 -0.00020595837 0)
(1.4660355 -0.00019233412 0)
(1.4663361 -0.0001796131 0)
(1.4666168 -0.0001677356 0)
(1.466879 -0.00015664645 0)
(1.4671238 -0.00014629325 0)
(1.4673524 -0.00013662723 0)
(1.467566 -0.00012760101 0)
(1.4677654 -0.00011917193 0)
(1.4679516 -0.00011129879 0)
(1.4681256 -0.00010394706 0)
(1.4682881 -9.7081062e-05 0)
(1.4684398 -9.0672378e-05 0)
(1.4685815 -8.4685799e-05 0)
(1.4687138 -7.9097145e-05 0)
(1.4688375 -7.3870004e-05 0)
(1.4689529 -6.8994294e-05 0)
(1.4690608 -6.4438961e-05 0)
(1.4691614 -6.0205154e-05 0)
(1.4692557 -5.6231891e-05 0)
(1.4693433 -5.252644e-05 0)
(1.4694257 -4.902444e-05 0)
(1.469502 -4.5804646e-05 0)
(1.4695742 -4.2762378e-05 0)
(1.4696401 -4.0006225e-05 0)
(1.4697037 -3.7315999e-05 0)
(1.4697607 -3.4928617e-05 0)
(1.4698174 -3.2502183e-05 0)
(1.4698654 -3.0500698e-05 0)
(1.4699165 -2.8298778e-05 0)
(1.4699558 -2.6712143e-05 0)
(1.4700045 -2.4633574e-05 0)
(1.4700344 -2.3492304e-05 0)
(1.4700833 -2.1425783e-05 0)
(1.4700999 -2.08168e-05 0)
(1.4701555 -1.8657415e-05 0)
(1.0007347 -0.011814721 0)
(1.0178472 -0.030860925 0)
(1.0462163 -0.041434439 0)
(1.0799018 -0.045193567 0)
(1.1132664 -0.045502348 0)
(1.143782 -0.044080306 0)
(1.1708941 -0.041439981 0)
(1.1945687 -0.037973678 0)
(1.2148582 -0.03419573 0)
(1.2319652 -0.030536888 0)
(1.2462683 -0.027222046 0)
(1.2582339 -0.024313921 0)
(1.2683135 -0.021797889 0)
(1.2768875 -0.01963366 0)
(1.2842554 -0.017773826 0)
(1.2906479 -0.016169652 0)
(1.296243 -0.01477559 0)
(1.3011791 -0.013552298 0)
(1.3055645 -0.012467864 0)
(1.3094838 -0.011497466 0)
(1.3130042 -0.010622162 0)
(1.3161792 -0.0098275138 0)
(1.3190526 -0.0091024117 0)
(1.3216607 -0.0084381771 0)
(1.3240343 -0.0078279036 0)
(1.3261995 -0.0072659736 0)
(1.3281786 -0.0067477078 0)
(1.3299913 -0.0062691162 0)
(1.3316544 -0.0058267276 0)
(1.3331829 -0.005417474 0)
(1.3345896 -0.0050386131 0)
(1.3358862 -0.0046876742 0)
(1.3370827 -0.0043624195 0)
(1.3381883 -0.0040608141 0)
(1.3392108 -0.0037810036 0)
(1.3401576 -0.0035212946 0)
(1.3410349 -0.0032801384 0)
(1.3418486 -0.0030561177 0)
(1.3426038 -0.002847934 0)
(1.3433052 -0.0026543973 0)
(1.3439569 -0.0024744157 0)
(1.3445629 -0.0023069861 0)
(1.3451267 -0.0021511864 0)
(1.3456513 -0.0020061677 0)
(1.3461398 -0.0018711486 0)
(1.3465947 -0.0017454096 0)
(1.3470185 -0.0016282871 0)
(1.3474135 -0.0015191684 0)
(1.3477816 -0.0014174873 0)
(1.3481249 -0.0013227197 0)
(1.348445 -0.0012343803 0)
(1.3487435 -0.00115202 0)
(1.349022 -0.0010752229 0)
(1.3492818 -0.0010036045 0)
(1.3495242 -0.00093680782 0)
(1.3497505 -0.00087450147 0)
(1.3499617 -0.00081637744 0)
(1.3501588 -0.00076214978 0)
(1.3503427 -0.00071155293 0)
(1.3505145 -0.00066434011 0)
(1.3506748 -0.00062028183 0)
(1.3508245 -0.00057916423 0)
(1.3509643 -0.00054078822 0)
(1.3510949 -0.00050496814 0)
(1.3512167 -0.00047153167 0)
(1.3513305 -0.00044031855 0)
(1.3514368 -0.00041118066 0)
(1.3515361 -0.00038397942 0)
(1.3516288 -0.00035858627 0)
(1.3517154 -0.00033487908 0)
(1.3517962 -0.00031274494 0)
(1.3518717 -0.00029207611 0)
(1.3519422 -0.00027277619 0)
(1.3520081 -0.00025475247 0)
(1.3520696 -0.00023792524 0)
(1.3521271 -0.00022221128 0)
(1.3521808 -0.00020754198 0)
(1.3522309 -0.00019383723 0)
(1.3522777 -0.00018104161 0)
(1.3523215 -0.0001690808 0)
(1.3523623 -0.00015792868 0)
(1.3524005 -0.00014751006 0)
(1.3524361 -0.00013780493 0)
(1.3524695 -0.00012869108 0)
(1.3525004 -0.00012019767 0)
(1.3525297 -0.00011221166 0)
(1.3525566 -0.00010486532 0)
(1.3525823 -9.7921995e-05 0)
(1.3526054 -9.1570597e-05 0)
(1.3526281 -8.5404532e-05 0)
(1.352648 -7.9902761e-05 0)
(1.3526684 -7.4405203e-05 0)
(1.352685 -6.9802145e-05 0)
(1.3527036 -6.4836764e-05 0)
(1.352717 -6.1130314e-05 0)
(1.3527349 -5.6448449e-05 0)
(1.3527447 -5.3742411e-05 0)
(1.3527628 -4.9138028e-05 0)
(1.3527683 -4.7702255e-05 0)
(1.3527888 -4.2961883e-05 0)
(1.0014244 -0.026824854 0)
(1.0291272 -0.062791351 0)
(1.0654292 -0.077736551 0)
(1.098962 -0.080597198 0)
(1.1253149 -0.07828517 0)
(1.145053 -0.073153899 0)
(1.1594858 -0.066111278 0)
(1.1694287 -0.058162064 0)
(1.1755354 -0.050296755 0)
(1.1785738 -0.043150709 0)
(1.1793571 -0.036972826 0)
(1.1785949 -0.031771632 0)
(1.1768304 -0.027451839 0)
(1.1744518 -0.023886768 0)
(1.1717287 -0.02094762 0)
(1.1688444 -0.018515781 0)
(1.1659195 -0.016488085 0)
(1.1630317 -0.014779503 0)
(1.1602295 -0.013322985 0)
(1.1575415 -0.012067133 0)
(1.1549828 -0.010973001 0)
(1.1525601 -0.010011062 0)
(1.1502747 -0.0091587467 0)
(1.1481246 -0.0083986038 0)
(1.1461059 -0.0077169497 0)
(1.1442134 -0.0071028873 0)
(1.1424414 -0.0065475914 0)
(1.1407838 -0.0060437955 0)
(1.1392344 -0.0055854267 0)
(1.1377869 -0.0051673452 0)
(1.1364353 -0.0047851573 0)
(1.1351738 -0.0044350759 0)
(1.1339968 -0.004113816 0)
(1.1328987 -0.0038185119 0)
(1.1318746 -0.0035466522 0)
(1.1309195 -0.003296027 0)
(1.1300289 -0.0030646835 0)
(1.1291985 -0.0028508912 0)
(1.1284242 -0.0026531107 0)
(1.1277023 -0.0024699685 0)
(1.1270291 -0.0023002354 0)
(1.1264014 -0.0021428068 0)
(1.1258161 -0.001996688 0)
(1.1252703 -0.0018609805 0)
(1.1247612 -0.0017348708 0)
(1.1242865 -0.0016176205 0)
(1.1238437 -0.0015085577 0)
(1.1234308 -0.001407069 0)
(1.1230455 -0.0013125932 0)
(1.1226862 -0.0012246159 0)
(1.1223509 -0.0011426652 0)
(1.1220381 -0.0010663072 0)
(1.1217462 -0.0009951432 0)
(1.1214739 -0.0009288058 0)
(1.1212198 -0.00086695575 0)
(1.1209827 -0.0008092793 0)
(1.1207614 -0.00075548624 0)
(1.1205548 -0.00070530795 0)
(1.1203621 -0.00065849565 0)
(1.1201821 -0.00061481855 0)
(1.1200142 -0.0005740624 0)
(1.1198574 -0.00053602786 0)
(1.1197111 -0.00050052971 0)
(1.1195745 -0.0004673957 0)
(1.1194469 -0.00043646635 0)
(1.1193279 -0.00040759349 0)
(1.1192167 -0.00038063993 0)
(1.1191129 -0.00035547715 0)
(1.119016 -0.00033198556 0)
(1.1189255 -0.00031005186 0)
(1.118841 -0.00028957155 0)
(1.1187621 -0.00027044578 0)
(1.1186885 -0.00025258612 0)
(1.1186197 -0.00023590765 0)
(1.1185554 -0.00022033558 0)
(1.1184955 -0.00020579265 0)
(1.1184394 -0.00019221366 0)
(1.1183871 -0.00017952614 0)
(1.1183383 -0.00016767969 0)
(1.1182927 -0.0001566121 0)
(1.11825 -0.0001462933 0)
(1.1182103 -0.00013664942 0)
(1.1181731 -0.00012764886 0)
(1.1181384 -0.00011920098 0)
(1.1181059 -0.00011133434 0)
(1.1180758 -0.00010396729 0)
(1.1180474 -9.7165877e-05 0)
(1.1180211 -9.0741557e-05 0)
(1.1179962 -8.4815914e-05 0)
(1.1179734 -7.9127819e-05 0)
(1.1179517 -7.3998723e-05 0)
(1.1179319 -6.8981923e-05 0)
(1.1179128 -6.4646257e-05 0)
(1.1178955 -6.0154186e-05 0)
(1.117879 -5.6583151e-05 0)
(1.1178636 -5.2434087e-05 0)
(1.1178501 -4.9741243e-05 0)
(1.1178349 -4.5803937e-05 0)
(1.1178262 -4.4320205e-05 0)
(1.1178083 -4.057762e-05 0)
(1.0016583 -0.05381943 0)
(1.0359761 -0.10128443 0)
(1.0597199 -0.11073663 0)
(1.0628947 -0.10592202 0)
(1.0515569 -0.096228728 0)
(1.0340529 -0.083934061 0)
(1.0142795 -0.070327063 0)
(0.99360703 -0.056981334 0)
(0.97292577 -0.045107479 0)
(0.9531074 -0.03523675 0)
(0.93479538 -0.02740165 0)
(0.91829012 -0.021387227 0)
(0.90362379 -0.016884498 0)
(0.89068067 -0.013569709 0)
(0.87928174 -0.011147749 0)
(0.86923242 -0.0093736593 0)
(0.86034423 -0.0080569287 0)
(0.85244667 -0.0070571278 0)
(0.84539242 -0.0062752385 0)
(0.83905793 -0.0056438285 0)
(0.83334127 -0.0051180908 0)
(0.82815884 -0.0046686717 0)
(0.82344212 -0.0042764164 0)
(0.81913467 -0.0039287376 0)
(0.81518962 -0.0036172025 0)
(0.81156766 -0.00333597 0)
(0.80823544 -0.0030808043 0)
(0.80516441 -0.0028484696 0)
(0.8023298 -0.0026363698 0)
(0.79971 -0.0024423386 0)
(0.79728598 -0.0022645182 0)
(0.79504087 -0.0021012887 0)
(0.79295964 -0.0019512239 0)
(0.79102881 -0.0018130618 0)
(0.78923628 -0.001685683 0)
(0.78757111 -0.0015680927 0)
(0.78602339 -0.0014594065 0)
(0.78458413 -0.0013588367 0)
(0.78324512 -0.0012656812 0)
(0.7819989 -0.0011793122 0)
(0.78083862 -0.0010991673 0)
(0.779758 -0.0010247409 0)
(0.77875129 -0.00095557778 0)
(0.77781319 -0.00089126675 0)
(0.77693882 -0.00083143554 0)
(0.77612369 -0.00077574585 0)
(0.77536364 -0.00072388928 0)
(0.77465482 -0.00067558391 0)
(0.77399369 -0.00063057145 0)
(0.77337695 -0.00058861487 0)
(0.77280154 -0.00054949646 0)
(0.77226465 -0.00051301604 0)
(0.77176364 -0.00047898917 0)
(0.77129608 -0.00044724537 0)
(0.77085968 -0.00041762676 0)
(0.77045236 -0.00038998719 0)
(0.77007213 -0.00036419141 0)
(0.76971719 -0.00034011402 0)
(0.76938582 -0.00031763856 0)
(0.76907646 -0.00029665658 0)
(0.76878762 -0.00027706719 0)
(0.76851793 -0.00025877642 0)
(0.76826611 -0.00024169696 0)
(0.76803097 -0.0002257477 0)
(0.76781141 -0.0002108536 0)
(0.76760637 -0.00019694482 0)
(0.7674149 -0.00018395634 0)
(0.7672361 -0.00017182678 0)
(0.76706911 -0.00016049877 0)
(0.76691317 -0.00014991803 0)
(0.76676753 -0.00014003489 0)
(0.76663151 -0.00013080286 0)
(0.76650448 -0.0001221805 0)
(0.76638584 -0.0001141273 0)
(0.76627503 -0.00010660674 0)
(0.76617154 -9.9580806e-05 0)
(0.76607487 -9.3017822e-05 0)
(0.7659846 -8.6884041e-05 0)
(0.76590027 -8.1158186e-05 0)
(0.76582153 -7.5812764e-05 0)
(0.76574795 -7.0829116e-05 0)
(0.76567925 -6.6163032e-05 0)
(0.76561504 -6.1796075e-05 0)
(0.76555513 -5.770002e-05 0)
(0.76549914 -5.3901815e-05 0)
(0.76544689 -5.0359639e-05 0)
(0.76539798 -4.7074051e-05 0)
(0.76535238 -4.3953939e-05 0)
(0.76530969 -4.1059666e-05 0)
(0.76526999 -3.8314366e-05 0)
(0.76523276 -3.5832234e-05 0)
(0.76519808 -3.3442141e-05 0)
(0.76516559 -3.1310054e-05 0)
(0.76513519 -2.919034e-05 0)
(0.76510714 -2.7381691e-05 0)
(0.76508 -2.5527019e-05 0)
(0.76505667 -2.4070257e-05 0)
(0.7650306 -2.2555817e-05 0)
(0.76501447 -2.1600483e-05 0)
(0.76498348 -2.0994065e-05 0)
(0.91890839 -0.035821912 0)
(0.86271384 -0.062195638 0)
(0.7870597 -0.06251009 0)
(0.69536033 -0.054550395 0)
(0.61089745 -0.044531651 0)
(0.54411592 -0.034015972 0)
(0.49343012 -0.024187539 0)
(0.45479413 -0.016144229 0)
(0.42544582 -0.010265785 0)
(0.40347313 -0.0063041452 0)
(0.38715767 -0.0037976294 0)
(0.3749622 -0.0023103381 0)
(0.36566193 -0.0014930148 0)
(0.35836272 -0.0010851183 0)
(0.35244268 -0.00090607248 0)
(0.34748201 -0.00084105192 0)
(0.34320348 -0.00082372425 0)
(0.33942726 -0.00081931044 0)
(0.33603793 -0.000811852 0)
(0.33296114 -0.00079580124 0)
(0.33014778 -0.00077081139 0)
(0.32756384 -0.00073870922 0)
(0.3251842 -0.00070188888 0)
(0.32298902 -0.00066256526 0)
(0.32096172 -0.00062249943 0)
(0.31908785 -0.00058295766 0)
(0.31735449 -0.00054477201 0)
(0.31574996 -0.00050843455 0)
(0.31426361 -0.00047419175 0)
(0.31288575 -0.00044212444 0)
(0.31160756 -0.00041220901 0)
(0.31042102 -0.00038436102 0)
(0.30931883 -0.00035846436 0)
(0.30829439 -0.00033438989 0)
(0.30734165 -0.00031200654 0)
(0.30645516 -0.0002911877 0)
(0.30562992 -0.00027181448 0)
(0.30486137 -0.00025377705 0)
(0.30414536 -0.0002369747 0)
(0.30347807 -0.00022131527 0)
(0.30285601 -0.00020671452 0)
(0.30227597 -0.00019309551 0)
(0.30173497 -0.00018038804 0)
(0.3012303 -0.00016852796 0)
(0.30075943 -0.00015745627 0)
(0.30032003 -0.0001471185 0)
(0.29990994 -0.00013746422 0)
(0.29952716 -0.00012844677 0)
(0.29916984 -0.000120023 0)
(0.29883625 -0.000112153 0)
(0.29852479 -0.00010479987 0)
(0.29823397 -9.7929369e-05 0)
(0.29796242 -9.1509578e-05 0)
(0.29770883 -8.55106e-05 0)
(0.29747202 -7.9904525e-05 0)
(0.29725085 -7.4665489e-05 0)
(0.2970443 -6.9769521e-05 0)
(0.29685139 -6.5194246e-05 0)
(0.29667121 -6.0918602e-05 0)
(0.29650292 -5.6922789e-05 0)
(0.29634573 -5.318833e-05 0)
(0.29619891 -4.9698052e-05 0)
(0.29606177 -4.6436049e-05 0)
(0.29593367 -4.3387587e-05 0)
(0.29581402 -4.0538988e-05 0)
(0.29570225 -3.7877364e-05 0)
(0.29559785 -3.5390471e-05 0)
(0.29550033 -3.3066529e-05 0)
(0.29540923 -3.0894553e-05 0)
(0.29532414 -2.8864368e-05 0)
(0.29524465 -2.6967022e-05 0)
(0.2951704 -2.5194235e-05 0)
(0.29510105 -2.3538478e-05 0)
(0.29503626 -2.1991717e-05 0)
(0.29497573 -2.0546387e-05 0)
(0.2949192 -1.9194714e-05 0)
(0.29486639 -1.7931136e-05 0)
(0.29481707 -1.6750451e-05 0)
(0.29477099 -1.5650468e-05 0)
(0.29472793 -1.4625001e-05 0)
(0.29468771 -1.3666651e-05 0)
(0.29465015 -1.2762586e-05 0)
(0.29461508 -1.1913364e-05 0)
(0.29458233 -1.1123052e-05 0)
(0.29455171 -1.0402281e-05 0)
(0.29452309 -9.7309098e-06 0)
(0.29449633 -9.0956254e-06 0)
(0.2944714 -8.4783764e-06 0)
(0.29444812 -7.9105729e-06 0)
(0.29442639 -7.3873427e-06 0)
(0.29440601 -6.9236889e-06 0)
(0.29438699 -6.4704667e-06 0)
(0.29436921 -6.0537169e-06 0)
(0.29435262 -5.6459207e-06 0)
(0.29433717 -5.2935606e-06 0)
(0.29432251 -4.9755505e-06 0)
(0.2943092 -4.6904209e-06 0)
(0.2942957 -4.5392062e-06 0)
(0.29428502 -4.4064269e-06 0)
(0.29426874 -5.0571368e-06 0)
)
;

boundaryField
{
    top
    {
        type            fixedValue;
        value           uniform (0 0 0);
    }
    inlet
    {
        type            fixedValue;
        value           uniform (1 0 0);
    }
    outlet
    {
        type            zeroGradient;
    }
    bottom
    {
        type            fixedValue;
        value           uniform (0 0 0);
    }
    back
    {
        type            empty;
    }
    front
    {
        type            empty;
    }
}


// ************************************************************************* //
