/*--------------------------------*- C++ -*----------------------------------*\
| =========                 |                                                 |
| \\      /  F ield         | OpenFOAM: The Open Source CFD Toolbox           |
|  \\    /   O peration     | Version:  2112                                  |
|   \\  /    A nd           | Website:  www.openfoam.com                      |
|    \\/     M anipulation  |                                                 |
\*---------------------------------------------------------------------------*/
FoamFile
{
    version     2.0;
    format      ascii;
    arch        "LSB;label=32;scalar=64";
    class       volScalarField;
    location    "3";
    object      p;
}
// * * * * * * * * * * * * * * * * * * * * * * * * * * * * * * * * * * * * * //

dimensions      [0 2 -2 0 0 0 0];

internalField   nonuniform List<scalar> 
1000
(
1.5262977
1.5094053
1.4933609
1.4776985
1.4621939
1.4467815
1.4314299
1.4161117
1.4008065
1.3855042
1.3702009
1.3548959
1.3395892
1.3242813
1.3089726
1.2936634
1.2783541
1.2630446
1.247735
1.2324254
1.2171158
1.2018061
1.1864965
1.1711869
1.1558772
1.1405676
1.125258
1.1099483
1.0946387
1.0793291
1.0640194
1.0487098
1.0334002
1.0180905
1.0027809
0.98747127
0.97216164
0.95685201
0.94154238
0.92623274
0.91092311
0.89561348
0.88030385
0.86499421
0.84968458
0.83437495
0.81906532
0.80375568
0.78844605
0.77313642
0.75782679
0.74251715
0.72720752
0.71189789
0.69658826
0.68127863
0.66596899
0.65065936
0.63534973
0.6200401
0.60473046
0.58942083
0.5741112
0.55880157
0.54349193
0.5281823
0.51287267
0.49756304
0.4822534
0.46694377
0.45163414
0.43632451
0.42101487
0.40570524
0.39039561
0.37508598
0.35977634
0.34446671
0.32915708
0.31384745
0.29853782
0.28322818
0.26791855
0.25260892
0.23729929
0.22198965
0.20668002
0.19137039
0.17606076
0.16075112
0.14544149
0.13013186
0.11482222
0.099512592
0.08420296
0.068893327
0.053583696
0.038274066
0.022964439
0.0076548135
1.5258821
1.5090143
1.4933026
1.477801
1.4622942
1.4468438
1.4314677
1.4161356
1.4008207
1.3855117
1.3702046
1.3548976
1.33959
1.3242816
1.3089727
1.2936635
1.2783541
1.2630446
1.247735
1.2324254
1.2171158
1.2018061
1.1864965
1.1711869
1.1558772
1.1405676
1.125258
1.1099483
1.0946387
1.0793291
1.0640194
1.0487098
1.0334002
1.0180905
1.0027809
0.98747127
0.97216164
0.95685201
0.94154238
0.92623274
0.91092311
0.89561348
0.88030385
0.86499421
0.84968458
0.83437495
0.81906532
0.80375568
0.78844605
0.77313642
0.75782679
0.74251715
0.72720752
0.71189789
0.69658826
0.68127863
0.66596899
0.65065936
0.63534973
0.6200401
0.60473046
0.58942083
0.5741112
0.55880157
0.54349193
0.5281823
0.51287267
0.49756304
0.4822534
0.46694377
0.45163414
0.43632451
0.42101487
0.40570524
0.39039561
0.37508598
0.35977634
0.34446671
0.32915708
0.31384745
0.29853782
0.28322818
0.26791855
0.25260892
0.23729929
0.22198965
0.20668002
0.19137039
0.17606076
0.16075112
0.14544149
0.13013186
0.11482222
0.099512592
0.084202959
0.068893327
0.053583694
0.038274063
0.022964433
0.0076548093
1.5253035
1.508394
1.4930872
1.4778264
1.4623568
1.4468853
1.431496
1.4161579
1.4008368
1.3855216
1.3702102
1.3549007
1.3395916
1.3242825
1.3089732
1.2936637
1.2783542
1.2630446
1.247735
1.2324254
1.2171158
1.2018061
1.1864965
1.1711869
1.1558772
1.1405676
1.125258
1.1099483
1.0946387
1.0793291
1.0640194
1.0487098
1.0334002
1.0180905
1.0027809
0.98747127
0.97216164
0.95685201
0.94154238
0.92623274
0.91092311
0.89561348
0.88030385
0.86499421
0.84968458
0.83437495
0.81906532
0.80375568
0.78844605
0.77313642
0.75782679
0.74251715
0.72720752
0.71189789
0.69658826
0.68127863
0.66596899
0.65065936
0.63534973
0.6200401
0.60473046
0.58942083
0.5741112
0.55880157
0.54349193
0.5281823
0.51287267
0.49756304
0.4822534
0.46694377
0.45163414
0.43632451
0.42101487
0.40570524
0.39039561
0.37508598
0.35977634
0.34446671
0.32915708
0.31384745
0.29853782
0.28322818
0.26791855
0.25260892
0.23729929
0.22198965
0.20668002
0.19137039
0.17606076
0.16075112
0.14544149
0.13013186
0.11482222
0.099512592
0.084202959
0.068893326
0.053583693
0.038274061
0.02296443
0.0076548067
1.5248574
1.5078809
1.492877
1.4778258
1.4624036
1.446922
1.431524
1.4161816
1.4008548
1.3855333
1.370217
1.3549045
1.3395938
1.3242836
1.3089738
1.293664
1.2783543
1.2630447
1.247735
1.2324254
1.2171158
1.2018061
1.1864965
1.1711869
1.1558772
1.1405676
1.125258
1.1099483
1.0946387
1.0793291
1.0640194
1.0487098
1.0334002
1.0180905
1.0027809
0.98747127
0.97216164
0.95685201
0.94154238
0.92623274
0.91092311
0.89561348
0.88030385
0.86499421
0.84968458
0.83437495
0.81906532
0.80375568
0.78844605
0.77313642
0.75782679
0.74251715
0.72720752
0.71189789
0.69658826
0.68127863
0.66596899
0.65065936
0.63534973
0.6200401
0.60473046
0.58942083
0.5741112
0.55880157
0.54349193
0.5281823
0.51287267
0.49756304
0.4822534
0.46694377
0.45163414
0.43632451
0.42101487
0.40570524
0.39039561
0.37508598
0.35977634
0.34446671
0.32915708
0.31384745
0.29853782
0.28322818
0.26791855
0.25260892
0.23729929
0.22198965
0.20668002
0.19137039
0.17606076
0.16075112
0.14544149
0.13013186
0.11482222
0.099512591
0.084202958
0.068893325
0.053583692
0.03827406
0.022964428
0.0076548051
1.524635
1.5076123
1.4927587
1.477821
1.4624288
1.4469438
1.4315415
1.4161966
1.4008664
1.3855409
1.3702215
1.3549071
1.3395952
1.3242844
1.3089742
1.2936642
1.2783544
1.2630447
1.2477351
1.2324254
1.2171158
1.2018061
1.1864965
1.1711869
1.1558772
1.1405676
1.125258
1.1099483
1.0946387
1.0793291
1.0640194
1.0487098
1.0334002
1.0180905
1.0027809
0.98747127
0.97216164
0.95685201
0.94154238
0.92623274
0.91092311
0.89561348
0.88030385
0.86499421
0.84968458
0.83437495
0.81906532
0.80375568
0.78844605
0.77313642
0.75782679
0.74251715
0.72720752
0.71189789
0.69658826
0.68127863
0.66596899
0.65065936
0.63534973
0.6200401
0.60473046
0.58942083
0.5741112
0.55880157
0.54349193
0.5281823
0.51287267
0.49756304
0.4822534
0.46694377
0.45163414
0.43632451
0.42101487
0.40570524
0.39039561
0.37508598
0.35977634
0.34446671
0.32915708
0.31384745
0.29853782
0.28322818
0.26791855
0.25260892
0.23729929
0.22198965
0.20668002
0.19137039
0.17606076
0.16075112
0.14544149
0.13013186
0.11482222
0.099512591
0.084202958
0.068893325
0.053583692
0.038274059
0.022964428
0.0076548043
1.524635
1.5076124
1.4927587
1.477821
1.4624288
1.4469438
1.4315415
1.4161966
1.4008663
1.3855409
1.3702215
1.3549071
1.3395952
1.3242844
1.3089742
1.2936642
1.2783544
1.2630447
1.2477351
1.2324254
1.2171158
1.2018061
1.1864965
1.1711869
1.1558772
1.1405676
1.125258
1.1099483
1.0946387
1.0793291
1.0640194
1.0487098
1.0334002
1.0180905
1.0027809
0.98747127
0.97216164
0.95685201
0.94154238
0.92623274
0.91092311
0.89561348
0.88030385
0.86499421
0.84968458
0.83437495
0.81906532
0.80375568
0.78844605
0.77313642
0.75782679
0.74251715
0.72720752
0.71189789
0.69658826
0.68127863
0.66596899
0.65065936
0.63534973
0.6200401
0.60473046
0.58942083
0.5741112
0.55880157
0.54349193
0.5281823
0.51287267
0.49756304
0.4822534
0.46694377
0.45163414
0.43632451
0.42101487
0.40570524
0.39039561
0.37508598
0.35977634
0.34446671
0.32915708
0.31384745
0.29853782
0.28322818
0.26791855
0.25260892
0.23729929
0.22198965
0.20668002
0.19137039
0.17606076
0.16075112
0.14544149
0.13013186
0.11482222
0.099512591
0.084202958
0.068893325
0.053583692
0.038274059
0.022964428
0.0076548044
1.5248574
1.5078809
1.492877
1.4778258
1.4624036
1.446922
1.431524
1.4161816
1.4008548
1.3855332
1.370217
1.3549045
1.3395938
1.3242836
1.3089738
1.293664
1.2783543
1.2630447
1.247735
1.2324254
1.2171158
1.2018061
1.1864965
1.1711869
1.1558772
1.1405676
1.125258
1.1099483
1.0946387
1.0793291
1.0640194
1.0487098
1.0334002
1.0180905
1.0027809
0.98747127
0.97216164
0.95685201
0.94154238
0.92623274
0.91092311
0.89561348
0.88030385
0.86499421
0.84968458
0.83437495
0.81906532
0.80375568
0.78844605
0.77313642
0.75782679
0.74251715
0.72720752
0.71189789
0.69658826
0.68127863
0.66596899
0.65065936
0.63534973
0.6200401
0.60473046
0.58942083
0.5741112
0.55880157
0.54349193
0.5281823
0.51287267
0.49756304
0.4822534
0.46694377
0.45163414
0.43632451
0.42101487
0.40570524
0.39039561
0.37508598
0.35977634
0.34446671
0.32915708
0.31384745
0.29853782
0.28322818
0.26791855
0.25260892
0.23729929
0.22198965
0.20668002
0.19137039
0.17606076
0.16075112
0.14544149
0.13013186
0.11482222
0.099512591
0.084202958
0.068893325
0.053583692
0.03827406
0.022964429
0.0076548053
1.5253036
1.508394
1.4930872
1.4778264
1.4623568
1.4468854
1.4314961
1.4161579
1.4008368
1.3855216
1.3702102
1.3549007
1.3395916
1.3242825
1.3089732
1.2936637
1.2783542
1.2630446
1.247735
1.2324254
1.2171158
1.2018061
1.1864965
1.1711869
1.1558772
1.1405676
1.125258
1.1099483
1.0946387
1.0793291
1.0640194
1.0487098
1.0334002
1.0180905
1.0027809
0.98747127
0.97216164
0.95685201
0.94154238
0.92623274
0.91092311
0.89561348
0.88030385
0.86499421
0.84968458
0.83437495
0.81906532
0.80375568
0.78844605
0.77313642
0.75782679
0.74251715
0.72720752
0.71189789
0.69658826
0.68127863
0.66596899
0.65065936
0.63534973
0.6200401
0.60473046
0.58942083
0.5741112
0.55880157
0.54349193
0.5281823
0.51287267
0.49756304
0.4822534
0.46694377
0.45163414
0.43632451
0.42101487
0.40570524
0.39039561
0.37508598
0.35977634
0.34446671
0.32915708
0.31384745
0.29853782
0.28322818
0.26791855
0.25260892
0.23729929
0.22198965
0.20668002
0.19137039
0.17606076
0.16075112
0.14544149
0.13013186
0.11482222
0.099512591
0.084202958
0.068893326
0.053583693
0.038274062
0.02296443
0.007654807
1.5258821
1.5090143
1.4933026
1.477801
1.4622942
1.4468439
1.4314678
1.4161356
1.4008207
1.3855117
1.3702046
1.3548976
1.33959
1.3242816
1.3089727
1.2936635
1.2783541
1.2630446
1.247735
1.2324254
1.2171158
1.2018061
1.1864965
1.1711869
1.1558772
1.1405676
1.125258
1.1099483
1.0946387
1.0793291
1.0640194
1.0487098
1.0334002
1.0180905
1.0027809
0.98747127
0.97216164
0.95685201
0.94154238
0.92623274
0.91092311
0.89561348
0.88030385
0.86499421
0.84968458
0.83437495
0.81906532
0.80375568
0.78844605
0.77313642
0.75782679
0.74251715
0.72720752
0.71189789
0.69658826
0.68127863
0.66596899
0.65065936
0.63534973
0.6200401
0.60473046
0.58942083
0.5741112
0.55880157
0.54349193
0.5281823
0.51287267
0.49756304
0.4822534
0.46694377
0.45163414
0.43632451
0.42101487
0.40570524
0.39039561
0.37508598
0.35977634
0.34446671
0.32915708
0.31384745
0.29853782
0.28322818
0.26791855
0.25260892
0.23729929
0.22198965
0.20668002
0.19137039
0.17606076
0.16075112
0.14544149
0.13013186
0.11482222
0.099512591
0.084202959
0.068893326
0.053583694
0.038274064
0.022964433
0.0076548096
1.5262977
1.5094054
1.4933609
1.4776984
1.4621939
1.4467815
1.4314299
1.4161117
1.4008065
1.3855042
1.3702008
1.3548959
1.3395892
1.3242813
1.3089726
1.2936634
1.2783541
1.2630446
1.247735
1.2324254
1.2171158
1.2018061
1.1864965
1.1711869
1.1558772
1.1405676
1.125258
1.1099483
1.0946387
1.0793291
1.0640194
1.0487098
1.0334002
1.0180905
1.0027809
0.98747127
0.97216164
0.95685201
0.94154238
0.92623274
0.91092311
0.89561348
0.88030385
0.86499421
0.84968458
0.83437495
0.81906532
0.80375568
0.78844605
0.77313642
0.75782679
0.74251715
0.72720752
0.71189789
0.69658826
0.68127863
0.66596899
0.65065936
0.63534973
0.6200401
0.60473046
0.58942083
0.5741112
0.55880157
0.54349193
0.5281823
0.51287267
0.49756304
0.4822534
0.46694377
0.45163414
0.43632451
0.42101487
0.40570524
0.39039561
0.37508598
0.35977634
0.34446671
0.32915708
0.31384745
0.29853782
0.28322818
0.26791855
0.25260892
0.23729929
0.22198965
0.20668002
0.19137039
0.17606076
0.16075112
0.14544149
0.13013186
0.11482222
0.099512591
0.084202959
0.068893327
0.053583696
0.038274066
0.02296444
0.0076548137
)
;

boundaryField
{
    top
    {
        type            zeroGradient;
    }
    inlet
    {
        type            fixedValue;
        value           uniform 1.5352;
    }
    outlet
    {
        type            fixedValue;
        value           uniform 0;
    }
    bottom
    {
        type            zeroGradient;
    }
    back
    {
        type            empty;
    }
    front
    {
        type            empty;
    }
}


// ************************************************************************* //
