/*--------------------------------*- C++ -*----------------------------------*\
| =========                 |                                                 |
| \\      /  F ield         | OpenFOAM: The Open Source CFD Toolbox           |
|  \\    /   O peration     | Version:  2112                                  |
|   \\  /    A nd           | Website:  www.openfoam.com                      |
|    \\/     M anipulation  |                                                 |
\*---------------------------------------------------------------------------*/
FoamFile
{
    version     2.0;
    format      ascii;
    arch        "LSB;label=32;scalar=64";
    class       surfaceScalarField;
    location    "3";
    object      phi;
}
// * * * * * * * * * * * * * * * * * * * * * * * * * * * * * * * * * * * * * //

dimensions      [0 3 -1 0 0 0 0];

oriented        oriented;

internalField   nonuniform List<scalar> 
1890
(
0.0015142621
6.7368859e-06
0.0014975393
1.6721654e-05
0.0014826128
1.4926692e-05
0.0014729248
9.689303e-06
0.0014672361
5.6903814e-06
0.0014639471
3.2904569e-06
0.0014621493
1.7991983e-06
0.0014612916
8.5903997e-07
0.001460958
3.349478e-07
0.0014608659
9.3318351e-08
0.0014608625
4.3598173e-09
0.0014608854
-2.206127e-08
0.0014609079
-2.1888316e-08
0.0014609241
-1.5774641e-08
0.0014609342
-9.8064054e-09
0.0014609401
-5.6276576e-09
0.0014609433
-3.1034147e-09
0.0014609451
-1.6812717e-09
0.0014609461
-9.0704351e-10
0.0014609467
-4.8695155e-10
0.001460947
-2.6010033e-10
0.0014609471
-1.3442656e-10
0.0014609472
-6.6617421e-11
0.0014609473
-2.8427052e-11
0.0014609473
-9.2438275e-12
0.0014609473
1.4202354e-12
0.0014609473
5.9491626e-12
0.0014609473
8.4454937e-12
0.0014609473
7.6905086e-12
0.0014609473
8.0578755e-12
0.0014609473
5.9685432e-12
0.0014609473
5.7068118e-12
0.0014609473
3.4230389e-12
0.0014609473
3.170991e-12
0.0014609473
1.1044063e-12
0.0014609473
9.8702601e-13
0.0014609473
-4.5901414e-13
0.0014609473
-1.2555734e-13
0.0014609473
-1.0437845e-12
0.0014609473
-2.0778985e-13
0.0014609473
-6.2138124e-13
0.0014609473
6.3390172e-13
0.0014609473
3.0272922e-13
0.0014609473
1.5802213e-12
0.0014609473
1.0984599e-12
0.0014609473
2.2929459e-12
0.0014609473
1.4010274e-12
0.0014609473
2.1602704e-12
0.0014609473
9.7565397e-13
0.0014609473
1.3927555e-12
0.0014609473
6.2330743e-14
0.0014609473
6.1884459e-14
0.0014609473
-1.2743623e-12
0.0014609473
-9.1566755e-13
0.0014609473
-2.2901109e-12
0.0014609473
-1.6519661e-12
0.0014609473
-2.6659566e-12
0.0014609473
-1.6000955e-12
0.0014609473
-2.2807399e-12
0.0014609473
-9.7575539e-13
0.0014609473
-1.2414871e-12
0.0014609473
1.7922093e-13
0.0014609473
1.0916975e-13
0.0014609473
1.5049839e-12
0.0014609473
1.2012746e-12
0.0014609473
2.6359073e-12
0.0014609473
1.9715325e-12
0.0014609473
3.0632433e-12
0.0014609473
2.111019e-12
0.0014609473
2.9065492e-12
0.0014609473
1.5855806e-12
0.0014609473
1.9844993e-12
0.0014609473
5.744853e-13
0.0014609473
7.2668493e-13
0.0014609473
-8.0578059e-13
0.0014609473
-6.5512969e-13
0.0014609473
-2.1643484e-12
0.0014609473
-1.7365544e-12
0.0014609473
-3.1709673e-12
0.0014609473
-2.5167537e-12
0.0014609473
-3.6207799e-12
0.0014609473
-2.5873742e-12
0.0014609473
-3.4181441e-12
0.0014609473
-2.1362486e-12
0.0014609473
-2.5860279e-12
0.0014609473
-1.038903e-12
0.0014609473
-1.2090569e-12
0.0014609473
3.5715969e-13
0.0014609473
4.5544425e-13
0.0014609473
2.2665827e-12
0.0014609473
2.2508813e-12
0.0014609473
4.2000058e-12
0.0014609473
4.6664028e-12
0.0014609473
7.471873e-12
0.0014609473
1.1479075e-11
0.0014609473
1.3774313e-11
0.0014609473
2.1164919e-11
0.0014609472
2.1306004e-11
0.0014609472
-2.8370269e-12
-5.5115466e-11
0.0031497205
7.6291475e-06
0.0031432816
2.3157701e-05
0.0031338171
2.4389804e-05
0.0031250988
1.8408119e-05
0.0031184832
1.2307254e-05
0.0031139256
7.8491951e-06
0.0031110483
4.6773214e-06
0.0031094131
2.4952414e-06
0.0031085865
1.1626979e-06
0.0031082169
4.639594e-07
0.0031080751
1.4715217e-07
0.0031080305
2.3347749e-08
0.0031080237
-1.4377685e-08
0.0031080276
-1.9284031e-08
0.0031080327
-1.4571331e-08
0.0031080365
-9.1485255e-09
0.0031080389
-5.2852064e-09
0.0031080403
-2.9519443e-09
0.0031080411
-1.6375592e-09
0.0031080416
-9.1531673e-10
0.0031080419
-5.1393487e-10
0.0031080421
-2.8807163e-10
0.0031080422
-1.5639342e-10
0.0031080423
-8.109143e-11
0.0031080423
-3.6287205e-11
0.0031080423
-1.2271951e-11
0.0031080423
1.7718931e-12
0.0031080423
7.3832974e-12
0.0031080424
1.0738797e-11
0.0031080424
1.0199666e-11
0.0031080424
1.0041308e-11
0.0031080424
7.6167979e-12
0.0031080424
6.5986836e-12
0.0031080424
4.0125148e-12
0.0031080424
2.9883879e-12
0.0031080424
9.7468494e-13
0.0031080424
3.8673161e-13
0.0031080424
-6.7133963e-13
0.0031080424
-4.82679e-13
0.0031080424
-8.2524262e-13
0.0031080424
1.0005481e-14
0.0031080424
2.652152e-13
0.0031080424
1.401788e-12
0.0031080424
1.4004043e-12
0.0031080424
2.6151669e-12
0.0031080424
2.2660233e-12
0.0031080424
2.986483e-12
0.0031080424
2.0767591e-12
0.0031080424
2.2997151e-12
0.0031080424
1.0785676e-12
0.0031080424
7.1292021e-13
0.0031080424
-7.1263337e-13
0.0031080424
-9.7864789e-13
0.0031080424
-2.3551185e-12
0.0031080424
-2.2968235e-12
0.0031080424
-3.4166216e-12
0.0031080424
-2.7889717e-12
0.0031080423
-3.3369687e-12
0.0031080424
-2.2799506e-12
0.0031080423
-2.3369013e-12
0.0031080424
-9.5530374e-13
0.0031080424
-4.5963114e-13
0.0031080424
9.4899314e-13
0.0031080424
1.2428059e-12
0.0031080424
2.7661674e-12
0.0031080424
2.7451468e-12
0.0031080424
3.9254788e-12
0.0031080424
3.3942609e-12
0.0031080424
4.1688927e-12
0.0031080424
3.1980819e-12
0.0031080424
3.3945563e-12
0.0031080424
2.0054644e-12
0.0031080424
1.7888705e-12
0.0031080424
3.8211393e-13
0.0031080424
-2.5100533e-13
0.0031080424
-1.7990656e-12
0.0031080424
-2.0282165e-12
0.0031080424
-3.551656e-12
0.0031080424
-3.4948337e-12
0.0031080423
-4.7650794e-12
0.0031080423
-4.2048418e-12
0.0031080423
-4.9830825e-12
0.0031080423
-4.0232882e-12
0.0031080423
-4.3597348e-12
0.0031080423
-2.9221287e-12
0.0031080423
-2.7285783e-12
0.0031080423
-1.1247572e-12
0.0031080423
-3.9076255e-13
0.0031080424
1.4559412e-12
0.0031080424
2.2145034e-12
0.0031080424
4.3486488e-12
0.0031080424
4.9425841e-12
0.0031080424
7.9133569e-12
0.0031080424
8.9905808e-12
0.0031080424
1.5222514e-11
0.0031080424
1.0568569e-11
0.0031080424
1.1186026e-11
0.0031080424
2.2733502e-14
0.0031080425
-8.6394653e-11
-1.79458e-10
0.0039424958
5.1296222e-06
0.0039473402
1.8309956e-05
0.0039501733
2.155624e-05
0.0039506617
1.79212e-05
0.0039499979
1.2972417e-05
0.0039490382
8.8096079e-06
0.003948162
5.5539222e-06
0.0039475054
3.1524721e-06
0.0039470817
1.5871814e-06
0.0039468416
7.0496999e-07
0.0039467199
2.6968054e-07
0.0039466638
8.0126755e-08
0.0039466398
1.0231849e-08
0.0039466305
-9.527603e-09
0.0039466272
-1.0918716e-08
0.003946626
-7.6888177e-09
0.0039466255
-4.6276221e-09
0.0039466253
-2.6165613e-09
0.0039466253
-1.4595051e-09
0.0039466252
-8.2445477e-10
0.0039466253
-4.7543411e-10
0.0039466253
-2.7595324e-10
0.0039466253
-1.5830327e-10
0.0039466253
-8.6072221e-11
0.0039466254
-4.2886245e-11
0.0039466254
-1.6325283e-11
0.0039466254
-1.9573491e-12
0.0039466254
6.2287598e-12
0.0039466254
9.2172659e-12
0.0039466254
1.0538968e-11
0.0039466254
9.3597193e-12
0.0039466254
8.3602016e-12
0.0039466254
6.0616569e-12
0.0039466254
4.606814e-12
0.0039466254
2.5448721e-12
0.0039466254
1.3740523e-12
0.0039466254
3.0512089e-13
0.0039466254
-3.2913222e-13
0.0039466254
-4.7808373e-13
0.0039466254
-3.2442343e-13
0.0039466254
2.0628854e-13
0.0039466254
8.8730252e-13
0.0039466254
1.336197e-12
0.0039466254
2.227758e-12
0.0039466254
2.3418709e-12
0.0039466254
2.9125825e-12
0.0039466254
2.5122604e-12
0.0039466255
2.5290922e-12
0.0039466255
1.6793973e-12
0.0039466255
1.0965539e-12
0.0039466255
1.9680871e-13
0.0039466254
-7.0394178e-13
0.0039466254
-1.765603e-12
0.0039466254
-2.1822145e-12
0.0039466254
-3.0914223e-12
0.0039466254
-3.0111149e-12
0.0039466254
-3.43727e-12
0.0039466254
-2.8354539e-12
0.0039466254
-2.7010614e-12
0.0039466254
-1.704316e-12
0.0039466254
-1.0017878e-12
0.0039466254
-3.207063e-14
0.0039466254
8.9589184e-13
0.0039466254
2.0539199e-12
0.0039466254
2.5101138e-12
0.0039466254
3.5353958e-12
0.0039466254
3.5436967e-12
0.0039466255
4.1565439e-12
0.0039466255
3.6686486e-12
0.0039466255
3.7561778e-12
0.0039466255
2.8260699e-12
0.0039466255
2.4216062e-12
0.0039466255
1.2972482e-12
0.0039466255
3.4010245e-13
0.0039466255
-7.5231543e-13
0.0039466255
-1.5358456e-12
0.0039466254
-2.7995664e-12
0.0039466254
-3.2190262e-12
0.0039466254
-4.3013026e-12
0.0039466254
-4.2924599e-12
0.0039466254
-4.9701099e-12
0.0039466254
-4.4958004e-12
0.0039466254
-4.6904243e-12
0.0039466254
-3.7525586e-12
0.0039466254
-3.4400718e-12
0.0039466254
-2.163333e-12
0.0039466254
-1.2754546e-12
0.0039466254
4.7907651e-14
0.0039466254
1.3706694e-12
0.0039466254
3.0898331e-12
0.0039466254
4.1300642e-12
0.0039466254
6.0597074e-12
0.0039466254
8.2389459e-12
0.0039466255
1.0143043e-11
0.0039466255
1.381041e-11
0.0039466255
6.6675311e-12
0.0039466255
-2.6675171e-12
0.0039466255
-1.634614e-11
0.0039466255
-1.2222576e-10
-2.2489267e-10
0.0042896799
2.342934e-06
0.0042985997
9.3879068e-06
0.0043083031
1.1852839e-05
0.0043157947
1.0431134e-05
0.0043208635
7.9051238e-06
0.0043241055
5.5683377e-06
0.0043260317
3.6280749e-06
0.0043270533
2.1313752e-06
0.0043275254
1.1157928e-06
0.0043277114
5.1974451e-07
0.0043277691
2.1278934e-07
0.0043277775
7.2409005e-08
0.0043277718
1.6571154e-08
0.0043277638
-1.0794925e-09
0.0043277581
-4.8747047e-09
0.0043277546
-3.9114848e-09
0.0043277526
-2.434267e-09
0.0043277516
-1.3774268e-09
0.004327751
-7.5867299e-10
0.0043277506
-4.2669096e-10
0.0043277505
-2.4545513e-10
0.0043277504
-1.458079e-10
0.0043277504
-8.30093e-11
0.0043277503
-4.6805306e-11
0.0043277503
-2.0621394e-11
0.0043277504
-7.6345913e-12
0.0043277504
2.8364679e-12
0.0043277504
5.7638669e-12
0.0043277504
9.4740299e-12
0.0043277504
7.7834823e-12
0.0043277504
8.8924016e-12
0.0043277504
5.6127812e-12
0.0043277504
5.7807218e-12
0.0043277504
2.5222507e-12
0.0043277504
2.7390216e-12
0.0043277504
3.273869e-13
0.0043277504
7.4223714e-13
0.0043277504
-8.4909274e-13
0.0043277504
4.3546352e-13
0.0043277504
-4.7459262e-13
0.0043277504
1.2524203e-12
0.0043277504
4.9751696e-13
0.0043277504
2.4869998e-12
0.0043277504
1.3778492e-12
0.0043277504
3.1979155e-12
0.0043277504
1.6679429e-12
0.0043277504
3.0947353e-12
0.0043277504
1.127949e-12
0.0043277504
1.9336941e-12
0.0043277504
-4.2432686e-14
0.0043277504
2.5523022e-13
0.0043277504
-1.8228769e-12
0.0043277504
-1.0938594e-12
0.0043277504
-3.1875824e-12
0.0043277504
-1.8990586e-12
0.0043277504
-3.7093335e-12
0.0043277504
-1.9951403e-12
0.0043277504
-3.2716536e-12
0.0043277504
-1.1643312e-12
0.0043277504
-1.939143e-12
0.0043277504
8.2085665e-14
0.0043277504
-1.3360665e-13
0.0043277504
2.0076082e-12
0.0043277504
1.2414786e-12
0.0043277504
3.4198567e-12
0.0043277504
2.2380905e-12
0.0043277504
4.2317754e-12
0.0043277504
2.5509094e-12
0.0043277504
4.0525386e-12
0.0043277504
2.0319729e-12
0.0043277504
3.1157871e-12
0.0043277504
9.027654e-13
0.0043277504
1.4467631e-12
0.0043277504
-7.5042943e-13
0.0043277504
-3.2686501e-13
0.0043277504
-2.5480719e-12
0.0043277504
-1.7427633e-12
0.0043277504
-4.0079355e-12
0.0043277504
-2.719004e-12
0.0043277504
-4.7733148e-12
0.0043277504
-3.1237719e-12
0.0043277504
-4.7526002e-12
0.0043277504
-2.6578269e-12
0.0043277504
-3.863929e-12
0.0043277504
-1.580502e-12
0.0043277504
-2.2529336e-12
0.0043277504
4.8051607e-14
0.0043277504
7.4431527e-14
0.0043277504
2.5565177e-12
0.0043277504
2.2212865e-12
0.0043277504
5.3168042e-12
0.0043277504
5.3150855e-12
0.0043277504
9.9369917e-12
0.0043277504
1.00184e-11
0.0043277504
1.4568272e-11
0.0043277504
7.44404e-12
0.0043277504
2.0780496e-13
0.0043277504
-1.1207212e-11
0.0043277504
-8.0597545e-11
-1.4854738e-10
0.0044158034
-5.9628966e-11
0.0044251885
-2.8355981e-10
0.0044370416
-1.6732597e-10
0.0044474752
-1.0904359e-10
0.0044553829
-3.5910159e-10
0.0044609531
-7.7573201e-10
0.0044645826
-9.9778907e-10
0.0044667154
-9.3623094e-10
0.0044678327
-7.5513725e-10
0.0044683538
-5.6296363e-10
0.0044685678
-3.9733317e-10
0.0044686412
-2.5363567e-10
0.0044686585
-1.4779873e-10
0.004468658
-8.7827882e-11
0.0044686535
-3.4020253e-11
0.0044686499
-5.9537798e-12
0.0044686477
8.0365099e-12
0.0044686465
1.541377e-11
0.0044686458
1.5640273e-11
0.0044686455
1.6295746e-11
0.0044686453
1.3758953e-11
0.0044686452
1.3896611e-11
0.0044686451
1.1468451e-11
0.0044686451
1.1917855e-11
0.0044686451
9.8053771e-12
0.0044686451
1.0679141e-11
0.0044686451
8.6205489e-12
0.0044686451
9.25956e-12
0.0044686451
6.8621159e-12
0.0044686451
7.178939e-12
0.0044686451
4.6783421e-12
0.0044686452
4.6052409e-12
0.0044686452
2.0558419e-12
0.0044686452
2.3289988e-12
0.0044686452
2.488518e-13
0.0044686452
8.7293866e-13
0.0044686452
-7.7701008e-13
0.0044686452
5.741135e-13
0.0044686452
-4.5847481e-13
0.0044686452
1.1615001e-12
0.0044686452
2.5525493e-13
0.0044686452
2.0999536e-12
0.0044686452
1.1627382e-12
0.0044686452
2.6524241e-12
0.0044686452
1.345406e-12
0.0044686452
2.5960189e-12
0.0044686452
1.017281e-12
0.0044686452
1.7475822e-12
0.0044686452
-1.692195e-13
0.0044686452
5.2220106e-13
0.0044686452
-1.4216056e-12
0.0044686452
-7.238083e-13
0.0044686452
-2.5584162e-12
0.0044686452
-1.4615704e-12
0.0044686452
-2.8714195e-12
0.0044686452
-1.5799272e-12
0.0044686452
-2.6987694e-12
0.0044686452
-9.3408876e-13
0.0044686452
-1.6443593e-12
0.0044686452
1.7719291e-13
0.0044686452
-4.9271129e-13
0.0044686452
1.5614233e-12
0.0044686452
8.4501738e-13
0.0044686452
2.5714512e-12
0.0044686452
1.5441708e-12
0.0044686452
3.1505764e-12
0.0044686452
1.9339097e-12
0.0044686452
3.0527991e-12
0.0044686452
1.4449629e-12
0.0044686452
2.4093401e-12
0.0044686452
6.3346022e-13
0.0044686452
1.2634108e-12
0.0044686452
-7.0047579e-13
0.0044686452
1.3101553e-15
0.0044686452
-1.8600413e-12
0.0044686452
-1.1090486e-12
0.0044686452
-2.9160347e-12
0.0044686452
-1.8479641e-12
0.0044686452
-3.3045818e-12
0.0044686452
-2.1221355e-12
0.0044686452
-3.3732081e-12
0.0044686452
-1.7767416e-12
0.0044686451
-2.6454895e-12
0.0044686451
-9.2332763e-13
0.0044686451
-1.6684518e-12
0.0044686451
3.4847428e-13
0.0044686451
-1.275893e-13
0.0044686451
1.9858691e-12
0.0044686451
1.4331322e-12
0.0044686452
3.7816684e-12
0.0044686452
3.79748e-12
0.0044686452
7.1949625e-12
0.0044686452
8.3848839e-12
0.0044686452
1.2833479e-11
0.0044686452
1.2918778e-11
0.0044686452
1.4661248e-11
0.0044686452
1.2903174e-11
0.0044686451
1.0427014e-11
0.004468645
5.7635358e-12
3.286261e-12
0.0044158034
-2.3429463e-06
0.0044251883
-9.3871989e-06
0.0044370416
-1.1852372e-05
0.0044474753
-1.0431546e-05
0.0044553831
-7.9062615e-06
0.0044609532
-5.5698577e-06
0.0044645825
-3.6297317e-06
0.0044667152
-2.1329563e-06
0.0044678324
-1.1171226e-06
0.0044683535
-5.2075301e-07
0.0044685675
-2.1349395e-07
0.0044686409
-7.2860537e-08
0.0044686582
-1.6827655e-08
0.0044686578
8.9028808e-10
0.0044686534
4.8180921e-09
0.0044686498
3.8927801e-09
0.0044686476
2.4448674e-09
0.0044686464
1.4027238e-09
0.0044686458
7.8507953e-10
0.0044686454
4.5416024e-10
0.0044686453
2.7031648e-10
0.0044686452
1.6978358e-10
0.0044686451
1.0425957e-10
0.0044686451
6.7601116e-11
0.0044686451
3.9229919e-11
0.0044686451
2.6551399e-11
0.0044686451
1.3587866e-11
0.0044686451
1.0487629e-11
0.0044686451
4.1543179e-12
0.0044686451
4.5529247e-12
0.0044686451
8.2391721e-13
0.0044686452
1.8338393e-12
0.0044686452
-8.1079461e-13
0.0044686452
8.1851954e-13
0.0044686452
-1.4445711e-12
0.0044686452
4.1052106e-13
0.0044686452
-1.3605429e-12
0.0044686452
1.0505233e-12
0.0044686452
-5.7188475e-13
0.0044686452
1.7348454e-12
0.0044686452
1.5559781e-13
0.0044686452
2.5711446e-12
0.0044686452
5.6461955e-13
0.0044686452
2.5828786e-12
0.0044686452
4.2006592e-13
0.0044686452
2.2440133e-12
0.0044686452
-1.6510372e-13
0.0044686452
1.2042439e-12
0.0044686452
-1.2831948e-12
0.0044686452
2.7637288e-13
0.0044686452
-2.1640107e-12
0.0044686452
-4.9220834e-13
0.0044686452
-2.7228309e-12
0.0044686452
-5.3919727e-13
0.0044686452
-2.5635263e-12
0.0044686452
-3.8435201e-13
0.0044686452
-2.0065704e-12
0.0044686452
4.4946477e-13
0.0044686452
-1.0519142e-12
0.0044686452
1.3304827e-12
0.0044686452
-1.5820328e-13
0.0044686452
2.3053397e-12
0.0044686452
4.7503098e-13
0.0044686452
2.6282468e-12
0.0044686452
5.8828809e-13
0.0044686452
2.7375598e-12
0.0044686452
4.5889918e-13
0.0044686452
2.1264955e-12
0.0044686452
-1.4299742e-13
0.0044686452
1.5267158e-12
0.0044686452
-9.3540221e-13
0.0044686452
5.0740589e-13
0.0044686452
-1.8297619e-12
0.0044686452
-8.6121794e-14
0.0044686452
-2.4156919e-12
0.0044686452
-5.7986317e-13
0.0044686452
-2.7472651e-12
0.0044686452
-5.4003331e-13
0.0044686452
-2.556012e-12
0.0044686452
-4.1737648e-13
0.0044686452
-2.1160877e-12
0.0044686452
2.8201601e-13
0.0044686451
-1.3205056e-12
0.0044686451
9.9478471e-13
0.0044686451
-4.6990664e-13
0.0044686451
2.0700085e-12
0.0044686451
4.6244812e-13
0.0044686451
2.9429302e-12
0.0044686452
1.181225e-12
0.0044686452
4.319628e-12
0.0044686452
2.8341563e-12
0.0044686452
7.3453789e-12
0.0044686452
6.4672763e-12
0.0044686452
1.2751507e-11
0.0044686452
9.4961305e-12
0.0044686452
1.9823048e-11
0.0044686452
2.3998003e-11
0.0044686451
2.9360436e-11
0.004468645
9.1452154e-11
1.5472004e-10
0.0042896795
-5.1296908e-06
0.0042986002
-1.8310455e-05
0.0043083037
-2.1556946e-05
0.0043157951
-1.7921716e-05
0.0043208634
-1.2972993e-05
0.0043241052
-8.8104444e-06
0.0043260311
-5.5549288e-06
0.0043270525
-3.1534439e-06
0.0043275245
-1.5880003e-06
0.0043277105
-7.0561746e-07
0.0043277682
-2.7014943e-07
0.0043277767
-8.0448039e-08
0.0043277711
-1.0426267e-08
0.0043277632
9.3762552e-09
0.0043277577
1.0846704e-08
0.0043277543
7.6597392e-09
0.0043277524
4.6232977e-09
0.0043277513
2.6215518e-09
0.0043277508
1.4740623e-09
0.0043277505
8.3748362e-10
0.0043277504
4.9294387e-10
0.0043277503
2.8930774e-10
0.0043277503
1.7511346e-10
0.0043277503
9.823425e-11
0.0043277503
5.8877319e-11
0.0043277503
2.7803728e-11
0.0043277504
1.6752861e-11
0.0043277504
4.2021736e-12
0.0043277504
3.1918414e-12
0.0043277504
-2.4378746e-12
0.0043277504
-4.3000016e-13
0.0043277504
-3.90626e-12
0.0043277504
-5.8546349e-13
0.0043277504
-3.4349695e-12
0.0043277504
-1.190151e-14
0.0043277504
-2.6780212e-12
0.0043277504
1.153642e-12
0.0043277504
-1.5016154e-12
0.0043277504
2.0928415e-12
0.0043277504
-7.352216e-13
0.0043277504
2.7596314e-12
0.0043277504
-2.2347159e-13
0.0043277504
2.7163322e-12
0.0043277504
-6.2854471e-13
0.0043277504
2.3247942e-12
0.0043277504
-1.2321085e-12
0.0043277504
1.4699685e-12
0.0043277504
-2.1953874e-12
0.0043277504
7.1917446e-13
0.0043277504
-2.660484e-12
0.0043277504
2.050476e-13
0.0043277504
-2.9351319e-12
0.0043277504
3.4955611e-13
0.0043277504
-2.500884e-12
0.0043277504
8.5756027e-13
0.0043277504
-2.0243187e-12
0.0043277504
1.7039744e-12
0.0043277504
-1.103996e-12
0.0043277504
2.3326737e-12
0.0043277504
-5.6500699e-13
0.0043277504
2.8389486e-12
0.0043277504
-1.592048e-13
0.0043277504
2.8020538e-12
0.0043277504
-4.5140151e-13
0.0043277504
2.5350159e-12
0.0043277504
-8.8250479e-13
0.0043277504
1.8845669e-12
0.0043277504
-1.7347984e-12
0.0043277504
1.2435107e-12
0.0043277504
-2.2503458e-12
0.0043277504
4.8433494e-13
0.0043277504
-2.8508221e-12
0.0043277504
2.2197086e-13
0.0043277504
-2.8761748e-12
0.0043277504
1.7680092e-13
0.0043277504
-2.8086133e-12
0.0043277504
6.4859018e-13
0.0043277504
-2.1995366e-12
0.0043277504
1.2547164e-12
0.0043277504
-1.6467626e-12
0.0043277504
2.0691717e-12
0.0043277504
-6.8083608e-13
0.0043277504
2.696502e-12
0.0043277504
-1.2457757e-13
0.0043277504
3.3430658e-12
0.0043277504
4.0981351e-13
0.0043277504
3.6057175e-12
0.0043277504
5.0840263e-13
0.0043277504
3.8761829e-12
0.0043277504
9.4561185e-13
0.0043277504
4.8677374e-12
0.0043277504
2.2371896e-12
0.0043277504
6.8637508e-12
0.0043277504
4.4521731e-12
0.0043277505
7.4811057e-12
0.0043277504
1.2517506e-11
0.0043277504
2.2035798e-11
0.0043277504
2.9881464e-11
0.0043277504
1.3047866e-10
2.301443e-10
0.0039424938
-7.6293516e-06
0.0039473389
-2.3158666e-05
0.0039501724
-2.4390878e-05
0.0039506607
-1.8408736e-05
0.0039499968
-1.2307411e-05
0.0039490369
-7.8492098e-06
0.0039481607
-4.6774127e-06
0.0039475041
-2.4954269e-06
0.0039470804
-1.1629046e-06
0.0039468404
-4.6413108e-07
0.0039467188
-1.4729318e-07
0.0039466629
-2.3435287e-08
0.003946639
1.430767e-08
0.0039466298
1.9220311e-08
0.0039466267
1.4531392e-08
0.0039466256
9.126662e-09
0.0039466252
5.2758479e-09
0.0039466251
2.9492366e-09
0.003946625
1.6407022e-09
0.0039466251
9.2023461e-10
0.0039466251
5.2155852e-10
0.0039466252
2.9509023e-10
0.0039466252
1.6485982e-10
0.0039466253
8.8419012e-11
0.0039466253
4.5059879e-11
0.0039466254
1.9672649e-11
0.0039466254
6.8357255e-12
0.0039466254
-2.0144393e-13
0.0039466254
-3.0111534e-12
0.0039466254
-4.6307713e-12
0.0039466254
-4.3827447e-12
0.0039466254
-4.2114486e-12
0.0039466254
-3.1066697e-12
0.0039466254
-2.8593966e-12
0.0039466254
-1.7469074e-12
0.0039466254
-1.2927264e-12
0.0039466254
-1.4583485e-13
0.0039466254
-1.5885605e-13
0.0039466254
6.3062958e-13
0.0039466255
5.9064481e-13
0.0039466254
1.1501238e-12
0.0039466255
6.0641429e-13
0.0039466255
7.3918951e-13
0.0039466255
1.3799656e-13
0.0039466255
2.918899e-13
0.0039466255
-6.0774801e-13
0.0039466255
-5.4102721e-13
0.0039466255
-1.1557567e-12
0.0039466255
-8.5096442e-13
0.0039466255
-1.4167479e-12
0.0039466255
-1.0064543e-12
0.0039466255
-1.0953141e-12
0.0039466255
-3.8331561e-13
0.0039466255
-5.3182436e-13
0.0039466254
1.902571e-13
0.0039466255
1.6604666e-13
0.0039466254
1.0779239e-12
0.0039466254
7.7783114e-13
0.0039466254
1.3324248e-12
0.0039466254
1.1009364e-12
0.0039466254
1.5363686e-12
0.0039466255
8.9913367e-13
0.0039466254
9.816178e-13
0.0039466255
3.8880252e-13
0.0039466255
4.8974765e-13
0.0039466255
-4.1195361e-13
0.0039466255
-3.6826245e-13
0.0039466255
-1.0938295e-12
0.0039466255
-8.6065628e-13
0.0039466255
-1.6271393e-12
0.0039466255
-1.3712268e-12
0.0039466255
-1.6983325e-12
0.0039466255
-1.1572333e-12
0.0039466255
-1.4647006e-12
0.0039466255
-8.7174949e-13
0.0039466255
-8.0975721e-13
0.0039466255
4.0460912e-14
0.0039466255
-1.2983495e-13
0.0039466254
7.3510474e-13
0.0039466254
7.6633351e-13
0.0039466254
1.684551e-12
0.0039466254
1.4365216e-12
0.0039466254
2.0520479e-12
0.0039466254
1.8865041e-12
0.0039466254
2.4348113e-12
0.0039466254
1.8866381e-12
0.0039466254
2.1076848e-12
0.0039466254
1.6638932e-12
0.0039466254
1.9329604e-12
0.0039466255
1.4024497e-12
0.0039466255
1.6515218e-12
0.0039466255
1.2967654e-12
0.0039466255
8.6977051e-13
0.0039466255
-1.7718365e-13
0.0039466255
-2.8864706e-12
0.0039466255
2.6844821e-12
0.0039466255
8.5163559e-14
0.0039466255
7.1753104e-12
0.0039466255
9.1269948e-11
1.8296296e-10
0.0031497166
-6.736855e-06
0.0031432786
-1.6721621e-05
0.0031338146
-1.4926703e-05
0.0031250966
-9.6891865e-06
0.0031184814
-5.6899057e-06
0.0031139242
-3.2897806e-06
0.0031110473
-1.7985825e-06
0.0031094123
-8.5858102e-07
0.0031085858
-3.3459911e-07
0.0031082163
-9.3023237e-08
0.0031080745
-4.0994172e-09
0.00310803
2.2284241e-08
0.0031080231
2.2055088e-08
0.0031080272
1.5889853e-08
0.0031080323
9.8839427e-09
0.0031080362
5.6863118e-09
0.0031080386
3.1427887e-09
0.0031080401
1.7139978e-09
0.0031080409
9.2869511e-10
0.0031080414
5.0742417e-10
0.0031080418
2.7311452e-10
0.003108042
1.4833404e-10
0.0031080421
7.4933033e-11
0.0031080422
3.8604705e-11
0.0031080423
1.4906643e-11
0.0031080423
6.2817113e-12
0.0031080423
-1.370166e-12
0.0031080423
-1.3274942e-12
0.0031080424
-4.9086406e-12
0.0031080424
-2.195096e-12
0.0031080424
-4.5474616e-12
0.0031080424
-1.3168538e-12
0.0031080424
-3.4379466e-12
0.0031080424
-4.4713012e-13
0.0031080424
-2.3246816e-12
0.0031080424
6.8456331e-13
0.0031080424
-1.4395897e-12
0.0031080424
1.3429e-12
0.0031080424
-8.8746438e-13
0.0031080424
1.79857e-12
0.0031080424
-7.2698847e-13
0.0031080424
1.6301348e-12
0.0031080424
-9.8606271e-13
0.0031080424
1.3778225e-12
0.0031080424
-1.4181129e-12
0.0031080424
8.0440359e-13
0.0031080424
-1.8267726e-12
0.0031080424
5.672732e-13
0.0031080424
-2.0211186e-12
0.0031080424
3.8258194e-13
0.0031080424
-1.9245101e-12
0.0031080424
7.7916323e-13
0.0031080424
-1.5688343e-12
0.0031080424
1.1356578e-12
0.0031080424
-1.0825346e-12
0.0031080424
1.7222622e-12
0.0031080424
-6.0456376e-13
0.0031080424
1.957861e-12
0.0031080424
-3.5306719e-13
0.0031080424
2.16209e-12
0.0031080424
-3.7915886e-13
0.0031080424
1.8837429e-12
0.0031080424
-7.3846352e-13
0.0031080424
1.5974762e-12
0.0031080424
-1.2224708e-12
0.0031080424
9.7387215e-13
0.0031080424
-1.7211863e-12
0.0031080424
5.9390607e-13
0.0031080424
-2.0921814e-12
0.0031080424
1.4482823e-13
0.0031080424
-2.2525834e-12
0.0031080424
2.071822e-13
0.0031080424
-2.1712342e-12
0.0031080424
3.422102e-13
0.0031080424
-1.8609198e-12
0.0031080424
9.346312e-13
0.0031080424
-1.3713399e-12
0.0031080424
1.3695926e-12
0.0031080424
-8.0489093e-13
0.0031080424
1.9981979e-12
0.0031080424
-2.2518515e-13
0.0031080424
2.3028243e-12
0.0031080424
8.4478307e-14
0.0031080424
2.6400841e-12
0.0031080424
1.9607592e-13
0.0031080424
2.5128152e-12
0.0031080424
4.945594e-14
0.0031080424
2.3685449e-12
0.0031080424
-1.8975059e-13
0.0031080424
2.0108094e-12
0.0031080424
-6.7970304e-13
0.0031080424
1.2309614e-12
0.0031080424
-2.9620321e-12
0.0031080424
-1.9978172e-12
0.0031080424
-7.3643421e-12
0.0031080424
-7.1443704e-12
0.0031080424
-1.8377351e-11
0.0031080424
-2.0944448e-11
0.0031080425
3.0843568e-12
5.5760435e-11
0.0015142602
0.0014975385
0.0014826124
0.0014729245
0.0014672359
0.0014639472
0.0014621497
0.001461292
0.0014609583
0.0014608661
0.0014608626
0.0014608854
0.0014609079
0.001460924
0.0014609342
0.00146094
0.0014609433
0.0014609451
0.0014609461
0.0014609466
0.0014609469
0.0014609471
0.0014609472
0.0014609473
0.0014609473
0.0014609473
0.0014609473
0.0014609473
0.0014609473
0.0014609473
0.0014609473
0.0014609473
0.0014609473
0.0014609473
0.0014609473
0.0014609473
0.0014609473
0.0014609473
0.0014609473
0.0014609473
0.0014609473
0.0014609473
0.0014609473
0.0014609473
0.0014609473
0.0014609473
0.0014609473
0.0014609473
0.0014609473
0.0014609473
0.0014609473
0.0014609473
0.0014609473
0.0014609473
0.0014609473
0.0014609473
0.0014609473
0.0014609473
0.0014609473
0.0014609473
0.0014609473
0.0014609473
0.0014609473
0.0014609473
0.0014609473
0.0014609473
0.0014609473
0.0014609473
0.0014609473
0.0014609473
0.0014609473
0.0014609473
0.0014609473
0.0014609473
0.0014609473
0.0014609473
0.0014609473
0.0014609473
0.0014609473
0.0014609473
0.0014609473
0.0014609473
0.0014609473
0.0014609473
0.0014609473
0.0014609473
0.0014609473
0.0014609473
0.0014609473
0.0014609473
0.0014609473
0.0014609473
0.0014609473
0.0014609473
0.0014609473
0.0014609473
0.0014609473
0.0014609472
0.0014609472
)
;

boundaryField
{
    top
    {
        type            calculated;
        value           uniform 0;
    }
    inlet
    {
        type            calculated;
        value           nonuniform List<scalar> 10(-0.001521 -0.0031506145 -0.0039399998 -0.0042868963 -0.0044134633 -0.0044134641 -0.0042868952 -0.0039399972 -0.0031506103 -0.0015209974);
    }
    outlet
    {
        type            calculated;
        value           nonuniform List<scalar> 10(0.0014609473 0.0031080426 0.0039466256 0.0043277503 0.0044686449 0.0044686449 0.0043277503 0.0039466256 0.0031080426 0.0014609473);
    }
    bottom
    {
        type            calculated;
        value           uniform 0;
    }
    back
    {
        type            empty;
        value           nonuniform List<scalar> 0();
    }
    front
    {
        type            empty;
        value           nonuniform List<scalar> 0();
    }
}


// ************************************************************************* //
