/*--------------------------------*- C++ -*----------------------------------*\
| =========                 |                                                 |
| \\      /  F ield         | OpenFOAM: The Open Source CFD Toolbox           |
|  \\    /   O peration     | Version:  2112                                  |
|   \\  /    A nd           | Website:  www.openfoam.com                      |
|    \\/     M anipulation  |                                                 |
\*---------------------------------------------------------------------------*/
FoamFile
{
    version     2.0;
    format      ascii;
    arch        "LSB;label=32;scalar=64";
    class       volVectorField;
    location    "3";
    object      U;
}
// * * * * * * * * * * * * * * * * * * * * * * * * * * * * * * * * * * * * * //

dimensions      [0 1 -1 0 0 0 0];

internalField   nonuniform List<vector> 
1000
(
(0.15192949 0.00045613928 0)
(0.1509415 0.0010106911 0)
(0.14904739 0.00084326775 0)
(0.14769896 0.00048354782 0)
(0.14694836 0.00024267366 0)
(0.14652837 0.00012179045 0)
(0.14628684 5.780662e-05 0)
(0.14616037 2.1648931e-05 0)
(0.14610582 4.1007267e-06 0)
(0.14608811 -2.04204e-06 0)
(0.14608525 -3.0792371e-06 0)
(0.14608703 -2.4305272e-06 0)
(0.14608959 -1.619113e-06 0)
(0.14609162 -9.84621e-07 0)
(0.14609296 -5.6170695e-07 0)
(0.14609375 -3.080472e-07 0)
(0.14609419 -1.6579019e-07 0)
(0.14609443 -8.8385382e-08 0)
(0.14609457 -4.6820262e-08 0)
(0.14609464 -2.4429839e-08 0)
(0.14609468 -1.2472504e-08 0)
(0.14609471 -5.9837695e-09 0)
(0.14609472 -2.6228109e-09 0)
(0.14609472 -8.0594936e-10 0)
(0.14609473 1.7186667e-11 0)
(0.14609473 4.623644e-10 0)
(0.14609473 5.1574061e-10 0)
(0.14609473 5.6398082e-10 0)
(0.14609473 4.7545887e-10 0)
(0.14609473 4.6136359e-10 0)
(0.14609473 3.3918316e-10 0)
(0.14609473 3.0752199e-10 0)
(0.14609473 1.8516775e-10 0)
(0.14609473 1.6296977e-10 0)
(0.14609473 4.7609895e-11 0)
(0.14609473 4.6038029e-11 0)
(0.14609473 -4.3692693e-11 0)
(0.14609473 -6.5765698e-12 0)
(0.14609473 -6.6579704e-11 0)
(0.14609473 -6.1371983e-12 0)
(0.14609473 -4.1079096e-11 0)
(0.14609473 4.1423244e-11 0)
(0.14609473 1.510744e-11 0)
(0.14609473 9.3134482e-11 0)
(0.14609473 6.7043821e-11 0)
(0.14609473 1.316249e-10 0)
(0.14609473 8.2666971e-11 0)
(0.14609473 1.2183054e-10 0)
(0.14609473 5.4022193e-11 0)
(0.14609473 7.8209661e-11 0)
(0.14609473 -1.2195009e-11 0)
(0.14609473 8.9085312e-12 0)
(0.14609473 -7.778398e-11 0)
(0.14609473 -5.7149858e-11 0)
(0.14609473 -1.3266516e-10 0)
(0.14609473 -9.9305359e-11 0)
(0.14609473 -1.5068204e-10 0)
(0.14609473 -9.2574683e-11 0)
(0.14609473 -1.2671642e-10 0)
(0.14609473 -5.2010929e-11 0)
(0.14609473 -6.8608685e-11 0)
(0.14609473 2.5223743e-11 0)
(0.14609473 3.9989294e-12 0)
(0.14609473 9.1514049e-11 0)
(0.14609473 7.5949077e-11 0)
(0.14609473 1.5236072e-10 0)
(0.14609473 1.1835125e-10 0)
(0.14609473 1.7256547e-10 0)
(0.14609473 1.2267795e-10 0)
(0.14609473 1.605381e-10 0)
(0.14609473 8.7867268e-11 0)
(0.14609473 1.0632731e-10 0)
(0.14609473 2.1982388e-11 0)
(0.14609473 4.0116734e-11 0)
(0.14609473 -5.5859806e-11 0)
(0.14609473 -4.4946375e-11 0)
(0.14609473 -1.291407e-10 0)
(0.14609473 -1.084916e-10 0)
(0.14609473 -1.821952e-10 0)
(0.14609473 -1.5023299e-10 0)
(0.14609473 -2.0294754e-10 0)
(0.14609473 -1.4953821e-10 0)
(0.14609473 -1.873682e-10 0)
(0.14609473 -1.1905796e-10 0)
(0.14609473 -1.3715683e-10 0)
(0.14609473 -4.9225454e-11 0)
(0.14609473 -6.0080007e-11 0)
(0.14609473 3.9857067e-11 0)
(0.14609473 3.6179591e-11 0)
(0.14609473 1.4029129e-10 0)
(0.14609473 1.4732747e-10 0)
(0.14609473 2.5703097e-10 0)
(0.14609473 3.0129472e-10 0)
(0.14609473 4.8837902e-10 0)
(0.14609473 7.3652763e-10 0)
(0.14609473 1.0011083e-09 0)
(0.14609473 1.5107391e-09 0)
(0.14609473 1.5607785e-09 0)
(0.14609472 1.0066344e-09 0)
(0.14609472 -1.9761986e-09 0)
(0.31472857 0.00074642188 0)
(0.31567785 0.0021849575 0)
(0.31416615 0.0022294146 0)
(0.31285235 0.0015942826 0)
(0.3120891 0.00099523917 0)
(0.31158968 0.00059453809 0)
(0.31123208 0.00033406083 0)
(0.31100596 0.00016658362 0)
(0.31088702 7.0243489e-05 0)
(0.31083319 2.3375552e-05 0)
(0.31081147 4.3306983e-06 0)
(0.31080395 -1.7601294e-06 0)
(0.31080216 -2.7994778e-06 0)
(0.31080237 -2.2538349e-06 0)
(0.31080297 -1.4715e-06 0)
(0.31080346 -8.6837722e-07 0)
(0.31080377 -4.8801407e-07 0)
(0.31080396 -2.6899821e-07 0)
(0.31080407 -1.4777826e-07 0)
(0.31080413 -8.1300663e-08 0)
(0.31080417 -4.4628717e-08 0)
(0.3108042 -2.4068022e-08 0)
(0.31080421 -1.2499336e-08 0)
(0.31080422 -5.9450285e-09 0)
(0.31080423 -2.3505862e-09 0)
(0.31080423 -3.922526e-10 0)
(0.31080423 5.2084331e-10 0)
(0.31080423 9.4394169e-10 0)
(0.31080424 1.0425537e-09 0)
(0.31080424 1.03079e-09 0)
(0.31080424 8.8650263e-10 0)
(0.31080424 7.4464247e-10 0)
(0.31080424 5.5088015e-10 0)
(0.31080424 4.0311732e-10 0)
(0.31080424 2.2163484e-10 0)
(0.31080424 1.0881908e-10 0)
(0.31080424 -2.0733718e-12 0)
(0.31080424 -3.9709132e-11 0)
(0.31080424 -8.471722e-11 0)
(0.31080424 -5.8546182e-11 0)
(0.31080424 -3.5286731e-11 0)
(0.31080424 3.9265943e-11 0)
(0.31080424 7.9341196e-11 0)
(0.31080424 1.6016817e-10 0)
(0.31080424 1.9477835e-10 0)
(0.31080424 2.5205324e-10 0)
(0.31080424 2.3682568e-10 0)
(0.31080424 2.3739693e-10 0)
(0.31080424 1.7877166e-10 0)
(0.31080424 1.4145542e-10 0)
(0.31080424 4.5196523e-11 0)
(0.31080424 -1.9016466e-11 0)
(0.31080424 -1.1867456e-10 0)
(0.31080424 -1.6908959e-10 0)
(0.31080424 -2.5165169e-10 0)
(0.31080424 -2.7163224e-10 0)
(0.31080423 -3.0338966e-10 0)
(0.31080424 -2.6736991e-10 0)
(0.31080423 -2.5569928e-10 0)
(0.31080424 -1.8109216e-10 0)
(0.31080423 -1.251934e-10 0)
(0.31080424 -2.1977661e-11 0)
(0.31080424 4.2549935e-11 0)
(0.31080424 1.4743339e-10 0)
(0.31080424 2.0862999e-10 0)
(0.31080424 2.9698522e-10 0)
(0.31080424 3.1751981e-10 0)
(0.31080424 3.5820418e-10 0)
(0.31080424 3.3964603e-10 0)
(0.31080424 3.4067872e-10 0)
(0.31080424 2.710778e-10 0)
(0.31080424 2.2433078e-10 0)
(0.31080424 1.2684792e-10 0)
(0.31080424 5.9510947e-11 0)
(0.31080424 -5.1228825e-11 0)
(0.31080424 -1.2660528e-10 0)
(0.31080424 -2.3164121e-10 0)
(0.31080424 -2.8381551e-10 0)
(0.31080424 -3.6926262e-10 0)
(0.31080424 -3.9421702e-10 0)
(0.31080423 -4.3497967e-10 0)
(0.31080423 -4.1087585e-10 0)
(0.31080423 -4.1395888e-10 0)
(0.31080423 -3.5316218e-10 0)
(0.31080423 -3.0866522e-10 0)
(0.31080423 -2.0306558e-10 0)
(0.31080423 -1.3146248e-10 0)
(0.31080423 -1.0448923e-11 0)
(0.31080423 9.2958613e-11 0)
(0.31080424 2.4455856e-10 0)
(0.31080424 3.53082e-10 0)
(0.31080424 5.0154163e-10 0)
(0.31080424 6.7011595e-10 0)
(0.31080424 8.937405e-10 0)
(0.31080424 1.4349866e-09 0)
(0.31080424 1.3889401e-09 0)
(0.31080424 2.0381791e-09 0)
(0.31080424 1.6429162e-09 0)
(0.31080423 -3.8056007e-09 0)
(0.31080426 -1.229761e-08 0)
(0.39346489 0.00061517883 0)
(0.39598651 0.0021416548 0)
(0.39538523 0.0024852533 0)
(0.39493558 0.0020330022 0)
(0.39494536 0.0014428207 0)
(0.3949645 0.00095898633 0)
(0.39488262 0.0005926769 0)
(0.39478608 0.00033006423 0)
(0.39472458 0.00016260989 0)
(0.39469297 7.0178941e-05 0)
(0.39467675 2.5682159e-05 0)
(0.39466847 6.8601083e-06 0)
(0.39466471 1.9046507e-07 0)
(0.39466328 -1.4144213e-06 0)
(0.39466279 -1.3281889e-06 0)
(0.39466262 -8.9531272e-07 0)
(0.39466256 -5.3271784e-07 0)
(0.39466253 -3.0166617e-07 0)
(0.39466252 -1.6910055e-07 0)
(0.39466252 -9.5858648e-08 0)
(0.39466252 -5.5115376e-08 0)
(0.39466253 -3.1815822e-08 0)
(0.39466253 -1.8016515e-08 0)
(0.39466253 -9.7577509e-09 0)
(0.39466254 -4.7704373e-09 0)
(0.39466254 -1.8871845e-09 0)
(0.39466254 -2.3205697e-10 0)
(0.39466254 6.0048854e-10 0)
(0.39466254 9.9644816e-10 0)
(0.39466254 1.0698612e-09 0)
(0.39466254 1.0195382e-09 0)
(0.39466254 8.4653123e-10 0)
(0.39466254 6.7824819e-10 0)
(0.39466254 4.6638964e-10 0)
(0.39466254 3.0226367e-10 0)
(0.39466254 1.3558739e-10 0)
(0.39466254 4.0231119e-11 0)
(0.39466254 -4.2631875e-11 0)
(0.39466254 -5.3752193e-11 0)
(0.39466254 -5.3456393e-11 0)
(0.39466254 8.8384774e-12 0)
(0.39466254 5.3924277e-11 0)
(0.39466254 1.3851506e-10 0)
(0.39466254 1.8479398e-10 0)
(0.39466254 2.563121e-10 0)
(0.39466254 2.6946051e-10 0)
(0.39466254 2.8736776e-10 0)
(0.39466255 2.4385714e-10 0)
(0.39466255 2.1053909e-10 0)
(0.39466255 1.2296863e-10 0)
(0.39466255 4.3670251e-11 0)
(0.39466255 -6.8491881e-11 0)
(0.39466254 -1.3735162e-10 0)
(0.39466254 -2.33066e-10 0)
(0.39466254 -2.7844844e-10 0)
(0.39466254 -3.3523379e-10 0)
(0.39466254 -3.2575347e-10 0)
(0.39466254 -3.2472468e-10 0)
(0.39466254 -2.6559757e-10 0)
(0.39466254 -2.1523443e-10 0)
(0.39466254 -1.1196518e-10 0)
(0.39466254 -2.5501148e-11 0)
(0.39466254 9.0035408e-11 0)
(0.39466254 1.6647233e-10 0)
(0.39466254 2.7262747e-10 0)
(0.39466254 3.2572689e-10 0)
(0.39466254 3.9055134e-10 0)
(0.39466255 3.9526928e-10 0)
(0.39466255 4.1343741e-10 0)
(0.39466255 3.6847815e-10 0)
(0.39466255 3.3097538e-10 0)
(0.39466255 2.3969501e-10 0)
(0.39466255 1.6754811e-10 0)
(0.39466255 5.0618895e-11 0)
(0.39466255 -4.3922763e-11 0)
(0.39466255 -1.6848439e-10 0)
(0.39466254 -2.4758903e-10 0)
(0.39466254 -3.5217725e-10 0)
(0.39466254 -4.0664899e-10 0)
(0.39466254 -4.7659942e-10 0)
(0.39466254 -4.8277467e-10 0)
(0.39466254 -5.0235905e-10 0)
(0.39466254 -4.6304472e-10 0)
(0.39466254 -4.3433284e-10 0)
(0.39466254 -3.4362999e-10 0)
(0.39466254 -2.6665797e-10 0)
(0.39466254 -1.4079933e-10 0)
(0.39466254 -2.3973465e-11 0)
(0.39466254 1.3718189e-10 0)
(0.39466254 2.6690108e-10 0)
(0.39466254 4.3291873e-10 0)
(0.39466254 5.5461502e-10 0)
(0.39466254 8.0901268e-10 0)
(0.39466255 9.2736705e-10 0)
(0.39466255 1.4183162e-09 0)
(0.39466255 7.0380278e-10 0)
(0.39466254 1.4008509e-10 0)
(0.39466256 -1.1899984e-09 0)
(0.39466254 -1.2064233e-08 0)
(0.39466257 -2.3423488e-08 0)
(0.42800567 0.00035885578 0)
(0.43119502 0.0013932642 0)
(0.43095597 0.0017405765 0)
(0.43105731 0.0015276555 0)
(0.43172803 0.0011562186 0)
(0.43229187 0.00081194225 0)
(0.43256708 0.00052720546 0)
(0.43268139 0.00030904021 0)
(0.43273774 0.00016160885 0)
(0.4327665 7.5233534e-05 0)
(0.43277706 3.0805302e-05 0)
(0.43277865 1.0498528e-05 0)
(0.43277778 2.3935924e-06 0)
(0.4327768 -2.0719709e-07 0)
(0.43277608 -6.8241937e-07 0)
(0.43277562 -5.4993033e-07 0)
(0.43277535 -3.4441363e-07 0)
(0.4327752 -1.965992e-07 0)
(0.43277512 -1.0951661e-07 0)
(0.43277508 -6.2129015e-08 0)
(0.43277505 -3.6248922e-08 0)
(0.43277504 -2.1658094e-08 0)
(0.43277504 -1.2717675e-08 0)
(0.43277504 -7.2310602e-09 0)
(0.43277503 -3.6224635e-09 0)
(0.43277504 -1.5083556e-09 0)
(0.43277504 -1.1897762e-10 0)
(0.43277504 5.0919902e-10 0)
(0.43277504 9.1332104e-10 0)
(0.43277504 9.1437365e-10 0)
(0.43277504 9.3909521e-10 0)
(0.43277504 7.1559832e-10 0)
(0.43277504 6.2472764e-10 0)
(0.43277504 3.6224551e-10 0)
(0.43277504 2.8672498e-10 0)
(0.43277504 7.044243e-11 0)
(0.43277504 6.170711e-11 0)
(0.43277504 -6.6520614e-11 0)
(0.43277504 9.0144137e-12 0)
(0.43277504 -5.1973595e-11 0)
(0.43277504 7.2446748e-11 0)
(0.43277504 5.162782e-11 0)
(0.43277504 1.9850464e-10 0)
(0.43277504 1.6973665e-10 0)
(0.43277504 2.90024e-10 0)
(0.43277504 2.2057961e-10 0)
(0.43277504 2.9437157e-10 0)
(0.43277504 1.7192443e-10 0)
(0.43277504 1.95818e-10 0)
(0.43277504 3.4228272e-11 0)
(0.43277504 3.5104921e-11 0)
(0.43277504 -1.3202237e-10 0)
(0.43277504 -1.3017912e-10 0)
(0.43277504 -2.8047768e-10 0)
(0.43277504 -2.4320317e-10 0)
(0.43277504 -3.5145278e-10 0)
(0.43277504 -2.662751e-10 0)
(0.43277504 -3.2243617e-10 0)
(0.43277504 -1.8400002e-10 0)
(0.43277504 -1.9764938e-10 0)
(0.43277504 -2.8889748e-11 0)
(0.43277504 -2.1674527e-11 0)
(0.43277504 1.514738e-10 0)
(0.43277504 1.5338655e-10 0)
(0.43277504 3.0993637e-10 0)
(0.43277504 2.8403181e-10 0)
(0.43277504 4.0581681e-10 0)
(0.43277504 3.3481159e-10 0)
(0.43277504 4.0662443e-10 0)
(0.43277504 2.8703406e-10 0)
(0.43277504 3.1590491e-10 0)
(0.43277504 1.5681102e-10 0)
(0.43277504 1.5465971e-10 0)
(0.43277504 -1.9199255e-11 0)
(0.43277504 -3.2473189e-11 0)
(0.43277504 -2.1172644e-10 0)
(0.43277504 -2.176812e-10 0)
(0.43277504 -3.7687098e-10 0)
(0.43277504 -3.5071566e-10 0)
(0.43277504 -4.7426745e-10 0)
(0.43277504 -4.0867267e-10 0)
(0.43277504 -4.8726219e-10 0)
(0.43277504 -3.7249215e-10 0)
(0.43277504 -4.0582055e-10 0)
(0.43277504 -2.4984251e-10 0)
(0.43277504 -2.438083e-10 0)
(0.43277504 -4.8590212e-11 0)
(0.43277504 -1.0334922e-11 0)
(0.43277504 2.0086834e-10 0)
(0.43277504 2.5355214e-10 0)
(0.43277504 4.7712835e-10 0)
(0.43277504 5.5473881e-10 0)
(0.43277504 8.9960728e-10 0)
(0.43277504 9.6484814e-10 0)
(0.43277504 1.3619384e-09 0)
(0.43277505 5.2361156e-10 0)
(0.43277504 -5.2985601e-10 0)
(0.43277505 -1.8428823e-09 0)
(0.43277502 -1.156252e-08 0)
(0.43277504 -2.1408959e-08 0)
(0.44059053 0.00011375609 0)
(0.44396652 0.00046733875 0)
(0.44376244 0.00060458639 0)
(0.44404518 0.0005479826 0)
(0.44501871 0.00042694665 0)
(0.44587063 0.00030744892 0)
(0.44635558 0.00020421652 0)
(0.44660593 0.00012246659 0)
(0.44674493 6.5656539e-05 0)
(0.44681951 3.1465069e-05 0)
(0.4468524 1.3382737e-05 0)
(0.44686343 4.8662e-06 0)
(0.44686601 1.3368562e-06 0)
(0.44686612 1.0289049e-07 0)
(0.44686566 -1.7854903e-07 0)
(0.44686519 -1.7022156e-07 0)
(0.44686488 -1.0994971e-07 0)
(0.4468647 -6.2059182e-08 0)
(0.44686461 -3.3625612e-08 0)
(0.44686456 -1.8500821e-08 0)
(0.44686454 -1.0545978e-08 0)
(0.44686452 -6.1473178e-09 0)
(0.44686452 -3.4620742e-09 0)
(0.44686451 -1.7501593e-09 0)
(0.44686451 -6.1423152e-10 0)
(0.44686451 1.0214944e-10 0)
(0.44686451 5.5037394e-10 0)
(0.44686451 7.4453615e-10 0)
(0.44686451 8.1247534e-10 0)
(0.44686451 7.6432114e-10 0)
(0.44686452 6.853383e-10 0)
(0.44686451 5.3156794e-10 0)
(0.44686452 4.0168932e-10 0)
(0.44686452 2.4680877e-10 0)
(0.44686452 1.5598657e-10 0)
(0.44686452 4.0061997e-11 0)
(0.44686452 1.4629896e-11 0)
(0.44686452 -2.5075898e-11 0)
(0.44686452 1.7710002e-11 0)
(0.44686452 1.7510215e-11 0)
(0.44686452 8.5294169e-11 0)
(0.44686452 1.1424112e-10 0)
(0.44686452 1.8810205e-10 0)
(0.44686452 1.9886314e-10 0)
(0.44686452 2.336136e-10 0)
(0.44686452 2.1131723e-10 0)
(0.44686452 2.1157598e-10 0)
(0.44686452 1.3800439e-10 0)
(0.44686452 9.3819837e-11 0)
(0.44686452 3.6109239e-13 0)
(0.44686452 -3.4824685e-11 0)
(0.44686452 -1.3185604e-10 0)
(0.44686452 -1.7567776e-10 0)
(0.44686452 -2.384864e-10 0)
(0.44686452 -2.3981733e-10 0)
(0.44686452 -2.6948356e-10 0)
(0.44686452 -2.36129e-10 0)
(0.44686452 -2.1770431e-10 0)
(0.44686452 -1.3482843e-10 0)
(0.44686452 -9.3265624e-11 0)
(0.44686452 2.0188151e-12 0)
(0.44686452 4.6868686e-11 0)
(0.44686452 1.4658647e-10 0)
(0.44686452 1.8626863e-10 0)
(0.44686452 2.5336109e-10 0)
(0.44686452 2.719555e-10 0)
(0.44686452 3.1313004e-10 0)
(0.44686452 2.8690659e-10 0)
(0.44686452 2.8169299e-10 0)
(0.44686452 2.2393092e-10 0)
(0.44686452 1.944025e-10 0)
(0.44686452 1.0073555e-10 0)
(0.44686452 4.7308577e-11 0)
(0.44686452 -5.0105941e-11 0)
(0.44686452 -9.1163113e-11 0)
(0.44686452 -1.8581743e-10 0)
(0.44686452 -2.3163385e-10 0)
(0.44686452 -2.9734701e-10 0)
(0.44686452 -3.0803609e-10 0)
(0.44686452 -3.4921214e-10 0)
(0.44686452 -3.3434272e-10 0)
(0.44686452 -3.3353962e-10 0)
(0.44686452 -2.7372888e-10 0)
(0.44686451 -2.4631304e-10 0)
(0.44686451 -1.6270469e-10 0)
(0.44686451 -1.0327911e-10 0)
(0.44686451 1.4697648e-11 0)
(0.44686451 7.710839e-11 0)
(0.44686452 2.0049528e-10 0)
(0.44686451 2.9637585e-10 0)
(0.44686452 4.5178468e-10 0)
(0.44686452 6.2821567e-10 0)
(0.44686452 9.1486779e-10 0)
(0.44686452 1.1459499e-09 0)
(0.44686452 1.3732672e-09 0)
(0.44686452 1.0522507e-09 0)
(0.44686451 5.0114631e-10 0)
(0.44686452 -2.1435974e-10 0)
(0.44686449 -4.2300008e-09 0)
(0.4468645 -8.2208989e-09 0)
(0.44059061 -0.00011376344 0)
(0.44396649 -0.00046736504 0)
(0.4437624 -0.00060459999 0)
(0.44404519 -0.00054800964 0)
(0.44501874 -0.00042703398 0)
(0.44587064 -0.00030760731 0)
(0.44635557 -0.00020440952 0)
(0.44660591 -0.00012265114 0)
(0.4467449 -6.5809168e-05 0)
(0.44681948 -3.1579909e-05 0)
(0.44685236 -1.3463267e-05 0)
(0.4468634 -4.9177158e-06 0)
(0.44686598 -1.3667614e-06 0)
(0.44686609 -1.1812605e-07 0)
(0.44686564 1.7194112e-07 0)
(0.44686518 1.691985e-07 0)
(0.44686487 1.1149261e-07 0)
(0.44686469 6.4939459e-08 0)
(0.44686461 3.6620242e-08 0)
(0.44686456 2.1623888e-08 0)
(0.44686453 1.3235579e-08 0)
(0.44686452 8.8049784e-09 0)
(0.44686451 5.7148498e-09 0)
(0.44686451 4.0357272e-09 0)
(0.44686451 2.5689493e-09 0)
(0.44686451 1.9586616e-09 0)
(0.44686451 1.1937898e-09 0)
(0.44686451 1.0483625e-09 0)
(0.44686451 5.6767258e-10 0)
(0.44686451 6.2023285e-10 0)
(0.44686451 2.3508299e-10 0)
(0.44686452 3.4744263e-10 0)
(0.44686452 1.2486674e-11 0)
(0.44686452 1.8988304e-10 0)
(0.44686452 -1.012573e-10 0)
(0.44686452 1.0770685e-10 0)
(0.44686452 -1.4430971e-10 0)
(0.44686452 1.1825372e-10 0)
(0.44686452 -9.6483755e-11 0)
(0.44686452 1.7778307e-10 0)
(0.44686452 -2.5061012e-11 0)
(0.44686452 2.6278295e-10 0)
(0.44686452 4.8503056e-11 0)
(0.44686452 2.9049603e-10 0)
(0.44686452 4.2420395e-11 0)
(0.44686452 2.6891498e-10 0)
(0.44686452 -7.4324701e-12 0)
(0.44686452 1.8064377e-10 0)
(0.44686452 -1.1318199e-10 0)
(0.44686452 8.8137372e-11 0)
(0.44686452 -2.0898117e-10 0)
(0.44686452 -1.9874854e-11 0)
(0.44686452 -2.9253566e-10 0)
(0.44686452 -5.866935e-11 0)
(0.44686452 -2.9723965e-10 0)
(0.44686452 -4.9735257e-11 0)
(0.44686452 -2.6167471e-10 0)
(0.44686452 2.8853355e-11 0)
(0.44686452 -1.6728645e-10 0)
(0.44686452 1.157728e-10 0)
(0.44686452 -8.1146562e-11 0)
(0.44686452 2.2221109e-10 0)
(0.44686452 2.3462428e-11 0)
(0.44686452 2.8696805e-10 0)
(0.44686452 6.5071327e-11 0)
(0.44686452 3.1815979e-10 0)
(0.44686452 7.1704887e-11 0)
(0.44686452 2.8271663e-10 0)
(0.44686452 1.0985737e-11 0)
(0.44686452 2.2293224e-10 0)
(0.44686452 -6.0649406e-11 0)
(0.44686452 1.2891148e-10 0)
(0.44686452 -1.6243803e-10 0)
(0.44686452 4.430992e-11 0)
(0.44686452 -2.4141762e-10 0)
(0.44686452 -4.3498785e-11 0)
(0.44686452 -3.0817291e-10 0)
(0.44686452 -7.3329779e-11 0)
(0.44686452 -3.140865e-10 0)
(0.44686452 -7.4319841e-11 0)
(0.44686452 -2.9578699e-10 0)
(0.44686452 -1.6350524e-11 0)
(0.44686452 -2.2189822e-10 0)
(0.44686451 5.2431504e-11 0)
(0.44686451 -1.4487816e-10 0)
(0.44686451 1.576905e-10 0)
(0.44686451 -2.7539018e-11 0)
(0.44686451 2.7392674e-10 0)
(0.44686452 1.0410095e-10 0)
(0.44686452 4.2575433e-10 0)
(0.44686452 3.2641157e-10 0)
(0.44686452 7.4812443e-10 0)
(0.44686452 7.7770323e-10 0)
(0.44686452 1.3319535e-09 0)
(0.44686452 1.2201984e-09 0)
(0.44686452 1.816034e-09 0)
(0.44686451 2.1050831e-09 0)
(0.44686452 2.2512989e-09 0)
(0.4468645 5.4279889e-09 0)
(0.4468645 8.8944973e-09 0)
(0.42800556 -0.00035886262 0)
(0.43119501 -0.0013932658 0)
(0.43095607 -0.0017405811 0)
(0.43105738 -0.0015276891 0)
(0.43172804 -0.0011563014 0)
(0.43229183 -0.00081206834 0)
(0.43256702 -0.00052735 0)
(0.43268132 -0.00030917773 0)
(0.43273765 -0.00016172431 0)
(0.43276641 -7.5323071e-05 0)
(0.43277697 -3.086947e-05 0)
(0.43277857 -1.0541339e-05 0)
(0.43277771 -2.4197151e-06 0)
(0.43277674 1.9371079e-07 0)
(0.43277603 6.76071e-07 0)
(0.43277558 5.4782398e-07 0)
(0.43277531 3.4485778e-07 0)
(0.43277518 1.980563e-07 0)
(0.4327751 1.1160267e-07 0)
(0.43277506 6.417435e-08 0)
(0.43277504 3.8380682e-08 0)
(0.43277504 2.3529299e-08 0)
(0.43277503 1.461898e-08 0)
(0.43277503 8.8836635e-09 0)
(0.43277503 5.3581676e-09 0)
(0.43277503 3.0362463e-09 0)
(0.43277503 1.7193253e-09 0)
(0.43277504 8.2252462e-10 0)
(0.43277504 4.3548709e-10 0)
(0.43277504 1.1199786e-10 0)
(0.43277504 4.1782758e-11 0)
(0.43277504 -1.0897825e-10 0)
(0.43277504 -6.0602409e-11 0)
(0.43277504 -1.2800536e-10 0)
(0.43277504 -4.95078e-11 0)
(0.43277504 -1.0483157e-10 0)
(0.43277504 2.3270982e-12 0)
(0.43277504 -2.6998859e-11 0)
(0.43277504 7.2035053e-11 0)
(0.43277504 2.5749485e-11 0)
(0.43277504 1.3032159e-10 0)
(0.43277504 8.2658682e-11 0)
(0.43277504 1.5274874e-10 0)
(0.43277504 6.2442578e-11 0)
(0.43277504 1.2005271e-10 0)
(0.43277504 2.7500297e-11 0)
(0.43277504 5.6596695e-11 0)
(0.43277504 -5.8633797e-11 0)
(0.43277504 -1.3901627e-11 0)
(0.43277504 -1.0673392e-10 0)
(0.43277504 -6.5304926e-11 0)
(0.43277504 -1.5945707e-10 0)
(0.43277504 -8.1285693e-11 0)
(0.43277504 -1.3722972e-10 0)
(0.43277504 -5.3392912e-11 0)
(0.43277504 -1.0731046e-10 0)
(0.43277504 3.0901742e-12 0)
(0.43277504 -2.4911203e-11 0)
(0.43277504 7.1534183e-11 0)
(0.43277504 1.9177269e-11 0)
(0.43277504 1.2136769e-10 0)
(0.43277504 7.6359762e-11 0)
(0.43277504 1.5175322e-10 0)
(0.43277504 7.0831092e-11 0)
(0.43277504 1.426795e-10 0)
(0.43277504 6.2518963e-11 0)
(0.43277504 1.0540992e-10 0)
(0.43277504 -2.2112918e-12 0)
(0.43277504 4.4612612e-11 0)
(0.43277504 -4.8557899e-11 0)
(0.43277504 -9.7663525e-12 0)
(0.43277504 -1.1412504e-10 0)
(0.43277504 -5.5474602e-11 0)
(0.43277504 -1.344579e-10 0)
(0.43277504 -7.7395227e-11 0)
(0.43277504 -1.5938621e-10 0)
(0.43277504 -7.3118418e-11 0)
(0.43277504 -1.2452205e-10 0)
(0.43277504 -3.8183986e-11 0)
(0.43277504 -9.2079223e-11 0)
(0.43277504 1.6057067e-11 0)
(0.43277504 -1.631371e-11 0)
(0.43277504 8.095748e-11 0)
(0.43277504 3.0499221e-11 0)
(0.43277504 1.379262e-10 0)
(0.43277504 1.0166732e-10 0)
(0.43277504 1.9307505e-10 0)
(0.43277504 1.3915487e-10 0)
(0.43277504 2.4677512e-10 0)
(0.43277504 2.345889e-10 0)
(0.43277504 3.9725935e-10 0)
(0.43277504 4.7446092e-10 0)
(0.43277504 7.1412434e-10 0)
(0.43277504 9.2765047e-10 0)
(0.43277504 9.6354513e-10 0)
(0.43277505 1.8418323e-09 0)
(0.43277504 2.7667664e-09 0)
(0.43277505 3.5061175e-09 0)
(0.43277503 1.2572096e-08 0)
(0.43277504 2.201237e-08 0)
(0.39346465 -0.00061519071 0)
(0.39598633 -0.0021417296 0)
(0.39538513 -0.0024853581 0)
(0.39493551 -0.0020330827 0)
(0.39494526 -0.0014428732 0)
(0.39496436 -0.00095903317 0)
(0.39488248 -0.00059273084 0)
(0.39478595 -0.00033012045 0)
(0.39472445 -0.00016265992 0)
(0.39469285 -7.0219672e-05 0)
(0.39467663 -2.5713738e-05 0)
(0.39466836 -6.883947e-06 0)
(0.39466463 -2.0741348e-07 0)
(0.3946632 1.4027258e-06 0)
(0.39466273 1.3218326e-06 0)
(0.39466257 8.9147906e-07 0)
(0.39466252 5.3106495e-07 0)
(0.3946625 3.0113049e-07 0)
(0.3946625 1.6957208e-07 0)
(0.3946625 9.6444408e-08 0)
(0.39466251 5.6156343e-08 0)
(0.39466252 3.2681608e-08 0)
(0.39466252 1.916402e-08 0)
(0.39466253 1.0659712e-08 0)
(0.39466253 5.9447069e-09 0)
(0.39466253 2.7822088e-09 0)
(0.39466254 1.3533442e-09 0)
(0.39466254 2.0115721e-10 0)
(0.39466254 2.0769274e-11 0)
(0.39466254 -4.2438295e-10 0)
(0.39466254 -2.2599721e-10 0)
(0.39466254 -4.7537021e-10 0)
(0.39466254 -1.5912665e-10 0)
(0.39466254 -3.696131e-10 0)
(0.39466255 -5.0401533e-11 0)
(0.39466254 -2.4907719e-10 0)
(0.39466255 8.6262504e-11 0)
(0.39466254 -1.2466449e-10 0)
(0.39466255 1.7425921e-10 0)
(0.39466254 -5.7583727e-11 0)
(0.39466255 2.3289712e-10 0)
(0.39466254 -3.5441929e-11 0)
(0.39466255 2.0450221e-10 0)
(0.39466255 -8.0332342e-11 0)
(0.39466255 1.6166443e-10 0)
(0.39466255 -1.3974129e-10 0)
(0.39466255 7.9643457e-11 0)
(0.39466255 -2.1245523e-10 0)
(0.39466255 3.9209902e-11 0)
(0.39466255 -2.4309214e-10 0)
(0.39466255 1.2384409e-11 0)
(0.39466255 -2.3823728e-10 0)
(0.39466255 5.810621e-11 0)
(0.39466255 -1.8035895e-10 0)
(0.39466255 1.0651454e-10 0)
(0.39466254 -1.1869676e-10 0)
(0.39466254 1.8743172e-10 0)
(0.39466254 -5.264124e-11 0)
(0.39466254 2.2597172e-10 0)
(0.39466254 -2.207434e-11 0)
(0.39466254 2.5966114e-10 0)
(0.39466254 -1.521387e-11 0)
(0.39466255 2.2311345e-10 0)
(0.39466254 -6.3341853e-11 0)
(0.39466255 1.7982756e-10 0)
(0.39466255 -1.1962923e-10 0)
(0.39466255 9.8762682e-11 0)
(0.39466255 -1.938239e-10 0)
(0.39466255 5.2378454e-11 0)
(0.39466255 -2.3864797e-10 0)
(0.39466255 1.0516434e-12 0)
(0.39466255 -2.7193851e-10 0)
(0.39466255 4.6886604e-12 0)
(0.39466255 -2.5490549e-10 0)
(0.39466255 2.0034209e-11 0)
(0.39466255 -2.1374831e-10 0)
(0.39466255 9.2914146e-11 0)
(0.39466255 -1.3641304e-10 0)
(0.39466255 1.5408601e-10 0)
(0.39466254 -6.9698334e-11 0)
(0.39466254 2.4022991e-10 0)
(0.39466254 1.564904e-12 0)
(0.39466254 2.8535104e-10 0)
(0.39466254 4.3548312e-11 0)
(0.39466254 3.3476489e-10 0)
(0.39466254 7.3012315e-11 0)
(0.39466254 3.2762193e-10 0)
(0.39466254 5.7115951e-11 0)
(0.39466254 3.2264576e-10 0)
(0.39466254 7.4160479e-11 0)
(0.39466255 3.4959208e-10 0)
(0.39466255 1.5421742e-10 0)
(0.39466255 4.0817629e-10 0)
(0.39466255 2.2750768e-10 0)
(0.39466255 2.3218521e-10 0)
(0.39466255 9.3658903e-10 0)
(0.39466255 1.3820531e-09 0)
(0.39466256 2.2423328e-09 0)
(0.39466254 1.273806e-08 0)
(0.39466257 2.3878474e-08 0)
(0.31472816 -0.00074643193 0)
(0.31567746 -0.0021850106 0)
(0.31416586 -0.0022294765 0)
(0.31285215 -0.0015943061 0)
(0.31208891 -0.00099521055 0)
(0.31158952 -0.00059448194 0)
(0.31123196 -0.00033400738 0)
(0.31100587 -0.0001665439 0)
(0.31088695 -7.0213794e-05 0)
(0.31083313 -2.3350059e-05 0)
(0.31081141 -4.3101603e-06 0)
(0.31080389 1.7747194e-06 0)
(0.31080211 2.8093496e-06 0)
(0.31080232 2.2601367e-06 0)
(0.31080293 1.4758233e-06 0)
(0.31080342 8.7182914e-07 0)
(0.31080375 4.9068555e-07 0)
(0.31080394 2.7134007e-07 0)
(0.31080405 1.4961865e-07 0)
(0.31080412 8.3038941e-08 0)
(0.31080416 4.6007079e-08 0)
(0.31080419 2.5420544e-08 0)
(0.31080421 1.3545578e-08 0)
(0.31080422 7.0418974e-09 0)
(0.31080423 3.1979424e-09 0)
(0.31080423 1.3168904e-09 0)
(0.31080423 1.4203218e-10 0)
(0.31080423 -1.8794626e-10 0)
(0.31080424 -5.0905187e-10 0)
(0.31080424 -4.1612101e-10 0)
(0.31080424 -5.2898901e-10 0)
(0.31080424 -3.1143587e-10 0)
(0.31080424 -3.7999726e-10 0)
(0.31080424 -1.6519465e-10 0)
(0.31080424 -2.3932014e-10 0)
(0.31080424 -1.701602e-11 0)
(0.31080424 -1.0452572e-10 0)
(0.31080424 7.9364246e-11 0)
(0.31080424 -3.2172101e-11 0)
(0.31080424 1.4297609e-10 0)
(0.31080424 1.8299498e-12 0)
(0.31080424 1.3051252e-10 0)
(0.31080424 -3.4779052e-11 0)
(0.31080424 9.4477227e-11 0)
(0.31080424 -8.2561248e-11 0)
(0.31080424 2.2482765e-11 0)
(0.31080424 -1.5081961e-10 0)
(0.31080424 -1.4474626e-11 0)
(0.31080424 -1.7121228e-10 0)
(0.31080424 -3.3849548e-11 0)
(0.31080424 -1.7153678e-10 0)
(0.31080424 3.9348681e-12 0)
(0.31080424 -1.1564855e-10 0)
(0.31080424 5.316959e-11 0)
(0.31080424 -5.8955142e-11 0)
(0.31080424 1.2992931e-10 0)
(0.31080424 1.0433961e-11 0)
(0.31080424 1.6759581e-10 0)
(0.31080424 3.3063671e-11 0)
(0.31080424 1.933377e-10 0)
(0.31080424 3.9656182e-11 0)
(0.31080424 1.6183909e-10 0)
(0.31080424 -7.7025267e-12 0)
(0.31080424 1.1893033e-10 0)
(0.31080424 -6.0826797e-11 0)
(0.31080424 4.0569028e-11 0)
(0.31080424 -1.3938114e-10 0)
(0.31080424 -1.2021681e-11 0)
(0.31080424 -1.8052708e-10 0)
(0.31080424 -5.8241525e-11 0)
(0.31080424 -2.1474375e-10 0)
(0.31080424 -5.5873844e-11 0)
(0.31080424 -1.9363106e-10 0)
(0.31080424 -3.7929786e-11 0)
(0.31080424 -1.5981876e-10 0)
(0.31080424 2.8016318e-11 0)
(0.31080424 -8.1763913e-11 0)
(0.31080424 9.3713093e-11 0)
(0.31080424 -1.607797e-11 0)
(0.31080424 1.7442169e-10 0)
(0.31080424 5.7332973e-11 0)
(0.31080424 2.2226466e-10 0)
(0.31080424 9.3935893e-11 0)
(0.31080424 2.636186e-10 0)
(0.31080424 1.1876377e-10 0)
(0.31080424 2.507481e-10 0)
(0.31080424 9.0367531e-11 0)
(0.31080424 2.2725014e-10 0)
(0.31080424 6.3459005e-11 0)
(0.31080424 1.8662534e-10 0)
(0.31080424 1.9575817e-11 0)
(0.31080424 1.2483036e-10 0)
(0.31080424 -1.7410195e-10 0)
(0.31080424 -2.1281511e-10 0)
(0.31080424 -6.8817171e-10 0)
(0.31080424 -4.668644e-10 0)
(0.31080424 -1.4326289e-09 0)
(0.31080425 -1.3967424e-09 0)
(0.31080423 3.9602647e-09 0)
(0.31080427 1.2452426e-08 0)
(0.15192924 -0.00045613718 0)
(0.15094135 -0.0010106858 0)
(0.14904734 -0.00084325822 0)
(0.14769893 -0.00048352336 0)
(0.14694834 -0.00024262748 0)
(0.14652836 -0.00012173338 0)
(0.14628687 -5.7754545e-05 0)
(0.14616042 -2.1607779e-05 0)
(0.14610586 -4.0677318e-06 0)
(0.14608814 2.0706699e-06 0)
(0.14608526 3.1030163e-06 0)
(0.14608704 2.4486262e-06 0)
(0.14608959 1.6320593e-06 0)
(0.14609162 9.9377784e-07 0)
(0.14609295 5.6808551e-07 0)
(0.14609374 3.1284304e-07 0)
(0.14609418 1.6908968e-07 0)
(0.14609443 9.0970278e-08 0)
(0.14609456 4.8587371e-08 0)
(0.14609464 2.5982883e-08 0)
(0.14609468 1.3505315e-08 0)
(0.1460947 7.0015077e-09 0)
(0.14609472 3.2586375e-09 0)
(0.14609472 1.5367694e-09 0)
(0.14609473 3.9801468e-10 0)
(0.14609473 1.0159185e-10 0)
(0.14609473 -2.6237429e-10 0)
(0.14609473 -1.4025506e-10 0)
(0.14609473 -3.1019181e-10 0)
(0.14609473 -1.2540078e-10 0)
(0.14609473 -2.5447419e-10 0)
(0.14609473 -4.764158e-11 0)
(0.14609473 -1.8789969e-10 0)
(0.14609473 1.35853e-11 0)
(0.14609473 -1.26396e-10 0)
(0.14609473 7.1822041e-11 0)
(0.14609473 -8.7440381e-11 0)
(0.14609473 9.3453365e-11 0)
(0.14609473 -6.4188623e-11 0)
(0.14609473 1.1377099e-10 0)
(0.14609473 -6.51954e-11 0)
(0.14609473 9.8844267e-11 0)
(0.14609473 -7.5796545e-11 0)
(0.14609473 8.753805e-11 0)
(0.14609473 -9.9824392e-11 0)
(0.14609473 5.8714622e-11 0)
(0.14609473 -1.1509045e-10 0)
(0.14609473 5.4372556e-11 0)
(0.14609473 -1.2543632e-10 0)
(0.14609473 4.6841852e-11 0)
(0.14609473 -1.1536067e-10 0)
(0.14609473 6.8263642e-11 0)
(0.14609473 -9.8591034e-11 0)
(0.14609473 8.2202044e-11 0)
(0.14609473 -7.1951326e-11 0)
(0.14609473 1.1247503e-10 0)
(0.14609473 -5.5365354e-11 0)
(0.14609473 1.2082795e-10 0)
(0.14609473 -4.3171967e-11 0)
(0.14609473 1.3270389e-10 0)
(0.14609473 -4.9764669e-11 0)
(0.14609473 1.1417258e-10 0)
(0.14609473 -6.1388982e-11 0)
(0.14609473 1.0194325e-10 0)
(0.14609473 -8.7066985e-11 0)
(0.14609473 6.9231272e-11 0)
(0.14609473 -1.0755021e-10 0)
(0.14609473 5.6531799e-11 0)
(0.14609473 -1.2889096e-10 0)
(0.14609473 3.6491276e-11 0)
(0.14609473 -1.3404725e-10 0)
(0.14609473 4.3641022e-11 0)
(0.14609473 -1.3203501e-10 0)
(0.14609473 4.5143766e-11 0)
(0.14609473 -1.1366655e-10 0)
(0.14609473 7.1746886e-11 0)
(0.14609473 -9.352314e-11 0)
(0.14609473 8.7324662e-11 0)
(0.14609473 -6.5251682e-11 0)
(0.14609473 1.2134756e-10 0)
(0.14609473 -4.7319966e-11 0)
(0.14609473 1.3365306e-10 0)
(0.14609473 -2.6859484e-11 0)
(0.14609473 1.5381075e-10 0)
(0.14609473 -2.4392521e-11 0)
(0.14609473 1.4408911e-10 0)
(0.14609473 -2.9868328e-11 0)
(0.14609473 1.3872203e-10 0)
(0.14609473 -4.7135534e-11 0)
(0.14609473 1.1333904e-10 0)
(0.14609473 -7.737406e-11 0)
(0.14609473 4.2761588e-11 0)
(0.14609473 -2.5320385e-10 0)