/*--------------------------------*- C++ -*----------------------------------*\
| =========                 |                                                 |
| \\      /  F ield         | OpenFOAM: The Open Source CFD Toolbox           |
|  \\    /   O peration     | Version:  v1812                                 |
|   \\  /    A nd           | Web:      www.OpenFOAM.com                      |
|    \\/     M anipulation  |                                                 |
\*---------------------------------------------------------------------------*/
FoamFile
{
    version     2.0;
    format      ascii;
    class       volVectorField;
    location    "5.35";
    object      U;
}
// * * * * * * * * * * * * * * * * * * * * * * * * * * * * * * * * * * * * * //

dimensions      [0 1 -1 0 0 0 0];


internalField   nonuniform List<vector> 
1000
(
(0.91890839 0.035821913 0)
(0.86271384 0.062195638 0)
(0.7870597 0.06251009 0)
(0.69536033 0.054550395 0)
(0.61089745 0.044531651 0)
(0.54411592 0.034015972 0)
(0.49343012 0.024187539 0)
(0.45479413 0.01614423 0)
(0.42544582 0.010265785 0)
(0.40347313 0.0063041449 0)
(0.38715766 0.0037976288 0)
(0.37496219 0.0023103372 0)
(0.36566192 0.0014930134 0)
(0.35836272 0.0010851158 0)
(0.35244267 0.00090606856 0)
(0.34748201 0.00084104642 0)
(0.34320348 0.00082371719 0)
(0.33942726 0.00081930166 0)
(0.33603794 0.00081184113 0)
(0.33296115 0.00079578771 0)
(0.3301478 0.0007707947 0)
(0.32756388 0.00073868913 0)
(0.32518425 0.00070186535 0)
(0.3229891 0.00066253756 0)
(0.32096184 0.00062246529 0)
(0.31908803 0.00058291238 0)
(0.31735477 0.00054470797 0)
(0.31575039 0.000508339 0)
(0.31426431 0.0004740444 0)
(0.31288688 0.00044189337 0)
(0.31160936 0.00041184787 0)
(0.31042388 0.00038380435 0)
(0.30932331 0.00035762516 0)
(0.30830127 0.0003331548 0)
(0.30735205 0.00031023486 0)
(0.30647056 0.00028870833 0)
(0.30565228 0.00026842857 0)
(0.30489321 0.00024925855 0)
(0.30418981 0.00023107787 0)
(0.30353895 0.00021377965 0)
(0.30293787 0.00019727725 0)
(0.30238409 0.00018149977 0)
(0.30187536 0.00016639777 0)
(0.30140961 0.00015193729 0)
(0.3009849 0.00013810388 0)
(0.30059934 0.00012489545 0)
(0.30025108 0.0001123244 0)
(0.29993825 0.00010040993 0)
(0.29965893 8.9178485e-05 0)
(0.29941114 7.8656411e-05 0)
(0.29919285 6.8869673e-05 0)
(0.29900196 5.9838112e-05 0)
(0.29883631 5.1574986e-05 0)
(0.29869373 4.4083404e-05 0)
(0.29857204 3.7356437e-05 0)
(0.29846908 3.1376315e-05 0)
(0.29838274 2.6114819e-05 0)
(0.29831102 2.1534783e-05 0)
(0.29825199 1.759063e-05 0)
(0.29820388 1.4231869e-05 0)
(0.29816504 1.1402876e-05 0)
(0.29813402 9.0474683e-06 0)
(0.29810947 7.1075114e-06 0)
(0.29809025 5.5283542e-06 0)
(0.29807536 4.2562718e-06 0)
(0.29806394 3.244047e-06 0)
(0.29805528 2.4465534e-06 0)
(0.29804877 1.8265371e-06 0)
(0.29804394 1.3488089e-06 0)
(0.29804039 9.8615141e-07 0)
(0.29803781 7.127087e-07 0)
(0.29803596 5.1022258e-07 0)
(0.29803464 3.6072355e-07 0)
(0.29803371 2.5293001e-07 0)
(0.29803307 1.7476702e-07 0)
(0.29803262 1.2009018e-07 0)
(0.29803232 8.1009532e-08 0)
(0.29803212 5.4695212e-08 0)
(0.29803198 3.5899437e-08 0)
(0.2980319 2.3922582e-08 0)
(0.29803184 1.5213576e-08 0)
(0.2980318 1.0169421e-08 0)
(0.29803178 6.1828385e-09 0)
(0.29803176 4.2667327e-09 0)
(0.29803175 2.4858695e-09 0)
(0.29803175 1.9521806e-09 0)
(0.29803174 1.1627449e-09 0)
(0.29803174 1.1991054e-09 0)
(0.29803174 1.0981282e-09 0)
(0.29803174 1.579538e-09 0)
(0.29803173 2.3490204e-09 0)
(0.29803173 3.5172764e-09 0)
(0.29803172 6.1329503e-09 0)
(0.29803172 9.538103e-09 0)
(0.29803169 1.7799118e-08 0)
(0.29803169 3.0282333e-08 0)
(0.2980316 5.717103e-08 0)
(0.29803154 1.0091975e-07 0)
(0.29803125 1.8305064e-07 0)
(0.298031 2.5485613e-07 0)
(1.0016583 0.05381943 0)
(1.0359761 0.10128444 0)
(1.0597199 0.11073663 0)
(1.0628947 0.10592202 0)
(1.0515569 0.096228728 0)
(1.0340529 0.083934061 0)
(1.0142795 0.070327063 0)
(0.99360702 0.056981334 0)
(0.97292576 0.045107479 0)
(0.95310739 0.03523675 0)
(0.93479538 0.02740165 0)
(0.91829011 0.021387227 0)
(0.90362378 0.016884498 0)
(0.89068067 0.013569708 0)
(0.87928174 0.011147747 0)
(0.86923242 0.0093736546 0)
(0.86034424 0.0080569207 0)
(0.85244669 0.0070571147 0)
(0.84539246 0.0062752175 0)
(0.83905801 0.0056437958 0)
(0.8333414 0.0051180405 0)
(0.82815906 0.004668595 0)
(0.82344248 0.0042762993 0)
(0.81913522 0.0039285597 0)
(0.81519046 0.0036169341 0)
(0.81156892 0.0033355664 0)
(0.80823733 0.0030801993 0)
(0.8051672 0.0028475671 0)
(0.8023339 0.0026350336 0)
(0.79971598 0.0024403778 0)
(0.79729461 0.00226167 0)
(0.79505322 0.0020971986 0)
(0.79297714 0.0019454271 0)
(0.79105337 0.0018049658 0)
(0.78927039 0.0016745543 0)
(0.78761795 0.001553049 0)
(0.78608701 0.0014394193 0)
(0.78466952 0.0013327446 0)
(0.78335837 0.0012322163 0)
(0.78214724 0.0011371384 0)
(0.78103053 0.0010469305 0)
(0.78000319 0.00096112754 0)
(0.77906068 0.00087937831 0)
(0.77819879 0.00080143993 0)
(0.77741363 0.00072716898 0)
(0.77670141 0.00065650847 0)
(0.77605849 0.00058947226 0)
(0.77548121 0.00052612646 0)
(0.7749659 0.00046656973 0)
(0.7745088 0.00041091299 0)
(0.77410608 0.00035926095 0)
(0.77375381 0.00031169491 0)
(0.77344802 0.00026825972 0)
(0.77318468 0.00022895281 0)
(0.77295978 0.00019371973 0)
(0.77276937 0.00016245116 0)
(0.77260958 0.00013498651 0)
(0.77247673 0.00011111755 0)
(0.7723673 9.0598098e-05 0)
(0.77227804 7.3151942e-05 0)
(0.77220593 5.8484748e-05 0)
(0.77214826 4.6292696e-05 0)
(0.7721026 3.6273412e-05 0)
(0.77206683 2.813337e-05 0)
(0.77203908 2.1595956e-05 0)
(0.77201779 1.6405855e-05 0)
(0.77200163 1.2332865e-05 0)
(0.77198949 9.1735209e-06 0)
(0.77198046 6.7512309e-06 0)
(0.77197383 4.915674e-06 0)
(0.77196901 3.5407134e-06 0)
(0.77196554 2.5229323e-06 0)
(0.77196307 1.7782003e-06 0)
(0.77196134 1.2397823e-06 0)
(0.77196013 8.5486167e-07 0)
(0.77195931 5.8307753e-07 0)
(0.77195874 3.9334663e-07 0)
(0.77195836 2.6253516e-07 0)
(0.77195811 1.7332419e-07 0)
(0.77195795 1.1320052e-07 0)
(0.77195784 7.331401e-08 0)
(0.77195777 4.6952254e-08 0)
(0.77195772 3.0039856e-08 0)
(0.7719577 1.8856787e-08 0)
(0.77195768 1.2319936e-08 0)
(0.77195768 7.6810111e-09 0)
(0.77195766 5.7195934e-09 0)
(0.77195767 3.6857911e-09 0)
(0.77195765 4.2218036e-09 0)
(0.77195766 3.6173277e-09 0)
(0.77195764 6.4899897e-09 0)
(0.77195766 7.6335314e-09 0)
(0.77195762 1.4523134e-08 0)
(0.77195766 2.0708607e-08 0)
(0.77195757 3.722284e-08 0)
(0.77195765 6.0122785e-08 0)
(0.77195746 1.042005e-07 0)
(0.77195759 1.8413266e-07 0)
(0.77195708 3.0552803e-07 0)
(0.77195748 4.7546175e-07 0)
(1.0014244 0.026824855 0)
(1.0291272 0.062791352 0)
(1.0654292 0.077736553 0)
(1.098962 0.080597201 0)
(1.1253149 0.078285172 0)
(1.145053 0.0731539 0)
(1.1594858 0.066111279 0)
(1.1694287 0.058162064 0)
(1.1755354 0.050296755 0)
(1.1785738 0.043150709 0)
(1.1793571 0.036972826 0)
(1.1785949 0.031771633 0)
(1.1768304 0.02745184 0)
(1.1744518 0.023886768 0)
(1.1717287 0.020947618 0)
(1.1688444 0.018515775 0)
(1.1659194 0.016488074 0)
(1.1630317 0.014779483 0)
(1.1602295 0.013322952 0)
(1.1575415 0.012067079 0)
(1.1549828 0.010972917 0)
(1.1525601 0.010010932 0)
(1.1502748 0.0091585479 0)
(1.1481247 0.0083983006 0)
(1.1461061 0.0077164907 0)
(1.1442138 0.0071021969 0)
(1.142442 0.0065465582 0)
(1.1407848 0.0060422588 0)
(1.1392358 0.0055831589 0)
(1.137789 0.0051640312 0)
(1.1364385 0.0047803649 0)
(1.1351784 0.0044282249 0)
(1.1340032 0.0041041423 0)
(1.1329077 0.0038050364 0)
(1.1318869 0.0035281492 0)
(1.1309362 0.0032710037 0)
(1.1300514 0.0030313698 0)
(1.1292282 0.0028072493 0)
(1.1284632 0.0025968636 0)
(1.1277529 0.0023986541 0)
(1.1270942 0.00221128 0)
(1.1264843 0.0020336237 0)
(1.1259207 0.0018647879 0)
(1.125401 0.0017040935 0)
(1.1249231 0.0015510681 0)
(1.124485 0.0014054291 0)
(1.124085 0.0012670591 0)
(1.1237212 0.0011359754 0)
(1.1233918 0.0010122947 0)
(1.1230953 0.00089619443 0)
(1.1228299 0.00078787496 0)
(1.1225938 0.00068752177 0)
(1.1223852 0.00059527448 0)
(1.1222023 0.00051119868 0)
(1.1220431 0.00043526896 0)
(1.1219057 0.00036735584 0)
(1.1217881 0.00030722526 0)
(1.1216884 0.00025454074 0)
(1.1216045 0.00020887711 0)
(1.1215347 0.00016973376 0)
(1.1214772 0.00013655656 0)
(1.1214302 0.00010875558 0)
(1.1213923 8.5728522e-05 0)
(1.121362 6.6876755e-05 0)
(1.121338 5.1624608e-05 0)
(1.1213192 3.9429376e-05 0)
(1.1213046 2.9794267e-05 0)
(1.1212935 2.2271425e-05 0)
(1.121285 1.646826e-05 0)
(1.1212787 1.2044242e-05 0)
(1.121274 8.7124941e-06 0)
(1.1212706 6.2325779e-06 0)
(1.1212681 4.4095241e-06 0)
(1.1212663 3.0846089e-06 0)
(1.1212651 2.1340614e-06 0)
(1.1212642 1.4594575e-06 0)
(1.1212636 9.8739139e-07 0)
(1.1212631 6.6005513e-07 0)
(1.1212629 4.3688514e-07 0)
(1.1212627 2.8542581e-07 0)
(1.1212625 1.8521722e-07 0)
(1.1212625 1.1827105e-07 0)
(1.1212624 7.574524e-08 0)
(1.1212624 4.7255178e-08 0)
(1.1212623 3.0601466e-08 0)
(1.1212623 1.8717554e-08 0)
(1.1212623 1.3269522e-08 0)
(1.1212623 8.2718611e-09 0)
(1.1212623 7.9779569e-09 0)
(1.1212623 6.3835881e-09 0)
(1.1212623 9.3165841e-09 0)
(1.1212624 1.1267553e-08 0)
(1.1212623 1.8458914e-08 0)
(1.1212624 2.8867643e-08 0)
(1.1212622 4.5057244e-08 0)
(1.1212624 7.6900034e-08 0)
(1.1212621 1.1636373e-07 0)
(1.1212625 2.0714616e-07 0)
(1.1212619 3.036681e-07 0)
(1.1212627 4.5883344e-07 0)
(1.0007347 0.011814722 0)
(1.0178472 0.030860927 0)
(1.0462163 0.041434442 0)
(1.0799018 0.04519357 0)
(1.1132664 0.045502351 0)
(1.143782 0.044080309 0)
(1.1708941 0.041439983 0)
(1.1945687 0.037973679 0)
(1.2148582 0.034195731 0)
(1.2319652 0.030536889 0)
(1.2462683 0.027222047 0)
(1.2582339 0.024313923 0)
(1.2683135 0.02179789 0)
(1.2768875 0.019633661 0)
(1.2842554 0.017773826 0)
(1.2906479 0.016169649 0)
(1.296243 0.014775582 0)
(1.3011791 0.013552281 0)
(1.3055644 0.012467835 0)
(1.3094837 0.011497419 0)
(1.313004 0.010622087 0)
(1.3161789 0.0098273978 0)
(1.3190522 0.0091022332 0)
(1.3216603 0.0084379048 0)
(1.3240337 0.0078274915 0)
(1.3261986 0.0072653547 0)
(1.3281774 0.0067467834 0)
(1.3299895 0.0062677444 0)
(1.3316519 0.0058247078 0)
(1.3331792 0.0054145297 0)
(1.3345845 0.005034367 0)
(1.3358789 0.004681621 0)
(1.3370725 0.0043538943 0)
(1.3381739 0.0040489645 0)
(1.3391909 0.003764759 0)
(1.3401302 0.0034993456 0)
(1.3409975 0.0032509201 0)
(1.3417981 0.0030178123 0)
(1.3425364 0.0027984829 0)
(1.3432163 0.0025915399 0)
(1.3438413 0.0023957395 0)
(1.3444144 0.002210007 0)
(1.3449383 0.0020334353 0)
(1.3454154 0.0018653013 0)
(1.3458481 0.0017050557 0)
(1.3462386 0.0015523275 0)
(1.346589 0.001406901 0)
(1.3469016 0.0012687061 0)
(1.3471785 0.001137783 0)
(1.3474221 0.0010142601 0)
(1.3476346 0.00089831263 0)
(1.3478185 0.00079013533 0)
(1.3479762 0.00068990304 0)
(1.3481103 0.0005977458 0)
(1.3482231 0.00051372104 0)
(1.3483171 0.00043779797 0)
(1.3483946 0.0003698462 0)
(1.3484578 0.00030963245 0)
(1.3485088 0.00025682636 0)
(1.3485494 0.00021100802 0)
(1.3485815 0.00017168711 0)
(1.3486064 0.00013831598 0)
(1.3486256 0.00011031575 0)
(1.3486402 8.7088934e-05 0)
(1.3486511 6.8046225e-05 0)
(1.3486592 5.2613521e-05 0)
(1.348665 4.0255001e-05 0)
(1.3486693 3.0472302e-05 0)
(1.3486723 2.2822225e-05 0)
(1.3486744 1.6908089e-05 0)
(1.3486758 1.2392591e-05 0)
(1.3486768 8.9832145e-06 0)
(1.3486774 6.442135e-06 0)
(1.3486778 4.5680167e-06 0)
(1.3486781 3.2049308e-06 0)
(1.3486783 2.2225259e-06 0)
(1.3486784 1.5257267e-06 0)
(1.3486784 1.0345033e-06 0)
(1.3486785 6.9530223e-07 0)
(1.3486785 4.6082236e-07 0)
(1.3486785 3.0382457e-07 0)
(1.3486785 1.9672768e-07 0)
(1.3486785 1.2798041e-07 0)
(1.3486785 8.0906045e-08 0)
(1.3486785 5.2830898e-08 0)
(1.3486785 3.2665952e-08 0)
(1.3486785 2.256878e-08 0)
(1.3486785 1.4113927e-08 0)
(1.3486784 1.1862858e-08 0)
(1.3486785 9.0383366e-09 0)
(1.3486784 1.063968e-08 0)
(1.3486785 1.2443069e-08 0)
(1.3486784 1.7693263e-08 0)
(1.3486786 2.7635516e-08 0)
(1.3486784 3.9277533e-08 0)
(1.3486787 6.5904779e-08 0)
(1.3486783 9.3116887e-08 0)
(1.3486788 1.5912506e-07 0)
(1.3486782 2.198439e-07 0)
(1.3486793 3.1760388e-07 0)
(1.0005903 0.0034629159 0)
(1.0136865 0.0093660199 0)
(1.0370283 0.013046806 0)
(1.0674202 0.014563262 0)
(1.1000315 0.014854525 0)
(1.1316428 0.014564992 0)
(1.1610745 0.013888339 0)
(1.1880674 0.012919247 0)
(1.2125205 0.011806508 0)
(1.2343939 0.010696429 0)
(1.2538077 0.0096727452 0)
(1.2710339 0.0087628258 0)
(1.286401 0.007965978 0)
(1.3002111 0.0072722195 0)
(1.3127101 0.0066688138 0)
(1.3240903 0.0061419303 0)
(1.3345035 0.0056780764 0)
(1.3440715 0.0052653233 0)
(1.3528926 0.004893934 0)
(1.3610462 0.0045563889 0)
(1.3685973 0.0042470535 0)
(1.3756001 0.0039617448 0)
(1.3821007 0.0036973431 0)
(1.3881394 0.0034514916 0)
(1.3937522 0.0032223722 0)
(1.3989712 0.0030085407 0)
(1.4038256 0.0028088062 0)
(1.4083422 0.0026221476 0)
(1.4125454 0.002447658 0)
(1.4164576 0.0022845084 0)
(1.4200994 0.0021319249 0)
(1.4234897 0.0019891737 0)
(1.4266459 0.001855553 0)
(1.4295839 0.0017303878 0)
(1.4323182 0.0016130283 0)
(1.4348621 0.0015028481 0)
(1.4372277 0.0013992467 0)
(1.4394257 0.001301652 0)
(1.4414662 0.0012095256 0)
(1.4433579 0.0011223678 0)
(1.445109 0.001039724 0)
(1.4467266 0.00096119134 0)
(1.4482175 0.0008864233 0)
(1.4495876 0.00081513568 0)
(1.4508427 0.00074710683 0)
(1.4519881 0.00068218013 0)
(1.4530289 0.00062025848 0)
(1.4539703 0.00056130177 0)
(1.4548172 0.00050531537 0)
(1.4555749 0.00045234301 0)
(1.4562485 0.00040245143 0)
(1.4568434 0.00035572067 0)
(1.4573652 0.00031222798 0)
(1.4578193 0.00027203845 0)
(1.4582116 0.00023519181 0)
(1.4585476 0.00020169648 0)
(1.458833 0.00017152187 0)
(1.4590733 0.00014459708 0)
(1.4592738 0.0001208099 0)
(1.4594395 0.00010001026 0)
(1.4595752 8.2014859e-05 0)
(1.4596852 6.6613609e-05 0)
(1.4597735 5.3577595e-05 0)
(1.4598436 4.266647e-05 0)
(1.4598989 3.3637263e-05 0)
(1.4599419 2.625021e-05 0)
(1.459975 2.0276269e-05 0)
(1.4600002 1.5500368e-05 0)
(1.4600193 1.1726804e-05 0)
(1.4600335 8.7793492e-06 0)
(1.460044 6.5042741e-06 0)
(1.4600517 4.7680262e-06 0)
(1.4600572 3.4588614e-06 0)
(1.4600612 2.4826445e-06 0)
(1.460064 1.7636442e-06 0)
(1.460066 1.2395603e-06 0)
(1.4600673 8.6255471e-07 0)
(1.4600683 5.9385069e-07 0)
(1.4600689 4.0517823e-07 0)
(1.4600693 2.7344999e-07 0)
(1.4600696 1.8328046e-07 0)
(1.4600698 1.2149419e-07 0)
(1.4600699 8.048312e-08 0)
(1.46007 5.2652783e-08 0)
(1.46007 3.4963956e-08 0)
(1.46007 2.2982162e-08 0)
(1.46007 1.60424e-08 0)
(1.4600701 1.118898e-08 0)
(1.46007 9.1411891e-09 0)
(1.4600701 7.8901301e-09 0)
(1.46007 8.3532776e-09 0)
(1.4600702 9.8015421e-09 0)
(1.46007 1.2168837e-08 0)
(1.4600702 1.7010714e-08 0)
(1.46007 2.14137e-08 0)
(1.4600703 3.1499164e-08 0)
(1.46007 4.1083936e-08 0)
(1.4600705 6.4016033e-08 0)
(1.4600699 8.4196495e-08 0)
(1.4600711 1.1570889e-07 0)
(1.0005903 -0.0034629158 0)
(1.0136865 -0.0093660195 0)
(1.0370283 -0.013046806 0)
(1.0674202 -0.014563261 0)
(1.1000315 -0.014854524 0)
(1.1316428 -0.01456499 0)
(1.1610745 -0.013888337 0)
(1.1880674 -0.012919244 0)
(1.2125205 -0.011806504 0)
(1.2343939 -0.010696424 0)
(1.2538077 -0.0096727382 0)
(1.2710339 -0.008762817 0)
(1.286401 -0.0079659671 0)
(1.3002111 -0.0072722061 0)
(1.3127101 -0.0066687974 0)
(1.3240903 -0.0061419105 0)
(1.3345035 -0.0056780526 0)
(1.3440715 -0.005265295 0)
(1.3528926 -0.0048939006 0)
(1.3610462 -0.00455635 0)
(1.3685973 -0.0042470087 0)
(1.3756001 -0.0039616937 0)
(1.3821007 -0.0036972858 0)
(1.3881394 -0.0034514284 0)
(1.3937522 -0.0032223037 0)
(1.3989712 -0.0030084681 0)
(1.4038257 -0.0028087309 0)
(1.4083423 -0.0026220719 0)
(1.4125455 -0.0024475838 0)
(1.4164576 -0.0022844389 0)
(1.4200994 -0.0021318618 0)
(1.4234898 -0.0019891205 0)
(1.426646 -0.001855511 0)
(1.429584 -0.0017303605 0)
(1.4323183 -0.0016130153 0)
(1.4348622 -0.0015028524 0)
(1.4372277 -0.0013992661 0)
(1.4394257 -0.0013016887 0)
(1.4414661 -0.0012095755 0)
(1.4433579 -0.0011224323 0)
(1.4451089 -0.0010397978 0)
(1.4467266 -0.00096127539 0)
(1.4482174 -0.00088651159 0)
(1.4495875 -0.00081522917 0)
(1.4508426 -0.00074719979 0)
(1.451988 -0.000682274 0)
(1.4530288 -0.00062034851 0)
(1.4539701 -0.00056138972 0)
(1.4548171 -0.00050539796 0)
(1.4555747 -0.00045242244 0)
(1.4562483 -0.00040252601 0)
(1.4568433 -0.00035579241 0)
(1.457365 -0.00031229641 0)
(1.4578192 -0.00027210483 0)
(1.4582115 -0.00023525656 0)
(1.4585475 -0.00020175965 0)
(1.4588329 -0.00017158421 0)
(1.4590732 -0.00014465728 0)
(1.4592737 -0.00012086913 0)
(1.4594394 -0.00010006599 0)
(1.4595751 -8.2068535e-05 0)
(1.4596851 -6.6661762e-05 0)
(1.4597734 -5.362239e-05 0)
(1.4598436 -4.2704151e-05 0)
(1.4598988 -3.3670671e-05 0)
(1.4599418 -2.6275444e-05 0)
(1.4599749 -2.0297092e-05 0)
(1.4600002 -1.5513176e-05 0)
(1.4600192 -1.1735998e-05 0)
(1.4600335 -8.7813305e-06 0)
(1.460044 -6.503986e-06 0)
(1.4600517 -4.7620773e-06 0)
(1.4600572 -3.4523161e-06 0)
(1.4600612 -2.4718468e-06 0)
(1.460064 -1.7537087e-06 0)
(1.4600659 -1.2267853e-06 0)
(1.4600673 -8.5184456e-07 0)
(1.4600682 -5.8108162e-07 0)
(1.4600689 -3.9511796e-07 0)
(1.4600693 -2.6190881e-07 0)
(1.4600696 -1.7478594e-07 0)
(1.4600698 -1.1150074e-07 0)
(1.4600699 -7.3432193e-08 0)
(1.46007 -4.4031361e-08 0)
(1.46007 -2.905084e-08 0)
(1.46007 -1.497226e-08 0)
(1.46007 -1.0209271e-08 0)
(1.4600701 -2.7194076e-09 0)
(1.46007 -2.3461723e-09 0)
(1.4600701 2.4858458e-09 0)
(1.46007 1.277216e-09 0)
(1.4600702 4.2793689e-09 0)
(1.46007 1.9356671e-09 0)
(1.4600702 1.499897e-09 0)
(1.46007 -3.9876842e-09 0)
(1.4600703 -1.2162241e-08 0)
(1.46007 -2.3292626e-08 0)
(1.4600705 -4.7764075e-08 0)
(1.4600699 -6.8889436e-08 0)
(1.4600711 -1.0431949e-07 0)
(1.0007347 -0.011814721 0)
(1.0178472 -0.030860927 0)
(1.0462163 -0.041434441 0)
(1.0799018 -0.045193569 0)
(1.1132664 -0.04550235 0)
(1.143782 -0.044080307 0)
(1.1708941 -0.041439981 0)
(1.1945687 -0.037973676 0)
(1.2148582 -0.034195727 0)
(1.2319652 -0.030536883 0)
(1.2462683 -0.02722204 0)
(1.2582339 -0.024313915 0)
(1.2683135 -0.02179788 0)
(1.2768875 -0.019633649 0)
(1.2842554 -0.017773812 0)
(1.2906479 -0.016169631 0)
(1.296243 -0.014775561 0)
(1.3011791 -0.013552256 0)
(1.3055644 -0.012467806 0)
(1.3094837 -0.011497385 0)
(1.313004 -0.010622049 0)
(1.316179 -0.0098273541 0)
(1.3190523 -0.0091021846 0)
(1.3216604 -0.0084378514 0)
(1.3240338 -0.0078274342 0)
(1.3261987 -0.0072652941 0)
(1.3281775 -0.0067467212 0)
(1.3299896 -0.0062676817 0)
(1.331652 -0.005824647 0)
(1.3331794 -0.005414472 0)
(1.3345846 -0.0050343151 0)
(1.335879 -0.0046815761 0)
(1.3370726 -0.0043538591 0)
(1.3381741 -0.0040489389 0)
(1.339191 -0.0037647455 0)
(1.3401302 -0.0034993428 0)
(1.3409976 -0.0032509302 0)
(1.3417981 -0.0030178325 0)
(1.3425364 -0.0027985149 0)
(1.3432163 -0.0025915799 0)
(1.3438413 -0.0023957892 0)
(1.3444143 -0.0022100621 0)
(1.3449381 -0.0020334973 0)
(1.3454152 -0.001865366 0)
(1.3458479 -0.0017051247 0)
(1.3462383 -0.0015523973 0)
(1.3465887 -0.0014069731 0)
(1.3469013 -0.0012687779 0)
(1.3471782 -0.0011378558 0)
(1.3474217 -0.0010143324 0)
(1.3476343 -0.00089838555 0)
(1.3478182 -0.00079020798 0)
(1.3479759 -0.00068997577 0)
(1.34811 -0.0005978185 0)
(1.3482228 -0.00051379327 0)
(1.3483168 -0.00043786996 0)
(1.3483943 -0.00036991649 0)
(1.3484575 -0.00030970158 0)
(1.3485085 -0.00025689213 0)
(1.3485492 -0.00021107131 0)
(1.3485813 -0.0001717451 0)
(1.3486062 -0.00013837006 0)
(1.3486254 -0.00011036301 0)
(1.34864 -8.713143e-05 0)
(1.3486509 -6.8080976e-05 0)
(1.348659 -5.2643264e-05 0)
(1.3486649 -4.0277073e-05 0)
(1.3486691 -3.0490073e-05 0)
(1.3486721 -2.2833071e-05 0)
(1.3486743 -1.6915775e-05 0)
(1.3486757 -1.2394696e-05 0)
(1.3486767 -8.9837194e-06 0)
(1.3486773 -6.4384338e-06 0)
(1.3486778 -4.564064e-06 0)
(1.348678 -3.1980821e-06 0)
(1.3486782 -2.2166413e-06 0)
(1.3486783 -1.5178146e-06 0)
(1.3486784 -1.0282297e-06 0)
(1.3486784 -6.8759629e-07 0)
(1.3486784 -4.5521145e-07 0)
(1.3486784 -2.9693506e-07 0)
(1.3486785 -1.9193227e-07 0)
(1.3486784 -1.2190953e-07 0)
(1.3486785 -7.6863397e-08 0)
(1.3486785 -4.7223569e-08 0)
(1.3486785 -2.870238e-08 0)
(1.3486784 -1.6641936e-08 0)
(1.3486785 -9.3492438e-09 0)
(1.3486784 -4.4927252e-09 0)
(1.3486785 -2.2460945e-09 0)
(1.3486784 -8.3195215e-10 0)
(1.3486785 -2.8762089e-09 0)
(1.3486784 -4.9101009e-09 0)
(1.3486786 -1.489998e-08 0)
(1.3486784 -2.4221289e-08 0)
(1.3486787 -5.1221613e-08 0)
(1.3486783 -7.8429484e-08 0)
(1.3486788 -1.4680839e-07 0)
(1.3486782 -2.0800201e-07 0)
(1.3486793 -3.0853644e-07 0)
(1.0014244 -0.026824855 0)
(1.0291272 -0.062791352 0)
(1.0654292 -0.077736553 0)
(1.098962 -0.0805972 0)
(1.1253149 -0.07828517 0)
(1.145053 -0.073153899 0)
(1.1594858 -0.066111277 0)
(1.1694287 -0.058162062 0)
(1.1755354 -0.050296752 0)
(1.1785738 -0.043150705 0)
(1.1793571 -0.036972821 0)
(1.178595 -0.031771627 0)
(1.1768304 -0.027451832 0)
(1.1744518 -0.023886758 0)
(1.1717287 -0.020947607 0)
(1.1688444 -0.018515762 0)
(1.1659195 -0.016488059 0)
(1.1630317 -0.014779465 0)
(1.1602296 -0.013322931 0)
(1.1575415 -0.012067055 0)
(1.1549828 -0.01097289 0)
(1.1525602 -0.010010903 0)
(1.1502748 -0.0091585155 0)
(1.1481248 -0.0083982655 0)
(1.1461062 -0.0077164536 0)
(1.1442139 -0.0071021582 0)
(1.1424422 -0.0065465191 0)
(1.1407849 -0.0060422198 0)
(1.139236 -0.0055831218 0)
(1.1377892 -0.0051639962 0)
(1.1364387 -0.0047803343 0)
(1.1351785 -0.0044281983 0)
(1.1340033 -0.0041041223 0)
(1.1329078 -0.0038050215 0)
(1.131887 -0.0035281423 0)
(1.1309363 -0.0032710024 0)
(1.1300514 -0.0030313772 0)
(1.1292283 -0.0028072621 0)
(1.1284632 -0.0025968851 0)
(1.1277528 -0.0023986802 0)
(1.1270941 -0.0022113146 0)
(1.1264842 -0.002033662 0)
(1.1259205 -0.0018648337 0)
(1.1254007 -0.0017041421 0)
(1.1249228 -0.0015511232 0)
(1.1244847 -0.001405486 0)
(1.1240846 -0.0012671211 0)
(1.1237208 -0.0011360385 0)
(1.1233915 -0.0010123615 0)
(1.1230949 -0.00089626161 0)
(1.1228295 -0.0007879442 0)
(1.1225934 -0.00068759073 0)
(1.1223849 -0.00059534385 0)
(1.1222019 -0.00051126729 0)
(1.1220427 -0.00043533632 0)
(1.1219053 -0.00036742183 0)
(1.1217878 -0.00030728823 0)
(1.121688 -0.00025460173 0)
(1.1216042 -0.00020893351 0)
(1.1215344 -0.00016978756 0)
(1.1214769 -0.00013660436 0)
(1.12143 -0.00010880046 0)
(1.1213921 -8.5766589e-05 0)
(1.1213617 -6.6911895e-05 0)
(1.1213378 -5.1652527e-05 0)
(1.121319 -3.9454831e-05 0)
(1.1213045 -2.9812853e-05 0)
(1.1212933 -2.2288356e-05 0)
(1.1212849 -1.6478874e-05 0)
(1.1212786 -1.2054254e-05 0)
(1.1212739 -8.7171928e-06 0)
(1.1212705 -6.2377288e-06 0)
(1.121268 -4.4101335e-06 0)
(1.1212662 -3.0866166e-06 0)
(1.121265 -2.1324021e-06 0)
(1.1212641 -1.4598918e-06 0)
(1.1212635 -9.8456194e-07 0)
(1.1212631 -6.5977966e-07 0)
(1.1212628 -4.3377744e-07 0)
(1.1212626 -2.8508739e-07 0)
(1.1212625 -1.8203175e-07 0)
(1.1212624 -1.1791314e-07 0)
(1.1212624 -7.2640715e-08 0)
(1.1212624 -4.6904659e-08 0)
(1.1212623 -2.723241e-08 0)
(1.1212623 -1.7987351e-08 0)
(1.1212623 -9.2770625e-09 0)
(1.1212623 -6.6951702e-09 0)
(1.1212623 -2.363931e-09 0)
(1.1212623 -2.9433433e-09 0)
(1.1212623 -1.7962394e-09 0)
(1.1212624 -6.169546e-09 0)
(1.1212623 -9.5907582e-09 0)
(1.1212624 -2.239961e-08 0)
(1.1212622 -3.4955726e-08 0)
(1.1212624 -6.7369912e-08 0)
(1.1212622 -1.0718227e-07 0)
(1.1212625 -2.0113043e-07 0)
(1.1212619 -2.9805962e-07 0)
(1.1212628 -4.5378388e-07 0)
(1.0016583 -0.05381943 0)
(1.0359761 -0.10128444 0)
(1.0597199 -0.11073663 0)
(1.0628947 -0.10592202 0)
(1.0515569 -0.096228728 0)
(1.0340529 -0.08393406 0)
(1.0142795 -0.070327062 0)
(0.99360703 -0.056981332 0)
(0.97292577 -0.045107478 0)
(0.9531074 -0.035236748 0)
(0.93479539 -0.027401648 0)
(0.91829012 -0.021387224 0)
(0.9036238 -0.016884495 0)
(0.89068069 -0.013569703 0)
(0.87928177 -0.011147741 0)
(0.86923245 -0.0093736485 0)
(0.86034428 -0.0080569136 0)
(0.85244674 -0.0070571066 0)
(0.84539251 -0.0062752084 0)
(0.83905807 -0.0056437855 0)
(0.83334147 -0.005118029 0)
(0.82815915 -0.0046685824 0)
(0.82344257 -0.0042762855 0)
(0.81913533 -0.003928545 0)
(0.81519057 -0.0036169185 0)
(0.81156905 -0.0033355502 0)
(0.80823747 -0.0030801825 0)
(0.80516735 -0.0028475504 0)
(0.80233405 -0.0026350168 0)
(0.79971613 -0.0024403617 0)
(0.79729476 -0.0022616543 0)
(0.79505336 -0.0020971844 0)
(0.79297726 -0.0019454137 0)
(0.79105348 -0.0018049548 0)
(0.78927047 -0.0016745443 0)
(0.78761801 -0.001553042 0)
(0.78608703 -0.0014394136 0)
(0.78466951 -0.0013327426 0)
(0.78335832 -0.001232216 0)
(0.78214715 -0.0011371424 0)
(0.78103039 -0.0010469366 0)
(0.78000302 -0.00096113824 0)
(0.77906047 -0.00087939143 0)
(0.77819856 -0.00080145785 0)
(0.77741335 -0.00072718941 0)
(0.77670111 -0.00065653333 0)
(0.77605817 -0.00058949957 0)
(0.77548088 -0.00052615758 0)
(0.77496555 -0.00046660287 0)
(0.77450845 -0.00041094884 0)
(0.77410572 -0.00035929827 0)
(0.77375346 -0.00031173378 0)
(0.77344768 -0.00026829934 0)
(0.77318435 -0.00022899266 0)
(0.77295946 -0.0001937596 0)
(0.77276907 -0.00016249001 0)
(0.7726093 -0.00013502467 0)
(0.77247646 -0.00011115357 0)
(0.77236705 -9.0632866e-05 0)
(0.7722778 -7.3183639e-05 0)
(0.77220572 -5.8514804e-05 0)
(0.77214806 -4.6319131e-05 0)
(0.77210243 -3.629812e-05 0)
(0.77206667 -2.8154118e-05 0)
(0.77203894 -2.16151e-05 0)
(0.77201766 -1.642114e-05 0)
(0.77200152 -1.2346964e-05 0)
(0.77198938 -9.1839711e-06 0)
(0.77198038 -6.7609753e-06 0)
(0.77197375 -4.9222627e-06 0)
(0.77196894 -3.5472064e-06 0)
(0.77196548 -2.5266559e-06 0)
(0.77196303 -1.7823016e-06 0)
(0.7719613 -1.2415953e-06 0)
(0.7719601 -8.5751869e-07 0)
(0.77195928 -5.8369144e-07 0)
(0.77195872 -3.9504934e-07 0)
(0.77195835 -2.6247254e-07 0)
(0.7719581 -1.7457777e-07 0)
(0.77195794 -1.1273144e-07 0)
(0.77195784 -7.4194076e-08 0)
(0.77195777 -4.6216415e-08 0)
(0.77195773 -3.0715556e-08 0)
(0.7719577 -1.7812411e-08 0)
(0.77195769 -1.2576123e-08 0)
(0.77195768 -6.0950339e-09 0)
(0.77195767 -5.4302188e-09 0)
(0.77195767 -1.2581547e-09 0)
(0.77195766 -2.9999495e-09 0)
(0.77195767 -1.6526462e-10 0)
(0.77195766 -4.4694886e-09 0)
(0.77195768 -3.8149979e-09 0)
(0.77195764 -1.2723297e-08 0)
(0.77195767 -1.7351182e-08 0)
(0.77195759 -3.3167328e-08 0)
(0.77195767 -5.4236654e-08 0)
(0.77195747 -1.0230708e-07 0)
(0.77195761 -1.8561831e-07 0)
(0.77195709 -3.0545248e-07 0)
(0.7719575 -4.7401623e-07 0)
(0.91890839 -0.035821913 0)
(0.86271384 -0.062195638 0)
(0.7870597 -0.06251009 0)
(0.69536033 -0.054550395 0)
(0.61089745 -0.044531651 0)
(0.54411592 -0.034015971 0)
(0.49343012 -0.024187539 0)
(0.45479414 -0.016144229 0)
(0.42544583 -0.010265785 0)
(0.40347313 -0.0063041442 0)
(0.38715767 -0.003797628 0)
(0.3749622 -0.0023103363 0)
(0.36566193 -0.0014930125 0)
(0.35836273 -0.0010851148 0)
(0.35244269 -0.00090606747 0)
(0.34748202 -0.00084104525 0)
(0.3432035 -0.00082371592 0)
(0.33942729 -0.00081930027 0)
(0.33603796 -0.00081183957 0)
(0.33296118 -0.00079578598 0)
(0.33014784 -0.00077079272 0)
(0.32756392 -0.00073868691 0)
(0.3251843 -0.00070186274 0)
(0.32298915 -0.00066253464 0)
(0.32096189 -0.00062246183 0)
(0.31908808 -0.0005829086 0)
(0.31735483 -0.00054470349 0)
(0.31575046 -0.00050833424 0)
(0.31426437 -0.00047403881 0)
(0.31288694 -0.00044188764 0)
(0.31160942 -0.00041184112 0)
(0.31042394 -0.00038379769 0)
(0.30932336 -0.00035761728 0)
(0.30830131 -0.0003331473 0)
(0.30735208 -0.00031022596 0)
(0.30647058 -0.00028870016 0)
(0.30565228 -0.00026841889 0)
(0.30489319 -0.00024925009 0)
(0.30418978 -0.00023106799 0)
(0.30353891 -0.00021377155 0)
(0.30293781 -0.00019726797 0)
(0.30238401 -0.00018149286 0)
(0.30187526 -0.00016639021 0)
(0.3014095 -0.00015193262 0)
(0.30098477 -0.00013809907 0)
(0.30059921 -0.00012489378 0)
(0.30025094 -0.00011232318 0)
(0.2999381 -0.00010041187 0)
(0.29965878 -8.9181236e-05 0)
(0.29941099 -7.86619e-05 0)
(0.2991927 -6.8876184e-05 0)
(0.29900182 -5.9846706e-05 0)
(0.29883618 -5.15846e-05 0)
(0.29869361 -4.4094149e-05 0)
(0.29857192 -3.7368058e-05 0)
(0.29846897 -3.1388089e-05 0)
(0.29838264 -2.6127305e-05 0)
(0.29831093 -2.1546465e-05 0)
(0.29825191 -1.760284e-05 0)
(0.2982038 -1.4242484e-05 0)
(0.29816498 -1.1413988e-05 0)
(0.29813396 -9.0564253e-06 0)
(0.29810942 -7.1169789e-06 0)
(0.29809021 -5.5352941e-06 0)
(0.29807533 -4.263918e-06 0)
(0.29806392 -3.2490323e-06 0)
(0.29805525 -2.4524418e-06 0)
(0.29804875 -1.829729e-06 0)
(0.29804393 -1.3532033e-06 0)
(0.29804038 -9.8795487e-07 0)
(0.2980378 -7.1593518e-07 0)
(0.29803595 -5.109445e-07 0)
(0.29803463 -3.6312317e-07 0)
(0.29803371 -2.5296655e-07 0)
(0.29803306 -1.7661602e-07 0)
(0.29803262 -1.1963877e-07 0)
(0.29803232 -8.2523606e-08 0)
(0.29803212 -5.3999683e-08 0)
(0.29803198 -3.7208213e-08 0)
(0.2980319 -2.3029658e-08 0)
(0.29803184 -1.6399027e-08 0)
(0.29803181 -9.1973063e-09 0)
(0.29803178 -7.2665582e-09 0)
(0.29803177 -3.1416723e-09 0)
(0.29803176 -3.4337021e-09 0)
(0.29803175 -5.7128941e-10 0)
(0.29803175 -1.8876034e-09 0)
(0.29803175 5.1038239e-10 0)
(0.29803175 -1.6158724e-09 0)
(0.29803175 2.7999588e-10 0)
(0.29803174 -2.8053685e-09 0)
(0.29803174 -1.6859605e-09 0)
(0.29803173 -7.0440467e-09 0)
(0.29803173 -7.9001277e-09 0)
(0.2980317 -1.6832405e-08 0)
(0.29803169 -2.8438918e-08 0)
(0.2980316 -5.8683317e-08 0)
(0.29803154 -1.0329852e-07 0)
(0.29803125 -1.8391368e-07 0)
(0.298031 -2.5490671e-07 0)
)
;

boundaryField
{
    top
    {
        type            fixedValue;
        value           uniform (0 0 0);
    }
    inlet
    {
        type            fixedValue;
        value           uniform (1 0 0);
    }
    outlet
    {
        type            zeroGradient;
    }
    bottom
    {
        type            fixedValue;
        value           uniform (0 0 0);
    }
    back
    {
        type            empty;
    }
    front
    {
        type            empty;
    }
}


// ************************************************************************* //
