/*--------------------------------*- C++ -*----------------------------------*\
| =========                 |                                                 |
| \\      /  F ield         | OpenFOAM: The Open Source CFD Toolbox           |
|  \\    /   O peration     | Version:  v1812                                 |
|   \\  /    A nd           | Web:      www.OpenFOAM.com                      |
|    \\/     M anipulation  |                                                 |
\*---------------------------------------------------------------------------*/
FoamFile
{
    version     2.0;
    format      ascii;
    class       volScalarField;
    location    "12.7";
    object      p;
}
// * * * * * * * * * * * * * * * * * * * * * * * * * * * * * * * * * * * * * //

dimensions      [0 2 -2 0 0 0 0];


internalField   nonuniform List<scalar> 
1000
(
1.6755987
1.5545208
1.4585404
1.3948843
1.3463747
1.3039027
1.2663675
1.2341957
1.2067954
1.1829578
1.1615635
1.1417996
1.1231225
1.1051829
1.0877676
1.0707534
1.0540726
1.0376884
1.0215802
1.0057343
0.99013929
0.97478418
0.95965748
0.94474723
0.93004123
0.91552724
0.90119327
0.88702778
0.87301973
0.85915874
0.84543502
0.83183947
0.81836357
0.80499938
0.79173954
0.77857717
0.76550587
0.75251968
0.73961302
0.72678072
0.71401792
0.7013201
0.68868305
0.67610282
0.66357573
0.65109833
0.6386674
0.62627992
0.61393309
0.60162424
0.58935093
0.57711083
0.56490179
0.55272179
0.54056894
0.52844149
0.51633779
0.50425628
0.49219553
0.48015417
0.46813094
0.45612464
0.44413418
0.43215851
0.42019668
0.40824779
0.396311
0.38438551
0.3724706
0.36056555
0.34866971
0.33678248
0.32490329
0.31303161
0.30116696
0.28930889
0.27745697
0.2656108
0.25377
0.24193421
0.23010309
0.21827632
0.20645361
0.19463472
0.18281938
0.1710074
0.15919854
0.14739261
0.1355894
0.12378872
0.1119904
0.10019427
0.088400198
0.076608065
0.06481775
0.053029129
0.041242144
0.029456614
0.017672695
0.0058897237
1.558379
1.50345
1.4424975
1.3909298
1.3476597
1.3086914
1.2731052
1.2413326
1.2133716
1.1885938
1.1661919
1.1454905
1.1260089
1.1074209
1.0895073
1.0721225
1.0551707
1.0385893
1.0223366
1.0063831
0.99070611
0.97528656
0.96010771
0.94515404
0.93041099
0.91586477
0.90150237
0.88731151
0.87328067
0.8593991
0.84565673
0.83204422
0.81855286
0.80517456
0.79190181
0.7787276
0.76564543
0.75264923
0.73973337
0.72689257
0.71412193
0.70141686
0.68877311
0.67618667
0.66365382
0.65117108
0.6387352
0.62634312
0.613992
0.60167918
0.58940216
0.57715861
0.56494635
0.55276337
0.54060774
0.5284777
0.51637159
0.50428783
0.49222498
0.48018166
0.4681566
0.45614859
0.44415653
0.43217938
0.42021617
0.40826599
0.396328
0.3844014
0.37248543
0.3605794
0.34868264
0.33679454
0.32491455
0.31304212
0.30117679
0.28931807
0.27746556
0.26561883
0.2537775
0.24194121
0.23010961
0.2182824
0.20645928
0.19464001
0.18282434
0.17101205
0.15920289
0.14739668
0.1355932
0.12379226
0.11199368
0.10019733
0.088403047
0.076610729
0.064820251
0.053031449
0.041244318
0.029458496
0.017674375
0.0058905631
1.4975578
1.4713827
1.4329859
1.391853
1.3527677
1.3161769
1.2818792
1.2501617
1.2213056
1.1952045
1.1714505
1.1495605
1.1291107
1.1097698
1.0912896
1.0734886
1.0562368
1.0394412
1.0230351
1.00697
0.9912096
0.9757259
0.96049604
0.94550054
0.93072228
0.9161458
0.90175698
0.88754281
0.87349126
0.85959119
0.84583226
0.83220488
0.81870014
0.80530978
0.79202613
0.77884205
0.76575092
0.75274658
0.73982329
0.72697571
0.71419887
0.70148813
0.68883917
0.67624796
0.66371072
0.65122394
0.63878432
0.62638879
0.61403448
0.60171869
0.58943892
0.57719283
0.56497822
0.55279306
0.54063542
0.52850351
0.51639566
0.50431028
0.49224591
0.48020117
0.46817477
0.45616553
0.44417233
0.43219412
0.42022994
0.40827886
0.39634003
0.38441264
0.37249592
0.36058918
0.34869174
0.33680302
0.32492245
0.3130495
0.3011837
0.28932456
0.27747164
0.26562452
0.25378281
0.24194614
0.23011418
0.21828664
0.20646323
0.19464372
0.18282783
0.17101534
0.15920599
0.14739958
0.13559588
0.12379474
0.11199595
0.10019943
0.088404999
0.076612573
0.064821973
0.053033073
0.041245736
0.029459691
0.017675055
0.0058910216
1.4681493
1.4526512
1.4257813
1.3918574
1.3560564
1.3211051
1.2878031
1.2564501
1.2273194
1.2005279
1.1759404
1.1532482
1.1320963
1.1121676
1.0932094
1.0750297
1.057484
1.0404629
1.0238843
1.0076863
0.99182233
0.97625659
0.96096063
0.94591096
0.93108753
0.91647281
0.90205117
0.88780853
0.87373208
0.85981006
0.84603168
0.83238698
0.81886676
0.80546252
0.79216637
0.77897101
0.76586967
0.75285606
0.73992434
0.72706909
0.71428524
0.70156809
0.68891326
0.67631666
0.66377447
0.65128313
0.63883931
0.62643989
0.61408198
0.60176287
0.58948002
0.57723108
0.56501385
0.55282625
0.54066635
0.52853234
0.51642253
0.50433533
0.49226925
0.48022292
0.46819505
0.45618443
0.44418997
0.43221059
0.42024532
0.40829324
0.39635345
0.38442516
0.37250759
0.36060004
0.34870187
0.33681247
0.32493127
0.31305777
0.30119143
0.2893318
0.27747841
0.26563083
0.25378867
0.24195159
0.23011925
0.21829137
0.20646767
0.19464789
0.18283175
0.17101902
0.15920942
0.14740277
0.13559883
0.12379747
0.11199848
0.10020181
0.088407213
0.076614676
0.064823881
0.053034894
0.041247215
0.029461068
0.017675866
0.0058920349
1.4554177
1.4434644
1.42123
1.3909424
1.3570813
1.3230857
1.2903881
1.2593825
1.2302851
1.2032733
1.1783462
1.1552967
1.1338152
1.1135975
1.0943939
1.0760117
1.0583028
1.0411523
1.0244715
1.0081924
0.99226337
0.97664483
0.96130531
0.94621916
0.9313647
0.91672322
0.90227823
0.88801503
0.87392034
0.85998205
0.84618908
0.83253126
0.8189992
0.80558424
0.79227838
0.77907419
0.76596482
0.75294389
0.7400055
0.72714414
0.7143547
0.70163244
0.68897292
0.676372
0.66382583
0.65133081
0.63888359
0.62648104
0.61412023
0.60179844
0.58951313
0.57726191
0.56504256
0.552853
0.54069127
0.52855556
0.51644415
0.50435546
0.492288
0.4802404
0.46821135
0.45619966
0.4442042
0.43222389
0.42025774
0.40830481
0.39636423
0.38443518
0.37251692
0.36060874
0.34871
0.33682009
0.32493843
0.31306447
0.3011977
0.28933764
0.27748382
0.26563584
0.25379332
0.24195592
0.23012332
0.21829522
0.20647131
0.19465132
0.18283495
0.17102197
0.15921213
0.14740525
0.13560112
0.12379963
0.11200053
0.1002038
0.088409075
0.076616434
0.06482544
0.05303633
0.041248314
0.029462178
0.017676665
0.0058930619
1.4554177
1.4434644
1.42123
1.3909424
1.3570813
1.3230857
1.2903881
1.2593825
1.2302852
1.2032733
1.1783463
1.1552967
1.1338152
1.1135975
1.0943939
1.0760117
1.0583028
1.0411523
1.0244715
1.0081924
0.99226338
0.97664483
0.96130532
0.94621916
0.9313647
0.91672321
0.90227822
0.88801503
0.87392033
0.85998205
0.84618908
0.83253127
0.81899921
0.80558425
0.79227838
0.77907419
0.76596481
0.75294388
0.74000549
0.72714413
0.71435471
0.70163245
0.68897293
0.67637201
0.66382584
0.65133081
0.63888358
0.62648102
0.61412021
0.60179843
0.58951312
0.57726191
0.56504257
0.55285302
0.54069129
0.52855557
0.51644415
0.50435545
0.49228798
0.48024038
0.46821134
0.45619967
0.44420422
0.43222391
0.42025776
0.40830482
0.39636422
0.38443516
0.37251689
0.36060872
0.34870999
0.3368201
0.32493845
0.31306451
0.30119773
0.28933765
0.27748381
0.26563581
0.25379328
0.24195589
0.23012331
0.21829524
0.20647135
0.19465137
0.18283498
0.17102198
0.1592121
0.14740521
0.13560107
0.1237996
0.11200054
0.10020384
0.088409121
0.076616476
0.064825463
0.053036302
0.041248252
0.029462145
0.017676673
0.0058930744
1.4681493
1.4526512
1.4257813
1.3918574
1.3560564
1.3211051
1.2878031
1.2564501
1.2273194
1.2005279
1.1759404
1.1532482
1.1320964
1.1121676
1.0932094
1.0750297
1.0574839
1.0404629
1.0238843
1.0076863
0.99182235
0.97625661
0.96096064
0.94591096
0.93108753
0.91647279
0.90205115
0.88780852
0.87373207
0.85981006
0.84603169
0.832387
0.81886678
0.80546253
0.79216637
0.778971
0.76586965
0.75285604
0.73992433
0.72706908
0.71428524
0.7015681
0.68891328
0.67631668
0.66377449
0.65128313
0.63883929
0.62643987
0.61408196
0.60176285
0.58948002
0.5772311
0.56501388
0.55282628
0.54066637
0.52853235
0.51642251
0.50433529
0.49226921
0.48022288
0.46819503
0.45618445
0.44419001
0.43221064
0.42024537
0.40829325
0.39635343
0.38442511
0.37250752
0.36059999
0.34870185
0.33681249
0.32493134
0.31305784
0.30119149
0.28933182
0.27747837
0.26563076
0.25378859
0.24195153
0.23011924
0.21829142
0.20646776
0.19464798
0.18283181
0.17101902
0.15920936
0.14740267
0.13559873
0.12379742
0.1119985
0.10020189
0.088407307
0.076614752
0.064823908
0.053034822
0.041247099
0.029461022
0.017675891
0.0058920592
1.4975578
1.4713827
1.4329859
1.391853
1.3527677
1.3161769
1.2818792
1.2501617
1.2213056
1.1952045
1.1714505
1.1495605
1.1291107
1.1097698
1.0912896
1.0734886
1.0562368
1.0394412
1.0230351
1.00697
0.99120961
0.97572592
0.96049605
0.94550055
0.93072228
0.91614579
0.90175696
0.88754279
0.87349125
0.85959119
0.84583227
0.83220489
0.81870016
0.80530979
0.79202613
0.77884205
0.76575091
0.75274657
0.73982328
0.7269757
0.71419887
0.70148814
0.68883919
0.67624797
0.66371073
0.65122394
0.63878431
0.62638878
0.61403446
0.60171868
0.58943892
0.57719284
0.56497824
0.55279308
0.54063544
0.52850352
0.51639565
0.50431026
0.49224588
0.48020114
0.46817476
0.45616554
0.44417235
0.43219415
0.42022997
0.40827888
0.39634003
0.38441261
0.37249588
0.36058914
0.34869172
0.33680303
0.32492248
0.31304955
0.30118374
0.28932458
0.27747162
0.26562448
0.25378275
0.24194609
0.23011416
0.21828666
0.20646329
0.19464378
0.18282788
0.17101535
0.15920596
0.14739952
0.13559582
0.1237947
0.11199596
0.10019947
0.088405054
0.076612623
0.064821987
0.053033032
0.041245685
0.029459679
0.017675062
0.0058910249
1.5583791
1.50345
1.4424975
1.3909298
1.3476597
1.3086914
1.2731052
1.2413325
1.2133716
1.1885938
1.1661919
1.1454905
1.1260089
1.1074209
1.0895073
1.0721225
1.0551707
1.0385893
1.0223366
1.0063831
0.9907061
0.97528656
0.96010771
0.94515405
0.93041099
0.91586478
0.90150237
0.8873115
0.87328067
0.85939909
0.84565673
0.83204422
0.81855286
0.80517457
0.79190181
0.7787276
0.76564543
0.75264923
0.73973336
0.72689256
0.71412192
0.70141686
0.68877311
0.67618667
0.66365383
0.65117109
0.6387352
0.62634312
0.613992
0.60167917
0.58940215
0.5771586
0.56494635
0.55276337
0.54060775
0.52847772
0.5163716
0.50428784
0.49222497
0.48018165
0.46815658
0.45614858
0.44415652
0.43217938
0.42021618
0.40826601
0.39632802
0.3844014
0.37248543
0.36057938
0.34868262
0.33679453
0.32491454
0.31304213
0.3011768
0.2893181
0.27746558
0.26561884
0.25377749
0.24194119
0.23010959
0.21828239
0.20645929
0.19464003
0.18282437
0.17101207
0.15920291
0.14739668
0.13559318
0.12379223
0.11199366
0.10019732
0.08840305
0.076610742
0.06482026
0.053031454
0.041244331
0.029458503
0.017674365
0.0058905537
1.6755987
1.5545208
1.4585404
1.3948843
1.3463747
1.3039027
1.2663675
1.2341957
1.2067953
1.1829578
1.1615635
1.1417996
1.1231225
1.1051829
1.0877676
1.0707534
1.0540726
1.0376884
1.0215802
1.0057343
0.99013929
0.97478418
0.95965748
0.94474724
0.93004124
0.91552724
0.90119328
0.88702778
0.87301973
0.85915873
0.84543502
0.83183946
0.81836356
0.80499939
0.79173955
0.77857718
0.76550588
0.75251968
0.73961302
0.72678071
0.71401791
0.70132009
0.68868305
0.67610282
0.66357573
0.65109834
0.63866741
0.62627993
0.61393309
0.60162424
0.58935092
0.57711082
0.56490178
0.55272178
0.54056895
0.5284415
0.5163378
0.50425629
0.49219553
0.48015417
0.46813092
0.45612463
0.44413416
0.4321585
0.42019669
0.4082478
0.39631102
0.38438553
0.3724706
0.36056554
0.3486697
0.33678246
0.32490327
0.3130316
0.30116697
0.28930891
0.277457
0.26561082
0.25377001
0.2419342
0.23010306
0.21827629
0.2064536
0.19463471
0.1828194
0.17100743
0.15919857
0.14739263
0.1355894
0.1237887
0.11199036
0.10019424
0.08840018
0.076608063
0.064817759
0.053029152
0.041242172
0.029456622
0.017672686
0.0058897178
)
;

boundaryField
{
    top
    {
        type            zeroGradient;
    }
    inlet
    {
        type            zeroGradient;
    }
    outlet
    {
        type            fixedValue;
        value           uniform 0;
    }
    bottom
    {
        type            zeroGradient;
    }
    back
    {
        type            empty;
    }
    front
    {
        type            empty;
    }
}


// ************************************************************************* //
