/*--------------------------------*- C++ -*----------------------------------*\
| =========                 |                                                 |
| \\      /  F ield         | OpenFOAM: The Open Source CFD Toolbox           |
|  \\    /   O peration     | Version:  2112                                  |
|   \\  /    A nd           | Website:  www.openfoam.com                      |
|    \\/     M anipulation  |                                                 |
\*---------------------------------------------------------------------------*/
FoamFile
{
    version     2.0;
    format      ascii;
    arch        "LSB;label=32;scalar=64";
    class       volScalarField;
    location    "12";
    object      p;
}
// * * * * * * * * * * * * * * * * * * * * * * * * * * * * * * * * * * * * * //

dimensions      [0 2 -2 0 0 0 0];

internalField   nonuniform List<scalar> 
1000
(
1.5265627
1.5096499
1.4931627
1.4769769
1.4609854
1.4451221
1.4293497
1.4136476
1.3980028
1.382405
1.3668457
1.3513182
1.3358176
1.3203403
1.3048839
1.2894461
1.2740252
1.2586196
1.2432279
1.2278491
1.2124819
1.1971255
1.181779
1.1664415
1.1511125
1.1357912
1.120477
1.1051695
1.089868
1.0745721
1.0592814
1.0439955
1.028714
1.0134366
0.99816299
0.98289285
0.96762591
0.95236194
0.9371007
0.92184197
0.90658555
0.89133126
0.87607892
0.86082839
0.8455795
0.83033213
0.81508614
0.79984142
0.78459786
0.76935535
0.75411382
0.73887317
0.72363331
0.70839419
0.69315572
0.67791785
0.66268052
0.64744368
0.63220727
0.61697125
0.60173558
0.58650022
0.57126513
0.55603028
0.54079564
0.52556119
0.51032689
0.49509273
0.47985868
0.46462473
0.44939085
0.43415705
0.4189233
0.40368959
0.38845592
0.37322228
0.35798866
0.34275506
0.32752147
0.31228789
0.29705432
0.28182075
0.26658719
0.25135363
0.23612007
0.22088651
0.20565296
0.19041941
0.17518585
0.1599523
0.14471875
0.1294852
0.11425164
0.09901809
0.083784538
0.068550986
0.053317434
0.038083881
0.022850329
0.0076167761
1.5262121
1.5092651
1.4930369
1.477062
1.4611362
1.4452548
1.4294507
1.4137292
1.3980746
1.3824695
1.3669024
1.3513671
1.3358597
1.320377
1.3049163
1.289475
1.2740512
1.258643
1.2432491
1.2278683
1.2124994
1.1971415
1.1817935
1.1664549
1.1511247
1.1358024
1.1204873
1.1051788
1.0898765
1.0745799
1.0592886
1.0440021
1.02872
1.0134421
0.99816802
0.98289744
0.9676301
0.95236576
0.93710417
0.92184512
0.90658842
0.89133386
0.87608128
0.86083051
0.84558142
0.83033385
0.81508769
0.79984281
0.7845991
0.76935646
0.75411481
0.73887404
0.72363408
0.70839486
0.69315631
0.67791837
0.66268097
0.64744406
0.6322076
0.61697153
0.60173582
0.58650042
0.57126529
0.55603042
0.54079575
0.52556128
0.51032696
0.49509278
0.47985872
0.46462476
0.44939088
0.43415707
0.41892331
0.4036896
0.38845593
0.37322228
0.35798866
0.34275506
0.32752147
0.31228789
0.29705432
0.28182075
0.26658719
0.25135363
0.23612007
0.22088651
0.20565296
0.19041941
0.17518585
0.1599523
0.14471875
0.1294852
0.11425164
0.099018091
0.083784538
0.068550986
0.053317434
0.038083881
0.022850329
0.0076167761
1.5255946
1.5085004
1.4926238
1.4770136
1.4612524
1.4453794
1.4295358
1.4137873
1.3981253
1.3825197
1.3669499
1.3514087
1.3358949
1.320407
1.3049424
1.2894982
1.2740718
1.2586615
1.2432657
1.2278832
1.2125129
1.1971537
1.1818047
1.166465
1.1511339
1.1358108
1.120495
1.1051859
1.089883
1.0745858
1.059294
1.044007
1.0287245
1.0134462
0.99817179
0.98290089
0.96763325
0.95236864
0.9371068
0.92184752
0.9065906
0.89133584
0.87608308
0.86083215
0.8455829
0.8303352
0.8150889
0.7998439
0.78460009
0.76935735
0.7541156
0.73887475
0.72363472
0.70839543
0.69315681
0.67791881
0.66268136
0.6474444
0.63220789
0.61697179
0.60173604
0.58650061
0.57126546
0.55603055
0.54079587
0.52556137
0.51032704
0.49509285
0.47985877
0.4646248
0.44939091
0.43415709
0.41892333
0.40368962
0.38845594
0.37322229
0.35798867
0.34275506
0.32752147
0.31228789
0.29705432
0.28182075
0.26658719
0.25135363
0.23612007
0.22088651
0.20565296
0.19041941
0.17518585
0.1599523
0.14471875
0.1294852
0.11425164
0.099018091
0.083784538
0.068550986
0.053317433
0.038083881
0.022850328
0.0076167758
1.5249946
1.5076953
1.4921165
1.4768856
1.4613317
1.4454947
1.4296182
1.4138418
1.398173
1.3825698
1.3670001
1.3514544
1.335934
1.3204403
1.3049713
1.2895238
1.2740947
1.2586819
1.243284
1.2278996
1.2125277
1.197167
1.1818168
1.166476
1.151144
1.13582
1.1205034
1.1051936
1.0898901
1.0745923
1.0592999
1.0440125
1.0287296
1.0134509
0.99817605
0.9829048
0.96763685
0.95237193
0.93710982
0.9218503
0.90659314
0.89133817
0.87608522
0.86083411
0.84558469
0.83033683
0.81509039
0.79984526
0.78460132
0.76935847
0.75411662
0.73887567
0.72363555
0.70839618
0.69315749
0.67791942
0.6626819
0.64744489
0.63220833
0.61697217
0.60173638
0.5865009
0.57126572
0.55603078
0.54079607
0.52556154
0.51032718
0.49509297
0.47985888
0.46462489
0.44939098
0.43415715
0.41892338
0.40368966
0.38845597
0.37322232
0.35798869
0.34275508
0.32752148
0.3122879
0.29705432
0.28182075
0.26658719
0.25135363
0.23612007
0.22088652
0.20565296
0.19041941
0.17518585
0.1599523
0.14471875
0.1294852
0.11425164
0.099018091
0.083784538
0.068550986
0.053317433
0.038083881
0.022850328
0.0076167756
1.5246393
1.5071993
1.491783
1.4767849
1.4613713
1.445566
1.4296714
1.4138767
1.3982035
1.3826026
1.3670341
1.3514861
1.3359617
1.3204641
1.3049922
1.2895425
1.2741116
1.2586971
1.2432977
1.227912
1.2125388
1.1971772
1.1818261
1.1664845
1.1511518
1.1358271
1.1205099
1.1051996
1.0898956
1.0745974
1.0593046
1.0440168
1.0287335
1.0134545
0.99817941
0.98290789
0.96763969
0.95237455
0.93711223
0.92185251
0.90659518
0.89134005
0.87608693
0.86083568
0.84558613
0.83033815
0.8150916
0.79984636
0.78460233
0.76935939
0.75411746
0.73887643
0.72363624
0.70839681
0.69315806
0.67791993
0.66268237
0.64744531
0.6322087
0.61697251
0.60173667
0.58650117
0.57126595
0.55603099
0.54079624
0.5255617
0.51032732
0.49509308
0.47985897
0.46462497
0.44939105
0.43415721
0.41892343
0.40368969
0.388456
0.37322234
0.35798871
0.34275509
0.32752149
0.31228791
0.29705433
0.28182076
0.26658719
0.25135363
0.23612007
0.22088652
0.20565296
0.19041941
0.17518585
0.1599523
0.14471875
0.1294852
0.11425164
0.099018091
0.083784538
0.068550986
0.053317433
0.038083881
0.022850328
0.0076167756
1.5246393
1.5071993
1.491783
1.4767849
1.4613713
1.4455659
1.4296714
1.4138767
1.3982035
1.3826026
1.3670341
1.3514861
1.3359617
1.3204641
1.3049922
1.2895425
1.2741116
1.2586971
1.2432977
1.227912
1.2125388
1.1971772
1.1818261
1.1664845
1.1511518
1.1358271
1.1205099
1.1051996
1.0898956
1.0745974
1.0593046
1.0440168
1.0287335
1.0134545
0.99817941
0.98290789
0.96763969
0.95237455
0.93711223
0.92185251
0.90659518
0.89134004
0.87608693
0.86083568
0.84558613
0.83033815
0.8150916
0.79984636
0.78460233
0.76935939
0.75411746
0.73887643
0.72363624
0.70839681
0.69315806
0.67791993
0.66268237
0.64744531
0.6322087
0.61697251
0.60173667
0.58650117
0.57126595
0.55603099
0.54079624
0.5255617
0.51032732
0.49509308
0.47985897
0.46462497
0.44939105
0.43415721
0.41892343
0.40368969
0.388456
0.37322234
0.35798871
0.34275509
0.32752149
0.31228791
0.29705433
0.28182076
0.26658719
0.25135363
0.23612007
0.22088652
0.20565296
0.19041941
0.17518585
0.1599523
0.14471875
0.1294852
0.11425164
0.099018091
0.083784538
0.068550986
0.053317433
0.038083881
0.022850329
0.007616776
1.5249946
1.5076953
1.4921165
1.4768856
1.4613317
1.4454947
1.4296182
1.4138418
1.398173
1.3825698
1.3670001
1.3514544
1.335934
1.3204403
1.3049713
1.2895238
1.2740947
1.258682
1.243284
1.2278996
1.2125277
1.1971671
1.1818168
1.1664761
1.151144
1.13582
1.1205034
1.1051936
1.0898901
1.0745923
1.0592999
1.0440125
1.0287296
1.0134509
0.99817605
0.9829048
0.96763684
0.95237193
0.93710982
0.92185029
0.90659314
0.89133817
0.87608521
0.8608341
0.84558469
0.83033683
0.81509039
0.79984526
0.78460132
0.76935847
0.75411662
0.73887567
0.72363555
0.70839618
0.69315749
0.67791942
0.6626819
0.64744489
0.63220833
0.61697217
0.60173638
0.5865009
0.57126572
0.55603078
0.54079607
0.52556154
0.51032719
0.49509297
0.47985888
0.46462489
0.44939098
0.43415715
0.41892338
0.40368966
0.38845597
0.37322232
0.35798869
0.34275508
0.32752148
0.3122879
0.29705432
0.28182076
0.26658719
0.25135363
0.23612007
0.22088652
0.20565296
0.19041941
0.17518585
0.1599523
0.14471875
0.1294852
0.11425164
0.099018091
0.083784538
0.068550986
0.053317434
0.038083882
0.02285033
0.0076167763
1.5255946
1.5085005
1.4926238
1.4770136
1.4612523
1.4453793
1.4295357
1.4137873
1.3981253
1.3825197
1.3669499
1.3514087
1.3358949
1.320407
1.3049424
1.2894982
1.2740719
1.2586615
1.2432657
1.2278832
1.2125129
1.1971537
1.1818047
1.166465
1.1511339
1.1358108
1.120495
1.1051859
1.089883
1.0745858
1.059294
1.044007
1.0287245
1.0134462
0.99817179
0.98290088
0.96763325
0.95236863
0.93710679
0.92184751
0.90659059
0.89133584
0.87608308
0.86083215
0.8455829
0.8303352
0.8150889
0.7998439
0.78460009
0.76935735
0.7541156
0.73887475
0.72363472
0.70839543
0.69315681
0.67791881
0.66268136
0.6474444
0.63220789
0.61697179
0.60173604
0.58650061
0.57126546
0.55603055
0.54079587
0.52556137
0.51032704
0.49509285
0.47985878
0.4646248
0.44939091
0.4341571
0.41892333
0.40368962
0.38845594
0.37322229
0.35798867
0.34275506
0.32752147
0.31228789
0.29705432
0.28182075
0.26658719
0.25135363
0.23612007
0.22088652
0.20565296
0.19041941
0.17518585
0.1599523
0.14471875
0.1294852
0.11425164
0.099018091
0.083784538
0.068550986
0.053317434
0.038083882
0.02285033
0.0076167765
1.5262121
1.5092651
1.4930369
1.477062
1.4611361
1.4452548
1.4294507
1.4137291
1.3980746
1.3824695
1.3669024
1.3513671
1.3358597
1.320377
1.3049163
1.289475
1.2740512
1.258643
1.2432491
1.2278683
1.2124994
1.1971415
1.1817936
1.1664549
1.1511247
1.1358024
1.1204873
1.1051788
1.0898765
1.0745799
1.0592886
1.0440021
1.02872
1.0134421
0.99816802
0.98289743
0.9676301
0.95236575
0.93710417
0.92184512
0.90658841
0.89133385
0.87608127
0.86083051
0.84558142
0.83033385
0.81508769
0.79984281
0.7845991
0.76935646
0.75411481
0.73887404
0.72363408
0.70839486
0.69315631
0.67791837
0.66268097
0.64744406
0.6322076
0.61697153
0.60173582
0.58650042
0.5712653
0.55603042
0.54079576
0.52556128
0.51032696
0.49509278
0.47985872
0.46462476
0.44939088
0.43415707
0.41892331
0.4036896
0.38845593
0.37322229
0.35798866
0.34275506
0.32752147
0.31228789
0.29705432
0.28182075
0.26658719
0.25135363
0.23612007
0.22088652
0.20565296
0.19041941
0.17518585
0.1599523
0.14471875
0.1294852
0.11425164
0.099018091
0.083784539
0.068550986
0.053317434
0.038083882
0.02285033
0.0076167765
1.5265627
1.5096499
1.4931627
1.4769769
1.4609854
1.4451221
1.4293497
1.4136476
1.3980028
1.382405
1.3668457
1.3513182
1.3358176
1.3203404
1.3048839
1.2894461
1.2740252
1.2586196
1.243228
1.2278491
1.2124819
1.1971255
1.181779
1.1664415
1.1511125
1.1357912
1.120477
1.1051695
1.089868
1.0745721
1.0592814
1.0439955
1.028714
1.0134366
0.99816298
0.98289284
0.96762591
0.95236194
0.93710069
0.92184196
0.90658554
0.89133125
0.87607892
0.86082838
0.8455795
0.83033212
0.81508614
0.79984142
0.78459785
0.76935535
0.75411382
0.73887316
0.72363331
0.70839419
0.69315572
0.67791785
0.66268052
0.64744368
0.63220727
0.61697125
0.60173558
0.58650022
0.57126513
0.55603028
0.54079565
0.52556119
0.51032689
0.49509273
0.47985868
0.46462473
0.44939086
0.43415705
0.4189233
0.40368959
0.38845592
0.37322228
0.35798866
0.34275506
0.32752147
0.31228789
0.29705432
0.28182075
0.26658719
0.25135363
0.23612007
0.22088652
0.20565296
0.19041941
0.17518585
0.1599523
0.14471875
0.1294852
0.11425164
0.099018091
0.083784539
0.068550986
0.053317434
0.038083882
0.022850329
0.0076167764
)
;

boundaryField
{
    top
    {
        type            zeroGradient;
    }
    inlet
    {
        type            fixedValue;
        value           uniform 1.5352;
    }
    outlet
    {
        type            fixedValue;
        value           uniform 0;
    }
    bottom
    {
        type            zeroGradient;
    }
    back
    {
        type            empty;
    }
    front
    {
        type            empty;
    }
}


// ************************************************************************* //
