/*--------------------------------*- C++ -*----------------------------------*\
| =========                 |                                                 |
| \\      /  F ield         | OpenFOAM: The Open Source CFD Toolbox           |
|  \\    /   O peration     | Version:  2112                                  |
|   \\  /    A nd           | Website:  www.openfoam.com                      |
|    \\/     M anipulation  |                                                 |
\*---------------------------------------------------------------------------*/
FoamFile
{
    version     2.0;
    format      ascii;
    arch        "LSB;label=32;scalar=64";
    class       surfaceScalarField;
    location    "12";
    object      phi;
}
// * * * * * * * * * * * * * * * * * * * * * * * * * * * * * * * * * * * * * //

dimensions      [0 3 -1 0 0 0 0];

oriented        oriented;

internalField   nonuniform List<scalar> 
1890
(
0.0029366179
2.7394265e-06
0.0029275237
9.0948912e-06
0.002916495
1.1028534e-05
0.00290667
9.8243652e-06
0.0028989453
7.7240258e-06
0.0028929267
6.0179659e-06
0.0028880172
4.9089695e-06
0.0028838432
4.1735144e-06
0.0028802374
3.6053258e-06
0.0028771164
3.1206306e-06
0.002874407
2.7091093e-06
0.0028720338
2.3729817e-06
0.0028699301
2.1034761e-06
0.0028680458
1.8841224e-06
0.002866346
1.6996314e-06
0.0028648059
1.539995e-06
0.0028634061
1.3997335e-06
0.0028621304
1.2756302e-06
0.0028609652
1.1652319e-06
0.0028598987
1.066389e-06
0.0028589214
9.7730097e-07
0.0028580248
8.9656014e-07
0.0028572017
8.2309847e-07
0.0028564456
7.5606968e-07
0.0028557509
6.9477336e-07
0.0028551123
6.3860415e-07
0.0028545253
5.8704291e-07
0.0028539856
5.3963796e-07
0.0028534897
4.9600223e-07
0.0028530339
4.5579419e-07
0.0028526152
4.1871659e-07
0.0028522307
3.8450196e-07
0.0028518779
3.5291521e-07
0.0028515541
3.2374228e-07
0.0028512574
2.9679395e-07
0.0028509855
2.7189594e-07
0.0028507367
2.488933e-07
0.0028505091
2.2764183e-07
0.0028503011
2.0801271e-07
0.0028501113
1.8988501e-07
0.0028499381
1.7315037e-07
0.0028497805
1.5770628e-07
0.0028496371
1.4346066e-07
0.0028495068
1.3032585e-07
0.0028493886
1.1822294e-07
0.0028492815
1.0707651e-07
0.0028491848
9.6818573e-08
0.0028490974
8.7383929e-08
0.0028490187
7.8713901e-08
0.002848948
7.0752142e-08
0.0028488846
6.3448094e-08
0.0028488279
5.6753279e-08
0.0028487773
5.0624438e-08
0.0028487323
4.5020219e-08
0.0028486924
3.9903956e-08
0.0028486572
3.5240709e-08
0.0028486262
3.099965e-08
0.0028485991
2.7151384e-08
0.0028485755
2.3669921e-08
0.002848555
2.0530313e-08
0.0028485373
1.7710228e-08
0.0028485221
1.5187895e-08
0.0028485092
1.2943367e-08
0.0028484983
1.0956848e-08
0.0028484891
9.2097091e-09
0.0028484814
7.6832285e-09
0.0028484751
6.3594371e-09
0.0028484699
5.2202848e-09
0.0028484656
4.2483362e-09
0.0028484622
3.4263115e-09
0.0028484595
2.7376409e-09
0.0028484573
2.1662847e-09
0.0028484556
1.6971154e-09
0.0028484543
1.315913e-09
0.0028484533
1.0095737e-09
0.0028484526
7.6616834e-10
0.002848452
5.7501383e-10
0.0028484516
4.2670513e-10
0.0028484513
3.1303979e-10
0.0028484511
2.2702958e-10
0.0028484509
1.6277326e-10
0.0028484508
1.1539371e-10
0.0028484507
8.0923101e-11
0.0028484507
5.6158562e-11
0.0028484506
3.8624533e-11
0.0028484506
2.6316527e-11
0.0028484506
1.7835532e-11
0.0028484506
1.1954453e-11
0.0028484506
8.019884e-12
0.0028484505
5.2340133e-12
0.0028484505
3.4666819e-12
0.0028484505
2.1085267e-12
0.0028484505
1.4238383e-12
0.0028484505
8.7499821e-13
0.0028484505
9.8566581e-13
0.0028484505
1.4889979e-12
0.0028484505
2.8560708e-12
0.0028484505
5.9249594e-12
0.0028484505
9.9071769e-12
1.8801406e-11
0.0072209063
2.9484341e-06
0.0072174479
1.2554161e-05
0.0072110646
1.7411919e-05
0.0072036003
1.7288118e-05
0.0071963182
1.5005448e-05
0.0071895597
1.2775958e-05
0.0071832882
1.1180042e-05
0.0071774539
1.0007389e-05
0.0071720674
8.9914817e-06
0.0071671506
8.037042e-06
0.0071626953
7.1642117e-06
0.0071586635
6.404498e-06
0.0071550077
5.7591814e-06
0.0071516836
5.2080078e-06
0.0071486549
4.728186e-06
0.007145891
4.3038121e-06
0.0071433651
3.9255733e-06
0.0071410533
3.5873339e-06
0.0071389347
3.28387e-06
0.0071369906
3.0103742e-06
0.0071352052
2.7626747e-06
0.0071335644
2.537397e-06
0.0071320556
2.3318566e-06
0.0071306678
2.1438694e-06
0.007129391
1.9715848e-06
0.0071282162
1.8134103e-06
0.0071271353
1.6679616e-06
0.0071261409
1.5340424e-06
0.0071252263
1.410607e-06
0.0071243853
1.2967412e-06
0.0071236124
1.1916319e-06
0.0071229024
1.0945577e-06
0.0071222505
1.004869e-06
0.0071216523
9.2198435e-07
0.0071211037
8.4537537e-07
0.0071206011
7.7456554e-07
0.0071201409
7.0911787e-07
0.0071197199
6.4863588e-07
0.0071193352
5.9275341e-07
0.007118984
5.4113646e-07
0.0071186637
4.9347489e-07
0.0071183719
4.494847e-07
0.0071181065
4.0890099e-07
0.0071178654
3.7148034e-07
0.0071176466
3.3699494e-07
0.0071174485
3.0523506e-07
0.0071172693
2.7600393e-07
0.0071171076
2.4912022e-07
0.007116962
2.2441373e-07
0.007116831
2.0172774e-07
0.0071167136
1.8091536e-07
0.0071166085
1.6184169e-07
0.0071165148
1.4438073e-07
0.0071164314
1.2841727e-07
0.0071163575
1.1384419e-07
0.0071162922
1.0056392e-07
0.0071162347
8.8486044e-08
0.0071161844
7.7528275e-08
0.0071161405
6.7614215e-08
0.0071161023
5.867387e-08
0.0071160694
5.0641612e-08
0.0071160412
4.3456339e-08
0.0071160171
3.7059762e-08
0.0071159967
3.1396364e-08
0.0071159795
2.6412182e-08
0.0071159651
2.2054788e-08
0.0071159532
1.827264e-08
0.0071159434
1.5015189e-08
0.0071159355
1.2232801e-08
0.007115929
9.8770093e-09
0.0071159239
7.9008522e-09
0.0071159198
6.2591792e-09
0.0071159166
4.9091965e-09
0.0071159141
3.8106964e-09
0.0071159122
2.9266064e-09
0.0071159107
2.2230243e-09
0.0071159097
1.6696495e-09
0.0071159089
1.2395475e-09
0.0071159083
9.0943224e-10
0.0071159078
6.5917875e-10
0.0071159075
4.7201738e-10
0.0071159073
3.3379829e-10
0.0071159072
2.3323035e-10
0.0071159071
1.6093285e-10
0.007115907
1.0986055e-10
0.0071159069
7.4088476e-11
0.0071159069
4.9621846e-11
0.0071159069
3.2815585e-11
0.0071159069
2.176687e-11
0.0071159069
1.4164017e-11
0.0071159069
9.4784532e-12
0.0071159069
6.1041583e-12
0.0071159069
4.3740182e-12
0.0071159069
3.173258e-12
0.0071159068
3.120412e-12
0.0071159068
4.0754162e-12
0.0071159068
5.8401877e-12
0.0071159068
1.103098e-11
0.0071159068
1.5183141e-11
2.5439732e-11
0.010156782
2.1021101e-06
0.010158985
1.0351056e-05
0.010160858
1.5538644e-05
0.010161732
1.6413785e-05
0.01016184
1.489644e-05
0.010161448
1.3168159e-05
0.010160686
1.1941343e-05
0.010159636
1.1057092e-05
0.010158385
1.0241828e-05
0.010157021
9.4015336e-06
0.010155608
8.5769251e-06
0.010154189
7.8228871e-06
0.010152791
7.1570113e-06
0.010151431
6.5677532e-06
0.010150122
6.0373873e-06
0.010148872
5.5541302e-06
0.010147685
5.1122759e-06
0.010146564
4.7084356e-06
0.010145508
4.3392186e-06
0.010144518
4.0009548e-06
0.01014359
3.6902069e-06
0.010142723
3.4040896e-06
0.010141915
3.1402535e-06
0.010141162
2.8967124e-06
0.010140462
2.6717196e-06
0.010139812
2.4637041e-06
0.010139208
2.2712602e-06
0.010138649
2.0931286e-06
0.010138132
1.9281849e-06
0.010137653
1.7754133e-06
0.010137211
1.6338952e-06
0.010136803
1.5027913e-06
0.010136426
1.381337e-06
0.010136079
1.2688295e-06
0.01013576
1.1646259e-06
0.010135467
1.0681321e-06
0.010135197
9.7880228e-07
0.010134949
8.9612952e-07
0.010134723
8.1964683e-07
0.010134515
7.4891894e-07
0.010134325
6.8354385e-07
0.010134151
6.231459e-07
0.010133993
5.6737741e-07
0.010133848
5.1591275e-07
0.010133717
4.6845023e-07
0.010133597
4.2470689e-07
0.010133489
3.844203e-07
0.010133391
3.473442e-07
0.010133302
3.132504e-07
0.010133222
2.8192493e-07
0.01013315
2.5316985e-07
0.010133085
2.2679998e-07
0.010133026
2.0264468e-07
0.010132974
1.8054492e-07
0.010132928
1.6035478e-07
0.010132886
1.4193886e-07
0.01013285
1.2517338e-07
0.010132817
1.0994369e-07
0.010132789
9.6144959e-08
0.010132764
8.3679739e-08
0.010132742
7.2458235e-08
0.010132723
6.2396028e-08
0.010132707
5.3414029e-08
0.010132693
4.5436544e-08
0.010132681
3.8391195e-08
0.010132671
3.2207502e-08
0.010132662
2.6816914e-08
0.010132655
2.2152068e-08
0.010132649
1.8147079e-08
0.010132644
1.4737419e-08
0.01013264
1.186039e-08
0.010132637
9.455466e-09
0.010132635
7.4648487e-09
0.010132633
5.8339775e-09
0.010132631
4.5119797e-09
0.01013263
3.4521174e-09
0.010132629
2.6120268e-09
0.010132628
1.9539146e-09
0.010132628
1.4445634e-09
0.010132627
1.0552056e-09
0.010132627
7.6138658e-10
0.010132627
5.4251067e-10
0.010132627
3.8171948e-10
0.010132626
2.6512506e-10
0.010132626
1.8189879e-10
0.010132626
1.2317018e-10
0.010132626
8.2545071e-11
0.010132626
5.4575887e-11
0.010132626
3.5926707e-11
0.010132626
2.3273749e-11
0.010132626
1.5262298e-11
0.010132626
9.8285367e-12
0.010132626
6.7394935e-12
0.010132626
4.8816809e-12
0.010132626
4.1481111e-12
0.010132626
4.9218406e-12
0.010132626
5.5377867e-12
0.010132626
9.9405706e-12
0.010132626
1.119815e-11
1.8513597e-11
0.011974256
1.0546516e-06
0.011978998
5.6094405e-06
0.011985753
8.7829499e-06
0.011992578
9.5887878e-06
0.011998586
8.8874943e-06
0.012003782
7.9719552e-06
0.012008382
7.3411115e-06
0.012012524
6.9145774e-06
0.012016251
6.5141435e-06
0.01201958
6.0722545e-06
0.012022541
5.6163978e-06
0.012025176
5.1871104e-06
0.012027533
4.8003771e-06
0.012029649
4.4516405e-06
0.012031555
4.1312828e-06
0.012033275
3.8333247e-06
0.012034832
3.5556761e-06
0.012036243
3.2975721e-06
0.012037524
3.0579539e-06
0.012038689
2.8353428e-06
0.012039751
2.6282187e-06
0.01204072
2.4353055e-06
0.012041605
2.2555588e-06
0.012042413
2.0880934e-06
0.012043153
1.9320881e-06
0.01204383
1.7867833e-06
0.01204445
1.6514604e-06
0.012045017
1.5254657e-06
0.012045537
1.4081848e-06
0.012046014
1.2990569e-06
0.01204645
1.1975486e-06
0.01204685
1.10317e-06
0.012047216
1.0154528e-06
0.012047551
9.3396732e-07
0.012047857
8.5830204e-07
0.012048137
7.8807976e-07
0.012048393
7.2293834e-07
0.012048626
6.6254616e-07
0.01204884
6.065843e-07
0.012049034
5.5476126e-07
0.012049211
5.0679635e-07
0.012049371
4.6243326e-07
0.012049517
4.2142498e-07
0.01204965
3.8354635e-07
0.012049769
3.4858008e-07
0.012049878
3.1632858e-07
0.012049976
2.8660074e-07
0.012050064
2.5922316e-07
0.012050143
2.3402859e-07
0.012050214
2.108653e-07
0.012050278
1.8958722e-07
0.012050335
1.7006239e-07
0.012050385
1.5216409e-07
0.01205043
1.3577839e-07
0.012050469
1.2079629e-07
0.012050504
1.0712028e-07
0.012050535
9.4657423e-08
0.012050561
8.3324814e-08
0.012050585
7.3043438e-08
0.012050605
6.3742735e-08
0.012050622
5.5355121e-08
0.012050636
4.7819584e-08
0.012050649
4.1077029e-08
0.012050659
3.50731e-08
0.012050668
2.9754391e-08
0.012050675
2.5070636e-08
0.012050681
2.0971893e-08
0.012050685
1.7410333e-08
0.012050689
1.433837e-08
0.012050692
1.1710121e-08
0.012050695
9.4803813e-09
0.012050696
7.6058149e-09
0.012050698
6.0445577e-09
0.012050699
4.7570808e-09
0.0120507
3.7061825e-09
0.0120507
2.8574822e-09
0.012050701
2.1795947e-09
0.012050701
1.64422e-09
0.012050701
1.2263724e-09
0.012050702
9.0407717e-10
0.012050702
6.5863117e-10
0.012050702
4.7395858e-10
0.012050702
3.3694052e-10
0.012050702
2.3647741e-10
0.012050702
1.639873e-10
0.012050702
1.1220125e-10
0.012050702
7.5959158e-11
0.012050702
5.0673996e-11
0.012050702
3.3597112e-11
0.012050702
2.1863736e-11
0.012050702
1.4313977e-11
0.012050702
9.1545615e-12
0.012050702
6.1092711e-12
0.012050702
4.1757259e-12
0.012050702
3.1591496e-12
0.012050702
3.1319206e-12
0.012050702
2.5797812e-12
0.012050702
4.1278155e-12
0.012050702
1.549381e-12
4.2901987e-12
0.012839816
2.7110883e-11
0.012845426
8.9323237e-11
0.012854208
4.9319069e-11
0.012863796
3.2809936e-11
0.012872683
7.122468e-11
0.012880654
1.5914684e-10
0.012887995
2.2268221e-10
0.012894909
2.4110651e-10
0.012901422
2.3670666e-10
0.012907494
2.2770071e-10
0.01291311
2.1743865e-10
0.012918297
1.9803835e-10
0.012923097
1.708085e-10
0.012927548
1.3598155e-10
0.012931679
1.001298e-10
0.012935513
6.2523918e-11
0.012939068
2.729309e-11
0.012942366
-9.6802793e-12
0.012945424
-4.2870598e-11
0.012948259
-7.4734587e-11
0.012950887
-1.0147083e-10
0.012953323
-1.264764e-10
0.012955578
-1.459771e-10
0.012957667
-1.6366525e-10
0.012959599
-1.7588342e-10
0.012961386
-1.8652884e-10
0.012963037
-1.9192722e-10
0.012964563
-1.9574287e-10
0.012965971
-1.9453199e-10
0.012967271
-1.9210141e-10
0.012968468
-1.8521829e-10
0.012969572
-1.7742518e-10
0.012970587
-1.6586507e-10
0.012971522
-1.5414332e-10
0.01297238
-1.3962939e-10
0.012973168
-1.2556783e-10
0.012973891
-1.0958617e-10
0.012974554
-9.4811435e-11
0.012975161
-7.8988754e-11
0.012975716
-6.4776678e-11
0.012976222
-5.009667e-11
0.012976685
-3.737214e-11
0.012977106
-2.4677754e-11
0.01297749
-1.3941739e-11
0.012977839
-3.7321357e-12
0.012978155
5.2163656e-12
0.012978442
1.3434341e-11
0.012978701
1.9853095e-11
0.012978935
2.6108417e-11
0.012979146
3.0727162e-11
0.012979335
3.5283736e-11
0.012979505
3.855913e-11
0.012979657
4.1966514e-11
0.012979793
4.4372442e-11
0.012979914
4.7030067e-11
0.012980021
4.9001022e-11
0.012980116
5.1330686e-11
0.012980199
5.3132442e-11
0.012980272
5.5252533e-11
0.012980336
5.6945828e-11
0.012980391
5.884844e-11
0.012980439
6.0271328e-11
0.01298048
6.1677945e-11
0.012980515
6.2519556e-11
0.012980544
6.3119117e-11
0.01298057
6.3035345e-11
0.01298059
6.2504642e-11
0.012980608
6.1245869e-11
0.012980622
5.9447754e-11
0.012980634
5.6966133e-11
0.012980643
5.3972701e-11
0.012980651
5.0453341e-11
0.012980657
4.6566623e-11
0.012980661
4.2390445e-11
0.012980665
3.806332e-11
0.012980668
3.3707283e-11
0.01298067
2.9419895e-11
0.012980672
2.533564e-11
0.012980673
2.1499148e-11
0.012980674
1.8018414e-11
0.012980675
1.4873984e-11
0.012980675
1.2152699e-11
0.012980675
9.7793229e-12
0.012980676
7.8121913e-12
0.012980676
6.131296e-12
0.012980676
4.7927118e-12
0.012980676
3.6640311e-12
0.012980676
2.7847015e-12
0.012980676
2.0356077e-12
0.012980676
1.4562714e-12
0.012980676
9.6179909e-13
0.012980676
5.823914e-13
0.012980676
2.5230251e-13
0.012980676
-5.2247235e-14
0.012980676
-3.3586597e-13
0.012980676
-8.5027296e-13
0.012980676
-1.7770039e-12
0.012980676
-2.9917523e-12
0.012980676
-7.8506688e-12
-9.9805287e-12
0.012839815
-1.0547368e-06
0.012845425
-5.6098473e-06
0.012854208
-8.7832506e-06
0.012863796
-9.588805e-06
0.012872683
-8.8873134e-06
0.012880654
-7.971709e-06
0.012887995
-7.340812e-06
0.012894909
-6.9142304e-06
0.012901422
-6.5137607e-06
0.012907494
-6.0718592e-06
0.01291311
-5.6160154e-06
0.012918297
-5.1867626e-06
0.012923097
-4.8000771e-06
0.012927548
-4.4513979e-06
0.01293168
-4.1311016e-06
0.012935513
-3.8332092e-06
0.012939068
-3.5556262e-06
0.012942366
-3.2975888e-06
0.012945424
-3.0580321e-06
0.012948259
-2.8354785e-06
0.012950887
-2.6284043e-06
0.012953323
-2.4355361e-06
0.012955578
-2.255826e-06
0.012957667
-2.0883922e-06
0.012959599
-1.9324102e-06
0.012961386
-1.7871238e-06
0.012963037
-1.6518114e-06
0.012964563
-1.5258224e-06
0.012965971
-1.4085397e-06
0.012967271
-1.299406e-06
0.012968468
-1.1978853e-06
0.012969572
-1.103491e-06
0.012970587
-1.0157528e-06
0.012971521
-9.3424469e-07
0.01297238
-8.5855299e-07
0.012973168
-7.883039e-07
0.012973891
-7.2313362e-07
0.012974554
-6.6271362e-07
0.01297516
-6.0672326e-07
0.012975715
-5.5487369e-07
0.012976222
-5.0688261e-07
0.012976684
-4.6249605e-07
0.012977106
-4.2146527e-07
0.01297749
-3.8356699e-07
0.012977838
-3.4858241e-07
0.012978154
-3.163152e-07
0.012978441
-2.8657306e-07
0.0129787
-2.5918385e-07
0.012978934
-2.3397869e-07
0.012979145
-2.1080707e-07
0.012979335
-1.8952135e-07
0.012979505
-1.6999058e-07
0.012979657
-1.5208667e-07
0.012979793
-1.3569657e-07
0.012979914
-1.2071003e-07
0.012980021
-1.0703035e-07
0.012980115
-9.4563584e-08
0.012980199
-8.32276e-08
0.012980272
-7.2942605e-08
0.012980335
-6.3638752e-08
0.012980391
-5.5247932e-08
0.012980438
-4.7709826e-08
0.012980479
-4.0964981e-08
0.012980515
-3.4959642e-08
0.012980544
-2.9640176e-08
0.012980569
-2.4956796e-08
0.01298059
-2.0859377e-08
0.012980608
-1.7300388e-08
0.012980622
-1.4232054e-08
0.012980634
-1.16086e-08
0.012980643
-9.3845983e-09
0.012980651
-7.5166568e-09
0.012980657
-5.9626539e-09
0.012980661
-4.6828902e-09
0.012980665
-3.6399144e-09
0.012980668
-2.7991349e-09
0.01298067
-2.1289626e-09
0.012980672
-1.6009012e-09
0.012980673
-1.1898469e-09
0.012980674
-8.7369386e-10
0.012980674
-6.337162e-10
0.012980675
-4.537701e-10
0.012980675
-3.2080458e-10
0.012980675
-2.2371032e-10
0.012980676
-1.5402769e-10
0.012980676
-1.0450527e-10
0.012980676
-7.0111818e-11
0.012980676
-4.6312061e-11
0.012980676
-3.0439534e-11
0.012980676
-1.9692861e-11
0.012980676
-1.2943052e-11
0.012980676
-8.4610549e-12
0.012980676
-5.9751435e-12
0.012980676
-4.5823105e-12
0.012980676
-4.0811701e-12
0.012980676
-4.8714802e-12
0.012980676
-5.5959201e-12
0.012980676
-8.9947265e-12
0.012980676
-1.3277298e-11
-1.9074525e-11
0.011974256
-2.1020795e-06
0.011978998
-1.0350934e-05
0.011985753
-1.5538603e-05
0.011992578
-1.6413827e-05
0.011998586
-1.4896445e-05
0.012003782
-1.3168079e-05
0.012008382
-1.1941183e-05
0.012012524
-1.1056878e-05
0.012016252
-1.0241585e-05
0.012019581
-9.4012737e-06
0.012022541
-8.5766626e-06
0.012025177
-7.8226322e-06
0.012027533
-7.156782e-06
0.012029649
-6.5675575e-06
0.012031555
-6.0372387e-06
0.012033276
-5.5540285e-06
0.012034832
-5.112228e-06
0.012036243
-4.7084355e-06
0.012037524
-4.3392695e-06
0.01203869
-4.0010473e-06
0.012039752
-3.690342e-06
0.01204072
-3.4042566e-06
0.012041605
-3.1404524e-06
0.012042414
-2.8969323e-06
0.012043153
-2.6719607e-06
0.01204383
-2.4639557e-06
0.01204445
-2.2715224e-06
0.012045017
-2.0933912e-06
0.012045537
-1.9284485e-06
0.012046013
-1.7756684e-06
0.01204645
-1.6341428e-06
0.012046849
-1.503023e-06
0.012047215
-1.3815547e-06
0.01204755
-1.2690263e-06
0.012047856
-1.1648046e-06
0.012048136
-1.0682874e-06
0.012048392
-9.7893792e-07
0.012048625
-8.9624164e-07
0.012048839
-8.1973979e-07
0.012049033
-7.4899003e-07
0.012049209
-6.8359791e-07
0.01204937
-6.2318096e-07
0.012049516
-5.6739825e-07
0.012049648
-5.1591797e-07
0.012049768
-4.6844446e-07
0.012049877
-4.2468887e-07
0.012049975
-3.8439419e-07
0.012050063
-3.4730893e-07
0.012050142
-3.1320965e-07
0.012050213
-2.8187752e-07
0.012050277
-2.5311875e-07
0.012050334
-2.2674395e-07
0.012050384
-2.0258613e-07
0.012050429
-1.8048249e-07
0.012050468
-1.602903e-07
0.012050503
-1.4187099e-07
0.012050534
-1.251036e-07
0.012050561
-1.098708e-07
0.012050584
-9.6070179e-08
0.012050604
-8.3602185e-08
0.012050621
-7.2379089e-08
0.012050635
-6.23148e-08
0.012050648
-5.3331916e-08
0.012050658
-4.5353506e-08
0.012050667
-3.8308492e-08
0.012050674
-3.2125448e-08
0.01205068
-2.673674e-08
0.012050685
-2.2074309e-08
0.012050689
-1.8072827e-08
0.012050692
-1.4667224e-08
0.012050694
-1.1795061e-08
0.012050696
-9.3954134e-09
0.012050698
-7.4105001e-09
0.012050699
-5.785483e-09
0.012050699
-4.4693695e-09
0.0120507
-3.415267e-09
0.012050701
-2.5806186e-09
0.012050701
-1.9276022e-09
0.012050701
-1.4228085e-09
0.012050701
-1.0375509e-09
0.012050701
-7.4720185e-10
0.012050702
-5.3133951e-10
0.012050702
-3.7297144e-10
0.012050702
-2.5843565e-10
0.012050702
-1.7677607e-10
0.012050702
-1.1938375e-10
0.012050702
-7.9730316e-11
0.012050702
-5.2642556e-11
0.012050702
-3.4596683e-11
0.012050702
-2.256585e-11
0.012050702
-1.4966097e-11
0.012050702
-1.0037182e-11
0.012050702
-7.307631e-12
0.012050702
-5.8731134e-12
0.012050702
-5.5530234e-12
0.012050702
-6.7067814e-12
0.012050702
-7.5971752e-12
0.012050702
-1.220355e-11
0.012050702
-1.3496431e-11
-2.1522585e-11
0.010156781
-2.9483982e-06
0.010158985
-1.2554001e-05
0.010160858
-1.7411786e-05
0.010161732
-1.728816e-05
0.010161841
-1.5005641e-05
0.010161448
-1.2776167e-05
0.010160686
-1.1180177e-05
0.010159637
-1.0007431e-05
0.010158386
-8.991455e-06
0.010157021
-8.036969e-06
0.010155608
-7.1641081e-06
0.01015419
-6.4043731e-06
0.010152792
-5.7590502e-06
0.010151432
-5.2078837e-06
0.010150123
-4.7280829e-06
0.010148872
-4.3037359e-06
0.010147685
-3.9255285e-06
0.010146564
-3.5873186e-06
0.010145509
-3.283885e-06
0.010144518
-3.0104155e-06
0.01014359
-2.7627413e-06
0.010142724
-2.5374837e-06
0.010141915
-2.3319617e-06
0.010141162
-2.1439876e-06
0.010140462
-1.9717144e-06
0.010139811
-1.8135461e-06
0.010139208
-1.6681021e-06
0.010138649
-1.5341831e-06
0.010138131
-1.4107468e-06
0.010137652
-1.2968757e-06
0.01013721
-1.1917604e-06
0.010136802
-1.0946769e-06
0.010136425
-1.0049787e-06
0.010136078
-9.2208209e-07
0.010135759
-8.4546168e-07
0.010135465
-7.7463884e-07
0.010135196
-7.0917941e-07
0.010134948
-6.4868469e-07
0.010134721
-5.9279116e-07
0.010134513
-5.4116288e-07
0.010134323
-4.9349191e-07
0.01013415
-4.4949225e-07
0.010133991
-4.08901e-07
0.010133847
-3.7147301e-07
0.010133715
-3.3698207e-07
0.010133596
-3.0521671e-07
0.010133488
-2.759817e-07
0.010133389
-2.4909419e-07
0.010133301
-2.2438519e-07
0.01013322
-2.0169655e-07
0.010133148
-1.8088251e-07
0.010133083
-1.6180695e-07
0.010133025
-1.4434482e-07
0.010132973
-1.2837981e-07
0.010132927
-1.1380569e-07
0.010132885
-1.0052403e-07
0.010132849
-8.8445156e-08
0.010132816
-7.7486085e-08
0.010132788
-6.7571096e-08
0.010132763
-5.862969e-08
0.010132741
-5.0596798e-08
0.010132722
-4.3410941e-08
0.010132706
-3.7014275e-08
0.010132692
-3.1351025e-08
0.01013268
-2.6367543e-08
0.01013267
-2.2011207e-08
0.010132661
-1.8230652e-08
0.010132654
-1.4975178e-08
0.010132649
-1.2195212e-08
0.010132644
-9.8421619e-09
0.01013264
-7.8690273e-09
0.010132637
-6.2305466e-09
0.010132634
-4.8838361e-09
0.010132632
-3.788612e-09
0.010132631
-2.9076859e-09
0.010132629
-2.2071072e-09
0.010132629
-1.6564727e-09
0.010132628
-1.2288578e-09
0.010132627
-9.0089619e-10
0.010132627
-6.5250378e-10
0.010132627
-4.6686463e-10
0.010132626
-3.2991652e-10
0.010132626
-2.3034083e-10
0.010132626
-1.5884601e-10
0.010132626
-1.0837034e-10
0.010132626
-7.309844e-11
0.010132626
-4.900155e-11
0.010132626
-3.2531907e-11
0.010132626
-2.1733418e-11
0.010132626
-1.4404276e-11
0.010132626
-9.9528255e-12
0.010132626
-6.8441295e-12
0.010132626
-5.4192702e-12
0.010132626
-4.4845349e-12
0.010132626
-4.8640184e-12
0.010132626
-5.7013071e-12
0.010132626
-7.4891341e-12
0.010132626
-1.1524427e-11
0.010132626
-9.4190527e-12
-1.8448852e-11
0.0072209063
-2.7393138e-06
0.0072174479
-9.0948049e-06
0.0072110648
-1.1028567e-05
0.0072036006
-9.8245677e-06
0.0071963186
-7.724388e-06
0.00718956
-6.0183852e-06
0.0071832884
-4.9093335e-06
0.0071774541
-4.1737729e-06
0.0071720676
-3.6054859e-06
0.0071671509
-3.120725e-06
0.0071626955
-2.709159e-06
0.0071586638
-2.3730025e-06
0.0071550079
-2.1034739e-06
0.0071516839
-1.8841105e-06
0.0071486553
-1.6996151e-06
0.0071458914
-1.5399846e-06
0.0071433654
-1.3997274e-06
0.0071410537
-1.2756335e-06
0.0071389349
-1.1652401e-06
0.0071369909
-1.0664058e-06
0.0071352054
-9.7732115e-07
0.0071335645
-8.9658711e-07
0.0071320556
-8.2312687e-07
0.0071306677
-7.5610271e-07
0.0071293908
-6.9480567e-07
0.0071282159
-6.38639e-07
0.0071271349
-5.8707535e-07
0.0071261404
-5.3967123e-07
0.0071252258
-4.9603158e-07
0.0071243847
-4.5582286e-07
0.0071236118
-4.1874027e-07
0.0071229016
-3.845239e-07
0.0071222496
-3.5293145e-07
0.0071216514
-3.2375612e-07
0.0071211027
-2.9680199e-07
0.0071206
-2.7190149e-07
0.0071201398
-2.4889335e-07
0.0071197188
-2.2763964e-07
0.0071193341
-2.0800572e-07
0.0071189828
-1.8987637e-07
0.0071186625
-1.7313775e-07
0.0071183708
-1.5769264e-07
0.0071181054
-1.4344393e-07
0.0071178643
-1.3030872e-07
0.0071176455
-1.1820349e-07
0.0071174474
-1.0705712e-07
0.0071172683
-9.679751e-08
0.0071171066
-8.7363308e-08
0.007116961
-7.8692063e-08
0.0071168301
-7.0730933e-08
0.0071167126
-6.3426016e-08
0.0071166076
-5.6731932e-08
0.0071165139
-5.0602432e-08
0.0071164306
-4.4998935e-08
0.0071163567
-3.9882183e-08
0.0071162914
-3.5219643e-08
0.007116234
-3.0978232e-08
0.0071161837
-2.7130639e-08
0.0071161398
-2.3648995e-08
0.0071161017
-2.0510091e-08
0.0071160688
-1.7690033e-08
0.0071160406
-1.5168472e-08
0.0071160166
-1.292423e-08
0.0071159962
-1.0938611e-08
0.007115979
-9.1920436e-09
0.0071159647
-7.6666073e-09
0.0071159529
-6.3436572e-09
0.0071159431
-5.2056777e-09
0.0071159352
-4.2347899e-09
0.0071159288
-3.4140117e-09
0.0071159236
-2.7265238e-09
0.0071159196
-2.1564024e-09
0.0071159164
-1.6884331e-09
0.0071159139
-1.3083713e-09
0.007115912
-1.0031412e-09
0.0071159106
-7.6071279e-10
0.0071159095
-5.7050599e-10
0.0071159087
-4.2296779e-10
0.0071159081
-3.1004963e-10
0.0071159077
-2.2460201e-10
0.0071159074
-1.6090888e-10
0.0071159072
-1.1391852e-10
0.0071159071
-7.9862052e-11
0.007115907
-5.5359074e-11
0.0071159069
-3.8141752e-11
0.0071159069
-2.6020709e-11
0.0071159068
-1.7793365e-11
0.0071159068
-1.2052257e-11
0.0071159068
-8.3449618e-12
0.0071159068
-5.67501e-12
0.0071159068
-4.1362417e-12
0.0071159068
-2.8937887e-12
0.0071159068
-2.4776038e-12
0.0071159068
-2.0268459e-12
0.0071159068
-2.4067494e-12
0.0071159067
-2.8064737e-12
0.0071159067
-4.5097358e-12
0.0071159067
-6.142377e-12
0.0071159067
-4.575869e-12
-1.181985e-11
0.0029366185
0.0029275239
0.0029164952
0.0029066702
0.0028989453
0.0028929266
0.0028880169
0.0028838428
0.002880237
0.0028771161
0.0028744067
0.0028720335
0.0028699299
0.0028680457
0.002866346
0.002864806
0.0028634062
0.0028621305
0.0028609652
0.0028598988
0.0028589215
0.0028580249
0.0028572017
0.0028564456
0.0028557508
0.0028551122
0.0028545251
0.0028539855
0.0028534895
0.0028530337
0.002852615
0.0028522305
0.0028518775
0.0028515538
0.002851257
0.0028509852
0.0028507363
0.0028505087
0.0028503007
0.0028501109
0.0028499378
0.0028497801
0.0028496367
0.0028495064
0.0028493882
0.0028492812
0.0028491844
0.0028490971
0.0028490184
0.0028489477
0.0028488843
0.0028488276
0.002848777
0.002848732
0.0028486922
0.002848657
0.002848626
0.0028485989
0.0028485753
0.0028485548
0.0028485371
0.002848522
0.0028485091
0.0028484981
0.002848489
0.0028484813
0.002848475
0.0028484698
0.0028484656
0.0028484622
0.0028484594
0.0028484573
0.0028484556
0.0028484543
0.0028484533
0.0028484526
0.002848452
0.0028484516
0.0028484513
0.002848451
0.0028484509
0.0028484508
0.0028484507
0.0028484506
0.0028484506
0.0028484506
0.0028484506
0.0028484505
0.0028484505
0.0028484505
0.0028484505
0.0028484505
0.0028484505
0.0028484505
0.0028484505
0.0028484505
0.0028484505
0.0028484505
0.0028484505
)
;

boundaryField
{
    top
    {
        type            calculated;
        value           uniform 0;
    }
    inlet
    {
        type            calculated;
        value           nonuniform List<scalar> 10(-0.0029393561 -0.0072211145 -0.010155934 -0.011973208 -0.012838761 -0.012838759 -0.011973208 -0.010155934 -0.0072211145 -0.0029393572);
    }
    outlet
    {
        type            calculated;
        value           nonuniform List<scalar> 10(0.0028484505 0.0071159068 0.010132626 0.012050702 0.012980676 0.012980676 0.012050702 0.010132626 0.0071159067 0.0028484505);
    }
    bottom
    {
        type            calculated;
        value           uniform 0;
    }
    back
    {
        type            empty;
        value           nonuniform List<scalar> 0();
    }
    front
    {
        type            empty;
        value           nonuniform List<scalar> 0();
    }
}


// ************************************************************************* //
