/*--------------------------------*- C++ -*----------------------------------*\
| =========                 |                                                 |
| \\      /  F ield         | OpenFOAM: The Open Source CFD Toolbox           |
|  \\    /   O peration     | Version:  2112                                  |
|   \\  /    A nd           | Website:  www.openfoam.com                      |
|    \\/     M anipulation  |                                                 |
\*---------------------------------------------------------------------------*/
FoamFile
{
    version     2.0;
    format      ascii;
    arch        "LSB;label=32;scalar=64";
    class       volVectorField;
    location    "12";
    object      U;
}
// * * * * * * * * * * * * * * * * * * * * * * * * * * * * * * * * * * * * * //

dimensions      [0 1 -1 0 0 0 0];

internalField   nonuniform List<vector> 
1000
(
(0.29386977 0.00023142081 0)
(0.29337128 0.00067232331 0)
(0.29226095 0.00073716742 0)
(0.29114722 0.00056415716 0)
(0.29025403 0.00037046129 0)
(0.28957265 0.00024741136 0)
(0.28903348 0.00018562984 0)
(0.2885832 0.00015197186 0)
(0.28819579 0.0001270263 0)
(0.28786034 0.00010600563 0)
(0.28756974 8.9399175e-05 0)
(0.28731661 7.7311323e-05 0)
(0.28709366 6.8615287e-05 0)
(0.28689498 6.1923545e-05 0)
(0.2867163 5.630527e-05 0)
(0.28655472 5.1348205e-05 0)
(0.28640805 4.6919888e-05 0)
(0.28627455 4.2960937e-05 0)
(0.28615274 3.9407622e-05 0)
(0.28604136 3.6192872e-05 0)
(0.28593935 3.3263006e-05 0)
(0.2858458 3.0581326e-05 0)
(0.28575995 2.8122774e-05 0)
(0.28568111 2.5866873e-05 0)
(0.28560868 2.3795092e-05 0)
(0.2855421 2.1890019e-05 0)
(0.28548091 2.0136249e-05 0)
(0.28542465 1.8520041e-05 0)
(0.28537294 1.7029535e-05 0)
(0.28532542 1.5653979e-05 0)
(0.28528176 1.4383928e-05 0)
(0.28524165 1.3210676e-05 0)
(0.28520484 1.2126575e-05 0)
(0.28517105 1.1124535e-05 0)
(0.28514007 1.0198325e-05 0)
(0.28511168 9.3421002e-06 0)
(0.28508568 8.5507096e-06 0)
(0.28506189 7.8192733e-06 0)
(0.28504014 7.1434773e-06 0)
(0.28502028 6.5191991e-06 0)
(0.28500216 5.9427902e-06 0)
(0.28498564 5.4107375e-06 0)
(0.28497061 4.9199265e-06 0)
(0.28495695 4.4673382e-06 0)
(0.28494454 4.0502957e-06 0)
(0.2849333 3.6661926e-06 0)
(0.28492313 3.3127173e-06 0)
(0.28491393 2.9876126e-06 0)
(0.28490565 2.6888822e-06 0)
(0.28489819 2.4145761e-06 0)
(0.2848915 2.1629763e-06 0)
(0.2848855 1.9324082e-06 0)
(0.28488015 1.7214063e-06 0)
(0.28487538 1.5285463e-06 0)
(0.28487114 1.3525889e-06 0)
(0.2848674 1.1923327e-06 0)
(0.2848641 1.0467358e-06 0)
(0.2848612 9.1478506e-07 0)
(0.28485867 7.9559677e-07 0)
(0.28485647 6.8830401e-07 0)
(0.28485456 5.9213779e-07 0)
(0.28485293 5.0633162e-07 0)
(0.28485153 4.3018671e-07 0)
(0.28485034 3.6299679e-07 0)
(0.28484934 3.0410025e-07 0)
(0.2848485 2.5282381e-07 0)
(0.2848478 2.0852548e-07 0)
(0.28484723 1.7055675e-07 0)
(0.28484676 1.3829694e-07 0)
(0.28484638 1.1113006e-07 0)
(0.28484607 8.8472139e-08 0)
(0.28484583 6.9758816e-08 0)
(0.28484564 5.4464419e-08 0)
(0.28484549 4.2095947e-08 0)
(0.28484538 3.2204841e-08 0)
(0.28484529 2.4383848e-08 0)
(0.28484523 1.8270637e-08 0)
(0.28484518 1.3547301e-08 0)
(0.28484514 9.9405991e-09 0)
(0.28484512 7.2198337e-09 0)
(0.2848451 5.1921671e-09 0)
(0.28484508 3.6992803e-09 0)
(0.28484507 2.6134076e-09 0)
(0.28484507 1.8321483e-09 0)
(0.28484506 1.2770806e-09 0)
(0.28484506 8.8430476e-10 0)
(0.28484506 6.1076244e-10 0)
(0.28484506 4.169633e-10 0)
(0.28484506 2.8519857e-10 0)
(0.28484506 1.8759245e-10 0)
(0.28484505 1.2491226e-10 0)
(0.28484505 7.2630551e-11 0)
(0.28484505 4.8551427e-11 0)
(0.28484505 2.8865888e-11 0)
(0.28484505 5.2875457e-11 0)
(0.28484505 1.0433078e-10 0)
(0.28484505 2.3699646e-10 0)
(0.28484505 4.6363602e-10 0)
(0.28484505 8.2276322e-10 0)
(0.28484505 1.337345e-09 0)
(0.72193163 0.00026704203 0)
(0.72238084 0.0011574673 0)
(0.72170251 0.0016156758 0)
(0.72077002 0.0015770437 0)
(0.71995491 0.0013192603 0)
(0.71926712 0.0010665389 0)
(0.71863853 0.00088766249 0)
(0.71803915 0.00076398644 0)
(0.71747385 0.0006654942 0)
(0.71695409 0.00057896754 0)
(0.71648389 0.00050368182 0)
(0.71606001 0.0004411142 0)
(0.71567666 0.00039041794 0)
(0.71532848 0.00034896771 0)
(0.71501139 0.00031411371 0)
(0.7147222 0.00028405213 0)
(0.71445814 0.00025775242 0)
(0.71421668 0.00023458058 0)
(0.71399556 0.00021404312 0)
(0.71379277 0.00019571189 0)
(0.71360661 0.00017923137 0)
(0.71343557 0.00016432554 0)
(0.71327833 0.00015078487 0)
(0.71313372 0.00013844489 0)
(0.71300068 0.0001271702 0)
(0.71287828 0.00011684571 0)
(0.71276566 0.00010737303 0)
(0.71266204 9.8667761e-05 0)
(0.71256673 9.0657354e-05 0)
(0.71247908 8.3278604e-05 0)
(0.7123985 7.6476097e-05 0)
(0.71232446 7.0200635e-05 0)
(0.71225646 6.4408505e-05 0)
(0.71219404 5.9060483e-05 0)
(0.71213678 5.4121408e-05 0)
(0.7120843 4.9559416e-05 0)
(0.71203623 4.5345703e-05 0)
(0.71199224 4.1453948e-05 0)
(0.71195201 3.7860191e-05 0)
(0.71191527 3.4542383e-05 0)
(0.71188175 3.148035e-05 0)
(0.7118512 2.8655423e-05 0)
(0.71182339 2.6050447e-05 0)
(0.7117981 2.3649469e-05 0)
(0.71177515 2.1437785e-05 0)
(0.71175434 1.9401682e-05 0)
(0.71173551 1.7528494e-05 0)
(0.7117185 1.5806388e-05 0)
(0.71170316 1.4224434e-05 0)
(0.71168935 1.2772429e-05 0)
(0.71167696 1.1440968e-05 0)
(0.71166586 1.0221296e-05 0)
(0.71165594 9.1053766e-06 0)
(0.7116471 8.0857608e-06 0)
(0.71163926 7.1556446e-06 0)
(0.71163231 6.3087433e-06 0)
(0.71162619 5.5393307e-06 0)
(0.71162082 4.8421141e-06 0)
(0.71161612 4.2122502e-06 0)
(0.71161203 3.6452226e-06 0)
(0.71160849 3.1368418e-06 0)
(0.71160544 2.6831308e-06 0)
(0.71160283 2.2803206e-06 0)
(0.71160062 1.9247563e-06 0)
(0.71159875 1.6129014e-06 0)
(0.71159718 1.3412737e-06 0)
(0.71159587 1.1064651e-06 0)
(0.71159479 9.0511097e-07 0)
(0.71159391 7.3392634e-07 0)
(0.7115932 5.8970158e-07 0)
(0.71159262 4.6934759e-07 0)
(0.71159216 3.699067e-07 0)
(0.7115918 2.8859582e-07 0)
(0.71159152 2.2281917e-07 0)
(0.71159131 1.7019995e-07 0)
(0.71159114 1.2858512e-07 0)
(0.71159101 9.606058e-08 0)
(0.71159092 7.0944249e-08 0)
(0.71159085 5.1789363e-08 0)
(0.7115908 3.7363281e-08 0)
(0.71159077 2.6642214e-08 0)
(0.71159074 1.8776165e-08 0)
(0.71159072 1.3087183e-08 0)
(0.71159071 9.02203e-09 0)
(0.7115907 6.1650543e-09 0)
(0.7115907 4.172326e-09 0)
(0.71159069 2.813612e-09 0)
(0.71159069 1.8783912e-09 0)
(0.71159069 1.263746e-09 0)
(0.71159069 8.3240499e-10 0)
(0.71159069 5.6745861e-10 0)
(0.71159069 3.6352286e-10 0)
(0.71159069 2.6484822e-10 0)
(0.71159069 1.8259605e-10 0)
(0.71159068 1.9813632e-10 0)
(0.71159068 2.7078923e-10 0)
(0.71159068 4.5321008e-10 0)
(0.71159068 8.9029197e-10 0)
(0.71159068 1.3384396e-09 0)
(0.71159068 2.5142787e-09 0)
(1.0152414 0.00021111219 0)
(1.0165132 0.001076945 0)
(1.0164938 0.0016753387 0)
(1.0162057 0.0018179917 0)
(1.0160876 0.0016841779 0)
(1.0161011 0.0014892606 0)
(1.0161065 0.001331604 0)
(1.0160428 0.0012137638 0)
(1.015923 0.0011113144 0)
(1.0157796 0.00101126 0)
(1.0156333 0.00091461769 0)
(1.01549 0.00082631088 0)
(1.0153496 0.00074861975 0)
(1.0152119 0.00068072205 0)
(1.0150781 0.00062068769 0)
(1.0149495 0.00056693289 0)
(1.0148272 0.00051850598 0)
(1.0147116 0.00047480761 0)
(1.0146027 0.00043532666 0)
(1.0145004 0.00039956206 0)
(1.0144045 0.00036704994 0)
(1.0143147 0.00033739614 0)
(1.014231 0.00031027817 0)
(1.0141529 0.00028542917 0)
(1.0140803 0.000262621 0)
(1.0140128 0.00024165478 0)
(1.0139502 0.00022235608 0)
(1.0138921 0.00020457222 0)
(1.0138383 0.00018816914 0)
(1.0137886 0.00017302856 0)
(1.0137426 0.00015904525 0)
(1.0137001 0.00014612512 0)
(1.0136609 0.00013418351 0)
(1.0136248 0.00012314407 0)
(1.0135915 0.00011293756 0)
(1.0135609 0.00010350111 0)
(1.0135327 9.4777255e-05 0)
(1.0135069 8.6713482e-05 0)
(1.0134832 7.926152e-05 0)
(1.0134615 7.2377009e-05 0)
(1.0134417 6.6018988e-05 0)
(1.0134235 6.0149661e-05 0)
(1.0134069 5.4733995e-05 0)
(1.0133918 4.973955e-05 0)
(1.013378 4.5136176e-05 0)
(1.0133655 4.0895889e-05 0)
(1.0133541 3.6992626e-05 0)
(1.0133438 3.3402172e-05 0)
(1.0133345 3.0101971e-05 0)
(1.013326 2.7071074e-05 0)
(1.0133184 2.4289992e-05 0)
(1.0133116 2.1740669e-05 0)
(1.0133054 1.9406367e-05 0)
(1.0132999 1.7271641e-05 0)
(1.013295 1.532224e-05 0)
(1.0132906 1.354507e-05 0)
(1.0132867 1.1928091e-05 0)
(1.0132833 1.0460257e-05 0)
(1.0132802 9.1314037e-06 0)
(1.0132776 7.932157e-06 0)
(1.0132752 6.85381e-06 0)
(1.0132732 5.8882193e-06 0)
(1.0132714 5.0276851e-06 0)
(1.0132699 4.2648533e-06 0)
(1.0132686 3.5926254e-06 0)
(1.0132675 3.0040894e-06 0)
(1.0132666 2.4924745e-06 0)
(1.0132658 2.0511265e-06 0)
(1.0132652 1.6735134e-06 0)
(1.0132646 1.353243e-06 0)
(1.0132642 1.0841064e-06 0)
(1.0132639 8.6012194e-07 0)
(1.0132636 6.7559714e-07 0)
(1.0132633 5.2517454e-07 0)
(1.0132632 4.038888e-07 0)
(1.013263 3.0719424e-07 0)
(1.0132629 2.3100401e-07 0)
(1.0132628 1.7168549e-07 0)
(1.0132628 1.2607681e-07 0)
(1.0132627 9.1448306e-08 0)
(1.0132627 6.5507025e-08 0)
(1.0132627 4.6325212e-08 0)
(1.0132627 3.234821e-08 0)
(1.0132626 2.2293578e-08 0)
(1.0132626 1.5182524e-08 0)
(1.0132626 1.0205641e-08 0)
(1.0132626 6.799863e-09 0)
(1.0132626 4.4709701e-09 0)
(1.0132626 2.9391528e-09 0)
(1.0132626 1.8999174e-09 0)
(1.0132626 1.2553806e-09 0)
(1.0132626 8.0865799e-10 0)
(1.0132626 5.6510292e-10 0)
(1.0132626 4.1114628e-10 0)
(1.0132626 3.6610285e-10 0)
(1.0132626 4.5459552e-10 0)
(1.0132626 5.5456539e-10 0)
(1.0132626 1.0368659e-09 0)
(1.0132626 1.2919141e-09 0)
(1.0132626 2.366571e-09 0)
(1.1968185 0.00013064301 0)
(1.1985932 0.00072569916 0)
(1.1989507 0.0011898706 0)
(1.1990466 0.0013508475 0)
(1.1994126 0.0012995429 0)
(1.1999946 0.001185055 0)
(1.2005873 0.0010878988 0)
(1.2010815 0.0010167193 0)
(1.2014773 0.00095434518 0)
(1.2018127 0.00088978564 0)
(1.2021148 0.00082332491 0)
(1.2023915 0.00075941508 0)
(1.2026422 0.00070088699 0)
(1.2028667 0.00064795403 0)
(1.2030673 0.00059963994 0)
(1.2032475 0.00055505046 0)
(1.2034103 0.00051372051 0)
(1.203558 0.00047543362 0)
(1.2036921 0.00044000623 0)
(1.2038141 0.00040721763 0)
(1.2039252 0.00037683393 0)
(1.2040264 0.00034864402 0)
(1.2041188 0.00032246958 0)
(1.2042032 0.00029815874 0)
(1.2042804 0.00027557546 0)
(1.204351 0.00025459515 0)
(1.2044157 0.00023510246 0)
(1.2044749 0.00021699187 0)
(1.2045292 0.00020016631 0)
(1.2045789 0.00018453688 0)
(1.2046244 0.00017002116 0)
(1.2046661 0.00015654307 0)
(1.2047043 0.00014403168 0)
(1.2047393 0.00013242136 0)
(1.2047712 0.00012165078 0)
(1.2048005 0.00011166313 0)
(1.2048272 0.00010240517 0)
(1.2048516 9.3827542e-05 0)
(1.2048739 8.5883906e-05 0)
(1.2048942 7.8531258e-05 0)
(1.2049127 7.1729177e-05 0)
(1.2049296 6.5440132e-05 0)
(1.2049449 5.962881e-05 0)
(1.2049588 5.4262408e-05 0)
(1.2049713 4.9310043e-05 0)
(1.2049827 4.4743042e-05 0)
(1.204993 4.0534367e-05 0)
(1.2050023 3.6658935e-05 0)
(1.2050106 3.3093131e-05 0)
(1.2050181 2.9815065e-05 0)
(1.2050248 2.6804167e-05 0)
(1.2050308 2.4041422e-05 0)
(1.2050362 2.1509023e-05 0)
(1.2050409 1.9190577e-05 0)
(1.2050451 1.7070798e-05 0)
(1.2050488 1.5135684e-05 0)
(1.2050521 1.337223e-05 0)
(1.2050549 1.1768559e-05 0)
(1.2050574 1.0313648e-05 0)
(1.2050596 8.9974122e-06 0)
(1.2050614 7.8104425e-06 0)
(1.205063 6.7440429e-06 0)
(1.2050643 5.7899904e-06 0)
(1.2050654 4.9405478e-06 0)
(1.2050664 4.1882647e-06 0)
(1.2050672 3.5259868e-06 0)
(1.2050678 2.9467148e-06 0)
(1.2050683 2.443632e-06 0)
(1.2050688 2.0100302e-06 0)
(1.2050691 1.6393614e-06 0)
(1.2050694 1.325222e-06 0)
(1.2050696 1.0614222e-06 0)
(1.2050697 8.4201151e-07 0)
(1.2050699 6.6134571e-07 0)
(1.2050699 5.141288e-07 0)
(1.20507 3.9545944e-07 0)
(1.2050701 3.0086986e-07 0)
(1.2050701 2.2633674e-07 0)
(1.2050701 1.6830778e-07 0)
(1.2050701 1.2367192e-07 0)
(1.2050702 8.9776492e-08 0)
(1.2050702 6.4357815e-08 0)
(1.2050702 4.556063e-08 0)
(1.2050702 3.1833289e-08 0)
(1.2050702 2.1966043e-08 0)
(1.2050702 1.4952214e-08 0)
(1.2050702 1.0064585e-08 0)
(1.2050702 6.677438e-09 0)
(1.2050702 4.3998119e-09 0)
(1.2050702 2.8506484e-09 0)
(1.2050702 1.8551573e-09 0)
(1.2050702 1.1857649e-09 0)
(1.2050702 7.8324595e-10 0)
(1.2050702 5.4132767e-10 0)
(1.2050702 4.0921302e-10 0)
(1.2050702 4.3795085e-10 0)
(1.2050702 4.1570828e-10 0)
(1.2050702 7.1854526e-10 0)
(1.2050702 6.4068797e-10 0)
(1.2050702 1.1998893e-09 0)
(1.28329 4.3851555e-05 0)
(1.2853034 0.0002528584 0)
(1.2858209 0.00042402826 0)
(1.2860722 0.00049045147 0)
(1.2866494 0.00047838437 0)
(1.287502 0.00044054725 0)
(1.2883922 0.00040777289 0)
(1.2891823 0.00038445397 0)
(1.2898624 0.00036437781 0)
(1.290472 0.0003431287 0)
(1.2910409 0.00032059202 0)
(1.2915771 0.00029844486 0)
(1.2920783 0.00027786289 0)
(1.2925426 0.00025902207 0)
(1.2929716 0.00024160635 0)
(1.2933686 0.00022530949 0)
(1.2937368 0.00020998774 0)
(1.2940787 0.00019559617 0)
(1.294396 0.00018210303 0)
(1.2946902 0.0001694588 0)
(1.294963 0.00015760447 0)
(1.2952157 0.00014648551 0)
(1.2954499 0.00013605668 0)
(1.2956667 0.00012627976 0)
(1.2958675 0.00011711994 0)
(1.2960531 0.00010854395 0)
(1.2962248 0.00010051981 0)
(1.2963834 9.3016997e-05 0)
(1.2965299 8.6006489e-05 0)
(1.296665 7.9460672e-05 0)
(1.2967897 7.3353126e-05 0)
(1.2969045 6.76586e-05 0)
(1.2970103 6.2352899e-05 0)
(1.2971076 5.741295e-05 0)
(1.2971971 5.2816721e-05 0)
(1.2972793 4.8543278e-05 0)
(1.2973547 4.4572682e-05 0)
(1.2974239 4.0886034e-05 0)
(1.2974872 3.7465386e-05 0)
(1.2975452 3.4293778e-05 0)
(1.2975982 3.1355139e-05 0)
(1.2976465 2.8634315e-05 0)
(1.2976906 2.6116975e-05 0)
(1.2977308 2.3789641e-05 0)
(1.2977674 2.1639584e-05 0)
(1.2978005 1.9654826e-05 0)
(1.2978306 1.7824117e-05 0)
(1.2978578 1.6136891e-05 0)
(1.2978824 1.4583207e-05 0)
(1.2979046 1.3153768e-05 0)
(1.2979246 1.1839849e-05 0)
(1.2979425 1.0633324e-05 0)
(1.2979586 9.5265921e-06 0)
(1.297973 8.5126026e-06 0)
(1.2979857 7.5847904e-06 0)
(1.2979971 6.7370992e-06 0)
(1.2980072 5.9639115e-06 0)
(1.298016 5.2600618e-06 0)
(1.2980238 4.6207663e-06 0)
(1.2980306 4.0416267e-06 0)
(1.2980366 3.5185527e-06 0)
(1.2980417 3.0477544e-06 0)
(1.2980461 2.6256668e-06 0)
(1.2980499 2.2489393e-06 0)
(1.2980531 1.9143661e-06 0)
(1.2980558 1.6188778e-06 0)
(1.2980581 1.3594891e-06 0)
(1.29806 1.1333023e-06 0)
(1.2980616 9.3747511e-07 0)
(1.2980629 7.6923672e-07 0)
(1.2980639 6.2587744e-07 0)
(1.2980647 5.0477556e-07 0)
(1.2980654 4.0340213e-07 0)
(1.2980659 3.1935064e-07 0)
(1.2980664 2.5034921e-07 0)
(1.2980667 1.9428505e-07 0)
(1.2980669 1.4921558e-07 0)
(1.2980671 1.1338125e-07 0)
(1.2980672 8.5211862e-08 0)
(1.2980674 6.332351e-08 0)
(1.2980674 4.6520021e-08 0)
(1.2980675 3.3775291e-08 0)
(1.2980675 2.4233163e-08 0)
(1.2980675 1.7176431e-08 0)
(1.2980676 1.2030519e-08 0)
(1.2980676 8.3214467e-09 0)
(1.2980676 5.6915278e-09 0)
(1.2980676 3.8414668e-09 0)
(1.2980676 2.5689704e-09 0)
(1.2980676 1.6904627e-09 0)
(1.2980676 1.1068995e-09 0)
(1.2980676 7.0957113e-10 0)
(1.2980676 4.5729522e-10 0)
(1.2980676 2.9618182e-10 0)
(1.2980676 1.9408402e-10 0)
(1.2980676 1.5842512e-10 0)
(1.2980676 6.9022375e-11 0)
(1.2980676 1.0541524e-10 0)
(1.2980676 -2.7350634e-10 0)
(1.2980676 -3.3060498e-10 0)
(1.2832898 -4.3851761e-05 0)
(1.2853033 -0.00025285754 0)
(1.2858209 -0.00042402763 0)
(1.2860721 -0.00049044654 0)
(1.2866494 -0.00047836757 0)
(1.287502 -0.00044051606 0)
(1.2883922 -0.00040773141 0)
(1.2891823 -0.00038440786 0)
(1.2898624 -0.00036433059 0)
(1.290472 -0.00034308224 0)
(1.2910409 -0.00032054763 0)
(1.2915771 -0.00029840445 0)
(1.2920784 -0.00027782797 0)
(1.2925426 -0.00025899398 0)
(1.2929716 -0.00024158546 0)
(1.2933686 -0.00022529616 0)
(1.2937368 -0.00020998173 0)
(1.2940787 -0.0001955975 0)
(1.294396 -0.000182111 0)
(1.2946902 -0.00016947311 0)
(1.294963 -0.00015762423 0)
(1.2952158 -0.00014651027 0)
(1.2954499 -0.00013608547 0)
(1.2956668 -0.0001263121 0)
(1.2958675 -0.00011715487 0)
(1.2960531 -0.00010858103 0)
(1.2962248 -0.0001005581 0)
(1.2963834 -9.3056064e-05 0)
(1.2965298 -8.604546e-05 0)
(1.296665 -7.9499154e-05 0)
(1.2967896 -7.3390347e-05 0)
(1.2969045 -6.7694251e-05 0)
(1.2970103 -6.238634e-05 0)
(1.2971076 -5.7444017e-05 0)
(1.2971971 -5.2844954e-05 0)
(1.2972792 -4.8568657e-05 0)
(1.2973547 -4.459492e-05 0)
(1.2974238 -4.0905264e-05 0)
(1.2974872 -3.748148e-05 0)
(1.2975451 -3.4306973e-05 0)
(1.2975981 -3.1365418e-05 0)
(1.2976465 -2.8641992e-05 0)
(1.2976906 -2.6122112e-05 0)
(1.2977308 -2.3792574e-05 0)
(1.2977673 -2.1640404e-05 0)
(1.2978005 -1.9653912e-05 0)
(1.2978306 -1.7821571e-05 0)
(1.2978578 -1.6133021e-05 0)
(1.2978824 -1.4578105e-05 0)
(1.2979046 -1.3147703e-05 0)
(1.2979246 -1.1832887e-05 0)
(1.2979425 -1.0625674e-05 0)
(1.2979586 -9.5182789e-06 0)
(1.2979729 -8.5037799e-06 0)
(1.2979857 -7.5754501e-06 0)
(1.2979971 -6.7273417e-06 0)
(1.2980071 -5.9537031e-06 0)
(1.298016 -5.2494723e-06 0)
(1.2980238 -4.6097614e-06 0)
(1.2980306 -4.0302645e-06 0)
(1.2980365 -3.5068163e-06 0)
(1.2980417 -3.035715e-06 0)
(1.2980461 -2.6133459e-06 0)
(1.2980499 -2.2364325e-06 0)
(1.2980531 -1.9017366e-06 0)
(1.2980558 -1.6062487e-06 0)
(1.2980581 -1.3469603e-06 0)
(1.29806 -1.1210117e-06 0)
(1.2980616 -9.2553863e-07 0)
(1.2980628 -7.5778683e-07 0)
(1.2980639 -6.150222e-07 0)
(1.2980647 -4.9461901e-07 0)
(1.2980654 -3.9402136e-07 0)
(1.2980659 -3.1080455e-07 0)
(1.2980663 -2.4267006e-07 0)
(1.2980667 -1.8748025e-07 0)
(1.2980669 -1.4327148e-07 0)
(1.2980671 -1.0825972e-07 0)
(1.2980672 -8.086242e-08 0)
(1.2980673 -5.9676868e-08 0)
(1.2980674 -4.3506442e-08 0)
(1.2980675 -3.1312542e-08 0)
(1.2980675 -2.224897e-08 0)
(1.2980675 -1.5591246e-08 0)
(1.2980676 -1.0783515e-08 0)
(1.2980676 -7.3466179e-09 0)
(1.2980676 -4.9438702e-09 0)
(1.2980676 -3.2730802e-09 0)
(1.2980676 -2.1503427e-09 0)
(1.2980676 -1.3907729e-09 0)
(1.2980676 -9.0684425e-10 0)
(1.2980676 -5.9044099e-10 0)
(1.2980676 -4.0382292e-10 0)
(1.2980676 -3.0390694e-10 0)
(1.2980676 -2.5494315e-10 0)
(1.2980676 -3.0213124e-10 0)
(1.2980676 -3.6944442e-10 0)
(1.2980676 -5.6680326e-10 0)
(1.2980676 -1.0207618e-09 0)
(1.2980676 -1.5576258e-09 0)
(1.1968185 -0.00013064363 0)
(1.1985932 -0.00072571098 0)
(1.1989507 -0.0011898891 0)
(1.1990466 -0.0013508614 0)
(1.1994126 -0.0012995444 0)
(1.1999946 -0.0011850429 0)
(1.2005873 -0.0010878762 0)
(1.2010815 -0.0010166903 0)
(1.2014773 -0.0009543127 0)
(1.2018128 -0.00088975162 0)
(1.2021149 -0.00082329122 0)
(1.2023916 -0.00075938339 0)
(1.2026423 -0.00070085906 0)
(1.2028668 -0.00064793088 0)
(1.2030673 -0.00059962246 0)
(1.2032475 -0.00055503887 0)
(1.2034103 -0.00051371507 0)
(1.203558 -0.00047543406 0)
(1.2036922 -0.00044001248 0)
(1.2038142 -0.00040722908 0)
(1.2039252 -0.00037685022 0)
(1.2040264 -0.00034866436 0)
(1.2041188 -0.00032249352 0)
(1.2042032 -0.00029818548 0)
(1.2042804 -0.00027560456 0)
(1.204351 -0.00025462583 0)
(1.2044157 -0.00023513429 0)
(1.2044749 -0.00021702409 0)
(1.2045291 -0.00020019852 0)
(1.2045788 -0.00018456842 0)
(1.2046244 -0.00017005169 0)
(1.204666 -0.00015657201 0)
(1.2047042 -0.00014405881 0)
(1.2047392 -0.00013244627 0)
(1.2047712 -0.00012167337 0)
(1.2048004 -0.00011168312 0)
(1.2048271 -0.00010242262 0)
(1.2048515 -9.3842334e-05 0)
(1.2048738 -8.5896198e-05 0)
(1.2048941 -7.8541032e-05 0)
(1.2049126 -7.1736675e-05 0)
(1.2049295 -6.5445418e-05 0)
(1.2049448 -5.963216e-05 0)
(1.2049586 -5.4263927e-05 0)
(1.2049712 -4.9310018e-05 0)
(1.2049826 -4.4741562e-05 0)
(1.2049929 -4.0531701e-05 0)
(1.2050022 -3.6655186e-05 0)
(1.2050105 -3.3088529e-05 0)
(1.205018 -2.9809687e-05 0)
(1.2050247 -2.679819e-05 0)
(1.2050307 -2.4034884e-05 0)
(1.2050361 -2.1502052e-05 0)
(1.2050408 -1.9183179e-05 0)
(1.205045 -1.7063055e-05 0)
(1.2050487 -1.5127576e-05 0)
(1.205052 -1.3363809e-05 0)
(1.2050548 -1.1759798e-05 0)
(1.2050573 -1.0304588e-05 0)
(1.2050595 -8.988038e-06 0)
(1.2050613 -7.8008036e-06 0)
(1.2050629 -6.7341532e-06 0)
(1.2050642 -5.7799206e-06 0)
(1.2050654 -4.9303468e-06 0)
(1.2050663 -4.1780282e-06 0)
(1.2050671 -3.5157955e-06 0)
(1.2050678 -2.9366805e-06 0)
(1.2050683 -2.4338521e-06 0)
(1.2050687 -2.0006166e-06 0)
(1.205069 -1.6304075e-06 0)
(1.2050693 -1.3168196e-06 0)
(1.2050695 -1.0536417e-06 0)
(1.2050697 -8.3490892e-07 0)
(1.2050698 -6.5495417e-07 0)
(1.2050699 -5.0846115e-07 0)
(1.20507 -3.9050912e-07 0)
(1.20507 -2.966099e-07 0)
(1.2050701 -2.2272706e-07 0)
(1.2050701 -1.6529274e-07 0)
(1.2050701 -1.2119219e-07 0)
(1.2050701 -8.7763868e-08 0)
(1.2050701 -6.2748093e-08 0)
(1.2050702 -4.428735e-08 0)
(1.2050702 -3.0840381e-08 0)
(1.2050702 -2.1198908e-08 0)
(1.2050702 -1.4369149e-08 0)
(1.2050702 -9.6256406e-09 0)
(1.2050702 -6.3577771e-09 0)
(1.2050702 -4.1720471e-09 0)
(1.2050702 -2.7032651e-09 0)
(1.2050702 -1.7693102e-09 0)
(1.2050702 -1.1580293e-09 0)
(1.2050702 -8.0179574e-10 0)
(1.2050702 -6.0760671e-10 0)
(1.2050702 -5.1999384e-10 0)
(1.2050702 -6.109425e-10 0)
(1.2050702 -6.6726703e-10 0)
(1.2050702 -1.0623304e-09 0)
(1.2050702 -1.348407e-09 0)
(1.2050702 -2.1445632e-09 0)
(1.0152414 -0.00021111091 0)
(1.0165132 -0.0010769341 0)
(1.0164938 -0.0016753272 0)
(1.0162057 -0.0018179882 0)
(1.0160877 -0.0016841807 0)
(1.0161011 -0.0014892635 0)
(1.0161065 -0.0013316017 0)
(1.0160428 -0.0012137549 0)
(1.015923 -0.0011113004 0)
(1.0157797 -0.0010112429 0)
(1.0156334 -0.00091459921 0)
(1.0154901 -0.00082629204 0)
(1.0153497 -0.00074860191 0)
(1.015212 -0.00068070611 0)
(1.0150781 -0.00062067493 0)
(1.0149496 -0.00056692371 0)
(1.0148273 -0.00051850099 0)
(1.0147117 -0.00047480656 0)
(1.0146028 -0.0004353297 0)
(1.0145004 -0.00039956859 0)
(1.0144045 -0.00036705989 0)
(1.0143148 -0.00033740878 0)
(1.014231 -0.00031029336 0)
(1.014153 -0.00028544614 0)
(1.0140803 -0.0002626396 0)
(1.0140128 -0.00024167428 0)
(1.0139502 -0.00022237632 0)
(1.0138921 -0.00020459252 0)
(1.0138383 -0.00018818937 0)
(1.0137885 -0.00017304811 0)
(1.0137425 -0.00015906405 0)
(1.0137 -0.00014614265 0)
(1.0136608 -0.00013419978 0)
(1.0136247 -0.00012315868 0)
(1.0135914 -0.00011295063 0)
(1.0135608 -0.00010351234 0)
(1.0135326 -9.4786854e-05 0)
(1.0135068 -8.6721271e-05 0)
(1.0134831 -7.9267759e-05 0)
(1.0134614 -7.2381601e-05 0)
(1.0134415 -6.6022236e-05 0)
(1.0134234 -6.0151519e-05 0)
(1.0134068 -5.4734761e-05 0)
(1.0133917 -4.9739206e-05 0)
(1.0133779 -4.5135008e-05 0)
(1.0133654 -4.0893879e-05 0)
(1.013354 -3.6990031e-05 0)
(1.0133437 -3.3398974e-05 0)
(1.0133343 -3.0098389e-05 0)
(1.0133259 -2.7067069e-05 0)
(1.0133183 -2.4285732e-05 0)
(1.0133115 -2.17361e-05 0)
(1.0133053 -1.9401618e-05 0)
(1.0132998 -1.7266643e-05 0)
(1.0132949 -1.5317086e-05 0)
(1.0132905 -1.3539687e-05 0)
(1.0132866 -1.1922554e-05 0)
(1.0132832 -1.0454505e-05 0)
(1.0132801 -9.1255022e-06 0)
(1.0132775 -7.9260672e-06 0)
(1.0132751 -6.847604e-06 0)
(1.0132731 -5.8818878e-06 0)
(1.0132714 -5.0213084e-06 0)
(1.0132699 -4.2584523e-06 0)
(1.0132686 -3.5862891e-06 0)
(1.0132675 -2.9978595e-06 0)
(1.0132665 -2.4864387e-06 0)
(1.0132658 -2.0453354e-06 0)
(1.0132651 -1.6680424e-06 0)
(1.0132646 -1.3481359e-06 0)
(1.0132642 -1.0794149e-06 0)
(1.0132638 -8.5587235e-07 0)
(1.0132635 -6.7181101e-07 0)
(1.0132633 -5.2185382e-07 0)
(1.0132631 -4.0102533e-07 0)
(1.013263 -3.0476802e-07 0)
(1.0132629 -2.2898256e-07 0)
(1.0132628 -1.7003269e-07 0)
(1.0132628 -1.2474703e-07 0)
(1.0132627 -9.0400238e-08 0)
(1.0132627 -6.4691953e-08 0)
(1.0132627 -4.5704961e-08 0)
(1.0132626 -3.1880627e-08 0)
(1.0132626 -2.1950845e-08 0)
(1.0132626 -1.4932098e-08 0)
(1.0132626 -1.0031317e-08 0)
(1.0132626 -6.6798937e-09 0)
(1.0132626 -4.4005363e-09 0)
(1.0132626 -2.9030968e-09 0)
(1.0132626 -1.9005434e-09 0)
(1.0132626 -1.283253e-09 0)
(1.0132626 -8.6887362e-10 0)
(1.0132626 -6.5635322e-10 0)
(1.0132626 -5.3284384e-10 0)
(1.0132626 -5.3102015e-10 0)
(1.0132626 -6.4605029e-10 0)
(1.0132626 -7.5130177e-10 0)
(1.0132626 -1.2531638e-09 0)
(1.0132626 -1.2412968e-09 0)
(1.0132626 -2.1106297e-09 0)
(0.72193162 -0.0002670354 0)
(0.72238084 -0.0011574511 0)
(0.72170252 -0.0016156655 0)
(0.72077004 -0.0015770521 0)
(0.71995493 -0.0013192885 0)
(0.71926715 -0.001066577 0)
(0.71863856 -0.00088769811 0)
(0.71803917 -0.00076401283 0)
(0.71747387 -0.00066551067 0)
(0.71695411 -0.00057897648 0)
(0.71648391 -0.00050368538 0)
(0.71606004 -0.00044111402 0)
(0.71567668 -0.00039041514 0)
(0.71532851 -0.00034896381 0)
(0.71501142 -0.00031410982 0)
(0.71472223 -0.00028404933 0)
(0.71445817 -0.00025775099 0)
(0.71421672 -0.00023458082 0)
(0.71399559 -0.0002140448 0)
(0.7137928 -0.00019571507 0)
(0.71360663 -0.00017923571 0)
(0.71343558 -0.00016433101 0)
(0.71327833 -0.00015079107 0)
(0.71313372 -0.0001384518 0)
(0.71300067 -0.00012717742 0)
(0.71287826 -0.0001168532 0)
(0.71276563 -0.00010738045 0)
(0.712662 -9.8675116e-05 0)
(0.71256668 -9.0664323e-05 0)
(0.71247902 -8.3285206e-05 0)
(0.71239843 -7.6482063e-05 0)
(0.71232438 -7.0206031e-05 0)
(0.71225637 -6.441312e-05 0)
(0.71219395 -5.906441e-05 0)
(0.71213669 -5.4124493e-05 0)
(0.7120842 -4.9561801e-05 0)
(0.71203613 -4.5347288e-05 0)
(0.71199213 -4.1454889e-05 0)
(0.71195191 -3.7860426e-05 0)
(0.71191516 -3.4542089e-05 0)
(0.71188164 -3.147949e-05 0)
(0.71185109 -2.8654161e-05 0)
(0.71182327 -2.6048753e-05 0)
(0.71179799 -2.3647502e-05 0)
(0.71177504 -2.143552e-05 0)
(0.71175423 -1.9399248e-05 0)
(0.7117354 -1.7525861e-05 0)
(0.71171839 -1.5803668e-05 0)
(0.71170306 -1.422159e-05 0)
(0.71168925 -1.2769546e-05 0)
(0.71167686 -1.1438004e-05 0)
(0.71166576 -1.021832e-05 0)
(0.71165585 -9.1023436e-06 0)
(0.71164702 -8.0827211e-06 0)
(0.71163918 -7.1525566e-06 0)
(0.71163224 -6.3056514e-06 0)
(0.71162612 -5.5362013e-06 0)
(0.71162074 -4.8389849e-06 0)
(0.71161605 -4.2090996e-06 0)
(0.71161196 -3.6420901e-06 0)
(0.71160843 -3.133719e-06 0)
(0.71160538 -2.6800569e-06 0)
(0.71160278 -2.277299e-06 0)
(0.71160057 -1.9218265e-06 0)
(0.7115987 -1.6100749e-06 0)
(0.71159714 -1.3385855e-06 0)
(0.71159583 -1.1039292e-06 0)
(0.71159476 -9.0275457e-07 0)
(0.71159388 -7.3176e-07 0)
(0.71159317 -5.8774109e-07 0)
(0.7115926 -4.6759667e-07 0)
(0.71159214 -3.6836774e-07 0)
(0.71159178 -2.872632e-07 0)
(0.7115915 -2.2168352e-07 0)
(0.71159129 -1.6924863e-07 0)
(0.71159112 -1.2779968e-07 0)
(0.711591 -9.5424088e-08 0)
(0.71159091 -7.0435129e-08 0)
(0.71159084 -5.1391481e-08 0)
(0.71159079 -3.7054931e-08 0)
(0.71159076 -2.6409774e-08 0)
(0.71159073 -1.8601648e-08 0)
(0.71159071 -1.2962912e-08 0)
(0.7115907 -8.9340953e-09 0)
(0.71159069 -6.1101968e-09 0)
(0.71159069 -4.1415786e-09 0)
(0.71159068 -2.807924e-09 0)
(0.71159068 -1.8916119e-09 0)
(0.71159068 -1.2979387e-09 0)
(0.71159068 -8.8359489e-10 0)
(0.71159068 -6.4092821e-10 0)
(0.71159068 -4.5634521e-10 0)
(0.71159068 -3.9026246e-10 0)
(0.71159068 -3.3010687e-10 0)
(0.71159068 -3.9155631e-10 0)
(0.71159068 -4.5023208e-10 0)
(0.71159067 -6.5275352e-10 0)
(0.71159068 -1.0200703e-09 0)
(0.71159067 -8.0433893e-10 0)
(0.71159067 -1.6465429e-09 0)
(0.29386987 -0.00023141263 0)
(0.29337132 -0.00067231536 0)
(0.29226097 -0.0007371709 0)
(0.29114722 -0.00056417534 0)
(0.29025403 -0.00037049102 0)
(0.28957265 -0.00024744408 0)
(0.28903346 -0.00018565757 0)
(0.28858316 -0.00015199142 0)
(0.28819575 -0.00012703855 0)
(0.2878603 -0.0001060131 0)
(0.28756971 -8.9403544e-05 0)
(0.28731658 -7.731375e-05 0)
(0.28709364 -6.8616234e-05 0)
(0.28689496 -6.1923864e-05 0)
(0.2867163 -5.6305279e-05 0)
(0.28655472 -5.1348453e-05 0)
(0.28640805 -4.6920224e-05 0)
(0.28627456 -4.2961586e-05 0)
(0.28615275 -3.9408293e-05 0)
(0.28604137 -3.6193779e-05 0)
(0.28593935 -3.3263852e-05 0)
(0.28584581 -3.0582325e-05 0)
(0.28575996 -2.8123638e-05 0)
(0.28568111 -2.5867815e-05 0)
(0.28560867 -2.379583e-05 0)
(0.2855421 -2.1890771e-05 0)
(0.2854809 -2.0136763e-05 0)
(0.28542464 -1.8520538e-05 0)
(0.28537293 -1.7029769e-05 0)
(0.2853254 -1.5654163e-05 0)
(0.28528173 -1.4383843e-05 0)
(0.28524163 -1.3210532e-05 0)
(0.28520481 -1.2126165e-05 0)
(0.28517102 -1.1124061e-05 0)
(0.28514004 -1.0197608e-05 0)
(0.28511164 -9.3413398e-06 0)
(0.28508564 -8.5497387e-06 0)
(0.28506185 -7.818278e-06 0)
(0.2850401 -7.1423144e-06 0)
(0.28502024 -6.5180439e-06 0)
(0.28500212 -5.9415065e-06 0)
(0.2849856 -5.409483e-06 0)
(0.28497057 -4.9185808e-06 0)
(0.28495691 -4.4660436e-06 0)
(0.28494451 -4.0489363e-06 0)
(0.28493326 -3.6648919e-06 0)
(0.28492309 -3.3113725e-06 0)
(0.2849139 -2.9863335e-06 0)
(0.28490562 -2.6875719e-06 0)
(0.28489816 -2.4133296e-06 0)
(0.28489147 -2.1617101e-06 0)
(0.28488547 -1.9312065e-06 0)
(0.28488012 -1.7201935e-06 0)
(0.28487535 -1.5273949e-06 0)
(0.28487112 -1.3514365e-06 0)
(0.28486738 -1.1912427e-06 0)
(0.28486408 -1.0456544e-06 0)
(0.28486118 -9.1376554e-07 0)
(0.28485865 -7.945966e-07 0)
(0.28485645 -6.8736767e-07 0)
(0.28485455 -5.9123099e-07 0)
(0.28485291 -5.0548935e-07 0)
(0.28485151 -4.2938311e-07 0)
(0.28485033 -3.6225834e-07 0)
(0.28484933 -3.0340752e-07 0)
(0.28484849 -2.5219524e-07 0)
(0.28484779 -2.0794674e-07 0)
(0.28484722 -1.7003876e-07 0)
(0.28484675 -1.3782938e-07 0)
(0.28484637 -1.1071811e-07 0)
(0.28484607 -8.8107893e-08 0)
(0.28484583 -6.9441938e-08 0)
(0.28484564 -5.4189269e-08 0)
(0.28484549 -4.1859229e-08 0)
(0.28484538 -3.2002431e-08 0)
(0.28484529 -2.4209866e-08 0)
(0.28484522 -1.8123778e-08 0)
(0.28484518 -1.342195e-08 0)
(0.28484514 -9.8372065e-09 0)
(0.28484511 -7.1320309e-09 0)
(0.2848451 -5.1224353e-09 0)
(0.28484508 -3.6420496e-09 0)
(0.28484507 -2.5721562e-09 0)
(0.28484507 -1.8008108e-09 0)
(0.28484506 -1.2604458e-09 0)
(0.28484506 -8.7671761e-10 0)
(0.28484506 -6.1682324e-10 0)
(0.28484505 -4.3054458e-10 0)
(0.28484505 -3.112086e-10 0)
(0.28484505 -2.2076934e-10 0)
(0.28484505 -1.7155371e-10 0)
(0.28484505 -1.2939963e-10 0)
(0.28484505 -1.258219e-10 0)
(0.28484505 -1.17532e-10 0)
(0.28484505 -1.5656698e-10 0)
(0.28484505 -1.9661466e-10 0)
(0.28484505 -3.5071407e-10 0)
(0.28484505 -4.2680468e-10 0)
(0.28484505 -3.7917194e-10 0)
(0.28484505 -8.1899276e-10 0)
)
;

boundaryField
{
    top
    {
        type            fixedValue;
        value           uniform (0 0 0);
    }
    inlet
    {
        type            pressureNormalInletOutletVelocity;
        phi             phi;
        rho             rho;