/*--------------------------------*- C++ -*----------------------------------*\
| =========                 |                                                 |
| \\      /  F ield         | OpenFOAM: The Open Source CFD Toolbox           |
|  \\    /   O peration     | Version:  v1812                                 |
|   \\  /    A nd           | Web:      www.OpenFOAM.com                      |
|    \\/     M anipulation  |                                                 |
\*---------------------------------------------------------------------------*/
FoamFile
{
    version     2.0;
    format      ascii;
    class       volScalarField;
    location    "7.75";
    object      p;
}
// * * * * * * * * * * * * * * * * * * * * * * * * * * * * * * * * * * * * * //

dimensions      [0 2 -2 0 0 0 0];


internalField   nonuniform List<scalar> 
1000
(
1.6753933
1.5543154
1.4583349
1.3946788
1.3461693
1.3036972
1.266162
1.2339902
1.2065899
1.1827523
1.161358
1.1415942
1.122917
1.1049775
1.0875622
1.070548
1.0538671
1.0374829
1.0213747
1.0055288
0.98993379
0.9745787
0.95945202
0.94454179
0.9298358
0.91532181
0.90098783
0.88682231
0.87281424
0.85895322
0.8452295
0.83163395
0.81815807
0.80479392
0.79153411
0.77837176
0.76530046
0.75231424
0.73940756
0.72657521
0.71381238
0.70111455
0.68847751
0.6758973
0.66337025
0.65089289
0.63846199
0.62607455
0.61372775
0.60141895
0.58914571
0.57690576
0.56469695
0.55251731
0.54036497
0.52823819
0.51613537
0.50405499
0.49199565
0.47995606
0.46793501
0.4559314
0.44394418
0.43197239
0.42001511
0.40807147
0.39614066
0.3842219
0.37231446
0.36041766
0.34853083
0.33665334
0.32478459
0.31292395
0.30107081
0.28922459
0.2773847
0.26555059
0.25372176
0.24189775
0.23007811
0.21826243
0.20645031
0.19464132
0.18283505
0.1710311
0.15922912
0.14742883
0.13562999
0.12383243
0.11203602
0.1002406
0.088446024
0.076652118
0.064858714
0.053065676
0.041272907
0.02948037
0.017688053
0.0058959409
1.5581736
1.5032445
1.442292
1.3907243
1.3474543
1.308486
1.2728997
1.2411271
1.2131662
1.1883883
1.1659864
1.1452851
1.1258035
1.1072154
1.0893018
1.0719171
1.0549652
1.0383838
1.0221311
1.0061776
0.99050061
0.97508108
0.95990225
0.9449486
0.93020556
0.91565934
0.90129692
0.88710604
0.87307518
0.85919359
0.84545121
0.8318387
0.81834736
0.80496909
0.79169637
0.77852218
0.76544001
0.7524438
0.73952791
0.72668707
0.7139164
0.70121132
0.68856756
0.67598114
0.66344833
0.65096563
0.63852978
0.62613773
0.61378663
0.60147384
0.58919688
0.57695345
0.5647414
0.55255872
0.54040353
0.5282741
0.51616877
0.50408604
0.49202448
0.4799828
0.46795977
0.45595427
0.44396527
0.43199179
0.4200329
0.40808774
0.39615549
0.38423536
0.37232664
0.36042861
0.34854064
0.33666208
0.32479232
0.31293076
0.30107678
0.2892298
0.27738921
0.26555448
0.25372508
0.24190055
0.23008045
0.21826437
0.2064519
0.19464262
0.1828361
0.17103196
0.15922983
0.1474294
0.13563045
0.12383279
0.11203627
0.10024078
0.08844614
0.076652197
0.064858775
0.05306573
0.041272954
0.029480404
0.017688072
0.0058959327
1.4973523
1.4711772
1.4327804
1.3916475
1.3525622
1.3159714
1.2816737
1.2499562
1.2211001
1.194999
1.1712451
1.1493551
1.1289052
1.1095643
1.0910842
1.0732832
1.0560313
1.0392357
1.0228296
1.0067645
0.99100411
0.97552043
0.96029057
0.94529509
0.93051684
0.91594035
0.90155152
0.88733734
0.87328577
0.85938569
0.84562676
0.83199938
0.81849465
0.80510431
0.79182068
0.77863662
0.76554549
0.75254114
0.73961783
0.72677022
0.71399336
0.7012826
0.68863364
0.67604244
0.66350522
0.65101847
0.63857888
0.62618338
0.61382909
0.60151335
0.58923365
0.57698768
0.56477326
0.55258838
0.54043115
0.52829981
0.51619271
0.50410832
0.49204521
0.48000207
0.46797767
0.45597089
0.44398067
0.43200603
0.42004605
0.40809986
0.39616664
0.38424559
0.37233599
0.36043713
0.34854837
0.33666906
0.3247986
0.31293637
0.30108179
0.28923424
0.27739314
0.26555794
0.25372811
0.24190317
0.2300827
0.21826627
0.20645349
0.19464394
0.18283722
0.1710329
0.15923063
0.14743008
0.13563101
0.12383324
0.11203662
0.10024103
0.088446315
0.07665232
0.064858869
0.053065812
0.041273025
0.029480458
0.017688094
0.0058959309
1.4679438
1.4524457
1.4255758
1.3916519
1.3558509
1.3208996
1.2875976
1.2562446
1.2271139
1.2003224
1.1757349
1.1530427
1.1318909
1.1119621
1.0930039
1.0748242
1.0572785
1.0402575
1.0236789
1.0074808
0.99161685
0.97605111
0.96075516
0.9457055
0.93088208
0.91626736
0.90184572
0.88760307
0.8735266
0.85960457
0.84582618
0.83218148
0.81866127
0.80525704
0.7919609
0.77876556
0.76566423
0.75265062
0.73971889
0.72686362
0.71407974
0.70136257
0.68870773
0.67611113
0.66356896
0.65107764
0.63863385
0.62623448
0.61387662
0.60155756
0.58927481
0.577026
0.56480896
0.55262165
0.54046217
0.52832874
0.5162197
0.50413352
0.49206875
0.48002407
0.46799823
0.45599011
0.44399864
0.43202283
0.42006175
0.40811452
0.39618032
0.38425835
0.37234786
0.36044817
0.34855859
0.33667851
0.32480731
0.31294438
0.30108912
0.28924094
0.27739924
0.26556346
0.25373308
0.24190763
0.23008665
0.21826976
0.20645654
0.1946466
0.18283952
0.1710349
0.15923236
0.14743158
0.1356323
0.12383432
0.11203752
0.10024175
0.088446887
0.076652773
0.06485923
0.053066109
0.041273266
0.029480652
0.017688221
0.005896012
1.4552123
1.4432589
1.4210246
1.390737
1.3568758
1.3228802
1.2901826
1.2591771
1.2300797
1.2030678
1.1781408
1.1550912
1.1336097
1.1133921
1.0941885
1.0758063
1.0580974
1.0409469
1.024266
1.0079869
0.99205788
0.97643933
0.96109983
0.94601369
0.93115924
0.91651777
0.90207279
0.88780959
0.87371488
0.85977656
0.84598358
0.83232574
0.81879368
0.80537874
0.7920729
0.77886874
0.76575939
0.75273847
0.73980007
0.72693868
0.71414922
0.70142692
0.68876738
0.67616645
0.66362029
0.65112531
0.63867814
0.62627565
0.61391491
0.60159319
0.58930797
0.57705689
0.56483774
0.55264848
0.54048719
0.52835209
0.51624152
0.50415391
0.49208782
0.48004192
0.46801495
0.45600578
0.44401333
0.43203661
0.42007468
0.40812665
0.3961917
0.38426901
0.37235785
0.36045751
0.34856732
0.33668664
0.32481486
0.31295138
0.30109559
0.28924689
0.2774047
0.26556845
0.25373761
0.24191171
0.23009032
0.21827302
0.20645943
0.19464914
0.18284175
0.17103685
0.15923406
0.14743306
0.13563356
0.1238354
0.11203841
0.10024249
0.088447484
0.076653255
0.06485962
0.053066429
0.041273523
0.029480863
0.017688363
0.0058961143
1.4552123
1.4432589
1.4210246
1.390737
1.3568758
1.3228802
1.2901826
1.2591771
1.2300797
1.2030678
1.1781408
1.1550912
1.1336097
1.1133921
1.0941885
1.0758063
1.0580974
1.0409469
1.024266
1.0079869
0.99205788
0.97643933
0.96109983
0.94601369
0.93115924
0.91651777
0.90207279
0.88780959
0.87371488
0.85977656
0.84598358
0.83232574
0.81879368
0.80537874
0.7920729
0.77886874
0.76575939
0.75273847
0.73980007
0.72693869
0.71414922
0.70142692
0.68876737
0.67616644
0.66362029
0.65112531
0.63867814
0.62627565
0.61391491
0.6015932
0.58930798
0.57705689
0.56483774
0.55264848
0.54048719
0.5283521
0.51624152
0.50415391
0.49208782
0.48004192
0.46801495
0.45600578
0.44401333
0.43203661
0.42007468
0.40812666
0.3961917
0.38426902
0.37235785
0.3604575
0.34856731
0.33668663
0.32481485
0.31295137
0.30109559
0.2892469
0.27740471
0.26556845
0.25373761
0.24191171
0.23009031
0.21827301
0.20645942
0.19464914
0.18284175
0.17103686
0.15923407
0.14743306
0.13563357
0.1238354
0.11203841
0.10024248
0.088447477
0.076653249
0.064859616
0.053066427
0.041273522
0.029480863
0.017688364
0.0058961147
1.4679438
1.4524457
1.4255758
1.3916519
1.3558509
1.3208996
1.2875976
1.2562446
1.2271139
1.2003224
1.1757349
1.1530427
1.1318909
1.1119621
1.0930039
1.0748242
1.0572785
1.0402575
1.0236788
1.0074808
0.99161685
0.97605111
0.96075516
0.9457055
0.93088208
0.91626736
0.90184572
0.88760307
0.8735266
0.85960456
0.84582617
0.83218147
0.81866126
0.80525703
0.7919609
0.77876557
0.76566424
0.75265063
0.7397189
0.72686362
0.71407974
0.70136257
0.68870772
0.67611112
0.66356895
0.65107764
0.63863385
0.62623448
0.61387663
0.60155758
0.58927482
0.57702601
0.56480897
0.55262165
0.54046217
0.52832874
0.51621971
0.50413353
0.49206876
0.48002407
0.46799824
0.45599012
0.44399865
0.43202284
0.42006176
0.40811454
0.39618033
0.38425835
0.37234785
0.36044815
0.34855856
0.33667848
0.32480729
0.31294437
0.30108913
0.28924096
0.27739926
0.26556347
0.25373308
0.2419076
0.23008661
0.21826971
0.20645651
0.19464658
0.18283953
0.17103492
0.15923239
0.14743161
0.13563231
0.12383433
0.11203751
0.10024173
0.088446865
0.076652755
0.064859218
0.053066103
0.041273265
0.029480656
0.017688225
0.0058960135
1.4973523
1.4711772
1.4327804
1.3916475
1.3525622
1.3159714
1.2816737
1.2499562
1.2211001
1.194999
1.1712451
1.1493551
1.1289052
1.1095644
1.0910842
1.0732832
1.0560313
1.0392357
1.0228296
1.0067645
0.9910041
0.97552042
0.96029057
0.9452951
0.93051685
0.91594037
0.90155153
0.88733734
0.87328577
0.85938568
0.84562674
0.83199936
0.81849464
0.8051043
0.79182068
0.77863663
0.76554551
0.75254116
0.73961784
0.72677023
0.71399335
0.70128259
0.68863362
0.67604242
0.66350521
0.65101846
0.63857888
0.62618339
0.61382911
0.60151337
0.58923367
0.57698769
0.56477327
0.55258839
0.54043116
0.52829981
0.51619271
0.50410832
0.49204521
0.48000207
0.46797767
0.45597089
0.44398068
0.43200605
0.42004608
0.40809989
0.39616665
0.38424559
0.37233597
0.36043709
0.34854832
0.33666901
0.32479857
0.31293637
0.30108181
0.28923428
0.27739318
0.26555796
0.25372809
0.24190313
0.23008263
0.2182662
0.20645344
0.19464393
0.18283723
0.17103294
0.15923068
0.14743012
0.13563103
0.12383324
0.1120366
0.100241
0.088446282
0.076652295
0.064858854
0.053065806
0.041273025
0.029480463
0.017688101
0.005895934
1.5581736
1.5032445
1.442292
1.3907243
1.3474543
1.308486
1.2728997
1.2411271
1.2131661
1.1883883
1.1659864
1.1452851
1.1258035
1.1072154
1.0893018
1.0719171
1.0549652
1.0383838
1.0221311
1.0061776
0.9905006
0.97508107
0.95990225
0.9449486
0.93020557
0.91565936
0.90129694
0.88710605
0.87307518
0.85919357
0.84545119
0.83183868
0.81834735
0.80496909
0.79169637
0.77852219
0.76544003
0.75244382
0.73952792
0.72668708
0.71391639
0.7012113
0.68856755
0.67598113
0.66344832
0.65096563
0.63852979
0.62613774
0.61378665
0.60147386
0.5891969
0.57695346
0.56474141
0.55255872
0.54040354
0.5282741
0.51616878
0.50408604
0.49202448
0.4799828
0.46795977
0.45595428
0.44396529
0.43199181
0.42003293
0.40808777
0.3961555
0.38423535
0.3723266
0.36042856
0.34854058
0.33666203
0.3247923
0.31293077
0.30107682
0.28922984
0.27738925
0.26555448
0.25372505
0.24190048
0.23008037
0.2182643
0.20645185
0.19464261
0.18283614
0.17103202
0.15922988
0.14742944
0.13563046
0.12383277
0.11203625
0.10024074
0.088446109
0.076652175
0.064858761
0.053065722
0.041272951
0.029480409
0.017688081
0.0058959384
1.6753933
1.5543154
1.4583349
1.3946788
1.3461693
1.3036972
1.266162
1.2339902
1.2065899
1.1827523
1.161358
1.1415942
1.122917
1.1049775
1.0875622
1.070548
1.0538671
1.0374829
1.0213747
1.0055288
0.98993378
0.97457869
0.95945202
0.9445418
0.92983581
0.91532182
0.90098784
0.88682231
0.87281423
0.85895321
0.84522948
0.83163394
0.81815806
0.80479392
0.79153411
0.77837177
0.76530048
0.75231426
0.73940757
0.72657522
0.71381238
0.70111454
0.68847749
0.67589729
0.66337024
0.65089289
0.638462
0.62607457
0.61372777
0.60141897
0.58914573
0.57690577
0.56469696
0.55251732
0.54036497
0.5282382
0.51613537
0.50405499
0.49199565
0.47995605
0.46793501
0.45593141
0.4439442
0.43197242
0.42001513
0.40807149
0.39614066
0.38422188
0.37231442
0.3604176
0.34853077
0.33665331
0.32478458
0.31292396
0.30107085
0.28922463
0.27738472
0.26555058
0.25372172
0.24189768
0.23007804
0.21826238
0.20645029
0.19464133
0.18283508
0.17103114
0.15922915
0.14742884
0.13562999
0.12383243
0.11203601
0.10024059
0.08844601
0.076652098
0.064858689
0.053065651
0.041272892
0.029480373
0.017688069
0.0058959498
)
;

boundaryField
{
    top
    {
        type            zeroGradient;
    }
    inlet
    {
        type            zeroGradient;
    }
    outlet
    {
        type            fixedValue;
        value           uniform 0;
    }
    bottom
    {
        type            zeroGradient;
    }
    back
    {
        type            empty;
    }
    front
    {
        type            empty;
    }
}


// ************************************************************************* //
