/*--------------------------------*- C++ -*----------------------------------*\
| =========                 |                                                 |
| \\      /  F ield         | OpenFOAM: The Open Source CFD Toolbox           |
|  \\    /   O peration     | Version:  v1812                                 |
|   \\  /    A nd           | Web:      www.OpenFOAM.com                      |
|    \\/     M anipulation  |                                                 |
\*---------------------------------------------------------------------------*/
FoamFile
{
    version     2.0;
    format      ascii;
    class       surfaceScalarField;
    location    "7.75";
    object      phi;
}
// * * * * * * * * * * * * * * * * * * * * * * * * * * * * * * * * * * * * * //

dimensions      [0 3 -1 0 0 0 0];
oriented        oriented;


internalField   nonuniform List<scalar> 
1890
(
0.0093061957
0.00069380425
0.0082843931
0.0010218027
0.0073298986
0.00095449449
0.0064869553
0.00084294334
0.0057695845
0.0007173708
0.00518986
0.00057972444
0.004738168
0.00045169204
0.00439519
0.00034297801
0.0041390268
0.00025616318
0.003949107
0.00018991983
0.003807888
0.00014121897
0.0037013782
0.0001065098
0.003619058
8.2320221e-05
0.0035534117
6.5646245e-05
0.0034992845
5.4127254e-05
0.0034532444
4.6040048e-05
0.0034130501
4.0194292e-05
0.0033772574
3.5792756e-05
0.0033449386
3.2318759e-05
0.0033154893
2.9449281e-05
0.0032885007
2.6988577e-05
0.0032636804
2.4820303e-05
0.0032408049
2.2875485e-05
0.0032196925
2.1112425e-05
0.0032001879
1.9504665e-05
0.0031821539
1.8034027e-05
0.0031654671
1.6686735e-05
0.0031500158
1.545137e-05
0.0031356979
1.4317866e-05
0.0031224208
1.3277073e-05
0.0031101002
1.2320594e-05
0.0030986595
1.1440727e-05
0.003088029
1.0630447e-05
0.0030781456
9.8833866e-06
0.0030689518
9.193802e-06
0.0030603953
8.5565351e-06
0.0030524284
7.9669651e-06
0.0030450074
7.4209561e-06
0.0030380926
6.9148048e-06
0.0030316474
6.4451918e-06
0.0030256383
6.0091341e-06
0.0030200343
5.6039457e-06
0.0030148071
5.2272001e-06
0.0030099304
4.8766994e-06
0.0030053799
4.5504473e-06
0.0030011333
4.2466244e-06
0.0029971698
3.9635685e-06
0.00299347
3.6997541e-06
0.0029900163
3.4537778e-06
0.002986792
3.2243417e-06
0.0029837817
3.0102418e-06
0.0029809714
2.8103564e-06
0.0029783477
2.6236375e-06
0.0029758986
2.4491031e-06
0.0029736128
2.2858335e-06
0.0029714798
2.1329639e-06
0.0029694902
1.9896867e-06
0.002967635
1.8552435e-06
0.0029659061
1.7289307e-06
0.0029642961
1.6100915e-06
0.002962798
1.4981236e-06
0.0029614056
1.3924712e-06
0.002960113
1.2926358e-06
0.0029589149
1.1981658e-06
0.0029578063
1.1086715e-06
0.0029567826
1.0238105e-06
0.0029558394
9.4330331e-07
0.0029549725
8.6691515e-07
0.0029541781
7.9446687e-07
0.0029534524
7.2581432e-07
0.0029527915
6.6085466e-07
0.002952192
5.9950515e-07
0.0029516503
5.4171133e-07
0.0029511629
4.8742475e-07
0.0029507264
4.3661572e-07
0.0029503372
3.892517e-07
0.002949992
3.4530717e-07
0.0029496873
3.0474444e-07
0.0029494198
2.6751438e-07
0.0029491862
2.3354592e-07
0.0029489834
2.0274219e-07
0.0029488083
1.7497971e-07
0.0029486581
1.5011324e-07
0.0029485301
1.2797851e-07
0.0029484218
1.0840625e-07
0.0029483307
9.122025e-08
0.0029482546
7.6247311e-08
0.0029481913
6.3310632e-08
0.0029481391
5.2231992e-08
0.0029480961
4.2820942e-08
0.0029480611
3.4895436e-08
0.0029480327
2.8249872e-08
0.0029480099
2.2732302e-08
0.0029479918
1.813997e-08
0.0029479775
1.4406891e-08
0.0029479663
1.1321888e-08
0.0029479574
8.9556402e-09
0.0029479503
6.9961859e-09
0.0029479445
5.7724355e-09
4.5156488e-09
0.010339525
0.00035427932
0.010570754
0.00079057335
0.010606301
0.00091894821
0.010547572
0.00090167137
0.010422317
0.00084262624
0.010244356
0.00075768559
0.010039421
0.00065662744
0.0098287427
0.00055365586
0.009625135
0.00045977083
0.0094353013
0.00037975354
0.0092624277
0.00031409259
0.0091075332
0.00026140426
0.0089701539
0.00021969949
0.0088489023
0.00018689787
0.0087419716
0.00016105803
0.0086474927
0.00014051895
0.008563694
0.00012399297
0.0084890108
0.000110476
0.0084221096
9.921987e-05
0.0083618775
8.9681402e-05
0.0083073954
8.1470669e-05
0.0082579078
7.4307852e-05
0.0082127928
6.7990508e-05
0.0081715352
6.2370007e-05
0.0081337049
5.7335036e-05
0.0080989387
5.2800207e-05
0.0080669272
4.8698288e-05
0.0080374036
4.4974972e-05
0.008010136
4.1585405e-05
0.0079849212
3.8491859e-05
0.0079615796
3.5662171e-05
0.0079399517
3.3068635e-05
0.0079198949
3.0687207e-05
0.0079012814
2.84969e-05
0.0078839959
2.6479308e-05
0.0078679343
2.4618226e-05
0.0078530019
2.2899337e-05
0.007839113
2.1309946e-05
0.007826189
1.9838766e-05
0.0078141585
1.8475717e-05
0.0078029558
1.7211778e-05
0.0077925209
1.6038841e-05
0.0077827985
1.4949598e-05
0.0077737377
1.3937441e-05
0.0077652918
1.2996376e-05
0.0077574174
1.2120949e-05
0.0077500749
1.1306182e-05
0.0077432271
1.0547519e-05
0.0077368401
9.8407712e-06
0.0077308824
9.18208e-06
0.0077253248
8.5678745e-06
0.0077201403
7.9948405e-06
0.007715304
7.4598932e-06
0.0077107929
6.9601557e-06
0.0077065858
6.4929381e-06
0.007702663
6.0557283e-06
0.0076990066
5.6461755e-06
0.0076955997
5.2620906e-06
0.0076924273
4.9014331e-06
0.0076894751
4.5623178e-06
0.0076867302
4.2430035e-06
0.0076841808
3.9419061e-06
0.0076818158
3.6575855e-06
0.0076796252
3.3887635e-06
0.0076775996
3.134307e-06
0.0076757301
2.8932464e-06
0.0076740087
2.6647534e-06
0.0076724275
2.4481528e-06
0.0076709791
2.2428937e-06
0.0076696564
2.0485519e-06
0.0076684524
1.8647952e-06
0.0076673604
1.6913814e-06
0.007666374
1.5281207e-06
0.0076654865
1.3748768e-06
0.0076646916
1.2315313e-06
0.0076639829
1.0979835e-06
0.0076633541
9.741235e-07
0.0076627991
8.5982e-07
0.0076623117
7.5490787e-07
0.007661886
6.5916588e-07
0.0076615163
5.723201e-07
0.007661197
4.9402887e-07
0.0076609231
4.2389879e-07
0.0076606896
3.6148386e-07
0.0076604917
3.0631238e-07
0.0076603252
2.5787786e-07
0.0076601859
2.1568314e-07
0.0076600701
1.7919386e-07
0.0076599744
1.4791209e-07
0.0076598958
1.2128186e-07
0.0076598317
9.882405e-08
0.0076597799
7.9968405e-08
0.0076597382
6.4326832e-08
0.007659705
5.1316036e-08
0.0076596788
4.0778225e-08
0.0076596582
3.2010206e-08
0.0076596419
2.5342549e-08
0.0076596293
1.951171e-08
0.007659619
1.606197e-08
1.1493283e-08
0.010188704
0.00016557515
0.010530487
0.000448791
0.010851453
0.00059798177
0.011124174
0.00062895025
0.011350581
0.00061621886
0.011524486
0.00058378055
0.01164633
0.00053478421
0.011724155
0.00047583049
0.011767999
0.00041592665
0.011786639
0.000361114
0.011787114
0.00031361712
0.011775058
0.00027346026
0.011754861
0.00023989719
0.011729768
0.00021199032
0.011702054
0.00018877261
0.011673239
0.00016933388
0.011644339
0.00015289296
0.011616003
0.00013881183
0.011588629
0.00012659379
0.011562446
0.00011586445
0.011537571
0.00010634495
0.011514052
9.7827016e-05
0.011491889
9.0153382e-05
0.011471056
8.3203389e-05
0.011451508
7.6882637e-05
0.011433193
7.1115585e-05
0.011416051
6.5840316e-05
0.011400021
6.1004931e-05
0.011385041
5.6565094e-05
0.011371051
5.2482367e-05
0.01135799
4.8723065e-05
0.011345801
4.5257437e-05
0.011334429
4.2059057e-05
0.011323822
3.9104348e-05
0.011313929
3.6372209e-05
0.011304704
3.3843704e-05
0.011296101
3.1501795e-05
0.01128808
2.9331124e-05
0.011280601
2.7317812e-05
0.011273627
2.5449294e-05
0.011267125
2.3714168e-05
0.011261062
2.2102068e-05
0.011255408
2.0603549e-05
0.011250135
1.9209986e-05
0.011245218
1.7913491e-05
0.011240632
1.6706831e-05
0.011236355
1.5583362e-05
0.011232366
1.4536967e-05
0.011228644
1.3562001e-05
0.011225173
1.2653241e-05
0.011221935
1.1805842e-05
0.011218915
1.1015297e-05
0.011216097
1.0277407e-05
0.011213469
9.5882524e-06
0.011211018
8.9441654e-06
0.011208732
8.3417166e-06
0.0112066
7.7776969e-06
0.011204613
7.249108e-06
0.011202762
6.7531551e-06
0.011201037
6.2872413e-06
0.011199431
5.8489677e-06
0.011197937
5.4361299e-06
0.011196547
5.0467245e-06
0.011195257
4.6789435e-06
0.01119406
4.3311849e-06
0.011192952
4.0020407e-06
0.011191926
3.6903075e-06
0.011190979
3.3949641e-06
0.011190107
3.1151764e-06
0.011189305
2.8502643e-06
0.01118857
2.5996999e-06
0.011187899
2.3630668e-06
0.011187287
2.1400559e-06
0.011186731
1.9304221e-06
0.011186229
1.7339823e-06
0.011185776
1.5505704e-06
0.01118537
1.3800358e-06
0.011185008
1.2222021e-06
0.011184686
1.0768627e-06
0.011184401
9.4375003e-07
0.011184151
8.2253501e-07
0.011183932
7.1281011e-07
0.011183742
6.1410431e-07
0.011183577
5.2587393e-07
0.011183436
4.4753514e-07
0.011183316
3.7845076e-07
0.011183213
3.1797457e-07
0.011183127
2.6541551e-07
0.011183055
2.2010773e-07
0.011182995
1.8132033e-07
0.011182945
1.4842104e-07
0.011182904
1.2063577e-07
0.011182871
9.7485222e-08
0.011182844
7.8096208e-08
0.011182823
6.2389647e-08
0.011182806
4.9106255e-08
0.011182792
3.9146855e-08
0.011182782
2.9926658e-08
0.011182773
2.487579e-08
1.7576038e-08
0.010097182
6.8393556e-05
0.010346961
0.00019901112
0.010662469
0.00028247387
0.010982753
0.00030866649
0.011290229
0.00030874342
0.011575251
0.00029875788
0.011829022
0.00028101346
0.012047865
0.00025698756
0.012233272
0.00023051982
0.01238924
0.0002051459
0.012520295
0.00018256236
0.012630755
0.00016299958
0.012724428
0.00014622491
0.012804515
0.00013190313
0.012873613
0.00011967426
0.012933772
0.00010917461
0.012986596
0.00010006907
0.013033332
9.2076369e-05
0.01307495
8.4975262e-05
0.013112216
7.8598627e-05
0.013145739
7.2822322e-05
0.013176012
6.7553959e-05
0.013203441
6.2723946e-05
0.013228366
5.8278917e-05
0.013251071
5.4177008e-05
0.013271802
5.0384453e-05
0.01329077
4.6873187e-05
0.013308155
4.3619207e-05
0.013324119
4.0601495e-05
0.0133388
3.7801325e-05
0.013352321
3.5201808e-05
0.013364791
3.2787597e-05
0.013376305
3.0544669e-05
0.01338695
2.8460175e-05
0.013396799
2.6522312e-05
0.013405923
2.472023e-05
0.013414381
2.3043941e-05
0.013422228
2.1484247e-05
0.013429513
2.0032668e-05
0.013436281
1.8681386e-05
0.013442572
1.7423185e-05
0.013448422
1.6251399e-05
0.013453866
1.5159867e-05
0.013458933
1.4142891e-05
0.013463651
1.3195195e-05
0.013468046
1.2311891e-05
0.013472141
1.1488444e-05
0.013475958
1.0720642e-05
0.013479515
1.0004569e-05
0.013482832
9.3365749e-06
0.013485924
8.713255e-06
0.013488808
8.1314258e-06
0.013491497
7.5881083e-06
0.013494005
7.0805088e-06
0.013496343
6.6060081e-06
0.013498523
6.1621489e-06
0.013500554
5.7466233e-06
0.013502446
5.3572718e-06
0.013504207
4.9920701e-06
0.013505845
4.6491368e-06
0.013507367
4.3267188e-06
0.01350878
4.0232069e-06
0.01351009
3.7371183e-06
0.013511302
3.4671207e-06
0.013512421
3.212005e-06
0.013513452
2.9707192e-06
0.0135144
2.7423289e-06
0.013515269
2.5260537e-06
0.013516063
2.3212192e-06
0.013516786
2.1272885e-06
0.013517442
1.9438109e-06
0.013518034
1.7704472e-06
0.013518567
1.6069156e-06
0.013519045
1.4530179e-06
0.01351947
1.308579e-06
0.013519847
1.1734761e-06
0.01352018
1.047577e-06
0.013520472
9.3076371e-07
0.013520726
8.2288462e-07
0.013520945
7.2376389e-07
0.013521135
6.3318315e-07
0.013521296
5.5087557e-07
0.013521434
4.7653357e-07
0.01352155
4.0979967e-07
0.013521647
3.502859e-07
0.013521728
2.975624e-07
0.013521795
2.5119098e-07
0.01352185
2.1068576e-07
0.013521895
1.7559349e-07
0.013521931
1.453782e-07
0.013521959
1.1961931e-07
0.013521982
9.7721549e-08
0.013522
7.9402032e-08
0.013522014
6.3926695e-08
0.013522025
5.1389877e-08
0.013522034
4.0606914e-08
0.013522041
3.2623134e-08
0.013522046
2.4918015e-08
0.01352205
2.0909553e-08
1.4775418e-08
0.010068394
-5.6262901e-13
0.010267405
-5.1784646e-13
0.010549879
-5.793718e-13
0.010858545
-6.0280903e-13
0.011167288
-2.7140029e-13
0.011466046
4.4792988e-13
0.01174706
1.3747931e-12
0.012004047
2.3481716e-12
0.012234567
2.9658247e-12
0.012439713
3.158901e-12
0.012622275
2.8510643e-12
0.012785275
2.1430221e-12
0.0129315
1.4897826e-12
0.013063403
1.082533e-12
0.013183077
1.5010169e-12
0.013292252
2.8919782e-12
0.013392321
5.2244445e-12
0.013484397
8.3629816e-12
0.013569373
1.1507626e-11
0.013647971
1.4358091e-11
0.013720793
1.6257248e-11
0.013788347
1.7242208e-11
0.013851071
1.7684005e-11
0.01390935
1.7959504e-11
0.013963527
1.913582e-11
0.014013912
2.1516136e-11
0.014060785
2.5719711e-11
0.014104404
3.1781659e-11
0.014145006
3.9070637e-11
0.014182807
4.7289316e-11
0.014218009
5.5015307e-11
0.014250796
6.1918955e-11
0.014281341
6.7337335e-11
0.014309801
7.1529146e-11
0.014336323
7.5354629e-11
0.014361043
7.9469798e-11
0.014384087
8.5051722e-11
0.014405571
9.2370703e-11
0.014425604
1.0132599e-10
0.014444285
1.1169892e-10
0.014461708
1.2184773e-10
0.014477959
1.3137926e-10
0.014493119
1.3833501e-10
0.014507262
1.4250402e-10
0.014520457
1.4305255e-10
0.014532769
1.4021848e-10
0.014544257
1.3450041e-10
0.014554977
1.261961e-10
0.014564982
1.1559997e-10
0.014574318
1.0231208e-10
0.014583032
8.5645421e-11
0.014591163
6.4792807e-11
0.014598751
3.9843277e-11
0.014605831
7.6273856e-12
0.014612437
-3.0785441e-11
0.0146186
-7.3795959e-11
0.014624346
-1.1972289e-10
0.014629704
-1.6972985e-10
0.014634696
-2.2001826e-10
0.014639345
-2.7288084e-10
0.014643672
-3.23578e-10
0.014647696
-3.7546917e-10
0.014651433
-4.215114e-10
0.014654901
-4.6548677e-10
0.014658114
-4.9798826e-10
0.014661085
-5.2409064e-10
0.014663828
-5.3440237e-10
0.014666354
-5.3531231e-10
0.014668676
-5.2077658e-10
0.014670804
-4.9946274e-10
0.014672748
-4.6802501e-10
0.014674519
-4.3514652e-10
0.014676126
-3.9545949e-10
0.014677579
-3.5564489e-10
0.014678888
-3.0664475e-10
0.014680062
-2.5260621e-10
0.01468111
-1.8805577e-10
0.014682041
-1.1713904e-10
0.014682864
-4.3967597e-11
0.014683588
2.6941891e-11
0.014684221
8.9265953e-11
0.014684771
1.3847856e-10
0.014685248
1.7420602e-10
0.014685657
1.9916281e-10
0.014686007
2.1694885e-10
0.014686305
2.3246491e-10
0.014686556
2.4610024e-10
0.014686767
2.6236579e-10
0.014686942
2.7427403e-10
0.014687087
2.8662911e-10
0.014687206
2.901818e-10
0.014687304
2.9127382e-10
0.014687383
2.8420573e-10
0.014687446
2.7631408e-10
0.014687498
2.6469208e-10
0.014687538
2.5087575e-10
0.014687571
2.3832291e-10
0.014687595
2.1744018e-10
0.014687616
2.0824151e-10
1.9686546e-10
0.010068394
-6.8393557e-05
0.010267405
-0.00019901112
0.010549879
-0.00028247387
0.010858545
-0.00030866649
0.011167288
-0.00030874342
0.011466046
-0.00029875788
0.01174706
-0.00028101345
0.012004047
-0.00025698755
0.012234567
-0.00023051981
0.012439713
-0.00020514589
0.012622275
-0.00018256236
0.012785275
-0.00016299957
0.0129315
-0.00014622491
0.013063403
-0.00013190312
0.013183077
-0.00011967426
0.013292252
-0.0001091746
0.013392321
-0.00010006906
0.013484397
-9.2076353e-05
0.013569373
-8.4975239e-05
0.013647971
-7.85986e-05
0.013720793
-7.2822291e-05
0.013788347
-6.7553927e-05
0.013851071
-6.2723913e-05
0.01390935
-5.8278884e-05
0.013963527
-5.4176972e-05
0.014013912
-5.0384413e-05
0.014060785
-4.6873138e-05
0.014104404
-4.3619147e-05
0.014145006
-4.0601421e-05
0.014182807
-3.7801235e-05
0.014218009
-3.5201705e-05
0.014250796
-3.2787481e-05
0.014281341
-3.0544544e-05
0.014309801
-2.8460042e-05
0.014336323
-2.6522173e-05
0.014361043
-2.4720084e-05
0.014384087
-2.3043785e-05
0.014405571
-2.1484077e-05
0.014425604
-2.0032482e-05
0.014444285
-1.8681181e-05
0.014461708
-1.7422961e-05
0.01447796
-1.6251158e-05
0.014493119
-1.5159614e-05
0.014507262
-1.4142632e-05
0.014520457
-1.3194936e-05
0.014532769
-1.2311639e-05
0.014544257
-1.1488203e-05
0.014554978
-1.0720418e-05
0.014564982
-1.0004365e-05
0.014574319
-9.3363958e-06
0.014583032
-8.7131062e-06
0.014591163
-8.1313149e-06
0.014598751
-7.5880447e-06
0.014605832
-7.0805039e-06
0.014612438
-6.606072e-06
0.0146186
-6.1622897e-06
0.014624347
-5.7468472e-06
0.014629704
-5.3575841e-06
0.014634696
-4.9924727e-06
0.014639346
-4.6496323e-06
0.014643673
-4.3273055e-06
0.014647696
-4.0238844e-06
0.014651434
-3.7378788e-06
0.014654901
-3.4679567e-06
0.014658113
-3.2128995e-06
0.014661085
-2.9716562e-06
0.014663827
-2.7432832e-06
0.014666354
-2.5270051e-06
0.014668676
-2.322144e-06
0.014670803
-2.1281727e-06
0.014672747
-1.9446404e-06
0.014674518
-1.7712179e-06
0.014676125
-1.6076192e-06
0.014677579
-1.4536511e-06
0.014678887
-1.309127e-06
0.014680061
-1.1739267e-06
0.014681109
-1.0479107e-06
0.01468204
-9.3096858e-07
0.014682863
-8.2295528e-07
0.014683587
-7.2370777e-07
0.01468422
-6.3301787e-07
0.01468477
-5.5062516e-07
0.014685247
-4.7622207e-07
0.014685656
-4.0944609e-07
0.014686007
-3.4990123e-07
0.014686304
-2.9715056e-07
0.014686555
-2.5075237e-07
0.014686766
-2.1021856e-07
0.014686941
-1.7510178e-07
0.014687087
-1.4486587e-07
0.014687206
-1.1909876e-07
0.014687303
-9.7201472e-08
0.014687382
-7.8892633e-08
0.014687446
-6.3433618e-08
0.014687497
-5.0915794e-08
0.014687538
-4.0158227e-08
0.01468757
-3.2195017e-08
0.014687595
-2.4529909e-08
0.014687616
-2.0535137e-08
-1.442584e-08
0.010097182
-0.00016557515
0.010346961
-0.000448791
0.010662469
-0.00059798178
0.010982753
-0.00062895025
0.011290229
-0.00061621887
0.011575251
-0.00058378055
0.011829022
-0.0005347842
0.012047865
-0.00047583049
0.012233272
-0.00041592665
0.01238924
-0.00036111399
0.012520295
-0.00031361711
0.012630755
-0.00027346026
0.012724428
-0.00023989719
0.012804515
-0.00021199032
0.012873613
-0.00018877261
0.012933772
-0.00016933388
0.012986596
-0.00015289295
0.013033332
-0.00013881181
0.01307495
-0.00012659377
0.013112216
-0.00011586443
0.013145739
-0.00010634492
0.013176012
-9.782699e-05
0.013203441
-9.0153357e-05
0.013228366
-8.3203364e-05
0.013251071
-7.6882611e-05
0.013271803
-7.1115554e-05
0.01329077
-6.5840277e-05
0.013308155
-6.1004883e-05
0.013324119
-5.6565033e-05
0.0133388
-5.2482294e-05
0.013352321
-4.8722981e-05
0.013364791
-4.5257345e-05
0.013376306
-4.2058959e-05
0.01338695
-3.9104246e-05
0.0133968
-3.6372105e-05
0.013405923
-3.3843595e-05
0.013414381
-3.150168e-05
0.013422228
-2.9330997e-05
0.013429513
-2.7317671e-05
0.013436281
-2.5449139e-05
0.013442572
-2.3713998e-05
0.013448423
-2.2101888e-05
0.013453867
-2.0603362e-05
0.013458934
-1.9209799e-05
0.013463652
-1.7913309e-05
0.013468047
-1.6706658e-05
0.013472142
-1.5583203e-05
0.013475959
-1.4536825e-05
0.013479516
-1.3561877e-05
0.013482833
-1.2653139e-05
0.013485926
-1.1805764e-05
0.013488809
-1.1015251e-05
0.013491499
-1.02774e-05
0.013494007
-9.5882911e-06
0.013496345
-8.9442592e-06
0.013498524
-8.3418683e-06
0.013500555
-7.7779136e-06
0.013502447
-7.2493875e-06
0.013504208
-6.7535027e-06
0.013505846
-6.287651e-06
0.013507368
-5.8494451e-06
0.013508781
-5.4366646e-06
0.01351009
-5.0473202e-06
0.013511302
-4.679582e-06
0.013512421
-4.3318647e-06
0.013513452
-4.0027357e-06
0.0135144
-3.6910104e-06
0.013515268
-3.3956481e-06
0.013516062
-3.1158365e-06
0.013516785
-2.8508816e-06
0.01351744
-2.6002786e-06
0.013518032
-2.3635952e-06
0.013518565
-2.1405439e-06
0.013519042
-1.930854e-06
0.013519468
-1.7343595e-06
0.013519845
-1.5508699e-06
0.013520177
-1.3802496e-06
0.013520469
-1.2223156e-06
0.013520723
-1.0768752e-06
0.013520943
-9.4367069e-07
0.013521132
-8.2237986e-07
0.013521294
-7.1260289e-07
0.013521431
-6.1386431e-07
0.013521547
-5.2561567e-07
0.013521645
-4.4726292e-07
0.013521726
-3.7816554e-07
0.013521793
-3.1766654e-07
0.013521848
-2.6508826e-07
0.013521893
-2.1975151e-07
0.013521929
-1.8095275e-07
0.013521958
-1.4804016e-07
0.013521981
-1.2026644e-07
0.013521999
-9.7122914e-08
0.013522013
-7.7759951e-08
0.013522024
-6.206473e-08
0.013522033
-4.8804613e-08
0.01352204
-3.8856186e-08
0.013522045
-2.9658117e-08
0.013522049
-2.4615939e-08
-1.7335992e-08
0.010188704
-0.00035427932
0.010530487
-0.00079057335
0.010851453
-0.00091894821
0.011124174
-0.00090167137
0.011350581
-0.00084262624
0.011524486
-0.00075768559
0.01164633
-0.00065662743
0.011724155
-0.00055365586
0.011767999
-0.00045977083
0.011786639
-0.00037975354
0.011787114
-0.00031409259
0.011775058
-0.00026140426
0.011754861
-0.00021969949
0.011729768
-0.00018689787
0.011702054
-0.00016105802
0.011673239
-0.00014051895
0.011644339
-0.00012399296
0.011616003
-0.00011047599
0.011588629
-9.9219855e-05
0.011562446
-8.9681387e-05
0.011537572
-8.1470654e-05
0.011514052
-7.4307838e-05
0.011491889
-6.7990496e-05
0.011471056
-6.2369995e-05
0.011451509
-5.7335022e-05
0.011433193
-5.2800188e-05
0.011416051
-4.8698262e-05
0.011400021
-4.4974939e-05
0.011385042
-4.1585364e-05
0.011371051
-3.8491812e-05
0.01135799
-3.5662119e-05
0.011345801
-3.3068581e-05
0.01133443
-3.0687153e-05
0.011323822
-2.8496846e-05
0.011313929
-2.6479253e-05
0.011304704
-2.4618168e-05
0.011296102
-2.2899273e-05
0.011288081
-2.1309875e-05
0.011280602
-1.9838685e-05
0.011273628
-1.8475629e-05
0.011267126
-1.7211684e-05
0.011261063
-1.6038744e-05
0.011255409
-1.4949503e-05
0.011250136
-1.3937351e-05
0.011245219
-1.2996293e-05
0.011240633
-1.2120875e-05
0.011236356
-1.1306119e-05
0.011232367
-1.0547466e-05
0.011228646
-9.8407305e-06
0.011225175
-9.1820534e-06
0.011221937
-8.5678651e-06
0.011218916
-7.9948529e-06
0.011216099
-7.4599322e-06
0.011213471
-6.9602247e-06
0.011211019
-6.4930407e-06
0.011208733
-6.0558646e-06
0.011206602
-5.6463469e-06
0.011204615
-5.2622947e-06
0.011202763
-4.9016712e-06
0.011201038
-4.5625878e-06
0.011199431
-4.2433075e-06
0.011197937
-3.9422397e-06
0.011196548
-3.6579479e-06
0.011195257
-3.3891447e-06
0.01119406
-3.1347007e-06
0.011192951
-2.8936371e-06
0.011191925
-2.6651339e-06
0.011190978
-2.4485109e-06
0.011190105
-2.2432287e-06
0.011189303
-2.0488602e-06
0.011188568
-1.865083e-06
0.011187896
-1.6916481e-06
0.011187283
-1.5283691e-06
0.011186728
-1.3750974e-06
0.011186225
-1.2317163e-06
0.011185772
-1.0981173e-06
0.011185366
-9.7419786e-07
0.011185004
-8.5983138e-07
0.011184682
-7.5486269e-07
0.011184397
-6.5907929e-07
0.011184147
-5.7220918e-07
0.011183928
-4.9390987e-07
0.011183738
-4.2377907e-07
0.011183574
-3.6136277e-07
0.011183433
-3.0618196e-07
0.011183313
-2.5773161e-07
0.011183211
-2.1551379e-07
0.011183125
-1.7900631e-07
0.011183053
-1.4771034e-07
0.011182993
-1.2108123e-07
0.011182943
-9.8630548e-08
0.011182903
-7.9791406e-08
0.01118287
-6.416338e-08
0.011182843
-5.1165781e-08
0.011182822
-4.0629629e-08
0.011182805
-3.1861397e-08
0.011182791
-2.5201631e-08
0.011182781
-1.9380537e-08
0.011182772
-1.5931772e-08
-1.1370347e-08
0.010339525
-0.00069380425
0.010570754
-0.0010218027
0.010606301
-0.00095449449
0.010547572
-0.00084294334
0.010422317
-0.0007173708
0.010244356
-0.00057972443
0.010039421
-0.00045169204
0.0098287427
-0.00034297801
0.009625135
-0.00025616318
0.0094353013
-0.00018991984
0.0092624277
-0.00014121898
0.0091075332
-0.0001065098
0.008970154
-8.2320221e-05
0.0088489023
-6.5646242e-05
0.0087419716
-5.4127249e-05
0.0086474927
-4.6040041e-05
0.008563694
-4.0194285e-05
0.0084890108
-3.579275e-05
0.0084221097
-3.2318755e-05
0.0083618775
-2.944928e-05
0.0083073954
-2.6988579e-05
0.0082579079
-2.4820305e-05
0.0082127929
-2.2875485e-05
0.0081715353
-2.1112421e-05
0.008133705
-1.9504656e-05
0.0080989388
-1.8034013e-05
0.0080669273
-1.6686719e-05
0.0080374038
-1.5451353e-05
0.0080101362
-1.431785e-05
0.0079849215
-1.327706e-05
0.0079615799
-1.2320585e-05
0.007939952
-1.144072e-05
0.0079198952
-1.063044e-05
0.0079012818
-9.8833773e-06
0.0078839963
-9.193787e-06
0.0078679347
-8.5565139e-06
0.0078530024
-7.966938e-06
0.0078391135
-7.4209253e-06
0.0078261896
-6.914774e-06
0.0078141591
-6.4451635e-06
0.0078029565
-6.0091114e-06
0.0077925217
-5.6039286e-06
0.0077827993
-5.2271876e-06
0.0077737386
-4.8766894e-06
0.0077652927
-4.5504366e-06
0.0077574185
-4.2466117e-06
0.0077500759
-3.9635524e-06
0.0077432282
-3.6997369e-06
0.0077368413
-3.4537619e-06
0.0077308836
-3.2243313e-06
0.0077253259
-3.0102401e-06
0.0077201414
-2.8103658e-06
0.0077153051
-2.6236572e-06
0.0077107939
-2.4491324e-06
0.0077065867
-2.2858673e-06
0.0077026638
-2.1330017e-06
0.0076990072
-1.9897238e-06
0.0076956002
-1.8552841e-06
0.0076924275
-1.7289737e-06
0.0076894751
-1.6101448e-06
0.0076867299
-1.4981847e-06
0.0076841802
-1.3925463e-06
0.007681815
-1.2927149e-06
0.0076796241
-1.1982504e-06
0.0076775982
-1.1087465e-06
0.0076757285
-1.0238786e-06
0.0076740068
-9.4335589e-07
0.0076724253
-8.6696307e-07
0.0076709766
-7.945104e-07
0.0076696536
-7.2586817e-07
0.0076684494
-6.6091556e-07
0.0076673573
-5.9957881e-07
0.0076663707
-5.4177905e-07
0.0076654831
-4.8748097e-07
0.0076646882
-4.3663955e-07
0.0076639795
-3.8924344e-07
0.0076633508
-3.4526793e-07
0.0076627958
-3.0469072e-07
0.0076623085
-2.6746667e-07
0.0076618829
-2.3351899e-07
0.0076615132
-2.0274343e-07
0.0076611941
-1.7499886e-07
0.0076609204
-1.5013159e-07
0.007660687
-1.2797291e-07
0.0076604894
-1.0836454e-07
0.0076603231
-9.1138191e-08
0.007660184
-7.614728e-08
0.0076600684
-6.3207559e-08
0.0076599729
-5.2159926e-08
0.0076598945
-4.2778763e-08
0.0076598305
-3.489073e-08
0.0076597788
-2.8253636e-08
0.0076597373
-2.2735665e-08
0.0076597043
-1.811273e-08
0.0076596782
-1.4358386e-08
0.0076596577
-1.1257668e-08
0.0076596414
-8.9044462e-09
0.007659629
-6.9556265e-09
0.0076596188
-5.7363014e-09
-4.474799e-09
0.0093061957
0.0082843931
0.0073298986
0.0064869553
0.0057695845
0.00518986
0.004738168
0.00439519
0.0041390268
0.0039491069
0.003807888
0.0037013782
0.003619058
0.0035534117
0.0034992845
0.0034532445
0.0034130502
0.0033772574
0.0033449386
0.0033154893
0.0032885008
0.0032636804
0.003240805
0.0032196926
0.0032001879
0.0031821539
0.0031654672
0.0031500159
0.003135698
0.0031224209
0.0031101003
0.0030986596
0.0030880291
0.0030781458
0.003068952
0.0030603955
0.0030524286
0.0030450077
0.0030380929
0.0030316477
0.0030256386
0.0030200346
0.0030148074
0.0030099307
0.0030053803
0.0030011337
0.0029971702
0.0029934704
0.0029900167
0.0029867924
0.0029837821
0.0029809717
0.002978348
0.0029758989
0.002973613
0.00297148
0.0029694903
0.002967635
0.0029659061
0.002964296
0.0029627978
0.0029614052
0.0029601125
0.0029589143
0.0029578056
0.0029567818
0.0029558385
0.0029549716
0.0029541771
0.0029534513
0.0029527904
0.0029521908
0.002951649
0.0029511616
0.0029507251
0.002950336
0.0029499909
0.0029496862
0.0029494187
0.0029491852
0.0029489823
0.0029488072
0.0029486571
0.0029485292
0.002948421
0.00294833
0.002948254
0.0029481908
0.0029481386
0.0029480958
0.0029480608
0.0029480324
0.0029480097
0.0029479916
0.0029479774
0.0029479662
0.0029479573
0.0029479503
0.0029479446
)
;

boundaryField
{
    top
    {
        type            calculated;
        value           uniform 0;
    }
    inlet
    {
        type            calculated;
        value           nonuniform List<scalar> 10(-0.01 -0.01 -0.01 -0.01 -0.01 -0.01 -0.01 -0.01 -0.01 -0.01);
    }
    outlet
    {
        type            calculated;
        value           nonuniform List<scalar> 10(0.00294794 0.007659612 0.011182767 0.013522052 0.014687631 0.01468763 0.013522052 0.011182766 0.0076596119 0.0029479401);
    }
    bottom
    {
        type            calculated;
        value           uniform 0;
    }
    back
    {
        type            empty;
        value           nonuniform 0();
    }
    front
    {
        type            empty;
        value           nonuniform 0();
    }
}


// ************************************************************************* //
