/*--------------------------------*- C++ -*----------------------------------*\
| =========                 |                                                 |
| \\      /  F ield         | OpenFOAM: The Open Source CFD Toolbox           |
|  \\    /   O peration     | Version:  v1812                                 |
|   \\  /    A nd           | Web:      www.OpenFOAM.com                      |
|    \\/     M anipulation  |                                                 |
\*---------------------------------------------------------------------------*/
FoamFile
{
    version     2.0;
    format      ascii;
    class       volScalarField;
    location    "6.85";
    object      p;
}
// * * * * * * * * * * * * * * * * * * * * * * * * * * * * * * * * * * * * * //

dimensions      [0 2 -2 0 0 0 0];


internalField   nonuniform List<scalar> 
1000
(
1.6754555
1.5543776
1.4583971
1.394741
1.3462315
1.3037594
1.2662242
1.2340524
1.2066521
1.1828145
1.1614202
1.1416563
1.1229792
1.1050397
1.0876243
1.0706102
1.0539293
1.0375451
1.0214369
1.005591
0.989996
0.97464089
0.95951419
0.94460395
0.92989795
0.91538396
0.90105
0.8868845
0.87287646
0.85901546
0.84529174
0.83169619
0.81822028
0.8048561
0.79159626
0.7784339
0.76536261
0.75237644
0.73946983
0.72663759
0.7138749
0.70117725
0.68854044
0.67596056
0.66343397
0.65095727
0.63852732
0.62614118
0.61379612
0.60148962
0.58921932
0.57698304
0.56477877
0.55260461
0.54045881
0.52833975
0.51624588
0.50417576
0.49212801
0.48010133
0.46809444
0.45610612
0.4441352
0.43218049
0.42024088
0.40831525
0.39640251
0.38450159
0.37261146
0.36073111
0.34885958
0.33699594
0.32513932
0.31328891
0.30144393
0.28960369
0.27776755
0.26593492
0.25410527
0.24227811
0.23045302
0.21862964
0.20680766
0.19498681
0.18316691
0.17134778
0.15952927
0.14771126
0.13589362
0.12407624
0.11225905
0.10044198
0.088625008
0.076808131
0.064991344
0.053174643
0.041358009
0.029541416
0.01772483
0.0059082572
1.5582358
1.5033067
1.4423542
1.3907865
1.3475165
1.3085481
1.2729619
1.2411893
1.2132284
1.1884505
1.1660486
1.1453473
1.1258656
1.1072776
1.089364
1.0719792
1.0550274
1.038446
1.0221934
1.0062399
0.99056282
0.97514328
0.95996443
0.94501076
0.93026771
0.91572149
0.90135909
0.88716823
0.8731374
0.85925582
0.84551345
0.83190094
0.81840958
0.80503128
0.79175852
0.77858431
0.76550215
0.75250597
0.73959014
0.7267494
0.71397885
0.70127392
0.68863036
0.67604422
0.66351179
0.65102966
0.63859463
0.62620373
0.6138542
0.60154349
0.58926923
0.5770292
0.56482137
0.55264384
0.54049484
0.52837273
0.51627596
0.50420309
0.49215273
0.48012357
0.46811435
0.45612385
0.44415088
0.43219428
0.42025292
0.40832569
0.39641148
0.38450925
0.37261794
0.36073656
0.34886411
0.33699968
0.32514238
0.31329137
0.3014459
0.28960525
0.27776877
0.26593586
0.25410598
0.24227865
0.23045343
0.21862994
0.20680788
0.19498697
0.18316702
0.17134785
0.15952931
0.14771128
0.13589363
0.12407625
0.11225906
0.10044199
0.088625019
0.076808137
0.064991341
0.053174632
0.041357992
0.029541397
0.017724806
0.0059082382
1.4974145
1.4712394
1.4328426
1.3917097
1.3526244
1.3160336
1.2817359
1.2500184
1.2211623
1.1950612
1.1713072
1.1494172
1.1289674
1.1096265
1.0911464
1.0733453
1.0560935
1.0392979
1.0228918
1.0068267
0.99106633
0.97558263
0.96035276
0.94535726
0.93057899
0.9160025
0.90161368
0.88739952
0.87334798
0.85944792
0.845689
0.83206162
0.81855687
0.8051665
0.79188283
0.77869875
0.76560762
0.7526033
0.73968004
0.72683253
0.71405578
0.70134518
0.68869642
0.67610548
0.66356864
0.65108243
0.63864363
0.62624923
0.61389645
0.60158272
0.58930563
0.57706297
0.56485266
0.55267279
0.54052159
0.5283974
0.51629866
0.50422392
0.49217178
0.48014094
0.46813012
0.45613811
0.44416371
0.43220577
0.42026314
0.40833473
0.39641944
0.3845162
0.37262398
0.36074176
0.34886856
0.33700346
0.32514556
0.31329404
0.30144811
0.28960706
0.27777024
0.26593704
0.25410693
0.2422794
0.23045402
0.21863041
0.20680824
0.19498725
0.18316723
0.171348
0.15952941
0.14771135
0.13589367
0.12407628
0.11225909
0.10044202
0.088625048
0.076808157
0.064991346
0.053174622
0.041357967
0.029541362
0.017724766
0.0059082109
1.468006
1.4525079
1.425638
1.3917141
1.3559131
1.3209618
1.2876598
1.2563068
1.2271761
1.2003846
1.1757971
1.1531049
1.1319531
1.1120243
1.0930661
1.0748864
1.0573407
1.0403197
1.0237411
1.0075431
0.99167907
0.97611332
0.96081735
0.94576767
0.93094423
0.9163295
0.90190787
0.88766524
0.8735888
0.8596668
0.84588842
0.83224372
0.81872349
0.80531923
0.79202306
0.77882769
0.76572636
0.75271278
0.73978111
0.72692593
0.71414219
0.70142519
0.68877058
0.67617428
0.66363251
0.65114178
0.63869882
0.62630059
0.61394429
0.60162731
0.58934722
0.57710177
0.56488889
0.55270664
0.54055321
0.52842694
0.51632624
0.50424964
0.49219576
0.48016325
0.46815083
0.45615729
0.44418143
0.43222208
0.4202781
0.40834839
0.39643185
0.38452742
0.37263406
0.36075077
0.34887657
0.33701053
0.32515176
0.31329944
0.30145278
0.28961106
0.27777364
0.26593992
0.25410934
0.24228141
0.23045568
0.21863178
0.20680936
0.19498815
0.18316795
0.17134856
0.15952985
0.14771168
0.13589393
0.12407648
0.11225925
0.10044215
0.088625147
0.07680823
0.064991393
0.053174643
0.041357965
0.029541343
0.017724737
0.0059081925
1.4552745
1.4433211
1.4210867
1.3907992
1.356938
1.3229424
1.2902448
1.2592393
1.2301419
1.20313
1.178203
1.1551534
1.1336719
1.1134542
1.0942506
1.0758684
1.0581595
1.0410091
1.0243282
1.0080491
0.99212011
0.97650154
0.96116202
0.94607585
0.93122139
0.91657991
0.90213494
0.88787175
0.87377707
0.85983879
0.84604582
0.83238799
0.81885592
0.80544094
0.79213506
0.77893088
0.76582152
0.75280063
0.73986229
0.72700102
0.7142117
0.7014896
0.68883031
0.67622972
0.66368401
0.65118966
0.63874337
0.62634209
0.61398298
0.60166342
0.58938095
0.57713332
0.56491842
0.55273431
0.54057915
0.52845127
0.51634907
0.50427106
0.49221584
0.48018206
0.46816843
0.45617372
0.44419672
0.43223628
0.42029124
0.40836049
0.39644295
0.38453756
0.37264327
0.36075908
0.34888403
0.33701718
0.32515765
0.31330461
0.30145729
0.28961497
0.277777
0.26594278
0.25411176
0.24228344
0.23045738
0.21863318
0.20681051
0.19498909
0.1831687
0.17134916
0.15953032
0.14771205
0.13589421
0.1240767
0.11225942
0.10044228
0.088625251
0.076808308
0.064991445
0.053174674
0.041357977
0.029541341
0.017724726
0.0059081851
1.4552745
1.4433211
1.4210867
1.3907992
1.356938
1.3229424
1.2902448
1.2592393
1.2301419
1.20313
1.178203
1.1551534
1.1336719
1.1134542
1.0942506
1.0758684
1.0581595
1.0410091
1.0243282
1.0080491
0.99212011
0.97650154
0.96116202
0.94607585
0.93122139
0.91657991
0.90213494
0.88787175
0.87377707
0.85983879
0.84604583
0.832388
0.81885592
0.80544094
0.79213506
0.77893087
0.76582152
0.75280062
0.73986229
0.72700102
0.7142117
0.70148961
0.68883031
0.67622972
0.66368402
0.65118967
0.63874338
0.62634209
0.61398298
0.60166342
0.58938095
0.57713332
0.56491843
0.55273431
0.54057916
0.52845128
0.51634908
0.50427107
0.49221584
0.48018206
0.46816843
0.45617372
0.44419672
0.43223627
0.42029123
0.40836049
0.39644295
0.38453755
0.37264327
0.36075908
0.34888403
0.33701718
0.32515765
0.31330461
0.30145728
0.28961497
0.277777
0.26594278
0.25411176
0.24228344
0.23045738
0.21863318
0.20681051
0.19498909
0.1831687
0.17134916
0.15953032
0.14771204
0.13589421
0.12407671
0.11225942
0.10044229
0.088625253
0.076808308
0.064991445
0.053174674
0.041357977
0.029541342
0.017724725
0.0059081835
1.468006
1.4525079
1.425638
1.3917141
1.3559131
1.3209618
1.2876598
1.2563068
1.2271761
1.2003846
1.1757971
1.1531049
1.1319531
1.1120243
1.0930661
1.0748864
1.0573407
1.0403197
1.0237411
1.0075431
0.99167907
0.97611332
0.96081734
0.94576766
0.93094422
0.91632949
0.90190786
0.88766524
0.8735888
0.8596668
0.84588843
0.83224373
0.8187235
0.80531923
0.79202306
0.77882769
0.76572635
0.75271277
0.7397811
0.72692593
0.71414219
0.7014252
0.68877059
0.67617429
0.66363253
0.65114179
0.63869883
0.6263006
0.6139443
0.60162731
0.58934722
0.57710178
0.5648889
0.55270665
0.54055322
0.52842695
0.51632625
0.50424966
0.49219577
0.48016325
0.46815084
0.45615729
0.44418142
0.43222206
0.42027808
0.40834837
0.39643183
0.38452741
0.37263405
0.36075076
0.34887657
0.33701052
0.32515175
0.31329942
0.30145276
0.28961105
0.27777363
0.26593991
0.25410934
0.24228141
0.23045569
0.21863178
0.20680936
0.19498815
0.18316793
0.17134855
0.15952984
0.14771168
0.13589393
0.12407649
0.11225926
0.10044216
0.088625152
0.076808231
0.064991392
0.053174642
0.041357965
0.029541344
0.017724736
0.0059081894
1.4974145
1.4712394
1.4328426
1.3917097
1.3526244
1.3160336
1.2817359
1.2500184
1.2211623
1.1950612
1.1713072
1.1494172
1.1289674
1.1096265
1.0911464
1.0733453
1.0560935
1.0392979
1.0228918
1.0068267
0.99106633
0.97558263
0.96035275
0.94535725
0.93057898
0.91600249
0.90161367
0.88739951
0.87334798
0.85944793
0.84568901
0.83206162
0.81855687
0.8051665
0.79188283
0.77869874
0.76560761
0.75260329
0.73968004
0.72683253
0.71405579
0.70134519
0.68869643
0.6761055
0.66356866
0.65108245
0.63864364
0.62624924
0.61389646
0.60158273
0.58930564
0.57706297
0.56485267
0.55267281
0.54052161
0.52839742
0.51629868
0.50422393
0.49217179
0.48014094
0.46813012
0.4561381
0.4441637
0.43220575
0.42026312
0.40833471
0.39641942
0.38451619
0.37262397
0.36074175
0.34886855
0.33700345
0.32514555
0.31329401
0.30144808
0.28960703
0.27777022
0.26593703
0.25410693
0.24227941
0.23045403
0.21863042
0.20680824
0.19498724
0.18316721
0.17134798
0.1595294
0.14771134
0.13589368
0.1240763
0.11225911
0.10044204
0.088625054
0.076808157
0.064991343
0.053174619
0.041357966
0.029541362
0.017724763
0.0059082082
1.5582358
1.5033067
1.4423542
1.3907865
1.3475165
1.3085481
1.2729619
1.2411893
1.2132284
1.1884505
1.1660486
1.1453473
1.1258656
1.1072776
1.089364
1.0719792
1.0550274
1.038446
1.0221934
1.0062399
0.99056282
0.97514328
0.95996442
0.94501075
0.9302677
0.91572148
0.90135908
0.88716823
0.8731374
0.85925583
0.84551346
0.83190094
0.81840958
0.80503127
0.79175851
0.7785843
0.76550214
0.75250596
0.73959014
0.7267494
0.71397885
0.70127393
0.68863038
0.67604424
0.66351182
0.65102968
0.63859464
0.62620374
0.61385421
0.6015435
0.58926924
0.57702921
0.56482139
0.55264386
0.54049486
0.52837275
0.51627598
0.5042031
0.49215274
0.48012358
0.46811435
0.45612384
0.44415086
0.43219426
0.4202529
0.40832566
0.39641146
0.38450923
0.37261793
0.36073655
0.3488641
0.33699967
0.32514236
0.31329135
0.30144587
0.28960522
0.27776875
0.26593585
0.25410599
0.24227866
0.23045344
0.21862995
0.20680787
0.19498695
0.18316699
0.17134782
0.1595293
0.14771128
0.13589364
0.12407627
0.11225907
0.100442
0.088625024
0.076808137
0.064991339
0.053174631
0.041357992
0.029541396
0.017724801
0.0059082346
1.6754555
1.5543776
1.4583971
1.394741
1.3462315
1.3037594
1.2662242
1.2340524
1.2066521
1.1828145
1.1614202
1.1416563
1.1229792
1.1050397
1.0876243
1.0706102
1.0539293
1.0375451
1.0214369
1.005591
0.989996
0.97464089
0.95951419
0.94460394
0.92989794
0.91538395
0.90105
0.8868845
0.87287646
0.85901546
0.84529175
0.83169619
0.81822028
0.80485609
0.79159625
0.77843389
0.7653626
0.75237643
0.73946982
0.72663759
0.71387491
0.70117726
0.68854046
0.67596058
0.66343399
0.65095729
0.63852734
0.62614119
0.61379613
0.60148963
0.58921933
0.57698305
0.56477878
0.55260462
0.54045883
0.52833976
0.51624589
0.50417577
0.49212802
0.48010133
0.46809443
0.45610611
0.44413518
0.43218047
0.42024086
0.40831522
0.39640248
0.38450157
0.37261144
0.3607311
0.34885957
0.33699592
0.3251393
0.31328888
0.3014439
0.28960367
0.27776754
0.26593492
0.25410528
0.24227812
0.23045303
0.21862964
0.20680764
0.19498679
0.18316689
0.17134777
0.15952927
0.14771127
0.13589363
0.12407625
0.11225905
0.10044198
0.088625012
0.076808136
0.064991352
0.053174651
0.041358014
0.029541412
0.01772482
0.0059082518
)
;

boundaryField
{
    top
    {
        type            zeroGradient;
    }
    inlet
    {
        type            zeroGradient;
    }
    outlet
    {
        type            fixedValue;
        value           uniform 0;
    }
    bottom
    {
        type            zeroGradient;
    }
    back
    {
        type            empty;
    }
    front
    {
        type            empty;
    }
}


// ************************************************************************* //
