/*--------------------------------*- C++ -*----------------------------------*\
| =========                 |                                                 |
| \\      /  F ield         | OpenFOAM: The Open Source CFD Toolbox           |
|  \\    /   O peration     | Version:  2112                                  |
|   \\  /    A nd           | Website:  www.openfoam.com                      |
|    \\/     M anipulation  |                                                 |
\*---------------------------------------------------------------------------*/
FoamFile
{
    version     2.0;
    format      ascii;
    arch        "LSB;label=32;scalar=64";
    class       volScalarField;
    location    "14";
    object      p;
}
// * * * * * * * * * * * * * * * * * * * * * * * * * * * * * * * * * * * * * //

dimensions      [0 2 -2 0 0 0 0];

internalField   nonuniform List<scalar> 
1000
(
1.5266872
1.5099584
1.4935837
1.4774663
1.4615195
1.4456873
1.4299366
1.4142488
1.3986124
1.3830188
1.3674606
1.3519317
1.3364278
1.3209457
1.3054828
1.2900374
1.2746078
1.2591927
1.2437908
1.228401
1.2130223
1.197654
1.1822952
1.1669452
1.1516034
1.1362691
1.120942
1.1056213
1.0903068
1.0749979
1.0596942
1.0443955
1.0291013
1.0138113
0.99852533
0.98324301
0.96796412
0.95268842
0.93741568
0.92214571
0.90687832
0.89161331
0.87635054
0.86108983
0.84583105
0.83057406
0.81531874
0.80006495
0.7848126
0.76956158
0.75431179
0.73906315
0.72381556
0.70856896
0.69332327
0.67807841
0.66283433
0.64759097
0.63234827
0.61710618
0.60186466
0.58662365
0.57138312
0.55614304
0.54090335
0.52566404
0.51042506
0.4951864
0.47994802
0.46470991
0.44947203
0.43423437
0.4189969
0.40375962
0.38852249
0.37328552
0.35804868
0.34281196
0.32757534
0.31233883
0.2971024
0.28186605
0.26662976
0.25139354
0.23615737
0.22092124
0.20568516
0.19044911
0.17521309
0.1599771
0.14474113
0.12950518
0.11426924
0.099033319
0.083797406
0.068561503
0.053325606
0.038089715
0.022853828
0.0076179422
1.5263811
1.5096176
1.4934652
1.4775355
1.4616515
1.4458059
1.4300268
1.4143209
1.3986759
1.3830764
1.3675119
1.3519764
1.3364665
1.3209795
1.3055129
1.2900644
1.2746323
1.2592149
1.243811
1.2284194
1.2130393
1.1976696
1.1823095
1.1669584
1.1516156
1.1362804
1.1209524
1.105631
1.0903157
1.0750061
1.0597019
1.0444026
1.0291079
1.0138174
0.99853097
0.98324824
0.96796896
0.95269289
0.93741983
0.92214955
0.90688186
0.89161659
0.87635356
0.86109262
0.84583363
0.83057644
0.81532092
0.80006697
0.78481445
0.76956328
0.75431336
0.73906459
0.72381688
0.70857017
0.69332437
0.67807942
0.66283525
0.64759181
0.63234904
0.61710688
0.60186529
0.58662423
0.57138365
0.55614351
0.54090378
0.52566442
0.51042541
0.49518671
0.4799483
0.46471015
0.44947225
0.43423456
0.41899707
0.40375977
0.38852263
0.37328564
0.35804878
0.34281205
0.32757542
0.31233889
0.29710245
0.28186609
0.2666298
0.25139357
0.23615739
0.22092127
0.20568518
0.19044913
0.1752131
0.15997711
0.14474114
0.12950518
0.11426925
0.099033322
0.083797409
0.068561505
0.053325608
0.038089717
0.02285383
0.0076179436
1.5258361
1.5089346
1.4930833
1.4774798
1.4617521
1.4459207
1.4301067
1.414374
1.3987205
1.3831205
1.3675545
1.3520146
1.3364991
1.3210073
1.3055371
1.290086
1.2746516
1.2592324
1.2438267
1.2284337
1.2130522
1.1976814
1.1823204
1.1669684
1.1516247
1.1362888
1.1209602
1.1056381
1.0903223
1.0750122
1.0597075
1.0444078
1.0291127
1.0138219
0.9985351
0.98325205
0.96797249
0.95269616
0.93742285
0.92215235
0.90688445
0.89161898
0.87635578
0.86109467
0.84583552
0.83057818
0.81532254
0.80006845
0.78481583
0.76956455
0.75431452
0.73906566
0.72381787
0.70857107
0.6933252
0.67808018
0.66283595
0.64759245
0.63234962
0.61710742
0.60186578
0.58662467
0.57138405
0.55614388
0.54090411
0.52566472
0.51042568
0.49518696
0.47994852
0.46471035
0.44947243
0.43423472
0.41899722
0.4037599
0.38852274
0.37328574
0.35804887
0.34281212
0.32757549
0.31233895
0.29710251
0.28186614
0.26662984
0.2513936
0.23615742
0.22092129
0.2056852
0.19044914
0.17521312
0.15997712
0.14474115
0.12950519
0.11426925
0.099033327
0.083797413
0.068561509
0.053325611
0.03808972
0.022853833
0.0076179452
1.5253005
1.5082078
1.4926109
1.4773479
1.4618171
1.4460269
1.4301849
1.4144243
1.3987621
1.383164
1.3675993
1.3520564
1.3365355
1.3210383
1.305564
1.2901098
1.2746731
1.2592516
1.2438441
1.2284494
1.2130664
1.1976943
1.1823321
1.1669792
1.1516346
1.136298
1.1209685
1.1056459
1.0903295
1.0750188
1.0597136
1.0444134
1.0291179
1.0138268
0.99853962
0.98325625
0.96797638
0.95269978
0.9374262
0.92215546
0.90688734
0.89162166
0.87635826
0.86109698
0.84583766
0.83058017
0.81532437
0.80007015
0.7848174
0.76956601
0.75431587
0.7390669
0.72381902
0.70857214
0.69332618
0.67808109
0.66283679
0.64759322
0.63235033
0.61710807
0.60186638
0.58662522
0.57138455
0.55614434
0.54090453
0.52566511
0.51042603
0.49518728
0.47994882
0.46471062
0.44947267
0.43423494
0.41899742
0.40376008
0.3885229
0.37328588
0.358049
0.34281224
0.32757559
0.31233905
0.29710259
0.28186621
0.2666299
0.25139366
0.23615747
0.22092133
0.20568523
0.19044917
0.17521314
0.15997714
0.14474117
0.12950521
0.11426927
0.099033339
0.083797423
0.068561517
0.053325618
0.038089726
0.022853838
0.0076179484
1.5249807
1.5077569
1.4922986
1.4772451
1.4618475
1.4460922
1.4302356
1.4144567
1.3987887
1.3831924
1.3676294
1.3520853
1.3365611
1.3210605
1.3055835
1.2901273
1.2746889
1.259266
1.2438571
1.2284611
1.2130771
1.1977041
1.1823411
1.1669874
1.1516422
1.136305
1.120975
1.1056519
1.090335
1.075024
1.0597184
1.0444179
1.029122
1.0138306
0.99854316
0.98325954
0.96797944
0.95270261
0.93742884
0.92215791
0.90688962
0.89162378
0.87636023
0.8610988
0.84583935
0.83058174
0.81532583
0.80007151
0.78481866
0.76956717
0.75431695
0.7390679
0.72381995
0.70857299
0.69332698
0.67808182
0.66283746
0.64759385
0.63235091
0.6171086
0.60186687
0.58662567
0.57138497
0.55614472
0.54090488
0.52566543
0.51042633
0.49518755
0.47994906
0.46471085
0.44947287
0.43423513
0.41899759
0.40376023
0.38852304
0.37328601
0.35804911
0.34281234
0.32757569
0.31233913
0.29710266
0.28186628
0.26662996
0.25139371
0.23615752
0.22092137
0.20568527
0.1904492
0.17521317
0.15997717
0.14474118
0.12950522
0.11426928
0.09903335
0.083797433
0.068561525
0.053325625
0.038089732
0.022853842
0.0076179515
1.5249807
1.5077569
1.4922986
1.4772451
1.4618475
1.4460922
1.4302355
1.4144567
1.3987887
1.3831924
1.3676294
1.3520853
1.3365611
1.3210605
1.3055835
1.2901273
1.2746889
1.259266
1.2438571
1.2284611
1.2130771
1.1977041
1.1823411
1.1669874
1.1516422
1.136305
1.120975
1.1056519
1.090335
1.075024
1.0597184
1.0444179
1.029122
1.0138306
0.99854316
0.98325954
0.96797944
0.95270261
0.93742884
0.92215791
0.90688962
0.89162378
0.87636023
0.8610988
0.84583935
0.83058174
0.81532583
0.80007151
0.78481866
0.76956717
0.75431695
0.7390679
0.72381995
0.70857299
0.69332698
0.67808182
0.66283746
0.64759385
0.63235091
0.6171086
0.60186687
0.58662567
0.57138497
0.55614472
0.54090488
0.52566543
0.51042633
0.49518755
0.47994906
0.46471085
0.44947287
0.43423513
0.41899759
0.40376023
0.38852304
0.37328601
0.35804911
0.34281234
0.32757569
0.31233913
0.29710266
0.28186628
0.26662996
0.25139371
0.23615752
0.22092137
0.20568527
0.1904492
0.17521317
0.15997717
0.14474118
0.12950522
0.11426928
0.09903335
0.083797433
0.068561525
0.053325625
0.038089732
0.022853843
0.0076179519
1.5253005
1.5082078
1.492611
1.4773479
1.461817
1.4460268
1.4301849
1.4144242
1.3987621
1.383164
1.3675993
1.3520564
1.3365355
1.3210383
1.305564
1.2901098
1.2746731
1.2592517
1.2438441
1.2284494
1.2130664
1.1976943
1.1823321
1.1669792
1.1516346
1.136298
1.1209686
1.1056459
1.0903295
1.0750188
1.0597136
1.0444134
1.0291179
1.0138268
0.99853962
0.98325625
0.96797638
0.95269977
0.9374262
0.92215546
0.90688734
0.89162166
0.87635826
0.86109697
0.84583766
0.83058016
0.81532437
0.80007015
0.7848174
0.769566
0.75431587
0.7390669
0.72381902
0.70857214
0.69332618
0.67808109
0.66283679
0.64759322
0.63235033
0.61710807
0.60186638
0.58662522
0.57138455
0.55614434
0.54090453
0.52566511
0.51042603
0.49518728
0.47994882
0.46471062
0.44947267
0.43423494
0.41899742
0.40376008
0.3885229
0.37328588
0.358049
0.34281224
0.32757559
0.31233905
0.29710259
0.28186621
0.2666299
0.25139366
0.23615747
0.22092133
0.20568523
0.19044917
0.17521315
0.15997714
0.14474117
0.12950521
0.11426927
0.09903334
0.083797424
0.068561518
0.053325619
0.038089727
0.022853839
0.0076179492
1.5258361
1.5089346
1.4930833
1.4774798
1.4617521
1.4459207
1.4301066
1.414374
1.3987205
1.3831205
1.3675545
1.3520146
1.3364991
1.3210073
1.3055371
1.290086
1.2746517
1.2592324
1.2438268
1.2284337
1.2130522
1.1976814
1.1823204
1.1669684
1.1516247
1.1362889
1.1209602
1.1056381
1.0903223
1.0750122
1.0597075
1.0444078
1.0291127
1.0138219
0.9985351
0.98325205
0.96797249
0.95269616
0.93742285
0.92215234
0.90688445
0.89161898
0.87635577
0.86109467
0.84583552
0.83057818
0.81532253
0.80006845
0.78481582
0.76956455
0.75431452
0.73906565
0.72381787
0.70857107
0.6933252
0.67808018
0.66283595
0.64759245
0.63234962
0.61710741
0.60186578
0.58662467
0.57138405
0.55614387
0.54090411
0.52566472
0.51042568
0.49518696
0.47994852
0.46471035
0.44947243
0.43423472
0.41899722
0.4037599
0.38852274
0.37328574
0.35804887
0.34281212
0.32757549
0.31233895
0.29710251
0.28186614
0.26662984
0.2513936
0.23615742
0.22092129
0.2056852
0.19044914
0.17521312
0.15997712
0.14474115
0.12950519
0.11426925
0.099033328
0.083797414
0.068561509
0.053325612
0.038089721
0.022853834
0.007617946
1.5263811
1.5096176
1.4934652
1.4775355
1.4616515
1.4458058
1.4300268
1.4143209
1.3986759
1.3830764
1.3675119
1.3519764
1.3364665
1.3209795
1.3055129
1.2900645
1.2746323
1.2592149
1.243811
1.2284195
1.2130393
1.1976696
1.1823095
1.1669584
1.1516156
1.1362805
1.1209524
1.105631
1.0903157
1.0750061
1.0597019
1.0444026
1.0291079
1.0138174
0.99853097
0.98324824
0.96796896
0.95269289
0.93741982
0.92214954
0.90688186
0.89161658
0.87635356
0.86109262
0.84583362
0.83057643
0.81532092
0.80006696
0.78481445
0.76956328
0.75431336
0.73906458
0.72381688
0.70857017
0.69332437
0.67807942
0.66283525
0.64759181
0.63234904
0.61710688
0.60186529
0.58662423
0.57138365
0.55614351
0.54090378
0.52566442
0.51042541
0.49518671
0.4799483
0.46471015
0.44947225
0.43423456
0.41899707
0.40375977
0.38852263
0.37328564
0.35804878
0.34281205
0.32757542
0.31233889
0.29710245
0.28186609
0.2666298
0.25139357
0.2361574
0.22092127
0.20568518
0.19044913
0.17521311
0.15997711
0.14474114
0.12950518
0.11426925
0.099033323
0.08379741
0.068561506
0.053325609
0.038089717
0.022853831
0.007617944
1.5266871
1.5099584
1.4935837
1.4774663
1.4615195
1.4456873
1.4299365
1.4142487
1.3986124
1.3830188
1.3674605
1.3519317
1.3364278
1.3209457
1.3054828
1.2900374
1.2746079
1.2591927
1.2437908
1.228401
1.2130223
1.197654
1.1822952
1.1669452
1.1516034
1.1362692
1.120942
1.1056213
1.0903068
1.0749979
1.0596942
1.0443955
1.0291013
1.0138113
0.99852533
0.98324301
0.96796412
0.95268841
0.93741568
0.92214571
0.90687831
0.89161331
0.87635053
0.86108983
0.84583105
0.83057406
0.81531873
0.80006495
0.7848126
0.76956158
0.75431179
0.73906315
0.72381556
0.70856896
0.69332326
0.67807841
0.66283433
0.64759097
0.63234827
0.61710618
0.60186466
0.58662365
0.57138312
0.55614304
0.54090335
0.52566404
0.51042506
0.4951864
0.47994802
0.46470991
0.44947203
0.43423437
0.4189969
0.40375962
0.38852249
0.37328552
0.35804868
0.34281196
0.32757535
0.31233883
0.2971024
0.28186605
0.26662976
0.25139354
0.23615737
0.22092124
0.20568516
0.19044911
0.17521309
0.1599771
0.14474113
0.12950518
0.11426924
0.09903332
0.083797407
0.068561504
0.053325607
0.038089715
0.022853828
0.0076179425
)
;

boundaryField
{
    top
    {
        type            zeroGradient;
    }
    inlet
    {
        type            fixedValue;
        value           uniform 1.5352;
    }
    outlet
    {
        type            fixedValue;
        value           uniform 0;
    }
    bottom
    {
        type            zeroGradient;
    }
    back
    {
        type            empty;
    }
    front
    {
        type            empty;
    }
}


// ************************************************************************* //
