/*--------------------------------*- C++ -*----------------------------------*\
| =========                 |                                                 |
| \\      /  F ield         | OpenFOAM: The Open Source CFD Toolbox           |
|  \\    /   O peration     | Version:  2112                                  |
|   \\  /    A nd           | Website:  www.openfoam.com                      |
|    \\/     M anipulation  |                                                 |
\*---------------------------------------------------------------------------*/
FoamFile
{
    version     2.0;
    format      ascii;
    arch        "LSB;label=32;scalar=64";
    class       surfaceScalarField;
    location    "14";
    object      phi;
}
// * * * * * * * * * * * * * * * * * * * * * * * * * * * * * * * * * * * * * //

dimensions      [0 3 -1 0 0 0 0];

oriented        oriented;

internalField   nonuniform List<scalar> 
1890
(
0.0030988617
2.2418701e-06
0.0030912959
7.5667275e-06
0.0030819518
9.3442557e-06
0.0030734847
8.4666852e-06
0.0030667404
6.7436801e-06
0.0030614504
5.289497e-06
0.0030571219
4.3280003e-06
0.0030534254
3.6960661e-06
0.003050208
3.2169675e-06
0.0030473989
2.8088035e-06
0.0030449413
2.4573095e-06
0.0030427753
2.1656602e-06
0.0030408453
1.9298477e-06
0.0030391071
1.7379538e-06
0.0030375298
1.5771277e-06
0.0030360916
1.4381393e-06
0.0030347757
1.315739e-06
0.0030335686
1.2070272e-06
0.0030324585
1.1099922e-06
0.0030314355
1.0228918e-06
0.0030304913
9.4420381e-07
0.0030296185
8.7269326e-07
0.0030288111
8.0741429e-07
0.0030280634
7.4763168e-07
0.0030273706
6.9274901e-07
0.0030267283
6.4225488e-07
0.0030261326
5.9570816e-07
0.0030255799
5.5272296e-07
0.0030250669
5.1296779e-07
0.0030245907
4.7615107e-07
0.0030241487
4.4201974e-07
0.0030237383
4.1034663e-07
0.0030233574
3.8093245e-07
0.0030230038
3.5359584e-07
0.0030226756
3.2817703e-07
0.0030223711
3.0452892e-07
0.0030220886
2.8252148e-07
0.0030218266
2.6203351e-07
0.0030215836
2.429576e-07
0.0030213584
2.2519245e-07
0.0030211498
2.086482e-07
0.0030209566
1.9323925e-07
0.0030207777
1.7888964e-07
0.0030206122
1.6552629e-07
0.0030204591
1.5308443e-07
0.0030203176
1.4150114e-07
0.0030201869
1.3072083e-07
0.0030200662
1.2068896e-07
0.0030199549
1.1135749e-07
0.0030198522
1.0267892e-07
0.0030197576
9.4611592e-08
0.0030196705
8.7113938e-08
0.0030195904
8.0149681e-08
0.0030195167
7.3682382e-08
0.0030194491
6.7680416e-08
0.003019387
6.2111729e-08
0.00301933
5.6948705e-08
0.0030192779
5.2163145e-08
0.0030192302
4.7730944e-08
0.0030191865
4.3627234e-08
0.0030191467
3.9830962e-08
0.0030191104
3.6320232e-08
0.0030190774
3.3076688e-08
0.0030190473
3.0081015e-08
0.00301902
2.7317223e-08
0.0030189952
2.4768318e-08
0.0030189728
2.2420434e-08
0.0030189526
2.025862e-08
0.0030189343
1.8270884e-08
0.0030189179
1.6444137e-08
0.0030189031
1.476809e-08
0.0030188899
1.3231285e-08
0.0030188781
1.1824929e-08
0.0030188675
1.053904e-08
0.0030188582
9.3661499e-09
0.0030188499
8.2975215e-09
0.0030188426
7.3267985e-09
0.0030188361
6.4463102e-09
0.0030188305
5.6506261e-09
0.0030188256
4.9329088e-09
0.0030188213
4.2884384e-09
0.0030188176
3.7110498e-09
0.0030188144
3.1965823e-09
0.0030188116
2.7393671e-09
0.0030188093
2.3356549e-09
0.0030188073
1.9802052e-09
0.0030188057
1.6696218e-09
0.0030188043
1.3990298e-09
0.0030188031
1.1653325e-09
0.0030188022
9.640556e-10
0.0030188014
7.9241929e-10
0.0030188007
6.4634016e-10
0.0030188002
5.2335875e-10
0.0030187998
4.1966015e-10
0.0030187994
3.3299593e-10
0.0030187992
2.5968226e-10
0.003018799
1.9787315e-10
0.0030187988
1.4353177e-10
0.0030187988
9.1947551e-11
4.8894619e-11
0.0077069496
2.4056275e-06
0.0077040882
1.0429326e-05
0.0076987537
1.4679114e-05
0.0076924429
1.4777131e-05
0.0076862369
1.294917e-05
0.0076804471
1.1078792e-05
0.0076750466
9.7281145e-06
0.0076699877
8.7546001e-06
0.0076652766
7.9278216e-06
0.0076609371
7.1479528e-06
0.0076569717
6.4224821e-06
0.0076533561
5.7810091e-06
0.0076500543
5.2314874e-06
0.0076470309
4.7611414e-06
0.0076442563
4.3515369e-06
0.0076417059
3.9884625e-06
0.0076393581
3.6634535e-06
0.0076371936
3.3713814e-06
0.0076351953
3.1082049e-06
0.007633348
2.8701623e-06
0.0076316383
2.6538417e-06
0.0076300546
2.4563909e-06
0.0076285864
2.2755258e-06
0.0076272246
2.1094094e-06
0.0076259608
1.9565044e-06
0.0076247876
1.8154905e-06
0.007623698
1.6852148e-06
0.0076226861
1.5646762e-06
0.007621746
1.4529988e-06
0.0076208727
1.3494186e-06
0.0076200615
1.2532572e-06
0.0076193079
1.1639146e-06
0.007618608
1.0808503e-06
0.007617958
1.0035819e-06
0.0076173545
9.3167102e-07
0.0076167943
8.6472371e-07
0.0076162745
8.023786e-07
0.0076157922
7.4430921e-07
0.0076153449
6.9021359e-07
0.0076149303
6.398176e-07
0.0076145461
5.9286592e-07
0.0076141902
5.4912612e-07
0.0076138607
5.0838036e-07
0.0076135558
4.7042978e-07
0.0076132738
4.3508701e-07
0.0076130132
4.0218082e-07
0.0076127723
3.7154913e-07
0.00761255
3.430436e-07
0.0076123448
3.1652325e-07
0.0076121557
2.918591e-07
0.0076119814
2.6892814e-07
0.0076118209
2.476178e-07
0.0076116732
2.2782034e-07
0.0076115375
2.0943738e-07
0.0076114128
1.9237447e-07
0.0076112984
1.765454e-07
0.0076111935
1.6186717e-07
0.0076110974
1.482643e-07
0.0076110095
1.3566387e-07
0.0076109291
1.2399964e-07
0.0076108557
1.1320747e-07
0.0076107888
1.0322937e-07
0.0076107279
9.4008997e-08
0.0076106725
8.5495535e-08
0.0076106222
7.7639491e-08
0.0076105766
7.0396493e-08
0.0076105353
6.3723206e-08
0.0076104979
5.7580935e-08
0.0076104643
5.1931797e-08
0.007610434
4.6742262e-08
0.0076104068
4.197938e-08
0.0076103824
3.7614162e-08
0.0076103606
3.3618005e-08
0.0076103412
2.9965998e-08
0.0076103239
2.6633392e-08
0.0076103087
2.3598737e-08
0.0076102951
2.0840523e-08
0.0076102833
1.8340258e-08
0.0076102728
1.607914e-08
0.0076102637
1.4041001e-08
0.0076102558
1.2209142e-08
0.007610249
1.0569266e-08
0.0076102431
9.106335e-09
0.007610238
7.8074416e-09
0.0076102337
6.6587934e-09
0.00761023
5.6486672e-09
0.0076102269
4.7643366e-09
0.0076102243
3.9950696e-09
0.0076102222
3.3290982e-09
0.0076102204
2.7567009e-09
0.0076102189
2.2672227e-09
0.0076102177
1.8517387e-09
0.0076102167
1.501086e-09
0.0076102159
1.2062203e-09
0.0076102153
9.6120924e-10
0.0076102148
7.5396093e-10
0.0076102144
5.875817e-10
0.0076102141
4.3658567e-10
0.0076102139
3.3389931e-10
2.0754823e-10
0.010925845
1.7275146e-06
0.01092765
8.6254599e-06
0.010929224
1.3105458e-05
0.010929989
1.4011762e-05
0.010930125
1.2812388e-05
0.010929852
1.1351061e-05
0.010929271
1.0309318e-05
0.010928439
9.5860056e-06
0.010927424
8.9427083e-06
0.010926296
8.2754074e-06
0.010925112
7.6061381e-06
0.01092391
6.98342e-06
0.010922712
6.4292685e-06
0.010921534
5.9385572e-06
0.010920389
5.4969741e-06
0.010919284
5.093513e-06
0.010918224
4.7226694e-06
0.010917214
4.3817477e-06
0.010916254
4.0684332e-06
0.010915344
3.7800812e-06
0.010914483
3.5140133e-06
0.010913672
3.2678828e-06
0.010912908
3.0397752e-06
0.010912189
2.8281068e-06
0.010911514
2.6315081e-06
0.010910881
2.4487489e-06
0.010910287
2.2787205e-06
0.010909731
2.1204234e-06
0.010909211
1.9729639e-06
0.010908725
1.8355355e-06
0.010908271
1.7074097e-06
0.010907847
1.5879209e-06
0.010907451
1.4764623e-06
0.010907082
1.3724756e-06
0.010906739
1.27545e-06
0.010906418
1.1849127e-06
0.01090612
1.1004298e-06
0.010905843
1.0215975e-06
0.010905585
9.4804375e-07
0.010905346
8.794211e-07
0.010905123
8.1540881e-07
0.010904917
7.5570603e-07
0.010904725
7.000347e-07
0.010904547
6.4813316e-07
0.010904383
5.9975935e-07
0.01090423
5.546849e-07
0.010904089
5.1269836e-07
0.010903958
4.7359976e-07
0.010903838
4.3720399e-07
0.010903726
4.0333562e-07
0.010903623
3.7183224e-07
0.010903528
3.4253966e-07
0.010903441
3.1531525e-07
0.01090336
2.9002341e-07
0.010903286
2.6653876e-07
0.010903218
2.4474191e-07
0.010903155
2.2452265e-07
0.010903098
2.0577591e-07
0.010903045
1.8840477e-07
0.010902997
1.723167e-07
0.010902953
1.5742657e-07
0.010902912
1.4365298e-07
0.010902875
1.3092117e-07
0.010902842
1.1915954e-07
0.010902811
1.0830258e-07
0.010902783
9.828747e-08
0.010902758
8.9056859e-08
0.010902735
8.0555743e-08
0.010902714
7.2734132e-08
0.010902695
6.5544046e-08
0.010902678
5.8942055e-08
0.010902663
5.2886437e-08
0.010902649
4.7339654e-08
0.010902637
4.2265567e-08
0.010902626
3.763179e-08
0.010902616
3.3407027e-08
0.010902607
2.9563356e-08
0.0109026
2.6073614e-08
0.010902593
2.2913564e-08
0.010902587
2.0059408e-08
0.010902582
1.7489896e-08
0.010902577
1.5183925e-08
0.010902573
1.3122537e-08
0.01090257
1.1286712e-08
0.010902567
9.659297e-09
0.010902564
8.2229442e-09
0.010902562
6.9619569e-09
0.01090256
5.8603473e-09
0.010902558
4.9038603e-09
0.010902557
4.0776009e-09
0.010902556
3.3691497e-09
0.010902555
2.7638827e-09
0.010902554
2.2526376e-09
0.010902554
1.8184789e-09
0.010902553
1.4606192e-09
0.010902553
1.1518807e-09
0.010902552
9.1361102e-10
0.010902552
6.8609581e-10
0.010902552
5.5240083e-10
3.6474066e-10
0.012951026
8.7293192e-07
0.012954961
4.6908265e-06
0.012960645
7.4209992e-06
0.012966463
8.1934919e-06
0.012971629
7.6457578e-06
0.012976118
6.8614782e-06
0.012980109
6.3185856e-06
0.012983725
5.9692128e-06
0.012987008
5.6591784e-06
0.012989969
5.3144205e-06
0.012992626
4.9491504e-06
0.012995011
4.5985416e-06
0.012997159
4.280584e-06
0.012999103
3.9943566e-06
0.013000868
3.7319935e-06
0.013002474
3.4875215e-06
0.013003938
3.2585555e-06
0.013005275
3.0444623e-06
0.013006499
2.844664e-06
0.013007621
2.6581797e-06
0.013008651
2.4838538e-06
0.013009598
2.3206529e-06
0.01301047
2.1677404e-06
0.013011274
2.0244359e-06
0.013012015
1.8901316e-06
0.013012699
1.7642658e-06
0.013013332
1.6463035e-06
0.013013916
1.5357545e-06
0.013014457
1.4321579e-06
0.013014958
1.3350941e-06
0.013015421
1.244164e-06
0.01301585
1.1590013e-06
0.013016247
1.0792538e-06
0.013016615
1.0045986e-06
0.013016956
9.347241e-07
0.013017271
8.6934532e-07
0.013017563
8.0818604e-07
0.013017834
7.5099422e-07
0.013018085
6.9752462e-07
0.013018316
6.4755422e-07
0.013018531
6.008652e-07
0.013018729
5.5726014e-07
0.013018913
5.1654552e-07
0.013019082
4.7854673e-07
0.013019239
4.4309191e-07
0.013019384
4.1002656e-07
0.013019517
3.7919804e-07
0.01301964
3.5046983e-07
0.013019754
3.2370644e-07
0.013019859
2.9878722e-07
0.013019955
2.7559191e-07
0.013020043
2.5401404e-07
0.013020125
2.3394699e-07
0.013020199
2.152968e-07
0.013020268
1.9796892e-07
0.013020331
1.8188066e-07
0.013020388
1.6694826e-07
0.013020441
1.5309901e-07
0.013020489
1.4025866e-07
0.013020533
1.2836327e-07
0.013020573
1.173473e-07
0.01302061
1.0715461e-07
0.013020643
9.772724e-08
0.013020673
8.9016057e-08
0.013020701
8.0969911e-08
0.013020725
7.3545833e-08
0.013020748
6.6698724e-08
0.013020768
6.0391196e-08
0.013020786
5.4583607e-08
0.013020802
4.9243501e-08
0.013020817
4.4336099e-08
0.01302083
3.9833429e-08
0.013020842
3.5705098e-08
0.013020852
3.1927057e-08
0.013020861
2.8472766e-08
0.013020869
2.5321675e-08
0.013020876
2.2450622e-08
0.013020883
1.9841982e-08
0.013020888
1.7475423e-08
0.013020893
1.53358e-08
0.013020897
1.3405119e-08
0.0130209
1.1670164e-08
0.013020903
1.0114777e-08
0.013020906
8.7272999e-09
0.013020908
7.4930495e-09
0.01302091
6.4015243e-09
0.013020911
5.4392521e-09
0.013020913
4.5966643e-09
0.013020914
3.8615229e-09
0.013020915
3.2247701e-09
0.013020915
2.6758558e-09
0.013020916
2.2052549e-09
0.013020916
1.8057435e-09
0.013020917
1.4647483e-09
0.013020917
1.1832903e-09
0.013020917
9.3809583e-10
0.013020917
7.5122238e-10
0.013020917
5.6738392e-10
0.013020918
4.6429302e-10
3.1213272e-10
0.013926022
3.1263467e-11
0.013930714
9.7514514e-11
0.013938135
4.4746119e-11
0.013946328
1.2054165e-11
0.013953972
4.4756996e-11
0.013960833
1.3616532e-10
0.013967151
2.1523372e-10
0.01397312
2.5261807e-10
0.013978779
2.5909226e-10
0.013984093
2.5888206e-10
0.013989041
2.5939306e-10
0.013993639
2.5649535e-10
0.01399792
2.4635293e-10
0.014001914
2.287151e-10
0.014005645
2.0690743e-10
0.014009132
1.8206099e-10
0.014012391
1.5657326e-10
0.014015435
1.2934915e-10
0.01401828
1.0269043e-10
0.014020938
7.5368253e-11
0.014023421
4.9931423e-11
0.014025742
2.4926312e-11
0.01402791
3.6264382e-12
0.014029934
-1.9688321e-11
0.014031824
-3.8149166e-11
0.014033588
-5.6040038e-11
0.014035235
-7.0595533e-11
0.014036771
-8.4377884e-11
0.014038203
-9.4725174e-11
0.014039538
-1.0460747e-10
0.014040782
-1.1125032e-10
0.014041941
-1.1757514e-10
0.014043021
-1.2084206e-10
0.014044025
-1.241809e-10
0.01404496
-1.2478227e-10
0.01404583
-1.25605e-10
0.014046638
-1.2390791e-10
0.014047389
-1.2274126e-10
0.014048087
-1.1934281e-10
0.014048735
-1.1651077e-10
0.014049336
-1.1159172e-10
0.014049893
-1.0743322e-10
0.01405041
-1.0140313e-10
0.014050888
-9.6107319e-11
0.014051331
-8.9055567e-11
0.014051742
-8.2902885e-11
0.014052121
-7.5220635e-11
0.014052471
-6.8444858e-11
0.014052795
-6.0310865e-11
0.014053094
-5.3291818e-11
0.01405337
-4.5198877e-11
0.014053624
-3.827812e-11
0.014053858
-3.0495914e-11
0.014054073
-2.4082022e-11
0.014054271
-1.7088188e-11
0.014054453
-1.1448609e-11
0.01405462
-5.5022217e-12
0.014054773
-7.9476727e-13
0.014054913
4.2149049e-12
0.014055042
7.7551612e-12
0.014055159
1.1708461e-11
0.014055266
1.4228515e-11
0.014055364
1.7198621e-11
0.014055453
1.8920597e-11
0.014055534
2.1212204e-11
0.014055607
2.2329997e-11
0.014055674
2.4069822e-11
0.014055734
2.4828841e-11
0.014055789
2.6302094e-11
0.014055838
2.6837007e-11
0.014055882
2.8087374e-11
0.014055922
2.85214e-11
0.014055958
2.9688202e-11
0.01405599
3.0004171e-11
0.014056018
3.0983609e-11
0.014056044
3.1156749e-11
0.014056066
3.1949601e-11
0.014056086
3.1850642e-11
0.014056103
3.2269721e-11
0.014056119
3.1816653e-11
0.014056132
3.1833146e-11
0.014056144
3.0904715e-11
0.014056154
3.0376395e-11
0.014056162
2.8956608e-11
0.01405617
2.7946004e-11
0.014056176
2.6025304e-11
0.014056182
2.4522593e-11
0.014056186
2.2208051e-11
0.01405619
2.0398597e-11
0.014056193
1.7784559e-11
0.014056196
1.5707415e-11
0.014056198
1.279685e-11
0.0140562
1.0577878e-11
0.014056201
7.5672783e-12
0.014056203
5.5748262e-12
0.014056204
3.188555e-12
0.014056204
1.3275075e-12
0.014056205
-5.9186175e-13
0.014056205
-5.5450814e-12
-8.4753221e-12
0.013926021
-8.7301029e-07
0.013930713
-4.6912319e-06
0.013938134
-7.4213545e-06
0.013946327
-8.193601e-06
0.013953972
-7.645646e-06
0.013960833
-6.8612631e-06
0.013967151
-6.3182938e-06
0.01397312
-5.9688592e-06
0.013978779
-5.6587778e-06
0.013984093
-5.3139873e-06
0.013989041
-4.9487024e-06
0.013993639
-4.5980949e-06
0.01399792
-4.2801531e-06
0.014001914
-3.9939527e-06
0.014005645
-3.7316245e-06
0.014009133
-3.4871939e-06
0.014012391
-3.2582731e-06
0.014015435
-3.0442284e-06
0.01401828
-2.844479e-06
0.014020938
-2.6580439e-06
0.014023422
-2.4837647e-06
0.014025742
-2.3206091e-06
0.01402791
-2.1677379e-06
0.014029934
-2.0244738e-06
0.014031824
-1.8902044e-06
0.014033589
-1.7643708e-06
0.014035235
-1.6464356e-06
0.014036771
-1.5359111e-06
0.014038203
-1.432334e-06
0.014039538
-1.3352874e-06
0.014040782
-1.2443699e-06
0.014041941
-1.1592177e-06
0.014043021
-1.0794766e-06
0.014044026
-1.0048264e-06
0.01404496
-9.3495324e-07
0.01404583
-8.6957482e-07
0.014046638
-8.0841275e-07
0.014047389
-7.512177e-07
0.014048087
-6.9774207e-07
0.014048734
-6.4776543e-07
0.014049335
-6.0106774e-07
0.014049893
-5.5745411e-07
0.014050409
-5.1672872e-07
0.014050888
-4.7871936e-07
0.014051331
-4.4325204e-07
0.014051741
-4.1017467e-07
0.014052121
-3.7933245e-07
0.014052471
-3.5059115e-07
0.014052795
-3.2381338e-07
0.014053094
-2.9888075e-07
0.014053369
-2.7567108e-07
0.014053623
-2.5408008e-07
0.014053857
-2.3399937e-07
0.014054073
-2.1533711e-07
0.014054271
-1.9799698e-07
0.014054453
-1.818982e-07
0.01405462
-1.6695537e-07
0.014054773
-1.5309744e-07
0.014054913
-1.402486e-07
0.014055041
-1.2834657e-07
0.014055159
-1.1732411e-07
0.014055266
-1.0712667e-07
0.014055363
-9.769453e-08
0.014055453
-8.8980031e-08
0.014055533
-8.0930394e-08
0.014055607
-7.3504099e-08
0.014055674
-6.6654385e-08
0.014055734
-6.0345249e-08
0.014055789
-5.453555e-08
0.014055838
-4.9194222e-08
0.014055882
-4.4284994e-08
0.014055922
-3.9781246e-08
0.014055958
-3.5651258e-08
0.01405599
-3.1872348e-08
0.014056018
-2.841665e-08
0.014056043
-2.5264939e-08
0.014056066
-2.2392865e-08
0.014056086
-1.9784126e-08
0.014056103
-1.741717e-08
0.014056118
-1.5278111e-08
0.014056132
-1.3347834e-08
0.014056143
-1.1614348e-08
0.014056154
-1.0060313e-08
0.014056162
-8.6752146e-09
0.01405617
-7.4432548e-09
0.014056176
-6.355037e-09
0.014056181
-5.3958964e-09
0.014056186
-4.5573127e-09
0.01405619
-3.8259014e-09
0.014056193
-3.1936812e-09
0.014056196
-2.6489144e-09
0.014056198
-2.1832314e-09
0.0140562
-1.7881387e-09
0.014056201
-1.4522047e-09
0.014056202
-1.1744993e-09
0.014056203
-9.3343353e-10
0.014056204
-7.4950677e-10
0.014056205
-5.6868851e-10
0.014056205
-4.7265736e-10
-3.2491136e-10
0.012951026
-1.7274922e-06
0.012954961
-8.6253455e-06
0.012960645
-1.31054e-05
0.012966463
-1.4011792e-05
0.012971629
-1.2812406e-05
0.012976118
-1.1351018e-05
0.012980108
-1.0309194e-05
0.012983725
-9.5858173e-06
0.012987008
-8.9424694e-06
0.012989969
-8.2751337e-06
0.012992626
-7.6058396e-06
0.012995011
-6.9831091e-06
0.012997159
-6.4289575e-06
0.012999104
-5.9382571e-06
0.013000868
-5.4966957e-06
0.013002474
-5.0932622e-06
0.013003938
-4.7224531e-06
0.013005276
-4.3815663e-06
0.013006499
-4.0682909e-06
0.013007621
-3.7799751e-06
0.013008651
-3.5139458e-06
0.013009599
-3.2678487e-06
0.013010471
-3.0397758e-06
0.013011274
-2.8281359e-06
0.013012015
-2.6315669e-06
0.0130127
-2.4488301e-06
0.013013332
-2.2788248e-06
0.013013917
-2.1205436e-06
0.013014458
-1.9731014e-06
0.013014958
-1.8356828e-06
0.013015421
-1.7075686e-06
0.01301585
-1.5880844e-06
0.013016247
-1.4766326e-06
0.013016615
-1.3726462e-06
0.013016956
-1.2756233e-06
0.013017271
-1.1850827e-06
0.013017563
-1.1005995e-06
0.013017834
-1.0217612e-06
0.013018084
-9.4820457e-07
0.013018316
-8.7957392e-07
0.013018531
-8.1555691e-07
0.013018729
-7.5584459e-07
0.013018913
-7.0016695e-07
0.013019082
-6.4825462e-07
0.013019239
-5.9987342e-07
0.013019383
-5.5478731e-07
0.013019517
-5.1279245e-07
0.01301964
-4.7368166e-07
0.013019753
-4.3727724e-07
0.013019858
-4.0339666e-07
0.013019954
-3.7188463e-07
0.013020043
-3.4258029e-07
0.013020124
-3.1534795e-07
0.013020199
-2.9004538e-07
0.013020267
-2.665538e-07
0.01302033
-2.4474758e-07
0.013020388
-2.2452287e-07
0.01302044
-2.0576838e-07
0.013020489
-1.8839322e-07
0.013020532
-1.7229902e-07
0.013020573
-1.5740639e-07
0.013020609
-1.4362814e-07
0.013020642
-1.3089496e-07
0.013020672
-1.1912978e-07
0.0130207
-1.0827235e-07
0.013020725
-9.8254469e-08
0.013020747
-8.9023832e-08
0.013020767
-8.0520363e-08
0.013020785
-7.2698997e-08
0.013020802
-6.5506778e-08
0.013020816
-5.8905028e-08
0.013020829
-5.2847358e-08
0.013020841
-4.730088e-08
0.013020851
-4.2224875e-08
0.013020861
-3.7591447e-08
0.013020869
-3.3364989e-08
0.013020876
-2.9521972e-08
0.013020882
-2.603097e-08
0.013020887
-2.2871974e-08
0.013020892
-2.0017142e-08
0.013020896
-1.7449343e-08
0.0130209
-1.5143439e-08
0.013020903
-1.3084427e-08
0.013020905
-1.124942e-08
0.013020908
-9.6251232e-09
0.01302091
-8.1902968e-09
0.013020911
-6.9329764e-09
0.013020912
-5.8334024e-09
0.013020913
-4.8810307e-09
0.013020914
-4.0571435e-09
0.013020915
-3.3529933e-09
0.013020916
-2.7501133e-09
0.013020916
-2.2432784e-09
0.013020916
-1.8113289e-09
0.013020917
-1.4574735e-09
0.013020917
-1.1504584e-09
0.013020917
-9.141605e-10
0.013020917
-6.8721039e-10
0.013020917
-5.5360502e-10
-3.6812157e-10
0.010925845
-2.4055907e-06
0.01092765
-1.0429133e-05
0.010929224
-1.4678904e-05
0.010929989
-1.4777084e-05
0.010930125
-1.2949312e-05
0.010929852
-1.107901e-05
0.010929271
-9.7282946e-06
0.010928439
-8.7546928e-06
0.010927424
-7.9278284e-06
0.010926297
-7.1478956e-06
0.010925113
-6.4223807e-06
0.01092391
-5.7808759e-06
0.010922712
-5.2313337e-06
0.010921535
-4.7609785e-06
0.010920389
-4.3513769e-06
0.010919284
-3.9883139e-06
0.010918225
-3.663323e-06
0.010917215
-3.3712713e-06
0.010916254
-3.1081177e-06
0.010915344
-2.8700974e-06
0.010914484
-2.6538001e-06
0.010913673
-2.4563702e-06
0.010912908
-2.2755257e-06
0.01091219
-2.1094271e-06
0.010911514
-1.9565392e-06
0.010910881
-1.8155388e-06
0.010910288
-1.6852758e-06
0.010909732
-1.5647467e-06
0.010909212
-1.4530782e-06
0.010908726
-1.3495035e-06
0.010908271
-1.2533474e-06
0.010907847
-1.1640072e-06
0.010907451
-1.0809453e-06
0.010907083
-1.0036767e-06
0.010906739
-9.3176581e-07
0.010906418
-8.6481633e-07
0.01090612
-8.0246961e-07
0.010905843
-7.4439654e-07
0.010905585
-6.9029797e-07
0.010905345
-6.3989738e-07
0.010905123
-5.9294201e-07
0.010904916
-5.4919682e-07
0.010904724
-5.0844662e-07
0.010904547
-4.7049023e-07
0.010904382
-4.3514266e-07
0.010904229
-4.0223023e-07
0.010904088
-3.7159334e-07
0.010903958
-3.4308149e-07
0.010903837
-3.1655593e-07
0.010903725
-2.9188547e-07
0.010903622
-2.689494e-07
0.010903528
-2.476332e-07
0.01090344
-2.278312e-07
0.010903359
-2.0944296e-07
0.010903285
-1.9237616e-07
0.010903217
-1.7654274e-07
0.010903154
-1.6186159e-07
0.010903097
-1.4825526e-07
0.010903044
-1.3565273e-07
0.010902996
-1.2398602e-07
0.010902952
-1.1319266e-07
0.010902911
-1.0321282e-07
0.010902874
-9.3991834e-08
0.010902841
-8.547724e-08
0.01090281
-7.7621057e-08
0.010902782
-7.0377199e-08
0.010902757
-6.3703898e-08
0.010902734
-5.7560948e-08
0.010902713
-5.1911885e-08
0.010902694
-4.6721623e-08
0.010902677
-4.1958707e-08
0.010902662
-3.7592781e-08
0.010902649
-3.3596602e-08
0.010902636
-2.9943854e-08
0.010902625
-2.6611211e-08
0.010902616
-2.3575981e-08
0.010902607
-2.0817946e-08
0.010902599
-1.8317311e-08
0.010902592
-1.6056613e-08
0.010902586
-1.4018519e-08
0.010902581
-1.2187523e-08
0.010902576
-1.0548089e-08
0.010902573
-9.0864046e-09
0.010902569
-7.7884408e-09
0.010902566
-6.6414944e-09
0.010902564
-5.6326369e-09
0.010902561
-4.7502791e-09
0.010902559
-3.9825828e-09
0.010902558
-3.3188225e-09
0.010902557
-2.7480655e-09
0.010902556
-2.2607739e-09
0.010902555
-1.846781e-09
0.010902554
-1.4981119e-09
0.010902553
-1.2043229e-09
0.010902553
-9.6130625e-10
0.010902552
-7.5514825e-10
0.010902552
-5.8913438e-10
0.010902552
-4.3722179e-10
0.010902552
-3.2880274e-10
-2.0245374e-10
0.0077069498
-2.2417602e-06
0.0077040884
-7.5665888e-06
0.007698754
-9.3441949e-06
0.0076924434
-8.4667744e-06
0.0076862373
-6.7439535e-06
0.0076804475
-5.2898742e-06
0.0076750469
-4.3283683e-06
0.007669988
-3.6963474e-06
0.0076652768
-3.2171522e-06
0.0076609373
-2.8089142e-06
0.0076569719
-2.4573726e-06
0.0076533564
-2.1656912e-06
0.0076500546
-1.9298545e-06
0.0076470313
-1.7379447e-06
0.0076442568
-1.5771089e-06
0.0076417064
-1.438119e-06
0.0076393586
-1.3157196e-06
0.0076371942
-1.2070131e-06
0.007635196
-1.1099821e-06
0.0076333486
-1.0228886e-06
0.0076316389
-9.4420474e-07
0.0076300552
-8.7270098e-07
0.007628587
-8.0742535e-07
0.0076272252
-7.4764861e-07
0.0076259614
-6.9276796e-07
0.0076247881
-6.4227841e-07
0.0076236985
-5.9573234e-07
0.0076226865
-5.527505e-07
0.0076217464
-5.1299475e-07
0.007620873
-4.7618029e-07
0.0076200617
-4.4204742e-07
0.0076193081
-4.1037574e-07
0.0076186081
-3.809592e-07
0.007617958
-3.536233e-07
0.0076173545
-3.2820167e-07
0.0076167942
-3.0455388e-07
0.0076162743
-2.8254327e-07
0.0076157919
-2.6205534e-07
0.0076153446
-2.4297619e-07
0.00761493
-2.2521098e-07
0.0076145457
-2.0866344e-07
0.0076141898
-1.9325433e-07
0.0076138602
-1.789015e-07
0.0076135553
-1.6553795e-07
0.0076132733
-1.5309285e-07
0.0076130126
-1.4150928e-07
0.0076127717
-1.3072581e-07
0.0076125493
-1.2069364e-07
0.0076123442
-1.1135905e-07
0.007612155
-1.0268019e-07
0.0076119807
-9.460994e-08
0.0076118202
-8.7112126e-08
0.0076116725
-8.0145176e-08
0.0076115368
-7.3677904e-08
0.0076114121
-6.767362e-08
0.0076112977
-6.210526e-08
0.0076111927
-5.6940262e-08
0.0076110967
-5.21553e-08
0.0076110088
-4.7721524e-08
0.0076109284
-4.3618701e-08
0.007610855
-3.982114e-08
0.0076107882
-3.6311468e-08
0.0076107273
-3.3066884e-08
0.0076106719
-3.0072382e-08
0.0076106216
-2.7307633e-08
0.007610576
-2.4759887e-08
0.0076105347
-2.2411106e-08
0.0076104974
-2.0250404e-08
0.0076104637
-1.8261718e-08
0.0076104335
-1.6435977e-08
0.0076104063
-1.475897e-08
0.0076103819
-1.3223107e-08
0.0076103602
-1.1815746e-08
0.0076103408
-1.0530746e-08
0.0076103235
-9.3569115e-09
0.0076103082
-8.2892086e-09
0.0076102947
-7.3176011e-09
0.0076102829
-6.4381089e-09
0.0076102725
-5.6417093e-09
0.0076102634
-4.9251321e-09
0.0076102555
-4.2800889e-09
0.0076102487
-3.7039827e-09
0.0076102428
-3.1891442e-09
0.0076102377
-2.7333691e-09
0.0076102334
-2.3294041e-09
0.0076102298
-1.9754991e-09
0.0076102267
-1.6647885e-09
0.0076102241
-1.395814e-09
0.0076102219
-1.16201e-09
0.0076102202
-9.6233627e-10
0.0076102187
-7.9051357e-10
0.0076102175
-6.4581985e-10
0.0076102165
-5.2222226e-10
0.0076102157
-4.1975568e-10
0.0076102151
-3.3284504e-10
0.0076102146
-2.6017796e-10
0.0076102142
-1.9851232e-10
0.007610214
-1.4348926e-10
0.0076102137
-8.7466478e-11
-4.3308101e-11
0.0030988625
0.0030912963
0.0030819521
0.003073485
0.0030667407
0.0030614504
0.0030571218
0.0030534251
0.0030502077
0.0030473986
0.003044941
0.0030427751
0.0030408451
0.003039107
0.0030375298
0.0030360916
0.0030347758
0.0030335687
0.0030324587
0.0030314357
0.0030304915
0.0030296187
0.0030288113
0.0030280636
0.0030273708
0.0030267285
0.0030261328
0.00302558
0.003025067
0.0030245908
0.0030241488
0.0030237384
0.0030233574
0.0030230038
0.0030226756
0.0030223711
0.0030220885
0.0030218265
0.0030215835
0.0030213583
0.0030211496
0.0030209564
0.0030207775
0.003020612
0.0030204589
0.0030203174
0.0030201867
0.003020066
0.0030199546
0.003019852
0.0030197574
0.0030196703
0.0030195901
0.0030195165
0.0030194488
0.0030193867
0.0030193298
0.0030192776
0.0030192299
0.0030191863
0.0030191465
0.0030191102
0.0030190771
0.0030190471
0.0030190198
0.003018995
0.0030189726
0.0030189524
0.0030189341
0.0030189177
0.0030189029
0.0030188897
0.0030188779
0.0030188674
0.003018858
0.0030188498
0.0030188424
0.003018836
0.0030188304
0.0030188255
0.0030188212
0.0030188175
0.0030188143
0.0030188116
0.0030188092
0.0030188073
0.0030188056
0.0030188042
0.0030188031
0.0030188021
0.0030188013
0.0030188007
0.0030188001
0.0030187997
0.0030187994
0.0030187991
0.0030187989
0.0030187988
0.0030187987
)
;

boundaryField
{
    top
    {
        type            calculated;
        value           uniform 0;
    }
    inlet
    {
        type            calculated;
        value           nonuniform List<scalar> 10(-0.0031011023 -0.0077071125 -0.010925166 -0.01295017 -0.013925149 -0.013925147 -0.01295017 -0.010925166 -0.0077071126 -0.0031011036);
    }
    outlet
    {
        type            calculated;
        value           nonuniform List<scalar> 10(0.0030187987 0.0076102137 0.010902552 0.013020918 0.014056206 0.014056205 0.013020917 0.010902551 0.0076102136 0.0030187987);
    }
    bottom
    {
        type            calculated;
        value           uniform 0;
    }
    back
    {
        type            empty;
        value           nonuniform List<scalar> 0();
    }
    front
    {
        type            empty;
        value           nonuniform List<scalar> 0();
    }
}


// ************************************************************************* //
