/*--------------------------------*- C++ -*----------------------------------*\
| =========                 |                                                 |
| \\      /  F ield         | OpenFOAM: The Open Source CFD Toolbox           |
|  \\    /   O peration     | Version:  2112                                  |
|   \\  /    A nd           | Website:  www.openfoam.com                      |
|    \\/     M anipulation  |                                                 |
\*---------------------------------------------------------------------------*/
FoamFile
{
    version     2.0;
    format      ascii;
    arch        "LSB;label=32;scalar=64";
    class       volVectorField;
    location    "14";
    object      U;
}
// * * * * * * * * * * * * * * * * * * * * * * * * * * * * * * * * * * * * * //

dimensions      [0 1 -1 0 0 0 0];

internalField   nonuniform List<vector> 
1000
(
(0.31005634 0.00019229983 0)
(0.30964389 0.00057046109 0)
(0.30871431 0.00063658816 0)
(0.30776451 0.0004953381 0)
(0.30698958 0.00032870922 0)
(0.30639191 0.00021960749 0)
(0.30591693 0.00016440227 0)
(0.30551911 0.00013531682 0)
(0.30517484 0.00011438095 0)
(0.30487423 9.6466059e-05 0)
(0.30461159 8.1881121e-05 0)
(0.30438119 7.1048605e-05 0)
(0.30417713 6.3263375e-05 0)
(0.30399433 5.7374698e-05 0)
(0.30382901 5.2500091e-05 0)
(0.30367858 4.8204148e-05 0)
(0.30354115 4.4342058e-05 0)
(0.30341523 4.0867928e-05 0)
(0.30329957 3.7739428e-05 0)
(0.30319309 3.490423e-05 0)
(0.30309488 3.2314668e-05 0)
(0.30300416 2.9936326e-05 0)
(0.30292026 2.7746516e-05 0)
(0.3028426 2.5728283e-05 0)
(0.30277067 2.3866807e-05 0)
(0.302704 2.2147908e-05 0)
(0.30264217 2.0558645e-05 0)
(0.30258481 1.9087305e-05 0)
(0.30253159 1.7723762e-05 0)
(0.30248218 1.6458893e-05 0)
(0.30243633 1.5284705e-05 0)
(0.30239375 1.4193825e-05 0)
(0.30235423 1.3179771e-05 0)
(0.30231754 1.2236526e-05 0)
(0.30228349 1.1358827e-05 0)
(0.30225189 1.0541728e-05 0)
(0.30222257 9.7809098e-06 0)
(0.30219537 9.0722593e-06 0)
(0.30217015 8.412185e-06 0)
(0.30214677 7.7972211e-06 0)
(0.3021251 7.2243505e-06 0)
(0.30210503 6.6906283e-06 0)
(0.30208644 6.1934976e-06 0)
(0.30206924 5.7304286e-06 0)
(0.30205333 5.2992359e-06 0)
(0.30203862 4.8977338e-06 0)
(0.30202502 4.5240428e-06 0)
(0.30201247 4.1762583e-06 0)
(0.30200088 3.8527542e-06 0)
(0.30199019 3.5518662e-06 0)
(0.30198034 3.2721829e-06 0)
(0.30197127 3.0122408e-06 0)
(0.30196292 2.7708109e-06 0)
(0.30195524 2.5466068e-06 0)
(0.30194818 2.3385573e-06 0)
(0.3019417 2.1455264e-06 0)
(0.30193575 1.96658e-06 0)
(0.30193031 1.8007174e-06 0)
(0.30192532 1.6471247e-06 0)
(0.30192076 1.5049166e-06 0)
(0.30191659 1.373384e-06 0)
(0.30191279 1.251747e-06 0)
(0.30190933 1.1393895e-06 0)
(0.30190618 1.0356214e-06 0)
(0.30190331 9.3990826e-07 0)
(0.30190071 8.5164279e-07 0)
(0.30189836 7.7036366e-07 0)
(0.30189623 6.9553495e-07 0)
(0.30189431 6.2675962e-07 0)
(0.30189257 5.6356835e-07 0)
(0.30189102 5.0562239e-07 0)
(0.30188962 4.5250906e-07 0)
(0.30188837 4.0394022e-07 0)
(0.30188726 3.5955556e-07 0)
(0.30188626 3.1911156e-07 0)
(0.30188538 2.8229044e-07 0)
(0.30188461 2.4888525e-07 0)
(0.30188392 2.1861589e-07 0)
(0.30188332 1.9130564e-07 0)
(0.30188279 1.6670241e-07 0)
(0.30188233 1.4465211e-07 0)
(0.30188193 1.2492681e-07 0)
(0.30188159 1.073903e-07 0)
(0.30188129 9.1831685e-08 0)
(0.30188104 7.8127678e-08 0)
(0.30188083 6.6084105e-08 0)
(0.30188065 5.5589157e-08 0)
(0.30188049 4.6462358e-08 0)
(0.30188037 3.8601227e-08 0)
(0.30188026 3.1842224e-08 0)
(0.30188017 2.6091851e-08 0)
(0.3018801 2.1202698e-08 0)
(0.30188004 1.7085342e-08 0)
(0.30188 1.3608383e-08 0)
(0.30187996 1.0668543e-08 0)
(0.30187993 8.1612665e-09 0)
(0.30187991 5.9444258e-09 0)
(0.30187989 3.9965262e-09 0)
(0.30187988 1.7505739e-09 0)
(0.30187987 3.2534937e-10 0)
(0.77055974 0.00021582571 0)
(0.77093421 0.00095868125 0)
(0.77037945 0.0013631648 0)
(0.76959665 0.0013538131 0)
(0.76890081 0.0011476468 0)
(0.76831048 0.00093438175 0)
(0.76777089 0.00078039007 0)
(0.76725431 0.00067495406 0)
(0.76676272 0.0005926075 0)
(0.76630598 0.00052025179 0)
(0.76588885 0.00045626686 0)
(0.76550989 0.00040216629 0)
(0.76516479 0.00035791372 0)
(0.76484922 0.00032170153 0)
(0.76455978 0.00029132987 0)
(0.76429386 0.00026514977 0)
(0.76404927 0.00024218864 0)
(0.76382398 0.00022188325 0)
(0.76361616 0.00020382926 0)
(0.76342417 0.00018767723 0)
(0.76324657 0.00017312495 0)
(0.76308212 0.00015992936 0)
(0.76292972 0.00014790444 0)
(0.7627884 0.00013690656 0)
(0.76265728 0.00012681979 0)
(0.76253558 0.00011754628 0)
(0.76242257 0.00010900207 0)
(0.76231762 0.00010111485 0)
(0.76222013 9.3822394e-05 0)
(0.76212957 8.7070711e-05 0)
(0.76204544 8.0812637e-05 0)
(0.76196729 7.5006429e-05 0)
(0.76189469 6.9615064e-05 0)
(0.76182727 6.4605384e-05 0)
(0.76176467 5.9947734e-05 0)
(0.76170655 5.561531e-05 0)
(0.76165261 5.1583954e-05 0)
(0.76160256 4.7831641e-05 0)
(0.76155614 4.4338382e-05 0)
(0.76151309 4.1085812e-05 0)
(0.7614732 3.8057172e-05 0)
(0.76143623 3.5236973e-05 0)
(0.76140201 3.2611023e-05 0)
(0.76137032 3.0166122e-05 0)
(0.76134101 2.7890138e-05 0)
(0.76131391 2.577174e-05 0)
(0.76128887 2.3800484e-05 0)
(0.76126574 2.1966574e-05 0)
(0.76124439 2.0260963e-05 0)
(0.7612247 1.8675143e-05 0)
(0.76120655 1.720125e-05 0)
(0.76118983 1.5831858e-05 0)
(0.76117444 1.4560102e-05 0)
(0.76116029 1.337949e-05 0)
(0.76114729 1.2284021e-05 0)
(0.76113535 1.1268003e-05 0)
(0.7611244 1.0326177e-05 0)
(0.76111436 9.4535517e-06 0)
(0.76110518 8.6455199e-06 0)
(0.76109677 7.8976981e-06 0)
(0.7610891 7.2060453e-06 0)
(0.7610821 6.5667166e-06 0)
(0.76107572 5.9761738e-06 0)
(0.76106991 5.4310426e-06 0)
(0.76106463 4.9282251e-06 0)
(0.76105984 4.4647696e-06 0)
(0.7610555 4.0379753e-06 0)
(0.76105158 3.6452637e-06 0)
(0.76104804 3.2842844e-06 0)
(0.76104485 2.9527975e-06 0)
(0.76104198 2.6487706e-06 0)
(0.7610394 2.3702617e-06 0)
(0.7610371 2.1155161e-06 0)
(0.76103505 1.8828575e-06 0)
(0.76103322 1.6707766e-06 0)
(0.76103159 1.4778212e-06 0)
(0.76103016 1.3026849e-06 0)
(0.76102889 1.1441047e-06 0)
(0.76102778 1.000942e-06 0)
(0.7610268 8.7208154e-07 0)
(0.76102596 7.5651216e-07 0)
(0.76102522 6.5323594e-07 0)
(0.76102458 5.6134253e-07 0)
(0.76102404 4.7992243e-07 0)
(0.76102357 4.0813994e-07 0)
(0.76102317 3.4516255e-07 0)
(0.76102284 2.9022073e-07 0)
(0.76102255 2.4255108e-07 0)
(0.76102232 2.0144227e-07 0)
(0.76102212 1.6620675e-07 0)
(0.76102196 1.361966e-07 0)
(0.76102183 1.1080002e-07 0)
(0.76102172 8.9433881e-08 0)
(0.76102163 7.1543204e-08 0)
(0.76102156 5.6638917e-08 0)
(0.7610215 4.4151276e-08 0)
(0.76102146 3.3828943e-08 0)
(0.76102142 2.4818951e-08 0)
(0.76102141 1.7644755e-08 0)
(0.76102137 1.0032481e-08 0)
(1.0922168 0.00017088341 0)
(1.0932749 0.00088770595 0)
(1.0932778 0.0014029334 0)
(1.0930387 0.0015451419 0)
(1.0929311 0.0014472453 0)
(1.0929394 0.0012870168 0)
(1.0929506 0.0011539779 0)
(1.0929071 0.0010561833 0)
(1.0928135 0.00097379008 0)
(1.0926959 0.0008936951 0)
(1.092573 0.00081503837 0)
(1.0924515 0.00074180254 0)
(1.0923317 0.00067659933 0)
(1.0922132 0.00061935786 0)
(1.0920969 0.00056867074 0)
(1.0919838 0.00052316438 0)
(1.0918751 0.00048196882 0)
(1.0917714 0.00044458014 0)
(1.0916728 0.00041061797 0)
(1.0915792 0.00037971119 0)
(1.0914907 0.00035149787 0)
(1.0914071 0.00032565655 0)
(1.0913283 0.00030191987 0)
(1.0912541 0.00028006795 0)
(1.0911844 0.00025991498 0)
(1.091119 0.0002412994 0)
(1.0910577 0.00022407879 0)
(1.0910003 0.00020812766 0)
(1.0909465 0.00019333549 0)
(1.0908962 0.00017960478 0)
(1.0908493 0.00016684888 0)
(1.0908054 0.00015499039 0)
(1.0907644 0.0001439597 0)
(1.0907262 0.00013369406 0)
(1.0906906 0.00012413661 0)
(1.0906574 0.00011523577 0)
(1.0906266 0.00010694443 0)
(1.0905978 9.9219611e-05 0)
(1.0905711 9.2021819e-05 0)
(1.0905462 8.5314808e-05 0)
(1.0905231 7.90651e-05 0)
(1.0905017 7.3241846e-05 0)
(1.0904818 6.7816432e-05 0)
(1.0904634 6.2762391e-05 0)
(1.0904463 5.8055085e-05 0)
(1.0904304 5.3671668e-05 0)
(1.0904157 4.9590806e-05 0)
(1.0904022 4.5792676e-05 0)
(1.0903896 4.2258719e-05 0)
(1.090378 3.8971666e-05 0)
(1.0903673 3.5915322e-05 0)
(1.0903574 3.3074598e-05 0)
(1.0903483 3.0435317e-05 0)
(1.0903399 2.7984269e-05 0)
(1.0903322 2.570903e-05 0)
(1.0903251 2.3598014e-05 0)
(1.0903186 2.1640317e-05 0)
(1.0903126 1.9825774e-05 0)
(1.0903071 1.8144806e-05 0)
(1.090302 1.6588485e-05 0)
(1.0902974 1.5148399e-05 0)
(1.0902932 1.3816715e-05 0)
(1.0902893 1.2586049e-05 0)
(1.0902858 1.1449525e-05 0)
(1.0902826 1.0400667e-05 0)
(1.0902797 9.433458e-06 0)
(1.090277 8.542229e-06 0)
(1.0902746 7.7217243e-06 0)
(1.0902724 6.9669976e-06 0)
(1.0902704 6.2734782e-06 0)
(1.0902686 5.6368698e-06 0)
(1.090267 5.0532115e-06 0)
(1.0902656 4.5187842e-06 0)
(1.0902643 4.0301703e-06 0)
(1.0902631 3.58416e-06 0)
(1.0902621 3.1778048e-06 0)
(1.0902612 2.8083279e-06 0)
(1.0902603 2.4731781e-06 0)
(1.0902596 2.1699388e-06 0)
(1.090259 1.8963782e-06 0)
(1.0902584 1.6503632e-06 0)
(1.0902579 1.4299148e-06 0)
(1.0902575 1.2331203e-06 0)
(1.0902571 1.0581932e-06 0)
(1.0902568 9.0338825e-07 0)
(1.0902565 7.6707557e-07 0)
(1.0902563 6.4764866e-07 0)
(1.0902561 5.4361041e-07 0)
(1.0902559 4.5348339e-07 0)
(1.0902558 3.7589288e-07 0)
(1.0902556 3.095181e-07 0)
(1.0902555 2.5306328e-07 0)
(1.0902555 2.0545499e-07 0)
(1.0902554 1.6530392e-07 0)
(1.0902553 1.3212621e-07 0)
(1.0902553 1.0387771e-07 0)
(1.0902553 8.170099e-08 0)
(1.0902552 6.1093412e-08 0)
(1.0902552 4.8091375e-08 0)
(1.0902552 3.092146e-08 0)
(1.2945869 0.00010629917 0)
(1.2960706 0.0005989891 0)
(1.2964011 0.00099625199 0)
(1.2964901 0.0011467763 0)
(1.2967877 0.001114343 0)
(1.2972732 0.001020834 0)
(1.2977829 0.00093839802 0)
(1.2982184 0.00087912666 0)
(1.2985709 0.00082963309 0)
(1.2988695 0.00077911627 0)
(1.2991384 0.00072625021 0)
(1.2993864 0.00067438546 0)
(1.2996137 0.00062631846 0)
(1.2998193 0.00058270186 0)
(1.3000047 0.00054289508 0)
(1.3001724 0.00050610406 0)
(1.300325 0.0004718586 0)
(1.3004644 0.00043995533 0)
(1.300592 0.00041026915 0)
(1.300709 0.00038265375 0)
(1.3008163 0.00035693859 0)
(1.3009149 0.00033295884 0)
(1.3010057 0.00031057269 0)
(1.3010892 0.00028966143 0)
(1.3011663 0.00027012159 0)
(1.3012374 0.00025185932 0)
(1.3013031 0.00023478747 0)
(1.3013638 0.00021882578 0)
(1.30142 0.00020390012 0)
(1.301472 0.00018994262 0)
(1.30152 0.00017689035 0)
(1.3015646 0.00016468518 0)
(1.3016058 0.00015327278 0)
(1.301644 0.00014260279 0)
(1.3016793 0.00013262798 0)
(1.3017121 0.00012330452 0)
(1.3017424 0.00011459122 0)
(1.3017705 0.00010644981 0)
(1.3017965 9.8844203e-05 0)
(1.3018206 9.1740883e-05 0)
(1.3018429 8.5108175e-05 0)
(1.3018635 7.8916659e-05 0)
(1.3018826 7.3138479e-05 0)
(1.3019002 6.7747769e-05 0)
(1.3019165 6.2719999e-05 0)
(1.3019315 5.8032405e-05 0)
(1.3019454 5.3663361e-05 0)
(1.3019582 4.9592812e-05 0)
(1.30197 4.5801681e-05 0)
(1.3019809 4.2272293e-05 0)
(1.3019909 3.8987809e-05 0)
(1.3020001 3.5932648e-05 0)
(1.3020086 3.3091945e-05 0)
(1.3020164 3.0451965e-05 0)
(1.3020236 2.7999586e-05 0)
(1.3020301 2.5722704e-05 0)
(1.3020361 2.3609738e-05 0)
(1.3020416 2.1650031e-05 0)
(1.3020467 1.9833371e-05 0)
(1.3020513 1.8150368e-05 0)
(1.3020554 1.6592016e-05 0)
(1.3020593 1.5150064e-05 0)
(1.3020627 1.3816579e-05 0)
(1.3020659 1.2584312e-05 0)
(1.3020688 1.1446285e-05 0)
(1.3020714 1.0396142e-05 0)
(1.3020737 9.4277556e-06 0)
(1.3020758 8.5355682e-06 0)
(1.3020778 7.7142162e-06 0)
(1.3020795 6.9588577e-06 0)
(1.302081 6.2648129e-06 0)
(1.3020824 5.6278822e-06 0)
(1.3020836 5.043999e-06 0)
(1.3020847 4.5095359e-06 0)
(1.3020857 4.020968e-06 0)
(1.3020865 3.5751697e-06 0)
(1.3020873 3.1690869e-06 0)
(1.302088 2.8000227e-06 0)
(1.3020886 2.465318e-06 0)
(1.3020891 2.1626305e-06 0)
(1.3020895 1.8896231e-06 0)
(1.3020899 1.6442363e-06 0)
(1.3020902 1.4243847e-06 0)
(1.3020905 1.2282296e-06 0)
(1.3020907 1.0538827e-06 0)
(1.3020909 8.9967667e-07 0)
(1.3020911 7.6388383e-07 0)
(1.3020912 6.4497109e-07 0)
(1.3020913 5.4136959e-07 0)
(1.3020914 4.5163569e-07 0)
(1.3020915 3.7441639e-07 0)
(1.3020916 3.0824248e-07 0)
(1.3020916 2.521759e-07 0)
(1.3020916 2.0438046e-07 0)
(1.3020917 1.6496604e-07 0)
(1.3020917 1.3073749e-07 0)
(1.3020917 1.0452838e-07 0)
(1.3020917 7.9058333e-08 0)
(1.3020918 6.4306237e-08 0)
(1.3020918 4.2723762e-08 0)
(1.3920118 3.5812269e-05 0)
(1.3937002 0.00020903445 0)
(1.3941745 0.00035532675 0)
(1.3944007 0.00041659139 0)
(1.3948772 0.0004103612 0)
(1.3955898 0.00037952062 0)
(1.3963512 0.00035151087 0)
(1.3970391 0.00033189073 0)
(1.3976353 0.00031594958 0)
(1.398169 0.00029943592 0)
(1.3986672 0.00028164059 0)
(1.3991393 0.00026378541 0)
(1.3995842 0.00024699592 0)
(1.3999998 0.00023159755 0)
(1.4003864 0.00021739416 0)
(1.4007466 0.00020410822 0)
(1.4010828 0.00019158067 0)
(1.4013972 0.00017975741 0)
(1.4016912 0.00016861667 0)
(1.401966 0.00015812773 0)
(1.4022228 0.00014824805 0)
(1.4024627 0.00013893443 0)
(1.4026868 0.00013015024 0)
(1.4028961 0.00012186582 0)
(1.4030915 0.00011405549 0)
(1.403274 0.00010669544 0)
(1.4034443 9.9762835e-05 0)
(1.4036032 9.3235834e-05 0)
(1.4037515 8.7093635e-05 0)
(1.4038896 8.1316491e-05 0)
(1.4040184 7.588554e-05 0)
(1.4041385 7.0782732e-05 0)
(1.4042502 6.5990714e-05 0)
(1.4043543 6.1492853e-05 0)
(1.4044512 5.7273184e-05 0)
(1.4045412 5.3316459e-05 0)
(1.404625 4.9608066e-05 0)
(1.4047029 4.6134079e-05 0)
(1.4047752 4.2881184e-05 0)
(1.4048424 3.9836727e-05 0)
(1.4049047 3.6988635e-05 0)
(1.4049626 3.4325457e-05 0)
(1.4050162 3.1836291e-05 0)
(1.4050659 2.9510823e-05 0)
(1.4051119 2.7339248e-05 0)
(1.4051545 2.5312303e-05 0)
(1.4051939 2.3421195e-05 0)
(1.4052304 2.1657637e-05 0)
(1.405264 2.0013768e-05 0)
(1.4052951 1.8482185e-05 0)
(1.4053238 1.7055875e-05 0)
(1.4053502 1.5728249e-05 0)
(1.4053746 1.4493068e-05 0)
(1.405397 1.3344471e-05 0)
(1.4054177 1.2276918e-05 0)
(1.4054366 1.1285214e-05 0)
(1.405454 1.0364451e-05 0)
(1.40547 9.5100224e-06 0)
(1.4054846 8.7175811e-06 0)
(1.4054981 7.9830735e-06 0)
(1.4055103 7.3026604e-06 0)
(1.4055215 6.6727559e-06 0)
(1.4055317 6.0899733e-06 0)
(1.4055411 5.5511585e-06 0)
(1.4055495 5.0533305e-06 0)
(1.4055572 4.5937138e-06 0)
(1.4055642 4.1696875e-06 0)
(1.4055706 3.7788214e-06 0)
(1.4055763 3.4188197e-06 0)
(1.4055815 3.0875554e-06 0)
(1.4055862 2.7830227e-06 0)
(1.4055904 2.5033729e-06 0)
(1.4055941 2.2468618e-06 0)
(1.4055975 2.0118832e-06 0)
(1.4056005 1.7969238e-06 0)
(1.4056032 1.6005971e-06 0)
(1.4056056 1.4215929e-06 0)
(1.4056077 1.2587086e-06 0)
(1.4056095 1.1108055e-06 0)
(1.4056111 9.7684071e-07 0)
(1.4056126 8.5581815e-07 0)
(1.4056138 7.4681915e-07 0)
(1.4056149 6.4896074e-07 0)
(1.4056158 5.6142694e-07 0)
(1.4056166 4.8342613e-07 0)
(1.4056173 4.1421634e-07 0)
(1.4056179 3.530819e-07 0)
(1.4056184 2.9933868e-07 0)
(1.4056188 2.5235083e-07 0)
(1.4056192 2.1145589e-07 0)
(1.4056195 1.7613292e-07 0)
(1.4056197 1.4566692e-07 0)
(1.4056199 1.1977402e-07 0)
(1.4056201 9.7498916e-08 0)
(1.4056202 7.9143136e-08 0)
(1.4056203 6.299005e-08 0)
(1.4056204 5.0732338e-08 0)
(1.4056205 3.853529e-08 0)
(1.4056205 3.1497e-08 0)
(1.4056206 2.0864136e-08 0)
(1.3920116 -3.5811962e-05 0)
(1.3937001 -0.00020903303 0)
(1.3941744 -0.00035532787 0)
(1.3944006 -0.00041659112 0)
(1.3948771 -0.00041035093 0)
(1.3955897 -0.00037949461 0)
(1.3963511 -0.00035147125 0)
(1.3970391 -0.00033184297 0)
(1.3976352 -0.00031589841 0)
(1.398169 -0.00029938346 0)
(1.3986672 -0.00028158786 0)
(1.3991393 -0.00026373345 0)
(1.3995842 -0.00024694605 0)
(1.3999998 -0.0002315511 0)
(1.4003864 -0.00021735198 0)
(1.4007466 -0.00020407095 0)
(1.4010828 -0.00019154855 0)
(1.4013972 -0.00017973074 0)
(1.4016912 -0.0001685954 0)
(1.401966 -0.00015811194 0)
(1.4022228 -0.00014823742 0)
(1.4024627 -0.00013892887 0)
(1.4026868 -0.00013014932 0)
(1.4028961 -0.00012186925 0)
(1.4030916 -0.00011406269 0)
(1.403274 -0.0001067062 0)
(1.4034444 -9.9776579e-05 0)
(1.4036033 -9.3252335e-05 0)
(1.4037515 -8.7112309e-05 0)
(1.4038897 -8.1337139e-05 0)
(1.4040185 -7.5907613e-05 0)
(1.4041385 -7.0806066e-05 0)
(1.4042502 -6.6014803e-05 0)
(1.4043543 -6.1517592e-05 0)
(1.4044512 -5.729813e-05 0)
(1.4045412 -5.3341548e-05 0)
(1.404625 -4.9632903e-05 0)
(1.4047029 -4.6158652e-05 0)
(1.4047752 -4.2905147e-05 0)
(1.4048424 -3.9860093e-05 0)
(1.4049047 -3.7011089e-05 0)
(1.4049626 -3.4347044e-05 0)
(1.4050162 -3.185673e-05 0)
(1.4050659 -2.9530169e-05 0)
(1.4051119 -2.7357244e-05 0)
(1.4051545 -2.5329031e-05 0)
(1.4051939 -2.3436433e-05 0)
(1.4052303 -2.1671483e-05 0)
(1.405264 -2.0026032e-05 0)
(1.4052951 -1.8493003e-05 0)
(1.4053238 -1.7065104e-05 0)
(1.4053502 -1.5736053e-05 0)
(1.4053746 -1.4499342e-05 0)
(1.405397 -1.3349418e-05 0)
(1.4054176 -1.2280476e-05 0)
(1.4054366 -1.1287603e-05 0)
(1.405454 -1.0365631e-05 0)
(1.40547 -9.51024e-06 0)
(1.4054846 -8.7168295e-06 0)
(1.405498 -7.9815783e-06 0)
(1.4055103 -7.3004001e-06 0)
(1.4055215 -6.6699494e-06 0)
(1.4055317 -6.0865937e-06 0)
(1.405541 -5.5473964e-06 0)
(1.4055495 -5.0491386e-06 0)
(1.4055572 -4.589261e-06 0)
(1.4055642 -4.1649116e-06 0)
(1.4055706 -3.7738617e-06 0)
(1.4055763 -3.4135961e-06 0)
(1.4055815 -3.0821931e-06 0)
(1.4055861 -2.7774359e-06 0)
(1.4055903 -2.4976708e-06 0)
(1.4055941 -2.2409554e-06 0)
(1.4055975 -2.0058834e-06 0)
(1.4056005 -1.7907506e-06 0)
(1.4056032 -1.5943607e-06 0)
(1.4056055 -1.4152225e-06 0)
(1.4056076 -1.252327e-06 0)
(1.4056095 -1.1043581e-06 0)
(1.4056111 -9.7045487e-07 0)
(1.4056126 -8.4944936e-07 0)
(1.4056138 -7.4060563e-07 0)
(1.4056149 -6.428681e-07 0)
(1.4056158 -5.5559107e-07 0)
(1.4056166 -4.7781131e-07 0)
(1.4056173 -4.0895857e-07 0)
(1.4056179 -3.481405e-07 0)
(1.4056184 -2.94837e-07 0)
(1.4056188 -2.4823175e-07 0)
(1.4056192 -2.0783726e-07 0)
(1.4056195 -1.7294426e-07 0)
(1.4056197 -1.430316e-07 0)
(1.4056199 -1.1760418e-07 0)
(1.4056201 -9.5907384e-08 0)
(1.4056202 -7.7982474e-08 0)
(1.4056203 -6.2285855e-08 0)
(1.4056204 -5.0410551e-08 0)
(1.4056205 -3.8545993e-08 0)
(1.4056205 -3.233178e-08 0)
(1.4056205 -2.2447282e-08 0)
(1.294587 -0.00010629972 0)
(1.2960706 -0.00059900076 0)
(1.296401 -0.00099627195 0)
(1.2964901 -0.0011467947 0)
(1.2967877 -0.0011143508 0)
(1.2972731 -0.001020828 0)
(1.2977829 -0.00093837971 0)
(1.2982184 -0.00087909979 0)
(1.2985709 -0.00082960066 0)
(1.2988695 -0.00077908021 0)
(1.2991384 -0.0007262119 0)
(1.2993864 -0.00067434627 0)
(1.2996137 -0.00062627989 0)
(1.2998194 -0.00058266517 0)
(1.3000048 -0.00054286131 0)
(1.3001725 -0.00050607381 0)
(1.300325 -0.00047183244 0)
(1.3004644 -0.00043993345 0)
(1.3005921 -0.00041025181 0)
(1.3007091 -0.00038264082 0)
(1.3008164 -0.00035693008 0)
(1.300915 -0.00033295444 0)
(1.3010057 -0.00031057221 0)
(1.3010893 -0.0002896645 0)
(1.3011663 -0.00027012803 0)
(1.3012375 -0.00025186865 0)
(1.3013032 -0.00023479946 0)
(1.3013639 -0.00021883991 0)
(1.30142 -0.0002039162 0)
(1.301472 -0.00018996017 0)
(1.3015201 -0.00017690918 0)
(1.3015646 -0.00016470485 0)
(1.3016058 -0.00015329316 0)
(1.301644 -0.00014262349 0)
(1.3016794 -0.0001326489 0)
(1.3017121 -0.00012332534 0)
(1.3017424 -0.00011461188 0)
(1.3017705 -0.00010647002 0)
(1.3017965 -9.8863954e-05 0)
(1.3018206 -9.1759919e-05 0)
(1.3018429 -8.512651e-05 0)
(1.3018635 -7.8934073e-05 0)
(1.3018825 -7.3155e-05 0)
(1.3019002 -6.7763195e-05 0)
(1.3019164 -6.2734381e-05 0)
(1.3019315 -5.8045569e-05 0)
(1.3019453 -5.367537e-05 0)
(1.3019581 -4.9603516e-05 0)
(1.30197 -4.5811172e-05 0)
(1.3019808 -4.2280458e-05 0)
(1.3019909 -3.8994764e-05 0)
(1.3020001 -3.5938312e-05 0)
(1.3020085 -3.3096465e-05 0)
(1.3020163 -3.0455301e-05 0)
(1.3020235 -2.8001906e-05 0)
(1.30203 -2.5723991e-05 0)
(1.3020361 -2.3610183e-05 0)
(1.3020416 -2.164963e-05 0)
(1.3020466 -1.98323e-05 0)
(1.3020512 -1.814863e-05 0)
(1.3020554 -1.6589793e-05 0)
(1.3020592 -1.5147352e-05 0)
(1.3020627 -1.3813536e-05 0)
(1.3020658 -1.2580915e-05 0)
(1.3020687 -1.1442671e-05 0)
(1.3020713 -1.0392275e-05 0)
(1.3020737 -9.4237453e-06 0)
(1.3020758 -8.5313596e-06 0)
(1.3020777 -7.7099035e-06 0)
(1.3020794 -6.9543786e-06 0)
(1.3020809 -6.2602469e-06 0)
(1.3020823 -5.6231607e-06 0)
(1.3020836 -5.0392002e-06 0)
(1.3020847 -4.5045981e-06 0)
(1.3020856 -4.0159691e-06 0)
(1.3020865 -3.5700545e-06 0)
(1.3020873 -3.1639433e-06 0)
(1.3020879 -2.7948108e-06 0)
(1.3020885 -2.460132e-06 0)
(1.302089 -2.1574397e-06 0)
(1.3020894 -1.8845317e-06 0)
(1.3020898 -1.6392254e-06 0)
(1.3020902 -1.4195593e-06 0)
(1.3020904 -1.2235711e-06 0)
(1.3020907 -1.0494964e-06 0)
(1.3020909 -8.955433e-07 0)
(1.302091 -7.6009824e-07 0)
(1.3020912 -6.4150218e-07 0)
(1.3020913 -5.3830278e-07 0)
(1.3020914 -4.4893058e-07 0)
(1.3020915 -3.7214771e-07 0)
(1.3020915 -3.0635865e-07 0)
(1.3020916 -2.5074427e-07 0)
(1.3020916 -2.0334148e-07 0)
(1.3020917 -1.6432318e-07 0)
(1.3020917 -1.3042406e-07 0)
(1.3020917 -1.0447909e-07 0)
(1.3020917 -7.9199736e-08 0)
(1.3020917 -6.4822165e-08 0)
(1.3020917 -4.3587657e-08 0)
(1.0922167 -0.0001708825 0)
(1.0932749 -0.00088769485 0)
(1.0932777 -0.0014029189 0)
(1.0930387 -0.0015451339 0)
(1.092931 -0.0014472444 0)
(1.0929394 -0.001287019 0)
(1.0929507 -0.0011539776 0)
(1.0929071 -0.0010561776 0)
(1.0928136 -0.00097377836 0)
(1.092696 -0.00089367858 0)
(1.0925731 -0.0008150185 0)
(1.0924515 -0.00074178059 0)
(1.0923317 -0.00067657644 0)
(1.0922133 -0.00061933498 0)
(1.0920969 -0.00056864894 0)
(1.0919839 -0.00052314438 0)
(1.0918752 -0.00048195135 0)
(1.0917715 -0.00044456541 0)
(1.0916729 -0.00041060632 0)
(1.0915793 -0.0003797025 0)
(1.0914908 -0.00035149228 0)
(1.0914071 -0.00032565373 0)
(1.0913283 -0.00030191984 0)
(1.0912542 -0.00028007031 0)
(1.0911845 -0.00025991971 0)
(1.0911191 -0.000241306 0)
(1.0910578 -0.0002240872 0)
(1.0910003 -0.00020813739 0)
(1.0909466 -0.00019334652 0)
(1.0908963 -0.00017961662 0)
(1.0908493 -0.00016686154 0)
(1.0908054 -0.00015500342 0)
(1.0907644 -0.00014397314 0)
(1.0907262 -0.00013370752 0)
(1.0906906 -0.00012415016 0)
(1.0906574 -0.00011524904 0)
(1.0906265 -0.00010695755 0)
(1.0905978 -9.923225e-05 0)
(1.0905711 -9.2034112e-05 0)
(1.0905462 -8.5326463e-05 0)
(1.0905231 -7.9076278e-05 0)
(1.0905017 -7.3252278e-05 0)
(1.0904818 -6.7826275e-05 0)
(1.0904633 -6.2771399e-05 0)
(1.0904462 -5.8063434e-05 0)
(1.0904303 -5.3679126e-05 0)
(1.0904157 -4.9597547e-05 0)
(1.0904021 -4.5798494e-05 0)
(1.0903895 -4.2263806e-05 0)
(1.0903779 -3.8975841e-05 0)
(1.0903672 -3.5918782e-05 0)
(1.0903574 -3.307719e-05 0)
(1.0903482 -3.0437263e-05 0)
(1.0903399 -2.798544e-05 0)
(1.0903321 -2.5709649e-05 0)
(1.090325 -2.3597974e-05 0)
(1.0903185 -2.163985e-05 0)
(1.0903125 -1.9824777e-05 0)
(1.090307 -1.8143499e-05 0)
(1.0903019 -1.6586779e-05 0)
(1.0902973 -1.514651e-05 0)
(1.0902931 -1.3814542e-05 0)
(1.0902892 -1.2583778e-05 0)
(1.0902857 -1.1447051e-05 0)
(1.0902825 -1.0398163e-05 0)
(1.0902796 -9.4308028e-06 0)
(1.0902769 -8.5395709e-06 0)
(1.0902745 -7.7189374e-06 0)
(1.0902723 -6.9642218e-06 0)
(1.0902703 -6.270582e-06 0)
(1.0902686 -5.6339774e-06 0)
(1.090267 -5.0501964e-06 0)
(1.0902655 -4.5157738e-06 0)
(1.0902642 -4.0270432e-06 0)
(1.0902631 -3.5810394e-06 0)
(1.090262 -3.1745823e-06 0)
(1.0902611 -2.8051377e-06 0)
(1.0902603 -2.4699216e-06 0)
(1.0902596 -2.1667493e-06 0)
(1.0902589 -1.8931701e-06 0)
(1.0902584 -1.6472789e-06 0)
(1.0902579 -1.4268734e-06 0)
(1.0902574 -1.2302579e-06 0)
(1.0902571 -1.0554336e-06 0)
(1.0902567 -9.0086843e-07 0)
(1.0902565 -7.6471365e-07 0)
(1.0902562 -6.4556867e-07 0)
(1.090256 -5.4172445e-07 0)
(1.0902559 -4.5191226e-07 0)
(1.0902557 -3.7453595e-07 0)
(1.0902556 -3.0848633e-07 0)
(1.0902555 -2.5223575e-07 0)
(1.0902554 -2.0494424e-07 0)
(1.0902554 -1.6496826e-07 0)
(1.0902553 -1.3206042e-07 0)
(1.0902553 -1.0398034e-07 0)
(1.0902552 -8.1907506e-08 0)
(1.0902552 -6.1369128e-08 0)
(1.0902552 -4.8158769e-08 0)
(1.0902551 -3.0839334e-08 0)
(0.77055975 -0.00021581954 0)
(0.77093423 -0.00095866176 0)
(0.77037948 -0.0013631454 0)
(0.76959668 -0.0013538086 0)
(0.76890085 -0.0011476636 0)
(0.76831052 -0.0009344137 0)
(0.76777093 -0.00078042546 0)
(0.76725434 -0.00067498335 0)
(0.76676275 -0.00059262725 0)
(0.766306 -0.00052026297 0)
(0.76588888 -0.00045627177 0)
(0.76550992 -0.00040216679 0)
(0.76516482 -0.00035791103 0)
(0.76484925 -0.00032169677 0)
(0.76455982 -0.00029132405 0)
(0.76429391 -0.00026514392 0)
(0.76404932 -0.00024218334 0)
(0.76382404 -0.00022187897 0)
(0.76361622 -0.00020382608 0)
(0.76342423 -0.00018767533 0)
(0.76324663 -0.0001731242 0)
(0.76308218 -0.00015992983 0)
(0.76292978 -0.00014790591 0)
(0.76278846 -0.00013690907 0)
(0.76265734 -0.00012682305 0)
(0.76253563 -0.00011755028 0)
(0.76242262 -0.00010900655 0)
(0.76231767 -0.00010111982 0)
(0.76222017 -9.3827606e-05 0)
(0.7621296 -8.7076194e-05 0)
(0.76204547 -8.081815e-05 0)
(0.76196731 -7.5012036e-05 0)
(0.76189471 -6.9620551e-05 0)
(0.76182728 -6.4610822e-05 0)
(0.76176467 -5.995293e-05 0)
(0.76170655 -5.5620368e-05 0)
(0.7616526 -5.1588704e-05 0)
(0.76160254 -4.7836187e-05 0)
(0.76155611 -4.4342572e-05 0)
(0.76151306 -4.1089768e-05 0)
(0.76147316 -3.8060755e-05 0)
(0.76143619 -3.5240297e-05 0)
(0.76140196 -3.2613955e-05 0)
(0.76137027 -3.0168787e-05 0)
(0.76134096 -2.789241e-05 0)
(0.76131386 -2.5773732e-05 0)
(0.76128881 -2.3802077e-05 0)
(0.76126568 -2.1967891e-05 0)
(0.76124432 -2.0261897e-05 0)
(0.76122463 -1.8675811e-05 0)
(0.76120648 -1.7201554e-05 0)
(0.76118976 -1.5831929e-05 0)
(0.76117437 -1.4559856e-05 0)
(0.76116022 -1.3379052e-05 0)
(0.76114722 -1.2283316e-05 0)
(0.76113528 -1.1267165e-05 0)
(0.76112433 -1.0325138e-05 0)
(0.76111429 -9.4524339e-06 0)
(0.76110511 -8.6442577e-06 0)
(0.7610967 -7.8964141e-06 0)
(0.76108903 -7.2046721e-06 0)
(0.76108203 -6.5653583e-06 0)
(0.76107565 -5.9747573e-06 0)
(0.76106984 -5.4296672e-06 0)
(0.76106457 -4.9268135e-06 0)
(0.76105978 -4.4634038e-06 0)
(0.76105544 -4.0365738e-06 0)
(0.76105152 -3.6439068e-06 0)
(0.76104798 -3.2828904e-06 0)
(0.76104479 -2.9514357e-06 0)
(0.76104193 -2.647361e-06 0)
(0.76103935 -2.3688783e-06 0)
(0.76103705 -2.1140844e-06 0)
(0.761035 -1.8814467e-06 0)
(0.76103317 -1.6693186e-06 0)
(0.76103155 -1.4763938e-06 0)
(0.76103011 -1.3012275e-06 0)
(0.76102885 -1.1426919e-06 0)
(0.76102774 -9.995194e-07 0)
(0.76102677 -8.7073053e-07 0)
(0.76102592 -7.5518284e-07 0)
(0.76102519 -6.5200356e-07 0)
(0.76102455 -5.6015837e-07 0)
(0.76102401 -4.7886372e-07 0)
(0.76102354 -4.0715753e-07 0)
(0.76102315 -3.4432314e-07 0)
(0.76102281 -2.8947222e-07 0)
(0.76102253 -2.4195838e-07 0)
(0.76102229 -2.0095173e-07 0)
(0.7610221 -1.6587111e-07 0)
(0.76102194 -1.3595513e-07 0)
(0.76102181 -1.1069124e-07 0)
(0.7610217 -8.9388113e-08 0)
(0.76102161 -7.1577879e-08 0)
(0.76102154 -5.6752809e-08 0)
(0.76102148 -4.4319733e-08 0)
(0.76102144 -3.4003601e-08 0)
(0.76102141 -2.4980436e-08 0)
(0.76102139 -1.7245884e-08 0)
(0.76102135 -9.3461578e-09 0)
(0.31005646 -0.00019229162 0)
(0.30964396 -0.00057044928 0)
(0.30871434 -0.00063658431 0)
(0.30776454 -0.0004953481 0)
(0.30698961 -0.00032873332 0)
(0.30639192 -0.00021963837 0)
(0.30591693 -0.00016443122 0)
(0.30551909 -0.00013533844 0)
(0.30517481 -0.00011439493 0)
(0.3048742 -9.6474526e-05 0)
(0.30461156 -8.1886328e-05 0)
(0.30438116 -7.1051829e-05 0)
(0.30417711 -6.3265192e-05 0)
(0.30399431 -5.7375624e-05 0)
(0.30382901 -5.2500488e-05 0)
(0.30367858 -4.8204481e-05 0)
(0.30354116 -4.4342411e-05 0)
(0.30341525 -4.0868503e-05 0)
(0.30329959 -3.774009e-05 0)
(0.30319311 -3.4905118e-05 0)
(0.3030949 -3.2315597e-05 0)
(0.30300418 -2.9937445e-05 0)
(0.30292028 -2.7747624e-05 0)
(0.30284263 -2.5729533e-05 0)
(0.30277069 -2.3867979e-05 0)
(0.30270402 -2.2149167e-05 0)
(0.30264219 -2.0559783e-05 0)
(0.30258483 -1.9088502e-05 0)
(0.3025316 -1.7724803e-05 0)
(0.3024822 -1.6459961e-05 0)
(0.30243633 -1.5285601e-05 0)
(0.30239376 -1.4194736e-05 0)
(0.30235424 -1.3180494e-05 0)
(0.30231754 -1.2237251e-05 0)
(0.30228349 -1.1359364e-05 0)
(0.30225189 -1.0542272e-05 0)
(0.30222256 -9.7812695e-06 0)
(0.30219536 -9.0726266e-06 0)
(0.30217014 -8.4123824e-06 0)
(0.30214675 -7.7974392e-06 0)
(0.30212508 -7.2244085e-06 0)
(0.30210501 -6.6907089e-06 0)
(0.30208642 -6.1934319e-06 0)
(0.30206922 -5.7303943e-06 0)
(0.30205331 -5.2990606e-06 0)
(0.3020386 -4.8975867e-06 0)
(0.302025 -4.523764e-06 0)
(0.30201245 -4.1760127e-06 0)
(0.30200086 -3.8523812e-06 0)
(0.30199017 -3.5515246e-06 0)
(0.30198032 -3.271726e-06 0)
(0.30197124 -3.0118249e-06 0)
(0.30196289 -2.7702901e-06 0)
(0.30195521 -2.5461315e-06 0)
(0.30194815 -2.3379949e-06 0)
(0.30194167 -2.145024e-06 0)
(0.30193573 -1.9660043e-06 0)
(0.30193028 -1.8002078e-06 0)
(0.3019253 -1.6465577e-06 0)
(0.30192074 -1.5044265e-06 0)
(0.30191657 -1.3728449e-06 0)
(0.30191277 -1.2512847e-06 0)
(0.30190931 -1.1388858e-06 0)
(0.30190616 -1.0351965e-06 0)
(0.30190329 -9.3944124e-07 0)
(0.30190069 -8.5124681e-07 0)
(0.30189834 -7.6992575e-07 0)
(0.30189621 -6.9516429e-07 0)
(0.30189429 -6.2634219e-07 0)
(0.30189256 -5.6320888e-07 0)
(0.301891 -5.0521583e-07 0)
(0.30188961 -4.5215831e-07 0)
(0.30188836 -4.0354047e-07 0)
(0.30188724 -3.5920707e-07 0)
(0.30188625 -3.187187e-07 0)
(0.30188537 -2.8195247e-07 0)
(0.30188459 -2.4850676e-07 0)
(0.30188391 -2.1829357e-07 0)
(0.30188331 -1.9095203e-07 0)
(0.30188278 -1.6641256e-07 0)
(0.30188232 -1.4433753e-07 0)
(0.30188192 -1.2467905e-07 0)
(0.30188158 -1.071268e-07 0)
(0.30188129 -9.1641356e-08 0)
(0.30188103 -7.7925586e-08 0)
(0.30188082 -6.5955117e-08 0)
(0.30188064 -5.5452777e-08 0)
(0.30188049 -4.6400818e-08 0)
(0.30188036 -3.8532046e-08 0)
(0.30188025 -3.1842612e-08 0)
(0.30188017 -2.6077976e-08 0)
(0.3018801 -2.1243516e-08 0)
(0.30188004 -1.7085135e-08 0)
(0.30187999 -1.3650023e-08 0)
(0.30187995 -1.0697588e-08 0)
(0.30187992 -8.1974993e-09 0)
(0.3018799 -5.978507e-09 0)
(0.30187989 -3.9402904e-09 0)
(0.30187988 -1.3534479e-09 0)
(0.30187987 1.214849e-10 0)
)
;

boundaryField
{
    top
    {
        type            fixedValue;
        value           uniform (0 0 0);
    }
    inlet
    {
        type            pressureNormalInletOutletVelocity;
        phi             phi;
        rho             rho;