/*--------------------------------*- C++ -*----------------------------------*\
| =========                 |                                                 |
| \\      /  F ield         | OpenFOAM: The Open Source CFD Toolbox           |
|  \\    /   O peration     | Version:  v1812                                 |
|   \\  /    A nd           | Web:      www.OpenFOAM.com                      |
|    \\/     M anipulation  |                                                 |
\*---------------------------------------------------------------------------*/
FoamFile
{
    version     2.0;
    format      ascii;
    class       surfaceScalarField;
    location    "10";
    object      phi;
}
// * * * * * * * * * * * * * * * * * * * * * * * * * * * * * * * * * * * * * //

dimensions      [0 3 -1 0 0 0 0];
oriented        oriented;


internalField   nonuniform List<scalar> 
1890
(
0.0093061957
0.00069380425
0.0082843931
0.0010218027
0.0073298986
0.00095449449
0.0064869553
0.00084294334
0.0057695845
0.0007173708
0.00518986
0.00057972443
0.004738168
0.00045169204
0.00439519
0.00034297801
0.0041390268
0.00025616318
0.0039491069
0.00018991984
0.003807888
0.00014121898
0.0037013782
0.0001065098
0.003619058
8.232022e-05
0.0035534117
6.5646242e-05
0.0034992845
5.412725e-05
0.0034532444
4.6040044e-05
0.0034130501
4.0194291e-05
0.0033772574
3.5792756e-05
0.0033449386
3.2318761e-05
0.0033154893
2.9449283e-05
0.0032885008
2.6988577e-05
0.0032636805
2.48203e-05
0.003240805
2.2875479e-05
0.0032196926
2.1112417e-05
0.0032001879
1.9504656e-05
0.0031821539
1.803402e-05
0.0031654672
1.6686732e-05
0.0031500158
1.5451369e-05
0.0031356979
1.4317867e-05
0.0031224208
1.3277073e-05
0.0031101002
1.2320589e-05
0.0030986595
1.1440716e-05
0.0030880291
1.0630429e-05
0.0030781458
9.8833619e-06
0.003068952
9.1937715e-06
0.0030603955
8.5565007e-06
0.0030524286
7.966928e-06
0.0030450076
7.4209149e-06
0.0030380929
6.9147569e-06
0.0030316477
6.4451309e-06
0.0030256387
6.0090533e-06
0.0030200348
5.6038376e-06
0.0030148078
5.2270589e-06
0.0030099313
4.8765241e-06
0.0030053811
4.5502422e-06
0.0030011347
4.246403e-06
0.0029971713
3.9633544e-06
0.0029934717
3.6995846e-06
0.002990018
3.4537076e-06
0.0029867935
3.2244477e-06
0.0029837829
3.0106307e-06
0.0029809717
2.8111734e-06
0.0029783466
2.6250755e-06
0.0029758953
2.4514148e-06
0.0029736059
2.2893376e-06
0.0029714679
2.1380559e-06
0.0029694711
1.9968384e-06
0.002967606
1.8650055e-06
0.0029658641
1.741926e-06
0.002964237
1.6270083e-06
0.0029627173
1.5197028e-06
0.0029612978
1.4194957e-06
0.002959972
1.3259087e-06
0.0029587335
1.2385007e-06
0.0029575767
1.1568599e-06
0.0029564961
1.0806072e-06
0.0029554867
1.0093886e-06
0.0029545438
9.4287011e-07
0.002953663
8.8074015e-07
0.0029528402
8.2269784e-07
0.0029520717
7.6846348e-07
0.002951354
7.1777132e-07
0.0029506837
6.7037551e-07
0.0029500577
6.2605017e-07
0.0029494731
5.8458853e-07
0.0029489273
5.4579463e-07
0.0029484178
5.0949347e-07
0.0029479422
4.754999e-07
0.0029474985
4.4365836e-07
0.0029470846
4.1378882e-07
0.0029466989
3.8575735e-07
0.0029463396
3.593985e-07
0.0029460051
3.3462055e-07
0.0029456939
3.1126833e-07
0.0029454046
2.8931392e-07
0.002945136
2.685742e-07
0.0029448869
2.4910447e-07
0.0029446563
2.306332e-07
0.002944443
2.1334463e-07
0.0029442463
1.9680822e-07
0.0029440651
1.8145654e-07
0.0029438987
1.6658672e-07
0.0029437457
1.5308301e-07
0.0029436061
1.3973571e-07
0.0029434781
1.2811316e-07
0.0029433621
1.1620453e-07
0.0029432559
1.0650597e-07
0.0029431597
9.6390084e-08
0.0029430704
8.9300478e-08
8.5836487e-08
0.010339525
0.00035427932
0.010570754
0.00079057335
0.010606301
0.00091894821
0.010547572
0.00090167137
0.010422317
0.00084262623
0.010244356
0.00075768559
0.010039421
0.00065662743
0.0098287427
0.00055365586
0.009625135
0.00045977083
0.0094353013
0.00037975354
0.0092624277
0.00031409259
0.0091075332
0.00026140426
0.008970154
0.00021969949
0.0088489024
0.00018689786
0.0087419716
0.00016105802
0.0086474927
0.00014051895
0.008563694
0.00012399296
0.0084890107
0.000110476
0.0084221096
9.9219866e-05
0.0083618775
8.9681398e-05
0.0083073954
8.1470663e-05
0.0082579079
7.4307844e-05
0.0082127929
6.7990498e-05
0.0081715353
6.2369995e-05
0.008133705
5.7335024e-05
0.0080989388
5.2800195e-05
0.0080669272
4.8698276e-05
0.0080374036
4.497496e-05
0.0080101361
4.1585391e-05
0.0079849213
3.8491842e-05
0.0079615797
3.5662148e-05
0.0079399519
3.3068604e-05
0.0079198951
3.0687168e-05
0.0079012817
2.8496852e-05
0.0078839962
2.6479252e-05
0.0078679346
2.4618163e-05
0.0078530022
2.2899265e-05
0.0078391132
2.1309867e-05
0.0078261893
1.9838675e-05
0.0078141588
1.8475613e-05
0.0078029562
1.721166e-05
0.0077925213
1.6038712e-05
0.0077827989
1.4949468e-05
0.0077737381
1.3937332e-05
0.0077652921
1.2996327e-05
0.0077574175
1.2121026e-05
0.0077500743
1.1306483e-05
0.0077432257
1.0548187e-05
0.0077368374
9.8420068e-06
0.0077308777
9.1841564e-06
0.0077253171
8.5711563e-06
0.0077201284
7.9998045e-06
0.0077152864
7.4671501e-06
0.0077107674
6.9704706e-06
0.0077065495
6.5072525e-06
0.0077026124
6.0751724e-06
0.0076989372
5.6720815e-06
0.0076955062
5.2959897e-06
0.007692303
4.9450506e-06
0.0076893124
4.61755e-06
0.0076865202
4.3118933e-06
0.0076839131
4.0265962e-06
0.0076814787
3.7602779e-06
0.0076792056
3.5116524e-06
0.0076770831
3.2795258e-06
0.0076751009
3.0627869e-06
0.00767325
2.8604028e-06
0.0076715214
2.6714103e-06
0.0076699071
2.4949084e-06
0.0076683996
2.3300517e-06
0.007666992
2.1760462e-06
0.0076656775
2.0321431e-06
0.0076644503
1.8976443e-06
0.0076633045
1.7718915e-06
0.0076622349
1.6542791e-06
0.0076612365
1.5442332e-06
0.0076603047
1.4412311e-06
0.0076594353
1.3447648e-06
0.0076586243
1.2543825e-06
0.0076578683
1.1696167e-06
0.0076571638
1.0900893e-06
0.0076565077
1.0153549e-06
0.0076558972
9.4513826e-07
0.0076553295
8.78994e-07
0.007654802
8.1680119e-07
0.0076543124
7.5804987e-07
0.0076538584
7.0286016e-07
0.0076534383
6.5050744e-07
0.0076530498
6.0152701e-07
0.0076526918
5.5469799e-07
0.0076523618
5.1134697e-07
0.0076520591
4.6924615e-07
0.007651781
4.3127445e-07
0.0076515275
3.9317337e-07
0.0076512946
3.6083709e-07
0.0076510849
3.2587513e-07
0.0076508911
3.0026749e-07
0.0076507201
2.673142e-07
0.0076505573
2.5195706e-07
2.1786191e-07
0.010188704
0.00016557515
0.010530487
0.00044879099
0.010851453
0.00059798177
0.011124174
0.00062895025
0.011350581
0.00061621886
0.011524487
0.00058378055
0.01164633
0.0005347842
0.011724155
0.00047583049
0.011767999
0.00041592665
0.011786639
0.000361114
0.011787114
0.00031361712
0.011775058
0.00027346026
0.011754861
0.00023989719
0.011729768
0.00021199032
0.011702054
0.00018877261
0.011673239
0.00016933388
0.011644339
0.00015289296
0.011616003
0.00013881182
0.011588629
0.00012659379
0.011562446
0.00011586444
0.011537571
0.00010634494
0.011514052
9.7827005e-05
0.011491889
9.015337e-05
0.011471056
8.3203375e-05
0.011451509
7.6882622e-05
0.011433193
7.1115567e-05
0.011416051
6.5840295e-05
0.011400021
6.1004908e-05
0.011385042
5.6565067e-05
0.011371051
5.2482335e-05
0.01135799
4.8723027e-05
0.011345801
4.5257392e-05
0.011334429
4.2059003e-05
0.011323822
3.9104286e-05
0.011313929
3.6372138e-05
0.011304704
3.3843624e-05
0.011296101
3.1501705e-05
0.01128808
2.9331024e-05
0.011280601
2.7317702e-05
0.011273628
2.5449176e-05
0.011267125
2.3714049e-05
0.011261062
2.2101958e-05
0.011255408
2.0603468e-05
0.011250135
1.920997e-05
0.011245218
1.7913597e-05
0.011240632
1.6707146e-05
0.011236354
1.5584015e-05
0.011232364
1.4538142e-05
0.011228643
1.3563953e-05
0.01122517
1.2656315e-05
0.011221931
1.1810493e-05
0.011218909
1.1022118e-05
0.011216089
1.028715e-05
0.011213457
9.6018522e-06
0.011211002
8.9627686e-06
0.01120871
8.366699e-06
0.011206572
7.8106773e-06
0.011204576
7.2919571e-06
0.011202713
6.807988e-06
0.011200974
6.356402e-06
0.011199351
5.9349969e-06
0.011197836
5.5417203e-06
0.011196421
5.1746628e-06
0.011195101
4.832044e-06
0.011193868
4.5122078e-06
0.011192717
4.2136156e-06
0.011191643
3.9348335e-06
0.01119064
3.6745307e-06
0.011189703
3.4314633e-06
0.011188829
3.2044662e-06
0.011188012
2.9924497e-06
0.01118725
2.7943816e-06
0.011186538
2.6093009e-06
0.011185874
2.4362972e-06
0.011185254
2.2745305e-06
0.011184675
2.123207e-06
0.011184135
1.9816066e-06
0.01118363
1.8490297e-06
0.01118316
1.7248677e-06
0.01118272
1.6084733e-06
0.011182311
1.4993462e-06
0.011181929
1.3968521e-06
0.011181574
1.3006339e-06
0.011181243
1.2100282e-06
0.011180935
1.1249174e-06
0.011180648
1.044501e-06
0.011180382
9.6907854e-07
0.011180135
8.9744094e-07
0.011179905
8.3064845e-07
0.011179693
7.665279e-07
0.011179497
7.0764243e-07
0.011179316
6.497711e-07
0.011179149
5.9856072e-07
0.011178997
5.4554789e-07
0.011178855
5.0263972e-07
0.011178728
4.527164e-07
0.011178608
4.2012696e-07
0.011178504
3.7075008e-07
0.011178404
3.5255097e-07
3.0172394e-07
0.010097182
6.8393553e-05
0.010346961
0.00019901112
0.010662469
0.00028247387
0.010982753
0.00030866648
0.011290229
0.00030874342
0.011575251
0.00029875788
0.011829022
0.00028101346
0.012047865
0.00025698756
0.012233272
0.00023051982
0.01238924
0.0002051459
0.012520295
0.00018256236
0.012630755
0.00016299958
0.012724428
0.00014622491
0.012804515
0.00013190312
0.012873613
0.00011967426
0.012933772
0.00010917461
0.012986596
0.00010006906
0.013033332
9.2076362e-05
0.01307495
8.4975253e-05
0.013112216
7.8598617e-05
0.013145739
7.282231e-05
0.013176012
6.7553946e-05
0.013203441
6.2723931e-05
0.013228366
5.82789e-05
0.013251071
5.4176989e-05
0.013271803
5.038443e-05
0.01329077
4.6873161e-05
0.013308155
4.3619178e-05
0.013324119
4.0601461e-05
0.0133388
3.7801286e-05
0.013352321
3.5201763e-05
0.013364791
3.2787544e-05
0.013376305
3.0544609e-05
0.01338695
2.8460106e-05
0.0133968
2.6522236e-05
0.013405923
2.4720145e-05
0.013414381
2.3043848e-05
0.013422228
2.1484146e-05
0.013429513
2.003256e-05
0.013436281
1.8681274e-05
0.013442572
1.7423072e-05
0.013448422
1.6251294e-05
0.013453866
1.5159787e-05
0.013458933
1.414286e-05
0.013463652
1.3195255e-05
0.013468047
1.2312103e-05
0.013472142
1.1488897e-05
0.013475959
1.0721462e-05
0.013479517
1.0005927e-05
0.013482834
9.3387035e-06
0.013485928
8.7164568e-06
0.013488814
8.1360943e-06
0.013491507
7.5947404e-06
0.013494019
7.0897242e-06
0.013496363
6.6185655e-06
0.013498551
6.178956e-06
0.013500593
5.7687552e-06
0.013502499
5.3859699e-06
0.013504278
5.0287469e-06
0.013505939
4.6953625e-06
0.01350749
4.384206e-06
0.013508938
4.0937798e-06
0.013510289
3.8226831e-06
0.013511552
3.5696105e-06
0.013512731
3.3333495e-06
0.013513832
3.1127652e-06
0.01351486
2.9068095e-06
0.01351582
2.7144999e-06
0.013516716
2.5349211e-06
0.013517554
2.3672187e-06
0.013518335
2.2105844e-06
0.013519065
2.0642625e-06
0.013519747
1.927543e-06
0.013520384
1.7997537e-06
0.013520978
1.6802821e-06
0.013521533
1.5685356e-06
0.01352205
1.463994e-06
0.013522533
1.3661376e-06
0.013522984
1.2745225e-06
0.013523403
1.1886713e-06
0.013523794
1.1082165e-06
0.013524158
1.0326799e-06
0.013524497
9.6181384e-07
0.013524812
8.9509121e-07
0.013525104
8.3247806e-07
0.013525376
7.7330024e-07
0.013525627
7.1789807e-07
0.013525859
6.6520258e-07
0.013526073
6.1625318e-07
0.01352627
5.6905307e-07
0.013526452
5.2605816e-07
0.013526618
4.8330647e-07
0.013526771
4.4614606e-07
0.01352691
4.0665401e-07
0.013527036
3.7587941e-07
0.013527151
3.3817232e-07
0.013527256
3.1532208e-07
0.013527349
2.7736523e-07
0.013527436
2.651182e-07
2.2742662e-07
0.010068394
-4.5513002e-12
0.010267405
-6.104703e-12
0.010549879
-5.8404483e-12
0.010858545
-4.5582686e-12
0.011167288
-2.391003e-12
0.011466046
3.8756765e-13
0.01174706
3.3114589e-12
0.012004047
4.8829576e-12
0.012234567
5.367597e-12
0.012439713
4.1493098e-12
0.012622275
1.6152264e-12
0.012785275
-1.4736716e-12
0.0129315
-3.8936239e-12
0.013063403
-4.9992905e-12
0.013183077
-4.4106525e-12
0.013292252
-2.0057339e-12
0.013392321
1.8169904e-12
0.013484397
5.5931704e-12
0.013569373
8.1070809e-12
0.013647971
8.1426393e-12
0.013720793
6.2690589e-12
0.013788347
2.2293e-12
0.013851071
-2.1173375e-12
0.01390935
-4.988303e-12
0.013963527
-6.5318388e-12
0.014013912
-5.1219812e-12
0.014060785
-1.0157868e-12
0.014104404
4.1846546e-12
0.014145006
9.6859895e-12
0.014182807
1.2553667e-11
0.014218009
1.3255172e-11
0.014250796
1.0883847e-11
0.014281341
6.2665765e-12
0.014309801
2.3745042e-12
0.014336323
-1.256365e-12
0.014361043
-1.4421458e-12
0.014384087
1.83367e-12
0.014405571
7.6235428e-12
0.014425604
1.5273667e-11
0.014444285
2.1660878e-11
0.014461708
2.5770645e-11
0.014477959
2.6056017e-11
0.014493119
2.2747315e-11
0.014507262
1.7966918e-11
0.014520457
1.2907686e-11
0.014532769
1.1123705e-11
0.014544258
1.3613395e-11
0.01455498
1.9907109e-11
0.014564985
2.9381961e-11
0.014574324
3.7995752e-11
0.01458304
4.4358178e-11
0.014591176
4.6145844e-11
0.014598771
4.2702746e-11
0.014605861
3.7089594e-11
0.014612479
3.0079128e-11
0.014618658
2.6157889e-11
0.014624427
2.6921305e-11
0.014629813
3.2202292e-11
0.014634842
4.1720975e-11
0.014639537
4.9999288e-11
0.014643921
5.4750298e-11
0.014648015
5.2207698e-11
0.014651837
4.1254037e-11
0.014655407
2.6208465e-11
0.01465874
7.8998333e-12
0.014661853
-5.687879e-12
0.01466476
-1.1791827e-11
0.014667475
-1.1003299e-11
0.01467001
-2.6489277e-12
0.014672377
-2.0210224e-12
0.014674587
-6.8064769e-12
0.014676652
-2.2301773e-11
0.014678579
-5.0740872e-11
0.014680379
-8.3557571e-11
0.014682059
-1.1905624e-10
0.014683628
-1.4659258e-10
0.014685092
-1.6243477e-10
0.014686459
-1.6670215e-10
0.014687733
-1.6104433e-10
0.014688922
-1.5446908e-10
0.01469003
-1.5505025e-10
0.014691063
-1.6569222e-10
0.014692025
-1.9028504e-10
0.01469292
-2.1759919e-10
0.014693753
-2.4319493e-10
0.014694527
-2.5504954e-10
0.014695245
-2.4793338e-10
0.01469591
-2.23115e-10
0.014696527
-1.8665938e-10
0.014697096
-1.4604479e-10
0.014697622
-1.1384543e-10
0.014698105
-8.8471877e-11
0.014698551
-7.5122687e-11
0.014698958
-5.643833e-11
0.014699334
-3.9658767e-11
0.014699672
2.7344868e-12
0.014699988
6.4807072e-11
0.014700265
1.5703036e-10
0.01470053
2.9257588e-10
2.4600063e-10
0.010068394
-6.8393561e-05
0.010267405
-0.00019901113
0.010549879
-0.00028247388
0.010858545
-0.00030866649
0.011167288
-0.00030874342
0.011466046
-0.00029875788
0.01174706
-0.00028101345
0.012004047
-0.00025698755
0.012234567
-0.00023051981
0.012439713
-0.00020514589
0.012622275
-0.00018256236
0.012785275
-0.00016299958
0.0129315
-0.00014622492
0.013063403
-0.00013190313
0.013183077
-0.00011967427
0.013292252
-0.00010917461
0.013392321
-0.00010006906
0.013484397
-9.207635e-05
0.013569373
-8.4975237e-05
0.013647971
-7.8598602e-05
0.013720793
-7.28223e-05
0.013788347
-6.7553944e-05
0.013851071
-6.2723938e-05
0.01390935
-5.8278912e-05
0.013963527
-5.4177001e-05
0.014013912
-5.0384437e-05
0.014060785
-4.6873159e-05
0.014104404
-4.3619164e-05
0.014145006
-4.0601439e-05
0.014182807
-3.7801259e-05
0.014218009
-3.5201737e-05
0.014250796
-3.2787526e-05
0.014281341
-3.0544601e-05
0.014309801
-2.8460106e-05
0.014336323
-2.652224e-05
0.014361043
-2.4720147e-05
0.014384087
-2.3043841e-05
0.014405571
-2.1484125e-05
0.014425604
-2.0032526e-05
0.014444285
-1.8681229e-05
0.014461708
-1.7423023e-05
0.014477959
-1.6251249e-05
0.014493119
-1.515975e-05
0.014507262
-1.4142834e-05
0.014520457
-1.3195236e-05
0.014532769
-1.2312083e-05
0.014544258
-1.1488869e-05
0.01455498
-1.0721418e-05
0.014564985
-1.0005865e-05
0.014574324
-9.338627e-06
0.014583041
-8.7163732e-06
0.014591177
-8.1360133e-06
0.014598771
-7.5946693e-06
0.014605861
-7.0896663e-06
0.014612479
-6.6185176e-06
0.014618658
-6.1789104e-06
0.014624427
-5.7687023e-06
0.014629813
-5.3859011e-06
0.014634842
-5.0286602e-06
0.014639537
-4.6952627e-06
0.014643921
-4.3841043e-06
0.014648015
-4.0936917e-06
0.014651838
-3.8226208e-06
0.014655407
-3.5695808e-06
0.014658741
-3.3333487e-06
0.014661853
-3.1127818e-06
0.01466476
-2.9068286e-06
0.014667475
-2.7145093e-06
0.01467001
-2.5349195e-06
0.014672377
-2.3672158e-06
0.014674588
-2.210599e-06
0.014676652
-2.0643199e-06
0.014678579
-1.9276593e-06
0.014680379
-1.799937e-06
0.014682059
-1.6805223e-06
0.014683628
-1.5688158e-06
0.014685092
-1.464289e-06
0.014686459
-1.3664298e-06
0.014687734
-1.2748023e-06
0.014688922
-1.1889482e-06
0.01469003
-1.1085051e-06
0.014691063
-1.0330064e-06
0.014692025
-9.6218834e-07
0.01469292
-8.9551961e-07
0.014693753
-8.3293933e-07
0.014694527
-7.7377049e-07
0.014695245
-7.1833946e-07
0.01469591
-6.6559291e-07
0.014696527
-6.1657449e-07
0.014697096
-5.6931403e-07
0.014697622
-5.2626567e-07
0.014698105
-4.8348407e-07
0.014698551
-4.4629453e-07
0.014698958
-4.0677393e-07
0.014699334
-3.7595231e-07
0.014699672
-3.3816519e-07
0.014699987
-3.1521624e-07
0.014700265
-2.7712319e-07
0.01470053
-2.6472204e-07
-2.2707784e-07
0.010097182
-0.00016557516
0.010346961
-0.00044879101
0.010662469
-0.00059798178
0.010982753
-0.00062895025
0.011290229
-0.00061621886
0.011575251
-0.00058378055
0.011829022
-0.00053478419
0.012047865
-0.00047583048
0.012233272
-0.00041592665
0.01238924
-0.000361114
0.012520295
-0.00031361713
0.012630755
-0.00027346027
0.012724428
-0.0002398972
0.012804515
-0.00021199032
0.012873613
-0.00018877261
0.012933772
-0.00016933387
0.012986596
-0.00015289294
0.013033332
-0.00013881181
0.01307495
-0.00012659377
0.013112216
-0.00011586444
0.013145739
-0.00010634494
0.013176012
-9.7827015e-05
0.013203441
-9.0153383e-05
0.013228366
-8.3203387e-05
0.013251071
-7.6882626e-05
0.013271803
-7.1115561e-05
0.01329077
-6.584028e-05
0.013308155
-6.1004885e-05
0.013324119
-5.6565044e-05
0.0133388
-5.2482317e-05
0.013352321
-4.8723018e-05
0.013364791
-4.5257393e-05
0.013376305
-4.205901e-05
0.01338695
-3.9104294e-05
0.0133968
-3.6372141e-05
0.013405923
-3.3843615e-05
0.013414381
-3.1501684e-05
0.013422228
-2.9330991e-05
0.013429513
-2.7317664e-05
0.013436281
-2.5449139e-05
0.013442572
-2.371402e-05
0.013448422
-2.210194e-05
0.013453866
-2.0603459e-05
0.013458933
-1.9209966e-05
0.013463652
-1.7913587e-05
0.013468047
-1.6707123e-05
0.013472142
-1.5583975e-05
0.013475959
-1.4538086e-05
0.013479517
-1.3563888e-05
0.013482834
-1.2656249e-05
0.013485928
-1.1810438e-05
0.013488814
-1.1022077e-05
0.013491507
-1.0287121e-05
0.013494019
-9.601831e-06
0.013496363
-8.9627415e-06
0.013498551
-8.3666566e-06
0.013500593
-7.810614e-06
0.013502499
-7.2918747e-06
0.013504278
-6.8078988e-06
0.013505939
-6.3563193e-06
0.01350749
-5.9349369e-06
0.013508938
-5.541691e-06
0.01351029
-5.1746616e-06
0.013511552
-4.8320619e-06
0.013512731
-4.5122256e-06
0.013513832
-4.2136196e-06
0.01351486
-3.9348175e-06
0.01351582
-3.6744998e-06
0.013516717
-3.431439e-06
0.013517554
-3.20447e-06
0.013518336
-2.9925042e-06
0.013519066
-2.7944965e-06
0.013519747
-2.6094683e-06
0.013520384
-2.4365004e-06
0.013520978
-2.2747425e-06
0.013521533
-2.1234089e-06
0.013522051
-1.9817933e-06
0.013522534
-1.8492067e-06
0.013522984
-1.7250602e-06
0.013523403
-1.6087003e-06
0.013523794
-1.4996261e-06
0.013524158
-1.3971837e-06
0.013524497
-1.3010014e-06
0.013524812
-1.2104045e-06
0.013525104
-1.125277e-06
0.013525375
-1.0448216e-06
0.013525626
-9.6936119e-07
0.013525859
-8.9768718e-07
0.013526073
-8.3087732e-07
0.01352627
-7.6674348e-07
0.013526451
-7.0784773e-07
0.013526617
-6.4994753e-07
0.01352677
-5.9869949e-07
0.013526909
-5.4562573e-07
0.013527036
-5.026672e-07
0.01352715
-4.5269578e-07
0.013527255
-4.2008813e-07
0.013527348
-3.7071031e-07
0.013527436
-3.5254739e-07
-3.0165526e-07
0.010188704
-0.00035427933
0.010530487
-0.00079057336
0.010851453
-0.00091894821
0.011124174
-0.00090167137
0.011350581
-0.00084262623
0.011524487
-0.00075768558
0.01164633
-0.00065662742
0.011724155
-0.00055365586
0.011767999
-0.00045977083
0.011786639
-0.00037975355
0.011787114
-0.0003140926
0.011775058
-0.00026140427
0.011754861
-0.00021969949
0.011729768
-0.00018689786
0.011702054
-0.00016105801
0.011673239
-0.00014051893
0.011644339
-0.00012399295
0.011616003
-0.00011047599
0.011588629
-9.9219866e-05
0.011562446
-8.9681407e-05
0.011537571
-8.1470679e-05
0.011514052
-7.4307861e-05
0.011491889
-6.7990509e-05
0.011471056
-6.2369997e-05
0.011451509
-5.7335014e-05
0.011433193
-5.2800176e-05
0.011416051
-4.8698252e-05
0.011400021
-4.497494e-05
0.011385042
-4.158538e-05
0.011371051
-3.8491843e-05
0.01135799
-3.566216e-05
0.011345801
-3.3068621e-05
0.011334429
-3.0687183e-05
0.011323822
-2.8496858e-05
0.011313929
-2.6479244e-05
0.011304704
-2.461814e-05
0.011296101
-2.2899234e-05
0.01128808
-2.1309834e-05
0.011280601
-1.9838649e-05
0.011273628
-1.84756e-05
0.011267125
-1.7211661e-05
0.011261062
-1.6038723e-05
0.011255408
-1.494948e-05
0.011250135
-1.3937335e-05
0.011245218
-1.2996314e-05
0.011240632
-1.2120993e-05
0.011236355
-1.1306436e-05
0.011232365
-1.0548134e-05
0.011228643
-9.8419608e-06
0.01122517
-9.184127e-06
0.011221931
-8.5711469e-06
0.011218909
-7.9998102e-06
0.011216089
-7.4671597e-06
0.011213457
-6.9704693e-06
0.011211002
-6.5072288e-06
0.011208711
-6.0751227e-06
0.011206572
-5.672012e-06
0.011204576
-5.2959159e-06
0.011202713
-4.944991e-06
0.011200974
-4.6175204e-06
0.011199351
-4.311899e-06
0.011197836
-4.0266294e-06
0.011196422
-3.7603207e-06
0.011195101
-3.5116818e-06
0.011193869
-3.2795252e-06
0.011192718
-3.0627528e-06
0.011191644
-2.8603485e-06
0.011190641
-2.6713624e-06
0.011189704
-2.4948966e-06
0.011188829
-2.3300965e-06
0.011188013
-2.1761521e-06
0.01118725
-2.0322921e-06
0.011186539
-1.8978083e-06
0.011185874
-1.7720365e-06
0.011185254
-1.6543873e-06
0.011184675
-1.5443035e-06
0.011184135
-1.4412875e-06
0.011183631
-1.344839e-06
0.01118316
-1.254509e-06
0.01118272
-1.1698079e-06
0.011182311
-1.0903411e-06
0.011181929
-1.0156336e-06
0.011181573
-9.4541028e-07
0.011181242
-8.7922213e-07
0.011180934
-8.1697804e-07
0.011180648
-7.5818131e-07
0.011180381
-7.0297821e-07
0.011180134
-6.5063577e-07
0.011179904
-6.0168385e-07
0.011179692
-5.5486974e-07
0.011179496
-5.1151258e-07
0.011179315
-4.6937159e-07
0.011179148
-4.3135188e-07
0.011178995
-3.9320454e-07
0.011178854
-3.6084495e-07
0.011178727
-3.2587961e-07
0.011178607
-3.0027261e-07
0.011178503
-2.6738585e-07
0.011178403
-2.5214585e-07
-2.1794886e-07
0.010339525
-0.00069380426
0.010570754
-0.0010218027
0.010606301
-0.00095449449
0.010547573
-0.00084294333
0.010422317
-0.00071737079
0.010244356
-0.00057972443
0.010039421
-0.00045169204
0.0098287426
-0.00034297801
0.009625135
-0.00025616319
0.0094353012
-0.00018991985
0.0092624276
-0.00014121898
0.0091075332
-0.0001065098
0.008970154
-8.2320217e-05
0.0088489024
-6.5646233e-05
0.0087419716
-5.4127239e-05
0.0086474927
-4.6040035e-05
0.008563694
-4.0194285e-05
0.0084890107
-3.5792758e-05
0.0084221096
-3.2318768e-05
0.0083618775
-2.9449294e-05
0.0083073954
-2.6988588e-05
0.0082579079
-2.4820307e-05
0.0082127929
-2.2875479e-05
0.0081715354
-2.1112409e-05
0.008133705
-1.9504643e-05
0.0080989388
-1.8034006e-05
0.0080669273
-1.668672e-05
0.0080374036
-1.5451365e-05
0.0080101361
-1.4317871e-05
0.0079849213
-1.3277084e-05
0.0079615797
-1.2320603e-05
0.0079399518
-1.1440727e-05
0.0079198952
-1.0630433e-05
0.0079012817
-9.8833563e-06
0.0078839963
-9.1937577e-06
0.0078679346
-8.5564823e-06
0.0078530023
-7.9669103e-06
0.0078391133
-7.4209037e-06
0.0078261894
-6.9147548e-06
0.0078141588
-6.4451387e-06
0.0078029562
-6.0090669e-06
0.0077925213
-5.6038509e-06
0.007782799
-5.2270657e-06
0.0077737382
-4.8765191e-06
0.0077652922
-4.5502255e-06
0.0077574177
-4.2463778e-06
0.0077500745
-3.963328e-06
0.0077432259
-3.6995653e-06
0.0077368376
-3.4537003e-06
0.0077308778
-3.2244543e-06
0.0077253173
-3.0106462e-06
0.0077201286
-2.8111894e-06
0.0077152866
-2.625083e-06
0.0077107677
-2.4514061e-06
0.0077065499
-2.2893127e-06
0.0077026128
-2.1380194e-06
0.0076989376
-1.9968014e-06
0.0076955066
-1.8649808e-06
0.0076923034
-1.7419208e-06
0.0076893128
-1.6270258e-06
0.0076865205
-1.5197345e-06
0.0076839134
-1.4195286e-06
0.0076814791
-1.3259286e-06
0.0076792061
-1.2384961e-06
0.0076770836
-1.1568323e-06
0.0076751015
-1.0805665e-06
0.0076732505
-1.0093529e-06
0.0076715218
-9.4286007e-07
0.0076699075
-8.807642e-07
0.0076683999
-8.2275807e-07
0.0076669922
-7.6854317e-07
0.0076656778
-7.1785022e-07
0.0076644506
-6.7043317e-07
0.0076633048
-6.2607608e-07
0.0076622352
-5.8458664e-07
0.0076612368
-5.4578466e-07
0.0076603049
-5.0949491e-07
0.0076594353
-4.7553929e-07
0.0076586242
-4.4373597e-07
0.0076578679
-4.1390394e-07
0.0076571633
-3.8588267e-07
0.0076565072
-3.595141e-07
0.0076558967
-3.3470375e-07
0.0076553289
-3.1131939e-07
0.0076548014
-2.8933798e-07
0.0076543117
-2.6860019e-07
0.0076538576
-2.4914148e-07
0.0076534372
-2.3069981e-07
0.0076530487
-2.1342275e-07
0.0076526905
-1.9688928e-07
0.0076523605
-1.8151641e-07
0.0076520578
-1.6662857e-07
0.0076517796
-1.5310487e-07
0.0076515261
-1.3975583e-07
0.0076512933
-1.2812223e-07
0.0076510835
-1.1621228e-07
0.0076508897
-1.0652623e-07
0.0076507187
-9.6437154e-08
0.0076505558
-8.9406036e-08
-8.5893938e-08
0.0093061957
0.0082843931
0.0073298986
0.0064869553
0.0057695845
0.00518986
0.004738168
0.0043951899
0.0041390268
0.0039491069
0.003807888
0.0037013782
0.003619058
0.0035534118
0.0034992845
0.0034532444
0.0034130501
0.0033772574
0.0033449386
0.0033154893
0.0032885007
0.0032636805
0.003240805
0.0032196926
0.003200188
0.0031821539
0.0031654672
0.0031500158
0.0031356979
0.0031224208
0.0031101002
0.0030986595
0.0030880291
0.0030781458
0.003068952
0.0030603955
0.0030524286
0.0030450077
0.0030380929
0.0030316477
0.0030256387
0.0030200349
0.0030148078
0.0030099314
0.0030053811
0.0030011348
0.0029971714
0.0029934718
0.002990018
0.0029867936
0.0029837829
0.0029809718
0.0029783468
0.0029758954
0.0029736061
0.0029714681
0.0029694712
0.0029676062
0.0029658642
0.0029642371
0.0029627174
0.002961298
0.0029599721
0.0029587337
0.0029575769
0.0029564963
0.0029554869
0.0029545439
0.002953663
0.0029528402
0.0029520718
0.002951354
0.0029506837
0.0029500578
0.0029494732
0.0029489274
0.0029484177
0.0029479421
0.0029474983
0.0029470844
0.0029466986
0.0029463393
0.0029460048
0.0029456936
0.0029454043
0.0029451357
0.0029448865
0.0029446558
0.0029444425
0.0029442458
0.0029440645
0.0029438981
0.0029437452
0.0029436055
0.0029434776
0.0029433615
0.0029432552
0.0029431589
0.0029430696
)
;

boundaryField
{
    top
    {
        type            calculated;
        value           uniform 0;
    }
    inlet
    {
        type            calculated;
        value           nonuniform List<scalar> 10(-0.01 -0.01 -0.01 -0.01 -0.01 -0.01 -0.01 -0.01 -0.01 -0.01);
    }
    outlet
    {
        type            calculated;
        value           nonuniform List<scalar> 10(0.0029429848 0.0076504253 0.01117832 0.013527511 0.014700757 0.014700757 0.013527511 0.011178319 0.0076504238 0.002942984);
    }
    bottom
    {
        type            calculated;
        value           uniform 0;
    }
    back
    {
        type            empty;
        value           nonuniform 0();
    }
    front
    {
        type            empty;
        value           nonuniform 0();
    }
}


// ************************************************************************* //
