/*--------------------------------*- C++ -*----------------------------------*\
| =========                 |                                                 |
| \\      /  F ield         | OpenFOAM: The Open Source CFD Toolbox           |
|  \\    /   O peration     | Version:  v1812                                 |
|   \\  /    A nd           | Web:      www.OpenFOAM.com                      |
|    \\/     M anipulation  |                                                 |
\*---------------------------------------------------------------------------*/
FoamFile
{
    version     2.0;
    format      ascii;
    class       volScalarField;
    location    "120";
    object      T;
}
// * * * * * * * * * * * * * * * * * * * * * * * * * * * * * * * * * * * * * //

dimensions      [0 0 0 1 0 0 0];


internalField   nonuniform List<scalar> 
10000
(
1.46134
1.46134
1.46134
1.46134
1.46134
1.46134
1.46134
1.46134
1.46134
1.46134
1.38419
1.38419
1.38418
1.38418
1.38418
1.38418
1.38418
1.38418
1.38418
1.38418
1.30752
1.30751
1.3075
1.3075
1.3075
1.3075
1.3075
1.3075
1.3075
1.30751
1.23164
1.23163
1.23162
1.23161
1.23161
1.23161
1.23161
1.23162
1.23162
1.23163
1.15686
1.15685
1.15684
1.15683
1.15683
1.15683
1.15683
1.15683
1.15684
1.15685
1.08347
1.08346
1.08345
1.08344
1.08343
1.08343
1.08343
1.08344
1.08345
1.08346
1.01175
1.01173
1.01172
1.01171
1.0117
1.0117
1.01171
1.01171
1.01172
1.01173
0.941946
0.941925
0.94191
0.9419
0.941894
0.941893
0.941895
0.941902
0.941913
0.941926
0.87429
0.874267
0.874251
0.874239
0.874233
0.874231
0.874234
0.874242
0.874253
0.874268
0.808989
0.808963
0.808946
0.808934
0.808927
0.808925
0.808928
0.808936
0.808949
0.808964
0.746221
0.746194
0.746176
0.746163
0.746155
0.746152
0.746155
0.746164
0.746177
0.746193
0.686138
0.68611
0.68609
0.686076
0.686067
0.686064
0.686067
0.686075
0.686088
0.686105
0.628862
0.628833
0.628812
0.628797
0.628787
0.628782
0.628784
0.628791
0.628805
0.628822
0.574486
0.574456
0.574434
0.574417
0.574405
0.574399
0.574399
0.574406
0.574418
0.574436
0.523075
0.523044
0.52302
0.523001
0.522987
0.522979
0.522976
0.522981
0.522992
0.523009
0.474664
0.474633
0.474607
0.474585
0.474568
0.474556
0.47455
0.474552
0.474561
0.474577
0.429265
0.429232
0.429204
0.429178
0.429155
0.429138
0.429128
0.429125
0.429131
0.429145
0.38686
0.386825
0.386793
0.386762
0.386733
0.386708
0.386691
0.386682
0.386683
0.386695
0.347411
0.347374
0.347337
0.347297
0.347259
0.347224
0.347196
0.347178
0.347172
0.34718
0.310857
0.310817
0.310772
0.310722
0.31067
0.31062
0.310577
0.310546
0.31053
0.310532
0.277119
0.277074
0.277019
0.276954
0.276883
0.276812
0.276748
0.276698
0.276667
0.276661
0.246101
0.24605
0.245981
0.245895
0.245799
0.245698
0.245604
0.245526
0.245474
0.245456
0.217697
0.217637
0.217549
0.217435
0.217302
0.217161
0.217023
0.216905
0.216821
0.216785
0.191788
0.191716
0.191603
0.191451
0.19127
0.19107
0.190871
0.190693
0.190562
0.190498
0.168249
0.168162
0.168016
0.167815
0.167568
0.167289
0.167001
0.166736
0.166531
0.166424
0.146951
0.146845
0.146659
0.146396
0.146063
0.145676
0.145262
0.144864
0.144542
0.144363
0.127765
0.127637
0.127403
0.127063
0.126621
0.126091
0.1255
0.124902
0.124388
0.124081
0.110562
0.110409
0.110122
0.109693
0.109122
0.108409
0.107575
0.106675
0.105834
0.105279
0.0952161
0.095038
0.0946944
0.0941725
0.0934562
0.0925283
0.09138
0.0900369
0.0886265
0.0875286
0.0816029
0.0814019
0.0810072
0.0803971
0.0795393
0.0783871
0.0768775
0.0749393
0.0725546
0.0700985
1.46134
1.46134
1.46134
1.46134
1.46134
1.46134
1.46134
1.46134
1.46134
1.46134
1.38419
1.38418
1.38418
1.38417
1.38417
1.38417
1.38417
1.38417
1.38418
1.38418
1.30751
1.3075
1.30749
1.30749
1.30749
1.30749
1.30749
1.30749
1.30749
1.3075
1.23163
1.23162
1.23161
1.2316
1.2316
1.2316
1.2316
1.2316
1.23161
1.23162
1.15685
1.15683
1.15682
1.15682
1.15681
1.15681
1.15681
1.15682
1.15683
1.15684
1.08346
1.08344
1.08343
1.08342
1.08342
1.08342
1.08342
1.08342
1.08343
1.08345
1.01173
1.01171
1.0117
1.01169
1.01169
1.01169
1.01169
1.01169
1.0117
1.01172
0.941925
0.941904
0.94189
0.94188
0.941874
0.941873
0.941876
0.941883
0.941895
0.941912
0.874267
0.874245
0.874229
0.874218
0.874212
0.87421
0.874214
0.874222
0.874235
0.874253
0.808964
0.80894
0.808923
0.808911
0.808904
0.808903
0.808906
0.808915
0.808928
0.808948
0.746195
0.74617
0.746152
0.746139
0.746131
0.746129
0.746132
0.746141
0.746155
0.746176
0.686111
0.686085
0.686065
0.686051
0.686043
0.68604
0.686043
0.686051
0.686066
0.686088
0.628834
0.628807
0.628786
0.628771
0.628761
0.628757
0.628759
0.628767
0.628782
0.628805
0.574458
0.574429
0.574408
0.574391
0.57438
0.574374
0.574374
0.574381
0.574396
0.574418
0.523047
0.523017
0.522994
0.522975
0.522961
0.522953
0.522951
0.522956
0.52297
0.522992
0.474636
0.474606
0.474581
0.474559
0.474542
0.47453
0.474525
0.474527
0.474538
0.474559
0.429237
0.429206
0.429178
0.429152
0.42913
0.429113
0.429103
0.429101
0.429109
0.429128
0.386833
0.3868
0.386768
0.386737
0.386708
0.386684
0.386666
0.386658
0.386661
0.386678
0.347384
0.347349
0.347312
0.347273
0.347235
0.3472
0.347172
0.347155
0.347151
0.347163
0.310831
0.310792
0.310748
0.310698
0.310647
0.310597
0.310554
0.310523
0.310509
0.310516
0.277094
0.277051
0.276996
0.276931
0.276861
0.27679
0.276726
0.276676
0.276648
0.276646
0.246078
0.246028
0.245959
0.245874
0.245777
0.245677
0.245583
0.245506
0.245455
0.245442
0.217675
0.217616
0.217529
0.217415
0.217282
0.217141
0.217003
0.216886
0.216804
0.216772
0.191767
0.191696
0.191584
0.191432
0.191251
0.191052
0.190852
0.190675
0.190546
0.190486
0.168229
0.168143
0.167998
0.167798
0.16755
0.167272
0.166984
0.166719
0.166515
0.166412
0.146933
0.146828
0.146643
0.146379
0.146046
0.14566
0.145246
0.144849
0.144528
0.144352
0.127749
0.127621
0.127388
0.127048
0.126607
0.126077
0.125486
0.124889
0.124375
0.124071
0.110547
0.110395
0.110108
0.10968
0.109108
0.108396
0.107562
0.106663
0.105823
0.10527
0.0952024
0.0950251
0.0946818
0.0941601
0.0934441
0.0925164
0.0913685
0.090026
0.0886166
0.0875212
0.0815905
0.0813903
0.0809958
0.080386
0.0795285
0.0783765
0.0768673
0.0749297
0.0725459
0.070092
1.46134
1.46134
1.46134
1.46134
1.46134
1.46134
1.46134
1.46134
1.46134
1.46134
1.38418
1.38418
1.38417
1.38417
1.38417
1.38417
1.38417
1.38417
1.38417
1.38418
1.3075
1.30749
1.30749
1.30748
1.30748
1.30748
1.30748
1.30749
1.30749
1.3075
1.23162
1.23161
1.2316
1.2316
1.23159
1.23159
1.23159
1.2316
1.2316
1.23161
1.15684
1.15682
1.15681
1.15681
1.1568
1.1568
1.15681
1.15681
1.15682
1.15683
1.08345
1.08343
1.08342
1.08341
1.08341
1.08341
1.08341
1.08341
1.08342
1.08344
1.01172
1.0117
1.01169
1.01168
1.01167
1.01167
1.01168
1.01168
1.01169
1.01171
0.941911
0.94189
0.941876
0.941866
0.941861
0.94186
0.941863
0.941871
0.941884
0.941901
0.874251
0.87423
0.874214
0.874203
0.874197
0.874196
0.8742
0.874208
0.874222
0.874242
0.808947
0.808924
0.808907
0.808896
0.808889
0.808888
0.808891
0.808901
0.808915
0.808936
0.746178
0.746153
0.746135
0.746122
0.746115
0.746113
0.746117
0.746126
0.746142
0.746164
0.686093
0.686067
0.686048
0.686035
0.686026
0.686024
0.686027
0.686036
0.686052
0.686075
0.628816
0.628789
0.628769
0.628754
0.628744
0.628741
0.628743
0.628752
0.628768
0.628792
0.574439
0.574411
0.57439
0.574374
0.574362
0.574357
0.574358
0.574366
0.574381
0.574405
0.523028
0.522999
0.522976
0.522958
0.522944
0.522936
0.522935
0.522941
0.522955
0.522979
0.474618
0.474588
0.474563
0.474542
0.474525
0.474513
0.474509
0.474512
0.474524
0.474547
0.429219
0.429188
0.42916
0.429135
0.429113
0.429097
0.429087
0.429086
0.429095
0.429115
0.386815
0.386782
0.386751
0.38672
0.386692
0.386668
0.386651
0.386643
0.386647
0.386665
0.347367
0.347332
0.347295
0.347257
0.347219
0.347184
0.347157
0.34714
0.347137
0.347151
0.310814
0.310776
0.310732
0.310683
0.310631
0.310582
0.31054
0.31051
0.310497
0.310505
0.277078
0.277035
0.276981
0.276916
0.276846
0.276776
0.276712
0.276663
0.276635
0.276635
0.246063
0.246013
0.245945
0.24586
0.245763
0.245664
0.24557
0.245493
0.245444
0.245431
0.217661
0.217602
0.217515
0.217402
0.217269
0.217128
0.216991
0.216874
0.216793
0.216762
0.191754
0.191683
0.191571
0.19142
0.191238
0.19104
0.190841
0.190664
0.190535
0.190477
0.168217
0.168131
0.167986
0.167786
0.167539
0.167261
0.166973
0.166709
0.166506
0.166404
0.146922
0.146817
0.146632
0.146369
0.146036
0.145649
0.145236
0.14484
0.144519
0.144345
0.127738
0.127611
0.127378
0.127038
0.126597
0.126067
0.125477
0.12488
0.124368
0.124065
0.110537
0.110386
0.110099
0.109671
0.109099
0.108387
0.107554
0.106655
0.105816
0.105264
0.0951937
0.0950165
0.0946735
0.0941521
0.0934362
0.0925089
0.0913613
0.0900192
0.0886104
0.0875158
0.0815826
0.0813826
0.0809884
0.0803787
0.0795214
0.0783698
0.0768609
0.0749237
0.0725405
0.0700872
1.46134
1.46134
1.46134
1.46133
1.46133
1.46133
1.46133
1.46133
1.46134
1.46134
1.38418
1.38417
1.38417
1.38417
1.38417
1.38417
1.38417
1.38417
1.38417
1.38417
1.3075
1.30749
1.30748
1.30748
1.30748
1.30748
1.30748
1.30748
1.30749
1.30749
1.23162
1.2316
1.2316
1.23159
1.23159
1.23159
1.23159
1.23159
1.2316
1.23161
1.15683
1.15682
1.15681
1.1568
1.1568
1.1568
1.1568
1.1568
1.15681
1.15682
1.08344
1.08342
1.08341
1.0834
1.0834
1.0834
1.0834
1.08341
1.08342
1.08343
1.01171
1.01169
1.01168
1.01167
1.01167
1.01167
1.01167
1.01168
1.01169
1.0117
0.941901
0.941881
0.941867
0.941857
0.941852
0.941851
0.941855
0.941864
0.941877
0.941895
0.874241
0.874219
0.874204
0.874194
0.874188
0.874187
0.874191
0.8742
0.874215
0.874234
0.808937
0.808913
0.808897
0.808885
0.808879
0.808878
0.808882
0.808892
0.808907
0.808929
0.746166
0.746142
0.746124
0.746112
0.746105
0.746103
0.746107
0.746117
0.746134
0.746156
0.686081
0.686056
0.686037
0.686024
0.686016
0.686013
0.686017
0.686027
0.686044
0.686067
0.628804
0.628777
0.628757
0.628743
0.628734
0.62873
0.628733
0.628743
0.628759
0.628784
0.574427
0.5744
0.574379
0.574362
0.574352
0.574347
0.574348
0.574356
0.574372
0.574397
0.523016
0.522987
0.522965
0.522947
0.522933
0.522926
0.522925
0.522931
0.522946
0.522971
0.474606
0.474576
0.474552
0.474531
0.474514
0.474503
0.474499
0.474502
0.474515
0.474539
0.429207
0.429176
0.429149
0.429124
0.429103
0.429086
0.429077
0.429076
0.429086
0.429108
0.386804
0.386771
0.38674
0.38671
0.386681
0.386658
0.386641
0.386634
0.386639
0.386658
0.347356
0.347321
0.347285
0.347247
0.347209
0.347175
0.347148
0.347132
0.347129
0.347144
0.310804
0.310766
0.310722
0.310673
0.310622
0.310573
0.310531
0.310501
0.310489
0.310498
0.277068
0.277025
0.276971
0.276907
0.276837
0.276767
0.276704
0.276655
0.276628
0.276629
0.246053
0.246004
0.245936
0.245851
0.245755
0.245655
0.245562
0.245486
0.245437
0.245425
0.217652
0.217593
0.217506
0.217393
0.217261
0.21712
0.216984
0.216867
0.216787
0.216756
0.191745
0.191675
0.191563
0.191412
0.191231
0.191032
0.190834
0.190658
0.19053
0.190472
0.168209
0.168124
0.167979
0.167779
0.167532
0.167254
0.166967
0.166703
0.166501
0.166399
0.146914
0.14681
0.146625
0.146362
0.14603
0.145643
0.145231
0.144834
0.144515
0.14434
0.127731
0.127605
0.127372
0.127032
0.126591
0.126062
0.125472
0.124875
0.124363
0.124061
0.110531
0.11038
0.110093
0.109665
0.109094
0.108382
0.10755
0.106651
0.105812
0.105261
0.0951882
0.0950112
0.0946684
0.0941471
0.0934315
0.0925044
0.0913571
0.0900154
0.088607
0.0875126
0.0815777
0.0813778
0.0809838
0.0803743
0.0795173
0.0783658
0.0768572
0.0749204
0.0725375
0.0700845
1.46134
1.46134
1.46134
1.46133
1.46133
1.46133
1.46133
1.46133
1.46134
1.46134
1.38418
1.38417
1.38417
1.38417
1.38416
1.38416
1.38417
1.38417
1.38417
1.38417
1.3075
1.30749
1.30748
1.30748
1.30748
1.30748
1.30748
1.30748
1.30749
1.30749
1.23161
1.2316
1.23159
1.23159
1.23159
1.23159
1.23159
1.23159
1.2316
1.23161
1.15683
1.15681
1.1568
1.1568
1.15679
1.15679
1.1568
1.1568
1.15681
1.15682
1.08343
1.08342
1.08341
1.0834
1.0834
1.0834
1.0834
1.08341
1.08342
1.08343
1.01171
1.01169
1.01168
1.01167
1.01166
1.01166
1.01167
1.01167
1.01168
1.0117
0.941896
0.941876
0.941862
0.941853
0.941848
0.941848
0.941852
0.94186
0.941874
0.941892
0.874236
0.874214
0.874199
0.874189
0.874183
0.874183
0.874187
0.874197
0.874211
0.874231
0.808931
0.808908
0.808892
0.808881
0.808874
0.808874
0.808878
0.808888
0.808904
0.808926
0.74616
0.746136
0.746119
0.746107
0.7461
0.746099
0.746103
0.746114
0.74613
0.746153
0.686075
0.68605
0.686032
0.686019
0.686011
0.686009
0.686013
0.686023
0.68604
0.686065
0.628798
0.628771
0.628752
0.628738
0.628729
0.628726
0.628729
0.628739
0.628756
0.628781
0.574421
0.574394
0.574373
0.574357
0.574347
0.574342
0.574344
0.574353
0.574369
0.574394
0.52301
0.522982
0.522959
0.522942
0.522929
0.522921
0.522921
0.522928
0.522943
0.522968
0.4746
0.474571
0.474547
0.474526
0.47451
0.474499
0.474495
0.474499
0.474513
0.474536
0.429202
0.429171
0.429144
0.429119
0.429098
0.429082
0.429074
0.429073
0.429084
0.429105
0.386798
0.386766
0.386735
0.386705
0.386677
0.386654
0.386638
0.386631
0.386637
0.386656
0.347351
0.347316
0.34728
0.347242
0.347205
0.347171
0.347145
0.347129
0.347127
0.347142
0.310799
0.310761
0.310718
0.310669
0.310618
0.310569
0.310528
0.310499
0.310487
0.310496
0.277063
0.277021
0.276967
0.276903
0.276833
0.276764
0.276701
0.276653
0.276626
0.276627
0.246049
0.246
0.245932
0.245847
0.245752
0.245652
0.245559
0.245484
0.245435
0.245424
0.217648
0.21759
0.217503
0.21739
0.217258
0.217118
0.216981
0.216865
0.216785
0.216755
0.191742
0.191672
0.19156
0.191409
0.191228
0.19103
0.190832
0.190656
0.190528
0.19047
0.168206
0.16812
0.167976
0.167776
0.16753
0.167252
0.166965
0.166702
0.166499
0.166398
0.146911
0.146807
0.146622
0.14636
0.146027
0.145641
0.145229
0.144833
0.144514
0.14434
0.127729
0.127602
0.127369
0.12703
0.126589
0.12606
0.12547
0.124874
0.124362
0.12406
0.110529
0.110377
0.110091
0.109663
0.109092
0.108381
0.107548
0.10665
0.105812
0.10526
0.095186
0.0950091
0.0946665
0.0941454
0.09343
0.0925031
0.091356
0.0900145
0.0886063
0.0875121
0.0815758
0.081376
0.0809821
0.0803728
0.0795159
0.0783646
0.0768562
0.0749196
0.0725369
0.070084
1.46134
1.46134
1.46134
1.46133
1.46133
1.46133
1.46133
1.46133
1.46134
1.46134
1.38418
1.38417
1.38417
1.38417
1.38416
1.38416
1.38417
1.38417
1.38417
1.38417
1.3075
1.30749
1.30748
1.30748
1.30748
1.30748
1.30748
1.30748
1.30749
1.30749
1.23161
1.2316
1.23159
1.23159
1.23159
1.23158
1.23159
1.23159
1.2316
1.23161
1.15683
1.15681
1.1568
1.1568
1.15679
1.15679
1.1568
1.1568
1.15681
1.15682
1.08343
1.08342
1.08341
1.0834
1.0834
1.0834
1.0834
1.08341
1.08342
1.08343
1.0117
1.01169
1.01167
1.01167
1.01166
1.01166
1.01167
1.01167
1.01169
1.0117
0.941895
0.941875
0.941862
0.941853
0.941848
0.941848
0.941852
0.941861
0.941875
0.941893
0.874235
0.874214
0.874199
0.874189
0.874184
0.874184
0.874188
0.874198
0.874213
0.874233
0.80893
0.808907
0.808892
0.808881
0.808875
0.808875
0.80888
0.80889
0.808906
0.808928
0.74616
0.746136
0.746119
0.746107
0.746101
0.7461
0.746105
0.746116
0.746132
0.746156
0.686075
0.68605
0.686032
0.686019
0.686012
0.68601
0.686015
0.686026
0.686043
0.686067
0.628798
0.628772
0.628753
0.628739
0.62873
0.628728
0.628731
0.628741
0.628759
0.628784
0.574422
0.574394
0.574374
0.574358
0.574348
0.574344
0.574346
0.574355
0.574372
0.574397
0.52301
0.522982
0.52296
0.522943
0.52293
0.522923
0.522923
0.522931
0.522946
0.522971
0.474601
0.474571
0.474548
0.474527
0.474511
0.474501
0.474498
0.474502
0.474516
0.474539
0.429202
0.429172
0.429145
0.429121
0.4291
0.429085
0.429076
0.429076
0.429087
0.429109
0.386799
0.386767
0.386736
0.386707
0.386679
0.386656
0.386641
0.386634
0.38664
0.386659
0.347352
0.347317
0.347281
0.347244
0.347207
0.347174
0.347147
0.347132
0.347131
0.347146
0.3108
0.310762
0.310719
0.31067
0.31062
0.310572
0.310531
0.310502
0.31049
0.3105
0.277064
0.277022
0.276968
0.276905
0.276836
0.276766
0.276704
0.276656
0.27663
0.276631
0.24605
0.246001
0.245933
0.245849
0.245754
0.245655
0.245562
0.245487
0.245439
0.245427
0.217649
0.217591
0.217504
0.217392
0.21726
0.21712
0.216984
0.216868
0.216788
0.216759
0.191743
0.191673
0.191561
0.191411
0.19123
0.191032
0.190835
0.190659
0.190531
0.190474
0.168207
0.168122
0.167978
0.167778
0.167532
0.167254
0.166968
0.166704
0.166503
0.166401
0.146912
0.146808
0.146624
0.146361
0.146029
0.145644
0.145231
0.144836
0.144516
0.144343
0.12773
0.127603
0.127371
0.127032
0.126591
0.126062
0.125472
0.124877
0.124365
0.124063
0.11053
0.110379
0.110092
0.109665
0.109094
0.108383
0.10755
0.106653
0.105814
0.105263
0.095187
0.0950103
0.0946678
0.0941469
0.0934316
0.0925049
0.091358
0.0900166
0.0886085
0.0875144
0.0815768
0.0813771
0.0809833
0.0803742
0.0795174
0.0783663
0.076858
0.0749215
0.0725389
0.070086
1.46134
1.46134
1.46134
1.46133
1.46133
1.46133
1.46133
1.46133
1.46134
1.46134
1.38418
1.38417
1.38417
1.38417
1.38417
1.38417
1.38417
1.38417
1.38417
1.38417
1.3075
1.30749
1.30748
1.30748
1.30748
1.30748
1.30748
1.30748
1.30749
1.30749
1.23161
1.2316
1.23159
1.23159
1.23159
1.23159
1.23159
1.23159
1.2316
1.23161
1.15683
1.15682
1.15681
1.1568
1.1568
1.1568
1.1568
1.15681
1.15681
1.15683
1.08344
1.08342
1.08341
1.0834
1.0834
1.0834
1.0834
1.08341
1.08342
1.08343
1.01171
1.01169
1.01168
1.01167
1.01167
1.01167
1.01167
1.01168
1.01169
1.01171
0.941899
0.941879
0.941866
0.941857
0.941853
0.941853
0.941858
0.941867
0.94188
0.941899
0.874239
0.874218
0.874204
0.874194
0.874189
0.874189
0.874194
0.874204
0.874219
0.87424
0.808935
0.808912
0.808897
0.808886
0.808881
0.808881
0.808886
0.808897
0.808913
0.808935
0.746165
0.746141
0.746125
0.746113
0.746107
0.746107
0.746112
0.746123
0.74614
0.746163
0.686081
0.686056
0.686038
0.686026
0.686019
0.686018
0.686022
0.686033
0.686051
0.686075
0.628804
0.628778
0.628759
0.628746
0.628737
0.628735
0.628739
0.62875
0.628767
0.628792
0.574427
0.574401
0.574381
0.574366
0.574356
0.574352
0.574354
0.574364
0.574381
0.574406
0.523017
0.522989
0.522967
0.52295
0.522938
0.522932
0.522932
0.52294
0.522956
0.522981
0.474607
0.474578
0.474555
0.474535
0.474519
0.474509
0.474506
0.474511
0.474525
0.474549
0.429209
0.429179
0.429152
0.429129
0.429108
0.429093
0.429085
0.429086
0.429096
0.429118
0.386805
0.386774
0.386744
0.386714
0.386687
0.386665
0.386649
0.386643
0.386649
0.386669
0.347358
0.347324
0.347289
0.347252
0.347215
0.347182
0.347156
0.347141
0.34714
0.347155
0.310806
0.310769
0.310726
0.310678
0.310628
0.31058
0.310539
0.310511
0.3105
0.310509
0.277071
0.277028
0.276975
0.276912
0.276843
0.276774
0.276712
0.276665
0.276639
0.27664
0.246056
0.246007
0.24594
0.245856
0.245761
0.245663
0.24557
0.245495
0.245447
0.245436
0.217655
0.217597
0.217511
0.217399
0.217267
0.217128
0.216992
0.216876
0.216797
0.216767
0.191748
0.191679
0.191567
0.191417
0.191237
0.19104
0.190842
0.190667
0.190539
0.190482
0.168212
0.168127
0.167983
0.167784
0.167538
0.167261
0.166975
0.166712
0.16651
0.166409
0.146917
0.146814
0.146629
0.146367
0.146035
0.14565
0.145238
0.144842
0.144523
0.14435
0.127734
0.127608
0.127376
0.127037
0.126597
0.126068
0.125479
0.124883
0.124372
0.124069
0.110534
0.110383
0.110097
0.10967
0.109099
0.108388
0.107556
0.106658
0.10582
0.105269
0.0951911
0.0950145
0.0946723
0.0941516
0.0934365
0.0925099
0.0913631
0.0900218
0.0886138
0.0875196
0.0815805
0.081381
0.0809874
0.0803785
0.0795219
0.0783709
0.0768626
0.0749261
0.0725434
0.0700905
1.46134
1.46134
1.46134
1.46134
1.46133
1.46133
1.46133
1.46134
1.46134
1.46134
1.38418
1.38417
1.38417
1.38417
1.38417
1.38417
1.38417
1.38417
1.38417
1.38418
1.3075
1.30749
1.30749
1.30748
1.30748
1.30748
1.30748
1.30749
1.30749
1.3075
1.23162
1.23161
1.2316
1.23159
1.23159
1.23159
1.23159
1.2316
1.2316
1.23161
1.15683
1.15682
1.15681
1.15681
1.1568
1.1568
1.15681
1.15681
1.15682
1.15683
1.08344
1.08343
1.08342
1.08341
1.08341
1.08341
1.08341
1.08342
1.08343
1.08344
1.01171
1.0117
1.01169
1.01168
1.01167
1.01167
1.01168
1.01169
1.0117
1.01172
0.941906
0.941887
0.941874
0.941866
0.941862
0.941862
0.941867
0.941877
0.94189
0.941909
0.874247
0.874227
0.874213
0.874204
0.8742
0.8742
0.874205
0.874215
0.874231
0.874251
0.808944
0.808922
0.808907
0.808897
0.808892
0.808892
0.808898
0.808909
0.808925
0.808947
0.746175
0.746152
0.746136
0.746125
0.74612
0.746119
0.746125
0.746136
0.746153
0.746177
0.686091
0.686067
0.68605
0.686038
0.686032
0.686031
0.686036
0.686047
0.686065
0.68609
0.628815
0.628789
0.628771
0.628759
0.628751
0.628749
0.628753
0.628764
0.628782
0.628807
0.574439
0.574413
0.574394
0.574379
0.57437
0.574366
0.574369
0.574379
0.574396
0.574422
0.523028
0.523001
0.52298
0.522964
0.522952
0.522946
0.522947
0.522955
0.522971
0.522996
0.474619
0.474591
0.474568
0.474549
0.474534
0.474524
0.474521
0.474526
0.474541
0.474565
0.429221
0.429191
0.429166
0.429143
0.429123
0.429108
0.4291
0.429101
0.429112
0.429134
0.386817
0.386786
0.386757
0.386728
0.386702
0.38668
0.386664
0.386659
0.386665
0.386685
0.34737
0.347336
0.347302
0.347265
0.347229
0.347197
0.347171
0.347156
0.347155
0.347171
0.310818
0.310781
0.310739
0.310691
0.310642
0.310594
0.310554
0.310526
0.310515
0.310524
0.277082
0.27704
0.276988
0.276925
0.276857
0.276788
0.276727
0.276679
0.276653
0.276654
0.246067
0.246019
0.245952
0.245869
0.245774
0.245676
0.245584
0.245509
0.245461
0.24545
0.217665
0.217608
0.217522
0.217411
0.21728
0.21714
0.217005
0.216889
0.21681
0.21678
0.191758
0.191689
0.191578
0.191429
0.191249
0.191052
0.190854
0.190679
0.190552
0.190495
0.168221
0.168137
0.167994
0.167795
0.167549
0.167272
0.166986
0.166723
0.166522
0.166421
0.146926
0.146823
0.146639
0.146377
0.146046
0.145661
0.145249
0.144853
0.144535
0.144361
0.127743
0.127617
0.127385
0.127047
0.126607
0.126078
0.125489
0.124893
0.124382
0.12408
0.110542
0.110391
0.110105
0.109679
0.109108
0.108397
0.107565
0.106668
0.105829
0.105278
0.0951981
0.0950219
0.09468
0.0941596
0.0934447
0.0925182
0.0913715
0.0900302
0.0886221
0.087528
0.0815869
0.0813877
0.0809945
0.0803858
0.0795293
0.0783783
0.0768701
0.0749335
0.0725507
0.0700976
1.46134
1.46134
1.46134
1.46134
1.46134
1.46134
1.46134
1.46134
1.46134
1.46134
1.38418
1.38418
1.38417
1.38417
1.38417
1.38417
1.38417
1.38417
1.38417
1.38418
1.3075
1.3075
1.30749
1.30749
1.30749
1.30749
1.30749
1.30749
1.30749
1.3075
1.23162
1.23161
1.2316
1.2316
1.2316
1.2316
1.2316
1.2316
1.23161
1.23162
1.15684
1.15683
1.15682
1.15681
1.15681
1.15681
1.15681
1.15682
1.15683
1.15684
1.08345
1.08343
1.08343
1.08342
1.08342
1.08342
1.08342
1.08343
1.08344
1.08345
1.01172
1.01171
1.0117
1.01169
1.01169
1.01169
1.01169
1.0117
1.01171
1.01173
0.941917
0.941899
0.941887
0.94188
0.941876
0.941876
0.941881
0.941891
0.941905
0.941924
0.87426
0.87424
0.874227
0.874219
0.874215
0.874215
0.874221
0.874231
0.874247
0.874267
0.808957
0.808937
0.808923
0.808914
0.808909
0.808909
0.808915
0.808926
0.808943
0.808965
0.746189
0.746167
0.746153
0.746143
0.746137
0.746137
0.746143
0.746154
0.746172
0.746196
0.686106
0.686083
0.686068
0.686057
0.686051
0.68605
0.686055
0.686067
0.686085
0.68611
0.62883
0.628807
0.62879
0.628778
0.628771
0.628769
0.628773
0.628784
0.628803
0.628828
0.574455
0.574431
0.574413
0.574399
0.57439
0.574387
0.57439
0.5744
0.574418
0.574443
0.523045
0.523019
0.523
0.522984
0.522973
0.522967
0.522968
0.522976
0.522993
0.523018
0.474636
0.474609
0.474588
0.474569
0.474555
0.474545
0.474543
0.474548
0.474563
0.474587
0.429238
0.42921
0.429186
0.429163
0.429144
0.429129
0.429122
0.429123
0.429134
0.429157
0.386834
0.386805
0.386777
0.386749
0.386722
0.386701
0.386686
0.38668
0.386687
0.386707
0.347386
0.347355
0.347321
0.347285
0.34725
0.347217
0.347192
0.347177
0.347177
0.347193
0.310834
0.310799
0.310758
0.310711
0.310662
0.310615
0.310574
0.310546
0.310536
0.310546
0.277097
0.277058
0.277006
0.276944
0.276876
0.276808
0.276746
0.276699
0.276674
0.276675
0.246082
0.246035
0.24597
0.245887
0.245793
0.245695
0.245603
0.245528
0.245481
0.24547
0.21768
0.217624
0.217539
0.217428
0.217298
0.217158
0.217023
0.216908
0.216829
0.216799
0.191772
0.191704
0.191594
0.191445
0.191266
0.191069
0.190872
0.190697
0.19057
0.190512
0.168234
0.168151
0.168009
0.16781
0.167565
0.167288
0.167003
0.16674
0.166538
0.166437
0.146938
0.146836
0.146653
0.146392
0.146061
0.145676
0.145264
0.144869
0.14455
0.144376
0.127754
0.127629
0.127398
0.12706
0.12662
0.126092
0.125503
0.124907
0.124396
0.124094
0.110553
0.110403
0.110117
0.109691
0.109121
0.10841
0.107578
0.10668
0.105842
0.105291
0.0952078
0.0950324
0.0946911
0.094171
0.0934562
0.0925298
0.091383
0.0900417
0.0886336
0.0875395
0.0815957
0.0813973
0.0810045
0.0803961
0.0795398
0.0783888
0.0768805
0.0749438
0.0725608
0.0701075
1.46134
1.46134
1.46134
1.46134
1.46134
1.46134
1.46134
1.46134
1.46134
1.46134
1.38418
1.38418
1.38418
1.38417
1.38417
1.38417
1.38417
1.38418
1.38418
1.38418
1.30751
1.3075
1.3075
1.30749
1.30749
1.30749
1.30749
1.3075
1.3075
1.30751
1.23163
1.23162
1.23161
1.23161
1.23161
1.23161
1.23161
1.23161
1.23162
1.23163
1.15685
1.15684
1.15683
1.15682
1.15682
1.15682
1.15683
1.15683
1.15684
1.15685
1.08346
1.08345
1.08344
1.08343
1.08343
1.08343
1.08343
1.08344
1.08345
1.08347
1.01174
1.01172
1.01171
1.01171
1.0117
1.0117
1.01171
1.01172
1.01173
1.01175
0.94193
0.941916
0.941905
0.941898
0.941894
0.941895
0.9419
0.94191
0.941924
0.941943
0.874274
0.874259
0.874247
0.874239
0.874235
0.874236
0.874241
0.874252
0.874268
0.874289
0.808973
0.808957
0.808944
0.808936
0.808931
0.808932
0.808938
0.808949
0.808966
0.808989
0.746206
0.746189
0.746176
0.746166
0.746161
0.746161
0.746167
0.746179
0.746197
0.746221
0.686124
0.686106
0.686092
0.686081
0.686076
0.686075
0.686081
0.686092
0.686111
0.686136
0.628849
0.62883
0.628815
0.628804
0.628797
0.628795
0.6288
0.628811
0.628829
0.628856
0.574475
0.574455
0.574439
0.574425
0.574417
0.574414
0.574417
0.574427
0.574445
0.574472
0.523065
0.523044
0.523026
0.523011
0.523
0.522995
0.522996
0.523004
0.523021
0.523047
0.474656
0.474634
0.474614
0.474596
0.474582
0.474573
0.474571
0.474576
0.474591
0.474616
0.429258
0.429235
0.429212
0.42919
0.429171
0.429157
0.429149
0.429151
0.429162
0.429186
0.386854
0.38683
0.386803
0.386776
0.38675
0.386728
0.386713
0.386708
0.386715
0.386736
0.347406
0.347379
0.347347
0.347312
0.347276
0.347244
0.347219
0.347205
0.347204
0.347221
0.310853
0.310823
0.310783
0.310737
0.310688
0.310641
0.310601
0.310573
0.310562
0.310573
0.277116
0.277081
0.277031
0.276969
0.276901
0.276833
0.276772
0.276725
0.2767
0.276702
0.2461
0.246058
0.245993
0.245911
0.245817
0.245719
0.245628
0.245553
0.245506
0.245496
0.217697
0.217645
0.217562
0.217451
0.217321
0.217182
0.217047
0.216931
0.216852
0.216824
0.191788
0.191724
0.191616
0.191467
0.191288
0.191091
0.190894
0.190719
0.190592
0.190536
0.16825
0.16817
0.168029
0.167831
0.167586
0.167309
0.167023
0.166761
0.16656
0.166459
0.146953
0.146854
0.146672
0.146411
0.14608
0.145695
0.145283
0.144888
0.14457
0.144397
0.127767
0.127646
0.127415
0.127078
0.126638
0.12611
0.125521
0.124925
0.124414
0.124112
0.110565
0.110418
0.110133
0.109707
0.109137
0.108427
0.107594
0.106697
0.105859
0.105308
0.0952191
0.0950464
0.0947058
0.0941859
0.0934712
0.0925448
0.0913979
0.0900565
0.0886484
0.0875545
0.081606
0.08141
0.0810179
0.0804097
0.0795533
0.0784023
0.0768939
0.0749569
0.0725738
0.0701204
0.0696003
0.0693822
0.0689485
0.0682704
0.0673012
0.0659657
0.0641384
0.0615893
0.057815
0.0514239
0.0590861
0.0588594
0.0584054
0.0576924
0.0566683
0.0552494
0.0533014
0.0506007
0.0467669
0.0411927
0.0499367
0.0497111
0.0492582
0.0485479
0.0475322
0.0461376
0.0442566
0.0417373
0.0383866
0.0340388
0.0420274
0.0418118
0.0413797
0.0407058
0.0397515
0.0384618
0.0367642
0.0345737
0.031813
0.0284722
0.0352329
0.0350346
0.0346385
0.0340256
0.0331683
0.0320301
0.0305685
0.0287426
0.0265313
0.0239652
0.0294304
0.0292542
0.0289037
0.0283664
0.0276245
0.0266572
0.0254432
0.0239675
0.0222326
0.0202717
0.0245015
0.0243497
0.0240494
0.0235933
0.0229723
0.0221767
0.0212
0.0200424
0.0187158
0.0172469
0.020335
0.0202077
0.0199578
0.019582
0.0190775
0.0184433
0.017683
0.016807
0.0158346
0.0147895
0.0168278
0.0167239
0.0165213
0.01622
0.0158217
0.0153314
0.0147601
0.0141275
0.0134649
0.0128118
0.0138868
0.0138039
0.0136437
0.013408
0.0131015
0.0127331
0.0123183
0.0118838
0.0114766
0.0111889
0.0695892
0.0693718
0.0689384
0.0682605
0.0672916
0.0659563
0.0641294
0.0615809
0.0578074
0.0514174
0.0590762
0.0588501
0.0583964
0.0576836
0.0566597
0.0552412
0.0532936
0.0505934
0.0467602
0.0411868
0.049928
0.0497029
0.0492502
0.0485402
0.0475247
0.0461304
0.0442497
0.0417309
0.0383807
0.0340335
0.0420196
0.0418046
0.0413727
0.040699
0.0397449
0.0384554
0.0367582
0.034568
0.0318078
0.0284674
0.0352261
0.0350283
0.0346323
0.0340196
0.0331624
0.0320245
0.0305631
0.0287376
0.0265267
0.023961
0.0294244
0.0292486
0.0288983
0.0283611
0.0276194
0.0266523
0.0254385
0.0239631
0.0222285
0.0202679
0.0244964
0.0243448
0.0240447
0.0235887
0.0229678
0.0221724
0.0211959
0.0200385
0.0187121
0.0172434
0.0203305
0.0202035
0.0199537
0.019578
0.0190736
0.0184396
0.0176794
0.0168035
0.0158313
0.0147864
0.0168239
0.0167202
0.0165178
0.0162165
0.0158183
0.0153281
0.014757
0.0141245
0.013462
0.0128091
0.0138834
0.0138007
0.0136406
0.0134049
0.0130986
0.0127302
0.0123155
0.0118811
0.0114741
0.0111865
0.0695821
0.0693649
0.0689317
0.068254
0.0672854
0.0659504
0.0641238
0.0615756
0.0578026
0.0514133
0.0590699
0.058844
0.0583905
0.0576779
0.0566542
0.0552359
0.0532886
0.0505888
0.046756
0.0411831
0.0499224
0.0496975
0.049245
0.0485351
0.0475198
0.0461258
0.0442454
0.0417268
0.038377
0.0340302
0.0420147
0.0417998
0.041368
0.0406945
0.0397406
0.0384513
0.0367544
0.0345645
0.0318045
0.0284644
0.0352218
0.0350241
0.0346283
0.0340157
0.0331587
0.0320209
0.0305598
0.0287344
0.0265237
0.0239583
0.0294206
0.0292449
0.0288948
0.0283577
0.0276162
0.0266492
0.0254355
0.0239603
0.0222259
0.0202655
0.0244931
0.0243416
0.0240416
0.0235857
0.0229649
0.0221697
0.0211933
0.020036
0.0187098
0.0172413
0.0203276
0.0202007
0.019951
0.0195754
0.0190711
0.0184372
0.0176771
0.0168013
0.0158292
0.0147844
0.0168214
0.0167178
0.0165154
0.0162143
0.0158161
0.015326
0.014755
0.0141226
0.0134602
0.0128074
0.0138813
0.0137987
0.0136386
0.013403
0.0130967
0.0127284
0.0123138
0.0118795
0.0114725
0.0111851
0.0695778
0.0693607