/*--------------------------------*- C++ -*----------------------------------*\
| =========                 |                                                 |
| \\      /  F ield         | OpenFOAM: The Open Source CFD Toolbox           |
|  \\    /   O peration     | Version:  v1812                                 |
|   \\  /    A nd           | Web:      www.OpenFOAM.com                      |
|    \\/     M anipulation  |                                                 |
\*---------------------------------------------------------------------------*/
FoamFile
{
    version     2.0;
    format      ascii;
    class       volScalarField;
    location    "6";
    object      p;
}
// * * * * * * * * * * * * * * * * * * * * * * * * * * * * * * * * * * * * * //

dimensions      [0 2 -2 0 0 0 0];


internalField   nonuniform List<scalar> 
1000
(
1.5141319
1.497046
1.480661
1.4646934
1.4489515
1.4333476
1.4178425
1.4024134
1.387042
1.371714
1.3564189
1.34115
1.3259028
1.310674
1.2954609
1.2802612
1.265073
1.2498943
1.2347235
1.219559
1.2043994
1.1892434
1.17409
1.1589384
1.1437879
1.128638
1.1134885
1.0983391
1.0831897
1.0680404
1.052891
1.0377416
1.0225921
1.0074426
0.99229311
0.97714361
0.9619941
0.94684458
0.93169507
0.91654555
0.90139604
0.88624653
0.87109701
0.8559475
0.84079798
0.82564847
0.81049896
0.79534944
0.78019993
0.76505041
0.7499009
0.73475139
0.71960187
0.70445236
0.68930284
0.67415333
0.65900382
0.6438543
0.62870479
0.61355528
0.59840576
0.58325625
0.56810673
0.55295722
0.53780771
0.52265819
0.50750868
0.49235917
0.47720965
0.46206014
0.44691063
0.43176111
0.4166116
0.40146209
0.38631257
0.37116306
0.35601354
0.34086403
0.32571452
0.310565
0.29541549
0.28026598
0.26511646
0.24996695
0.23481744
0.21966792
0.20451841
0.18936889
0.17421938
0.15906987
0.14392035
0.12877084
0.11362133
0.098471812
0.083322299
0.068172786
0.053023273
0.037873762
0.022724252
0.0075747473
1.5136862
1.4965965
1.4805656
1.4648303
1.4491294
1.4334898
1.4179506
1.4025018
1.3871162
1.3717746
1.356467
1.3411878
1.3259325
1.3106973
1.295479
1.2802751
1.2650833
1.2499018
1.2347287
1.2195625
1.2044017
1.1892448
1.1740908
1.1589388
1.1437881
1.1286381
1.1134885
1.0983391
1.0831897
1.0680404
1.052891
1.0377415
1.0225921
1.0074426
0.99229311
0.97714361
0.9619941
0.94684458
0.93169507
0.91654555
0.90139604
0.88624653
0.87109701
0.8559475
0.84079798
0.82564847
0.81049896
0.79534944
0.78019993
0.76505041
0.7499009
0.73475139
0.71960187
0.70445236
0.68930284
0.67415333
0.65900382
0.6438543
0.62870479
0.61355528
0.59840576
0.58325625
0.56810673
0.55295722
0.53780771
0.52265819
0.50750868
0.49235917
0.47720965
0.46206014
0.44691063
0.43176111
0.4166116
0.40146209
0.38631257
0.37116306
0.35601354
0.34086403
0.32571452
0.310565
0.29541549
0.28026598
0.26511646
0.24996695
0.23481744
0.21966792
0.20451841
0.18936889
0.17421938
0.15906987
0.14392035
0.12877084
0.11362133
0.098471812
0.083322299
0.068172785
0.053023272
0.03787376
0.022724247
0.0075747436
1.5129559
1.4957538
1.480197
1.4648442
1.4492582
1.4335967
1.4180243
1.4025634
1.3871742
1.3718263
1.3565096
1.3412216
1.3259595
1.3107191
1.2954966
1.280289
1.2650942
1.2499101
1.2347351
1.2195672
1.204405
1.1892472
1.1740924
1.1589399
1.1437887
1.1286385
1.1134887
1.0983392
1.0831898
1.0680404
1.052891
1.0377415
1.0225921
1.0074426
0.99229311
0.9771436
0.96199409
0.94684458
0.93169507
0.91654555
0.90139604
0.88624653
0.87109701
0.8559475
0.84079798
0.82564847
0.81049896
0.79534944
0.78019993
0.76505041
0.7499009
0.73475139
0.71960187
0.70445236
0.68930284
0.67415333
0.65900382
0.6438543
0.62870479
0.61355528
0.59840576
0.58325625
0.56810673
0.55295722
0.53780771
0.52265819
0.50750868
0.49235917
0.47720965
0.46206014
0.44691063
0.43176111
0.4166116
0.40146209
0.38631257
0.37116306
0.35601354
0.34086403
0.32571452
0.310565
0.29541549
0.28026598
0.26511646
0.24996695
0.23481744
0.21966792
0.20451841
0.18936889
0.17421938
0.15906987
0.14392035
0.12877084
0.11362133
0.098471812
0.083322298
0.068172784
0.053023269
0.037873756
0.022724241
0.0075747394
1.5122968
1.4949306
1.4797714
1.4647992
1.449357
1.4336912
1.4180906
1.4026206
1.3872318
1.3718807
1.3565561
1.3412597
1.3259906
1.3107449
1.295518
1.2803067
1.2651086
1.2499218
1.2347443
1.2195745
1.2044106
1.1892513
1.1740954
1.1589419
1.1437901
1.1286393
1.1134892
1.0983395
1.0831899
1.0680405
1.052891
1.0377415
1.0225921
1.0074426
0.9922931
0.9771436
0.96199409
0.94684458
0.93169507
0.91654555
0.90139604
0.88624653
0.87109701
0.8559475
0.84079798
0.82564847
0.81049896
0.79534944
0.78019993
0.76505041
0.7499009
0.73475139
0.71960187
0.70445236
0.68930284
0.67415333
0.65900382
0.6438543
0.62870479
0.61355528
0.59840576
0.58325625
0.56810673
0.55295722
0.53780771
0.52265819
0.50750868
0.49235917
0.47720965
0.46206014
0.44691063
0.43176111
0.4166116
0.40146209
0.38631257
0.37116306
0.35601354
0.34086403
0.32571452
0.310565
0.29541549
0.28026598
0.26511646
0.24996695
0.23481744
0.21966792
0.20451841
0.18936889
0.17421938
0.15906987
0.14392035
0.12877084
0.11362132
0.098471811
0.083322296
0.068172782
0.053023266
0.037873752
0.022724236
0.0075747361
1.5119275
1.4944487
1.4795043
1.4647592
1.4494125
1.4337492
1.4181323
1.4026571
1.3872695
1.3719174
1.3565885
1.3412866
1.3260131
1.3107639
1.2955341
1.2803202
1.2651199
1.2499311
1.2347518
1.2195804
1.2044152
1.1892548
1.1740979
1.1589437
1.1437913
1.1286401
1.1134897
1.0983398
1.0831901
1.0680405
1.052891
1.0377416
1.0225921
1.0074426
0.9922931
0.97714359
0.96199409
0.94684458
0.93169507
0.91654555
0.90139604
0.88624653
0.87109701
0.8559475
0.84079798
0.82564847
0.81049896
0.79534944
0.78019993
0.76505041
0.7499009
0.73475139
0.71960187
0.70445236
0.68930284
0.67415333
0.65900382
0.6438543
0.62870479
0.61355528
0.59840576
0.58325625
0.56810673
0.55295722
0.53780771
0.52265819
0.50750868
0.49235917
0.47720965
0.46206014
0.44691063
0.43176111
0.4166116
0.40146209
0.38631257
0.37116306
0.35601354
0.34086403
0.32571452
0.310565
0.29541549
0.28026598
0.26511646
0.24996695
0.23481744
0.21966792
0.20451841
0.18936889
0.17421938
0.15906987
0.14392035
0.12877084
0.11362132
0.09847181
0.083322295
0.068172781
0.053023264
0.03787375
0.022724233
0.0075747344
1.5119275
1.4944487
1.4795043
1.4647592
1.4494125
1.4337492
1.4181323
1.4026571
1.3872695
1.3719174
1.3565885
1.3412866
1.3260131
1.3107639
1.2955341
1.2803202
1.2651199
1.2499311
1.2347518
1.2195804
1.2044152
1.1892547
1.1740979
1.1589437
1.1437913
1.1286401
1.1134897
1.0983398
1.0831901
1.0680405
1.052891
1.0377416
1.0225921
1.0074426
0.9922931
0.97714359
0.96199409
0.94684458
0.93169507
0.91654555
0.90139604
0.88624653
0.87109701
0.8559475
0.84079798
0.82564847
0.81049896
0.79534944
0.78019993
0.76505041
0.7499009
0.73475139
0.71960187
0.70445236
0.68930284
0.67415333
0.65900382
0.6438543
0.62870479
0.61355528
0.59840576
0.58325625
0.56810673
0.55295722
0.53780771
0.52265819
0.50750868
0.49235917
0.47720965
0.46206014
0.44691063
0.43176111
0.4166116
0.40146209
0.38631257
0.37116306
0.35601354
0.34086403
0.32571452
0.310565
0.29541549
0.28026598
0.26511646
0.24996695
0.23481744
0.21966792
0.20451841
0.18936889
0.17421938
0.15906987
0.14392035
0.12877084
0.11362132
0.09847181
0.083322295
0.06817278
0.053023264
0.03787375
0.022724233
0.0075747343
1.5122968
1.4949306
1.4797714
1.4647992
1.449357
1.4336912
1.4180906
1.4026206
1.3872318
1.3718807
1.3565561
1.3412597
1.3259906
1.3107449
1.295518
1.2803067
1.2651086
1.2499218
1.2347443
1.2195745
1.2044106
1.1892513
1.1740954
1.1589419
1.1437901
1.1286393
1.1134892
1.0983395
1.0831899
1.0680404
1.052891
1.0377415
1.0225921
1.0074426
0.9922931
0.9771436
0.96199409
0.94684458
0.93169507
0.91654555
0.90139604
0.88624653
0.87109701
0.8559475
0.84079798
0.82564847
0.81049896
0.79534944
0.78019993
0.76505041
0.7499009
0.73475139
0.71960187
0.70445236
0.68930284
0.67415333
0.65900382
0.6438543
0.62870479
0.61355528
0.59840576
0.58325625
0.56810673
0.55295722
0.53780771
0.52265819
0.50750868
0.49235917
0.47720965
0.46206014
0.44691063
0.43176111
0.4166116
0.40146209
0.38631257
0.37116306
0.35601354
0.34086403
0.32571452
0.310565
0.29541549
0.28026598
0.26511646
0.24996695
0.23481744
0.21966792
0.20451841
0.18936889
0.17421938
0.15906987
0.14392035
0.12877084
0.11362132
0.09847181
0.083322296
0.068172781
0.053023266
0.037873752
0.022724236
0.0075747359
1.5129559
1.4957538
1.480197
1.4648442
1.4492581
1.4335967
1.4180243
1.4025634
1.3871742
1.3718263
1.3565096
1.3412216
1.3259595
1.3107191
1.2954966
1.280289
1.2650942
1.2499101
1.2347351
1.2195672
1.204405
1.1892472
1.1740924
1.1589399
1.1437887
1.1286385
1.1134887
1.0983392
1.0831898
1.0680404
1.052891
1.0377415
1.0225921
1.0074426
0.99229311
0.97714361
0.9619941
0.94684458
0.93169507
0.91654556
0.90139604
0.88624653
0.87109701
0.8559475
0.84079798
0.82564847
0.81049896
0.79534944
0.78019993
0.76505041
0.7499009
0.73475139
0.71960187
0.70445236
0.68930284
0.67415333
0.65900382
0.6438543
0.62870479
0.61355528
0.59840576
0.58325625
0.56810673
0.55295722
0.53780771
0.52265819
0.50750868
0.49235917
0.47720965
0.46206014
0.44691063
0.43176111
0.4166116
0.40146209
0.38631257
0.37116306
0.35601354
0.34086403
0.32571452
0.310565
0.29541549
0.28026598
0.26511646
0.24996695
0.23481743
0.21966792
0.20451841
0.18936889
0.17421938
0.15906987
0.14392035
0.12877084
0.11362132
0.098471811
0.083322297
0.068172783
0.053023269
0.037873756
0.022724241
0.0075747391
1.5136862
1.4965965
1.4805656
1.4648303
1.4491293
1.4334897
1.4179506
1.4025018
1.3871163
1.3717746
1.356467
1.3411878
1.3259325
1.3106973
1.295479
1.2802751
1.2650833
1.2499018
1.2347287
1.2195625
1.2044017
1.1892448
1.1740908
1.1589388
1.1437881
1.1286381
1.1134885
1.0983391
1.0831897
1.0680404
1.052891
1.0377415
1.0225921
1.0074426
0.99229311
0.97714361
0.9619941
0.94684458
0.93169507
0.91654556
0.90139604
0.88624653
0.87109701
0.8559475
0.84079798
0.82564847
0.81049896
0.79534944
0.78019993
0.76505041
0.7499009
0.73475139
0.71960187
0.70445236
0.68930284
0.67415333
0.65900382
0.6438543
0.62870479
0.61355528
0.59840576
0.58325625
0.56810673
0.55295722
0.53780771
0.52265819
0.50750868
0.49235917
0.47720965
0.46206014
0.44691063
0.43176111
0.4166116
0.40146209
0.38631257
0.37116306
0.35601354
0.34086403
0.32571452
0.310565
0.29541549
0.28026598
0.26511646
0.24996695
0.23481743
0.21966792
0.20451841
0.18936889
0.17421938
0.15906987
0.14392035
0.12877084
0.11362132
0.098471811
0.083322298
0.068172784
0.053023271
0.03787376
0.022724247
0.0075747435
1.5141319
1.497046
1.480661
1.4646934
1.4489515
1.4333476
1.4178425
1.4024134
1.387042
1.371714
1.3564189
1.34115
1.3259028
1.310674
1.2954609
1.2802612
1.265073
1.2498943
1.2347235
1.219559
1.2043993
1.1892434
1.17409
1.1589384
1.1437879
1.128638
1.1134885
1.0983391
1.0831897
1.0680404
1.052891
1.0377416
1.0225921
1.0074426
0.99229311
0.97714361
0.9619941
0.94684458
0.93169507
0.91654556
0.90139604
0.88624653
0.87109701
0.8559475
0.84079798
0.82564847
0.81049896
0.79534944
0.78019993
0.76505041
0.7499009
0.73475139
0.71960187
0.70445236
0.68930284
0.67415333
0.65900382
0.6438543
0.62870479
0.61355528
0.59840576
0.58325625
0.56810673
0.55295722
0.53780771
0.52265819
0.50750868
0.49235917
0.47720965
0.46206014
0.44691063
0.43176111
0.4166116
0.40146209
0.38631257
0.37116306
0.35601354
0.34086403
0.32571452
0.310565
0.29541549
0.28026598
0.26511646
0.24996695
0.23481744
0.21966792
0.20451841
0.18936889
0.17421938
0.15906987
0.14392035
0.12877084
0.11362132
0.098471811
0.083322298
0.068172785
0.053023273
0.037873762
0.022724252
0.0075747473
)
;

boundaryField
{
    top
    {
        type            zeroGradient;
    }
    inlet
    {
        type            fixedValue;
        value           uniform 1.523;
    }
    outlet
    {
        type            fixedValue;
        value           uniform 0;
    }
    bottom
    {
        type            zeroGradient;
    }
    back
    {
        type            empty;
    }
    front
    {
        type            empty;
    }
}


// ************************************************************************* //
