/*--------------------------------*- C++ -*----------------------------------*\
| =========                 |                                                 |
| \\      /  F ield         | OpenFOAM: The Open Source CFD Toolbox           |
|  \\    /   O peration     | Version:  v1812                                 |
|   \\  /    A nd           | Web:      www.OpenFOAM.com                      |
|    \\/     M anipulation  |                                                 |
\*---------------------------------------------------------------------------*/
FoamFile
{
    version     2.0;
    format      ascii;
    class       volScalarField;
    location    "6";
    object      p;
}
// * * * * * * * * * * * * * * * * * * * * * * * * * * * * * * * * * * * * * //

dimensions      [0 2 -2 0 0 0 0];


internalField   nonuniform List<scalar> 
1000
(
1.6759735
1.5548956
1.4589152
1.3952591
1.3467496
1.3042775
1.2667423
1.2345705
1.2071702
1.1833326
1.1619383
1.1421744
1.1234973
1.1055577
1.0881424
1.0711282
1.0544474
1.0380632
1.021955
1.0061091
0.9905141
0.97515899
0.9600323
0.94512207
0.93041607
0.91590209
0.90156814
0.88740266
0.87339464
0.85953369
0.84581005
0.83221461
0.81873889
0.80537497
0.79211553
0.77895374
0.76588327
0.75289825
0.73999325
0.72716323
0.71440352
0.70170982
0.68907816
0.67650486
0.66398652
0.65152002
0.63910243
0.62673102
0.61440326
0.60211671
0.58986906
0.5776581
0.56548166
0.55333763
0.5412239
0.52913843
0.51707916
0.50504408
0.49303117
0.48103848
0.46906409
0.45710614
0.44516285
0.43323252
0.42131355
0.40940446
0.39750388
0.38561056
0.37372338
0.36184133
0.34996355
0.33808926
0.32621782
0.31434867
0.30248133
0.29061544
0.27875067
0.26688677
0.25502353
0.2431608
0.23129845
0.21943638
0.20757452
0.1957128
0.18385118
0.17198965
0.16012819
0.14826677
0.13640538
0.12454402
0.11268265
0.10082129
0.088959915
0.077098544
0.065237181
0.053375835
0.041514504
0.02965319
0.017791875
0.0059305912
1.5587539
1.5038248
1.4428723
1.3913046
1.3480345
1.3090662
1.27348
1.2417074
1.2137464
1.1889686
1.1665667
1.1458654
1.1263837
1.1077957
1.0898821
1.0724973
1.0555455
1.0389641
1.0227114
1.006758
0.99108091
0.97566138
0.96048253
0.94552887
0.93078582
0.91623961
0.90187722
0.88768637
0.87365556
0.85977402
0.84603171
0.83241929
0.81892807
0.80554999
0.79227756
0.77910383
0.76602236
0.75302717
0.74011274
0.72727394
0.71450604
0.70180466
0.68916578
0.67658566
0.66406087
0.65158824
0.63916482
0.62678787
0.61445483
0.60216326
0.58991086
0.57769541
0.56551474
0.55336675
0.54124936
0.5291605
0.51709813
0.50506024
0.49304481
0.48104988
0.46907352
0.45711386
0.44516909
0.43323751
0.4213175
0.40940754
0.39750625
0.38561235
0.37372471
0.36184231
0.34996425
0.33808976
0.32621816
0.31434889
0.30248148
0.29061553
0.27875072
0.26688679
0.25502354
0.2431608
0.23129845
0.21943638
0.20757451
0.19571279
0.18385118
0.17198965
0.16012818
0.14826676
0.13640538
0.12454401
0.11268265
0.10082129
0.088959917
0.077098545
0.065237178
0.053375827
0.04151449
0.029653168
0.017791835
0.0059305572
1.4979326
1.4717575
1.4333607
1.3922278
1.3531425
1.3165517
1.282254
1.2505365
1.2216804
1.1955793
1.1718253
1.1499353
1.1294855
1.1101446
1.0916645
1.0738634
1.0566116
1.039816
1.0234099
1.0073448
0.99158442
0.97610073
0.96087086
0.94587537
0.9310971
0.91652062
0.90213181
0.88791765
0.87386613
0.85996611
0.84620724
0.83257995
0.81907535
0.80568519
0.79240184
0.77921821
0.76612775
0.75312439
0.74020248
0.72735684
0.71458266
0.70187549
0.68923125
0.67664615
0.66411672
0.65163975
0.63921224
0.62683144
0.61449475
0.60219973
0.58994405
0.57772549
0.56554188
0.5533911
0.54127108
0.52917975
0.51711509
0.50507507
0.49305768
0.48106096
0.46908298
0.45712186
0.44517581
0.43324309
0.42132209
0.40941128
0.39750927
0.38561476
0.37372662
0.3618438
0.3499654
0.33809064
0.32621883
0.31434939
0.30248185
0.2906158
0.27875091
0.26688693
0.25502364
0.24316087
0.2312985
0.21943641
0.20757453
0.19571281
0.18385119
0.17198965
0.16012818
0.14826676
0.13640537
0.12454401
0.11268265
0.10082129
0.088959918
0.077098544
0.065237168
0.053375807
0.041514454
0.029653116
0.017791766
0.0059305068
1.4685241
1.453026
1.4261561
1.3922322
1.3564312
1.3214799
1.2881779
1.2568249
1.2276942
1.2009027
1.1763152
1.153623
1.1324712
1.1125424
1.0935842
1.0754045
1.0578588
1.0408378
1.0242591
1.0080611
0.99219716
0.97663141
0.96133545
0.94628577
0.93146234
0.91684762
0.90242599
0.88818338
0.87410696
0.86018499
0.84640669
0.83276209
0.81924202
0.80583799
0.79254217
0.77934731
0.76624671
0.75323416
0.74030393
0.72745074
0.71466968
0.70195625
0.68930629
0.67671596
0.66418173
0.65170032
0.63926872
0.6268841
0.61454384
0.60224545
0.58998658
0.57776497
0.56557844
0.55342486
0.54130213
0.5292082
0.51714102
0.50509858
0.49307887
0.48107994
0.46909987
0.45713678
0.44518889
0.43325447
0.42133191
0.40941968
0.3975164
0.38562076
0.37373162
0.36184793
0.34996878
0.33809338
0.32622103
0.31435114
0.30248323
0.29061688
0.27875175
0.26688757
0.25502413
0.24316124
0.23129877
0.21943661
0.20757468
0.19571291
0.18385127
0.17198971
0.16012822
0.14826678
0.13640539
0.12454402
0.11268266
0.1008213
0.08895992
0.077098541
0.065237155
0.053375784
0.041514415
0.029653063
0.017791704
0.0059304636
1.4557925
1.4438392
1.4216048
1.3913172
1.3574561
1.3234605
1.2907629
1.2597574
1.23066
1.2036481
1.1787211
1.1556715
1.13419
1.1139723
1.0947687
1.0763865
1.0586776
1.0415272
1.0248463
1.0085672
0.99263819
0.97701964
0.96168012
0.94659396
0.93173951
0.91709803
0.90265307
0.8883899
0.87429524
0.860357
0.84656411
0.8329064
0.8193745
0.80595979
0.79265431
0.77945068
0.76634213
0.75332236
0.74038557
0.72752641
0.71473993
0.70202157
0.68936711
0.67677268
0.6642347
0.65174986
0.63931509
0.62692755
0.61458456
0.60228361
0.59002232
0.57779841
0.56560966
0.55345394
0.54132914
0.52923318
0.51716402
0.50511965
0.49309807
0.48109732
0.4691155
0.45715074
0.44520126
0.43326534
0.42134139
0.40942788
0.39752342
0.38562673
0.37373664
0.36185212
0.34997224
0.33809621
0.32622332
0.31435298
0.30248469
0.29061803
0.27875265
0.26688827
0.25502466
0.24316164
0.23129907
0.21943684
0.20757485
0.19571304
0.18385135
0.17198977
0.16012826
0.14826681
0.13640541
0.12454403
0.11268267
0.1008213
0.088959922
0.077098539
0.065237146
0.053375768
0.041514391
0.029653031
0.017791668
0.0059304402
1.4557925
1.4438392
1.4216048
1.3913172
1.3574561
1.3234605
1.2907629
1.2597574
1.23066
1.2036481
1.1787211
1.1556715
1.13419
1.1139723
1.0947687
1.0763865
1.0586776
1.0415272
1.0248463
1.0085672
0.99263819
0.97701964
0.96168012
0.94659396
0.9317395
0.91709803
0.90265307
0.8883899
0.87429524
0.860357
0.84656411
0.8329064
0.8193745
0.80595979
0.79265431
0.77945068
0.76634213
0.75332236
0.74038557
0.72752641
0.71473993
0.70202157
0.68936712
0.67677269
0.66423471
0.65174987
0.6393151
0.62692756
0.61458457
0.60228362
0.59002233
0.57779841
0.56560967
0.55345394
0.54132914
0.52923318
0.51716402
0.50511965
0.49309807
0.48109732
0.46911549
0.45715073
0.44520125
0.43326534
0.42134138
0.40942788
0.39752341
0.38562672
0.37373663
0.36185211
0.34997224
0.3380962
0.32622332
0.31435298
0.30248469
0.29061803
0.27875264
0.26688826
0.25502466
0.24316164
0.23129907
0.21943684
0.20757485
0.19571304
0.18385135
0.17198977
0.16012826
0.14826681
0.13640541
0.12454403
0.11268267
0.1008213
0.088959921
0.077098536
0.065237144
0.053375766
0.04151439
0.02965303
0.017791668
0.0059304402
1.4685241
1.453026
1.4261561
1.3922322
1.3564312
1.3214799
1.2881779
1.2568249
1.2276942
1.2009027
1.1763152
1.153623
1.1324712
1.1125424
1.0935842
1.0754045
1.0578588
1.0408378
1.0242591
1.0080611
0.99219716
0.97663141
0.96133544
0.94628577
0.93146234
0.91684761
0.90242599
0.88818338
0.87410696
0.86018499
0.84640669
0.83276209
0.81924202
0.805838
0.79254218
0.77934732
0.76624671
0.75323416
0.74030394
0.72745074
0.71466969
0.70195626
0.6893063
0.67671598
0.66418175
0.65170035
0.63926874
0.62688413
0.61454386
0.60224547
0.5899866
0.57776498
0.56557845
0.55342486
0.54130213
0.5292082
0.51714101
0.50509857
0.49307886
0.48107993
0.46909985
0.45713677
0.44518888
0.43325446
0.4213319
0.40941967
0.39751638
0.38562075
0.3737316
0.36184791
0.34996877
0.33809337
0.32622101
0.31435113
0.30248322
0.29061687
0.27875174
0.26688757
0.25502412
0.24316124
0.23129877
0.21943661
0.20757468
0.19571291
0.18385126
0.1719897
0.16012821
0.14826678
0.13640539
0.12454402
0.11268266
0.10082129
0.088959917
0.077098534
0.065237149
0.053375778
0.041514413
0.029653061
0.017791702
0.0059304638
1.4979326
1.4717575
1.4333607
1.3922278
1.3531425
1.3165517
1.282254
1.2505365
1.2216804
1.1955793
1.1718253
1.1499353
1.1294855
1.1101446
1.0916645
1.0738634
1.0566116
1.039816
1.0234099
1.0073448
0.99158441
0.97610072
0.96087085
0.94587536
0.9310971
0.91652062
0.9021318
0.88791765
0.87386613
0.85996611
0.84620725
0.83257996
0.81907535
0.80568519
0.79240184
0.77921822
0.76612776
0.75312439
0.74020249
0.72735685
0.71458267
0.70187551
0.68923127
0.67664618
0.66411675
0.65163978
0.63921227
0.62683147
0.61449478
0.60219976
0.58994407
0.5777255
0.56554188
0.5533911
0.54127107
0.52917975
0.51711508
0.50507505
0.49305766
0.48106094
0.46908296
0.45712185
0.44517579
0.43324307
0.42132207
0.40941126
0.39750925
0.38561474
0.3737266
0.36184378
0.34996538
0.33809062
0.32621881
0.31434937
0.30248183
0.29061578
0.2787509
0.26688692
0.25502364
0.24316087
0.2312985
0.21943641
0.20757453
0.1957128
0.18385118
0.17198964
0.16012817
0.14826676
0.13640537
0.12454401
0.11268265
0.10082129
0.088959913
0.077098535
0.065237158
0.0533758
0.04151445
0.029653115
0.017791765
0.0059305065
1.5587539
1.5038248
1.4428723
1.3913046
1.3480345
1.3090662
1.27348
1.2417074
1.2137464
1.1889686
1.1665667
1.1458654
1.1263837
1.1077957
1.0898821
1.0724973
1.0555455
1.0389641
1.0227114
1.0067579
0.99108091
0.97566137
0.96048252
0.94552886
0.93078582
0.91623961
0.90187721
0.88768637
0.87365556
0.85977402
0.84603172
0.8324193
0.81892808
0.80555
0.79227757
0.77910384
0.76602236
0.75302718
0.74011275
0.72727395
0.71450605
0.70180468
0.6891658
0.67658569
0.66406091
0.65158828
0.63916486
0.62678791
0.61445486
0.60216329
0.58991088
0.57769542
0.56551475
0.55336675
0.54124935
0.52916049
0.51709812
0.50506022
0.49304479
0.48104986
0.4690735
0.45711384
0.44516907
0.43323749
0.42131748
0.40940752
0.39750622
0.38561233
0.37372469
0.36184229
0.34996423
0.33808973
0.32621814
0.31434887
0.30248146
0.29061551
0.27875071
0.26688679
0.25502354
0.24316081
0.23129845
0.21943638
0.20757451
0.19571278
0.18385117
0.17198964
0.16012817
0.14826676
0.13640538
0.12454402
0.11268266
0.10082129
0.088959911
0.077098536
0.065237167
0.05337582
0.041514487
0.029653167
0.017791832
0.0059305555
1.6759735
1.5548956
1.4589152
1.3952591
1.3467496
1.3042775
1.2667423
1.2345705
1.2071702
1.1833326
1.1619383
1.1421744
1.1234973
1.1055577
1.0881424
1.0711282
1.0544474
1.0380632
1.021955
1.0061091
0.99051409
0.97515899
0.96003229
0.94512206
0.93041606
0.91590208
0.90156813
0.88740266
0.87339464
0.85953369
0.84581006
0.83221462
0.8187389
0.80537498
0.79211554
0.77895374
0.76588327
0.75289826
0.73999326
0.72716323
0.71440353
0.70170984
0.68907818
0.67650488
0.66398655
0.65152005
0.63910246
0.62673105
0.61440328
0.60211673
0.58986908
0.57765811
0.56548166
0.55333762
0.54122389
0.52913842
0.51707914
0.50504406
0.49303115
0.48103846
0.46906407
0.45710612
0.44516283
0.4332325
0.42131353
0.40940444
0.39750386
0.38561054
0.37372335
0.36184131
0.34996353
0.33808924
0.3262178
0.31434864
0.30248131
0.29061542
0.27875066
0.26688676
0.25502353
0.24316081
0.23129846
0.21943638
0.20757451
0.19571279
0.18385117
0.17198965
0.16012818
0.14826677
0.13640539
0.12454402
0.11268265
0.10082128
0.088959908
0.077098536
0.065237174
0.053375832
0.041514505
0.029653188
0.017791869
0.0059305882
)
;

boundaryField
{
    top
    {
        type            zeroGradient;
    }
    inlet
    {
        type            zeroGradient;
    }
    outlet
    {
        type            fixedValue;
        value           uniform 0;
    }
    bottom
    {
        type            zeroGradient;
    }
    back
    {
        type            empty;
    }
    front
    {
        type            empty;
    }
}


// ************************************************************************* //
