/*--------------------------------*- C++ -*----------------------------------*\
| =========                 |                                                 |
| \\      /  F ield         | OpenFOAM: The Open Source CFD Toolbox           |
|  \\    /   O peration     | Version:  v1812                                 |
|   \\  /    A nd           | Web:      www.OpenFOAM.com                      |
|    \\/     M anipulation  |                                                 |
\*---------------------------------------------------------------------------*/
FoamFile
{
    version     2.0;
    format      ascii;
    class       surfaceScalarField;
    location    "1.45";
    object      phi;
}
// * * * * * * * * * * * * * * * * * * * * * * * * * * * * * * * * * * * * * //

dimensions      [0 3 -1 0 0 0 0];
oriented        oriented;


internalField   nonuniform List<scalar> 
1890
(
0.0093062165
0.00069378331
0.0082850418
0.0010211747
0.0073313633
0.00095367869
0.00649095
0.0008404134
0.0057792
0.00071174993
0.0052066436
0.0005725564
0.0047632314
0.00044341208
0.004432664
0.0003305674
0.004196882
0.00023578185
0.0040354918
0.00016139008
0.003928786
0.00010670565
0.0038609768
6.7809129e-05
0.0038203232
4.065367e-05
0.0037978391
2.2484274e-05
0.0037866763
1.1162835e-05
0.00378201
4.6663631e-06
0.0037809815
1.0285059e-06
0.0037815091
-5.2764742e-07
0.0037826561
-1.1470455e-06
0.0037838634
-1.207399e-06
0.0037848911
-1.0277546e-06
0.0037856691
-7.7798116e-07
0.0037862137
-5.4462638e-07
0.0037865718
-3.5811774e-07
0.0037867945
-2.2268105e-07
0.0037869256
-1.31133e-07
0.0037869985
-7.2906992e-08
0.0037870364
-3.7902355e-08
0.0037870545
-1.8019347e-08
0.0037870619
-7.417913e-09
0.0037870639
-2.0857924e-09
0.0037870638
1.3805956e-10
0.0037870629
9.0980968e-10
0.0037870618
1.0137913e-09
0.003787061
8.6793328e-10
0.0037870603
6.5246632e-10
0.0037870598
4.577352e-10
0.0037870595
3.0705661e-10
0.0037870593
2.0179978e-10
0.0037870592
1.3242911e-10
0.0037870591
8.9062369e-11
0.003787059
6.2293192e-11
0.003787059
4.6360998e-11
0.003787059
3.6397356e-11
0.0037870589
3.0282673e-11
0.0037870589
2.5804811e-11
0.0037870589
2.2672363e-11
0.0037870589
1.9839682e-11
0.0037870589
1.7622762e-11
0.0037870588
1.5307795e-11
0.0037870588
1.3454695e-11
0.0037870588
1.1496424e-11
0.0037870588
9.9876338e-12
0.0037870588
8.3301654e-12
0.0037870588
7.1264599e-12
0.0037870588
5.8187858e-12
0.0037870588
4.9650624e-12
0.0037870588
3.9438042e-12
0.0037870588
3.3659302e-12
0.0037870588
2.6286899e-12
0.0037870588
2.3485214e-12
0.0037870588
1.7704873e-12
0.0037870588
1.7534929e-12
0.0037870588
1.2162682e-12
0.0037870588
1.7242388e-12
0.0037870588
5.5006059e-13
0.0037870588
2.7158795e-12
0.0037870588
-1.5839653e-12
0.0037870587
7.3855928e-12
0.0037870588
-1.0676094e-11
0.0037870587
2.5373164e-11
0.0037870588
-4.5015165e-11
0.0037870587
9.0205451e-11
0.0037870589
-1.6317696e-10
0.0037870586
3.0299042e-10
0.0037870591
-5.3057218e-10
0.0037870582
9.2775195e-10
0.0037870597
-1.5405155e-09
0.0037870572
2.522094e-09
0.0037870611
-3.9082715e-09
0.0037870552
5.890203e-09
0.0037870635
-8.3112216e-09
0.0037870523
1.1164073e-08
0.0037870659
-1.3596037e-08
0.0037870509
1.4994417e-08
0.003787064
-1.3091687e-08
0.003787057
7.0353048e-09
0.0037870502
6.7906389e-09
0.0037870749
-2.4660773e-08
0.0037870254
4.9498331e-08
0.0037870899
-6.4521552e-08
0.0037870137
7.6197862e-08
0.0037870599
-4.6244447e-08
0.0037870379
2.206706e-08
0.0037869727
6.519488e-08
0.0037870315
-5.8758167e-08
0.0037869157
1.1583833e-07
0.0037869505
-3.4917591e-08
0.0037869369
1.3566709e-08
-2.6795684e-08
0.010339522
0.00035426137
0.010571266
0.00078943062
0.010607769
0.00091717545
0.010549211
0.00089897174
0.010425304
0.00083565666
0.010251773
0.0007460872
0.010053261
0.00064192417
0.0098509737
0.0005328549
0.0096601742
0.00042658123
0.0094905787
0.00033098543
0.0093470045
0.0002502797
0.0092310619
0.00018375165
0.0091421009
0.00012961474
0.0090774096
8.7175682e-05
0.0090328069
5.5765719e-05
0.009003699
3.3774247e-05
0.0089856608
1.9066754e-05
0.0089753701
9.7629492e-06
0.0089699966
4.2263922e-06
0.0089675574
1.2317362e-06
0.0089667407
-2.1112046e-07
0.0089667096
-7.4687186e-07
0.0089669919
-8.2693336e-07
0.0089673432
-7.0940539e-07
0.0089676554
-5.349449e-07
0.0089678942
-3.698844e-07
0.0089680602
-2.3891924e-07
0.0089681677
-1.4534927e-07
0.0089682331
-8.3413206e-08
0.0089682706
-4.4955652e-08
0.0089682909
-2.2450999e-08
0.0089683012
-1.0103634e-08
0.0089683058
-3.7828578e-09
0.0089683077
-8.3639527e-10
0.0089683081
3.9986679e-10
0.008968308
7.4544315e-10
0.0089683078
7.3408125e-10
0.0089683075
5.9931423e-10
0.0089683072
4.5168922e-10
0.008968307
3.2904696e-10
0.0089683069
2.3959129e-10
0.0089683068
1.7782902e-10
0.0089683067
1.3728286e-10
0.0089683066
1.1014708e-10
0.0089683065
9.2304836e-11
0.0089683065
7.9241345e-11
0.0089683064
6.9751347e-11
0.0089683064
6.1517717e-11
0.0089683064
5.4856781e-11
0.0089683063
4.8370301e-11
0.0089683063
4.2862042e-11
0.0089683063
3.7288039e-11
0.0089683062
3.2615932e-11
0.0089683062
2.7902351e-11
0.0089683062
2.405617e-11
0.0089683062
2.0182774e-11
0.0089683062
1.7206149e-11
0.0089683062
1.420272e-11
0.0089683062
1.2042771e-11
0.0089683062
9.7873769e-12
0.0089683061
8.3942314e-12
0.0089683061
6.7612807e-12
0.0089683061
6.1380213e-12
0.0089683061
4.6742085e-12
0.0089683061
5.352748e-12
0.0089683061
2.64398e-12
0.0089683061
7.2519514e-12
0.0089683061
-2.4401597e-12
0.0089683061
1.7147882e-11
0.0089683061
-2.1626684e-11
0.0089683061
5.5052328e-11
0.0089683061
-9.2095122e-11
0.008968306
1.8732653e-10
0.0089683062
-3.2780619e-10
0.0089683059
6.0602408e-10
0.0089683064
-1.0350733e-09
0.0089683056
1.7830551e-09
0.0089683069
-2.8892067e-09
0.0089683048
4.6221226e-09
0.0089683078
-6.9511735e-09
0.0089683036
1.0131705e-08
0.008968309
-1.3681281e-08
0.0089683027
1.740358e-08
0.0089683086
-1.9501028e-08
0.0089683048
1.8893411e-08
0.0089683033
-1.1658243e-08
0.0089683128
-2.4705917e-09
0.0089682918
2.7881428e-08
0.0089683226
-5.5479897e-08
0.0089682846
8.7467344e-08
0.0089683126
-9.2597118e-08
0.0089683035
8.5286669e-08
0.0089682672
-9.9571865e-09
0.0089683364
-4.7002592e-08
0.0089682488
1.5280541e-07
0.0089683186
-1.2854601e-07
0.008968319
1.1545038e-07
0.0089682651
1.8939157e-08
0.0089682979
-1.9367935e-08
-4.0053288e-08
0.010188732
0.00016552918
0.010530258
0.00044790476
0.010850977
0.00059645605
0.011123222
0.00062672774
0.011348074
0.00061080411
0.0115202
0.00057396164
0.011640506
0.00052161805
0.011715718
0.00045764307
0.011754611
0.00038768776
0.011766604
0.00031899182
0.01176029
0.00025659398
0.011742647
0.00020139434
0.011719326
0.00015293562
0.0116948
0.0001117021
0.011672151
7.8414972e-05
0.011653044
5.2881123e-05
0.011638018
3.409295e-05
0.011626939
2.0841765e-05
0.011619221
1.1944377e-05
0.011614147
6.3059678e-06
0.011610972
2.9633191e-06
0.011609114
1.1109824e-06
0.011608098
1.8944658e-07
0.011607586
-1.9735143e-07
0.011607358
-3.0674906e-07
0.011607277
-2.8889645e-07
0.011607264
-2.264995e-07
0.011607279
-1.5953017e-07
0.011607299
-1.0392016e-07
0.011607318
-6.3389349e-08
0.011607331
-3.6338293e-08
0.011607341
-1.9519174e-08
0.011607347
-9.6991185e-09
0.01160735
-4.3166781e-09
0.011607352
-1.5572136e-09
0.011607353
-2.7056461e-10
0.011607354
2.6381257e-10
0.011607354
4.1357926e-10
0.011607354
4.0861172e-10
0.011607354
3.5241623e-10
0.011607354
2.8957852e-10
0.011607354
2.3599021e-10
0.011607354
1.9471622e-10
0.011607354
1.6422791e-10
0.011607354
1.4160088e-10
0.011607353
1.2433581e-10
0.011607353
1.1045845e-10
0.011607353
9.8796969e-11
0.011607353
8.8469308e-11
0.011607353
7.9063689e-11
0.011607353
7.0332785e-11
0.011607353
6.2212741e-11
0.011607353
5.4666596e-11
0.011607353
4.7630804e-11
0.011607353
4.1215172e-11
0.011607353
3.5382094e-11
0.011607353
3.0192052e-11
0.011607353
2.5550898e-11
0.011607353
2.1540863e-11
0.011607353
1.8077013e-11
0.011607353
1.5241024e-11
0.011607353
1.2708226e-11
0.011607353
1.1025708e-11
0.011607353
8.9616732e-12
0.011607353
9.0666918e-12
0.011607353
5.692467e-12
0.011607353
1.0575468e-11
0.011607353
-7.1413537e-13
0.011607353
2.1631001e-11
0.011607353
-2.2577851e-11
0.011607353
6.4081839e-11
0.011607353
-1.0003188e-10
0.011607353
2.0833085e-10
0.011607353
-3.5107453e-10
0.011607353
6.4835894e-10
0.011607353
-1.0760165e-09
0.011607353
1.8295307e-09
0.011607353
-2.8796736e-09
0.011607353
4.5009157e-09
0.011607353
-6.5279083e-09
0.011607354
9.1616645e-09
0.011607352
-1.1696168e-08
0.011607355
1.3852821e-08
0.011607349
-1.3670308e-08
0.011607358
1.0339665e-08
0.011607347
-4.9253341e-10
0.011607359
-1.4580332e-08
0.011607349
3.750461e-08
0.011607351
-5.6924892e-08
0.011607364
7.4083816e-08
0.011607331
-5.965059e-08
0.011607383
3.3905685e-08
0.011607332
4.1119275e-08
0.011607368
-8.3836837e-08
0.011607385
1.363568e-07
0.011607337
-8.0644266e-08
0.011607408
4.4260377e-08
0.011607381
4.6420422e-08
0.011607386
-2.4581603e-08
-5.7830591e-08
0.010097197
6.8331703e-05
0.010346458
0.00019864408
0.010661239
0.00028167509
0.010980543
0.00030742365
0.011285452
0.0003058951
0.011565901
0.00029351283
0.01181373
0.00027378889
0.012024217
0.00024715614
0.012196301
0.00021560394
0.01233247
0.00018282261
0.012437236
0.00015182774
0.012515278
0.00012335263
0.012570938
9.727567e-05
0.012608612
7.4027961e-05
0.012632698
5.4329386e-05
0.012647115
3.8463657e-05
0.01265501
2.6198457e-05
0.012658772
1.7079813e-05
0.012660117
1.0599377e-05
0.012660197
6.2255151e-06
0.012659738
3.42259e-06
0.012659121
1.727374e-06
0.012658551
7.5967299e-07
0.012658098
2.5544719e-07
0.012657773
1.833408e-08
0.012657556
-7.1350812e-08
0.012657419
-8.9466948e-08
0.012657337
-7.7937443e-08
0.012657291
-5.8012351e-08
0.012657267
-3.9115097e-08
0.012657255
-2.444246e-08
0.01265725
-1.4277725e-08
0.012657248
-7.7890013e-09
0.012657248
-3.9162432e-09
0.012657248
-1.745365e-09
0.012657248
-6.1476171e-10
0.012657248
-5.646535e-11
0.012657249
1.7539453e-10
0.012657249
2.5241073e-10
0.012657249
2.6002649e-10
0.012657249
2.4193894e-10
0.012657249
2.1641768e-10
0.012657249
1.9243559e-10
0.012657249
1.7090439e-10
0.012657249
1.5325821e-10
0.012657249
1.3756692e-10
0.012657249
1.245731e-10
0.012657249
1.1232484e-10
0.012657249
1.0173262e-10
0.012657249
9.1258736e-11
0.012657249
8.2147197e-11
0.012657249
7.2906163e-11
0.012657249
6.487526e-11
0.012657249
5.67123e-11
0.012657249
4.9847788e-11
0.012657249
4.2908026e-11
0.012657249
3.7219877e-11
0.012657249
3.1511415e-11
0.012657249
2.7097173e-11
0.012657249
2.2690803e-11
0.012657249
1.9466784e-11
0.012657249
1.6157072e-11
0.012657249
1.4161546e-11
0.012657249
1.1650177e-11
0.012657249
1.1176427e-11
0.012657249
8.1725687e-12
0.012657249
1.1189608e-11
0.012657249
3.4331258e-12
0.012657249
1.7800613e-11
0.012657249
-1.0426902e-11
0.012657249
4.4460682e-11
0.012657249
-5.7699319e-11
0.012657249
1.3353698e-10
0.012657249
-2.0800052e-10
0.012657249
3.9761447e-10
0.012657249
-6.3087906e-10
0.012657249
1.0815566e-09
0.012657248
-1.6441409e-09
0.01265725
2.5520233e-09
0.012657247
-3.5704002e-09
0.012657251
4.8974576e-09
0.012657246
-5.9356753e-09
0.012657253
6.6384947e-09
0.012657245
-5.7021167e-09
0.012657252
3.0333118e-09
0.012657248
3.2404697e-09
0.012657245
-1.1700808e-08
0.01265726
2.340113e-08
0.012657234
-3.0850025e-08
0.012657272
3.5521716e-08
0.012657234
-2.1148487e-08
0.012657265
2.4791917e-09
0.012657269
3.6915306e-08
0.012657238
-5.296916e-08
0.012657307
6.7676652e-08
0.012657252
-2.5865148e-08
0.012657292
4.3117661e-09
0.012657311
2.7555234e-08
0.012657296
-9.5048791e-09
-4.0579749e-08
0.010068332
7.1217179e-12
0.010266976
1.9606911e-11
0.010548651
-2.9390186e-11
0.010856075
-1.2823223e-10
0.01116197
-2.3848261e-10
0.011455483
-2.8978352e-10
0.011729272
-2.5649112e-10
0.011976429
-1.8758025e-10
0.012192033
-1.3542747e-10
0.012374855
-1.2103351e-10
0.012526683
-1.3201919e-10
0.012650036
-1.4524882e-10
0.012747312
-1.4587615e-10
0.01282134
-1.3739366e-10
0.01287567
-1.3205129e-10
0.012914134
-1.4704661e-10
0.012940332
-1.9239271e-10
0.012957412
-2.7142493e-10
0.012968012
-3.902277e-10
0.012974238
-5.0113783e-10
0.012977661
-5.3507922e-10
0.012979389
-5.4079772e-10
0.012980149
-4.9741345e-10
0.012980405
-3.8767574e-10
0.012980424
-2.5843431e-10
0.012980352
-1.245783e-10
0.012980263
-7.3268413e-12
0.012980185
8.2047909e-11
0.012980127
1.3900631e-10
0.012980088
1.6909054e-10
0.012980063
1.7824622e-10
0.012980048
1.7687286e-10
0.012980041
1.7038912e-10
0.012980036
1.6481444e-10
0.012980035
1.6168941e-10
0.012980034
1.6321378e-10
0.012980034
1.6737446e-10
0.012980034
1.6900566e-10
0.012980034
1.6783418e-10
0.012980034
1.6597155e-10
0.012980034
1.6076359e-10
0.012980034
1.5468014e-10
0.012980034
1.4585275e-10
0.012980034
1.3715934e-10
0.012980034
1.2667699e-10
0.012980034
1.1733278e-10
0.012980034
1.070313e-10
0.012980034
9.8305439e-11
0.012980034
8.8765721e-11
0.012980034
8.0955004e-11
0.012980034
7.2404533e-11
0.012980034
6.5542379e-11
0.012980034
5.7816018e-11
0.012980034
5.1778644e-11
0.012980034
4.5009611e-11
0.012980034
3.9913461e-11
0.012980034
3.4044251e-11
0.012980034
2.9872232e-11
0.012980034
2.5097877e-11
0.012980034
2.1986737e-11
0.012980034
1.8192622e-11
0.012980034
1.601285e-11
0.012980034
1.3274704e-11
0.012980034
1.201738e-11
0.012980034
1.0085233e-11
0.012980034
9.5583071e-12
0.012980034
8.3934008e-12
0.012980034
8.5453456e-12
0.012980034
7.872269e-12
0.012980034
8.5598115e-12
0.012980034
8.4829968e-12
0.012980034
9.889668e-12
0.012980034
1.0490268e-11
0.012980034
1.2693743e-11
0.012980034
1.4436788e-11
0.012980034
1.780009e-11
0.012980035
2.0756473e-11
0.012980033
2.5307029e-11
0.012980036
2.8637754e-11
0.012980032
3.2854863e-11
0.012980037
3.4653331e-11
0.012980031
3.7120567e-11
0.012980038
3.7389321e-11
0.012980032
3.8145765e-11
0.012980035
3.7051495e-11
0.012980038
3.5606069e-11
0.012980026
3.3387386e-11
0.01298005
3.4716922e-11
0.012980019
3.8733435e-11
0.012980054
5.6011583e-11
0.012980033
7.0808796e-11
0.012980035
8.3688725e-11
0.012980072
8.7020398e-11
0.012980019
7.4834319e-11
0.012980087
5.8099203e-11
0.012980061
3.0701586e-11
0.012980065
1.4209181e-11
0.012980093
-1.403928e-12
0.012980083
-1.0702386e-11
-2.4152524e-12
0.010068331
-6.8331642e-05
0.010266976
-0.00019864405
0.010548651
-0.00028167521
0.010856075
-0.00030742395
0.01116197
-0.00030589556
0.011455483
-0.00029351333
0.011729272
-0.00027378931
0.011976429
-0.00024715643
0.012192033
-0.00021560417
0.012374855
-0.00018282286
0.012526683
-0.00015182805
0.012650036
-0.00012335298
0.012747312
-9.7276011e-05
0.01282134
-7.4028261e-05
0.01287567
-5.4329641e-05
0.012914134
-3.8463909e-05
0.012940332
-2.61988e-05
0.012957412
-1.708029e-05
0.012968012
-1.0600029e-05
0.012974238
-6.2265001e-06
0.012977661
-3.4235249e-06
0.012979389
-1.7284035e-06
0.012980149
-7.6060065e-07
0.012980404
-2.5614031e-07
0.012980423
-1.8789816e-08
0.012980352
7.1153297e-08
0.012980262
8.9487971e-08
0.012980184
7.8118627e-08
0.012980126
5.8292394e-08
0.012980087
3.9441701e-08
0.012980062
2.4779656e-08
0.012980048
1.4605514e-08
0.01298004
8.1018229e-09
0.012980036
4.2173983e-09
0.012980034
2.041688e-09
0.012980033
9.0691459e-10
0.012980033
3.6266003e-10
0.012980033
1.3321329e-10
0.012980033
5.4950289e-11
0.012980033
4.2131565e-11
0.012980033
5.1293982e-11
0.012980034
6.3951151e-11
0.012980034
7.2452053e-11
0.012980034
7.6324357e-11
0.012980034
7.5685778e-11
0.012980034
7.2793352e-11
0.012980034
6.8052661e-11
0.012980034
6.3039656e-11
0.012980034
5.7489589e-11
0.012980034
5.2548865e-11
0.012980034
4.7500924e-11
0.012980034
4.3064731e-11
0.012980034
3.8472112e-11
0.012980034
3.4579937e-11
0.012980034
3.0570295e-11
0.012980034
2.7133233e-11
0.012980034
2.3572059e-11
0.012980034
2.068513e-11
0.012980034
1.7813134e-11
0.012980034
1.5473888e-11
0.012980034
1.31841e-11
0.012980034
1.1532129e-11
0.012980034
9.8605789e-12
0.012980034
9.0548488e-12
0.012980034
7.2904654e-12
0.012980034
8.3636309e-12
0.012980034
4.4828973e-12
0.012980034
1.1465904e-11
0.012980034
-2.8596839e-12
0.012980034
2.5634745e-11
0.012980034
-2.8138039e-11
0.012980034
7.5520112e-11
0.012980034
-1.1325382e-10
0.012980034
2.3128837e-10
0.012980034
-3.6972052e-10
0.012980034
6.6389209e-10
0.012980035
-1.041781e-09
0.012980033
1.6912503e-09
0.012980036
-2.4973992e-09
0.012980032
3.6311065e-09
0.012980037
-4.8319356e-09
0.012980031
6.0035089e-09
0.012980038
-6.5687965e-09
0.012980032
5.7709065e-09
0.012980035
-2.9655133e-09
0.012980038
-3.1756387e-09
0.012980026
1.1760913e-08
0.01298005
-2.3332133e-08
0.012980019
3.0917498e-08
0.012980054
-3.5408201e-08
0.012980033
2.1282198e-08
0.012980035
-2.3248783e-09
0.012980072
-3.6753377e-08
0.012980019
5.3100608e-08
0.012980087
-6.757771e-08
0.012980061
2.5911613e-08
0.012980065
-4.2956758e-09
0.012980093
-2.756722e-08
0.012980083
9.4861609e-09
4.0579176e-08
0.010097197
-0.00016552921
0.010346458
-0.00044790489
0.010661239
-0.00059645621
0.010980543
-0.00062672798
0.011285452
-0.00061080444
0.011565901
-0.00057396197
0.01181373
-0.00052161827
0.012024217
-0.0004576432
0.012196301
-0.00038768789
0.01233247
-0.00031899205
0.012437236
-0.00025659433
0.012515278
-0.00020139476
0.012570938
-0.00015293602
0.012608612
-0.00011170241
0.012632698
-7.8415176e-05
0.012647115
-5.2881273e-05
0.01265501
-3.4093157e-05
0.012658771
-2.0842127e-05
0.012660116
-1.1944856e-05
0.012660196
-6.3067248e-06
0.012659737
-2.9640127e-06
0.01265912
-1.1118222e-06
0.01265855
-1.9013067e-07
0.012658097
1.9685301e-07
0.012657772
3.0646625e-07
0.012657554
2.888198e-07
0.012657417
2.2658918e-07
0.012657335
1.5973012e-07
0.012657289
1.0417889e-07
0.012657265
6.3665297e-08
0.012657253
3.6607147e-08
0.012657248
1.976881e-08
0.012657246
9.9309586e-09
0.012657246
4.5348543e-09
0.012657246
1.7730886e-09
0.012657247
4.9093465e-10
0.012657247
-3.5982271e-11
0.012657248
-1.8457726e-10
0.012657248
-1.8088762e-10
0.012657248
-1.2964713e-10
0.012657248
-7.391799e-11
0.012657248
-3.1810121e-11
0.012657248
-2.7402021e-12
0.012657248
1.2819693e-11
0.012657248
2.1783501e-11
0.012657248
2.3986437e-11
0.012657248
2.5107106e-11
0.012657249
2.3134754e-11
0.012657249
2.2411423e-11
0.012657249
1.9953377e-11
0.012657249
1.9206181e-11
0.012657249
1.685554e-11
0.012657249
1.6231323e-11
0.012657249
1.4162253e-11
0.012657249
1.3549733e-11
0.012657249
1.1579408e-11
0.012657249
1.0927031e-11
0.012657249
9.2227294e-12
0.012657249
8.6659118e-12
0.012657249
7.1197307e-12
0.012657249
6.7021308e-12
0.012657249
5.6116807e-12
0.012657249
5.2416508e-12
0.012657249
4.8123094e-12
0.012657249
3.7440639e-12
0.012657249
5.688256e-12
0.012657249
7.3752782e-13
0.012657249
1.1332443e-11
0.012657249
-1.0290465e-11
0.012657249
3.3975309e-11
0.012657249
-5.1104132e-11
0.012657249
1.1383019e-10
0.012657249
-1.9160511e-10
0.012657249
3.6985174e-10
0.012657249
-6.2494081e-10
0.012657249
1.1028028e-09
0.012657249
-1.7962208e-09
0.012657248
2.9173666e-09
0.01265725
-4.4563015e-09
0.012657247
6.5754893e-09
0.012657251
-9.1099261e-09
0.012657246
1.1747947e-08
0.012657253
-1.3800562e-08
0.012657245
1.372067e-08
0.012657252
-1.0290478e-08
0.012657249
5.3843561e-10
0.012657246
1.4627229e-08
0.01265726
-3.7452209e-08
0.012657234
5.6989208e-08
0.012657272
-7.3990226e-08
0.012657234
5.9764163e-08
0.012657265
-3.3782513e-08
0.012657269
-4.1003776e-08
0.012657239
8.3919048e-08
0.012657307
-1.3630476e-07
0.012657253
8.0655672e-08
0.012657293
-4.4261585e-08
0.012657311
-4.6437619e-08
0.012657296
2.4566107e-08
5.7835222e-08
0.010188732
-0.00035426143
0.010530258
-0.00078943075
0.010850977
-0.00091717552
0.011123221
-0.00089897185
0.011348074
-0.00083565684
0.011520199
-0.00074608738
0.011640505
-0.00064192428
0.011715717
-0.00053285498
0.011754611
-0.00042658133
0.011766604
-0.00033098563
0.01176029
-0.00025028001
0.011742647
-0.00018375198
0.011719326
-0.00012961503
0.0116948
-8.7175864e-05
0.01167215
-5.5765808e-05
0.011653043
-3.3774293e-05
0.011638017
-1.9066839e-05
0.011626938
-9.7631723e-06
0.01161922
-4.2267507e-06
0.011614146
-1.2321468e-06
0.011610971
2.1061616e-07
0.011609113
7.4638857e-07
0.011608096
8.2656531e-07
0.011607584
7.091811e-07
0.011607355
5.3486215e-07
0.011607274
3.6992218e-07
0.011607262
2.3903937e-07
0.011607276
1.4551425e-07
0.011607297
8.3590421e-08
0.011607315
4.512442e-08
0.011607329
2.2601477e-08
0.011607339
1.0234869e-08
0.011607345
3.9035027e-09
0.011607348
9.4620897e-10
0.01160735
-2.8331573e-10
0.011607352
-6.2576421e-10
0.011607352
-6.1176117e-10
0.011607352
-4.7445779e-10
0.011607353
-3.2807477e-10
0.011607353
-2.0820759e-10
0.011607353
-1.247301e-10
0.011607353
-6.9783354e-11
0.011607353
-3.8044659e-11
0.011607353
-1.9172245e-11
0.011607353
-1.0234467e-11
0.011607353
-4.9333597e-12
0.011607353
-3.3382524e-12
0.011607353
-1.6738699e-12
0.011607353
-1.4556758e-12
0.011607353
-4.7596175e-13
0.011607353
-3.7065396e-13
0.011607353
4.4027729e-13
0.011607353
5.8673157e-13
0.011607353
1.3251791e-12
0.011607353
1.1213202e-12
0.011607353
1.7232881e-12
0.011607353
1.4159352e-12
0.011607353
1.8806287e-12
0.011607353
1.3582001e-12
0.011607353
1.7706313e-12
0.011607353
1.2769079e-12
0.011607353
1.7735999e-12
0.011607353
1.0232513e-12
0.011607353
1.9361975e-12
0.011607353
5.1625309e-13
0.011607353
3.186048e-12
0.011607353
-1.7342438e-12
0.011607353
8.2839935e-12
0.011607353
-1.1138561e-11
0.011607353
2.8486594e-11
0.011607353
-4.7642348e-11
0.011607353
1.0107748e-10
0.011607353
-1.7689535e-10
0.011607353
3.407574e-10
0.011607353
-5.9094537e-10
0.011607353
1.0534443e-09
0.011607353
-1.7620634e-09
0.011607353
2.913315e-09
0.011607353
-4.5960408e-09
0.011607353
6.9791134e-09
0.011607354
-1.0103338e-08
0.011607352
1.3709741e-08
0.011607356
-1.7376146e-08
0.01160735
1.9528577e-08
0.011607358
-1.8866981e-08
0.011607347
1.1685108e-08
0.011607359
2.4994675e-09
0.01160735
-2.7845834e-08
0.011607351
5.5524773e-08
0.011607365
-8.7406707e-08
0.011607332
9.2662905e-08
0.011607383
-8.5223861e-08
0.011607332
1.000772e-08
0.011607369
4.7037753e-08
0.011607385
-1.5278633e-07
0.011607338
1.2854604e-07
0.011607409
-1.1545489e-07
0.011607381
-1.8969399e-08
0.011607386
1.9355505e-08
4.0054109e-08
0.010339522
-0.00069378336
0.010571266
-0.0010211747
0.010607769
-0.00095367861
0.010549211
-0.00084041339
0.010425304
-0.00071175004
0.010251773
-0.00057255657
0.010053261
-0.00044341222
0.0098509738
-0.0003305675
0.0096601742
-0.00023578193
0.0094905785
-0.00016139017
0.0093470041
-0.00010670577
0.0092310613
-6.7809239e-05
0.0091421001
-4.0653729e-05
0.0090774087
-2.2484279e-05
0.0090328059
-1.1162805e-05
0.0090036982
-4.6663488e-06
0.00898566
-1.0285494e-06
0.0089753693
5.2753402e-07
0.0089699956
1.1468779e-06
0.0089675562
1.2072155e-06
0.0089667392
1.0275661e-06
0.0089667077
7.7783162e-07
0.0089669897
5.4453516e-07
0.0089673408
3.5808824e-07
0.008967653
2.2270003e-07
0.0089678918
1.3118372e-07
0.0089680579
7.2972044e-08
0.0089681655
3.7967045e-08
0.008968231
1.8077382e-08
0.0089682687
7.4636062e-09
0.0089682892
2.126788e-09
0.0089682995
-1.1082803e-10
0.0089683043
-8.8369808e-10
0.0089683063
-9.8898564e-10
0.0089683068
-8.3939992e-10
0.0089683068
-6.2097247e-10
0.0089683066
-4.238962e-10
0.0089683064
-2.7244126e-10
0.0089683063
-1.6713657e-10
0.0089683062
-9.9138139e-11
0.0089683061
-5.7657827e-11
0.0089683061
-3.3656144e-11
0.0089683061
-2.0337511e-11
0.0089683061
-1.3245612e-11
0.0089683061
-9.5959673e-12
0.0089683061
-7.6706818e-12
0.0089683061
-6.4928816e-12
0.0089683061
-5.6075615e-12
0.0089683061
-4.877843e-12
0.0089683061
-4.2389469e-12
0.0089683061
-3.5112143e-12
0.0089683061
-2.9162447e-12
0.0089683061
-2.311501e-12
0.0089683061
-1.9148116e-12
0.0089683061
-1.451096e-12
0.0089683061
-1.1087684e-12
0.0089683061
-8.351658e-13
0.0089683061
-6.3988821e-13
0.0089683061
-4.9451899e-13
0.0089683061
-2.6488785e-13
0.0089683061
-2.5464062e-13
0.0089683061
-5.8920918e-14
0.0089683061
-1.9783413e-13
0.0089683061
1.7343472e-13
0.0089683061
-3.2546702e-13
0.0089683061
7.0128096e-13
0.0089683061
-1.3145678e-12
0.0089683061
3.0974369e-12
0.0089683061
-5.5485712e-12
0.0089683062
1.2735338e-11
0.0089683061
-2.2587902e-11
0.0089683062
4.8509802e-11
0.0089683061
-8.5662631e-11
0.0089683063
1.6873475e-10
0.008968306
-2.9642999e-10
0.0089683065
5.3773652e-10
0.0089683056
-9.2056931e-10
0.008968307
1.5470534e-09
0.0089683049
-2.5160683e-09
0.008968308
3.913648e-09
0.0089683038
-5.8845172e-09
0.0089683091
8.3177525e-09
0.0089683029
-1.1155374e-08
0.0089683089
1.360713e-08
0.008968305
-1.4981313e-08
0.0089683036
1.3105882e-08
0.0089683131
-7.0223915e-09
0.008968292
-6.7788649e-09
0.0089683229
2.4674681e-08
0.0089682849
-4.9494614e-08
0.008968313
6.4527044e-08
0.0089683039
-7.61881e-08
0.0089682677
4.6265627e-08
0.0089683368
-2.2041081e-08
0.0089682493
-6.5175578e-08
0.0089683191
5.8761764e-08
0.0089683195
-1.1585285e-07
0.0089682655
3.4887886e-08
0.0089682984
-1.3586042e-08
2.6790903e-08
0.0093062166
0.008285042
0.0073313635
0.0064909502
0.0057792002
0.0052066437
0.0047632315
0.0044326639
0.0041968818
0.0040354915
0.0039287857
0.0038609765
0.0038203229
0.0037978387
0.003786676
0.0037820097
0.0037809812
0.0037815087
0.0037826556
0.0037838628
0.0037848903
0.0037856681
0.0037862126
0.0037865707
0.0037867935
0.0037869247
0.0037869977
0.0037870356
0.0037870537
0.0037870612
0.0037870633
0.0037870632
0.0037870623
0.0037870613
0.0037870605
0.0037870599
0.0037870595
0.0037870592
0.003787059
0.0037870589
0.0037870589
0.0037870588
0.0037870588
0.0037870588
0.0037870588
0.0037870588
0.0037870588
0.0037870588
0.0037870588
0.0037870588
0.0037870588
0.0037870588
0.0037870588
0.0037870588
0.0037870588
0.0037870588
0.0037870588
0.0037870588
0.0037870588
0.0037870588
0.0037870588
0.0037870588
0.0037870588
0.0037870588
0.0037870588
0.0037870588
0.0037870588
0.0037870588
0.0037870588
0.0037870588
0.0037870588
0.0037870588
0.0037870587
0.0037870589
0.0037870586
0.0037870591
0.0037870582
0.0037870597
0.0037870572
0.0037870611
0.0037870553
0.0037870636
0.0037870524
0.003787066
0.0037870511
0.0037870642
0.0037870571
0.0037870504
0.003787075
0.0037870255
0.00378709
0.0037870138
0.0037870601
0.0037870381
0.003786973
0.0037870317
0.0037869158
0.0037869507
0.0037869371
)
;

boundaryField
{
    top
    {
        type            calculated;
        value           uniform 0;
    }
    inlet
    {
        type            calculated;
        value           nonuniform List<scalar> 10(-0.01 -0.01 -0.01 -0.01 -0.01 -0.01 -0.01 -0.01 -0.01 -0.01);
    }
    outlet
    {
        type            calculated;
        value           nonuniform List<scalar> 10(0.0037869637 0.0089683112 0.011607404 0.012657279 0.012980043 0.012980043 0.012657279 0.011607404 0.0089683117 0.0037869639);
    }
    bottom
    {
        type            calculated;
        value           uniform 0;
    }
    back
    {
        type            empty;
        value           nonuniform 0();
    }
    front
    {
        type            empty;
        value           nonuniform 0();
    }
}


// ************************************************************************* //
