/*--------------------------------*- C++ -*----------------------------------*\
| =========                 |                                                 |
| \\      /  F ield         | OpenFOAM: The Open Source CFD Toolbox           |
|  \\    /   O peration     | Version:  v1812                                 |
|   \\  /    A nd           | Web:      www.OpenFOAM.com                      |
|    \\/     M anipulation  |                                                 |
\*---------------------------------------------------------------------------*/
FoamFile
{
    version     2.0;
    format      ascii;
    class       surfaceScalarField;
    location    "12.2";
    object      phi;
}
// * * * * * * * * * * * * * * * * * * * * * * * * * * * * * * * * * * * * * //

dimensions      [0 3 -1 0 0 0 0];
oriented        oriented;


internalField   nonuniform List<scalar> 
1890
(
0.0093061957
0.00069380425
0.0082843931
0.0010218027
0.0073298986
0.0009544945
0.0064869553
0.00084294335
0.0057695845
0.0007173708
0.00518986
0.00057972443
0.004738168
0.00045169205
0.00439519
0.00034297801
0.0041390268
0.00025616318
0.0039491069
0.00018991984
0.003807888
0.00014121897
0.0037013782
0.00010650978
0.003619058
8.2320202e-05
0.0035534117
6.5646228e-05
0.0034992845
5.4127246e-05
0.0034532444
4.6040052e-05
0.0034130501
4.0194308e-05
0.0033772574
3.5792776e-05
0.0033449386
3.2318776e-05
0.0033154893
2.9449288e-05
0.0032885008
2.698857e-05
0.0032636805
2.4820283e-05
0.003240805
2.2875458e-05
0.0032196926
2.1112399e-05
0.0032001879
1.9504648e-05
0.0031821539
1.8034024e-05
0.0031654672
1.6686746e-05
0.0031500158
1.5451389e-05
0.0031356979
1.4317886e-05
0.0031224208
1.3277084e-05
0.0031101003
1.2320589e-05
0.0030986595
1.1440704e-05
0.0030880291
1.0630409e-05
0.0030781458
9.8833407e-06
0.003068952
9.1937556e-06
0.0030603955
8.5564959e-06
0.0030524286
7.966935e-06
0.0030450077
7.4209316e-06
0.0030380929
6.9147775e-06
0.0030316478
6.4451477e-06
0.0030256387
6.0090604e-06
0.0030200349
5.603831e-06
0.0030148078
5.2270401e-06
0.0030099313
4.8764984e-06
0.0030053811
4.5502175e-06
0.0030011347
4.2463881e-06
0.0029971713
3.9633537e-06
0.0029934717
3.6995985e-06
0.002990018
3.4537307e-06
0.0029867936
3.22447e-06
0.0029837829
3.0106434e-06
0.0029809718
2.8111686e-06
0.0029783467
2.6250528e-06
0.0029758953
2.4513791e-06
0.002973606
2.2892981e-06
0.0029714679
2.1380246e-06
0.0029694711
1.9968223e-06
0.0029676061
1.8650072e-06
0.0029658642
1.7419398e-06
0.0029642372
1.6270211e-06
0.0029627175
1.5197008e-06
0.0029612981
1.4194652e-06
0.0029599722
1.3258468e-06
0.0029587338
1.238413e-06
0.002957577
1.156762e-06
0.0029564964
1.0805206e-06
0.0029554871
1.0093301e-06
0.0029545443
9.4285035e-07
0.0029536635
8.8076026e-07
0.0029528408
8.2275059e-07
0.0029520723
7.6854657e-07
0.0029513544
7.1788909e-07
0.0029506838
6.7055508e-07
0.0029500575
6.2633766e-07
0.0029494724
5.8504923e-07
0.0029489258
5.4650564e-07
0.0029484153
5.105356e-07
0.0029479384
4.7694403e-07
0.0029474928
4.4558164e-07
0.0029470766
4.1624561e-07
0.0029466878
3.8883669e-07
0.0029463247
3.631678e-07
0.0029459854
3.3921272e-07
0.0029456686
3.1678427e-07
0.0029453726
2.9593183e-07
0.0029450962
2.7639243e-07
0.0029448379
2.5830772e-07
0.0029445967
2.4125293e-07
0.0029443712
2.2554224e-07
0.0029441607
2.1053729e-07
0.0029439638
1.9686079e-07
0.0029437802
1.8359006e-07
0.0029436084
1.7178388e-07
0.0029434482
1.6012813e-07
0.002943298
1.5014363e-07
0.0029431578
1.4020672e-07
0.0029430258
1.3195108e-07
0.0029429011
1.2481299e-07
0.002942782
1.1914529e-07
1.2497082e-07
0.010339525
0.00035427932
0.010570754
0.00079057336
0.010606301
0.00091894822
0.010547572
0.00090167139
0.010422317
0.00084262625
0.010244356
0.00075768559
0.010039421
0.00065662743
0.0098287427
0.00055365585
0.009625135
0.00045977082
0.0094353013
0.00037975352
0.0092624277
0.00031409257
0.0091075332
0.00026140424
0.008970154
0.00021969947
0.0088489023
0.00018689786
0.0087419716
0.00016105804
0.0086474927
0.00014051897
0.008563694
0.00012399299
0.0084890108
0.00011047602
0.0084221096
9.9219873e-05
0.0083618775
8.9681386e-05
0.0083073954
8.1470635e-05
0.0082579079
7.4307809e-05
0.0082127929
6.7990468e-05
0.0081715353
6.236998e-05
0.008133705
5.7335029e-05
0.0080989388
5.2800218e-05
0.0080669272
4.869831e-05
0.0080374036
4.4974993e-05
0.0080101361
4.1585412e-05
0.0079849213
3.8491843e-05
0.0079615798
3.5662128e-05
0.0079399519
3.3068569e-05
0.0079198951
3.0687128e-05
0.0079012817
2.8496821e-05
0.0078839962
2.6479238e-05
0.0078679346
2.461817e-05
0.0078530022
2.2899292e-05
0.0078391133
2.1309902e-05
0.0078261893
1.9838705e-05
0.0078141588
1.8475627e-05
0.0078029562
1.7211649e-05
0.0077925214
1.6038678e-05
0.007782799
1.4949419e-05
0.0077737382
1.3937284e-05
0.0077652921
1.2996294e-05
0.0077574175
1.2121017e-05
0.0077500744
1.13065e-05
0.0077432258
1.0548222e-05
0.0077368375
9.8420441e-06
0.0077308778
9.1841777e-06
0.0077253172
8.5711477e-06
0.0077201286
7.9997623e-06
0.0077152865
7.4670808e-06
0.0077107675
6.9703936e-06
0.0077065496
6.5071872e-06
0.0077026126
6.0751355e-06
0.0076989373
5.6720776e-06
0.0076955064
5.2960092e-06
0.0076923033
4.9450731e-06
0.0076893127
4.6175483e-06
0.0076865205
4.3118465e-06
0.0076839134
4.0264979e-06
0.0076814791
3.7601375e-06
0.007679206
3.5115018e-06
0.0076770834
3.279403e-06
0.0076751012
3.0627302e-06
0.0076732502
2.8604405e-06
0.0076715215
2.6715542e-06
0.0076699072
2.4951641e-06
0.0076683995
2.3304188e-06
0.0076669914
2.1765522e-06
0.0076656764
2.0328441e-06
0.0076644482
1.8986483e-06
0.0076633012
1.7733414e-06
0.0076622299
1.6563625e-06
0.0076612293
1.5471308e-06
0.0076602948
1.4451528e-06
0.007659422
1.3498749e-06
0.0076586067
1.2608964e-06
0.0076578451
1.177702e-06
0.0076571339
1.1000305e-06
0.0076564695
1.0273805e-06
0.007655849
9.5965153e-07
0.0076552696
8.962616e-07
0.0076547283
8.3731349e-07
0.0076542227
7.8199573e-07
0.0076537504
7.3073317e-07
0.0076533094
6.8231215e-07
0.0076528972
6.3774324e-07
0.0076525125
5.9513548e-07
0.0076521527
5.5654314e-07
0.0076518174
5.1885014e-07
0.0076515033
4.8587133e-07
0.0076512112
4.5227575e-07
0.0076509365
4.2492846e-07
0.0076506821
3.9458969e-07
0.0076504404
3.7366535e-07
0.0076502189
3.4627714e-07
0.007650003
3.3511033e-07
3.0907343e-07
0.010188704
0.00016557516
0.010530487
0.00044879101
0.010851453
0.00059798179
0.011124174
0.00062895027
0.011350581
0.00061621889
0.011524486
0.00058378057
0.01164633
0.0005347842
0.011724155
0.00047583046
0.011767999
0.0004159266
0.011786639
0.00036111395
0.011787114
0.00031361708
0.011775058
0.00027346026
0.011754861
0.00023989722
0.011729768
0.00021199037
0.011702054
0.00018877267
0.011673239
0.00016933393
0.011644339
0.00015289298
0.011616003
0.00013881181
0.011588629
0.00012659374
0.011562446
0.00011586438
0.011537572
0.00010634488
0.011514052
9.7826966e-05
0.01149189
9.0153368e-05
0.011471056
8.320341e-05
0.011451509
7.6882682e-05
0.011433193
7.1115634e-05
0.011416051
6.5840345e-05
0.011400021
6.1004925e-05
0.011385041
5.6565045e-05
0.011371051
5.2482279e-05
0.01135799
4.8722954e-05
0.011345801
4.5257324e-05
0.01133443
4.2058961e-05
0.011323822
3.9104282e-05
0.011313929
3.6372174e-05
0.011304704
3.3843686e-05
0.011296101
3.1501772e-05
0.01128808
2.9331071e-05
0.011280601
2.7317709e-05
0.011273628
2.5449136e-05
0.011267125
2.371397e-05
0.011261062
2.2101863e-05
0.011255408
2.0603388e-05
0.011250135
1.9209929e-05
0.011245218
1.7913608e-05
0.011240632
1.6707203e-05
0.011236354
1.5584094e-05
0.011232364
1.453821e-05
0.011228643
1.3563978e-05
0.01122517
1.2656277e-05
0.011221931
1.1810395e-05
0.011218909
1.1021981e-05
0.011216089
1.0287015e-05
0.011213457
9.6017592e-06
0.011211002
8.9627452e-06
0.01120871
8.3667451e-06
0.011206572
7.8107662e-06
0.011204576
7.2920399e-06
0.011202713
6.8080114e-06
0.011200974
6.3563291e-06
0.011199351
5.934825e-06
0.011197836
5.5414825e-06
0.011196421
5.1744271e-06
0.011195101
4.8318808e-06
0.011193868
4.5121766e-06
0.011192718
4.2137334e-06
0.011191643
3.9350835e-06
0.01119064
3.6748692e-06
0.011189703
3.4318529e-06
0.011188829
3.2049056e-06
0.011188012
2.9930069e-06
0.011187249
2.7951903e-06
0.011186537
2.6105698e-06
0.011185872
2.438246e-06
0.011185252
2.2773997e-06
0.011184672
2.1271735e-06
0.01118413
1.9868529e-06
0.011183625
1.8556757e-06
0.011183152
1.7331286e-06
0.011182711
1.6185511e-06
0.011182299
1.5116658e-06
0.011181915
1.4117738e-06
0.011181556
1.3187871e-06
0.01118122
1.2317695e-06
0.011180907
1.1508988e-06
0.011180614
1.0748389e-06
0.011180341
1.0043764e-06
0.011180086
9.3752339e-07
0.011179847
8.76255e-07
0.011179624
8.1728042e-07
0.011179416
7.6461305e-07
0.011179222
7.1230699e-07
0.01117904
6.6798484e-07
0.011178872
6.2072093e-07
0.011178713
5.8486045e-07
0.011178567
5.4053642e-07
0.011178426
5.1452883e-07
0.011178301
4.7103744e-07
0.011178178
4.5772477e-07
4.1417885e-07
0.010097182
6.8393562e-05
0.010346961
0.00019901114
0.010662469
0.00028247389
0.010982753
0.00030866651
0.011290229
0.00030874344
0.011575251
0.00029875788
0.011829022
0.00028101343
0.012047865
0.0002569875
0.012233272
0.00023051975
0.01238924
0.00020514585
0.012520295
0.00018256235
0.012630755
0.00016299961
0.012724428
0.00014622499
0.012804515
0.00013190322
0.012873613
0.00011967434
0.012933772
0.00010917464
0.012986596
0.00010006904
0.013033332
9.2076287e-05
0.01307495
8.4975153e-05
0.013112216
7.8598525e-05
0.013145739
7.2822255e-05
0.013176012
6.7553945e-05
0.013203441
6.2723986e-05
0.013228366
5.8278989e-05
0.013251071
5.4177085e-05
0.013271802
5.0384503e-05
0.01329077
4.6873186e-05
0.013308155
4.3619145e-05
0.013324119
4.0601382e-05
0.0133388
3.7801184e-05
0.013352321
3.5201669e-05
0.013364791
3.2787487e-05
0.013376306
3.0544606e-05
0.01338695
2.8460159e-05
0.0133968
2.6522323e-05
0.013405923
2.4720239e-05
0.013414381
2.3043915e-05
0.013422228
2.1484159e-05
0.013429513
2.0032508e-05
0.013436281
1.8681171e-05
0.013442572
1.7422946e-05
0.013448423
1.6251184e-05
0.013453866
1.5159727e-05
0.013458933
1.4142871e-05
0.013463652
1.3195328e-05
0.013468047
1.2312211e-05
0.013472142
1.1488996e-05
0.013475958
1.0721508e-05
0.013479517
1.000589e-05
0.013482834
9.3385842e-06
0.013485928
8.7162857e-06
0.013488814
8.1359195e-06
0.013491507
7.5946153e-06
0.013494019
7.08969e-06
0.013496363
6.6186257e-06
0.013498551
6.1790849e-06
0.013500593
5.7688921e-06
0.013502499
5.3860464e-06
0.013504278
5.0287069e-06
0.013505939
4.6951908e-06
0.01350749
4.3839412e-06
0.013508938
4.0934948e-06
0.01351029
3.8224704e-06
0.013511552
3.5695483e-06
0.013512731
3.3334632e-06
0.013513832
3.1130257e-06
0.01351486
2.90714e-06
0.01351582
2.7148107e-06
0.013516716
2.5351551e-06
0.013517554
2.367382e-06
0.013518336
2.2107883e-06
0.013519066
2.0646692e-06
0.013519748
1.9283648e-06
0.013520386
1.8011777e-06
0.013520981
1.6824513e-06
0.013521537
1.5714977e-06
0.013522056
1.4677837e-06
0.013522541
1.3707443e-06
0.013522993
1.2800594e-06
0.013523417
1.1952857e-06
0.013523812
1.1162904e-06
0.013524181
1.0425442e-06
0.013524526
9.7400779e-07
0.013524848
9.0986569e-07
0.013525149
8.502858e-07
0.01352543
7.940633e-07
0.013525692
7.419953e-07
0.013525937
6.9233881e-07
0.013526166
6.4704297e-07
0.01352638
6.0317935e-07
0.01352658
5.6455258e-07
0.013526767
5.2567045e-07
0.013526941
4.9360304e-07
0.013527104
4.5820432e-07
0.013527256
4.3258288e-07
0.013527398
3.9872619e-07
0.013527532
3.8041313e-07
0.013527657
3.4617974e-07
0.013527778
3.3695724e-07
3.043432e-07
0.010068394
8.3846551e-12
0.010267405
2.0552637e-11
0.010549879
2.2612039e-11
0.010858545
1.2160097e-11
0.011167288
-8.6217195e-12
0.011466046
-3.1594161e-11
0.01174706
-4.5836333e-11
0.012004047
-4.3473509e-11
0.012234567
-2.0227123e-11
0.012439713
1.6810833e-11
0.012622275
5.1752029e-11
0.012785275
7.0573841e-11
0.0129315
6.5975058e-11
0.013063403
3.9073732e-11
0.013183077
-3.445286e-12
0.013292252
-4.6631761e-11
0.013392321
-7.3532006e-11
0.013484397
-7.6357959e-11
0.013569373
-5.6245289e-11
0.013647971
-1.762912e-11
0.013720794
2.7291664e-11
0.013788347
6.2453013e-11
0.013851071
7.4661195e-11
0.01390935
6.5543512e-11
0.013963527
3.5237474e-11
0.014013912
-6.5399082e-12
0.014060785
-4.6970244e-11
0.014104404
-6.8808074e-11
0.014145005
-6.9351332e-11
0.014182807
-4.7490709e-11
0.014218009
-9.8583995e-12
0.014250796
3.2079872e-11
0.014281341
6.297487e-11
0.014309801
7.1720274e-11
0.014336323
5.9880738e-11
0.014361043
2.7229092e-11
0.014384087
-1.6048598e-11
0.014405571
-5.4618243e-11
0.014425604
-7.1860125e-11
0.014444285
-6.7383715e-11
0.014461708
-3.7392905e-11
0.014477959
9.1473458e-12
0.014493119
5.466016e-11
0.014507262
8.0092652e-11
0.014520457
8.1835423e-11
0.014532769
5.3726983e-11
0.014544258
6.5861551e-12
0.014554979
-4.6571764e-11
0.014564985
-8.0172727e-11
0.014574324
-8.5530419e-11
0.014583041
-5.9255236e-11
0.014591177
-3.9503682e-12
0.014598771
5.7911138e-11
0.014605861
1.0317232e-10
0.014612479
1.1735991e-10
0.014618658
8.9019864e-11
0.014624427
2.7931978e-11
0.014629813
-4.8544065e-11
0.014634842
-1.0611213e-10
0.014639537
-1.2399887e-10
0.014643921
-9.521498e-11
0.014648015
-1.819455e-11
0.014651838
7.4834325e-11
0.014655407
1.4972951e-10
0.01465874
1.7718222e-10
0.014661853
1.4429704e-10
0.01466476
6.0169461e-11
0.014667474
-5.3031385e-11
0.01467001
-1.4364472e-10
0.014672377
-1.7625979e-10
0.014674588
-1.4515804e-10
0.014676653
-4.427491e-11
0.014678582
8.513455e-11
0.014680383
1.8811621e-10
0.014682065
2.2751564e-10
0.014683636
1.8500385e-10
0.014685104
7.0198233e-11
0.014686474
-7.6031713e-11
0.014687754
-1.8866747e-10
0.01468895
-2.2809709e-10
0.014690067
-1.7849467e-10
0.01469111
-5.6513518e-11
0.014692084
9.5381235e-11
0.014692994
2.0079264e-10
0.014693844
2.2076181e-10
0.014694637
1.4576399e-10
0.014695379
-7.8061874e-12
0.014696071
-1.6943882e-10
0.014696718
-2.7452125e-10
0.014697322
-2.8729609e-10
0.014697887
-2.0242836e-10
0.014698413
-5.303534e-11
0.014698907
1.1011052e-10
0.014699365
1.7864784e-10
0.014699797
1.5607614e-10
0.014700195
7.2404989e-11
0.014700575
-7.2428628e-11
0.014700922
-2.1742596e-10
0.014701259
-2.4606673e-10
-1.3545857e-10
0.010068394
-6.8393546e-05
0.010267405
-0.0001990111
0.010549879
-0.00028247386
0.010858545
-0.0003086665
0.011167288
-0.00030874346
0.011466046
-0.00029875794
0.01174706
-0.00028101349
0.012004047
-0.00025698755
0.012234567
-0.00023051976
0.012439713
-0.00020514581
0.012622275
-0.00018256227
0.012785275
-0.00016299952
0.0129315
-0.00014622491
0.013063403
-0.00013190319
0.013183077
-0.00011967436
0.013292252
-0.00010917471
0.013392321
-0.00010006914
0.013484397
-9.2076381e-05
0.013569373
-8.4975207e-05
0.013647971
-7.8598525e-05
0.013720794
-7.2822203e-05
0.013788347
-6.7553858e-05
0.013851071
-6.272389e-05
0.01390935
-5.8278921e-05
0.013963527
-5.4177062e-05
0.014013912
-5.0384531e-05
0.014060785
-4.6873254e-05
0.014104404
-4.3619233e-05
0.014145006
-4.0601458e-05
0.014182807
-3.7801223e-05
0.014218009
-3.520166e-05
0.014250796
-3.2787433e-05
0.014281341
-3.0544523e-05
0.014309801
-2.8460073e-05
0.014336323
-2.6522268e-05
0.014361043
-2.4720229e-05
0.014384087
-2.3043954e-05
0.014405571
-2.1484235e-05
0.014425604
-2.0032596e-05
0.014444285
-1.8681235e-05
0.014461708
-1.7422964e-05
0.014477959
-1.6251147e-05
0.014493119
-1.5159646e-05
0.014507262
-1.4142769e-05
0.014520457
-1.3195245e-05
0.014532769
-1.2312173e-05
0.014544258
-1.1489016e-05
0.014554979
-1.072158e-05
0.014564985
-1.000599e-05
0.014574324
-9.338672e-06
0.014583041
-8.7163213e-06
0.014591177
-8.1358861e-06
0.014598771
-7.5945179e-06
0.014605861
-7.0895533e-06
0.014612479
-6.6185018e-06
0.014618658
-6.1790129e-06
0.014624427
-5.7689005e-06
0.014629813
-5.3861335e-06
0.014634842
-5.0288433e-06
0.014639537
-4.6953224e-06
0.014643921
-4.3840039e-06
0.014648015
-4.0934589e-06
0.014651838
-3.8223356e-06
0.014655407
-3.5693468e-06
0.01465874
-3.3332648e-06
0.014661853
-3.1128969e-06
0.01466476
-2.9071249e-06
0.014667474
-2.7149134e-06
0.01467001
-2.5353386e-06
0.014672377
-2.3675763e-06
0.014674588
-2.2108973e-06
0.014676653
-2.0646486e-06
0.014678582
-1.9282088e-06
0.014680383
-1.8009273e-06
0.014682065
-1.6821958e-06
0.014683636
-1.5713354e-06
0.014685104
-1.4677703e-06
0.014686474
-1.3708847e-06
0.014687754
-1.2802999e-06
0.01468895
-1.1955289e-06
0.014690067
-1.1164355e-06
0.01469111
-1.0425356e-06
0.014692084
-9.7385428e-07
0.014692994
-9.0962749e-07
0.014693843
-8.5006892e-07
0.014694637
-7.9397836e-07
0.014695379
-7.4209111e-07
0.014696071
-6.9260206e-07
0.014696718
-6.4740198e-07
0.014697322
-6.0350406e-07
0.014697887
-5.6475036e-07
0.014698413
-5.2569322e-07
0.014698907
-4.9348697e-07
0.014699365
-4.5802878e-07
0.014699797
-4.3247099e-07
0.014700195
-3.9873657e-07
0.014700575
-3.8060742e-07
0.014700922
-3.4650912e-07
0.014701259
-3.3725003e-07
-3.0453e-07
0.010097182
-0.00016557514
0.010346961
-0.00044879099
0.010662469
-0.00059798179
0.010982753
-0.00062895029
0.011290229
-0.00061621891
0.011575251
-0.00058378058
0.011829022
-0.00053478419
0.012047865
-0.00047583043
0.012233272
-0.00041592657
0.01238924
-0.00036111392
0.012520295
-0.00031361708
0.012630755
-0.00027346028
0.012724428
-0.00023989725
0.012804515
-0.0002119904
0.012873613
-0.00018877269
0.012933772
-0.00016933393
0.012986596
-0.00015289296
0.013033332
-0.00013881178
0.01307495
-0.00012659371
0.013112216
-0.00011586436
0.013145739
-0.00010634488
0.013176012
-9.7826985e-05
0.013203441
-9.0153395e-05
0.013228366
-8.3203437e-05
0.013251071
-7.6882698e-05
0.013271802
-7.1115633e-05
0.01329077
-6.5840328e-05
0.013308155
-6.1004896e-05
0.013324119
-5.6565015e-05
0.0133388
-5.2482257e-05
0.013352321
-4.8722947e-05
0.013364791
-4.5257335e-05
0.013376306
-4.2058987e-05
0.01338695
-3.9104314e-05
0.0133968
-3.63722e-05
0.013405923
-3.3843698e-05
0.013414381
-3.1501765e-05
0.013422228
-2.9331043e-05
0.013429513
-2.731767e-05
0.013436281
-2.5449098e-05
0.013442572
-2.3713946e-05
0.013448423
-2.2101862e-05
0.013453866
-2.060341e-05
0.013458933
-1.9209967e-05
0.013463652
-1.7913647e-05
0.013468047
-1.6707228e-05
0.013472142
-1.5584094e-05
0.013475959
-1.453818e-05
0.013479517
-1.3563925e-05
0.013482834
-1.2656217e-05
0.013485928
-1.1810348e-05
0.013488814
-1.1021964e-05
0.013491507
-1.0287033e-05
0.013494019
-9.6018068e-06
0.013496363
-8.962802e-06
0.013498551
-8.3667889e-06
0.013500593
-7.8107756e-06
0.013502499
-7.2920032e-06
0.013504278
-6.8079366e-06
0.013505939
-6.3562375e-06
0.01350749
-5.9347467e-06
0.013508938
-5.5414463e-06
0.01351029
-5.1744417e-06
0.013511552
-4.8319414e-06
0.013512731
-4.5122516e-06
0.013513832
-4.213791e-06
0.01351486
-3.9350943e-06
0.01351582
-3.6748166e-06
0.013516716
-3.4317491e-06
0.013517554
-3.2047815e-06
0.013518336
-2.9929057e-06
0.013519066
-2.7951482e-06
0.013519749
-2.6105988e-06
0.013520386
-2.4383354e-06
0.013520981
-2.2775073e-06
0.013521537
-2.1272526e-06
0.013522056
-1.9868663e-06
0.013522541
-1.855608e-06
0.013522994
-1.7330072e-06
0.013523417
-1.6184226e-06
0.013523812
-1.5115825e-06
0.013524181
-1.411777e-06
0.013524526
-1.3188806e-06
0.013524848
-1.2319285e-06
0.013525149
-1.1510676e-06
0.01352543
-1.0749584e-06
0.013525692
-1.0044155e-06
0.013525937
-9.3747868e-07
0.013526166
-8.7617098e-07
0.01352638
-8.1721153e-07
0.01352658
-7.6461544e-07
0.013526767
-7.1240387e-07
0.013526941
-6.6816819e-07
0.013527104
-6.2094008e-07
0.013527256
-5.8505465e-07
0.013527398
-5.4067736e-07
0.013527532
-5.1459396e-07
0.013527657
-4.710061e-07
0.013527778
-4.5772443e-07
-4.1428081e-07
0.010188704
-0.00035427932
0.010530486
-0.00079057336
0.010851453
-0.00091894824
0.011124174
-0.00090167141
0.011350581
-0.00084262625
0.011524486
-0.00075768556
0.01164633
-0.00065662738
0.011724155
-0.0005536558
0.011767999
-0.0004597708
0.011786639
-0.00037975355
0.011787114
-0.00031409263
0.011775058
-0.00026140431
0.011754861
-0.00021969953
0.011729768
-0.00018689788
0.011702054
-0.00016105802
0.011673239
-0.00014051892
0.011644339
-0.00012399293
0.011616003
-0.00011047597
0.011588629
-9.9219846e-05
0.011562446
-8.9681395e-05
0.011537572
-8.1470677e-05
0.011514052
-7.4307868e-05
0.01149189
-6.7990524e-05
0.011471056
-6.2370014e-05
0.011451509
-5.733503e-05
0.011433193
-5.2800187e-05
0.011416051
-4.8698256e-05
0.011400021
-4.4974936e-05
0.011385042
-4.1585369e-05
0.011371051
-3.8491829e-05
0.01135799
-3.5662146e-05
0.011345801
-3.3068614e-05
0.01133443
-3.0687185e-05
0.011323822
-2.849687e-05
0.011313929
-2.6479263e-05
0.011304704
-2.4618162e-05
0.011296101
-2.2899251e-05
0.01128808
-2.1309842e-05
0.011280601
-1.9838646e-05
0.011273628
-1.8475589e-05
0.011267125
-1.7211646e-05
0.011261062
-1.6038712e-05
0.011255408
-1.4949479e-05
0.011250135
-1.3937348e-05
0.011245218
-1.2996339e-05
0.011240632
-1.2121025e-05
0.011236354
-1.1306465e-05
0.011232364
-1.0548153e-05
0.011228643
-9.8419632e-06
0.01122517
-9.1841133e-06
0.011221931
-8.5711237e-06
0.011218909
-7.9997886e-06
0.011216089
-7.467151e-06
0.011213457
-6.9704803e-06
0.011211002
-6.5072586e-06
0.01120871
-6.0751609e-06
0.011206572
-5.6720422e-06
0.011204576
-5.2959199e-06
0.011202713
-4.9449569e-06
0.011200974
-4.6174467e-06
0.011199351
-4.3117971e-06
0.011197836
-4.0265203e-06
0.011196422
-3.7602277e-06
0.011195101
-3.5116235e-06
0.011193868
-3.2795097e-06
0.011192718
-3.0627755e-06
0.011191643
-2.8603995e-06
0.01119064
-2.6714333e-06
0.011189703
-2.4949995e-06
0.011188829
-2.3302715e-06
0.011188012
-2.1764765e-06
0.01118725
-2.0328712e-06
0.011186538
-1.8987714e-06
0.011185873
-1.7735118e-06
0.011185252
-1.6565121e-06
0.011184672
-1.5471966e-06
0.01118413
-1.4451018e-06
0.011183625
-1.3497242e-06
0.011183152
-1.2607028e-06
0.011182712
-1.1775452e-06
0.0111823
-1.0999759e-06
0.011181915
-1.0274548e-06
0.011181556
-9.5983468e-07
0.01118122
-8.9648698e-07
0.011180907
-8.3749662e-07
0.011180614
-7.8207184e-07
0.011180341
-7.3067501e-07
0.011180086
-6.8215574e-07
0.011179847
-6.3756179e-07
0.011179625
-5.9501947e-07
0.011179416
-5.5655036e-07
0.011179223
-5.1899661e-07
0.01117904
-4.8610824e-07
0.011178872
-4.5252573e-07
0.011178712
-4.2510434e-07
0.011178567
-3.9466113e-07
0.011178426
-3.7362364e-07
0.011178301
-3.4614572e-07
0.011178178
-3.3504535e-07
-3.0914516e-07
0.010339525
-0.00069380426
0.010570754
-0.0010218027
0.0106063
-0.00095449451
0.010547572
-0.00084294334
0.010422317
-0.00071737078
0.010244356
-0.0005797244
0.010039421
-0.00045169202
0.0098287427
-0.000342978
0.009625135
-0.00025616319
0.0094353013
-0.00018991986
0.0092624277
-0.000141219
0.0091075332
-0.00010650981
0.0089701539
-8.2320224e-05
0.0088489023
-6.5646231e-05
0.0087419715
-5.4127231e-05
0.0086474927
-4.6040023e-05
0.008563694
-4.0194274e-05
0.0084890108
-3.5792751e-05
0.0084221097
-3.2318766e-05
0.0083618775
-2.9449297e-05
0.0083073954
-2.6988594e-05
0.0082579079
-2.4820313e-05
0.0082127929
-2.2875485e-05
0.0081715353
-2.1112413e-05
0.0081337049
-1.9504645e-05
0.0080989388
-1.8034005e-05
0.0080669272
-1.6686718e-05
0.0080374037
-1.5451361e-05
0.0080101361
-1.4317866e-05
0.0079849214
-1.327708e-05
0.0079615798
-1.2320601e-05
0.0079399519
-1.1440728e-05
0.0079198951
-1.0630438e-05
0.0079012816
-9.883363e-06
0.0078839962
-9.1937649e-06
0.0078679345
-8.5564878e-06
0.0078530022
-7.9669124e-06
0.0078391133
-7.420902e-06
0.0078261894
-6.9147503e-06
0.0078141589
-6.4451333e-06
0.0078029563
-6.0090632e-06
0.0077925214
-5.603851e-06
0.007782799
-5.2270704e-06
0.0077737381
-4.8765278e-06
0.0077652921
-4.5502361e-06
0.0077574175
-4.2463872e-06
0.0077500744
-3.9633332e-06
0.0077432258
-3.6995644e-06
0.0077368375
-3.453694e-06
0.0077308778
-3.2244451e-06
0.0077253173
-3.0106385e-06
0.0077201287
-2.8111876e-06
0.0077152866
-2.6250892e-06
0.0077107675
-2.4514193e-06
0.0077065496
-2.2893281e-06
0.0077026126
-2.13803e-06
0.0076989374
-1.9968001e-06
0.0076955064
-1.8649628e-06
0.0076923034
-1.7418866e-06
0.0076893129
-1.6269799e-06
0.0076865207
-1.5196855e-06
0.0076839136
-1.4194847e-06
0.0076814792
-1.325895e-06
0.007679206
-1.2384721e-06
0.0076770834
-1.1568107e-06
0.0076751012
-1.0805361e-06
0.0076732502
-1.0093042e-06
0.0076715216
-9.4278901e-07
0.0076699073
-8.8068229e-07
0.0076683997
-8.2268684e-07
0.0076669916
-7.6851988e-07
0.0076656766
-7.1791252e-07
0.0076644483
-6.7062198e-07
0.0076633013
-6.2642061e-07
0.00766223
-5.8511921e-07
0.0076612294
-5.4653028e-07
0.0076602949
-5.1050529e-07
0.0076594221
-4.7686917e-07
0.0076586069
-4.4548929e-07
0.0076578454
-4.1617616e-07
0.0076571341
-3.8881749e-07
0.0076564698
-3.6321037e-07
0.0076558492
-3.3930545e-07
0.0076552696
-3.1688923e-07
0.0076547283
-2.9601367e-07
0.0076542228
-2.764154e-07
0.0076537504
-2.5826581e-07
0.0076533095
-2.4116533e-07
0.0076528973
-2.2544653e-07
0.0076525126
-2.1047706e-07
0.0076521528
-1.9686433e-07
0.0076518174
-1.8365579e-07
0.0076515032
-1.7189484e-07
0.007651211
-1.6023124e-07
0.0076509362
-1.5021376e-07
0.0076506819
-1.4021417e-07
0.0076504402
-1.3189597e-07
0.0076502187
-1.2473333e-07
0.0076500027
-1.1910975e-07
-1.2500912e-07
0.0093061957
0.008284393
0.0073298986
0.0064869552
0.0057695845
0.00518986
0.004738168
0.00439519
0.0041390268
0.003949107
0.003807888
0.0037013782
0.003619058
0.0035534117
0.0034992845
0.0034532444
0.0034130501
0.0033772574
0.0033449386
0.0033154893
0.0032885008
0.0032636805
0.003240805
0.0032196926
0.0032001879
0.0031821539
0.0031654672
0.0031500158
0.0031356979
0.0031224209
0.0031101003
0.0030986595
0.0030880291
0.0030781458
0.003068952
0.0030603955
0.0030524286
0.0030450077
0.0030380929
0.0030316478
0.0030256387
0.0030200349
0.0030148078
0.0030099313
0.0030053811
0.0030011347
0.0029971713
0.0029934718
0.002990018
0.0029867936
0.002983783
0.0029809718
0.0029783467
0.0029758953
0.002973606
0.0029714679
0.0029694711
0.0029676062
0.0029658643
0.0029642373
0.0029627176
0.0029612981
0.0029599722
0.0029587338
0.002957577
0.0029564964
0.0029554871
0.0029545443
0.0029536636
0.0029528409
0.0029520724
0.0029513545
0.0029506839
0.0029500575
0.0029494724
0.0029489259
0.0029484153
0.0029479384
0.0029474929
0.0029470767
0.0029466879
0.0029463247
0.0029459855
0.0029456686
0.0029453726
0.0029450962
0.0029448379
0.0029445967
0.0029443712
0.0029441607
0.0029439639
0.0029437802
0.0029436084
0.0029434482
0.0029432979
0.0029431577
0.0029430257
0.0029429009
0.0029427818
)
;

boundaryField
{
    top
    {
        type            calculated;
        value           uniform 0;
    }
    inlet
    {
        type            calculated;
        value           nonuniform List<scalar> 10(-0.01 -0.01 -0.01 -0.01 -0.01 -0.01 -0.01 -0.01 -0.01 -0.01);
    }
    outlet
    {
        type            calculated;
        value           nonuniform List<scalar> 10(0.002942657 0.0076498189 0.011178073 0.013527887 0.014701564 0.014701564 0.013527887 0.011178073 0.0076498186 0.0029426568);
    }
    bottom
    {
        type            calculated;
        value           uniform 0;
    }
    back
    {
        type            empty;
        value           nonuniform 0();
    }
    front
    {
        type            empty;
        value           nonuniform 0();
    }
}


// ************************************************************************* //
