/*--------------------------------*- C++ -*----------------------------------*\
| =========                 |                                                 |
| \\      /  F ield         | OpenFOAM: The Open Source CFD Toolbox           |
|  \\    /   O peration     | Version:  v1812                                 |
|   \\  /    A nd           | Web:      www.OpenFOAM.com                      |
|    \\/     M anipulation  |                                                 |
\*---------------------------------------------------------------------------*/
FoamFile
{
    version     2.0;
    format      ascii;
    class       surfaceScalarField;
    location    "0.05";
    object      phi;
}
// * * * * * * * * * * * * * * * * * * * * * * * * * * * * * * * * * * * * * //

dimensions      [0 3 -1 0 0 0 0];
oriented        oriented;


internalField   nonuniform List<scalar> 
1890
(
0.0097762009
0.00022380007
0.0097199867
5.621472e-05
0.0096989548
2.1031624e-05
0.0096887205
1.0233611e-05
0.0096834282
5.2916293e-06
0.0096806377
2.7900148e-06
0.009679151
1.4866379e-06
0.0096783539
7.9740786e-07
0.0096779247
4.2951058e-07
0.009677693
2.319532e-07
0.0096775677
1.2547033e-07
0.0096774998
6.7941522e-08
0.0096774629
3.6817873e-08
0.0096774429
1.9964582e-08
0.009677432
1.083483e-08
0.009677426
5.8863929e-09
0.0096774229
3.2048911e-09
0.0096774211
1.749744e-09
0.0096774202
9.6164787e-10
0.0096774197
5.3249016e-10
0.0096774195
3.006223e-10
0.0096774193
1.7301471e-10
0.0096774192
1.0480194e-10
0.0096774192
6.5910277e-11
0.0096774191
4.5774717e-11
0.0096774191
3.2884806e-11
0.0096774191
2.7007174e-11
0.009677419
2.1736168e-11
0.009677419
1.9997559e-11
0.009677419
1.6891932e-11
0.009677419
1.6513568e-11
0.009677419
1.4076851e-11
0.009677419
1.4071633e-11
0.009677419
1.1816104e-11
0.009677419
1.2085666e-11
0.009677419
9.9553699e-12
0.009677419
1.0289436e-11
0.009677419
8.2055474e-12
0.009677419
8.7310159e-12
0.009677419
6.7490458e-12
0.009677419
7.3152595e-12
0.009677419
5.3805849e-12
0.009677419
6.1269878e-12
0.0096774189
4.2974513e-12
0.0096774189
5.0731641e-12
0.0096774189
3.290701e-12
0.0096774189
4.2343906e-12
0.0096774189
2.5540681e-12
0.0096774189
3.5117464e-12
0.0096774189
1.8720026e-12
0.0096774189
2.9808933e-12
0.0096774189
1.4306334e-12
0.0096774189
2.5300873e-12
0.0096774189
9.9920072e-13
0.0096774189
2.2207236e-12
0.0096774189
7.5239814e-13
0.0096774189
1.9322877e-12
0.0096774189
4.5463633e-13
0.0096774189
1.7315038e-12
0.0096774189
3.0198066e-13
0.0096774189
1.5366597e-12
0.0096774189
1.1207701e-13
0.0096774189
1.4637735e-12
0.0096774189
1.0841328e-13
0.0096774189
1.4217516e-12
0.0096774189
5.7953642e-14
0.0096774189
1.4455104e-12
0.0096774189
5.5344618e-14
0.0096774189
1.2704282e-12
0.0096774189
-2.977063e-13
0.0096774189
9.020007e-13
0.0096774189
-6.3460348e-13
0.0096774189
6.9205752e-13
0.0096774189
-4.8999693e-13
0.0096774189
1.3329893e-12
0.0096774189
6.6574524e-13
0.0096774189
2.7221836e-12
0.0096774189
2.3776259e-12
0.0096774189
5.4110327e-12
0.0096774189
7.0461414e-12
0.0096774188
1.5043383e-11
0.0096774189
2.6716296e-11
0.0096774188
5.3386323e-11
0.0096774188
9.9057623e-11
0.0096774186
1.8530824e-10
0.0096774182
3.3970898e-10
0.0096774175
6.2706115e-10
0.0096774163
1.154893e-09
0.0096774142
2.1401655e-09
0.0096774103
3.9713198e-09
0.0096774029
7.4049412e-09
0.0096773891
1.3891781e-08
0.0096773627
2.6360145e-08
0.0096773116
5.0979403e-08
0.0096772098
1.017622e-07
0.0096769961
2.1365481e-07
0.009676512
4.8407429e-07
0.009675295
1.2170985e-06
0.0096718296
3.4654947e-06
2.5718707e-06
0.010106701
0.00011710003
0.010102352
6.0564741e-05
0.010092988
3.0395059e-05
0.010087429
1.5791703e-05
0.010084355
8.3652946e-06
0.010082668
4.476406e-06
0.010081746
2.4086878e-06
0.010081243
1.3001655e-06
0.01008097
7.0309642e-07
0.010080822
3.8063667e-07
0.010080741
2.0620797e-07
0.010080697
1.1176631e-07
0.010080673
6.0603973e-08
0.01008066
3.2879325e-08
0.010080653
1.7851794e-08
0.010080649
9.706082e-09
0.010080647
5.2884727e-09
0.010080646
2.893258e-09
0.010080646
1.59249e-09
0.010080645
8.8699337e-10
0.010080645
5.0242599e-10
0.010080645
2.9389136e-10
0.010080645
1.7899371e-10
0.010080645
1.1677947e-10
0.010080645
8.1108453e-11
0.010080645
6.1874394e-11
0.010080645
4.9455884e-11
0.010080645
4.2861825e-11
0.010080645
3.7150061e-11
0.010080645
3.4253711e-11
0.010080645
3.0594083e-11
0.010080645
2.8907432e-11
0.010080645
2.5858315e-11
0.010080645
2.4598212e-11
0.010080645
2.1891489e-11
0.010080645
2.0928259e-11
0.010080645
1.8367086e-11
0.010080645
1.7582602e-11
0.010080645
1.5248802e-11
0.010080645
1.4700796e-11
0.010080645
1.2489121e-11
0.010080645
1.2101764e-11
0.010080645
1.0113577e-11
0.010080645
9.951151e-12
0.010080645
8.0798701e-12
0.010080645
8.0618845e-12
0.010080645
6.4038774e-12
0.010080645
6.5913941e-12
0.010080645
5.0337512e-12
0.010080645
5.3391735e-12
0.010080645
3.9704906e-12
0.010080645
4.4456661e-12
0.010080645
3.1373792e-12
0.010080645
3.6807779e-12
0.010080645
2.5092151e-12
0.010080645
3.1632474e-12
0.010080645
1.9924618e-12
0.010080645
2.6550429e-12
0.010080645
1.5744073e-12
0.010080645
2.3215874e-12
0.010080645
1.2450041e-12
0.010080645
2.0263236e-12
0.010080645
1.0791923e-12
0.010080645
1.9729218e-12
0.010080645
1.0354495e-12
0.010080645
1.9302893e-12
0.010080645
1.0194623e-12
0.010080645
1.8347546e-12
0.010080645
6.3687944e-13
0.010080645
1.1608492e-12
0.010080645
-1.5443202e-13
0.010080645
5.1708637e-13
0.010080645
-3.952394e-13
0.010080645
9.1909813e-13
0.010080645
8.5059737e-13
0.010080645
2.7326197e-12
0.010080645
2.9234948e-12
0.010080645
5.2394755e-12
0.010080645
6.7059691e-12
0.010080645
1.2928575e-11
0.010080645
2.2874647e-11
0.010080645
4.5781656e-11
0.010080645
8.675799e-11
0.010080645
1.6417401e-10
0.010080644
3.0308608e-10
0.010080644
5.5923877e-10
0.010080644
1.028062e-09
0.010080643
1.8976311e-09
0.010080642
3.5038453e-09
0.010080639
6.4814852e-09
0.010080635
1.1999837e-08
0.010080626
2.2259965e-08
0.010080611
4.1413001e-08
0.010080585
7.7386411e-08
0.010080541
1.454017e-07
0.01008048
2.7445619e-07
0.010080448
5.1627469e-07
0.010080727
9.3861259e-07
0.010082721
1.471384e-06
8.8559686e-07
0.010055349
6.1752015e-05
0.010073293
4.2621576e-05
0.010078478
2.5209642e-05
0.010080009
1.4259547e-05
0.010080466
7.9075455e-06
0.0100806
4.3419988e-06
0.010080637
2.3715556e-06
0.010080646
1.2914569e-06
0.010080647
7.0206594e-07
0.010080647
3.8127807e-07
0.010080647
2.0694991e-07
0.010080646
1.1230066e-07
0.010080646
6.0942498e-08
0.010080645
3.3084851e-08
0.010080645
1.7977835e-08
0.010080645
9.785509e-09
0.010080645
5.3422262e-09
0.010080645
2.930979e-09
0.010080645
1.6216617e-09
0.010080645
9.0963326e-10
0.010080645
5.2217886e-10
0.010080645
3.1056524e-10
0.010080645
1.9492141e-10
0.010080645
1.3087853e-10
0.010080645
9.5280228e-11
0.010080645
7.4573014e-11
0.010080645
6.2371108e-11
0.010080645
5.420131e-11
0.010080645
4.8736903e-11
0.010080645
4.4209081e-11
0.010080645
4.0790149e-11
0.010080645
3.7394976e-11
0.010080645
3.4687475e-11
0.010080645
3.1786573e-11
0.010080645
2.9485858e-11
0.010080645
2.6874392e-11
0.010080645
2.4840796e-11
0.010080645
2.2498892e-11
0.010080645
2.0752178e-11
0.010080645
1.8638091e-11
0.010080645
1.712086e-11
0.010080645
1.5257906e-11
0.010080645
1.4013235e-11
0.010080645
1.2366552e-11
0.010080645
1.1336487e-11
0.010080645
9.9283914e-12
0.010080645
9.1517904e-12
0.010080645
7.9395379e-12
0.010080645
7.3495654e-12
0.010080645
6.3478112e-12
0.010080645
5.9720007e-12
0.010080645
5.1206261e-12
0.010080645
4.8729354e-12
0.010080645
4.1678883e-12
0.010080645
4.0599191e-12
0.010080645
3.4269809e-12
0.010080645
3.3645309e-12
0.010080645
2.802758e-12
0.010080645
2.8232972e-12
0.010080645
2.3092084e-12
0.010080645
2.3855362e-12
0.010080645
1.9846347e-12
0.010080645
2.1921354e-12
0.010080645
1.8773871e-12
0.010080645
2.1393998e-12
0.010080645
1.8771651e-12
0.010080645
2.0940472e-12
0.010080645
1.6090462e-12
0.010080645
1.470768e-12
0.010080645
6.5186745e-13
0.010080645
4.1178172e-13
0.010080645
-2.0039526e-13
0.010080645
2.0444757e-13
0.010080645
5.4845017e-13
0.010080645
1.7917889e-12
0.010080645
2.5977276e-12
0.010080645
3.7776449e-12
0.010080645
4.5792259e-12
0.010080645
6.8639261e-12
0.010080645
1.1391027e-11
0.010080645
2.2715468e-11
0.010080645
4.4810128e-11
0.010080645
8.7532814e-11
0.010080645
1.6477875e-10
0.010080645
3.0533115e-10
0.010080645
5.6126406e-10
0.010080645
1.0321566e-09
0.010080645
1.9002247e-09
0.010080645
3.5021195e-09
0.010080645
6.4491178e-09
0.010080645
1.1856439e-08
0.010080646
2.1732274e-08
0.010080647
3.9646633e-08
0.010080653
7.1747576e-08
0.01008067
1.2800519e-07
0.010080722
2.2249283e-07
0.01008087
3.6795594e-07
0.010081259
5.4969438e-07
0.010082085
6.4626889e-07
3.3429308e-07
0.010034451
2.7302127e-05
0.010055943
2.113019e-05
0.010067534
1.3618054e-05
0.010073658
8.1352744e-06
0.010076901
4.6638446e-06
0.01007863
2.6125058e-06
0.010079557
1.4440572e-06
0.010080057
7.9201648e-07
0.010080327
4.3241144e-07
0.010080473
2.3544775e-07
0.010080552
1.2800275e-07
0.010080595
6.9538848e-08
0.010080618
3.7772549e-08
0.01008063
2.0531932e-08
0.010080637
1.1177483e-08
0.010080641
6.104655e-09
0.010080643
3.3504576e-09
0.010080644
1.8559653e-09
0.010080644
1.0411755e-09
0.010080645
5.9908767e-10
0.010080645
3.5539349e-10
0.010080645
2.2417157e-10
0.010080645
1.493996e-10
0.010080645
1.1026924e-10
0.010080645
8.5330076e-11
0.010080645
7.3156481e-11
0.010080645
6.2483352e-11
0.010080645
5.8020699e-11
0.010080645
5.1311178e-11
0.010080645
4.9097837e-11
0.010080645
4.3480664e-11
0.010080645
4.212497e-11
0.010080645
3.6983194e-11
0.010080645
3.6115777e-11
0.010080645
3.1222358e-11
0.010080645
3.0746516e-11
0.010080645
2.6129654e-11
0.010080645
2.5987879e-11
0.010080645
2.1564195e-11
0.010080645
2.1742053e-11
0.010080645
1.7583934e-11
0.010080645
1.8061663e-11
0.010080645
1.4097501e-11
0.010080645
1.4871215e-11
0.010080645
1.1176837e-11
0.010080645
1.222733e-11
0.010080645
8.7211349e-12
0.010080645
1.003353e-11
0.010080645
6.7806871e-12
0.010080645
8.3254514e-12
0.010080645
5.2250981e-12
0.010080645
6.9676487e-12
0.010080645
4.0608072e-12
0.010080645
5.9524607e-12
0.010080645
3.1162295e-12
0.010080645
5.1102456e-12
0.010080645
2.3765989e-12
0.010080645
4.4392268e-12
0.010080645
1.7219004e-12
0.010080645
3.8726244e-12
0.010080645
1.2880252e-12
0.010080645
3.5601522e-12
0.010080645
1.0590973e-12
0.010080645
3.4519054e-12
0.010080645
1.0884071e-12
0.010080645
3.4889869e-12
0.010080645
9.6583852e-13
0.010080645
3.0720981e-12
0.010080645
1.3256063e-13
0.010080645
1.8903212e-12
0.010080645
-1.2266854e-12
0.010080645
9.7361008e-13
0.010080645
-1.2374546e-12
0.010080645
2.0029534e-12
0.010080645
6.1656236e-13
0.010080645
3.8632153e-12
0.010080645
1.9410862e-12
0.010080645
4.1831538e-12
0.010080645
1.8638147e-12
0.010080645
6.4071803e-12
0.010080645
1.0179524e-11
0.010080645
2.7371022e-11
0.010080645
5.2431448e-11
0.010080645
1.0417037e-10
0.010080645
1.8940149e-10
0.010080645
3.4896527e-10
0.010080645
6.3575165e-10
0.010080646
1.172143e-09
0.010080648
2.1538705e-09
0.01008065
3.961443e-09
0.010080655
7.2434611e-09
0.010080663
1.3168241e-08
0.010080679
2.3690453e-08
0.010080709
4.1954183e-08
0.010080765
7.237533e-08
0.010080867
1.19557e-07
0.010081052
1.8336052e-07
0.010081356
2.4594257e-07
0.010081752
2.50718e-07
1.1858629e-07
0.010027303
-6.7641226e-11
0.010048434
-4.4527271e-11
0.010062052
-1.0872414e-11
0.010070186
2.5966673e-11
0.010074849
6.3212213e-11
0.010077461
9.2661434e-11
0.010078905
1.0778789e-10
0.010079697
1.0832668e-10
0.01008013
9.9349085e-11
0.010080365
8.5610186e-11
0.010080493
7.6501361e-11
0.010080563
7.1204154e-11
0.010080601
7.3795858e-11
0.010080621
7.7432505e-11
0.010080632
8.3345997e-11
0.010080638
8.5092489e-11
0.010080641
8.6077812e-11
0.010080643
8.2207352e-11
0.010080644
7.9330986e-11
0.010080644
7.3428486e-11
0.010080645
7.0667805e-11
0.010080645
6.5532135e-11
0.010080645
6.4092176e-11
0.010080645
5.9868444e-11
0.010080645
5.9063199e-11
0.010080645
5.4771632e-11
0.010080645
5.3798188e-11
0.010080645
4.9148685e-11
0.010080645
4.8016036e-11
0.010080645
4.307199e-11
0.010080645
4.1959547e-11
0.010080645
3.7100545e-11
0.010080645
3.6298853e-11
0.010080645
3.156464e-11
0.010080645
3.1035396e-11
0.010080645
2.6567304e-11
0.010080645
2.6399105e-11
0.010080645
2.2086111e-11
0.010080645
2.2153612e-11
0.010080645
1.8105295e-11
0.010080645
1.8507085e-11
0.010080645
1.4621637e-11
0.010080645
1.5242696e-11
0.010080645
1.1637136e-11
0.010080645
1.2584267e-11
0.010080645
9.1483487e-12
0.010080645
1.0291101e-11
0.010080645
7.1265216e-12
0.010080645
8.5605967e-12
0.010080645
5.5361271e-12
0.010080645
7.1088135e-12
0.010080645
4.3016701e-12
0.010080645
6.0893512e-12
0.010080645
3.3441028e-12
0.010080645
5.1774141e-12
0.010080645
2.5566771e-12
0.010080645
4.5157766e-12
0.010080645
1.8846591e-12
0.010080645
3.8519743e-12
0.010080645
1.3506418e-12
0.010080645
3.4899861e-12
0.010080645
1.0519363e-12
0.010080645
3.2666092e-12
0.010080645
1.0143553e-12
0.010080645
3.3709147e-12
0.010080645
1.0468293e-12
0.010080645
3.1564751e-12
0.010080645
5.0454085e-13
0.010080645
2.2287172e-12
0.010080645
-8.6325391e-13
0.010080645
8.4643403e-13
0.010080645
-1.6857626e-12
0.010080645
1.0391688e-12
0.010080645
-5.2402527e-13
0.010080645
2.6350033e-12
0.010080645
8.6383678e-13
0.010080645
2.7017832e-12
0.010080645
-1.1345647e-12
0.010080645
-1.0756396e-12
0.010080645
-5.570211e-12
0.010080645
-3.8601067e-12
0.010080645
-5.17697e-12
0.010080645
-8.2378548e-14
0.010080645
4.9288351e-13
0.010080645
3.6183279e-12
0.010080645
-4.7056803e-13
0.010080646
-2.1882496e-12
0.010080647
-8.2825691e-12
0.010080649
-7.185863e-12
0.010080653
-8.074777e-12
0.010080661
-2.6079833e-12
0.010080674
-2.5759672e-12
0.010080698
-5.3669569e-13
0.010080739
-5.0443122e-12
0.010080812
-5.4844601e-12
0.010080931
-8.1095686e-12
0.010081115
-6.2877065e-12
0.010081361
-4.9845232e-12
0.010081612
-1.6108018e-12
-2.3348164e-13
0.010027303
-2.7302251e-05
0.010048434
-2.1130307e-05
0.010062052
-1.361811e-05
0.010070186
-8.1352364e-06
0.010074849
-4.6637177e-06
0.010077461
-2.6123105e-06
0.010078905
-1.4438327e-06
0.010079697
-7.9179924e-07
0.01008013
-4.3222123e-07
0.010080365
-2.3529171e-07
0.010080493
-1.2786891e-07
0.010080563
-6.9413413e-08
0.010080601
-3.7641247e-08
0.010080621
-2.0388352e-08
0.010080632
-1.1021818e-08
0.010080638
-5.9425115e-09
0.010080641
-3.1880913e-09
0.010080643
-1.6999784e-09
0.010080644
-8.9340446e-10
0.010080644
-4.615649e-10
0.010080645
-2.2567515e-10
0.010080645
-1.0227419e-10
0.010080645
-3.2281955e-11
0.010080645
1.4458434e-12
0.010080645
2.279088e-11
0.010080645
2.9588332e-11
0.010080645
3.6188053e-11
0.010080645
3.4562353e-11
0.010080645
3.6569303e-11
0.010080645
3.2126413e-11
0.010080645
3.3012371e-11
0.010080645
2.7972846e-11
0.010080645
2.8806513e-11
0.010080645
2.3621327e-11
0.010080645
2.4762969e-11
0.010080645
1.9807711e-11
0.010080645
2.1202928e-11
0.010080645
1.6263324e-11
0.010080645
1.794509e-11
0.010080645
1.3248513e-11
0.010080645
1.5135782e-11
0.010080645
1.0461521e-11
0.010080645
1.2616908e-11
0.010080645
8.2173157e-12
0.010080645
1.0572765e-11
0.010080645
6.2163608e-12
0.010080645
8.8232754e-12
0.010080645
4.7486459e-12
0.010080645
7.5205397e-12
0.010080645
3.4678926e-12
0.010080645
6.4329653e-12
0.010080645
2.6155189e-12
0.010080645
5.6685212e-12
0.010080645
1.8009483e-12
0.010080645
4.9592552e-12
0.010080645
1.2448931e-12
0.010080645
4.415579e-12
0.010080645
5.9813265e-13
0.010080645
3.8599679e-12
0.010080645
2.2987168e-13
0.010080645
3.5664804e-12
0.010080645
-6.8833828e-14
0.010080645
3.432199e-12
0.010080645
4.8350213e-14
0.010080645
3.5775827e-12
0.010080645
1.0325074e-14
0.010080645
3.3382186e-12
0.010080645
-5.6793459e-13
0.010080645
2.2932767e-12
0.010080645
-2.1188606e-12
0.010080645
9.2176267e-13
0.010080645
-2.7568503e-12
0.010080645
1.2003731e-12
0.010080645
-1.5281665e-12
0.010080645
2.7522984e-12
0.010080645
-3.7569947e-13
0.010080645
1.9546309e-12
0.010080645
-4.5690673e-12
0.010080645
-5.6193106e-12
0.010080645
-1.5948964e-11
0.010080645
-2.0419472e-11
0.010080645
-3.6451758e-11
0.010080645
-5.4784344e-11
0.010080645
-1.0113974e-10
0.010080645
-1.8301619e-10
0.010080645
-3.4743522e-10
0.010080646
-6.4077421e-10
0.010080647
-1.1865738e-09
0.010080649
-2.1700769e-09
0.010080653
-3.97637e-09
0.010080661
-7.2513203e-09
0.010080674
-1.3172249e-08
0.010080698
-2.3693223e-08
0.010080739
-4.196153e-08
0.010080812
-7.2385114e-08
0.010080931
-1.1956974e-07
0.010081115
-1.8337214e-07
0.010081361
-2.4594999e-07
0.010081612
-2.507222e-07
-1.1858743e-07
0.010034451
-6.1752269e-05
0.010055943
-4.2621786e-05
0.010067534
-2.5209746e-05
0.010073658
-1.4259529e-05
0.010076901
-7.9074132e-06
0.01007863
-4.3417989e-06
0.010079557
-2.3713359e-06
0.010080057
-1.2912569e-06
0.010080327
-7.0191177e-07
0.010080473
-3.811623e-07
0.010080552
-2.0686338e-07
0.010080595
-1.12217e-07
0.010080618
-6.0850688e-08
0.01008063
-3.2973652e-08
0.010080637
-1.7852997e-08
0.010080641
-9.6499715e-09
0.010080643
-5.2093018e-09
0.010080644
-2.801584e-09
0.010080644
-1.5052055e-09
0.010080645
-7.9960549e-10
0.010080645
-4.2419823e-10
0.010080645
-2.1489077e-10
0.010080645
-1.0728141e-10
0.010080645
-4.2320147e-11
0.010080645
-1.3599899e-11
0.010080645
8.2390761e-12
0.010080645
1.2691737e-11
0.010080645
2.1187718e-11
0.010080645
1.7639779e-11
0.010080645
2.2090108e-11
0.010080645
1.6248558e-11
0.010080645
1.997158e-11
0.010080645
1.3519408e-11
0.010080645
1.73489e-11
0.010080645
1.1005641e-11
0.010080645
1.5216273e-11
0.010080645
8.8179464e-12
0.010080645
1.3203993e-11
0.010080645
6.9307893e-12
0.010080645
1.1571522e-11
0.010080645
5.2023941e-12
0.010080645
9.9387165e-12
0.010080645
3.718803e-12
0.010080645
8.696377e-12
0.010080645
2.4313884e-12
0.010080645
7.5022211e-12
0.010080645
1.4322987e-12
0.010080645
6.7290618e-12
0.010080645
6.2860828e-13
0.010080645
5.9759975e-12
0.010080645
5.1736393e-14
0.010080645
5.56305e-12
0.010080645
-4.4070303e-13
0.010080645
5.047518e-12
0.010080645
-8.4582341e-13
0.010080645
4.7415405e-12
0.010080645
-1.2836954e-12
0.010080645
4.2602033e-12
0.010080645
-1.6348589e-12
0.010080645
4.0631387e-12
0.010080645
-1.8610113e-12
0.010080645
3.8821169e-12
0.010080645
-1.7955082e-12
0.010080645
4.1179837e-12
0.010080645
-1.6414647e-12
0.010080645
4.081957e-12
0.010080645
-1.913858e-12
0.010080645
3.4794945e-12
0.010080645
-3.2069347e-12
0.010080645
1.9471091e-12
0.010080645
-4.4812487e-12
0.010080645
1.4553914e-12
0.010080645
-3.9085957e-12
0.010080645
2.8023694e-12
0.010080645
-1.8676727e-12
0.010080645
4.0425441e-12
0.010080645
-3.2579772e-12
0.010080645
-1.1309287e-12
0.010080645
-1.3947815e-11
0.010080645
-1.711023e-11
0.010080645
-3.6814718e-11
0.010080645
-5.1331384e-11
0.010080645
-9.3460212e-11
0.010080645
-1.5857429e-10
0.010080645
-3.0061326e-10
0.010080645
-5.5326277e-10
0.010080645
-1.0378129e-09
0.010080646
-1.9086043e-09
0.010080648
-3.5225363e-09
0.01008065
-6.4628265e-09
0.010080655
-1.1870009e-08
0.010080663
-2.1733643e-08
0.010080679
-3.9649335e-08
0.010080709
-7.1745793e-08
0.010080765
-1.2801148e-07
0.010080867
-2.224991e-07
0.010081052
-3.6796508e-07
0.010081356
-5.4970104e-07
0.010081752
-6.4627184e-07
-3.3429439e-07
0.010055349
-0.00011710015
0.010073293
-6.0564808e-05
0.010078478
-3.0395071e-05
0.010080009
-1.579167e-05
0.010080466
-8.3652246e-06
0.0100806
-4.4763095e-06
0.010080637
-2.4085794e-06
0.010080646
-1.3000573e-06
0.010080647
-7.0300098e-07
0.010080647
-3.8055658e-07
0.010080647
-2.061415e-07
0.010080646
-1.1170562e-07
0.010080646
-6.0542017e-08
0.010080645
-3.2810405e-08
0.010080645
-1.777582e-08
0.010080645
-9.624483e-09
0.010080645
-5.2066066e-09
0.010080645
-2.8132953e-09
0.010080645
-1.5183763e-09
0.010080645
-8.179204e-10
0.010080645
-4.3959336e-10
0.010080645
-2.3433855e-10
0.010080645
-1.2322499e-10
0.010080645
-6.2347016e-11
0.010080645
-2.9494407e-11
0.010080645
-1.1145751e-11
0.010080645
-1.7384982e-12
0.010080645
3.350209e-12
0.010080645
5.2007287e-12
0.010080645
6.2987393e-12
0.010080645
6.0496053e-12
0.010080645
5.9563465e-12
0.010080645
5.0954796e-12
0.010080645
5.0160986e-12
0.010080645
4.3275383e-12
0.010080645
4.2382764e-12
0.010080645
3.49476e-12
0.010080645
3.6062264e-12
0.010080645
3.0502267e-12
0.010080645
3.0807579e-12
0.010080645
2.3948621e-12
0.010080645
2.573497e-12
0.010080645
2.056133e-12
0.010080645
2.1519453e-12
0.010080645
1.5194512e-12
0.010080645
1.7842394e-12
0.010080645
1.3437029e-12
0.010080645
1.5358825e-12
0.010080645
9.8254738e-13
0.010080645
1.3326007e-12
0.010080645
9.5146113e-13
0.010080645
1.1942114e-12
0.010080645
6.6147088e-13
0.010080645
1.0180745e-12
0.010080645
6.1833871e-13
0.010080645
8.3266727e-13
0.010080645
2.6850744e-13
0.010080645
6.1184391e-13
0.010080645
2.3275826e-13
0.010080645
5.1603166e-13
0.010080645
6.8500761e-14
0.010080645
5.7570615e-13
0.010080645
3.7031489e-13
0.010080645
8.0885298e-13
0.010080645
3.9951376e-13
0.010080645
7.636114e-13
0.010080645
1.3716805e-13
0.010080645
-9.3425268e-14
0.010080645
-1.2385648e-12
0.010080645
-1.3883894e-12
0.010080645
-1.911582e-12
0.010080645
-1.242173e-12
0.010080645
-7.8215212e-13
0.010080645
9.1116004e-13
0.010080645
1.5509816e-12
0.010080645
1.7614799e-12
0.010080645
-8.9828145e-13
0.010080645
-5.2639837e-12
0.010080645
-1.3001156e-11
0.010080645
-2.2156166e-11
0.010080645
-3.4209025e-11
0.010080645
-5.1200072e-11
0.010080645
-8.4903584e-11
0.010080645
-1.5385543e-10
0.010080645
-2.9294941e-10
0.010080645
-5.5500038e-10
0.010080645
-1.0372825e-09
0.010080645
-1.9151146e-09
0.010080645
-3.5240033e-09
0.010080645
-6.4922848e-09
0.010080645
-1.1999627e-08
0.010080646
-2.2251059e-08
0.010080647
-4.1406218e-08
0.010080653
-7.7386e-08
0.01008067
-1.4541157e-07
0.010080722
-2.7446936e-07
0.01008087
-5.1628345e-07
0.010081259
-9.3861193e-07
0.010082085
-1.4713789e-06
-8.8559304e-07
0.010106701
-0.00022379971
0.010102352
-5.6214437e-05
0.010092988
-2.103152e-05
0.010087429
-1.0233678e-05
0.010084355
-5.2917964e-06
0.010082668
-2.790179e-06
0.010081746
-1.4867254e-06
0.010081243
-7.9740201e-07
0.01008097
-4.2942775e-07
0.010080821
-2.3184417e-07
0.010080741
-1.2536935e-07
0.010080697
-6.7874988e-08
0.010080673
-3.6783846e-08
0.01008066
-1.9955142e-08
0.010080653
-1.0831177e-08
0.010080649
-5.8810226e-09
0.010080647
-3.1871066e-09
0.010080646
-1.72545e-09
0.010080646
-9.2812658e-10
0.010080645
-5.0081916e-10
0.010080645
-2.6726321e-10
0.010080645
-1.4680746e-10
0.010080645
-7.8847817e-11
0.010080645
-4.6929793e-11
0.010080645
-2.5179192e-11
0.010080645
-1.7449486e-11
0.010080645
-8.2562845e-12
0.010080645
-7.6060269e-12
0.010080645
-2.0913271e-12
0.010080645
-3.8931081e-12
0.010080645
8.6486374e-14
0.010080645
-2.9772851e-12
0.010080645
5.6332716e-13
0.010080645
-2.8167468e-12
0.010080645
5.7598371e-13
0.010080645
-3.0162539e-12
0.010080645
5.8031357e-13
0.010080645
-2.8835823e-12
0.010080645
7.3963058e-13
0.010080645
-2.8543834e-12
0.010080645
9.2870156e-13
0.010080645
-2.5758284e-12
0.010080645
1.1471935e-12
0.010080645
-2.5278668e-12
0.010080645
1.3007373e-12
0.010080645
-2.2885027e-12
0.010080645
1.4568347e-12
0.010080645
-2.2909452e-12
0.010080645
1.5488721e-12
0.010080645
-2.1015412e-12
0.010080645
1.6424084e-12
0.010080645
-2.1661006e-12
0.010080645
1.660394e-12
0.010080645
-2.0541902e-12
0.010080645
1.6730506e-12
0.010080645
-2.1911362e-12
0.010080645
1.6456281e-12
0.010080645
-2.076006e-12
0.010080645
1.7183477e-12
0.010080645
-2.0894952e-12
0.010080645
1.8438029e-12
0.010080645
-1.8084978e-12
0.010080645
2.0208835e-12
0.010080645
-1.8401392e-12
0.010080645
1.9184099e-12
0.010080645
-2.1171953e-12
0.010080645
1.2728152e-12
0.010080645
-3.1257774e-12
0.010080645
5.2707838e-13
0.010080645
-3.1977754e-12
0.010080645
1.2559953e-12
0.010080645
-1.5827895e-12
0.010080645
3.4413028e-12
0.010080645
4.8372417e-13
0.010080645
3.88517e-12
0.010080645
-2.1138091e-12
0.010080645
-2.0027036e-12
0.010080645
-1.0990486e-11
0.010080645
-1.1273593e-11
0.010080645
-1.7322532e-11
0.010080645
-1.3691326e-11
0.010080645
-2.1269431e-11
0.010080645
-3.6160214e-11
0.010080645
-8.8287905e-11
0.010080644
-1.8132193e-10
0.010080644
-3.5742581e-10
0.010080644
-6.5036898e-10
0.010080643
-1.1810191e-09
0.010080642
-2.1432401e-09
0.010080639
-3.9579908e-09
0.010080635
-7.3746137e-09
0.010080626
-1.3872355e-08
0.010080611
-2.635668e-08
0.010080585
-5.1001984e-08
0.010080541
-1.0179138e-07
0.01008048
-2.1367829e-07
0.010080448
-4.8407361e-07
0.010080727
-1.2170792e-06
0.010082721
-3.4654723e-06
-2.5718615e-06
0.009776201
0.0097199867
0.0096989549
0.0096887207
0.0096834284
0.0096806379
0.0096791511
0.0096783538
0.0096779246
0.0096776929
0.0096775677
0.0096774998
0.0096774629
0.0096774429
0.009677432
0.0096774261
0.0096774228
0.0096774211
0.0096774202
0.0096774197
0.0096774194
0.0096774193
0.0096774192
0.0096774191
0.0096774191
0.0096774191
0.009677419
0.009677419
0.009677419
0.009677419
0.009677419
0.009677419
0.009677419
0.009677419
0.009677419
0.009677419
0.009677419
0.009677419
0.009677419
0.009677419
0.009677419
0.0096774189
0.0096774189
0.0096774189
0.0096774189
0.0096774189
0.0096774189
0.0096774189
0.0096774189
0.0096774189
0.0096774189
0.0096774189
0.0096774189
0.0096774189
0.0096774189
0.0096774189
0.0096774189
0.0096774189
0.0096774189
0.0096774189
0.0096774189
0.0096774189
0.0096774189
0.0096774189
0.0096774189
0.0096774189
0.0096774189
0.0096774189
0.0096774189
0.0096774189
0.0096774189
0.0096774189
0.0096774189
0.0096774189
0.0096774189
0.0096774189
0.0096774189
0.0096774189
0.0096774189
0.0096774189
0.0096774189
0.0096774189
0.0096774189
0.0096774188
0.0096774185
0.0096774181
0.0096774174
0.0096774163
0.0096774142
0.0096774103
0.009677403
0.0096773891
0.0096773627
0.0096773116
0.0096772098
0.0096769961
0.0096765121
0.0096752951
0.0096718296
)
;

boundaryField
{
    top
    {
        type            calculated;
        value           uniform 0;
    }
    inlet
    {
        type            calculated;
        value           nonuniform List<scalar> 10(-0.01 -0.01 -0.01 -0.01 -0.01 -0.01 -0.01 -0.01 -0.01 -0.01);
    }
    outlet
    {
        type            calculated;
        value           nonuniform List<scalar> 10(0.0096692578 0.010084407 0.010082636 0.010081967 0.01008173 0.01008173 0.010081967 0.010082636 0.010084407 0.0096692577);
    }
    bottom
    {
        type            calculated;
        value           uniform 0;
    }
    back
    {
        type            empty;
        value           nonuniform 0();
    }
    front
    {
        type            empty;
        value           nonuniform 0();
    }
}


// ************************************************************************* //
