/*--------------------------------*- C++ -*----------------------------------*\
| =========                 |                                                 |
| \\      /  F ield         | OpenFOAM: The Open Source CFD Toolbox           |
|  \\    /   O peration     | Version:  v1812                                 |
|   \\  /    A nd           | Web:      www.OpenFOAM.com                      |
|    \\/     M anipulation  |                                                 |
\*---------------------------------------------------------------------------*/
FoamFile
{
    version     2.0;
    format      ascii;
    class       volScalarField;
    location    "70";
    object      T;
}
// * * * * * * * * * * * * * * * * * * * * * * * * * * * * * * * * * * * * * //

dimensions      [0 0 0 1 0 0 0];


internalField   nonuniform List<scalar> 
10000
(
1.44935
1.44935
1.44935
1.44935
1.44935
1.44935
1.44935
1.44935
1.44935
1.44935
1.34842
1.34842
1.34842
1.34842
1.34842
1.34842
1.34842
1.34842
1.34842
1.34842
1.24857
1.24857
1.24856
1.24856
1.24856
1.24856
1.24856
1.24856
1.24856
1.24856
1.15049
1.15049
1.15049
1.15049
1.15049
1.15049
1.15049
1.15049
1.15049
1.15049
1.05485
1.05485
1.05485
1.05485
1.05485
1.05485
1.05485
1.05485
1.05485
1.05485
0.962251
0.962251
0.962251
0.962251
0.962251
0.96225
0.96225
0.962251
0.962251
0.962251
0.873239
0.873239
0.873238
0.873238
0.873238
0.873238
0.873238
0.873238
0.873238
0.873238
0.788285
0.788285
0.788285
0.788284
0.788284
0.788284
0.788284
0.788284
0.788284
0.788284
0.707784
0.707784
0.707784
0.707783
0.707783
0.707783
0.707783
0.707783
0.707783
0.707783
0.632047
0.632047
0.632047
0.632046
0.632046
0.632046
0.632046
0.632046
0.632046
0.632046
0.5613
0.561301
0.5613
0.5613
0.561299
0.561299
0.561299
0.561299
0.561299
0.561299
0.495686
0.495687
0.495686
0.495685
0.495685
0.495685
0.495685
0.495685
0.495685
0.495685
0.435266
0.435266
0.435265
0.435265
0.435265
0.435264
0.435264
0.435264
0.435264
0.435264
0.380024
0.380024
0.380023
0.380023
0.380022
0.380022
0.380021
0.380021
0.380021
0.380021
0.329875
0.329875
0.329874
0.329873
0.329873
0.329872
0.329872
0.329871
0.329871
0.329871
0.284673
0.284672
0.284672
0.28467
0.284669
0.284669
0.284668
0.284667
0.284667
0.284667
0.244218
0.244217
0.244216
0.244215
0.244213
0.244212
0.24421
0.244209
0.244209
0.244208
0.208267
0.208267
0.208265
0.208263
0.208261
0.208258
0.208256
0.208255
0.208253
0.208253
0.176545
0.176544
0.176542
0.176539
0.176536
0.176532
0.176529
0.176526
0.176524
0.176523
0.148751
0.148749
0.148746
0.148742
0.148737
0.148732
0.148726
0.148722
0.148719
0.148717
0.124569
0.124567
0.124562
0.124556
0.124548
0.12454
0.124532
0.124525
0.12452
0.124517
0.103676
0.103673
0.103667
0.103658
0.103647
0.103634
0.103622
0.103611
0.103602
0.103598
0.0857519
0.0857474
0.0857382
0.0857251
0.0857087
0.0856901
0.0856709
0.0856533
0.0856398
0.0856322
0.0704801
0.0704738
0.0704608
0.0704419
0.0704178
0.07039
0.0703606
0.0703329
0.070311
0.0702987
0.0575584
0.0575495
0.0575315
0.0575047
0.0574699
0.0574285
0.0573836
0.0573399
0.0573042
0.0572837
0.0467004
0.0466883
0.0466638
0.0466267
0.0465772
0.0465165
0.0464481
0.0463788
0.0463197
0.0462844
0.0376396
0.0376238
0.0375912
0.0375411
0.0374723
0.037385
0.0372819
0.0371716
0.0370715
0.0370082
0.0301315
0.0301114
0.0300697
0.0300041
0.0299115
0.029789
0.0296364
0.0294611
0.0292874
0.029166
0.0239541
0.0239297
0.0238785
0.0237965
0.023677
0.0235118
0.0232929
0.0230185
0.0227105
0.0224556
0.018909
0.0188808
0.018821
0.0187236
0.0185778
0.0183681
0.018072
0.0176611
0.0171154
0.0165126
1.44935
1.44935
1.44935
1.44935
1.44935
1.44935
1.44935
1.44935
1.44935
1.44935
1.34842
1.34842
1.34842
1.34842
1.34842
1.34842
1.34842
1.34842
1.34842
1.34842
1.24857
1.24857
1.24856
1.24856
1.24856
1.24856
1.24856
1.24856
1.24856
1.24856
1.15049
1.15049
1.15049
1.15049
1.15049
1.15049
1.15049
1.15049
1.15049
1.15049
1.05485
1.05485
1.05485
1.05485
1.05485
1.05485
1.05485
1.05485
1.05485
1.05485
0.962251
0.962251
0.962251
0.962251
0.96225
0.96225
0.96225
0.962251
0.962251
0.962251
0.873239
0.873239
0.873238
0.873238
0.873238
0.873238
0.873238
0.873238
0.873238
0.873238
0.788285
0.788285
0.788285
0.788284
0.788284
0.788284
0.788284
0.788284
0.788284
0.788284
0.707784
0.707784
0.707783
0.707783
0.707783
0.707783
0.707783
0.707783
0.707783
0.707783
0.632047
0.632047
0.632046
0.632046
0.632046
0.632046
0.632046
0.632046
0.632046
0.632046
0.561301
0.561301
0.5613
0.561299
0.561299
0.561299
0.561299
0.561299
0.5613
0.561299
0.495687
0.495687
0.495686
0.495685
0.495685
0.495685
0.495685
0.495685
0.495685
0.495685
0.435266
0.435266
0.435265
0.435265
0.435264
0.435264
0.435264
0.435264
0.435264
0.435264
0.380024
0.380024
0.380023
0.380022
0.380022
0.380022
0.380021
0.380021
0.380022
0.380021
0.329875
0.329875
0.329874
0.329873
0.329873
0.329872
0.329871
0.329871
0.329871
0.329871
0.284673
0.284672
0.284671
0.28467
0.284669
0.284668
0.284668
0.284667
0.284667
0.284667
0.244218
0.244217
0.244216
0.244215
0.244213
0.244212
0.24421
0.244209
0.244209
0.244208
0.208267
0.208267
0.208265
0.208263
0.208261
0.208258
0.208256
0.208255
0.208254
0.208253
0.176545
0.176544
0.176542
0.176539
0.176536
0.176532
0.176529
0.176526
0.176524
0.176523
0.148751
0.148749
0.148746
0.148742
0.148737
0.148732
0.148726
0.148722
0.148719
0.148717
0.124569
0.124567
0.124562
0.124556
0.124548
0.12454
0.124532
0.124525
0.12452
0.124517
0.103676
0.103673
0.103667
0.103658
0.103647
0.103634
0.103622
0.103611
0.103602
0.103598
0.085752
0.0857474
0.0857382
0.085725
0.0857086
0.08569
0.0856709
0.0856534
0.0856398
0.0856323
0.0704802
0.0704737
0.0704608
0.0704419
0.0704178
0.0703899
0.0703606
0.0703329
0.0703111
0.0702987
0.0575584
0.0575495
0.0575314
0.0575047
0.0574699
0.0574285
0.0573836
0.0573399
0.0573043
0.0572837
0.0467004
0.0466883
0.0466637
0.0466266
0.0465771
0.0465165
0.0464481
0.0463789
0.0463197
0.0462845
0.0376397
0.0376238
0.0375912
0.0375411
0.0374723
0.0373849
0.0372819
0.0371716
0.0370715
0.0370082
0.0301315
0.0301113
0.0300697
0.0300041
0.0299115
0.029789
0.0296364
0.0294611
0.0292874
0.0291661
0.0239542
0.0239297
0.0238785
0.0237964
0.0236769
0.0235118
0.0232929
0.0230185
0.0227105
0.0224557
0.0189091
0.0188807
0.018821
0.0187235
0.0185778
0.0183681
0.0180719
0.0176611
0.0171155
0.0165126
1.44935
1.44935
1.44935
1.44935
1.44935
1.44935
1.44935
1.44935
1.44935
1.44935
1.34842
1.34842
1.34842
1.34842
1.34842
1.34842
1.34842
1.34842
1.34842
1.34842
1.24856
1.24856
1.24856
1.24856
1.24856
1.24856
1.24856
1.24856
1.24856
1.24856
1.15049
1.15049
1.15049
1.15049
1.15049
1.15049
1.15049
1.15049
1.15049
1.15049
1.05485
1.05485
1.05485
1.05485
1.05485
1.05485
1.05485
1.05485
1.05485
1.05485
0.962251
0.962251
0.962251
0.96225
0.96225
0.96225
0.96225
0.96225
0.962251
0.962251
0.873238
0.873238
0.873238
0.873238
0.873237
0.873237
0.873237
0.873238
0.873238
0.873238
0.788285
0.788285
0.788284
0.788284
0.788283
0.788283
0.788283
0.788284
0.788284
0.788284
0.707784
0.707784
0.707783
0.707783
0.707782
0.707782
0.707782
0.707783
0.707783
0.707783
0.632047
0.632047
0.632046
0.632045
0.632045
0.632045
0.632045
0.632046
0.632046
0.632046
0.5613
0.5613
0.561299
0.561299
0.561299
0.561298
0.561299
0.561299
0.561299
0.561299
0.495686
0.495686
0.495685
0.495685
0.495684
0.495684
0.495684
0.495685
0.495685
0.495685
0.435266
0.435266
0.435265
0.435264
0.435264
0.435264
0.435264
0.435264
0.435264
0.435264
0.380024
0.380023
0.380023
0.380022
0.380021
0.380021
0.380021
0.380021
0.380021
0.380021
0.329875
0.329874
0.329874
0.329873
0.329872
0.329871
0.329871
0.329871
0.329871
0.329871
0.284672
0.284672
0.284671
0.28467
0.284669
0.284668
0.284667
0.284667
0.284667
0.284667
0.244217
0.244217
0.244215
0.244214
0.244213
0.244211
0.24421
0.244209
0.244209
0.244208
0.208267
0.208266
0.208264
0.208262
0.20826
0.208258
0.208256
0.208254
0.208253
0.208253
0.176545
0.176544
0.176541
0.176538
0.176535
0.176532
0.176528
0.176526
0.176524
0.176523
0.14875
0.148749
0.148746
0.148741
0.148737
0.148731
0.148726
0.148722
0.148719
0.148717
0.124568
0.124566
0.124562
0.124555
0.124548
0.12454
0.124532
0.124525
0.12452
0.124517
0.103676
0.103673
0.103667
0.103657
0.103646
0.103634
0.103622
0.103611
0.103602
0.103598
0.0857517
0.0857471
0.0857379
0.0857248
0.0857084
0.0856898
0.0856707
0.0856532
0.0856397
0.0856322
0.07048
0.0704735
0.0704605
0.0704416
0.0704176
0.0703897
0.0703604
0.0703328
0.070311
0.0702987
0.0575583
0.0575493
0.0575312
0.0575045
0.0574697
0.0574283
0.0573834
0.0573398
0.0573042
0.0572837
0.0467003
0.0466882
0.0466636
0.0466265
0.046577
0.0465164
0.046448
0.0463787
0.0463197
0.0462845
0.0376395
0.0376236
0.0375911
0.0375409
0.0374722
0.0373848
0.0372818
0.0371715
0.0370715
0.0370082
0.0301314
0.0301112
0.0300695
0.030004
0.0299114
0.0297889
0.0296363
0.0294611
0.0292874
0.029166
0.0239541
0.0239296
0.0238784
0.0237963
0.0236769
0.0235117
0.0232928
0.0230184
0.0227105
0.0224557
0.018909
0.0188807
0.0188209
0.0187235
0.0185778
0.018368
0.0180719
0.017661
0.0171154
0.0165126
1.44935
1.44935
1.44935
1.44935
1.44935
1.44935
1.44935
1.44935
1.44935
1.44935
1.34842
1.34842
1.34842
1.34842
1.34842
1.34842
1.34842
1.34842
1.34842
1.34842
1.24856
1.24856
1.24856
1.24856
1.24856
1.24856
1.24856
1.24856
1.24856
1.24856
1.15049
1.15049
1.15049
1.15049
1.15049
1.15049
1.15049
1.15049
1.15049
1.15049
1.05485
1.05485
1.05485
1.05485
1.05485
1.05485
1.05485
1.05485
1.05485
1.05485
0.962251
0.962251
0.96225
0.96225
0.96225
0.96225
0.96225
0.96225
0.96225
0.96225
0.873238
0.873238
0.873238
0.873237
0.873237
0.873237
0.873237
0.873237
0.873238
0.873238
0.788284
0.788284
0.788284
0.788283
0.788283
0.788283
0.788283
0.788283
0.788284
0.788284
0.707783
0.707783
0.707783
0.707782
0.707782
0.707782
0.707782
0.707782
0.707783
0.707783
0.632046
0.632046
0.632046
0.632045
0.632045
0.632045
0.632045
0.632045
0.632046
0.632046
0.5613
0.5613
0.561299
0.561298
0.561298
0.561298
0.561298
0.561299
0.561299
0.561299
0.495686
0.495686
0.495685
0.495684
0.495684
0.495684
0.495684
0.495684
0.495685
0.495685
0.435265
0.435265
0.435265
0.435264
0.435264
0.435263
0.435263
0.435264
0.435264
0.435264
0.380023
0.380023
0.380022
0.380022
0.380021
0.380021
0.380021
0.380021
0.380021
0.380021
0.329874
0.329874
0.329873
0.329872
0.329872
0.329871
0.329871
0.329871
0.329871
0.329871
0.284672
0.284672
0.284671
0.28467
0.284669
0.284668
0.284667
0.284667
0.284667
0.284666
0.244217
0.244217
0.244215
0.244214
0.244212
0.244211
0.24421
0.244209
0.244209
0.244208
0.208267
0.208266
0.208264
0.208262
0.20826
0.208258
0.208256
0.208254
0.208253
0.208253
0.176544
0.176543
0.176541
0.176538
0.176535
0.176531
0.176528
0.176526
0.176524
0.176523
0.14875
0.148749
0.148746
0.148741
0.148736
0.148731
0.148726
0.148722
0.148719
0.148717
0.124568
0.124566
0.124561
0.124555
0.124548
0.12454
0.124532
0.124525
0.12452
0.124517
0.103676
0.103673
0.103666
0.103657
0.103646
0.103634
0.103622
0.103611
0.103602
0.103598
0.0857516
0.085747
0.0857378
0.0857247
0.0857082
0.0856897
0.0856706
0.0856531
0.0856397
0.0856322
0.0704799
0.0704734
0.0704604
0.0704415
0.0704175
0.0703896
0.0703603
0.0703327
0.070311
0.0702987
0.0575582
0.0575492
0.0575311
0.0575044
0.0574696
0.0574283
0.0573834
0.0573397
0.0573042
0.0572837
0.0467002
0.0466881
0.0466635
0.0466264
0.0465769
0.0465163
0.0464479
0.0463787
0.0463197
0.0462845
0.0376395
0.0376236
0.037591
0.0375409
0.0374721
0.0373848
0.0372817
0.0371715
0.0370715
0.0370082
0.0301313
0.0301112
0.0300695
0.0300039
0.0299114
0.0297888
0.0296362
0.029461
0.0292874
0.0291661
0.023954
0.0239295
0.0238784
0.0237963
0.0236768
0.0235117
0.0232928
0.0230184
0.0227104
0.0224557
0.018909
0.0188806
0.0188209
0.0187234
0.0185777
0.018368
0.0180719
0.017661
0.0171154
0.0165126
1.44935
1.44935
1.44935
1.44935
1.44935
1.44935
1.44935
1.44935
1.44935
1.44935
1.34842
1.34842
1.34842
1.34842
1.34842
1.34842
1.34842
1.34842
1.34842
1.34842
1.24856
1.24856
1.24856
1.24856
1.24856
1.24856
1.24856
1.24856
1.24856
1.24856
1.15049
1.15049
1.15049
1.15049
1.15049
1.15049
1.15049
1.15049
1.15049
1.15049
1.05485
1.05485
1.05485
1.05485
1.05485
1.05485
1.05485
1.05485
1.05485
1.05485
0.962251
0.962251
0.96225
0.96225
0.96225
0.96225
0.96225
0.96225
0.96225
0.96225
0.873238
0.873238
0.873237
0.873237
0.873237
0.873237
0.873237
0.873237
0.873238
0.873238
0.788284
0.788284
0.788283
0.788283
0.788283
0.788283
0.788283
0.788283
0.788284
0.788284
0.707783
0.707783
0.707782
0.707782
0.707782
0.707782
0.707782
0.707782
0.707783
0.707783
0.632046
0.632046
0.632045
0.632045
0.632045
0.632045
0.632045
0.632045
0.632046
0.632046
0.5613
0.561299
0.561299
0.561298
0.561298
0.561298
0.561298
0.561299
0.561299
0.561299
0.495686
0.495685
0.495685
0.495684
0.495684
0.495684
0.495684
0.495684
0.495685
0.495685
0.435265
0.435265
0.435264
0.435264
0.435263
0.435263
0.435263
0.435264
0.435264
0.435264
0.380023
0.380023
0.380022
0.380021
0.380021
0.380021
0.380021
0.380021
0.380021
0.380021
0.329874
0.329874
0.329873
0.329872
0.329872
0.329871
0.329871
0.329871
0.329871
0.329871
0.284672
0.284672
0.284671
0.28467
0.284669
0.284668
0.284667
0.284667
0.284667
0.284667
0.244217
0.244216
0.244215
0.244214
0.244212
0.244211
0.24421
0.244209
0.244209
0.244208
0.208266
0.208266
0.208264
0.208262
0.20826
0.208258
0.208256
0.208254
0.208253
0.208253
0.176544
0.176543
0.176541
0.176538
0.176535
0.176531
0.176528
0.176526
0.176524
0.176523
0.14875
0.148749
0.148745
0.148741
0.148736
0.148731
0.148726
0.148722
0.148719
0.148717
0.124568
0.124566
0.124561
0.124555
0.124548
0.12454
0.124532
0.124525
0.12452
0.124517
0.103676
0.103673
0.103666
0.103657
0.103646
0.103634
0.103622
0.103611
0.103602
0.103598
0.0857516
0.085747
0.0857378
0.0857246
0.0857082
0.0856897
0.0856706
0.0856531
0.0856398
0.0856323
0.0704799
0.0704734
0.0704604
0.0704415
0.0704175
0.0703896
0.0703603
0.0703328
0.070311
0.0702988
0.0575581
0.0575492
0.0575311
0.0575044
0.0574696
0.0574283
0.0573834
0.0573398
0.0573042
0.0572837
0.0467002
0.046688
0.0466635
0.0466264
0.0465769
0.0465163
0.0464479
0.0463787
0.0463197
0.0462845
0.0376395
0.0376235
0.037591
0.0375408
0.0374721
0.0373848
0.0372817
0.0371715
0.0370715
0.0370082
0.0301313
0.0301112
0.0300695
0.0300039
0.0299114
0.0297889
0.0296362
0.0294611
0.0292874
0.0291661
0.023954
0.0239295
0.0238784
0.0237963
0.0236768
0.0235117
0.0232928
0.0230184
0.0227105
0.0224557
0.018909
0.0188806
0.0188209
0.0187234
0.0185777
0.018368
0.0180719
0.017661
0.0171155
0.0165126
1.44935
1.44935
1.44935
1.44935
1.44935
1.44935
1.44935
1.44935
1.44935
1.44935
1.34842
1.34842
1.34842
1.34842
1.34842
1.34842
1.34842
1.34842
1.34842
1.34842
1.24856
1.24856
1.24856
1.24856
1.24856
1.24856
1.24856
1.24856
1.24856
1.24856
1.15049
1.15049
1.15049
1.15049
1.15049
1.15049
1.15049
1.15049
1.15049
1.15049
1.05485
1.05485
1.05485
1.05485
1.05485
1.05485
1.05485
1.05485
1.05485
1.05485
0.962251
0.96225
0.96225
0.96225
0.96225
0.96225
0.96225
0.96225
0.96225
0.96225
0.873238
0.873238
0.873237
0.873237
0.873237
0.873237
0.873237
0.873237
0.873238
0.873238
0.788284
0.788284
0.788283
0.788283
0.788283
0.788283
0.788283
0.788283
0.788284
0.788284
0.707783
0.707783
0.707782
0.707782
0.707782
0.707782
0.707782
0.707782
0.707783
0.707783
0.632046
0.632046
0.632045
0.632045
0.632045
0.632045
0.632045
0.632045
0.632046
0.632046
0.561299
0.561299
0.561299
0.561298
0.561298
0.561298
0.561298
0.561299
0.561299
0.561299
0.495686
0.495685
0.495685
0.495684
0.495684
0.495684
0.495684
0.495684
0.495685
0.495685
0.435265
0.435265
0.435264
0.435264
0.435264
0.435263
0.435263
0.435264
0.435264
0.435264
0.380023
0.380023
0.380022
0.380022
0.380021
0.380021
0.380021
0.380021
0.380021
0.380021
0.329874
0.329874
0.329873
0.329872
0.329872
0.329871
0.329871
0.329871
0.329871
0.329871
0.284672
0.284672
0.284671
0.28467
0.284669
0.284668
0.284667
0.284667
0.284667
0.284667
0.244217
0.244216
0.244215
0.244214
0.244212
0.244211
0.24421
0.244209
0.244209
0.244208
0.208266
0.208266
0.208264
0.208262
0.20826
0.208258
0.208256
0.208254
0.208254
0.208253
0.176544
0.176543
0.176541
0.176538
0.176535
0.176532
0.176528
0.176526
0.176524
0.176523
0.14875
0.148749
0.148745
0.148741
0.148736
0.148731
0.148726
0.148722
0.148719
0.148717
0.124568
0.124566
0.124562
0.124555
0.124548
0.12454
0.124532
0.124525
0.12452
0.124517
0.103676
0.103673
0.103666
0.103657
0.103646
0.103634
0.103622
0.103611
0.103602
0.103598
0.0857516
0.085747
0.0857378
0.0857247
0.0857083
0.0856898
0.0856707
0.0856533
0.0856399
0.0856324
0.0704799
0.0704734
0.0704604
0.0704416
0.0704175
0.0703897
0.0703604
0.0703329
0.0703111
0.0702989
0.0575582
0.0575492
0.0575312
0.0575044
0.0574697
0.0574283
0.0573835
0.0573399
0.0573043
0.0572838
0.0467002
0.0466881
0.0466635
0.0466264
0.046577
0.0465164
0.046448
0.0463788
0.0463198
0.0462846
0.0376395
0.0376236
0.037591
0.0375409
0.0374722
0.0373848
0.0372818
0.0371716
0.0370716
0.0370083
0.0301313
0.0301112
0.0300695
0.030004
0.0299114
0.0297889
0.0296363
0.0294611
0.0292875
0.0291662
0.023954
0.0239296
0.0238784
0.0237963
0.0236769
0.0235117
0.0232929
0.0230185
0.0227105
0.0224557
0.018909
0.0188806
0.0188209
0.0187235
0.0185778
0.018368
0.0180719
0.0176611
0.0171155
0.0165127
1.44935
1.44935
1.44935
1.44935
1.44935
1.44935
1.44935
1.44935
1.44935
1.44935
1.34842
1.34842
1.34842
1.34842
1.34842
1.34842
1.34842
1.34842
1.34842
1.34842
1.24856
1.24856
1.24856
1.24856
1.24856
1.24856
1.24856
1.24856
1.24856
1.24856
1.15049
1.15049
1.15049
1.15049
1.15049
1.15049
1.15049
1.15049
1.15049
1.15049
1.05485
1.05485
1.05485
1.05485
1.05485
1.05485
1.05485
1.05485
1.05485
1.05485
0.962251
0.96225
0.96225
0.96225
0.96225
0.96225
0.96225
0.96225
0.96225
0.962251
0.873238
0.873238
0.873237
0.873237
0.873237
0.873237
0.873237
0.873237
0.873238
0.873238
0.788284
0.788284
0.788284
0.788283
0.788283
0.788283
0.788283
0.788284
0.788284
0.788284
0.707783
0.707783
0.707782
0.707782
0.707782
0.707782
0.707782
0.707783
0.707783
0.707783
0.632046
0.632046
0.632046
0.632045
0.632045
0.632045
0.632045
0.632046
0.632046
0.632046
0.5613
0.5613
0.561299
0.561299
0.561298
0.561298
0.561299
0.561299
0.5613
0.5613
0.495686
0.495686
0.495685
0.495685
0.495684
0.495684
0.495684
0.495685
0.495685
0.495685
0.435265
0.435265
0.435265
0.435264
0.435264
0.435264
0.435264
0.435264
0.435265
0.435265
0.380023
0.380023
0.380022
0.380022
0.380021
0.380021
0.380021
0.380021
0.380022
0.380022
0.329874
0.329874
0.329873
0.329873
0.329872
0.329871
0.329871
0.329871
0.329871
0.329871
0.284672
0.284672
0.284671
0.28467
0.284669
0.284668
0.284667
0.284667
0.284667
0.284667
0.244217
0.244217
0.244215
0.244214
0.244213
0.244211
0.24421
0.244209
0.244209
0.244209
0.208267
0.208266
0.208264
0.208262
0.20826
0.208258
0.208256
0.208255
0.208254
0.208253
0.176545
0.176544
0.176541
0.176538
0.176535
0.176532
0.176529
0.176526
0.176524
0.176523
0.14875
0.148749
0.148746
0.148742
0.148737
0.148731
0.148726
0.148722
0.148719
0.148717
0.124568
0.124566
0.124562
0.124556
0.124548
0.12454
0.124532
0.124525
0.12452
0.124517
0.103676
0.103673
0.103667
0.103658
0.103647
0.103634
0.103622
0.103611
0.103603
0.103598
0.0857517
0.0857471
0.085738
0.0857249
0.0857085
0.08569
0.0856709
0.0856535
0.0856401
0.0856326
0.07048
0.0704735
0.0704606
0.0704417
0.0704177
0.0703899
0.0703606
0.0703331
0.0703113
0.0702991
0.0575583
0.0575493
0.0575313
0.0575046
0.0574698
0.0574285
0.0573836
0.05734
0.0573045
0.057284
0.0467003
0.0466882
0.0466636
0.0466266
0.0465771
0.0465165
0.0464482
0.046379
0.0463199
0.0462847
0.0376396
0.0376237
0.0375911
0.037541
0.0374723
0.037385
0.0372819
0.0371717
0.0370717
0.0370085
0.0301314
0.0301113
0.0300696
0.0300041
0.0299115
0.029789
0.0296364
0.0294612
0.0292876
0.0291663
0.0239541
0.0239296
0.0238785
0.0237964
0.023677
0.0235118
0.023293
0.0230186
0.0227106
0.0224558
0.018909
0.0188807
0.018821
0.0187235
0.0185778
0.0183681
0.018072
0.0176612
0.0171156
0.0165127
1.44935
1.44935
1.44935
1.44935
1.44935
1.44935
1.44935
1.44935
1.44935
1.44935
1.34842
1.34842
1.34842
1.34842
1.34842
1.34842
1.34842
1.34842
1.34842
1.34842
1.24856
1.24856
1.24856
1.24856
1.24856
1.24856
1.24856
1.24856
1.24856
1.24856
1.15049
1.15049
1.15049
1.15049
1.15049
1.15049
1.15049
1.15049
1.15049
1.15049
1.05485
1.05485
1.05485
1.05485
1.05485
1.05485
1.05485
1.05485
1.05485
1.05485
0.962251
0.962251
0.96225
0.96225
0.96225
0.96225
0.96225
0.96225
0.962251
0.962251
0.873238
0.873238
0.873238
0.873237
0.873237
0.873237
0.873238
0.873238
0.873238
0.873238
0.788284
0.788284
0.788284
0.788284
0.788283
0.788283
0.788284
0.788284
0.788284
0.788285
0.707783
0.707783
0.707783
0.707783
0.707782
0.707782
0.707783
0.707783
0.707784
0.707784
0.632046
0.632046
0.632046
0.632046
0.632045
0.632045
0.632046
0.632046
0.632047
0.632047
0.5613
0.5613
0.561299
0.561299
0.561299
0.561299
0.561299
0.561299
0.5613
0.5613
0.495686
0.495686
0.495685
0.495685
0.495685
0.495685
0.495685
0.495685
0.495686
0.495686
0.435266
0.435266
0.435265
0.435265
0.435264
0.435264
0.435264
0.435265
0.435265
0.435265
0.380023
0.380023
0.380023
0.380022
0.380022
0.380022
0.380022
0.380022
0.380022
0.380022
0.329875
0.329874
0.329874
0.329873
0.329872
0.329872
0.329872
0.329872
0.329872
0.329872
0.284672
0.284672
0.284671
0.28467
0.284669
0.284669
0.284668
0.284668
0.284668
0.284667
0.244217
0.244217
0.244216
0.244214
0.244213
0.244212
0.244211
0.24421
0.24421
0.244209
0.208267
0.208266
0.208265
0.208263
0.208261
0.208259
0.208257
0.208255
0.208254
0.208254
0.176545
0.176544
0.176542
0.176539
0.176536
0.176532
0.176529
0.176527
0.176525
0.176524
0.148751
0.148749
0.148746
0.148742
0.148737
0.148732
0.148727
0.148722
0.148719
0.148718
0.124569
0.124566
0.124562
0.124556
0.124549
0.12454
0.124533
0.124526
0.124521
0.124518
0.103676
0.103673
0.103667
0.103658
0.103647
0.103635
0.103622
0.103611
0.103603
0.103598
0.0857519
0.0857474
0.0857382
0.0857251
0.0857088
0.0856903
0.0856712
0.0856538
0.0856404
0.0856329
0.0704802
0.0704737
0.0704608
0.070442
0.070418
0.0703902
0.0703609
0.0703333
0.0703116
0.0702993
0.0575584
0.0575495
0.0575315
0.0575048
0.0574701
0.0574288
0.0573839
0.0573403
0.0573047
0.0572842
0.0467004
0.0466883
0.0466638
0.0466268
0.0465773
0.0465167
0.0464484
0.0463792
0.0463202
0.0462849
0.0376397
0.0376238
0.0375913
0.0375412
0.0374725
0.0373851
0.0372821
0.0371719
0.0370719
0.0370086
0.0301315
0.0301114
0.0300697
0.0300042
0.0299117
0.0297892
0.0296366
0.0294614
0.0292877
0.0291664
0.0239542
0.0239297
0.0238786
0.0237966
0.0236771
0.023512
0.0232931
0.0230187
0.0227108
0.022456
0.0189091
0.0188808
0.0188211
0.0187236
0.018578
0.0183682
0.0180721
0.0176613
0.0171157
0.0165128
1.44935
1.44935
1.44935
1.44935
1.44935
1.44935
1.44935
1.44935
1.44935
1.44935
1.34842
1.34842
1.34842
1.34842
1.34842
1.34842
1.34842
1.34842
1.34842
1.34842
1.24856
1.24856
1.24856
1.24856
1.24856
1.24856
1.24856
1.24856
1.24856
1.24856
1.15049
1.15049
1.15049
1.15049
1.15049
1.15049
1.15049
1.15049
1.15049
1.15049
1.05485
1.05485
1.05485
1.05485
1.05485
1.05485
1.05485
1.05485
1.05485
1.05485
0.962251
0.962251
0.962251
0.96225
0.96225
0.96225
0.96225
0.962251
0.962251
0.962251
0.873238
0.873238
0.873238
0.873238
0.873238
0.873238
0.873238
0.873238
0.873239
0.873239
0.788284
0.788285
0.788284
0.788284
0.788284
0.788284
0.788284
0.788285
0.788285
0.788285
0.707783
0.707784
0.707783
0.707783
0.707783
0.707783
0.707783
0.707784
0.707784
0.707784
0.632047
0.632047
0.632046
0.632046
0.632046
0.632046
0.632046
0.632047
0.632047
0.632047
0.5613
0.5613
0.5613
0.5613
0.561299
0.561299
0.5613
0.5613
0.561301
0.561301
0.495686
0.495686
0.495686
0.495686
0.495685
0.495685
0.495686
0.495686
0.495686
0.495686
0.435266
0.435266
0.435265
0.435265
0.435265
0.435265
0.435265
0.435265
0.435266
0.435266
0.380024
0.380024
0.380023
0.380023
0.380022
0.380022
0.380022
0.380022
0.380023
0.380023
0.329875
0.329875
0.329874
0.329874
0.329873
0.329873
0.329872
0.329872
0.329873
0.329872
0.284673
0.284672
0.284672
0.284671
0.28467
0.284669
0.284669
0.284668
0.284668
0.284668
0.244218
0.244217
0.244216
0.244215
0.244214
0.244212
0.244211
0.24421
0.24421
0.24421
0.208267
0.208267
0.208265
0.208263
0.208261
0.208259
0.208257
0.208256
0.208255
0.208254
0.176545
0.176544
0.176542
0.176539
0.176536
0.176533
0.17653
0.176527
0.176525
0.176524
0.148751
0.148749
0.148746
0.148742
0.148738
0.148732
0.148727
0.148723
0.14872
0.148718
0.124569
0.124567
0.124562
0.124556
0.124549
0.124541
0.124533
0.124526
0.124521
0.124518
0.103677
0.103673
0.103667
0.103658
0.103647
0.103635
0.103623
0.103612
0.103603
0.103599
0.0857521
0.0857476
0.0857386
0.0857255
0.0857092
0.0856907
0.0856716
0.0856542
0.0856407
0.0856332
0.0704804
0.070474
0.0704611
0.0704423
0.0704183
0.0703906
0.0703612
0.0703337
0.0703119
0.0702996
0.0575586
0.0575497
0.0575318
0.0575051
0.0574704
0.0574291
0.0573842
0.0573406
0.057305
0.0572845
0.0467006
0.0466885
0.0466641
0.046627
0.0465776
0.046517
0.0464487
0.0463795
0.0463204
0.0462852
0.0376398
0.037624
0.0375915
0.0375414
0.0374727
0.0373854
0.0372824
0.0371722
0.0370721
0.0370088
0.0301316
0.0301115
0.0300699
0.0300044
0.0299119
0.0297894
0.0296368
0.0294616
0.0292879
0.0291666
0.0239543
0.0239299
0.0238788
0.0237967
0.0236773
0.0235121
0.0232933
0.0230189
0.0227109
0.0224561
0.0189092
0.0188809
0.0188212
0.0187238
0.0185781
0.0183684
0.0180723
0.0176614
0.0171158
0.0165129
1.44935
1.44935
1.44935
1.44935
1.44935
1.44935
1.44935
1.44935
1.44935
1.44935
1.34842
1.34842
1.34842
1.34842
1.34842
1.34842
1.34842
1.34842
1.34842
1.34842
1.24856
1.24856
1.24856
1.24856
1.24856
1.24856
1.24856
1.24856
1.24856
1.24856
1.15049
1.15049
1.15049
1.15049
1.15049
1.15049
1.15049
1.15049
1.15049
1.15049
1.05485
1.05485
1.05485
1.05485
1.05485
1.05485
1.05485
1.05485
1.05485
1.05485
0.962251
0.962251
0.962251
0.96225
0.96225
0.96225
0.962251
0.962251
0.962251
0.962251
0.873238
0.873238
0.873238
0.873238
0.873238
0.873238
0.873238
0.873238
0.873239
0.873239
0.788284
0.788284
0.788284
0.788284
0.788284
0.788284
0.788284
0.788285
0.788285
0.788285
0.707783
0.707783
0.707783
0.707783
0.707783
0.707783
0.707783
0.707784
0.707784
0.707784
0.632046
0.632047
0.632046
0.632046
0.632046
0.632046
0.632046
0.632047
0.632047
0.632047
0.5613
0.5613
0.5613
0.5613
0.5613
0.5613
0.5613
0.5613
0.561301
0.5613
0.495686
0.495686
0.495686
0.495686
0.495686
0.495686
0.495686
0.495686
0.495686
0.495686
0.435266
0.435266
0.435266
0.435265
0.435265
0.435265
0.435265
0.435265
0.435266
0.435265
0.380024
0.380024
0.380023
0.380023
0.380023
0.380022
0.380022
0.380022
0.380023
0.380022
0.329875
0.329875
0.329874
0.329874
0.329873
0.329873
0.329873
0.329872
0.329873
0.329872
0.284673
0.284672
0.284672
0.284671
0.28467
0.284669
0.284669
0.284668
0.284668
0.284668
0.244218
0.244217
0.244216
0.244215
0.244214
0.244213
0.244211
0.244211
0.24421
0.244209
0.208267
0.208267
0.208265
0.208263
0.208261
0.208259
0.208257
0.208256
0.208255
0.208254
0.176545
0.176544
0.176542
0.176539
0.176536
0.176533
0.17653
0.176527
0.176525
0.176524
0.148751
0.148749
0.148747
0.148742
0.148738
0.148732
0.148727
0.148723
0.14872
0.148718
0.124569
0.124567
0.124562
0.124556
0.124549
0.124541
0.124533
0.124526
0.124521
0.124518
0.103677
0.103673
0.103667
0.103658
0.103647
0.103635
0.103623
0.103612
0.103603
0.103599
0.0857521
0.0857476
0.0857386
0.0857256
0.0857093
0.0856908
0.0856717
0.0856543
0.0856408
0.0856331
0.0704804
0.070474
0.0704612
0.0704424
0.0704184
0.0703906
0.0703613
0.0703338
0.0703119
0.0702995
0.0575586
0.0575497
0.0575318
0.0575052
0.0574705
0.0574292
0.0573843
0.0573407
0.057305
0.0572844
0.0467006
0.0466885
0.0466641
0.0466271
0.0465777
0.0465171
0.0464487
0.0463795
0.0463204
0.0462851
0.0376398
0.037624
0.0375915
0.0375415
0.0374728
0.0373855
0.0372824
0.0371722
0.0370721
0.0370087
0.0301316
0.0301115
0.03007
0.0300045
0.0299119
0.0297894
0.0296368
0.0294616
0.0292879
0.0291665
0.0239543
0.0239299
0.0238788
0.0237968
0.0236773
0.0235122
0.0232933
0.0230189
0.0227109
0.0224561
0.0189092
0.0188809
0.0188212
0.0187238
0.0185781
0.0183684
0.0180723
0.0176615
0.0171158
0.0165129
0.01482
0.014789
0.0147231
0.0146145
0.0144492
0.0142047
0.0138427
0.0132931
0.0124041
0.0107636
0.0115319
0.0114998
0.0114314
0.0113184
0.0111461
0.0108903
0.0105121
0.00994607
0.00908105
0.00774036
0.0089093
0.00887779
0.008811
0.00870107
0.00853472
0.00829141
0.00794056
0.00743853
0.00672923
0.00576378
0.00683465
0.00680533
0.00674349
0.00664265
0.00649226
0.00627705
0.0059766
0.00556633
0.00502323
0.0043423
0.0052069
0.00518084
0.00512627
0.0050383
0.00490932
0.0047291
0.00448537
0.00416587
0.00376315
0.00328353
0.00394007
0.00391786
0.00387167
0.00379811
0.00369214
0.00354749
0.00335743
0.00311662
0.00282405
0.00248705
0.00296191
0.00294364
0.00290595
0.00284665
0.00276271
0.00265061
0.00250718
0.00233076
0.00212279
0.00188914
0.00221238
0.00219785
0.00216807
0.00212181
0.00205741
0.00197328
0.00186844
0.00174333
0.00160057
0.00144492
0.00164228
0.00163105
0.00160821
0.00157316
0.00152523
0.00146402
0.00138997
0.00130497
0.00121303
0.00112024
0.00121172
0.00120327
0.00118622
0.00116038
0.00112567
0.00108244
0.00103193
0.000976975
0.000923364
0.000883127
0.01482
0.0147889
0.0147231
0.0146144
0.0144492
0.0142047
0.0138427
0.0132931
0.0124041
0.0107636
0.0115319
0.0114997
0.0114314
0.0113184
0.0111461
0.0108903
0.0105121
0.00994607
0.00908105
0.00774036
0.00890932
0.00887779
0.008811
0.00870106
0.00853471
0.0082914
0.00794056
0.00743853
0.00672922
0.00576378
0.00683466
0.00680532
0.00674349
0.00664264
0.00649225
0.00627705
0.0059766
0.00556633
0.00502322
0.00434229
0.0052069
0.00518084
0.00512627
0.00503829
0.00490931
0.00472909
0.00448537
0.00416587
0.00376315
0.00328353
0.00394008
0.00391785
0.00387166
0.0037981
0.00369214
0.00354748
0.00335743
0.00311662
0.00282405
0.00248705
0.00296191
0.00294364
0.00290594
0.00284665
0.0027627
0.0026506
0.00250717
0.00233076
0.00212279
0.00188914
0.00221239
0.00219784
0.00216807
0.0021218
0.00205741
0.00197328
0.00186844
0.00174333
0.00160056
0.00144492
0.00164228
0.00163105
0.00160821
0.00157316
0.00152523
0.00146402
0.00138997
0.00130496
0.00121303
0.00112024
0.00121172
0.00120327
0.00118622
0.00116038
0.00112567