# Region type : patch inlet
# Faces         : 10
# Area          : 1.00000000e-01
# Scale factor  : 1.00000000e+00
# Time          	sum(phi)
0.05            	-7.24663230e-04
0.1             	-1.46914861e-03
0.15            	-2.19779170e-03
0.2             	-2.91516722e-03
0.25            	-3.62249130e-03
0.3             	-4.32014789e-03
0.35            	-5.00911423e-03
0.4             	-5.68972981e-03
0.45            	-6.36257222e-03
0.5             	-7.02805501e-03
0.55            	-7.68646243e-03
0.6             	-8.33817680e-03
0.65            	-8.98356287e-03
0.7             	-9.62291204e-03
0.75            	-1.02564592e-02
0.8             	-1.08844127e-02
0.85            	-1.15069947e-02
0.9             	-1.21245305e-02
0.95            	-1.27368137e-02
1               	-1.33443387e-02
1.05            	-1.39469617e-02
1.1             	-1.45452405e-02
1.15            	-1.51388376e-02
1.2             	-1.57280972e-02
1.25            	-1.63133306e-02
1.3             	-1.68941853e-02
1.35            	-1.74709875e-02
1.4             	-1.80440441e-02
1.45            	-1.86129819e-02
1.5             	-1.91781305e-02
1.55            	-1.97397481e-02
1.6             	-2.02974670e-02
1.65            	-2.08516111e-02
1.7             	-2.14024055e-02
1.75            	-2.19494887e-02
1.8             	-2.24931849e-02
1.85            	-2.30336809e-02
1.9             	-2.35706292e-02
1.95            	-2.41043537e-02
2               	-2.46350043e-02
2.05            	-2.51622519e-02
2.1             	-2.56864201e-02
2.15            	-2.62076222e-02
2.2             	-2.67255509e-02
2.25            	-2.72405287e-02
2.3             	-2.77525550e-02
2.35            	-2.82615838e-02
2.4             	-2.87676988e-02
2.45            	-2.92709288e-02
2.5             	-2.97712971e-02
2.55            	-3.02688357e-02
2.6             	-3.07635743e-02
2.65            	-3.12555411e-02
2.7             	-3.17447641e-02
2.75            	-3.22312702e-02
2.8             	-3.27150856e-02
2.85            	-3.31962356e-02
2.9             	-3.36747451e-02
2.95            	-3.41506381e-02
3               	-3.46239380e-02
3.05            	-3.50946677e-02
3.1             	-3.55628495e-02
3.15            	-3.60285052e-02
3.2             	-3.64916559e-02
3.25            	-3.69523224e-02
3.3             	-3.74105249e-02
3.35            	-3.78662833e-02
3.4             	-3.83196170e-02
3.45            	-3.87705448e-02
3.5             	-3.92190854e-02
3.55            	-3.96652569e-02
3.6             	-4.01090773e-02
3.65            	-4.05505638e-02
3.7             	-4.09897338e-02
3.75            	-4.14266039e-02
3.8             	-4.18611907e-02
3.85            	-4.22935104e-02
3.9             	-4.27235790e-02
3.95            	-4.31514120e-02
4               	-4.35770248e-02
4.05            	-4.40004327e-02
4.1             	-4.44216504e-02
4.15            	-4.48406925e-02
4.2             	-4.52575736e-02
4.25            	-4.56723078e-02
4.3             	-4.60849092e-02
4.35            	-4.64953913e-02
4.4             	-4.69037680e-02
4.45            	-4.73100524e-02
4.5             	-4.77142580e-02
4.55            	-4.81163975e-02
4.6             	-4.85164840e-02
4.65            	-4.89145301e-02
4.7             	-4.93105483e-02
4.75            	-4.97045509e-02
4.8             	-5.00965503e-02
4.85            	-5.04865584e-02
4.9             	-5.08745872e-02
4.95            	-5.12606484e-02
5               	-5.16447538e-02
5.05            	-5.20269146e-02
5.1             	-5.24071426e-02
5.15            	-5.27854488e-02
5.2             	-5.31618445e-02
5.25            	-5.35363406e-02
5.3             	-5.39089481e-02
5.35            	-5.42796777e-02
5.4             	-5.46485402e-02
5.45            	-5.50155463e-02
5.5             	-5.53807062e-02
5.55            	-5.57440305e-02
5.6             	-5.61055295e-02
5.65            	-5.64652134e-02
5.7             	-5.68230921e-02
5.75            	-5.71791759e-02
5.8             	-5.75334745e-02
5.85            	-5.78859980e-02
5.9             	-5.82367560e-02
5.95            	-5.85857583e-02
6               	-5.89330143e-02
6.05            	-5.92785337e-02
6.1             	-5.96223259e-02
6.15            	-5.99644003e-02
6.2             	-6.03047661e-02
6.25            	-6.06434327e-02
6.3             	-6.09804092e-02
6.35            	-6.13157046e-02
6.4             	-6.16493280e-02
6.45            	-6.19812882e-02
6.5             	-6.23115943e-02
6.55            	-6.26402549e-02
6.6             	-6.29672790e-02
6.65            	-6.32926751e-02
6.7             	-6.36164520e-02
6.75            	-6.39386182e-02
6.8             	-6.42591823e-02
6.85            	-6.45781526e-02
6.9             	-6.48955376e-02
6.95            	-6.52113458e-02
7               	-6.55255852e-02
7.05            	-6.58382641e-02
7.1             	-6.61493908e-02
7.15            	-6.64589733e-02
7.2             	-6.67670198e-02
7.25            	-6.70735384e-02
7.3             	-6.73785369e-02
7.35            	-6.76820235e-02
7.4             	-6.79840059e-02
7.45            	-6.82844917e-02
7.5             	-6.85834890e-02
7.55            	-6.88810054e-02
7.6             	-6.91770486e-02
7.65            	-6.94716263e-02
7.7             	-6.97647460e-02
7.75            	-7.00564153e-02
7.8             	-7.03466417e-02
7.85            	-7.06354327e-02
7.9             	-7.09227956e-02
7.95            	-7.12087379e-02
8               	-7.14932668e-02
8.05            	-7.17763896e-02
8.1             	-7.20581136e-02
8.15            	-7.23384463e-02
8.2             	-7.26173947e-02
8.25            	-7.28949655e-02
8.3             	-7.31711659e-02
8.35            	-7.34460031e-02
8.4             	-7.37194843e-02
8.45            	-7.39916162e-02
8.5             	-7.42624059e-02
8.55            	-7.45318600e-02
8.6             	-7.47999856e-02
8.65            	-7.50667894e-02
8.7             	-7.53322782e-02
8.75            	-7.55964587e-02
8.8             	-7.58593376e-02
8.85            	-7.61209215e-02
8.9             	-7.63812172e-02
8.95            	-7.66402311e-02
9               	-7.68979698e-02
9.05            	-7.71544398e-02
9.1             	-7.74096476e-02
9.15            	-7.76635997e-02
9.2             	-7.79163024e-02
9.25            	-7.81677622e-02
9.3             	-7.84179853e-02
9.35            	-7.86669780e-02
9.4             	-7.89147470e-02
9.45            	-7.91612980e-02
9.5             	-7.94066370e-02
9.55            	-7.96507705e-02
9.6             	-7.98937048e-02
9.65            	-8.01354459e-02
9.7             	-8.03760001e-02
9.75            	-8.06153735e-02
9.8             	-8.08535716e-02
9.85            	-8.10906004e-02
9.9             	-8.13264659e-02
9.95            	-8.15611743e-02
10              	-8.17947313e-02
10.05           	-8.20271429e-02
10.1            	-8.22584148e-02
10.15           	-8.24885528e-02
10.2            	-8.27175626e-02
10.25           	-8.29454500e-02
10.3            	-8.31722207e-02
10.35           	-8.33978803e-02
10.4            	-8.36224344e-02
10.45           	-8.38458888e-02
10.5            	-8.40682489e-02
10.55           	-8.42895204e-02
10.6            	-8.45097087e-02
10.65           	-8.47288193e-02
10.7            	-8.49468577e-02
10.75           	-8.51638293e-02
10.8            	-8.53797396e-02
10.85           	-8.55945939e-02
10.9            	-8.58083975e-02
10.95           	-8.60211559e-02
11              	-8.62328742e-02
11.05           	-8.64435573e-02
11.1            	-8.66532107e-02
11.15           	-8.68618402e-02
11.2            	-8.70694511e-02
11.25           	-8.72760484e-02
11.3            	-8.74816372e-02
11.35           	-8.76862213e-02
11.4            	-8.78898062e-02
11.45           	-8.80923976e-02
11.5            	-8.82940007e-02
11.55           	-8.84946204e-02
11.6            	-8.86942615e-02
11.65           	-8.88929288e-02
11.7            	-8.90906274e-02
11.75           	-8.92873620e-02
11.8            	-8.94831377e-02
11.85           	-8.96779592e-02
11.9            	-8.98718313e-02
11.95           	-9.00647589e-02
12              	-9.02567468e-02
12.05           	-9.04477995e-02
12.1            	-9.06379220e-02
12.15           	-9.08271188e-02
12.2            	-9.10153946e-02
12.25           	-9.12027541e-02
12.3            	-9.13892019e-02
12.35           	-9.15747426e-02
12.4            	-9.17593808e-02
12.45           	-9.19431209e-02
12.5            	-9.21259676e-02
12.55           	-9.23079253e-02
12.6            	-9.24889985e-02
12.65           	-9.26691916e-02
12.7            	-9.28485091e-02
12.75           	-9.30269555e-02
12.8            	-9.32045349e-02
12.85           	-9.33812520e-02
12.9            	-9.35571109e-02
12.95           	-9.37321159e-02
13              	-9.39062715e-02
13.05           	-9.40795818e-02
13.1            	-9.42520511e-02
13.15           	-9.44236836e-02
13.2            	-9.45944835e-02
13.25           	-9.47644550e-02
13.3            	-9.49336023e-02
13.35           	-9.51019295e-02
13.4            	-9.52694408e-02
13.45           	-9.54361401e-02
13.5            	-9.56020316e-02
13.55           	-9.57671194e-02
13.6            	-9.59314074e-02
13.65           	-9.60948997e-02
13.7            	-9.62576003e-02
13.75           	-9.64195132e-02
13.8            	-9.65806422e-02
13.85           	-9.67409913e-02
13.9            	-9.69005645e-02
13.95           	-9.70593656e-02
14              	-9.72173984e-02
14.05           	-9.73746669e-02
14.1            	-9.75311748e-02
14.15           	-9.76869260e-02
14.2            	-9.78419242e-02
14.25           	-9.79961733e-02
14.3            	-9.81496769e-02
14.35           	-9.83024387e-02
14.4            	-9.84544626e-02
14.45           	-9.86057522e-02
14.5            	-9.87563111e-02
14.55           	-9.89061430e-02
14.6            	-9.90552516e-02
14.65           	-9.92036404e-02
14.7            	-9.93513131e-02
14.75           	-9.94982732e-02
14.8            	-9.96445242e-02
14.85           	-9.97900698e-02
14.9            	-9.99349135e-02
14.95           	-1.00079059e-01
15              	-1.00222509e-01
15.05           	-1.00365268e-01
15.1            	-1.00507338e-01
15.15           	-1.00648724e-01
15.2            	-1.00789429e-01
15.25           	-1.00929456e-01
15.3            	-1.01068808e-01
15.35           	-1.01207490e-01
15.4            	-1.01345504e-01
15.45           	-1.01482853e-01
15.5            	-1.01619541e-01
15.55           	-1.01755571e-01
15.6            	-1.01890947e-01
15.65           	-1.02025672e-01
15.7            	-1.02159748e-01
15.75           	-1.02293180e-01
15.8            	-1.02425970e-01
15.85           	-1.02558121e-01
15.9            	-1.02689637e-01
15.95           	-1.02820522e-01
16              	-1.02950777e-01
16.05           	-1.03080406e-01
16.1            	-1.03209413e-01
16.15           	-1.03337800e-01
16.2            	-1.03465570e-01
16.25           	-1.03592727e-01
16.3            	-1.03719274e-01
16.35           	-1.03845213e-01
16.4            	-1.03970547e-01
16.45           	-1.04095281e-01
16.5            	-1.04219415e-01
16.55           	-1.04342954e-01
16.6            	-1.04465901e-01
16.65           	-1.04588258e-01
16.7            	-1.04710029e-01
16.75           	-1.04831215e-01
16.8            	-1.04951821e-01
16.85           	-1.05071849e-01
16.9            	-1.05191302e-01
16.95           	-1.05310182e-01
17              	-1.05428493e-01
17.05           	-1.05546237e-01
17.1            	-1.05663418e-01
17.15           	-1.05780037e-01
17.2            	-1.05896098e-01
17.25           	-1.06011603e-01
17.3            	-1.06126556e-01
17.35           	-1.06240959e-01
17.4            	-1.06354814e-01
17.45           	-1.06468125e-01
17.5            	-1.06580893e-01
17.55           	-1.06693123e-01
17.6            	-1.06804815e-01
17.65           	-1.06915974e-01
17.7            	-1.07026602e-01
17.75           	-1.07136700e-01
17.8            	-1.07246273e-01
17.85           	-1.07355322e-01
17.9            	-1.07463850e-01
17.95           	-1.07571860e-01
18              	-1.07679354e-01
18.05           	-1.07786334e-01
18.1            	-1.07892804e-01
18.15           	-1.07998766e-01
18.2            	-1.08104222e-01
18.25           	-1.08209174e-01
18.3            	-1.08313626e-01
18.35           	-1.08417580e-01
18.4            	-1.08521037e-01
18.45           	-1.08624001e-01
18.5            	-1.08726475e-01
18.55           	-1.08828459e-01
18.6            	-1.08929957e-01
18.65           	-1.09030972e-01
18.7            	-1.09131505e-01
18.75           	-1.09231559e-01
18.8            	-1.09331136e-01
18.85           	-1.09430239e-01
18.9            	-1.09528870e-01
18.95           	-1.09627031e-01
19              	-1.09724725e-01
19.05           	-1.09821953e-01
19.1            	-1.09918719e-01
19.15           	-1.10015024e-01
19.2            	-1.10110870e-01
19.25           	-1.10206261e-01
19.3            	-1.10301197e-01
19.35           	-1.10395682e-01
19.4            	-1.10489718e-01
19.45           	-1.10583306e-01
19.5            	-1.10676450e-01
19.55           	-1.10769150e-01
19.6            	-1.10861410e-01
19.65           	-1.10953231e-01
19.7            	-1.11044615e-01
19.75           	-1.11135566e-01
19.8            	-1.11226084e-01
19.85           	-1.11316172e-01
19.9            	-1.11405832e-01
19.95           	-1.11495067e-01
20              	-1.11583877e-01
