/*--------------------------------*- C++ -*----------------------------------*\
| =========                 |                                                 |
| \\      /  F ield         | OpenFOAM: The Open Source CFD Toolbox           |
|  \\    /   O peration     | Version:  v1812                                 |
|   \\  /    A nd           | Web:      www.OpenFOAM.com                      |
|    \\/     M anipulation  |                                                 |
\*---------------------------------------------------------------------------*/
FoamFile
{
    version     2.0;
    format      ascii;
    class       volVectorField;
    location    "13.85";
    object      U;
}
// * * * * * * * * * * * * * * * * * * * * * * * * * * * * * * * * * * * * * //

dimensions      [0 1 -1 0 0 0 0];


internalField   nonuniform List<vector> 
1000
(
(0.91890839 0.035821912 0)
(0.86271384 0.062195638 0)
(0.7870597 0.06251009 0)
(0.69536033 0.054550395 0)
(0.61089744 0.044531651 0)
(0.54411592 0.034015972 0)
(0.49343012 0.02418754 0)
(0.45479414 0.01614423 0)
(0.42544583 0.010265786 0)
(0.40347313 0.0063041452 0)
(0.38715766 0.0037976294 0)
(0.3749622 0.0023103382 0)
(0.36566192 0.0014930149 0)
(0.35836272 0.0010851182 0)
(0.35244268 0.00090607218 0)
(0.34748201 0.00084105161 0)
(0.34320348 0.00082372416 0)
(0.33942726 0.00081931049 0)
(0.33603793 0.00081185219 0)
(0.33296114 0.00079580137 0)
(0.33014778 0.00077081164 0)
(0.32756384 0.0007387095 0)
(0.3251842 0.00070188922 0)
(0.32298902 0.00066256551 0)
(0.32096172 0.00062249942 0)
(0.31908785 0.0005829573 0)
(0.31735449 0.00054477165 0)
(0.31574995 0.00050843426 0)
(0.3142636 0.00047419188 0)
(0.31288574 0.00044212477 0)
(0.31160755 0.00041220962 0)
(0.31042101 0.00038436161 0)
(0.30931883 0.00035846479 0)
(0.30829438 0.00033439001 0)
(0.30734165 0.0003120063 0)
(0.30645515 0.00029118727 0)
(0.30562991 0.00027181404 0)
(0.30486136 0.00025377681 0)
(0.30414535 0.00023697468 0)
(0.30347807 0.00022131526 0)
(0.30285601 0.0002067147 0)
(0.30227596 0.00019309583 0)
(0.30173496 0.00018038864 0)
(0.30123029 0.00016852855 0)
(0.30075942 0.00015745646 0)
(0.30032002 0.0001471182 0)
(0.29990993 0.00013746329 0)
(0.29952715 0.00012844572 0)
(0.29916983 0.00012002226 0)
(0.29883624 0.00011215273 0)
(0.29852478 0.00010480044 0)
(0.29823397 9.7930336e-05 0)
(0.29796241 9.1510618e-05 0)
(0.29770883 8.5511371e-05 0)
(0.29747201 7.9904657e-05 0)
(0.29725084 7.4665236e-05 0)
(0.29704429 6.9768616e-05 0)
(0.29685137 6.5193242e-05 0)
(0.29667119 6.091769e-05 0)
(0.29650291 5.6922246e-05 0)
(0.29634572 5.3188623e-05 0)
(0.2961989 4.9699074e-05 0)
(0.29606176 4.6437722e-05 0)
(0.29593366 4.3389304e-05 0)
(0.29581401 4.0539902e-05 0)
(0.29570224 3.7877096e-05 0)
(0.29559784 3.5388723e-05 0)
(0.29550031 3.3063878e-05 0)
(0.29540922 3.0892528e-05 0)
(0.29532413 2.8863703e-05 0)
(0.29524464 2.6968478e-05 0)
(0.29517039 2.5197149e-05 0)
(0.29510104 2.3541147e-05 0)
(0.29503625 2.1992917e-05 0)
(0.29497573 2.054561e-05 0)
(0.29491919 1.9192892e-05 0)
(0.29486638 1.7929853e-05 0)
(0.29481705 1.6749866e-05 0)
(0.29477097 1.5649468e-05 0)
(0.29472792 1.4621219e-05 0)
(0.29468772 1.3661724e-05 0)
(0.29465016 1.2763458e-05 0)
(0.29461507 1.1924372e-05 0)
(0.2945823 1.1137362e-05 0)
(0.29455168 1.0403157e-05 0)
(0.29452308 9.714094e-06 0)
(0.29449636 9.0778787e-06 0)
(0.29447141 8.4769805e-06 0)
(0.29444808 7.924345e-06 0)
(0.29442633 7.4013825e-06 0)
(0.29440598 6.9261174e-06 0)
(0.29438699 6.4640776e-06 0)
(0.29436922 6.0486755e-06 0)
(0.29435261 5.6454245e-06 0)
(0.29433715 5.2951189e-06 0)
(0.29432248 4.975634e-06 0)
(0.29430919 4.6895473e-06 0)
(0.29429569 4.5384294e-06 0)
(0.29428501 4.4066153e-06 0)
(0.29426873 5.0582883e-06 0)
(1.0016583 0.05381943 0)
(1.0359761 0.10128443 0)
(1.0597199 0.11073663 0)
(1.0628947 0.10592201 0)
(1.0515569 0.096228727 0)
(1.0340529 0.083934061 0)
(1.0142795 0.070327064 0)
(0.99360703 0.056981334 0)
(0.97292577 0.045107479 0)
(0.9531074 0.03523675 0)
(0.93479538 0.02740165 0)
(0.91829012 0.021387227 0)
(0.90362379 0.016884499 0)
(0.89068067 0.013569709 0)
(0.87928174 0.011147748 0)
(0.86923242 0.0093736587 0)
(0.86034423 0.0080569283 0)
(0.85244667 0.0070571279 0)
(0.84539241 0.006275239 0)
(0.83905793 0.005643829 0)
(0.83334126 0.0051180911 0)
(0.82815884 0.0046686719 0)
(0.82344212 0.0042764165 0)
(0.81913467 0.0039287377 0)
(0.81518962 0.0036172026 0)
(0.81156765 0.0033359699 0)
(0.80823544 0.003080804 0)
(0.8051644 0.0028484694 0)
(0.80232979 0.00263637 0)
(0.79970999 0.002442339 0)
(0.79728597 0.002264519 0)
(0.79504086 0.0021012897 0)
(0.79295963 0.0019512247 0)
(0.79102881 0.0018130622 0)
(0.78923627 0.0016856827 0)
(0.7875711 0.0015680919 0)
(0.78602338 0.0014594056 0)
(0.78458411 0.0013588362 0)
(0.78324511 0.0012656813 0)
(0.78199889 0.0011793127 0)
(0.78083861 0.0010991679 0)
(0.77975799 0.0010247415 0)
(0.77875128 0.00095557838 0)
(0.77781318 0.00089126726 0)
(0.77693881 0.00083143564 0)
(0.77612368 0.00077574536 0)
(0.77536362 0.00072388806 0)
(0.77465481 0.00067558232 0)
(0.77399367 0.00063057004 0)
(0.77337693 0.00058861414 0)
(0.77280153 0.00054949701 0)
(0.77226464 0.00051301772 0)
(0.77176363 0.0004789913 0)
(0.77129607 0.00044724708 0)
(0.77085967 0.00041762717 0)
(0.77045234 0.00038998629 0)
(0.77007211 0.00036418937 0)
(0.76971717 0.00034011189 0)
(0.76938581 0.00031763711 0)
(0.76907644 0.00029665627 0)
(0.7687876 0.00027706828 0)
(0.76851791 0.00025877868 0)
(0.7682661 0.00024169982 0)
(0.76803096 0.00022575042 0)
(0.76781139 0.00021085507 0)
(0.76760635 0.00019694435 0)
(0.76741488 0.00018395357 0)
(0.76723608 0.00017182243 0)
(0.76706909 0.00016049475 0)
(0.76691315 0.00014991626 0)
(0.76676751 0.00014003694 0)
(0.7666315 0.00013080842 0)
(0.76650447 0.00012218704 0)
(0.76638582 0.00011413158 0)
(0.76627501 0.00010660625 0)
(0.76617152 9.957586e-05 0)
(0.76607485 9.3011567e-05 0)
(0.76598458 8.6880546e-05 0)
(0.76590025 8.115908e-05 0)
(0.7658215 7.581356e-05 0)
(0.76574793 7.0824792e-05 0)
(0.76567924 6.6157491e-05 0)
(0.76561505 6.1801799e-05 0)
(0.76555513 5.7720831e-05 0)
(0.76549911 5.3918325e-05 0)
(0.76544684 5.0349236e-05 0)
(0.76539796 4.7043025e-05 0)
(0.76535238 4.39326e-05 0)
(0.76530969 4.106286e-05 0)
(0.76526996 3.8331612e-05 0)
(0.76523272 3.5853628e-05 0)
(0.76519805 3.3459829e-05 0)
(0.76516557 3.1309337e-05 0)
(0.76513517 2.9171044e-05 0)
(0.76510712 2.7367679e-05 0)
(0.76507997 2.552852e-05 0)
(0.76505664 2.4075128e-05 0)
(0.76503058 2.2555028e-05 0)
(0.76501446 2.1600168e-05 0)
(0.76498345 2.0996446e-05 0)
(1.0014244 0.026824854 0)
(1.0291272 0.06279135 0)
(1.0654292 0.077736551 0)
(1.098962 0.080597199 0)
(1.1253149 0.078285171 0)
(1.145053 0.0731539 0)
(1.1594858 0.06611128 0)
(1.1694287 0.058162064 0)
(1.1755354 0.050296755 0)
(1.1785738 0.043150708 0)
(1.1793571 0.036972825 0)
(1.1785949 0.031771632 0)
(1.1768304 0.027451839 0)
(1.1744518 0.023886768 0)
(1.1717287 0.02094762 0)
(1.1688444 0.01851578 0)
(1.1659195 0.016488085 0)
(1.1630317 0.014779503 0)
(1.1602295 0.013322986 0)
(1.1575415 0.012067133 0)
(1.1549828 0.010973001 0)
(1.1525601 0.010011061 0)
(1.1502747 0.0091587461 0)
(1.1481246 0.0083986034 0)
(1.1461059 0.0077169498 0)
(1.1442134 0.0071028878 0)
(1.1424414 0.0065475921 0)
(1.1407838 0.006043796 0)
(1.1392344 0.0055854269 0)
(1.1377869 0.0051673454 0)
(1.1364353 0.0047851575 0)
(1.1351738 0.0044350762 0)
(1.1339968 0.0041138163 0)
(1.1328987 0.003818512 0)
(1.1318746 0.003546652 0)
(1.1309195 0.0032960263 0)
(1.1300289 0.0030646829 0)
(1.1291985 0.002850891 0)
(1.1284242 0.0026531112 0)
(1.1277022 0.0024699696 0)
(1.1270291 0.0023002364 0)
(1.1264014 0.0021428073 0)
(1.1258161 0.0019966878 0)
(1.1252702 0.0018609798 0)
(1.1247612 0.00173487 0)
(1.1242865 0.0016176199 0)
(1.1238437 0.0015085572 0)
(1.1234307 0.0014070685 0)
(1.1230455 0.0013125927 0)
(1.1226861 0.0012246156 0)
(1.1223509 0.0011426655 0)
(1.1220381 0.0010663083 0)
(1.1217462 0.00099514471 0)
(1.1214739 0.00092880688 0)
(1.1212198 0.0008669556 0)
(1.1209827 0.00080927777 0)
(1.1207614 0.00075548414 0)
(1.1205548 0.00070530645 0)
(1.1203621 0.00065849544 0)
(1.1201821 0.00061481977 0)
(1.1200142 0.00057406469 0)
(1.1198574 0.00053603036 0)
(1.1197111 0.00050053157 0)
(1.1195745 0.00046739642 0)
(1.1194469 0.00043646599 0)
(1.1193278 0.00040759217 0)
(1.1192167 0.0003806379 0)
(1.1191129 0.00035547508 0)
(1.119016 0.00033198401 0)
(1.1189255 0.00031005174 0)
(1.118841 0.00028957373 0)
(1.1187621 0.00027045014 0)
(1.1186885 0.00025259139 0)
(1.1186197 0.00023591129 0)
(1.1185554 0.00022033507 0)
(1.1184954 0.00020578729 0)
(1.1184394 0.00019220579 0)
(1.1183871 0.00017952143 0)
(1.1183382 0.00016768303 0)
(1.1182927 0.00015662149 0)
(1.11825 0.00014629862 0)
(1.1182103 0.00013664276 0)
(1.1181731 0.00012763787 0)
(1.1181384 0.0001192023 0)
(1.1181059 0.00011135162 0)
(1.1180757 0.00010398138 0)
(1.1180473 9.7155518e-05 0)
(1.1180211 9.0712069e-05 0)
(1.1179962 8.4795252e-05 0)
(1.1179734 7.9134074e-05 0)
(1.1179516 7.4027523e-05 0)
(1.1179319 6.9011158e-05 0)
(1.1179128 6.4651333e-05 0)
(1.1178954 6.0133198e-05 0)
(1.1178789 5.656336e-05 0)
(1.1178635 5.243128e-05 0)
(1.1178501 4.9746441e-05 0)
(1.1178349 4.5806512e-05 0)
(1.1178262 4.4319701e-05 0)
(1.1178083 4.0577386e-05 0)
(1.0007347 0.011814721 0)
(1.0178472 0.030860925 0)
(1.0462163 0.04143444 0)
(1.0799018 0.045193569 0)
(1.1132664 0.045502351 0)
(1.143782 0.044080308 0)
(1.1708941 0.041439983 0)
(1.1945687 0.037973679 0)
(1.2148582 0.03419573 0)
(1.2319652 0.030536887 0)
(1.2462683 0.027222044 0)
(1.2582339 0.02431392 0)
(1.2683135 0.021797888 0)
(1.2768875 0.019633659 0)
(1.2842554 0.017773826 0)
(1.2906479 0.016169652 0)
(1.296243 0.01477559 0)
(1.3011791 0.013552298 0)
(1.3055645 0.012467864 0)
(1.3094838 0.011497466 0)
(1.3130042 0.010622161 0)
(1.3161792 0.0098275128 0)
(1.3190526 0.0091024105 0)
(1.3216607 0.0084381763 0)
(1.3240343 0.0078279037 0)
(1.3261995 0.0072659746 0)
(1.3281786 0.0067477093 0)
(1.3299913 0.0062691174 0)
(1.3316544 0.0058267281 0)
(1.3331829 0.0054174738 0)
(1.3345896 0.0050386125 0)
(1.3358862 0.0046876735 0)
(1.3370827 0.0043624189 0)
(1.3381882 0.0040608137 0)
(1.3392108 0.0037810034 0)
(1.3401576 0.0035212946 0)
(1.3410349 0.0032801386 0)
(1.3418486 0.0030561181 0)
(1.3426038 0.0028479349 0)
(1.3433051 0.0026543984 0)
(1.3439569 0.0024744166 0)
(1.3445629 0.0023069862 0)
(1.3451267 0.0021511855 0)
(1.3456513 0.002006166 0)
(1.3461398 0.0018711471 0)
(1.3465947 0.001745409 0)
(1.3470185 0.0016282875 0)
(1.3474135 0.0015191695 0)
(1.3477816 0.0014174884 0)
(1.3481249 0.0013227203 0)
(1.3484449 0.0012343805 0)
(1.3487435 0.0011520199 0)
(1.349022 0.0010752228 0)
(1.3492818 0.001003604 0)
(1.3495242 0.00093680665 0)
(1.3497505 0.00087450007 0)
(1.3499616 0.00081637659 0)
(1.3501587 0.0007621502 0)
(1.3503427 0.00071155473 0)
(1.3505145 0.00066434279 0)
(1.3506748 0.00062028443 0)
(1.3508245 0.00057916565 0)
(1.3509643 0.00054078783 0)
(1.3510948 0.000504966 0)
(1.3512167 0.00047152889 0)
(1.3513305 0.00044031666 0)
(1.3514368 0.00041118063 0)
(1.3515361 0.00038398126 0)
(1.3516288 0.00035858926 0)
(1.3517153 0.00033488204 0)
(1.3517962 0.00031274689 0)
(1.3518717 0.00029207695 0)
(1.3519422 0.00027277641 0)
(1.3520081 0.00025475215 0)
(1.3520696 0.00023792395 0)
(1.3521271 0.00022220836 0)
(1.3521807 0.0002075381 0)
(1.3522309 0.00019383536 0)
(1.3522777 0.00018104656 0)
(1.3523215 0.0001690937 0)
(1.3523623 0.00015794068 0)
(1.3524005 0.00014750662 0)
(1.352436 0.000137783 0)
(1.3524695 0.000128669 0)
(1.3525004 0.00012020237 0)
(1.3525296 0.00011224398 0)
(1.3525565 0.00010488527 0)
(1.3525822 9.790109e-05 0)
(1.3526054 9.1540417e-05 0)
(1.3526282 8.5404195e-05 0)
(1.352648 7.9917942e-05 0)
(1.3526684 7.4411355e-05 0)
(1.3526849 6.9807419e-05 0)
(1.3527036 6.4841303e-05 0)
(1.352717 6.112378e-05 0)
(1.3527349 5.6437931e-05 0)
(1.3527447 5.3739753e-05 0)
(1.3527628 4.9140518e-05 0)
(1.3527683 4.770049e-05 0)
(1.3527889 4.2957739e-05 0)
(1.0005903 0.0034629152 0)
(1.0136865 0.0093660184 0)
(1.0370283 0.013046805 0)
(1.0674202 0.014563261 0)
(1.1000315 0.014854525 0)
(1.1316428 0.014564991 0)
(1.1610745 0.013888338 0)
(1.1880674 0.012919246 0)
(1.2125205 0.011806506 0)
(1.2343939 0.010696427 0)
(1.2538077 0.0096727418 0)
(1.2710339 0.0087628217 0)
(1.286401 0.0079659734 0)
(1.3002112 0.0072722147 0)
(1.3127102 0.006668809 0)
(1.3240903 0.0061419258 0)
(1.3345036 0.0056780726 0)
(1.3440716 0.0052653212 0)
(1.3528927 0.0048939351 0)
(1.3610463 0.0045563956 0)
(1.3685975 0.0042470695 0)
(1.3756004 0.0039617756 0)
(1.3821012 0.0036973974 0)
(1.3881402 0.0034515824 0)
(1.3937533 0.0032225187 0)
(1.3989728 0.0030087702 0)
(1.403828 0.0028091583 0)
(1.4083456 0.0026226795 0)
(1.4125503 0.0024484499 0)
(1.4164646 0.0022856708 0)
(1.4201094 0.0021336073 0)
(1.423504 0.0019915758 0)
(1.426666 0.0018589357 0)
(1.4296121 0.0017350852 0)
(1.4323573 0.0016194581 0)
(1.4349159 0.0015115214 0)
(1.4373007 0.0014107734 0)
(1.4395241 0.0013167428 0)
(1.441597 0.0012289871 0)
(1.4435301 0.0011470913 0)
(1.4453328 0.0010706668 0)
(1.4470143 0.00099934986 0)
(1.4485827 0.00093280005 0)
(1.4500459 0.00087069918 0)
(1.451411 0.00081275 0)
(1.4526846 0.0007586748 0)
(1.4538731 0.00070821391 0)
(1.4549822 0.00066112487 0)
(1.4560172 0.00061718159 0)
(1.4569831 0.00057617278 0)
(1.4578847 0.00053790114 0)
(1.4587262 0.00050218312 0)
(1.4595117 0.00046884728 0)
(1.460245 0.00043773404 0)
(1.4609295 0.00040869492 0)
(1.4615685 0.00038159147 0)
(1.4621651 0.00035629381 0)
(1.4627221 0.00033268039 0)
(1.4632422 0.00031063832 0)
(1.4637278 0.00029006187 0)
(1.4641812 0.00027085253 0)
(1.4646045 0.00025291928 0)
(1.4649998 0.00023617718 0)
(1.4653689 0.00022054687 0)
(1.4657136 0.00020595457 0)
(1.4660355 0.00019233156 0)
(1.4663361 0.0001796134 0)
(1.4666168 0.00016773895 0)
(1.466879 0.0001566519 0)
(1.4671238 0.00014629871 0)
(1.4673524 0.00013663019 0)
(1.467566 0.00012760044 0)
(1.4677654 0.00011916863 0)
(1.4679516 0.00011129467 0)
(1.4681255 0.00010394402 0)
(1.468288 9.7080199e-05 0)
(1.4684397 9.0673629e-05 0)
(1.4685815 8.4688607e-05 0)
(1.4687138 7.9101962e-05 0)
(1.4688375 7.3877831e-05 0)
(1.4689529 6.9003035e-05 0)
(1.4690608 6.4441558e-05 0)
(1.4691614 6.0192696e-05 0)
(1.4692557 5.6208523e-05 0)
(1.4693433 5.2515977e-05 0)
(1.4694257 4.9040613e-05 0)
(1.4695019 4.5826956e-05 0)
(1.4695742 4.2768841e-05 0)
(1.4696402 4.0005432e-05 0)
(1.4697039 3.7311277e-05 0)
(1.4697607 3.4908557e-05 0)
(1.4698171 3.2482029e-05 0)
(1.4698652 3.0507184e-05 0)
(1.4699167 2.83207e-05 0)
(1.4699561 2.6723294e-05 0)
(1.4700045 2.4631738e-05 0)
(1.470034 2.3487055e-05 0)
(1.4700831 2.1418395e-05 0)
(1.4701001 2.0807613e-05 0)
(1.4701557 1.8649836e-05 0)
(1.0005903 -0.0034629163 0)
(1.0136865 -0.0093660205 0)
(1.0370283 -0.013046806 0)
(1.0674202 -0.014563261 0)
(1.1000315 -0.014854524 0)
(1.1316428 -0.01456499 0)
(1.1610745 -0.013888338 0)
(1.1880674 -0.012919245 0)
(1.2125205 -0.011806506 0)
(1.2343939 -0.010696427 0)
(1.2538077 -0.0096727422 0)
(1.2710339 -0.0087628221 0)
(1.286401 -0.0079659736 0)
(1.3002112 -0.0072722144 0)
(1.3127102 -0.0066688084 0)
(1.3240903 -0.0061419252 0)
(1.3345036 -0.0056780721 0)
(1.3440716 -0.0052653208 0)
(1.3528927 -0.0048939349 0)
(1.3610463 -0.0045563957 0)
(1.3685975 -0.0042470698 0)
(1.3756004 -0.003961776 0)
(1.3821012 -0.0036973978 0)
(1.3881402 -0.0034515827 0)
(1.3937533 -0.0032225186 0)
(1.3989728 -0.0030087698 0)
(1.403828 -0.0028091578 0)
(1.4083456 -0.0026226788 0)
(1.4125503 -0.0024484491 0)
(1.4164646 -0.0022856702 0)
(1.4201094 -0.0021336072 0)
(1.423504 -0.0019915761 0)
(1.426666 -0.0018589365 0)
(1.4296121 -0.0017350865 0)
(1.4323573 -0.0016194594 0)
(1.4349159 -0.001511522 0)
(1.4373007 -0.0014107732 0)
(1.4395241 -0.0013167419 0)
(1.441597 -0.0012289856 0)
(1.4435301 -0.0011470898 0)
(1.4453328 -0.0010706658 0)
(1.4470143 -0.00099934961 0)
(1.4485827 -0.00093280057 0)
(1.4500459 -0.00087070039 0)
(1.451411 -0.00081275149 0)
(1.4526846 -0.00075867592 0)
(1.4538731 -0.00070821423 0)
(1.4549822 -0.0006611242 0)
(1.4560172 -0.00061717971 0)
(1.4569831 -0.00057617013 0)
(1.4578847 -0.00053789884 0)
(1.4587262 -0.00050218192 0)
(1.4595117 -0.00046884773 0)
(1.460245 -0.00043773613 0)
(1.4609295 -0.00040869766 0)
(1.4615685 -0.00038159327 0)
(1.4621651 -0.00035629368 0)
(1.4627221 -0.00033267843 0)
(1.4632422 -0.00031063469 0)
(1.4637278 -0.00029005766 0)
(1.4641812 -0.00027084958 0)
(1.4646045 -0.00025291852 0)
(1.4649998 -0.00023617847 0)
(1.4653689 -0.00022054966 0)
(1.4657136 -0.00020595798 0)
(1.4660355 -0.00019233376 0)
(1.4663361 -0.00017961276 0)
(1.4666168 -0.00016773536 0)
(1.466879 -0.00015664601 0)
(1.4671238 -0.00014629237 0)
(1.4673524 -0.00013662608 0)
(1.467566 -0.00012760004 0)
(1.4677654 -0.00011917191 0)
(1.4679516 -0.0001113001 0)
(1.4681256 -0.0001039491 0)
(1.468288 -9.708185e-05 0)
(1.4684397 -9.067015e-05 0)
(1.4685815 -8.4680983e-05 0)
(1.4687138 -7.9092955e-05 0)
(1.4688375 -7.3871392e-05 0)
(1.4689529 -6.900178e-05 0)
(1.4690608 -6.4445047e-05 0)
(1.4691614 -6.0200344e-05 0)
(1.4692557 -5.6216871e-05 0)
(1.4693433 -5.2516697e-05 0)
(1.4694257 -4.9035161e-05 0)
(1.4695019 -4.5823328e-05 0)
(1.4695741 -4.2761471e-05 0)
(1.4696402 -3.998636e-05 0)
(1.4697039 -3.7305107e-05 0)
(1.4697606 -3.49347e-05 0)
(1.4698171 -3.250965e-05 0)
(1.4698652 -3.0505534e-05 0)
(1.4699167 -2.8302791e-05 0)
(1.4699561 -2.6714009e-05 0)
(1.4700045 -2.4633906e-05 0)
(1.470034 -2.3493375e-05 0)
(1.4700831 -2.1427409e-05 0)
(1.4701001 -2.0821907e-05 0)
(1.4701557 -1.8662869e-05 0)
(1.0007347 -0.011814722 0)
(1.0178472 -0.030860927 0)
(1.0462163 -0.041434441 0)
(1.0799018 -0.04519357 0)
(1.1132664 -0.045502351 0)
(1.143782 -0.044080308 0)
(1.1708941 -0.041439982 0)
(1.1945687 -0.037973678 0)
(1.2148582 -0.034195729 0)
(1.2319652 -0.030536887 0)
(1.2462683 -0.027222045 0)
(1.2582339 -0.02431392 0)
(1.2683135 -0.021797888 0)
(1.2768875 -0.019633659 0)
(1.2842554 -0.017773826 0)
(1.2906479 -0.016169652 0)
(1.296243 -0.01477559 0)
(1.3011791 -0.013552297 0)
(1.3055645 -0.012467863 0)
(1.3094838 -0.011497466 0)
(1.3130042 -0.010622161 0)
(1.3161792 -0.0098275131 0)
(1.3190526 -0.0091024109 0)
(1.3216607 -0.0084381766 0)
(1.3240343 -0.0078279038 0)
(1.3261995 -0.0072659745 0)
(1.3281786 -0.0067477088 0)
(1.3299913 -0.0062691168 0)
(1.3316544 -0.0058267274 0)
(1.3331829 -0.0054174733 0)
(1.3345896 -0.0050386124 0)
(1.3358862 -0.0046876739 0)
(1.3370827 -0.0043624197 0)
(1.3381882 -0.0040608148 0)
(1.3392108 -0.0037810044 0)
(1.3401576 -0.0035212951 0)
(1.3410349 -0.0032801385 0)
(1.3418486 -0.0030561174 0)
(1.3426038 -0.0028479336 0)
(1.3433051 -0.0026543971 0)
(1.3439569 -0.0024744156 0)
(1.3445629 -0.0023069859 0)
(1.3451267 -0.0021511858 0)
(1.3456513 -0.002006167 0)
(1.3461398 -0.0018711484 0)
(1.3465947 -0.00174541 0)
(1.3470185 -0.0016282879 0)
(1.3474135 -0.0015191689 0)
(1.3477816 -0.0014174869 0)
(1.3481249 -0.0013227184 0)
(1.3484449 -0.0012343787 0)
(1.3487435 -0.0011520189 0)
(1.349022 -0.0010752229 0)
(1.3492818 -0.0010036052 0)
(1.3495242 -0.00093680835 0)
(1.3497505 -0.00087450137 0)
(1.3499616 -0.00081637687 0)
(1.3501587 -0.00076214901 0)
(1.3503427 -0.00071155233 0)
(1.3505145 -0.00066433986 0)
(1.3506748 -0.00062028186 0)
(1.3508245 -0.00057916426 0)
(1.3509643 -0.00054078803 0)
(1.3510948 -0.00050496776 0)
(1.3512167 -0.00047153131 0)
(1.3513305 -0.00044031845 0)
(1.3514368 -0.00041118074 0)
(1.3515361 -0.00038397923 0)
(1.3516288 -0.00035858545 0)
(1.3517153 -0.00033487766 0)
(1.3517962 -0.00031274357 0)
(1.3518717 -0.00029207579 0)
(1.3519422 -0.00027277765 0)
(1.3520081 -0.00025475516 0)
(1.3520696 -0.00023792683 0)
(1.3521271 -0.00022220956 0)
(1.3521807 -0.00020753678 0)
(1.3522309 -0.00019383157 0)
(1.3522777 -0.00018104155 0)
(1.3523215 -0.0001690892 0)
(1.3523623 -0.00015793842 0)
(1.3524005 -0.00014750739 0)
(1.352436 -0.00013778602 0)
(1.3524695 -0.00012867255 0)
(1.3525004 -0.00012020541 0)
(1.3525297 -0.00011224426 0)
(1.3525565 -0.00010488095 0)
(1.3525822 -9.7894775e-05 0)
(1.3526054 -9.1537987e-05 0)
(1.3526282 -8.5403623e-05 0)
(1.3526479 -7.991898e-05 0)
(1.3526683 -7.4417625e-05 0)
(1.352685 -6.9812007e-05 0)
(1.3527038 -6.4840656e-05 0)
(1.352717 -6.1124871e-05 0)
(1.3527348 -5.6444139e-05 0)
(1.3527446 -5.3744791e-05 0)
(1.3527629 -4.9142076e-05 0)
(1.3527684 -4.7704372e-05 0)
(1.3527889 -4.296298e-05 0)
(1.0014244 -0.026824855 0)
(1.0291272 -0.062791352 0)
(1.0654292 -0.077736553 0)
(1.098962 -0.0805972 0)
(1.1253149 -0.078285171 0)
(1.145053 -0.0731539 0)
(1.1594858 -0.066111278 0)
(1.1694287 -0.058162063 0)
(1.1755354 -0.050296754 0)
(1.1785738 -0.043150708 0)
(1.1793571 -0.036972825 0)
(1.1785949 -0.031771632 0)
(1.1768304 -0.02745184 0)
(1.1744518 -0.023886768 0)
(1.1717287 -0.02094762 0)
(1.1688444 -0.01851578 0)
(1.1659195 -0.016488085 0)
(1.1630317 -0.014779503 0)
(1.1602295 -0.013322985 0)
(1.1575415 -0.012067133 0)
(1.1549828 -0.010973001 0)
(1.1525601 -0.010011061 0)
(1.1502747 -0.0091587464 0)
(1.1481246 -0.0083986037 0)
(1.1461059 -0.0077169501 0)
(1.1442134 -0.007102888 0)
(1.1424414 -0.0065475918 0)
(1.1407838 -0.0060437955 0)
(1.1392344 -0.0055854265 0)
(1.1377869 -0.0051673451 0)
(1.1364353 -0.0047851573 0)
(1.1351738 -0.0044350764 0)
(1.1339968 -0.0041138167 0)
(1.1328987 -0.0038185125 0)
(1.1318746 -0.0035466525 0)
(1.1309195 -0.0032960269 0)
(1.1300289 -0.0030646831 0)
(1.1291985 -0.0028508907 0)
(1.1284242 -0.0026531105 0)
(1.1277022 -0.0024699687 0)
(1.1270291 -0.0023002355 0)
(1.1264014 -0.0021428067 0)
(1.1258161 -0.0019966879 0)
(1.1252702 -0.0018609804 0)
(1.1247612 -0.0017348709 0)
(1.1242865 -0.0016176208 0)
(1.1238437 -0.0015085577 0)
(1.1234307 -0.0014070683 0)
(1.1230455 -0.001312592 0)
(1.1226861 -0.0012246147 0)
(1.1223509 -0.0011426644 0)
(1.1220381 -0.0010663074 0)
(1.1217462 -0.00099514422 0)
(1.1214739 -0.00092880685 0)
(1.1212198 -0.0008669561 0)
(1.1209827 -0.00080927885 0)
(1.1207614 -0.00075548525 0)
(1.1205548 -0.00070530669 0)
(1.1203621 -0.00065849473 0)
(1.1201821 -0.00061481834 0)
(1.1200142 -0.00057406264 0)
(1.1198574 -0.00053602835 0)
(1.1197111 -0.00050053049 0)
(1.1195745 -0.00046739661 0)
(1.1194469 -0.00043646694 0)
(1.1193278 -0.00040759353 0)
(1.1192167 -0.00038063918 0)
(1.1191129 -0.00035547532 0)
(1.119016 -0.00033198315 0)
(1.1189255 -0.00031004999 0)
(1.118841 -0.00028957116 0)
(1.1187621 -0.00027044766 0)
(1.1186884 -0.00025258982 0)
(1.1186197 -0.00023591097 0)
(1.1185554 -0.00022033592 0)
(1.1184954 -0.00020578908 0)
(1.1184394 -0.00019220797 0)
(1.1183871 -0.00017952265 0)
(1.1183383 -0.00016768244 0)
(1.1182927 -0.00015661876 0)
(1.11825 -0.00014629464 0)
(1.1182103 -0.00013663926 0)
(1.1181731 -0.00012763521 0)
(1.1181384 -0.00011920208 0)
(1.1181059 -0.0001113563 0)
(1.1180757 -0.0001039863 0)
(1.1180473 -9.715504e-05 0)
(1.1180211 -9.0711502e-05 0)
(1.1179963 -8.480132e-05 0)
(1.1179734 -7.9135623e-05 0)
(1.1179516 -7.401113e-05 0)
(1.1179319 -6.8993714e-05 0)
(1.1179128 -6.4659545e-05 0)
(1.1178955 -6.0158619e-05 0)
(1.117879 -5.6576444e-05 0)
(1.1178635 -5.2426294e-05 0)
(1.11785 -4.9738799e-05 0)
(1.1178349 -4.580504e-05 0)
(1.1178262 -4.4319467e-05 0)
(1.1178083 -4.0577221e-05 0)
(1.0016583 -0.05381943 0)
(1.0359761 -0.10128444 0)
(1.0597199 -0.11073663 0)
(1.0628947 -0.10592202 0)
(1.0515569 -0.096228728 0)
(1.0340529 -0.083934061 0)
(1.0142795 -0.070327063 0)
(0.99360703 -0.056981333 0)
(0.97292577 -0.045107479 0)
(0.95310739 -0.03523675 0)
(0.93479538 -0.02740165 0)
(0.91829012 -0.021387228 0)
(0.90362379 -0.016884499 0)
(0.89068067 -0.013569709 0)
(0.87928174 -0.011147748 0)
(0.86923242 -0.0093736585 0)
(0.86034423 -0.008056928 0)
(0.85244667 -0.0070571276 0)
(0.84539241 -0.0062752387 0)
(0.83905793 -0.0056438288 0)
(0.83334126 -0.005118091 0)
(0.82815884 -0.0046686719 0)
(0.82344212 -0.0042764166 0)
(0.81913467 -0.003928738 0)
(0.81518962 -0.0036172029 0)
(0.81156765 -0.0033359702 0)
(0.80823544 -0.0030808041 0)
(0.8051644 -0.0028484693 0)
(0.80232979 -0.0026363698 0)
(0.79970999 -0.0024423389 0)
(0.79728597 -0.0022645188 0)
(0.79504086 -0.0021012895 0)
(0.79295963 -0.0019512247 0)
(0.7910288 -0.0018130622 0)
(0.78923627 -0.0016856829 0)
(0.7875711 -0.0015680924 0)
(0.78602338 -0.001459406 0)
(0.78458412 -0.0013588364 0)
(0.78324511 -0.0012656812 0)
(0.78199889 -0.0011793123 0)
(0.7808386 -0.0010991674 0)
(0.77975799 -0.001024741 0)
(0.77875128 -0.00095557801 0)
(0.77781318 -0.00089126715 0)
(0.77693881 -0.0008314359 0)
(0.77612368 -0.00077574583 0)
(0.77536363 -0.00072388859 0)
(0.77465481 -0.00067558269 0)
(0.77399368 -0.00063057023 0)
(0.77337693 -0.00058861416 0)
(0.77280153 -0.0005494966 0)
(0.77226464 -0.00051301699 0)
(0.77176363 -0.0004789904 0)
(0.77129606 -0.00044724615 0)
(0.77085967 -0.00041762684 0)
(0.77045234 -0.00038998674 0)
(0.77007212 -0.00036419055 0)
(0.76971718 -0.00034011301 0)
(0.76938581 -0.00031763781 0)
(0.76907644 -0.00029665632 0)
(0.7687876 -0.0002770674 0)
(0.76851791 -0.00025877714 0)
(0.76826609 -0.00024169821 0)
(0.76803096 -0.00022574909 0)
(0.76781139 -0.00021085455 0)
(0.76760636 -0.00019694483 0)
(0.76741489 -0.00018395504 0)
(0.76723609 -0.00017182438 0)
(0.7670691 -0.00016049629 0)
(0.76691315 -0.00014991676 0)
(0.76676751 -0.00014003577 0)
(0.7666315 -0.00013080582 0)
(0.76650446 -0.00012218405 0)
(0.76638583 -0.00011412914 0)
(0.76627502 -0.00010660553 0)
(0.76617153 -9.9577317e-05 0)
(0.76607487 -9.3014698e-05 0)
(0.76598459 -8.6884301e-05 0)
(0.76590026 -8.1161448e-05 0)
(0.76582151 -7.5813226e-05 0)
(0.76574793 -7.0821672e-05 0)
(0.76567924 -6.6152713e-05 0)
(0.76561505 -6.1796988e-05 0)
(0.76555513 -5.7718293e-05 0)
(0.76549912 -5.3920774e-05 0)
(0.76544686 -5.0353809e-05 0)
(0.76539797 -4.7046241e-05 0)
(0.76535239 -4.3937989e-05 0)
(0.76530969 -4.107026e-05 0)
(0.76526995 -3.8327891e-05 0)
(0.76523273 -3.5835489e-05 0)
(0.76519807 -3.3447252e-05 0)
(0.76516557 -3.1317678e-05 0)
(0.76513515 -2.9189606e-05 0)
(0.76510713 -2.7376223e-05 0)
(0.76508001 -2.5523636e-05 0)
(0.76505665 -2.406821e-05 0)
(0.76503056 -2.2552757e-05 0)
(0.76501445 -2.1597804e-05 0)
(0.76498346 -2.0994297e-05 0)
(0.91890839 -0.035821913 0)
(0.86271384 -0.062195638 0)
(0.7870597 -0.06251009 0)
(0.69536033 -0.054550395 0)
(0.61089745 -0.044531651 0)
(0.54411592 -0.034015972 0)
(0.49343012 -0.024187539 0)
(0.45479413 -0.01614423 0)
(0.42544582 -0.010265785 0)
(0.40347313 -0.0063041452 0)
(0.38715766 -0.0037976295 0)
(0.3749622 -0.0023103383 0)
(0.36566193 -0.001493015 0)
(0.35836272 -0.0010851182 0)
(0.35244268 -0.00090607221 0)
(0.34748201 -0.00084105162 0)
(0.34320348 -0.00082372412 0)
(0.33942726 -0.00081931049 0)
(0.33603793 -0.00081185213 0)
(0.33296114 -0.00079580133 0)
(0.33014778 -0.00077081149 0)
(0.32756384 -0.00073870943 0)
(0.3251842 -0.00070188918 0)
(0.32298902 -0.00066256554 0)
(0.32096172 -0.00062249952 0)
(0.31908785 -0.00058295749 0)
(0.31735449 -0.00054477172 0)
(0.31574995 -0.00050843437 0)
(0.3142636 -0.00047419183 0)
(0.31288574 -0.00044212474 0)
(0.31160755 -0.00041220944 0)
(0.31042101 -0.00038436145 0)
(0.30931883 -0.00035846465 0)
(0.30829438 -0.00033438993 0)
(0.30734165 -0.00031200637 0)
(0.30645515 -0.00029118746 0)
(0.30562991 -0.00027181431 0)
(0.30486136 -0.00025377702 0)
(0.30414535 -0.00023697474 0)
(0.30347807 -0.00022131526 0)
(0.30285601 -0.00020671448 0)
(0.30227596 -0.00019309559 0)
(0.30173496 -0.00018038834 0)
(0.30123029 -0.00016852833 0)
(0.30075942 -0.00015745645 0)
(0.30032002 -0.00014711829 0)
(0.29990993 -0.00013746362 0)
(0.29952715 -0.00012844606 0)
(0.29916983 -0.00012002253 0)
(0.29883624 -0.00011215299 0)
(0.29852478 -0.00010480031 0)
(0.29823397 -9.7930028e-05 0)
(0.29796241 -9.1510091e-05 0)
(0.29770883 -8.5510745e-05 0)
(0.29747201 -7.9904384e-05 0)
(0.29725085 -7.4665246e-05 0)
(0.29704429 -6.9769231e-05 0)
(0.29685138 -6.5193913e-05 0)
(0.2966712 -6.0918311e-05 0)
(0.29650291 -5.6922646e-05 0)
(0.29634572 -5.318844e-05 0)
(0.2961989 -4.9698513e-05 0)
(0.29606176 -4.6436813e-05 0)
(0.29593366 -4.3388344e-05 0)
(0.29581401 -4.0539363e-05 0)
(0.29570224 -3.7877086e-05 0)
(0.29559784 -3.5389482e-05 0)
(0.29550032 -3.3065216e-05 0)
(0.29540922 -3.0893639e-05 0)
(0.29532413 -2.8864454e-05 0)
(0.29524464 -2.6968205e-05 0)
(0.29517039 -2.5195912e-05 0)
(0.29510104 -2.3539553e-05 0)
(0.29503625 -2.1991393e-05 0)
(0.29497573 -2.0544957e-05 0)
(0.2949192 -1.9193455e-05 0)
(0.29486638 -1.7931344e-05 0)
(0.29481705 -1.6752076e-05 0)
(0.29477097 -1.5651073e-05 0)
(0.29472793 -1.4621624e-05 0)
(0.29468771 -1.3660607e-05 0)
(0.29465016 -1.2761069e-05 0)
(0.29461507 -1.1921963e-05 0)
(0.29458231 -1.1135571e-05 0)
(0.29455168 -1.0403802e-05 0)
(0.29452309 -9.7160692e-06 0)
(0.29449637 -9.0796175e-06 0)
(0.29447141 -8.4806813e-06 0)
(0.29444808 -7.9281626e-06 0)
(0.29442634 -7.3975528e-06 0)
(0.29440599 -6.9178661e-06 0)
(0.29438698 -6.462527e-06 0)
(0.29436921 -6.0532578e-06 0)
(0.29435262 -5.6483184e-06 0)
(0.29433717 -5.295079e-06 0)
(0.2943225 -4.9759751e-06 0)
(0.29430918 -4.688838e-06 0)
(0.29429568 -4.5361988e-06 0)
(0.29428501 -4.4050553e-06 0)
(0.29426874 -5.0575727e-06 0)
)
;

boundaryField
{
    top
    {
        type            fixedValue;
        value           uniform (0 0 0);
    }
    inlet
    {
        type            fixedValue;
        value           uniform (1 0 0);
    }
    outlet
    {
        type            zeroGradient;
    }
    bottom
    {
        type            fixedValue;
        value           uniform (0 0 0);
    }
    back
    {
        type            empty;
    }
    front
    {
        type            empty;
    }
}


// ************************************************************************* //
