/*--------------------------------*- C++ -*----------------------------------*\
| =========                 |                                                 |
| \\      /  F ield         | OpenFOAM: The Open Source CFD Toolbox           |
|  \\    /   O peration     | Version:  v1812                                 |
|   \\  /    A nd           | Web:      www.OpenFOAM.com                      |
|    \\/     M anipulation  |                                                 |
\*---------------------------------------------------------------------------*/
FoamFile
{
    version     2.0;
    format      ascii;
    class       volScalarField;
    location    "7";
    object      p;
}
// * * * * * * * * * * * * * * * * * * * * * * * * * * * * * * * * * * * * * //

dimensions      [0 2 -2 0 0 0 0];


internalField   nonuniform List<scalar> 
1000
(
1.6754238
1.5543459
1.4583655
1.3947094
1.3461998
1.3037278
1.2661926
1.2340208
1.2066204
1.1827829
1.1613885
1.1416247
1.1229476
1.105008
1.0875927
1.0705785
1.0538977
1.0375135
1.0214053
1.0055594
0.98996437
0.97460927
0.95948257
0.94457234
0.92986634
0.91535236
0.90101839
0.88685289
0.87284483
0.85898382
0.8452601
0.83166454
0.81818864
0.80482446
0.79156464
0.77840228
0.765331
0.75234481
0.73943817
0.72660588
0.71384311
0.70114536
0.68850843
0.67592838
0.66340157
0.65092457
0.63849422
0.62610755
0.61376179
0.6014544
0.58918297
0.57694532
0.56473939
0.55256328
0.54041524
0.5282936
0.51619686
0.50412355
0.49207234
0.48004193
0.46803111
0.4560387
0.44406359
0.43210467
0.4201609
0.40823123
0.39631465
0.38441017
0.37251683
0.36063369
0.34875983
0.33689437
0.32503649
0.31318537
0.30134028
0.28950048
0.27766531
0.26583416
0.25400644
0.24218165
0.23035935
0.21853915
0.20672073
0.19490381
0.18308811
0.17127342
0.15945952
0.14764622
0.13583337
0.12402088
0.11220867
0.10039671
0.088584963
0.076773397
0.064961971
0.053150634
0.041339342
0.029528074
0.017716814
0.0059055824
1.5582041
1.5032751
1.4423226
1.3907549
1.3474848
1.3085165
1.2729303
1.2411576
1.2131967
1.1884189
1.166017
1.1453156
1.125834
1.107246
1.0893324
1.0719476
1.0549958
1.0384144
1.0221617
1.0062082
0.99053119
0.97511165
0.9599328
0.94497915
0.9302361
0.91568989
0.90132748
0.88713662
0.87310577
0.85922419
0.84548181
0.83186929
0.81837793
0.80499964
0.7917269
0.7785527
0.76547054
0.75247435
0.7395585
0.72671771
0.7139471
0.70124208
0.68859841
0.67601212
0.6634795
0.65099711
0.63856172
0.62617034
0.61382018
0.60150865
0.58923334
0.57699203
0.56478264
0.55260325
0.54045209
0.52832751
0.51622795
0.50415198
0.49209822
0.48006541
0.46805231
0.45605775
0.44408061
0.4321198
0.42017426
0.40824295
0.39632487
0.38441902
0.37252443
0.36064017
0.3487653
0.33689896
0.3250403
0.31318851
0.30134283
0.28950254
0.27766696
0.26583546
0.25400746
0.24218245
0.23035996
0.21853961
0.20672107
0.19490405
0.18308828
0.17127354
0.1594596
0.14764628
0.13583342
0.12402092
0.1122087
0.10039673
0.088584964
0.076773388
0.064961955
0.05315062
0.041339332
0.029528065
0.0177168
0.0059055674
1.4973829
1.4712078
1.432811
1.3916781
1.3525928
1.316002
1.2817043
1.2499868
1.2211307
1.1950296
1.1712756
1.1493856
1.1289358
1.1095949
1.0911147
1.0733137
1.0560619
1.0392663
1.0228602
1.0067951
0.99103469
0.975551
0.96032114
0.94532564
0.93054738
0.9159709
0.90158208
0.88736791
0.87331636
0.85941629
0.84565736
0.83202997
0.81852523
0.80513486
0.79185121
0.77866714
0.76557602
0.75257169
0.73964841
0.72680085
0.71402405
0.70131336
0.68866448
0.6760734
0.66353637
0.65104991
0.63861076
0.6262159
0.61386252
0.60154799
0.58926989
0.57702597
0.56481414
0.55263247
0.54047916
0.52835254
0.51625106
0.50417327
0.4921178
0.48008335
0.4680687
0.45607268
0.44409414
0.43213202
0.42018523
0.40825276
0.39633359
0.38442673
0.3725312
0.36064607
0.34877042
0.33690336
0.32504406
0.31319169
0.30134551
0.28950477
0.27766881
0.26583698
0.2540087
0.24218346
0.23036077
0.21854026
0.20672158
0.19490443
0.18308857
0.17127375
0.15945976
0.1476464
0.13583353
0.12402101
0.11220877
0.10039678
0.088584991
0.076773393
0.064961945
0.053150604
0.041339313
0.029528045
0.017716775
0.0059055476
1.4679744
1.4524763
1.4256064
1.3916825
1.3558815
1.3209302
1.2876282
1.2562752
1.2271445
1.200353
1.1757655
1.1530733
1.1319214
1.1119927
1.0930345
1.0748548
1.0573091
1.040288
1.0237094
1.0075114
0.99164744
0.97608169
0.96078572
0.94573605
0.93091262
0.9162979
0.90187626
0.88763363
0.87355718
0.85963517
0.84585678
0.83221208
0.81869185
0.80528759
0.79199143
0.77879608
0.76569475
0.75268116
0.73974947
0.72689425
0.71411044
0.70139335
0.68873862
0.67614216
0.66360019
0.65110919
0.63866586
0.62626716
0.61391024
0.60159245
0.58931134
0.57706463
0.56485023
0.55266617
0.54051064
0.52838195
0.51627854
0.50419894
0.49214176
0.48010569
0.46808951
0.45609202
0.44411209
0.43214862
0.42020055
0.40826684
0.39634648
0.38443847
0.37254186
0.36065569
0.34877906
0.33691107
0.32505089
0.31319771
0.30135077
0.28950935
0.27767276
0.26584037
0.25401159
0.2421859
0.23036282
0.21854197
0.20672298
0.19490558
0.18308949
0.17127448
0.15946034
0.14764687
0.13583391
0.12402132
0.11220902
0.10039696
0.088585125
0.076773483
0.064961999
0.053150633
0.041339326
0.029528047
0.017716766
0.0059055407
1.4552428
1.4432895
1.4210551
1.3907675
1.3569064
1.3229108
1.2902132
1.2592076
1.2301103
1.2030984
1.1781713
1.1551218
1.1336402
1.1134226
1.094219
1.0758368
1.0581279
1.0409774
1.0242966
1.0080175
0.99208847
0.97646991
0.96113039
0.94604424
0.93118978
0.91654831
0.90210334
0.88784015
0.87374546
0.85980716
0.84601418
0.83235634
0.81882427
0.8054093
0.79210343
0.77889926
0.76578991
0.75276901
0.73983065
0.72696933
0.71417994
0.70145774
0.68879831
0.67619755
0.66365162
0.65115698
0.63871031
0.62630854
0.61394878
0.60162839
0.58934488
0.57709598
0.56487954
0.5526936
0.54053633
0.52840604
0.51630114
0.50422013
0.49216164
0.48012434
0.46810699
0.45610838
0.44412738
0.43216288
0.42021381
0.40827914
0.39635784
0.38444893
0.37255144
0.36066442
0.34878696
0.33691819
0.32505726
0.31320338
0.30135578
0.28951374
0.27767659
0.26584368
0.25401444
0.24218833
0.23036488
0.21854369
0.20672441
0.19490675
0.18309045
0.17127526
0.15946097
0.14764738
0.13583431
0.12402164
0.11220927
0.10039716
0.088585271
0.076773587
0.064962068
0.053150678
0.041339353
0.029528062
0.01771677
0.0059055435
1.4552428
1.4432895
1.4210551
1.3907675
1.3569064
1.3229108
1.2902132
1.2592076
1.2301103
1.2030984
1.1781713
1.1551218
1.1336402
1.1134226
1.094219
1.0758368
1.0581279
1.0409774
1.0242966
1.0080175
0.99208847
0.97646991
0.96113039
0.94604424
0.93118978
0.91654831
0.90210334
0.88784015
0.87374546
0.85980716
0.84601418
0.83235634
0.81882427
0.8054093
0.79210343
0.77889925
0.7657899
0.75276901
0.73983065
0.72696933
0.71417994
0.70145774
0.68879831
0.67619755
0.66365162
0.65115698
0.63871031
0.62630854
0.61394878
0.60162839
0.58934489
0.57709598
0.56487954
0.55269361
0.54053634
0.52840605
0.51630114
0.50422014
0.49216164
0.48012434
0.46810698
0.45610838
0.44412737
0.43216287
0.42021381
0.40827913
0.39635784
0.38444893
0.37255143
0.36066441
0.34878696
0.33691818
0.32505725
0.31320337
0.30135577
0.28951374
0.27767659
0.26584368
0.25401444
0.24218833
0.23036488
0.21854369
0.20672441
0.19490675
0.18309044
0.17127526
0.15946097
0.14764738
0.13583432
0.12402164
0.11220928
0.10039716
0.088585269
0.076773583
0.064962066
0.053150677
0.041339353
0.029528062
0.01771677
0.0059055423
1.4679744
1.4524763
1.4256064
1.3916825
1.3558815
1.3209302
1.2876282
1.2562752
1.2271445
1.200353
1.1757655
1.1530733
1.1319214
1.1119927
1.0930345
1.0748548
1.0573091
1.040288
1.0237094
1.0075114
0.99164743
0.97608168
0.96078572
0.94573605
0.93091262
0.9162979
0.90187627
0.88763364
0.87355719
0.85963517
0.84585678
0.83221207
0.81869184
0.80528758
0.79199143
0.77879607
0.76569475
0.75268116
0.73974948
0.72689426
0.71411045
0.70139336
0.68873862
0.67614216
0.66360019
0.65110919
0.63866587
0.62626717
0.61391024
0.60159246
0.58931135
0.57706465
0.56485025
0.55266618
0.54051065
0.52838197
0.51627855
0.50419895
0.49214176
0.48010569
0.4680895
0.45609201
0.44411208
0.43214861
0.42020054
0.40826683
0.39634647
0.38443847
0.37254186
0.36065568
0.34877904
0.33691105
0.32505087
0.31319769
0.30135075
0.28950934
0.27767275
0.26584037
0.25401159
0.2421859
0.23036282
0.21854195
0.20672296
0.19490556
0.18308948
0.17127448
0.15946035
0.14764689
0.13583392
0.12402133
0.11220902
0.10039696
0.088585119
0.076773474
0.064961991
0.053150627
0.041339324
0.029528047
0.017716766
0.0059055388
1.4973829
1.4712078
1.432811
1.3916781
1.3525928
1.316002
1.2817043
1.2499868
1.2211307
1.1950296
1.1712756
1.1493856
1.1289358
1.1095949
1.0911147
1.0733137
1.0560619
1.0392663
1.0228602
1.0067951
0.99103469
0.975551
0.96032113
0.94532564
0.93054738
0.9159709
0.90158208
0.88736791
0.87331636
0.85941629
0.84565736
0.83202996
0.81852522
0.80513485
0.7918512
0.77866713
0.76557601
0.75257169
0.73964842
0.72680087
0.71402406
0.70131337
0.68866449
0.67607341
0.66353638
0.65104991
0.63861076
0.62621591
0.61386253
0.601548
0.58926991
0.57702599
0.56481416
0.55263249
0.54047918
0.52835256
0.51625108
0.50417328
0.4921178
0.48008335
0.4680687
0.45607267
0.44409413
0.432132
0.42018522
0.40825276
0.39633359
0.38442672
0.3725312
0.36064606
0.3487704
0.33690334
0.32504402
0.31319166
0.30134548
0.28950476
0.27766881
0.26583699
0.25400871
0.24218346
0.23036076
0.21854024
0.20672155
0.19490441
0.18308855
0.17127375
0.15945977
0.14764643
0.13583355
0.12402103
0.11220878
0.10039677
0.088584979
0.076773379
0.064961933
0.053150595
0.04133931
0.029528046
0.017716775
0.0059055467
1.5582041
1.5032751
1.4423226
1.3907549
1.3474848
1.3085165
1.2729303
1.2411576
1.2131967
1.1884189
1.166017
1.1453156
1.125834
1.107246
1.0893324
1.0719476
1.0549958
1.0384144
1.0221617
1.0062082
0.99053118
0.97511164
0.9599328
0.94497914
0.9302361
0.91568989
0.90132749
0.88713662
0.87310578
0.85922419
0.84548181
0.83186928
0.81837792
0.80499963
0.79172689
0.77855269
0.76547054
0.75247436
0.73955851
0.72671773
0.71394711
0.7012421
0.68859843
0.67601213
0.66347951
0.65099711
0.63856172
0.62617035
0.61382019
0.60150867
0.58923336
0.57699205
0.56478266
0.55260328
0.54045212
0.52832753
0.51622796
0.50415198
0.49209823
0.48006541
0.4680523
0.45605774
0.4440806
0.43211979
0.42017425
0.40824295
0.39632487
0.38441902
0.37252443
0.36064015
0.34876528
0.33689892
0.32504026
0.31318848
0.30134281
0.28950254
0.27766697
0.26583547
0.25400747
0.24218244
0.23035994
0.21853958
0.20672104
0.19490403
0.18308827
0.17127355
0.15945962
0.14764631
0.13583345
0.12402094
0.11220871
0.10039672
0.088584952
0.076773375
0.064961944
0.053150611
0.041339327
0.029528064
0.017716799
0.0059055667
1.6754238
1.5543459
1.4583655
1.3947094
1.3461998
1.3037278
1.2661926
1.2340208
1.2066204
1.1827829
1.1613885
1.1416247
1.1229476
1.105008
1.0875927
1.0705785
1.0538977
1.0375135
1.0214053
1.0055594
0.98996436
0.97460926
0.95948257
0.94457234
0.92986634
0.91535236
0.9010184
0.88685289
0.87284483
0.85898382
0.84526009
0.83166453
0.81818863
0.80482445
0.79156463
0.77840228
0.765331
0.75234482
0.73943818
0.72660589
0.71384313
0.70114538
0.68850844
0.67592839
0.66340157
0.65092458
0.63849422
0.62610755
0.6137618
0.60145441
0.58918299
0.57694534
0.56473941
0.55256331
0.54041526
0.52829362
0.51619687
0.50412356
0.49207233
0.48004192
0.46803109
0.45603869
0.44406357
0.43210466
0.42016089
0.40823122
0.39631465
0.38441017
0.37251682
0.36063367
0.34875979
0.33689433
0.32503645
0.31318535
0.30134026
0.28950048
0.27766532
0.26583416
0.25400643
0.24218163
0.23035932
0.21853912
0.20672071
0.1949038
0.18308812
0.17127344
0.15945954
0.14764624
0.13583339
0.12402089
0.11220868
0.10039671
0.088584963
0.076773395
0.064961964
0.053150623
0.041339332
0.029528066
0.017716809
0.0059055806
)
;

boundaryField
{
    top
    {
        type            zeroGradient;
    }
    inlet
    {
        type            zeroGradient;
    }
    outlet
    {
        type            fixedValue;
        value           uniform 0;
    }
    bottom
    {
        type            zeroGradient;
    }
    back
    {
        type            empty;
    }
    front
    {
        type            empty;
    }
}


// ************************************************************************* //
