/*--------------------------------*- C++ -*----------------------------------*\
| =========                 |                                                 |
| \\      /  F ield         | OpenFOAM: The Open Source CFD Toolbox           |
|  \\    /   O peration     | Version:  v1812                                 |
|   \\  /    A nd           | Web:      www.OpenFOAM.com                      |
|    \\/     M anipulation  |                                                 |
\*---------------------------------------------------------------------------*/
FoamFile
{
    version     2.0;
    format      ascii;
    class       surfaceScalarField;
    location    "11.95";
    object      phi;
}
// * * * * * * * * * * * * * * * * * * * * * * * * * * * * * * * * * * * * * //

dimensions      [0 3 -1 0 0 0 0];
oriented        oriented;


internalField   nonuniform List<scalar> 
1890
(
0.0093061957
0.00069380425
0.0082843931
0.0010218027
0.0073298986
0.00095449448
0.0064869553
0.00084294333
0.0057695845
0.00071737079
0.00518986
0.00057972443
0.004738168
0.00045169205
0.00439519
0.00034297801
0.0041390268
0.00025616318
0.0039491069
0.00018991983
0.003807888
0.00014121897
0.0037013782
0.00010650979
0.003619058
8.2320216e-05
0.0035534117
6.5646243e-05
0.0034992845
5.4127257e-05
0.0034532444
4.6040054e-05
0.0034130501
4.0194298e-05
0.0033772574
3.5792759e-05
0.0033449386
3.2318757e-05
0.0033154893
2.9449273e-05
0.0032885008
2.6988566e-05
0.0032636805
2.4820291e-05
0.003240805
2.2875476e-05
0.0032196926
2.1112421e-05
0.0032001879
1.9504666e-05
0.0031821539
1.8034032e-05
0.0031654672
1.6686742e-05
0.0031500158
1.5451375e-05
0.0031356979
1.4317864e-05
0.0031224208
1.3277063e-05
0.0031101003
1.2320576e-05
0.0030986596
1.1440703e-05
0.0030880291
1.063042e-05
0.0030781458
9.88336e-06
0.003068952
9.1937776e-06
0.0030603955
8.5565129e-06
0.0030524286
7.9669416e-06
0.0030450076
7.4209256e-06
0.0030380929
6.9147599e-06
0.0030316477
6.4451248e-06
0.0030256387
6.009039e-06
0.0030200349
5.603819e-06
0.0030148078
5.227042e-06
0.0030099313
4.8765139e-06
0.0030053811
4.5502426e-06
0.0030011347
4.2464136e-06
0.0029971713
3.9633712e-06
0.0029934717
3.6996012e-06
0.002990018
3.4537163e-06
0.0029867935
3.2244438e-06
0.0029837829
3.0106132e-06
0.0029809718
2.8111461e-06
0.0029783467
2.6250467e-06
0.0029758953
2.4513925e-06
0.002973606
2.2893288e-06
0.002971468
2.1380615e-06
0.0029694711
1.9968533e-06
0.0029676061
1.86502e-06
0.0029658642
1.741927e-06
0.0029642372
1.6269865e-06
0.0029627175
1.5196543e-06
0.0029612981
1.4194255e-06
0.0029599722
1.3258303e-06
0.0029587338
1.2384286e-06
0.002957577
1.1568081e-06
0.0029564964
1.0805801e-06
0.0029554871
1.0093814e-06
0.0029545442
9.4287182e-07
0.0029536635
8.8073858e-07
0.0029528408
8.2269188e-07
0.0029520723
7.684689e-07
0.0029513544
7.1782277e-07
0.0029506839
6.7052788e-07
0.0029500575
6.2636158e-07
0.0029494724
5.8512161e-07
0.0029489259
5.4659846e-07
0.0029484153
5.1061513e-07
0.0029479383
4.7697863e-07
0.0029474927
4.4555407e-07
0.0029470766
4.1616856e-07
0.0029466878
3.887393e-07
0.0029463247
3.6309309e-07
0.0029459855
3.3919713e-07
0.0029456686
3.1683699e-07
0.0029453726
2.9603959e-07
0.0029450961
2.7650945e-07
0.0029448378
2.5838569e-07
0.0029445965
2.4125469e-07
0.0029443711
2.2545974e-07
0.0029441607
2.1039453e-07
0.0029439639
1.9670883e-07
0.0029437804
1.8346703e-07
0.0029436087
1.717317e-07
0.0029434486
1.6011072e-07
0.0029432985
1.5014517e-07
0.0029431584
1.4012339e-07
0.0029430266
1.3177046e-07
0.0029429022
1.2442092e-07
0.0029427835
1.1867122e-07
1.2423012e-07
0.010339525
0.00035427932
0.010570754
0.00079057335
0.010606301
0.00091894821
0.010547572
0.00090167136
0.010422317
0.00084262622
0.010244356
0.00075768557
0.010039421
0.00065662743
0.0098287427
0.00055365586
0.009625135
0.00045977084
0.0094353013
0.00037975355
0.0092624277
0.0003140926
0.0091075332
0.00026140427
0.0089701539
0.00021969949
0.0088489023
0.00018689787
0.0087419716
0.00016105802
0.0086474927
0.00014051894
0.008563694
0.00012399296
0.0084890108
0.00011047599
0.0084221097
9.9219859e-05
0.0083618775
8.9681393e-05
0.0083073954
8.1470662e-05
0.0082579079
7.4307847e-05
0.0082127929
6.7990505e-05
0.0081715353
6.2370005e-05
0.0081337049
5.7335032e-05
0.0080989388
5.2800199e-05
0.0080669272
4.8698275e-05
0.0080374036
4.4974953e-05
0.0080101361
4.158538e-05
0.0079849214
3.849183e-05
0.0079615798
3.5662137e-05
0.0079399519
3.3068598e-05
0.0079198951
3.0687168e-05
0.0079012816
2.8496858e-05
0.0078839962
2.6479261e-05
0.0078679345
2.461817e-05
0.0078530022
2.2899268e-05
0.0078391133
2.1309862e-05
0.0078261894
1.9838663e-05
0.0078141589
1.8475597e-05
0.0078029563
1.7211643e-05
0.0077925214
1.6038698e-05
0.007782799
1.4949459e-05
0.0077737381
1.393733e-05
0.0077652921
1.2996331e-05
0.0077574175
1.2121031e-05
0.0077500744
1.1306486e-05
0.0077432258
1.0548183e-05
0.0077368375
9.8419932e-06
0.0077308778
9.1841336e-06
0.0077253173
8.5711274e-06
0.0077201286
7.9997755e-06
0.0077152865
7.4671256e-06
0.0077107675
6.970454e-06
0.0077065496
6.5072427e-06
0.0077026125
6.0751645e-06
0.0076989373
5.6720685e-06
0.0076955064
5.295963e-06
0.0076923033
4.9450052e-06
0.0076893128
4.6174841e-06
0.0076865206
4.3118109e-06
0.0076839135
4.0265075e-06
0.0076814791
3.760194e-06
0.007679206
3.5115859e-06
0.0076770833
3.2794862e-06
0.0076751011
3.0627804e-06
0.0076732501
2.8604366e-06
0.0076715215
2.6714926e-06
0.0076699071
2.495062e-06
0.0076683995
2.3303137e-06
0.0076669915
2.1764822e-06
0.0076656764
2.0328397e-06
0.0076644482
1.8987152e-06
0.0076633012
1.7734576e-06
0.0076622298
1.6564856e-06
0.0076612292
1.547215e-06
0.0076602947
1.445164e-06
0.0076594219
1.3498099e-06
0.0076586066
1.2607794e-06
0.0076578452
1.1775834e-06
0.0076571339
1.0999566e-06
0.0076564696
1.0273854e-06
0.0076558491
9.5973484e-07
0.0076552695
8.9639449e-07
0.0076547282
8.3743769e-07
0.0076542227
7.8205934e-07
0.0076537504
7.3069159e-07
0.0076533094
6.8216412e-07
0.0076528974
6.375147e-07
0.0076525129
5.9487613e-07
0.0076521532
5.5630032e-07
0.0076518181
5.1863601e-07
0.0076515041
4.8568806e-07
0.0076512122
4.5204533e-07
0.0076509377
4.2461464e-07
0.0076506838
3.9405789e-07
0.0076504426
3.7295941e-07
0.0076502218
3.4517927e-07
0.0076500066
3.3388343e-07
3.0753598e-07
0.010188704
0.00016557515
0.010530487
0.000448791
0.010851453
0.00059798177
0.011124174
0.00062895024
0.011350581
0.00061621885
0.011524486
0.00058378053
0.01164633
0.00053478418
0.011724155
0.00047583048
0.011767999
0.00041592666
0.011786639
0.00036111402
0.011787114
0.00031361715
0.011775058
0.00027346029
0.011754861
0.00023989721
0.011729768
0.00021199032
0.011702053
0.00018877259
0.011673239
0.00016933385
0.011644339
0.00015289292
0.011616003
0.0001388118
0.011588629
0.00012659378
0.011562446
0.00011586445
0.011537572
0.00010634496
0.011514052
9.7827037e-05
0.011491889
9.01534e-05
0.011471056
8.3203393e-05
0.011451508
7.6882622e-05
0.011433193
7.1115549e-05
0.011416051
6.5840264e-05
0.011400021
6.1004874e-05
0.011385042
5.6565039e-05
0.011371051
5.2482322e-05
0.01135799
4.8723032e-05
0.011345801
4.5257412e-05
0.01133443
4.205903e-05
0.011323822
3.910431e-05
0.011313929
3.637215e-05
0.011304704
3.3843617e-05
0.011296101
3.150168e-05
0.01128808
2.9330985e-05
0.011280601
2.7317661e-05
0.011273628
2.5449144e-05
0.011267125
2.3714035e-05
0.011261062
2.2101964e-05
0.011255408
2.060349e-05
0.011250135
1.9209997e-05
0.011245218
1.7913613e-05
0.011240632
1.6707142e-05
0.011236354
1.5583985e-05
0.011232364
1.4538091e-05
0.011228643
1.3563892e-05
0.01122517
1.2656259e-05
0.011221931
1.1810456e-05
0.011218909
1.1022107e-05
0.011216089
1.0287162e-05
0.011213457
9.6018741e-06
0.011211002
8.9627813e-06
0.01120871
8.3666834e-06
0.011206572
7.8106225e-06
0.011204576
7.2918643e-06
0.011202713
6.8078715e-06
0.011200974
6.3562841e-06
0.011199351
5.9349014e-06
0.011197836
5.5416632e-06
0.011196421
5.1746473e-06
0.011195101
4.8320587e-06
0.011193868
4.5122371e-06
0.011192717
4.2136462e-06
0.011191643
3.9348728e-06
0.01119064
3.6746084e-06
0.011189703
3.4316415e-06
0.011188829
3.2048281e-06
0.011188012
2.9931015e-06
0.011187249
2.7954306e-06
0.011186537
2.6108665e-06
0.011185872
2.4384856e-06
0.011185251
2.2774824e-06
0.011184672
2.1270608e-06
0.01118413
1.9865843e-06
0.011183625
1.8553565e-06
0.011183152
1.7328914e-06
0.011182711
1.6185007e-06
0.0111823
1.5118263e-06
0.011181915
1.4120869e-06
0.011181556
1.3191194e-06
0.01118122
1.231982e-06
0.011180906
1.1508926e-06
0.011180614
1.0746045e-06
0.011180341
1.0039926e-06
0.011180086
9.3712286e-07
0.011179847
8.7596649e-07
0.011179625
8.1715814e-07
0.011179417
7.6462919e-07
0.011179223
7.1232989e-07
0.011179041
6.6788538e-07
0.011178872
6.2033643e-07
0.011178713
5.8420943e-07
0.011178567
5.3955801e-07
0.011178427
5.134059e-07
0.011178302
4.6965798e-07
0.01117818
4.563729e-07
4.1251441e-07
0.010097182
6.8393553e-05
0.010346961
0.00019901112
0.010662469
0.00028247387
0.010982753
0.00030866648
0.011290229
0.0003087434
0.011575251
0.00029875786
0.011829022
0.00028101344
0.012047865
0.00025698755
0.012233272
0.00023051983
0.01238924
0.00020514593
0.012520295
0.0001825624
0.012630755
0.00016299961
0.012724428
0.00014622493
0.012804515
0.00013190311
0.012873613
0.00011967423
0.012933772
0.00010917456
0.012986596
0.00010006902
0.013033332
9.2076335e-05
0.01307495
8.4975252e-05
0.013112216
7.8598643e-05
0.013145739
7.2822354e-05
0.013176012
6.7553992e-05
0.013203441
6.2723966e-05
0.013228366
5.8278911e-05
0.013251071
5.4176972e-05
0.013271802
5.0384392e-05
0.01329077
4.6873112e-05
0.013308155
4.3619133e-05
0.013324119
4.0601435e-05
0.0133388
3.7801284e-05
0.013352321
3.5201786e-05
0.013364791
3.2787583e-05
0.013376306
3.0544649e-05
0.01338695
2.8460133e-05
0.0133968
2.6522238e-05
0.013405923
2.4720119e-05
0.013414381
2.30438e-05
0.013422228
2.1484088e-05
0.013429513
2.0032509e-05
0.013436281
1.8681244e-05
0.013442572
1.7423072e-05
0.013448423
1.6251321e-05
0.013453866
1.5159827e-05
0.013458933
1.4142895e-05
0.013463652
1.3195266e-05
0.013468047
1.2312079e-05
0.013472142
1.1488839e-05
0.013475959
1.0721382e-05
0.013479517
1.0005845e-05
0.013482834
9.3386416e-06
0.013485928
8.7164314e-06
0.013488814
8.1361073e-06
0.013491507
7.5947791e-06
0.013494019
7.0897647e-06
0.013496363
6.6185787e-06
0.013498551
6.1789218e-06
0.013500593
5.7686677e-06
0.013502499
5.3858431e-06
0.013504278
5.0286083e-06
0.013505939
4.695247e-06
0.01350749
4.3841438e-06
0.013508938
4.0937802e-06
0.01351029
3.8227336e-06
0.013511552
3.5696821e-06
0.013512731
3.3334052e-06
0.013513832
3.1127823e-06
0.01351486
2.9067938e-06
0.01351582
2.7144904e-06
0.013516716
2.5349882e-06
0.013517554
2.3674468e-06
0.013518336
2.2110692e-06
0.013519066
2.0650719e-06
0.013519748
1.9287357e-06
0.013520386
1.801366e-06
0.013520981
1.6823701e-06
0.013521536
1.5711701e-06
0.013522056
1.4673283e-06
0.013522541
1.3703424e-06
0.013522994
1.27988e-06
0.013523417
1.1954137e-06
0.013523812
1.1166811e-06
0.013524181
1.0430459e-06
0.013524526
9.744086e-07
0.013524848
9.0999258e-07
0.013525149
8.5006824e-07
0.01352543
7.9358564e-07
0.013525692
7.4143788e-07
0.013525937
6.9192434e-07
0.013526166
6.469212e-07
0.01352638
6.0335725e-07
0.01352658
5.6490614e-07
0.013526766
5.2596425e-07
0.013526941
4.9363047e-07
0.013527103
4.5781635e-07
0.013527255
4.3186783e-07
0.013527397
3.9773886e-07
0.013527531
3.7942789e-07
0.013527655
3.4526538e-07
0.013527776
3.3622438e-07
3.0336287e-07
0.010068394
-4.4000261e-12
0.010267405
-9.0941633e-12
0.010549879
-1.3648739e-11
0.010858545
-1.7950414e-11
0.011167288
-1.7285203e-11
0.011466046
-8.7107825e-12
0.01174706
6.6638512e-12
0.012004047
2.3070728e-11
0.012234567
3.3653876e-11
0.012439713
3.4716776e-11
0.012622275
2.2905165e-11
0.012785275
1.195225e-12
0.0129315
-2.1196124e-11
0.013063403
-3.4983077e-11
0.013183077
-4.1165419e-11
0.013292252
-3.3801274e-11
0.013392321
-1.4111696e-11
0.013484397
9.155204e-12
0.013569373
2.8097506e-11
0.013647971
3.7947744e-11
0.013720793
3.7155617e-11
0.013788347
2.3649112e-11
0.013851071
1.9329584e-12
0.01390935
-1.9395619e-11
0.013963527
-3.1473975e-11
0.014013912
-3.6416821e-11
0.014060785
-2.8872154e-11
0.014104404
-1.0133952e-11
0.014145005
1.141047e-11
0.014182807
2.6921762e-11
0.014218008
3.5674397e-11
0.014250796
3.3595105e-11
0.014281341
1.9303837e-11
0.014309801
-1.1355028e-12
0.014336323
-2.1198524e-11
0.014361043
-3.146507e-11
0.014384087
-3.4430775e-11
0.014405571
-2.3660084e-11
0.014425604
-2.0408225e-12
0.014444285
2.1239377e-11
0.014461708
3.4881423e-11
0.014477959
4.0793823e-11
0.014493119
3.2242678e-11
0.014507262
1.1999223e-11
0.014520457
-1.2397105e-11
0.014532769
-2.9328529e-11
0.014544258
-3.780793e-11
0.01455498
-3.0985243e-11
0.014564985
-7.2219626e-12
0.014574324
2.1647671e-11
0.01458304
4.2848522e-11
0.014591176
5.5421775e-11
0.014598771
4.9498586e-11
0.014605861
2.6149132e-11
0.014612479
-6.1091614e-12
0.014618658
-3.4133423e-11
0.014624427
-4.8430806e-11
0.014629813
-4.3003576e-11
0.014634842
-1.1888651e-11
0.014639537
2.9838633e-11
0.014643921
6.2548677e-11
0.014648015
8.335775e-11
0.014651837
7.7269035e-11
0.014655407
4.382655e-11
0.01465874
-4.2328614e-12
0.014661853
-5.0079531e-11
0.01466476
-7.4782396e-11
0.014667475
-7.2301519e-11
0.01467001
-3.2182409e-11
0.014672377
2.5477362e-11
0.014674588
7.4619874e-11
0.014676653
1.0495308e-10
0.014678582
1.0227215e-10
0.014680383
6.0874424e-11
0.014682065
-2.3524728e-12
0.014683637
-6.1819645e-11
0.014685104
-9.5107804e-11
0.014686474
-9.2727381e-11
0.014687754
-4.9901916e-11
0.01468895
1.3420482e-11
0.014690066
6.935271e-11
0.014691109
9.7638515e-11
0.014692084
8.5620626e-11
0.014692994
2.8016793e-11
0.014693844
-4.7484089e-11
0.014694637
-1.0439486e-10
0.014695379
-1.3412721e-10
0.014696071
-1.1512785e-10
0.014696718
-5.8161984e-11
0.014697321
1.0864563e-11
0.014697886
5.7744414e-11
0.014698412
6.8852132e-11
0.014698906
3.2895768e-11
0.014699364
-4.0847088e-11
0.014699795
-1.0798557e-10
0.014700193
-1.5889091e-10
0.014700573
-1.7731012e-10
0.014700918
-1.4200012e-10
0.014701255
-1.0691095e-10
-5.7335733e-11
0.010068394
-6.8393562e-05
0.010267405
-0.00019901114
0.010549879
-0.00028247389
0.010858545
-0.00030866651
0.011167288
-0.00030874342
0.011466046
-0.00029875787
0.01174706
-0.00028101342
0.012004047
-0.00025698751
0.012234567
-0.00023051978
0.012439713
-0.00020514589
0.012622275
-0.00018256238
0.012785275
-0.00016299962
0.0129315
-0.00014622497
0.013063403
-0.00013190317
0.013183077
-0.00011967428
0.013292252
-0.00010917459
0.013392321
-0.00010006903
0.013484397
-9.2076311e-05
0.013569373
-8.4975205e-05
0.013647971
-7.8598589e-05
0.013720793
-7.282231e-05
0.013788347
-6.7553973e-05
0.013851071
-6.2723974e-05
0.01390935
-5.8278945e-05
0.013963527
-5.4177019e-05
0.014013912
-5.0384436e-05
0.014060785
-4.6873139e-05
0.014104404
-4.3619135e-05
0.014145005
-4.060141e-05
0.014182807
-3.7801242e-05
0.014218008
-3.5201739e-05
0.014250796
-3.2787547e-05
0.014281341
-3.0544635e-05
0.014309801
-2.8460145e-05
0.014336323
-2.6522273e-05
0.014361043
-2.4720163e-05
0.014384087
-2.3043836e-05
0.014405571
-2.1484103e-05
0.014425604
-2.0032497e-05
0.014444285
-1.8681207e-05
0.014461708
-1.742302e-05
0.014477959
-1.6251272e-05
0.014493119
-1.5159796e-05
0.014507262
-1.4142893e-05
0.014520457
-1.3195293e-05
0.014532769
-1.2312122e-05
0.014544258
-1.148888e-05
0.014554979
-1.0721402e-05
0.014564985
-1.0005834e-05
0.014574324
-9.3385973e-06
0.01458304
-8.7163637e-06
0.014591176
-8.1360369e-06
0.014598771
-7.5947281e-06
0.014605861
-7.0897486e-06
0.01461248
-6.6186019e-06
0.014618658
-6.1789713e-06
0.014624427
-5.7687191e-06
0.014629813
-5.385868e-06
0.014634842
-5.0285906e-06
0.014639537
-4.6951814e-06
0.014643921
-4.3840419e-06
0.014648015
-4.0936715e-06
0.014651837
-3.8226518e-06
0.014655407
-3.569651e-06
0.01465874
-3.3334341e-06
0.014661853
-3.1128572e-06
0.01466476
-2.9068792e-06
0.014667475
-2.7145457e-06
0.01467001
-2.5349881e-06
0.014672377
-2.3673815e-06
0.014674588
-2.2109488e-06
0.014676653
-2.0649355e-06
0.014678582
-1.9286282e-06
0.014680383
-1.8013209e-06
0.014682066
-1.6824031e-06
0.014683637
-1.5712643e-06
0.014685104
-1.4674423e-06
0.014686474
-1.3704296e-06
0.014687754
-1.279904e-06
0.01468895
-1.1953642e-06
0.014690066
-1.1165809e-06
0.014691109
-1.0429402e-06
0.014692084
-9.7434878e-07
0.014692994
-9.1000738e-07
0.014693844
-8.5016038e-07
0.014694637
-7.9373225e-07
0.014695379
-7.4159393e-07
0.014696071
-6.9204193e-07
0.014696718
-6.4697942e-07
0.014697321
-6.0335318e-07
0.014697886
-5.6486749e-07
0.014698412
-5.2593786e-07
0.014698906
-4.9366083e-07
0.014699364
-4.5792333e-07
0.014699796
-4.3205355e-07
0.014700193
-3.9797525e-07
0.014700573
-3.7968126e-07
0.014700918
-3.4548053e-07
0.014701255
-3.3641848e-07
-3.0350054e-07
0.010097182
-0.00016557516
0.010346961
-0.00044879102
0.010662469
-0.0005979818
0.010982753
-0.00062895026
0.011290229
-0.00061621885
0.011575251
-0.00058378051
0.011829022
-0.00053478416
0.012047865
-0.00047583047
0.012233272
-0.00041592666
0.01238924
-0.00036111403
0.012520295
-0.00031361717
0.012630755
-0.00027346031
0.012724428
-0.00023989722
0.012804515
-0.00021199032
0.012873613
-0.00018877258
0.012933772
-0.00016933384
0.012986596
-0.00015289291
0.013033332
-0.00013881179
0.01307495
-0.00012659378
0.013112216
-0.00011586446
0.013145739
-0.00010634497
0.013176012
-9.7827043e-05
0.013203441
-9.0153398e-05
0.013228366
-8.3203383e-05
0.013251071
-7.6882607e-05
0.013271802
-7.1115534e-05
0.01329077
-6.5840255e-05
0.013308155
-6.1004872e-05
0.013324119
-5.6565047e-05
0.0133388
-5.2482336e-05
0.013352321
-4.8723047e-05
0.013364791
-4.5257423e-05
0.013376306
-4.2059033e-05
0.01338695
-3.9104302e-05
0.0133968
-3.6372133e-05
0.013405923
-3.3843595e-05
0.013414381
-3.150166e-05
0.013422228
-2.9330973e-05
0.013429513
-2.7317662e-05
0.013436281
-2.5449157e-05
0.013442572
-2.3714055e-05
0.013448423
-2.2101984e-05
0.013453866
-2.06035e-05
0.013458933
-1.9209991e-05
0.013463652
-1.7913592e-05
0.013468047
-1.6707109e-05
0.013472142
-1.558395e-05
0.013475958
-1.4538063e-05
0.013479516
-1.3563881e-05
0.013482834
-1.2656266e-05
0.013485928
-1.1810479e-05
0.013488814
-1.1022133e-05
0.013491507
-1.0287178e-05
0.013494019
-9.6018706e-06
0.013496363
-8.9627522e-06
0.013498551
-8.3666331e-06
0.013500593
-7.8105637e-06
0.013502499
-7.2918126e-06
0.013504278
-6.8078432e-06
0.013505939
-6.3562862e-06
0.01350749
-5.9349294e-06
0.013508938
-5.541701e-06
0.01351029
-5.1746731e-06
0.013511552
-4.8320565e-06
0.013512731
-4.5121986e-06
0.013513832
-4.2135788e-06
0.01351486
-3.9347955e-06
0.01351582
-3.6745447e-06
0.013516716
-3.431614e-06
0.013517554
-3.2048446e-06
0.013518336
-2.993153e-06
0.013519067
-2.795492e-06
0.013519749
-2.6109073e-06
0.013520386
-2.4384842e-06
0.013520981
-2.2774317e-06
0.013521537
-2.1269758e-06
0.013522056
-1.9864958e-06
0.013522541
-1.8552991e-06
0.013522994
-1.7328921e-06
0.013523417
-1.6185614e-06
0.013523812
-1.511927e-06
0.013524181
-1.4121931e-06
0.013524526
-1.3191918e-06
0.013524848
-1.2319981e-06
0.013525149
-1.1508525e-06
0.01352543
-1.0745337e-06
0.013525692
-1.0039365e-06
0.013525937
-9.3711798e-07
0.013526166
-8.7603345e-07
0.01352638
-8.1728788e-07
0.01352658
-7.6479012e-07
0.013526767
-7.1248084e-07
0.013526941
-6.679969e-07
0.013527103
-6.2039742e-07
0.013527255
-5.8424179e-07
0.013527397
-5.3959486e-07
0.013527531
-5.1348399e-07
0.013527655
-4.6979811e-07
0.013527775
-4.5659874e-07
-4.127025e-07
0.010188704
-0.00035427933
0.010530487
-0.00079057337
0.010851453
-0.00091894822
0.011124174
-0.00090167136
0.011350581
-0.0008426262
0.011524486
-0.00075768556
0.01164633
-0.00065662743
0.011724155
-0.00055365588
0.011767999
-0.00045977087
0.011786639
-0.00037975358
0.011787114
-0.00031409261
0.011775058
-0.00026140426
0.011754861
-0.00021969946
0.011729768
-0.00018689783
0.011702053
-0.00016105799
0.011673239
-0.00014051893
0.011644339
-0.00012399297
0.011616003
-0.00011047602
0.011588629
-9.9219898e-05
0.011562446
-8.9681428e-05
0.011537572
-8.1470681e-05
0.011514052
-7.4307843e-05
0.011491889
-6.7990479e-05
0.011471056
-6.2369966e-05
0.011451508
-5.7334993e-05
0.011433193
-5.2800173e-05
0.011416051
-4.8698269e-05
0.011400021
-4.4974971e-05
0.011385042
-4.1585415e-05
0.011371051
-3.849187e-05
0.01135799
-3.5662169e-05
0.011345801
-3.3068611e-05
0.01133443
-3.0687156e-05
0.011323822
-2.8496825e-05
0.011313929
-2.6479217e-05
0.011304704
-2.461813e-05
0.011296101
-2.2899245e-05
0.01128808
-2.1309865e-05
0.011280601
-1.9838691e-05
0.011273628
-1.8475641e-05
0.011267125
-1.7211687e-05
0.011261062
-1.6038724e-05
0.011255408
-1.4949458e-05
0.011250135
-1.3937299e-05
0.011245218
-1.2996279e-05
0.011240632
-1.2120975e-05
0.011236354
-1.1306444e-05
0.011232364
-1.0548171e-05
0.011228643
-9.8420152e-06
0.011225171
-9.1841825e-06
0.011221931
-8.571185e-06
0.011218909
-7.9998175e-06
0.011216089
-7.4671336e-06
0.011213457
-6.9704193e-06
0.011211002
-6.5071731e-06
0.01120871
-6.0750815e-06
0.011206572
-5.6719997e-06
0.011204576
-5.2959337e-06
0.011202713
-4.9450261e-06
0.011200974
-4.6175483e-06
0.011199351
-4.3118934e-06
0.011197836
-4.0265725e-06
0.011196422
-3.7602124e-06
0.011195101
-3.511543e-06
0.011193868
-3.2793915e-06
0.011192717
-3.0626639e-06
0.011191643
-2.8603383e-06
0.01119064
-2.6714497e-06
0.011189703
-2.4950915e-06
0.011188829
-2.3304068e-06
0.011188012
-2.1766035e-06
0.01118725
-2.0329389e-06
0.011186538
-1.8987507e-06
0.011185873
-1.7734093e-06
0.011185251
-1.6563673e-06
0.011184672
-1.5470707e-06
0.01118413
-1.4450494e-06
0.011183625
-1.3497739e-06
0.011183153
-1.260839e-06
0.011182712
-1.1777181e-06
0.0111823
-1.1001161e-06
0.011181915
-1.0275077e-06
0.011181556
-9.5977447e-07
0.01118122
-8.9633835e-07
0.011180907
-8.3731286e-07
0.011180614
-7.8192393e-07
0.011180341
-7.306086e-07
0.011180086
-6.8217811e-07
0.011179847
-6.376299e-07
0.011179625
-5.9505764e-07
0.011179417
-5.5648846e-07
0.011179223
-5.1877227e-07
0.011179041
-4.8573933e-07
0.011178872
-4.5201772e-07
0.011178713
-4.2454957e-07
0.011178567
-3.9401221e-07
0.011178427
-3.7298628e-07
0.011178302
-3.452873e-07
0.01117818
-3.3407157e-07
-3.0770732e-07
0.010339525
-0.00069380426
0.010570754
-0.0010218027
0.010606301
-0.00095449448
0.010547572
-0.00084294332
0.010422317
-0.00071737079
0.010244356
-0.00057972444
0.010039421
-0.00045169207
0.0098287427
-0.00034297803
0.009625135
-0.0002561632
0.0094353013
-0.00018991984
0.0092624276
-0.00014121896
0.0091075332
-0.00010650978
0.0089701539
-8.2320198e-05
0.0088489023
-6.5646227e-05
0.0087419716
-5.4127248e-05
0.0086474927
-4.6040055e-05
0.008563694
-4.0194309e-05
0.0084890108
-3.5792777e-05
0.0084221097
-3.2318775e-05
0.0083618775
-2.9449287e-05
0.0083073954
-2.6988569e-05
0.0082579078
-2.4820283e-05
0.0082127928
-2.2875459e-05
0.0081715353
-2.1112401e-05
0.0081337049
-1.9504649e-05
0.0080989388
-1.8034024e-05
0.0080669273
-1.6686745e-05
0.0080374037
-1.5451388e-05
0.0080101361
-1.4317883e-05
0.0079849213
-1.3277081e-05
0.0079615798
-1.2320587e-05
0.0079399518
-1.1440703e-05
0.0079198951
-1.063041e-05
0.0079012816
-9.8833416e-06
0.0078839962
-9.1937576e-06
0.0078679346
-8.5564978e-06
0.0078530023
-7.9669369e-06
0.0078391133
-7.4209328e-06
0.0078261894
-6.9147767e-06
0.0078141589
-6.4451453e-06
0.0078029562
-6.0090557e-06
0.0077925213
-5.6038255e-06
0.0077827989
-5.2270354e-06
0.0077737381
-4.8764959e-06
0.0077652921
-4.5502189e-06
0.0077574175
-4.2463923e-06
0.0077500744
-3.9633598e-06
0.0077432259
-3.699604e-06
0.0077368376
-3.4537326e-06
0.0077308778
-3.2244678e-06
0.0077253173
-3.0106356e-06
0.0077201286
-2.8111577e-06
0.0077152865
-2.6250415e-06
0.0077107675
-2.4513707e-06
0.0077065496
-2.2892968e-06
0.0077026126
-2.1380299e-06
0.0076989374
-1.9968335e-06
0.0076955065
-1.8650194e-06
0.0076923034
-1.7419463e-06
0.0076893129
-1.6270191e-06
0.0076865206
-1.5196875e-06
0.0076839135
-1.4194459e-06
0.0076814791
-1.3258279e-06
0.007679206
-1.2384017e-06
0.0076770834
-1.1567642e-06
0.0076751013
-1.0805336e-06
0.0076732503
-1.009349e-06
0.0076715217
-9.4286586e-07
0.0076699074
-8.8076244e-07
0.0076683997
-8.22738e-07
0.0076669916
-7.6852029e-07
0.0076656765
-7.1785928e-07
0.0076644483
-6.7053423e-07
0.0076633012
-6.2633336e-07
0.0076622299
-5.8506853e-07
0.0076612294
-5.4653995e-07
0.007660295
-5.1057445e-07
0.0076594222
-4.7697268e-07
0.0076586069
-4.4558657e-07
0.0076578454
-4.1622798e-07
0.007657134
-3.8880308e-07
0.0076564697
-3.631366e-07
0.0076558491
-3.3920374e-07
0.0076552696
-3.1680418e-07
0.0076547283
-2.9598169e-07
0.0076542228
-2.7645076e-07
0.0076537506
-2.5835294e-07
0.0076533097
-2.4126403e-07
0.0076528975
-2.2551149e-07
0.0076525129
-2.1047143e-07
0.0076521531
-1.9678434e-07
0.0076518178
-1.8351501e-07
0.0076515038
-1.7174032e-07
0.0076512119
-1.6008195e-07
0.0076509375
-1.5010212e-07
0.0076506836
-1.4008656e-07
0.0076504424
-1.3176822e-07
0.0076502215
-1.2445831e-07
0.0076500062
-1.1874654e-07
-1.2431785e-07
0.0093061957
0.0082843931
0.0073298986
0.0064869553
0.0057695845
0.0051898601
0.004738168
0.0043951899
0.0041390267
0.0039491069
0.0038078879
0.0037013782
0.003619058
0.0035534118
0.0034992845
0.0034532445
0.0034130501
0.0033772574
0.0033449386
0.0033154893
0.0032885007
0.0032636804
0.003240805
0.0032196926
0.0032001879
0.0031821539
0.0031654672
0.0031500158
0.0031356979
0.0031224208
0.0031101002
0.0030986595
0.0030880291
0.0030781458
0.003068952
0.0030603955
0.0030524286
0.0030450077
0.0030380929
0.0030316477
0.0030256387
0.0030200348
0.0030148078
0.0030099313
0.0030053811
0.0030011347
0.0029971714
0.0029934718
0.002990018
0.0029867935
0.0029837829
0.0029809717
0.0029783467
0.0029758953
0.0029736061
0.002971468
0.0029694712
0.0029676062
0.0029658642
0.0029642372
0.0029627175
0.002961298
0.0029599722
0.0029587338
0.0029575771
0.0029564966
0.0029554872
0.0029545443
0.0029536636
0.0029528408
0.0029520723
0.0029513544
0.0029506839
0.0029500576
0.0029494725
0.002948926
0.0029484154
0.0029479384
0.0029474928
0.0029470766
0.0029466878
0.0029463246
0.0029459854
0.0029456687
0.0029453727
0.0029450962
0.0029448379
0.0029445966
0.0029443711
0.0029441606
0.0029439638
0.0029437803
0.0029436085
0.0029434485
0.0029432984
0.0029431583
0.0029430265
0.0029429021
0.0029427833
)
;

boundaryField
{
    top
    {
        type            calculated;
        value           uniform 0;
    }
    inlet
    {
        type            calculated;
        value           nonuniform List<scalar> 10(-0.01 -0.01 -0.01 -0.01 -0.01 -0.01 -0.01 -0.01 -0.01 -0.01);
    }
    outlet
    {
        type            calculated;
        value           nonuniform List<scalar> 10(0.0029426593 0.0076498233 0.011178075 0.013527885 0.014701558 0.014701558 0.013527885 0.011178075 0.0076498228 0.002942659);
    }
    bottom
    {
        type            calculated;
        value           uniform 0;
    }
    back
    {
        type            empty;
        value           nonuniform 0();
    }
    front
    {
        type            empty;
        value           nonuniform 0();
    }
}


// ************************************************************************* //
