/*--------------------------------*- C++ -*----------------------------------*\
| =========                 |                                                 |
| \\      /  F ield         | OpenFOAM: The Open Source CFD Toolbox           |
|  \\    /   O peration     | Version:  v1812                                 |
|   \\  /    A nd           | Web:      www.OpenFOAM.com                      |
|    \\/     M anipulation  |                                                 |
\*---------------------------------------------------------------------------*/
FoamFile
{
    version     2.0;
    format      ascii;
    class       volVectorField;
    location    "14.65";
    object      U;
}
// * * * * * * * * * * * * * * * * * * * * * * * * * * * * * * * * * * * * * //

dimensions      [0 1 -1 0 0 0 0];


internalField   nonuniform List<vector> 
1000
(
(0.91890839 0.035821912 0)
(0.86271384 0.062195638 0)
(0.7870597 0.062510089 0)
(0.69536033 0.054550394 0)
(0.61089745 0.04453165 0)
(0.54411592 0.034015971 0)
(0.49343012 0.02418754 0)
(0.45479414 0.016144231 0)
(0.42544582 0.010265786 0)
(0.40347313 0.0063041455 0)
(0.38715766 0.0037976295 0)
(0.37496219 0.0023103384 0)
(0.36566192 0.0014930151 0)
(0.35836272 0.0010851184 0)
(0.35244267 0.00090607206 0)
(0.34748201 0.00084105112 0)
(0.34320348 0.00082372357 0)
(0.33942726 0.00081931003 0)
(0.33603793 0.00081185216 0)
(0.33296114 0.00079580176 0)
(0.33014778 0.00077081245 0)
(0.32756384 0.00073871039 0)
(0.3251842 0.00070188988 0)
(0.32298902 0.00066256569 0)
(0.32096172 0.00062249905 0)
(0.31908785 0.0005829564 0)
(0.31735449 0.00054477063 0)
(0.31574996 0.00050843336 0)
(0.3142636 0.00047419152 0)
(0.31288574 0.00044212496 0)
(0.31160755 0.0004122104 0)
(0.31042101 0.00038436274 0)
(0.30931883 0.00035846591 0)
(0.30829438 0.00033439078 0)
(0.30734165 0.00031200641 0)
(0.30645515 0.00029118664 0)
(0.30562991 0.0002718128 0)
(0.30486136 0.00025377537 0)
(0.30414535 0.00023697361 0)
(0.30347807 0.00022131483 0)
(0.30285601 0.00020671519 0)
(0.30227596 0.00019309702 0)
(0.30173496 0.00018039022 0)
(0.30123029 0.00016853003 0)
(0.30075942 0.00015745726 0)
(0.30032002 0.00014711807 0)
(0.29990993 0.00013746206 0)
(0.29952715 0.0001284438 0)
(0.29916983 0.00012002035 0)
(0.29883624 0.00011215136 0)
(0.29852478 0.00010480028 0)
(0.29823397 9.7931462e-05 0)
(0.29796241 9.1512751e-05 0)
(0.29770882 8.5513924e-05 0)
(0.29747201 7.9906538e-05 0)
(0.29725084 7.4665801e-05 0)
(0.29704429 6.9767236e-05 0)
(0.29685137 6.5190421e-05 0)
(0.2966712 6.091446e-05 0)
(0.29650291 5.6919739e-05 0)
(0.29634572 5.3187932e-05 0)
(0.2961989 4.9700494e-05 0)
(0.29606176 4.6440932e-05 0)
(0.29593366 4.339328e-05 0)
(0.295814 4.0543049e-05 0)
(0.29570223 3.7878212e-05 0)
(0.29559783 3.5387084e-05 0)
(0.29550031 3.3059695e-05 0)
(0.29540922 3.0887494e-05 0)
(0.29532414 2.8859578e-05 0)
(0.29524465 2.6967125e-05 0)
(0.2951704 2.5199443e-05 0)
(0.29510104 2.3546235e-05 0)
(0.29503624 2.1998953e-05 0)
(0.29497572 2.0550075e-05 0)
(0.29491918 1.9193796e-05 0)
(0.29486637 1.792678e-05 0)
(0.29481705 1.6743552e-05 0)
(0.29477098 1.5642498e-05 0)
(0.29472794 1.4616394e-05 0)
(0.29468773 1.3661179e-05 0)
(0.29465016 1.2767849e-05 0)
(0.29461507 1.1931792e-05 0)
(0.29458229 1.1145397e-05 0)
(0.29455166 1.0407857e-05 0)
(0.29452307 9.7126402e-06 0)
(0.29449635 9.0715153e-06 0)
(0.29447143 8.4693476e-06 0)
(0.2944481 7.9178249e-06 0)
(0.29442634 7.3971876e-06 0)
(0.29440599 6.9269694e-06 0)
(0.294387 6.4738728e-06 0)
(0.2943692 6.062805e-06 0)
(0.29435258 5.6505502e-06 0)
(0.29433714 5.2883279e-06 0)
(0.29432249 4.9674146e-06 0)
(0.29430919 4.6869294e-06 0)
(0.2942957 4.5384336e-06 0)
(0.29428502 4.40552e-06 0)
(0.29426874 5.0577263e-06 0)
(1.0016583 0.05381943 0)
(1.0359761 0.10128443 0)
(1.0597199 0.11073663 0)
(1.0628947 0.10592201 0)
(1.0515569 0.096228725 0)
(1.0340529 0.083934059 0)
(1.0142795 0.070327062 0)
(0.99360703 0.056981334 0)
(0.97292577 0.04510748 0)
(0.9531074 0.035236751 0)
(0.93479539 0.027401651 0)
(0.91829012 0.021387228 0)
(0.90362379 0.016884499 0)
(0.89068067 0.013569709 0)
(0.87928174 0.011147748 0)
(0.86923241 0.0093736581 0)
(0.86034423 0.0080569274 0)
(0.85244667 0.0070571268 0)
(0.84539241 0.0062752383 0)
(0.83905793 0.005643829 0)
(0.83334126 0.0051180921 0)
(0.82815884 0.0046686735 0)
(0.82344212 0.0042764182 0)
(0.81913467 0.003928739 0)
(0.81518961 0.003617203 0)
(0.81156765 0.003335969 0)
(0.80823544 0.0030808024 0)
(0.8051644 0.0028484674 0)
(0.80232979 0.0026363683 0)
(0.79970999 0.0024423382 0)
(0.79728597 0.0022645194 0)
(0.79504086 0.0021012912 0)
(0.79295963 0.001951227 0)
(0.7910288 0.0018130645 0)
(0.78923627 0.0016856843 0)
(0.7875711 0.0015680921 0)
(0.78602338 0.0014594043 0)
(0.78458411 0.0013588337 0)
(0.78324511 0.0012656785 0)
(0.78199889 0.0011793105 0)
(0.78083861 0.0010991671 0)
(0.77975799 0.0010247424 0)
(0.77875128 0.00095558074 0)
(0.77781318 0.00089127043 0)
(0.77693881 0.00083143852 0)
(0.77612368 0.00077574696 0)
(0.77536362 0.00072388769 0)
(0.7746548 0.00067557989 0)
(0.77399367 0.00063056635 0)
(0.77337693 0.0005886103 0)
(0.77280153 0.00054949439 0)
(0.77226464 0.00051301742 0)
(0.77176363 0.00047899354 0)
(0.77129607 0.00044725145 0)
(0.77085967 0.00041763208 0)
(0.77045234 0.00038999 0)
(0.77007211 0.00036419009 0)
(0.76971717 0.00034010903 0)
(0.7693858 0.00031763161 0)
(0.76907644 0.00029665 0)
(0.7687876 0.00027706357 0)
(0.76851792 0.00025877747 0)
(0.7682661 0.00024170277 0)
(0.76803096 0.00022575684 0)
(0.76781139 0.0002108627 0)
(0.76760635 0.00019695032 0)
(0.76741488 0.00018395536 0)
(0.76723607 0.00017181871 0)
(0.76706909 0.00016048655 0)
(0.76691315 0.0001499064 0)
(0.76676752 0.00014002926 0)
(0.7666315 0.00013080635 0)
(0.76650447 0.00012219171 0)
(0.76638583 0.00011414152 0)
(0.76627501 0.00010661765 0)
(0.76617152 9.9583938e-05 0)
(0.76607485 9.301289e-05 0)
(0.76598457 8.687392e-05 0)
(0.76590025 8.1146769e-05 0)
(0.7658215 7.580034e-05 0)
(0.76574794 7.0816112e-05 0)
(0.76567925 6.6157452e-05 0)
(0.76561505 6.1810389e-05 0)
(0.76555513 5.7735336e-05 0)
(0.76549911 5.3933375e-05 0)
(0.76544684 5.0357353e-05 0)
(0.76539795 4.7038423e-05 0)
(0.76535238 4.3919519e-05 0)
(0.7653097 4.1050693e-05 0)
(0.76526996 3.8320757e-05 0)
(0.76523272 3.5843281e-05 0)
(0.76519804 3.3464097e-05 0)
(0.76516557 3.1334308e-05 0)
(0.76513517 2.9193096e-05 0)
(0.76510713 2.7366929e-05 0)
(0.76507997 2.5517427e-05 0)
(0.76505662 2.4069078e-05 0)
(0.76503056 2.2551915e-05 0)
(0.76501444 2.1594606e-05 0)
(0.76498346 2.099265e-05 0)
(1.0014244 0.026824854 0)
(1.0291272 0.06279135 0)
(1.0654292 0.077736549 0)
(1.098962 0.080597196 0)
(1.1253149 0.078285167 0)
(1.145053 0.073153897 0)
(1.1594858 0.066111277 0)
(1.1694287 0.058162063 0)
(1.1755354 0.050296754 0)
(1.1785738 0.043150708 0)
(1.1793571 0.036972826 0)
(1.1785949 0.031771633 0)
(1.1768304 0.02745184 0)
(1.1744518 0.023886768 0)
(1.1717287 0.02094762 0)
(1.1688444 0.01851578 0)
(1.1659195 0.016488085 0)
(1.1630317 0.014779503 0)
(1.1602295 0.013322985 0)
(1.1575415 0.012067133 0)
(1.1549828 0.010973001 0)
(1.1525601 0.010011062 0)
(1.1502747 0.0091587473 0)
(1.1481246 0.0083986044 0)
(1.1461059 0.0077169503 0)
(1.1442134 0.0071028875 0)
(1.1424414 0.0065475911 0)
(1.1407838 0.0060437947 0)
(1.1392344 0.0055854256 0)
(1.1377869 0.0051673445 0)
(1.1364353 0.0047851574 0)
(1.1351738 0.004435077 0)
(1.1339968 0.0041138177 0)
(1.1328987 0.0038185138 0)
(1.1318746 0.0035466536 0)
(1.1309195 0.0032960271 0)
(1.1300289 0.0030646826 0)
(1.1291985 0.0028508897 0)
(1.1284242 0.0026531093 0)
(1.1277022 0.0024699678 0)
(1.1270291 0.0023002353 0)
(1.1264014 0.0021428073 0)
(1.1258161 0.001996689 0)
(1.1252702 0.0018609819 0)
(1.1247612 0.0017348722 0)
(1.1242865 0.0016176215 0)
(1.1238437 0.0015085576 0)
(1.1234307 0.0014070675 0)
(1.1230455 0.0013125905 0)
(1.1226861 0.0012246129 0)
(1.1223509 0.0011426631 0)
(1.1220381 0.0010663072 0)
(1.1217462 0.00099514549 0)
(1.1214739 0.00092880939 0)
(1.1212198 0.00086695902 0)
(1.1209827 0.00080928079 0)
(1.1207614 0.00075548543 0)
(1.1205548 0.00070530539 0)
(1.1203621 0.00065849238 0)
(1.1201821 0.00061481565 0)
(1.1200142 0.00057406098 0)
(1.1198574 0.00053602854 0)
(1.1197111 0.00050053253 0)
(1.1195745 0.00046739999 0)
(1.1194469 0.00043647093 0)
(1.1193278 0.00040759667 0)
(1.1192167 0.00038064008 0)
(1.1191129 0.00035547371 0)
(1.119016 0.00033197935 0)
(1.1189255 0.00031004527 0)
(1.118841 0.00028956792 0)
(1.1187621 0.0002704474 0)
(1.1186884 0.00025259291 0)
(1.1186197 0.00023591662 0)
(1.1185554 0.00022034214 0)
(1.1184955 0.00020579327 0)
(1.1184394 0.000192208 0)
(1.1183871 0.00017951852 0)
(1.1183383 0.00016767582 0)
(1.1182926 0.00015661287 0)
(1.11825 0.00014629221 0)
(1.1182102 0.00013664116 0)
(1.118173 0.00012764177 0)
(1.1181384 0.00011921069 0)
(1.1181059 0.00011136075 0)
(1.1180758 0.00010398714 0)
(1.1180473 9.7155338e-05 0)
(1.1180211 9.0705491e-05 0)
(1.1179963 8.478555e-05 0)
(1.1179734 7.9127229e-05 0)
(1.1179516 7.4025655e-05 0)
(1.1179318 6.9014933e-05 0)
(1.1179128 6.4660916e-05 0)
(1.1178955 6.0142881e-05 0)
(1.117879 5.6564407e-05 0)
(1.1178635 5.2427662e-05 0)
(1.1178501 4.9744666e-05 0)
(1.1178349 4.5806398e-05 0)
(1.1178261 4.4316999e-05 0)
(1.1178083 4.0573207e-05 0)
(1.0007347 0.011814721 0)
(1.0178472 0.030860924 0)
(1.0462163 0.041434438 0)
(1.0799018 0.045193566 0)
(1.1132664 0.045502347 0)
(1.143782 0.044080305 0)
(1.1708941 0.04143998 0)
(1.1945687 0.037973677 0)
(1.2148582 0.034195728 0)
(1.2319652 0.030536886 0)
(1.2462683 0.027222045 0)
(1.2582339 0.02431392 0)
(1.2683135 0.021797888 0)
(1.2768875 0.019633659 0)
(1.2842554 0.017773826 0)
(1.2906479 0.016169652 0)
(1.296243 0.01477559 0)
(1.3011791 0.013552298 0)
(1.3055645 0.012467864 0)
(1.3094838 0.011497466 0)
(1.3130042 0.010622162 0)
(1.3161792 0.0098275134 0)
(1.3190526 0.009102411 0)
(1.3216607 0.0084381766 0)
(1.3240343 0.0078279037 0)
(1.3261995 0.0072659744 0)
(1.3281786 0.0067477089 0)
(1.3299913 0.0062691169 0)
(1.3316544 0.0058267277 0)
(1.3331829 0.0054174735 0)
(1.3345896 0.0050386125 0)
(1.3358862 0.0046876738 0)
(1.3370827 0.0043624195 0)
(1.3381883 0.0040608145 0)
(1.3392108 0.0037810041 0)
(1.3401576 0.0035212949 0)
(1.3410349 0.0032801385 0)
(1.3418486 0.0030561177 0)
(1.3426038 0.0028479344 0)
(1.3433051 0.0026543979 0)
(1.3439569 0.0024744162 0)
(1.3445629 0.0023069863 0)
(1.3451267 0.0021511859 0)
(1.3456513 0.0020061667 0)
(1.3461398 0.0018711478 0)
(1.3465947 0.0017454094 0)
(1.3470185 0.0016282875 0)
(1.3474135 0.0015191691 0)
(1.3477816 0.0014174877 0)
(1.3481249 0.0013227195 0)
(1.3484449 0.0012343799 0)
(1.3487435 0.0011520198 0)
(1.349022 0.0010752234 0)
(1.3492818 0.0010036051 0)
(1.3495242 0.00093680783 0)
(1.3497505 0.00087450072 0)
(1.3499616 0.00081637641 0)
(1.3501587 0.00076214933 0)
(1.3503427 0.00071155354 0)
(1.3505145 0.00066434167 0)
(1.3506748 0.00062028381 0)
(1.3508245 0.00057916581 0)
(1.3509643 0.00054078884 0)
(1.3510948 0.00050496759 0)
(1.3512167 0.0004715304 0)
(1.3513305 0.00044031736 0)
(1.3514368 0.00041118014 0)
(1.3515361 0.00038397962 0)
(1.3516288 0.00035858696 0)
(1.3517153 0.00033487997 0)
(1.3517962 0.00031274595 0)
(1.3518717 0.00029207748 0)
(1.3519422 0.00027277815 0)
(1.3520081 0.00025475424 0)
(1.3520696 0.00023792542 0)
(1.3521271 0.00022220849 0)
(1.3521807 0.00020753668 0)
(1.3522309 0.00019383271 0)
(1.3522777 0.00018104349 0)
(1.3523215 0.00016909181 0)
(1.3523623 0.00015794087 0)
(1.3524005 0.00014750843 0)
(1.352436 0.00013778587 0)
(1.3524694 0.00012867236 0)
(1.3525004 0.00012020255 0)
(1.3525297 0.00011224077 0)
(1.3525565 0.00010488467 0)
(1.3525822 9.7901351e-05 0)
(1.3526054 9.1532858e-05 0)
(1.3526282 8.5399953e-05 0)
(1.3526479 7.9931708e-05 0)
(1.3526683 7.4425531e-05 0)
(1.3526849 6.9801524e-05 0)
(1.3527037 6.4830466e-05 0)
(1.352717 6.1123327e-05 0)
(1.3527348 5.6441466e-05 0)
(1.3527446 5.3740525e-05 0)
(1.352763 4.9141796e-05 0)
(1.3527684 4.7702467e-05 0)
(1.3527888 4.2956008e-05 0)
(1.0005903 0.0034629152 0)
(1.0136865 0.009366018 0)
(1.0370283 0.013046804 0)
(1.0674202 0.014563259 0)
(1.1000315 0.014854523 0)
(1.1316428 0.014564989 0)
(1.1610745 0.013888337 0)
(1.1880674 0.012919244 0)
(1.2125205 0.011806505 0)
(1.2343939 0.010696426 0)
(1.2538077 0.0096727416 0)
(1.2710339 0.0087628216 0)
(1.286401 0.0079659732 0)
(1.3002112 0.0072722144 0)
(1.3127102 0.0066688087 0)
(1.3240903 0.0061419257 0)
(1.3345036 0.0056780727 0)
(1.3440716 0.0052653215 0)
(1.3528927 0.0048939356 0)
(1.3610463 0.0045563962 0)
(1.3685975 0.00424707 0)
(1.3756004 0.0039617759 0)
(1.3821012 0.0036973976 0)
(1.3881402 0.0034515825 0)
(1.3937533 0.0032225186 0)
(1.3989728 0.00300877 0)
(1.403828 0.0028091581 0)
(1.4083456 0.0026226793 0)
(1.4125503 0.0024484498 0)
(1.4164646 0.0022856708 0)
(1.4201094 0.0021336075 0)
(1.423504 0.0019915761 0)
(1.426666 0.0018589361 0)
(1.4296121 0.0017350856 0)
(1.4323573 0.0016194584 0)
(1.4349159 0.0015115215 0)
(1.4373007 0.0014107734 0)
(1.4395241 0.0013167427 0)
(1.441597 0.001228987 0)
(1.4435301 0.0011470914 0)
(1.4453328 0.001070667 0)
(1.4470143 0.00099935007 0)
(1.4485827 0.00093280024 0)
(1.4500459 0.00087069931 0)
(1.451411 0.00081274999 0)
(1.4526846 0.00075867456 0)
(1.4538731 0.00070821355 0)
(1.4549822 0.0006611245 0)
(1.4560172 0.00061718125 0)
(1.4569831 0.00057617272 0)
(1.4578847 0.00053790148 0)
(1.4587262 0.00050218378 0)
(1.4595117 0.00046884808 0)
(1.460245 0.00043773474 0)
(1.4609295 0.00040869515 0)
(1.4615685 0.00038159098 0)
(1.4621651 0.0003562929 0)
(1.4627221 0.00033267954 0)
(1.4632422 0.0003106378 0)
(1.4637278 0.00029006198 0)
(1.4641812 0.00027085333 0)
(1.4646045 0.00025292049 0)
(1.4649998 0.00023617831 0)
(1.4653689 0.0002205476 0)
(1.4657136 0.0002059546 0)
(1.4660355 0.00019233068 0)
(1.4663361 0.0001796118 0)
(1.4666168 0.00016773727 0)
(1.466879 0.00015665074 0)
(1.4671238 0.00014629866 0)
(1.4673524 0.00013663144 0)
(1.467566 0.00012760245 0)
(1.4677654 0.00011917047 0)
(1.4679516 0.00011129546 0)
(1.4681255 0.00010394324 0)
(1.468288 9.7077944e-05 0)
(1.4684397 9.0670764e-05 0)
(1.4685815 8.4686247e-05 0)
(1.4687138 7.9101097e-05 0)
(1.4688375 7.3879044e-05 0)
(1.4689529 6.9005752e-05 0)
(1.4690608 6.444414e-05 0)
(1.4691614 6.0194687e-05 0)
(1.4692556 5.6209058e-05 0)
(1.4693432 5.251261e-05 0)
(1.4694258 4.9035821e-05 0)
(1.469502 4.5827294e-05 0)
(1.4695741 4.2770212e-05 0)
(1.4696402 4.0000966e-05 0)
(1.469704 3.7313356e-05 0)
(1.4697607 3.4924428e-05 0)
(1.469817 3.2490815e-05 0)
(1.4698653 3.0495609e-05 0)
(1.4699169 2.8308683e-05 0)
(1.4699561 2.6725228e-05 0)
(1.4700042 2.463796e-05 0)
(1.4700339 2.3489881e-05 0)
(1.4700834 2.1420227e-05 0)
(1.4701002 2.0809914e-05 0)
(1.4701556 1.8648897e-05 0)
(1.0005903 -0.0034629162 0)
(1.0136865 -0.0093660206 0)
(1.0370283 -0.013046807 0)
(1.0674202 -0.014563262 0)
(1.1000315 -0.014854525 0)
(1.1316428 -0.014564991 0)
(1.1610745 -0.013888338 0)
(1.1880674 -0.012919246 0)
(1.2125205 -0.011806507 0)
(1.2343939 -0.010696428 0)
(1.2538077 -0.009672743 0)
(1.2710339 -0.0087628227 0)
(1.286401 -0.0079659739 0)
(1.3002112 -0.0072722146 0)
(1.3127102 -0.0066688084 0)
(1.3240903 -0.0061419251 0)
(1.3345036 -0.0056780721 0)
(1.3440716 -0.0052653208 0)
(1.3528927 -0.0048939348 0)
(1.3610463 -0.0045563954 0)
(1.3685975 -0.0042470694 0)
(1.3756004 -0.0039617756 0)
(1.3821012 -0.0036973975 0)
(1.3881402 -0.0034515826 0)
(1.3937533 -0.0032225187 0)
(1.3989728 -0.0030087699 0)
(1.403828 -0.002809158 0)
(1.4083456 -0.0026226791 0)
(1.4125503 -0.0024484493 0)
(1.4164646 -0.0022856701 0)
(1.4201094 -0.0021336068 0)
(1.423504 -0.0019915756 0)
(1.4266661 -0.001858936 0)
(1.4296121 -0.0017350861 0)
(1.4323573 -0.0016194591 0)
(1.4349159 -0.001511522 0)
(1.4373007 -0.0014107733 0)
(1.4395241 -0.001316742 0)
(1.441597 -0.0012289858 0)
(1.4435301 -0.0011470898 0)
(1.4453328 -0.0010706656 0)
(1.4470143 -0.00099934935 0)
(1.4485827 -0.00093280034 0)
(1.4500459 -0.00087070024 0)
(1.451411 -0.00081275147 0)
(1.4526846 -0.00075867607 0)
(1.4538731 -0.00070821453 0)
(1.4549822 -0.00066112462 0)
(1.4560172 -0.00061718015 0)
(1.4569831 -0.00057617026 0)
(1.4578847 -0.00053789848 0)
(1.4587262 -0.00050218125 0)
(1.4595117 -0.00046884702 0)
(1.460245 -0.00043773565 0)
(1.4609295 -0.00040869765 0)
(1.4615685 -0.00038159375 0)
(1.4621651 -0.00035629429 0)
(1.4627221 -0.00033267891 0)
(1.4632422 -0.00031063497 0)
(1.4637278 -0.00029005755 0)
(1.4641812 -0.00027084892 0)
(1.4646045 -0.00025291762 0)
(1.4649998 -0.00023617782 0)
(1.4653689 -0.00022054942 0)
(1.4657136 -0.00020595819 0)
(1.4660355 -0.0001923345 0)
(1.4663361 -0.00017961381 0)
(1.4666168 -0.00016773627 0)
(1.466879 -0.00015664648 0)
(1.4671238 -0.0001462921 0)
(1.4673524 -0.00013662517 0)
(1.467566 -0.00012759898 0)
(1.4677654 -0.00011917124 0)
(1.4679516 -0.00011130013 0)
(1.4681256 -0.00010394999 0)
(1.468288 -9.7083447e-05 0)
(1.4684397 -9.0671747e-05 0)
(1.4685815 -8.4681754e-05 0)
(1.4687138 -7.9092487e-05 0)
(1.4688375 -7.3870091e-05 0)
(1.4689529 -6.900055e-05 0)
(1.4690608 -6.4444521e-05 0)
(1.4691614 -6.0200471e-05 0)
(1.4692556 -5.6218596e-05 0)
(1.4693432 -5.2518424e-05 0)
(1.4694258 -4.903454e-05 0)
(1.469502 -4.5822685e-05 0)
(1.4695741 -4.276284e-05 0)
(1.4696402 -3.9983424e-05 0)
(1.469704 -3.729634e-05 0)
(1.4697606 -3.4932459e-05 0)
(1.469817 -3.2517755e-05 0)
(1.4698653 -3.0511197e-05 0)
(1.4699169 -2.8299684e-05 0)
(1.469956 -2.6707612e-05 0)
(1.4700042 -2.4628492e-05 0)
(1.4700341 -2.3491418e-05 0)
(1.4700834 -2.1428786e-05 0)
(1.4701001 -2.0823384e-05 0)
(1.4701556 -1.8663351e-05 0)
(1.0007347 -0.011814722 0)
(1.0178472 -0.030860927 0)
(1.0462163 -0.041434442 0)
(1.0799018 -0.04519357 0)
(1.1132664 -0.045502351 0)
(1.143782 -0.044080308 0)
(1.1708941 -0.041439982 0)
(1.1945687 -0.037973678 0)
(1.2148582 -0.03419573 0)
(1.2319652 -0.030536887 0)
(1.2462683 -0.027222046 0)
(1.2582339 -0.024313921 0)
(1.2683135 -0.021797888 0)
(1.2768875 -0.01963366 0)
(1.2842554 -0.017773826 0)
(1.2906479 -0.016169652 0)
(1.296243 -0.01477559 0)
(1.3011791 -0.013552297 0)
(1.3055645 -0.012467863 0)
(1.3094838 -0.011497465 0)
(1.3130042 -0.010622161 0)
(1.3161792 -0.0098275128 0)
(1.3190526 -0.0091024107 0)
(1.3216607 -0.0084381766 0)
(1.3240343 -0.0078279039 0)
(1.3261995 -0.0072659746 0)
(1.3281786 -0.0067477089 0)
(1.3299913 -0.0062691168 0)
(1.3316544 -0.0058267272 0)
(1.3331829 -0.0054174729 0)
(1.3345896 -0.0050386119 0)
(1.3358862 -0.0046876734 0)
(1.3370827 -0.0043624194 0)
(1.3381882 -0.0040608147 0)
(1.3392108 -0.0037810046 0)
(1.3401576 -0.0035212953 0)
(1.3410349 -0.0032801387 0)
(1.3418486 -0.0030561175 0)
(1.3426038 -0.0028479336 0)
(1.3433051 -0.0026543969 0)
(1.3439569 -0.0024744153 0)
(1.3445629 -0.0023069855 0)
(1.3451267 -0.0021511856 0)
(1.3456513 -0.0020061671 0)
(1.3461398 -0.0018711487 0)
(1.3465947 -0.0017454104 0)
(1.3470185 -0.0016282883 0)
(1.3474135 -0.0015191692 0)
(1.3477816 -0.0014174869 0)
(1.3481249 -0.001322718 0)
(1.3484449 -0.0012343781 0)
(1.3487435 -0.0011520182 0)
(1.349022 -0.0010752226 0)
(1.3492818 -0.0010036054 0)
(1.3495242 -0.00093680901 0)
(1.3497505 -0.00087450212 0)
(1.3499616 -0.0008163774 0)
(1.3501587 -0.0007621492 0)
(1.3503427 -0.0007115521 0)
(1.3505145 -0.00066433919 0)
(1.3506748 -0.00062028094 0)
(1.3508245 -0.00057916347 0)
(1.3509643 -0.00054078774 0)
(1.3510948 -0.00050496817 0)
(1.3512167 -0.00047153236 0)
(1.3513305 -0.00044031978 0)
(1.3514368 -0.00041118184 0)
(1.3515361 -0.00038397962 0)
(1.3516288 -0.00035858495 0)
(1.3517153 -0.00033487651 0)
(1.3517962 -0.00031274237 0)
(1.3518717 -0.00029207522 0)
(1.3519422 -0.00027277805 0)
(1.3520081 -0.00025475651 0)
(1.3520696 -0.0002379287 0)
(1.3521271 -0.00022221123 0)
(1.3521807 -0.00020753756 0)
(1.3522309 -0.00019383103 0)
(1.3522777 -0.00018103986 0)
(1.3523215 -0.00016908752 0)
(1.3523623 -0.00015793771 0)
(1.3524005 -0.00014750769 0)
(1.352436 -0.00013778771 0)
(1.3524694 -0.00012867546 0)
(1.3525004 -0.00012020604 0)
(1.3525297 -0.00011224229 0)
(1.3525565 -0.00010488216 0)
(1.3525822 -9.7894899e-05 0)
(1.3526054 -9.1527532e-05 0)
(1.3526282 -8.5396746e-05 0)
(1.3526479 -7.993054e-05 0)
(1.3526683 -7.4429135e-05 0)
(1.352685 -6.9804578e-05 0)
(1.3527037 -6.4829122e-05 0)
(1.352717 -6.1122384e-05 0)
(1.3527348 -5.6444579e-05 0)
(1.3527447 -5.3744693e-05 0)
(1.3527629 -4.9143757e-05 0)
(1.3527683 -4.7706277e-05 0)
(1.3527888 -4.2961176e-05 0)
(1.0014244 -0.026824855 0)
(1.0291272 -0.062791352 0)
(1.0654292 -0.077736552 0)
(1.098962 -0.0805972 0)
(1.1253149 -0.07828517 0)
(1.145053 -0.073153899 0)
(1.1594858 -0.066111278 0)
(1.1694287 -0.058162063 0)
(1.1755354 -0.050296754 0)
(1.1785738 -0.043150708 0)
(1.1793571 -0.036972826 0)
(1.1785949 -0.031771633 0)
(1.1768304 -0.02745184 0)
(1.1744518 -0.023886768 0)
(1.1717287 -0.02094762 0)
(1.1688444 -0.01851578 0)
(1.1659195 -0.016488084 0)
(1.1630317 -0.014779502 0)
(1.1602295 -0.013322985 0)
(1.1575415 -0.012067132 0)
(1.1549828 -0.010973 0)
(1.1525601 -0.010011062 0)
(1.1502747 -0.009158747 0)
(1.1481246 -0.0083986044 0)
(1.1461059 -0.0077169506 0)
(1.1442134 -0.007102888 0)
(1.1424414 -0.0065475914 0)
(1.1407838 -0.0060437947 0)
(1.1392344 -0.0055854254 0)
(1.1377869 -0.0051673442 0)
(1.1364353 -0.0047851569 0)
(1.1351738 -0.0044350764 0)
(1.1339968 -0.0041138173 0)
(1.1328987 -0.0038185135 0)
(1.1318746 -0.0035466535 0)
(1.1309195 -0.0032960274 0)
(1.1300289 -0.0030646831 0)
(1.1291985 -0.0028508902 0)
(1.1284242 -0.0026531096 0)
(1.1277022 -0.0024699677 0)
(1.1270291 -0.0023002348 0)
(1.1264014 -0.0021428065 0)
(1.1258161 -0.0019966882 0)
(1.1252702 -0.0018609814 0)
(1.1247612 -0.0017348722 0)
(1.1242865 -0.001617622 0)
(1.1238437 -0.0015085583 0)
(1.1234307 -0.0014070681 0)
(1.1230455 -0.0013125908 0)
(1.1226861 -0.001224613 0)
(1.1223509 -0.0011426629 0)
(1.1220381 -0.0010663066 0)
(1.1217462 -0.00099514453 0)
(1.1214739 -0.00092880827 0)
(1.1212198 -0.00086695808 0)
(1.1209827 -0.0008092806 0)
(1.1207614 -0.00075548625 0)
(1.1205548 -0.00070530659 0)
(1.1203621 -0.00065849331 0)
(1.1201821 -0.00061481609 0)
(1.1200142 -0.00057406045 0)
(1.1198574 -0.00053602697 0)
(1.1197111 -0.00050053048 0)
(1.1195745 -0.00046739833 0)
(1.1194469 -0.00043646998 0)
(1.1193278 -0.00040759664 0)
(1.1192167 -0.00038064114 0)
(1.1191129 -0.00035547531 0)
(1.119016 -0.00033198092 0)
(1.1189255 -0.0003100465 0)
(1.118841 -0.00028956799 0)
(1.1187621 -0.00027044614 0)
(1.1186884 -0.00025259073 0)
(1.1186197 -0.00023591417 0)
(1.1185554 -0.00022034018 0)
(1.1184955 -0.00020579266 0)
(1.1184394 -0.00019220955 0)
(1.1183871 -0.00017952168 0)
(1.1183383 -0.00016767926 0)
(1.1182926 -0.00015661479 0)
(1.11825 -0.0001462914 0)
(1.1182103 -0.000136638 0)
(1.118173 -0.00012763695 0)
(1.1181384 -0.00011920553 0)
(1.1181059 -0.00011135956 0)
(1.1180758 -0.00010398991 0)
(1.1180473 -9.7156992e-05 0)
(1.1180211 -9.0705623e-05 0)
(1.1179963 -8.4791677e-05 0)
(1.1179734 -7.9137001e-05 0)
(1.1179516 -7.4018727e-05 0)
(1.1179318 -6.8989015e-05 0)
(1.1179128 -6.4647096e-05 0)
(1.1178955 -6.0158086e-05 0)
(1.117879 -5.6585329e-05 0)
(1.1178635 -5.2432628e-05 0)
(1.1178501 -4.973856e-05 0)
(1.1178349 -4.5802102e-05 0)
(1.1178261 -4.4314444e-05 0)
(1.1178083 -4.056993e-05 0)
(1.0016583 -0.05381943 0)
(1.0359761 -0.10128444 0)
(1.0597199 -0.11073663 0)
(1.0628947 -0.10592202 0)
(1.0515569 -0.096228728 0)
(1.0340529 -0.083934061 0)
(1.0142795 -0.070327063 0)
(0.99360703 -0.056981334 0)
(0.97292577 -0.045107479 0)
(0.9531074 -0.03523675 0)
(0.93479538 -0.02740165 0)
(0.91829012 -0.021387228 0)
(0.90362379 -0.0168845 0)
(0.89068067 -0.01356971 0)
(0.87928174 -0.011147749 0)
(0.86923242 -0.0093736586 0)
(0.86034423 -0.0080569273 0)
(0.85244667 -0.0070571265 0)
(0.84539241 -0.0062752377 0)
(0.83905793 -0.0056438284 0)
(0.83334126 -0.0051180912 0)
(0.82815884 -0.0046686727 0)
(0.82344212 -0.0042764177 0)
(0.81913467 -0.0039287388 0)
(0.81518962 -0.0036172032 0)
(0.81156765 -0.0033359697 0)
(0.80823544 -0.003080803 0)
(0.8051644 -0.0028484679 0)
(0.80232979 -0.0026363686 0)
(0.79970999 -0.0024423383 0)
(0.79728597 -0.002264519 0)
(0.79504086 -0.0021012905 0)
(0.79295963 -0.001951226 0)
(0.7910288 -0.0018130636 0)
(0.78923627 -0.0016856837 0)
(0.7875711 -0.0015680924 0)
(0.78602338 -0.0014594052 0)
(0.78458412 -0.0013588351 0)
(0.78324511 -0.0012656797 0)
(0.78199889 -0.0011793113 0)
(0.78083861 -0.0010991671 0)
(0.77975799 -0.0010247415 0)
(0.77875128 -0.0009555793 0)
(0.77781318 -0.00089126885 0)
(0.77693881 -0.00083143747 0)
(0.77612368 -0.00077574671 0)
(0.77536362 -0.00072388837 0)
(0.77465481 -0.00067558126 0)
(0.77399368 -0.00063056804 0)
(0.77337694 -0.0005886121 0)
(0.77280153 -0.00054949545 0)
(0.77226464 -0.0005130172 0)
(0.77176363 -0.000478992 0)
(0.77129606 -0.00044724862 0)
(0.77085967 -0.00041762925 0)
(0.77045234 -0.00038998827 0)
(0.77007212 -0.0003641907 0)
(0.76971717 -0.00034011154 0)
(0.76938581 -0.00031763506 0)
(0.76907644 -0.00029665333 0)
(0.7687876 -0.00027706533 0)
(0.76851791 -0.00025877674 0)
(0.7682661 -0.00024169983 0)
(0.76803096 -0.00022575245 0)
(0.76781139 -0.00021085847 0)
(0.76760635 -0.00019694775 0)
(0.76741489 -0.00018395573 0)
(0.76723608 -0.00017182239 0)
(0.7670691 -0.00016049223 0)
(0.76691316 -0.00014991225 0)
(0.76676752 -0.00014003272 0)
(0.7666315 -0.00013080552 0)
(0.76650446 -0.00012218683 0)
(0.76638582 -0.00011413404 0)
(0.76627501 -0.0001066106 0)
(0.76617152 -9.9580606e-05 0)
(0.76607486 -9.3014991e-05 0)
(0.76598459 -8.6881507e-05 0)
(0.76590026 -8.1156633e-05 0)
(0.76582151 -7.5808086e-05 0)
(0.76574794 -7.081804e-05 0)
(0.76567924 -6.6152288e-05 0)
(0.76561505 -6.1800012e-05 0)
(0.76555513 -5.7723061e-05 0)
(0.76549911 -5.3926498e-05 0)
(0.76544685 -5.0358903e-05 0)
(0.76539796 -4.7044239e-05 0)
(0.76535239 -4.3929436e-05 0)
(0.76530971 -4.1067993e-05 0)
(0.76526996 -3.8331575e-05 0)
(0.7652327 -3.5827999e-05 0)
(0.76519805 -3.3433009e-05 0)
(0.7651656 -3.131881e-05 0)
(0.76513518 -2.9205272e-05 0)
(0.76510711 -2.738757e-05 0)
(0.76507997 -2.5525938e-05 0)
(0.76505664 -2.4064412e-05 0)
(0.76503057 -2.2544935e-05 0)
(0.76501445 -2.158648e-05 0)
(0.76498346 -2.0984511e-05 0)
(0.91890839 -0.035821913 0)
(0.86271384 -0.062195638 0)
(0.7870597 -0.06251009 0)
(0.69536033 -0.054550395 0)
(0.61089745 -0.044531651 0)
(0.54411592 -0.034015972 0)
(0.49343012 -0.02418754 0)
(0.45479413 -0.01614423 0)
(0.42544582 -0.010265785 0)
(0.40347313 -0.006304145 0)
(0.38715766 -0.0037976294 0)
(0.3749622 -0.0023103384 0)
(0.36566192 -0.0014930154 0)
(0.35836272 -0.0010851186 0)
(0.35244268 -0.00090607226 0)
(0.34748201 -0.00084105128 0)
(0.34320348 -0.00082372354 0)
(0.33942726 -0.00081931 0)
(0.33603793 -0.00081185196 0)
(0.33296114 -0.00079580154 0)
(0.33014778 -0.00077081197 0)
(0.32756384 -0.00073870996 0)
(0.3251842 -0.00070188955 0)
(0.32298902 -0.0006625656 0)
(0.32096172 -0.00062249924 0)
(0.31908785 -0.00058295695 0)
(0.31735449 -0.00054477108 0)
(0.31574996 -0.00050843387 0)
(0.3142636 -0.00047419168 0)
(0.31288574 -0.00044212498 0)
(0.31160755 -0.00041220997 0)
(0.31042101 -0.0003843621 0)
(0.30931883 -0.0003584652 0)
(0.30829438 -0.00033439019 0)
(0.30734165 -0.00031200625 0)
(0.30645515 -0.00029118702 0)
(0.30562991 -0.00027181367 0)
(0.30486136 -0.00025377637 0)
(0.30414535 -0.00023697433 0)
(0.30347807 -0.00022131525 0)
(0.30285601 -0.00020671486 0)
(0.30227596 -0.00019309626 0)
(0.30173496 -0.0001803891 0)
(0.30123029 -0.00016852893 0)
(0.30075942 -0.00015745668 0)
(0.30032002 -0.00014711803 0)
(0.29990993 -0.00013746288 0)
(0.29952715 -0.00012844507 0)
(0.29916983 -0.0001200217 0)
(0.29883624 -0.00011215266 0)
(0.29852478 -0.0001048006 0)
(0.29823397 -9.7930854e-05 0)
(0.29796241 -9.1511194e-05 0)
(0.29770882 -8.551172e-05 0)
(0.29747201 -7.9904874e-05 0)
(0.29725084 -7.46651e-05 0)
(0.29704429 -6.9768443e-05 0)
(0.29685138 -6.5192669e-05 0)
(0.2966712 -6.0917073e-05 0)
(0.29650291 -5.6921927e-05 0)
(0.29634572 -5.3188523e-05 0)
(0.2961989 -4.9699414e-05 0)
(0.29606176 -4.6438313e-05 0)
(0.29593366 -4.3389918e-05 0)
(0.29581401 -4.0540361e-05 0)
(0.29570224 -3.787709e-05 0)
(0.29559784 -3.5388429e-05 0)
(0.29550032 -3.3063449e-05 0)
(0.29540923 -3.0891848e-05 0)
(0.29532413 -2.8863374e-05 0)
(0.29524464 -2.6968304e-05 0)
(0.29517039 -2.5197225e-05 0)
(0.29510103 -2.3541626e-05 0)
(0.29503624 -2.1993407e-05 0)
(0.29497572 -2.0546114e-05 0)
(0.29491919 -1.9193358e-05 0)
(0.29486639 -1.7930038e-05 0)
(0.29481706 -1.6750046e-05 0)
(0.29477097 -1.5649052e-05 0)
(0.29472793 -1.4620281e-05 0)
(0.29468772 -1.3660457e-05 0)
(0.29465016 -1.2762322e-05 0)
(0.29461507 -1.1924101e-05 0)
(0.2945823 -1.113777e-05 0)
(0.29455168 -1.0405526e-05 0)
(0.29452309 -9.7159927e-06 0)
(0.29449637 -9.0766993e-06 0)
(0.29447142 -8.4785876e-06 0)
(0.29444808 -7.9297821e-06 0)
(0.29442632 -7.3959827e-06 0)
(0.29440599 -6.9099079e-06 0)
(0.29438701 -6.4607931e-06 0)
(0.2943692 -6.0635367e-06 0)
(0.29435259 -5.6570656e-06 0)
(0.29433715 -5.2937946e-06 0)
(0.2943225 -4.9714374e-06 0)
(0.29430919 -4.6853557e-06 0)
(0.29429569 -4.5320495e-06 0)
(0.29428502 -4.4001147e-06 0)
(0.29426875 -5.0541873e-06 0)
)
;

boundaryField
{
    top
    {
        type            fixedValue;
        value           uniform (0 0 0);
    }
    inlet
    {
        type            fixedValue;
        value           uniform (1 0 0);
    }
    outlet
    {
        type            zeroGradient;
    }
    bottom
    {
        type            fixedValue;
        value           uniform (0 0 0);
    }
    back
    {
        type            empty;
    }
    front
    {
        type            empty;
    }
}


// ************************************************************************* //
