/*--------------------------------*- C++ -*----------------------------------*\
| =========                 |                                                 |
| \\      /  F ield         | OpenFOAM: The Open Source CFD Toolbox           |
|  \\    /   O peration     | Version:  2112                                  |
|   \\  /    A nd           | Website:  www.openfoam.com                      |
|    \\/     M anipulation  |                                                 |
\*---------------------------------------------------------------------------*/
FoamFile
{
    version     2.0;
    format      ascii;
    arch        "LSB;label=32;scalar=64";
    class       volScalarField;
    location    "100";
    object      p;
}
// * * * * * * * * * * * * * * * * * * * * * * * * * * * * * * * * * * * * * //

dimensions      [0 2 -2 0 0 0 0];

internalField   nonuniform List<scalar> 
1000
(
1.684047
1.5538966
1.4632423
1.4050767
1.3554924
1.3109753
1.2727007
1.2401994
1.2122273
1.1876359
1.1654937
1.1451021
1.1259244
1.1075993
1.0898977
1.0726774
1.055851
1.0393647
1.0231841
1.0072854
0.99164993
0.9762621
0.96110746
0.9461723
0.93144342
0.91690807
0.902554
0.8883695
0.87434348
0.8604655
0.8467258
0.83311526
0.81962536
0.80624813
0.79297613
0.77980242
0.76672053
0.75372443
0.74080852
0.72796756
0.71519669
0.70249135
0.68984729
0.67726053
0.66472734
0.65224423
0.63980795
0.62741542
0.61506379
0.60275035
0.5904726
0.57822819
0.56601495
0.5538309
0.54167425
0.52954337
0.51743682
0.50535331
0.4932917
0.48125093
0.46923
0.45722795
0.44524377
0.43327641
0.42132476
0.40938761
0.39746369
0.38555166
0.37365013
0.36175776
0.34987317
0.33799512
0.32612238
0.31425392
0.30238874
0.29052611
0.27866528
0.26680579
0.25494711
0.24308906
0.23123123
0.21937367
0.20751603
0.19565852
0.18380078
0.17194318
0.16008528
0.14822759
0.13636956
0.1245118
0.11265373
0.10079593
0.088938019
0.077080151
0.065222821
0.053364791
0.041508807
0.029650314
0.017795743
0.0059353453
1.5604992
1.4940818
1.4356596
1.3912856
1.3494409
1.3098321
1.2744556
1.2433978
1.2159097
1.1912398
1.1687427
1.1478686
1.1281987
1.1094324
1.0913623
1.0738474
1.0567919
1.0401302
1.0238163
1.0078158
0.9921022
0.97665349
0.96145065
0.94647662
0.93171578
0.91715359
0.90277652
0.88857198
0.87452829
0.86063466
0.84688107
0.83325817
0.81975719
0.80636995
0.79308883
0.77990674
0.76681714
0.75381394
0.7408915
0.72804456
0.7152682
0.70255782
0.68990911
0.67731805
0.66478088
0.6522941
0.6398544
0.62745873
0.61510417
0.60278804
0.59050779
0.57826105
0.56604563
0.55385952
0.54170089
0.5295681
0.51745967
0.50537432
0.49331088
0.48126829
0.46924557
0.45724175
0.44525586
0.43328687
0.42133368
0.40939511
0.39746989
0.38555671
0.37365417
0.36176094
0.34987562
0.33799698
0.32612375
0.31425492
0.30238944
0.29052661
0.27866558
0.26680601
0.25494721
0.24308915
0.23123124
0.21937372
0.20751598
0.19565857
0.1838007
0.17194324
0.16008518
0.14822767
0.13636943
0.12451188
0.11265358
0.10079594
0.088937868
0.077079947
0.06522286
0.053364373
0.041510608
0.02965238
0.017810072
0.0059454762
1.4979554
1.4694965
1.4314415
1.394557
1.3572674
1.3203353
1.2856128
1.253799
1.2248489
1.1985056
1.1744136
1.1521766
1.131422
1.1118337
1.0931615
1.0752154
1.057855
1.0409785
1.024512
1.0084012
0.99260568
0.97709407
0.96184132
0.94682651
0.93203143
0.91743974
0.90303663
0.88880869
0.87474385
0.86083116
0.84706054
0.83342253
0.81990815
0.8065089
0.79321688
0.78002478
0.76692594
0.75391425
0.74098403
0.72813001
0.71534722
0.702631
0.68997696
0.67738101
0.66483935
0.65234842
0.6399049
0.62750568
0.61514784
0.60282867
0.59054559
0.57829622
0.56607834
0.55388993
0.54172912
0.52959428
0.5174839
0.50539669
0.49333148
0.4812872
0.46926285
0.45725749
0.44527011
0.43329971
0.42134515
0.4094053
0.39747885
0.38556453
0.37366091
0.3617667
0.34988046
0.33800101
0.32612703
0.31425757
0.30239152
0.29052824
0.2786668
0.26680694
0.25494784
0.24308964
0.2312315
0.21937395
0.20751604
0.19565868
0.18380064
0.17194332
0.16008503
0.14822774
0.13636918
0.12451193
0.11265315
0.10079583
0.088937007
0.077079307
0.065221018
0.053362364
0.041507048
0.029648372
0.017805667
0.00594117
1.4688754
1.4526996
1.4237719
1.3915281
1.3578444
1.3236103
1.2903616
1.2590723
1.230052
1.2032899
1.1786093
1.1557385
1.1343799
1.1142561
1.0951314
1.0768155
1.0591597
1.0420505
1.025402
1.0091488
0.99324133
0.97764091
0.962317
0.94724454
0.93240214
0.91777094
0.90333416
0.88907696
0.87498639
0.86105101
0.84726047
0.83360504
0.82007539
0.80666263
0.79335844
0.78015524
0.7670462
0.75402512
0.74108632
0.72822448
0.71543459
0.70271192
0.69005199
0.67745066
0.66490403
0.65240851
0.63996073
0.62755757
0.61519607
0.60287351
0.59058728
0.57833501
0.56611445
0.55392358
0.54176053
0.52962363
0.51751139
0.50542248
0.4933557
0.48130996
0.46928424
0.45727754
0.44528885
0.43331712
0.42136122
0.40941999
0.39749215
0.38557642
0.3736714
0.36177582
0.34988827
0.33800758
0.32613245
0.31426198
0.302395
0.29053096
0.27866884
0.26680846
0.2549489
0.24309039
0.23123196
0.21937427
0.20751616
0.19565879
0.18380059
0.17194335
0.16008488
0.14822775
0.13636889
0.12451192
0.1126525
0.10079568
0.088935384
0.077078452
0.065216433
0.053358495
0.041492543
0.029631578
0.017758597
0.005905033
1.4558687
1.4434916
1.419155
1.3899249
1.3584133
1.3257279
1.2933485
1.2623865
1.2333302
1.2063082
1.1812537
1.1579772
1.1362327
1.1157704
1.0963641
1.077822
1.0599889
1.0427424
1.0259878
1.0096522
0.99367991
0.97802752
0.96266117
0.94755343
0.93268119
0.91802425
0.9035648
0.88928731
0.87517838
0.86122641
0.84742097
0.83375225
0.82021074
0.80678733
0.79347348
0.78026141
0.76714418
0.75411556
0.74116982
0.72830165
0.71550599
0.70277804
0.69011331
0.67750755
0.66495685
0.65245756
0.64000629
0.62759989
0.6152354
0.60291006
0.59062129
0.57836668
0.56614399
0.55395119
0.54178641
0.52964796
0.51753433
0.50544416
0.49337623
0.48132943
0.46930266
0.45729493
0.44530518
0.43333235
0.4213753
0.40943288
0.39750379
0.3855868
0.37368052
0.36178371
0.34989496
0.33801317
0.32613703
0.31426565
0.30239788
0.29053316
0.27867048
0.26680965
0.25494973
0.24309095
0.2312323
0.21937448
0.20751625
0.19565883
0.18380056
0.17194334
0.16008478
0.14822773
0.13636868
0.12451189
0.11265201
0.10079558
0.088934002
0.077077884
0.06521214
0.053355214
0.041477469
0.029614125
0.017705248
0.0058637057
1.4558687
1.4434916
1.419155
1.3899249
1.3584133
1.3257279
1.2933485
1.2623865
1.2333302
1.2063082
1.1812537
1.1579772
1.1362327
1.1157704
1.0963641
1.077822
1.0599889
1.0427424
1.0259878
1.0096522
0.99367991
0.97802751
0.96266116
0.94755342
0.93268118
0.91802425
0.90356481
0.88928731
0.87517838
0.86122641
0.84742097
0.83375225
0.82021074
0.80678733
0.79347347
0.78026141
0.76714418
0.75411556
0.74116982
0.72830165
0.71550599
0.70277805
0.69011331
0.67750755
0.66495685
0.65245756
0.64000629
0.62759989
0.6152354
0.60291007
0.5906213
0.57836668
0.566144
0.5539512
0.54178641
0.52964796
0.51753433
0.50544416
0.49337623
0.48132942
0.46930266
0.45729493
0.44530517
0.43333234
0.42137529
0.40943287
0.39750378
0.38558679
0.37368051
0.3617837
0.34989495
0.33801316
0.32613702
0.31426564
0.30239787
0.29053315
0.27867046
0.26680964
0.25494972
0.24309094
0.23123229
0.21937447
0.20751624
0.19565882
0.18380056
0.17194333
0.16008477
0.14822772
0.13636868
0.12451189
0.112652
0.10079557
0.088933998
0.077077874
0.065212137
0.05335521
0.041477467
0.029614133
0.017705252
0.0058637052
1.4688754
1.4526996
1.4237719
1.3915281
1.3578444
1.3236103
1.2903616
1.2590723
1.230052
1.2032899
1.1786093
1.1557385
1.1343799
1.1142561
1.0951314
1.0768155
1.0591597
1.0420506
1.025402
1.0091488
0.99324132
0.97764089
0.96231698
0.94724452
0.93240213
0.91777095
0.90333417
0.88907697
0.8749864
0.86105101
0.84726047
0.83360504
0.82007539
0.80666262
0.79335843
0.78015524
0.7670462
0.75402512
0.74108632
0.72822448
0.7154346
0.70271192
0.690052
0.67745067
0.66490404
0.65240852
0.63996074
0.62755758
0.61519609
0.60287353
0.5905873
0.57833503
0.56611447
0.5539236
0.54176054
0.52962364
0.5175114
0.50542248
0.4933557
0.48130996
0.46928423
0.45727753
0.44528883
0.4333171
0.4213612
0.40941997
0.39749213
0.3855764
0.37367138
0.36177579
0.34988824
0.33800755
0.32613242
0.31426195
0.30239497
0.29053092
0.2786688
0.26680842
0.25494887
0.24309036
0.23123193
0.21937424
0.20751614
0.19565877
0.18380058
0.17194333
0.16008486
0.14822774
0.13636887
0.1245119
0.11265249
0.10079566
0.088935367
0.077078435
0.065216416
0.053358487
0.041492547
0.029631587
0.017758603
0.0059050327
1.4979554
1.4694965
1.4314415
1.394557
1.3572674
1.3203353
1.2856128
1.253799
1.2248489
1.1985056
1.1744136
1.1521766
1.131422
1.1118337
1.0931615
1.0752154
1.057855
1.0409785
1.024512
1.0084012
0.99260567
0.97709404
0.96184129
0.9468265
0.93203143
0.91743975
0.90303664
0.8888087
0.87474386
0.86083117
0.84706055
0.83342253
0.81990814
0.8065089
0.79321687
0.78002477
0.76692594
0.75391425
0.74098403
0.72813002
0.71534723
0.702631
0.68997697
0.67738102
0.66483937
0.65234844
0.63990491
0.6275057
0.61514787
0.60282869
0.59054562
0.57829625
0.56607837
0.55388995
0.54172914
0.52959429
0.51748391
0.5053967
0.49333147
0.48128719
0.46926284
0.45725747
0.44527009
0.43329968
0.42134513
0.40940527
0.39747882
0.38556449
0.37366087
0.36176666
0.34988041
0.33800096
0.32612698
0.31425752
0.30239146
0.29052819
0.27866674
0.26680689
0.25494779
0.24308959
0.23123145
0.21937391
0.207516
0.19565865
0.18380061
0.1719433
0.16008501
0.14822772
0.13636916
0.12451191
0.11265312
0.10079581
0.08893698
0.077079287
0.065221
0.053362361
0.041507057
0.029648388
0.017805671
0.0059411699
1.5604992
1.4940818
1.4356596
1.3912856
1.3494409
1.3098321
1.2744556
1.2433978
1.2159097
1.1912398
1.1687427
1.1478686
1.1281987
1.1094324
1.0913623
1.0738474
1.0567919
1.0401303
1.0238163
1.0078158
0.99210219
0.97665347
0.96145062
0.9464766
0.93171578
0.91715361
0.90277654
0.88857199
0.87452829
0.86063466
0.84688107
0.83325816
0.81975719
0.80636995
0.79308883
0.77990674
0.76681713
0.75381394
0.7408915
0.72804456
0.71526821
0.70255782
0.68990912
0.67731806
0.66478089
0.65229411
0.63985442
0.62745875
0.6151042
0.60278807
0.59050782
0.57826108
0.56604566
0.55385955
0.54170091
0.52956811
0.51745968
0.50537432
0.49331087
0.48126828
0.46924555
0.45724173
0.44525584
0.43328685
0.42133365
0.40939508
0.39746986
0.38555667
0.37365414
0.3617609
0.34987558
0.33799693
0.32612369
0.31425486
0.30238938
0.29052654
0.27866552
0.26680595
0.25494715
0.2430891
0.23123118
0.21937367
0.20751594
0.19565853
0.18380067
0.17194322
0.16008516
0.14822764
0.13636941
0.12451185
0.11265355
0.1007959
0.088937836
0.07707992
0.065222848
0.053364374
0.041510622
0.029652396
0.017810084
0.0059454771
1.684047
1.5538966
1.4632423
1.4050767
1.3554924
1.3109753
1.2727007
1.2401994
1.2122273
1.1876359
1.1654937
1.1451021
1.1259244
1.1075993
1.0898977
1.0726774
1.055851
1.0393647
1.0231842
1.0072854
0.99164991
0.97626207
0.96110743
0.94617228
0.93144343
0.9169081
0.90255403
0.88836952
0.87434348
0.86046549
0.84672579
0.83311526
0.81962536
0.80624814
0.79297614
0.77980243
0.76672053
0.75372443
0.74080852
0.72796756
0.7151967
0.70249136
0.68984731
0.67726054
0.66472735
0.65224425
0.63980796
0.62741544
0.61506381
0.60275037
0.59047262
0.57822821
0.56601497
0.55383092
0.54167427
0.52954338
0.51743682
0.50535331
0.49329169
0.48125091
0.46922998
0.45722792
0.44524374
0.43327638
0.42132472
0.40938757
0.39746365
0.38555161
0.37365009
0.36175771
0.34987312
0.33799507
0.32612232
0.31425386
0.30238868
0.29052605
0.27866522
0.26680573
0.25494705
0.243089
0.23123118
0.21937362
0.20751598
0.19565848
0.18380075
0.17194315
0.16008525
0.14822756
0.13636953
0.12451178
0.1126537
0.1007959
0.088937988
0.077080136
0.065222815
0.053364794
0.041508811
0.029650314
0.017795743
0.005935346
)
;

boundaryField
{
    top
    {
        type            zeroGradient;
    }
    inlet
    {
        type            zeroGradient;
    }
    outlet
    {
        type            fixedValue;
        value           uniform 0;
    }
    bottom
    {
        type            zeroGradient;
    }
    back
    {
        type            empty;
    }
    front
    {
        type            empty;
    }
}


// ************************************************************************* //
