/*--------------------------------*- C++ -*----------------------------------*\
| =========                 |                                                 |
| \\      /  F ield         | OpenFOAM: The Open Source CFD Toolbox           |
|  \\    /   O peration     | Version:  v1812                                 |
|   \\  /    A nd           | Web:      www.OpenFOAM.com                      |
|    \\/     M anipulation  |                                                 |
\*---------------------------------------------------------------------------*/
FoamFile
{
    version     2.0;
    format      ascii;
    class       volScalarField;
    location    "5.1";
    object      p;
}
// * * * * * * * * * * * * * * * * * * * * * * * * * * * * * * * * * * * * * //

dimensions      [0 2 -2 0 0 0 0];


internalField   nonuniform List<scalar> 
1000
(
1.6778709
1.556793
1.4608126
1.3971565
1.3486469
1.3061749
1.2686397
1.2364679
1.2090675
1.18523
1.1638357
1.1440718
1.1253947
1.1074551
1.0900398
1.0730257
1.0563448
1.0399606
1.0238525
1.0080066
0.99241173
0.97705674
0.96193021
0.94702022
0.93231458
0.91780111
0.90346791
0.88930351
0.87529705
0.86143831
0.84771777
0.83412664
0.82065679
0.80730079
0.7940518
0.7809036
0.76785047
0.75488717
0.74200885
0.72921103
0.71648944
0.70384005
0.69125893
0.67874225
0.66628618
0.65388692
0.64154061
0.62924338
0.61699134
0.60478059
0.59260725
0.58046751
0.56835769
0.55627422
0.54421374
0.53217308
0.52014936
0.50813992
0.4961424
0.48415472
0.47217506
0.46020186
0.44823381
0.4362698
0.42430893
0.41235048
0.40039386
0.38843861
0.37648438
0.36453089
0.35257794
0.34062537
0.32867308
0.31672097
0.30476899
0.2928171
0.28086526
0.26891347
0.2569617
0.24500995
0.23305821
0.22110647
0.20915474
0.19720301
0.18525129
0.17329956
0.16134783
0.14939611
0.13744438
0.12549266
0.11354094
0.10158921
0.089637491
0.07768577
0.065734048
0.053782331
0.041830617
0.029878924
0.017927254
0.0059756782
1.5606512
1.5057222
1.4447697
1.393202
1.3499319
1.3109636
1.2753774
1.2436047
1.2156438
1.190866
1.1684641
1.1477627
1.1282811
1.1096931
1.0917795
1.0743948
1.0574429
1.0408616
1.0246089
1.0086555
0.99297849
0.97755905
0.96238034
0.94742687
0.93268411
0.91813832
0.90377654
0.88958659
0.87555709
0.86167742
0.84793778
0.83432909
0.82084304
0.80747198
0.79420895
0.78104756
0.76798199
0.75500692
0.74211744
0.729309
0.71657735
0.70391841
0.69132829
0.67880315
0.6663392
0.65393265
0.64157966
0.62927638
0.61701891
0.60480334
0.59262579
0.58048244
0.56836953
0.55628347
0.54422085
0.53217846
0.52015334
0.50814282
0.49614446
0.48415615
0.47217602
0.46020248
0.44823418
0.43627
0.42430903
0.41235051
0.40039385
0.38843858
0.37648435
0.36453086
0.35257791
0.34062535
0.32867305
0.31672095
0.30476897
0.29281709
0.28086526
0.26891346
0.2569617
0.24500995
0.2330582
0.22110647
0.20915474
0.19720301
0.18525128
0.17329956
0.16134783
0.14939611
0.13744438
0.12549266
0.11354094
0.10158921
0.089637489
0.077685767
0.06573404
0.053782317
0.041830587
0.029878877
0.017927173
0.0059756146
1.49983
1.4736549
1.4352581
1.3941252
1.3550399
1.3184491
1.2841514
1.2524339
1.2235778
1.1974767
1.1737227
1.1518327
1.1313829
1.112042
1.0935619
1.0757608
1.058509
1.0417134
1.0253074
1.0092423
0.99348199
0.97799839
0.96276865
0.94777335
0.93299536
0.91841929
0.90403108
0.8898178
0.87576755
0.86186935
0.84811307
0.8344894
0.8209898
0.80760645
0.7943322
0.78116053
0.7680855
0.75510165
0.74220399
0.72938789
0.71664903
0.70398329
0.69138674
0.67885553
0.66638585
0.65397391
0.64161588
0.62930792
0.61704613
0.60482662
0.59264551
0.58049896
0.56838323
0.55629471
0.54422996
0.53218576
0.52015913
0.50814734
0.49614796
0.48415881
0.47217802
0.46020397
0.44823527
0.43627079
0.42430959
0.41235091
0.40039412
0.38843877
0.37648447
0.36453094
0.35257796
0.34062538
0.32867307
0.31672096
0.30476898
0.29281709
0.28086526
0.26891346
0.2569617
0.24500995
0.2330582
0.22110647
0.20915474
0.19720301
0.18525128
0.17329956
0.16134783
0.14939611
0.13744438
0.12549266
0.11354093
0.10158921
0.08963748
0.077685753
0.065734013
0.053782272
0.041830509
0.029878764
0.017927031
0.0059755187
1.4704215
1.4549234
1.4280535
1.3941296
1.3583286
1.3233773
1.2900753
1.2587223
1.2295916
1.2028001
1.1782126
1.1555204
1.1343686
1.1144398
1.0954816
1.0773019
1.0597562
1.0427352
1.0261566
1.0099587
0.99409475
0.97852911
0.96323329
0.94818382
0.93336071
0.91874644
0.90432549
0.89008385
0.87600883
0.86208885
0.84831333
0.83467261
0.82115784
0.80776095
0.79447459
0.78129204
0.76820717
0.7552144
0.74230859
0.72948497
0.7167391
0.70406679
0.69146401
0.67892684
0.66645145
0.65403399
0.64167064
0.62935752
0.61709078
0.60486652
0.59268089
0.58053008
0.56841036
0.55631814
0.54425001
0.53220275
0.52017338
0.50815917
0.49615768
0.48416672
0.47218438
0.46020902
0.44823925
0.43627389
0.42431197
0.41235272
0.40039549
0.38843979
0.37648522
0.36453148
0.35257835
0.34062566
0.32867327
0.3167211
0.30476908
0.29281715
0.2808653
0.26891349
0.25696172
0.24500996
0.23305821
0.22110648
0.20915474
0.19720301
0.18525129
0.17329956
0.16134783
0.14939611
0.13744438
0.12549266
0.11354093
0.1015892
0.089637468
0.077685734
0.065733977
0.053782214
0.041830418
0.029878643
0.017926899
0.0059754358
1.4576899
1.4457366
1.4235022
1.3932146
1.3593535
1.3253579
1.2926603
1.2616547
1.2325574
1.2055455
1.1806184
1.1575689
1.1360873
1.1158697
1.0966661
1.0782839
1.0605751
1.0434246
1.0267438
1.0104647
0.99453581
0.97891736
0.96357801
0.94849209
0.93363799
0.91899703
0.90455282
0.89029073
0.87619761
0.86226153
0.84847167
0.83481812
0.82129186
0.80788467
0.79458906
0.78139819
0.76830583
0.75530627
0.74239426
0.72956496
0.71681383
0.70413659
0.69152914
0.67898751
0.6665078
0.65408615
0.64171868
0.62940155
0.61713087
0.60490278
0.59271343
0.58055903
0.5684359
0.55634047
0.54426934
0.53221932
0.52018743
0.50817097
0.49616747
0.48417476
0.47219091
0.46021427
0.44824341
0.43627716
0.42431451
0.41235467
0.40039697
0.38844089
0.37648604
0.36453208
0.35257879
0.34062597
0.32867349
0.31672125
0.30476918
0.29281723
0.28086535
0.26891353
0.25696174
0.24500997
0.23305822
0.22110648
0.20915475
0.19720302
0.18525129
0.17329956
0.16134783
0.14939611
0.13744438
0.12549266
0.11354093
0.1015892
0.08963746
0.07768572
0.065733952
0.053782175
0.04183036
0.02987857
0.017926824
0.0059753908
1.4576899
1.4457366
1.4235022
1.3932146
1.3593535
1.3253579
1.2926603
1.2616547
1.2325574
1.2055455
1.1806184
1.1575689
1.1360873
1.1158697
1.0966661
1.0782839
1.0605751
1.0434246
1.0267438
1.0104647
0.99453581
0.97891736
0.96357801
0.94849209
0.93363799
0.91899703
0.90455282
0.89029073
0.87619761
0.86226154
0.84847167
0.83481812
0.82129187
0.80788468
0.79458907
0.7813982
0.76830584
0.75530627
0.74239426
0.72956496
0.71681383
0.70413659
0.69152914
0.67898751
0.6665078
0.65408614
0.64171868
0.62940155
0.61713087
0.60490277
0.59271342
0.58055903
0.5684359
0.55634047
0.54426934
0.53221932
0.52018743
0.50817097
0.49616747
0.48417476
0.47219091
0.46021427
0.44824341
0.43627716
0.42431451
0.41235467
0.40039697
0.38844089
0.37648604
0.36453208
0.35257879
0.34062597
0.32867349
0.31672125
0.30476918
0.29281723
0.28086535
0.26891353
0.25696174
0.24500997
0.23305822
0.22110648
0.20915475
0.19720302
0.18525129
0.17329956
0.16134783
0.14939611
0.13744438
0.12549266
0.11354093
0.1015892
0.08963746
0.07768572
0.065733952
0.053782175
0.041830361
0.02987857
0.017926825
0.0059753912
1.4704215
1.4549234
1.4280535
1.3941296
1.3583286
1.3233773
1.2900753
1.2587223
1.2295916
1.2028001
1.1782126
1.1555204
1.1343686
1.1144398
1.0954816
1.0773019
1.0597562
1.0427352
1.0261566
1.0099587
0.99409475
0.97852911
0.96323329
0.94818383
0.93336071
0.91874645
0.9043255
0.89008386
0.87600884
0.86208886
0.84831335
0.83467263
0.82115786
0.80776097
0.7944746
0.78129205
0.76820718
0.75521441
0.74230859
0.72948496
0.71673909
0.70406678
0.691464
0.67892683
0.66645144
0.65403398
0.64167062
0.62935751
0.61709077
0.60486651
0.59268088
0.58053007
0.56841035
0.55631813
0.54425001
0.53220275
0.52017338
0.50815917
0.49615768
0.48416671
0.47218438
0.46020902
0.44823925
0.43627389
0.42431197
0.41235272
0.40039549
0.38843979
0.37648522
0.36453148
0.35257835
0.34062566
0.32867327
0.3167211
0.30476908
0.29281716
0.2808653
0.26891349
0.25696172
0.24500996
0.23305821
0.22110648
0.20915474
0.19720301
0.18525129
0.17329956
0.16134783
0.14939611
0.13744438
0.12549266
0.11354093
0.1015892
0.089637468
0.077685734
0.065733977
0.053782214
0.041830419
0.029878644
0.017926901
0.0059754366
1.49983
1.4736549
1.4352581
1.3941252
1.3550399
1.3184491
1.2841514
1.2524339
1.2235778
1.1974767
1.1737227
1.1518327
1.1313829
1.112042
1.0935619
1.0757608
1.058509
1.0417134
1.0253074
1.0092423
0.99348199
0.97799839
0.96276866
0.94777335
0.93299537
0.91841931
0.90403109
0.88981782
0.87576757
0.86186937
0.84811309
0.83448942
0.82098982
0.80760646
0.79433221
0.78116054
0.7680855
0.75510165
0.74220399
0.72938789
0.71664902
0.70398328
0.69138673
0.67885551
0.66638583
0.65397389
0.64161586
0.6293079
0.61704611
0.60482661
0.5926455
0.58049895
0.56838322
0.5562947
0.54422995
0.53218576
0.52015913
0.50814734
0.49614796
0.48415881
0.47217802
0.46020397
0.44823527
0.43627079
0.42430959
0.41235091
0.40039413
0.38843877
0.37648447
0.36453094
0.35257796
0.34062538
0.32867308
0.31672097
0.30476898
0.29281709
0.28086526
0.26891347
0.2569617
0.24500995
0.23305821
0.22110647
0.20915474
0.19720301
0.18525128
0.17329956
0.16134783
0.14939611
0.13744438
0.12549266
0.11354093
0.10158921
0.08963748
0.077685754
0.065734013
0.053782273
0.04183051
0.029878766
0.017927034
0.0059755196
1.5606512
1.5057222
1.4447697
1.393202
1.3499319
1.3109636
1.2753774
1.2436047
1.2156438
1.190866
1.1684641
1.1477627
1.1282811
1.1096931
1.0917795
1.0743947
1.0574429
1.0408616
1.0246089
1.0086555
0.99297849
0.97755905
0.96238034
0.94742688
0.93268412
0.91813834
0.90377656
0.88958661
0.87555711
0.86167744
0.8479378
0.83432911
0.82084306
0.807472
0.79420896
0.78104757
0.767982
0.75500692
0.74211744
0.729309
0.71657734
0.7039184
0.69132827
0.67880313
0.66633918
0.65393263
0.64157964
0.62927636
0.61701889
0.60480332
0.59262578
0.58048242
0.56836951
0.55628346
0.54422084
0.53217845
0.52015334
0.50814281
0.49614446
0.48415615
0.47217601
0.46020247
0.44823418
0.43627
0.42430903
0.41235051
0.40039385
0.38843859
0.37648435
0.36453086
0.35257791
0.34062535
0.32867306
0.31672095
0.30476898
0.29281709
0.28086526
0.26891347
0.2569617
0.24500995
0.23305821
0.22110647
0.20915474
0.19720301
0.18525129
0.17329956
0.16134783
0.14939611
0.13744438
0.12549266
0.11354094
0.10158921
0.089637489
0.077685768
0.065734041
0.053782318
0.041830589
0.02987888
0.017927176
0.0059756156
1.6778709
1.556793
1.4608126
1.3971565
1.3486469
1.3061749
1.2686397
1.2364679
1.2090675
1.18523
1.1638356
1.1440718
1.1253947
1.1074551
1.0900398
1.0730257
1.0563448
1.0399606
1.0238525
1.0080066
0.99241173
0.97705674
0.96193022
0.94702023
0.93231459
0.91780113
0.90346793
0.88930353
0.87529707
0.86143833
0.84771779
0.83412666
0.82065681
0.8073008
0.79405182
0.78090361
0.76785047
0.75488717
0.74200885
0.72921102
0.71648943
0.70384003
0.69125891
0.67874223
0.66628616
0.6538869
0.64154059
0.62924336
0.61699132
0.60478057
0.59260723
0.5804675
0.56835768
0.55627421
0.54421373
0.53217308
0.52014935
0.50813991
0.4961424
0.48415472
0.47217506
0.46020186
0.44823381
0.4362698
0.42430893
0.41235048
0.40039386
0.38843861
0.37648438
0.36453089
0.35257794
0.34062538
0.32867308
0.31672097
0.30476899
0.2928171
0.28086527
0.26891347
0.2569617
0.24500995
0.23305821
0.22110647
0.20915474
0.19720301
0.18525129
0.17329956
0.16134783
0.14939611
0.13744438
0.12549266
0.11354094
0.10158921
0.089637492
0.077685771
0.065734049
0.053782332
0.041830619
0.029878927
0.017927257
0.0059756792
)
;

boundaryField
{
    top
    {
        type            zeroGradient;
    }
    inlet
    {
        type            zeroGradient;
    }
    outlet
    {
        type            fixedValue;
        value           uniform 0;
    }
    bottom
    {
        type            zeroGradient;
    }
    back
    {
        type            empty;
    }
    front
    {
        type            empty;
    }
}


// ************************************************************************* //
