/*--------------------------------*- C++ -*----------------------------------*\
| =========                 |                                                 |
| \\      /  F ield         | OpenFOAM: The Open Source CFD Toolbox           |
|  \\    /   O peration     | Version:  v1812                                 |
|   \\  /    A nd           | Web:      www.OpenFOAM.com                      |
|    \\/     M anipulation  |                                                 |
\*---------------------------------------------------------------------------*/
FoamFile
{
    version     2.0;
    format      ascii;
    class       surfaceScalarField;
    location    "5.1";
    object      phi;
}
// * * * * * * * * * * * * * * * * * * * * * * * * * * * * * * * * * * * * * //

dimensions      [0 3 -1 0 0 0 0];
oriented        oriented;


internalField   nonuniform List<scalar> 
1890
(
0.0093061957
0.00069380425
0.0082843931
0.0010218027
0.0073298986
0.00095449449
0.0064869553
0.00084294334
0.0057695844
0.0007173708
0.00518986
0.00057972444
0.004738168
0.00045169205
0.00439519
0.00034297801
0.0041390268
0.00025616317
0.003949107
0.00018991983
0.003807888
0.00014121896
0.0037013782
0.00010650977
0.003619058
8.2320182e-05
0.0035534119
6.5646183e-05
0.0034992847
5.4127163e-05
0.0034532448
4.6039923e-05
0.0034130507
4.0194123e-05
0.0033772581
3.5792524e-05
0.0033449397
3.2318438e-05
0.0033154909
2.9448837e-05
0.0032885029
2.6987963e-05
0.0032636835
2.4819443e-05
0.0032408092
2.2874265e-05
0.0032196985
2.1110668e-05
0.0032001965
1.9502103e-05
0.0031821662
1.8030238e-05
0.0031654852
1.6681073e-05
0.0031500423
1.5442873e-05
0.0031357372
1.4305149e-05
0.0031224791
1.3258189e-05
0.0031101862
1.2292883e-05
0.0030987856
1.140067e-05
0.0030882121
1.0573548e-05
0.0030784081
9.8040922e-06
0.0030693227
9.0854828e-06
0.0030609112
8.4115506e-06
0.0030531345
7.7768178e-06
0.003045958
7.1765512e-06
0.0030393513
6.6067874e-06
0.003033287
6.0643674e-06
0.0030277401
5.5469168e-06
0.0030226873
5.0528394e-06
0.0030181061
4.5812347e-06
0.0030139743
4.131836e-06
0.0030102694
3.7048696e-06
0.0030069685
3.3009507e-06
0.0030040476
2.9209116e-06
0.0030014819
2.5656819e-06
0.0029992457
2.2361273e-06
0.0029973128
1.9329466e-06
0.0029956562
1.6565584e-06
0.0029942491
1.4070398e-06
0.002993065
1.1840824e-06
0.0029920779
9.8698262e-07
0.0029912632
8.1466564e-07
0.0029905974
6.6571942e-07
0.0029900589
5.3846693e-07
0.0029896278
4.3102229e-07
0.0029892864
3.413844e-07
0.0029890188
2.6750129e-07
0.0029888114
2.0735038e-07
0.0029886524
1.5897265e-07
0.0029885318
1.2054517e-07
0.0029884414
9.0391779e-08
0.0029883743
6.7026687e-08
0.0029883252
4.9140469e-08
0.0029882895
3.562173e-08
0.002988264
2.5526303e-08
0.0029882459
1.8084664e-08
0.0029882332
1.2663259e-08
0.0029882245
8.7666095e-09
0.0029882185
5.9969781e-09
0.0029882144
4.0568242e-09
0.0029882117
2.7107579e-09
0.0029882099
1.7926075e-09
0.0029882087
1.1701048e-09
0.002988208
7.5772135e-10
0.0029882075
4.8325848e-10
0.0029882072
3.0791429e-10
0.002988207
1.918822e-10
0.0029882069
1.2218903e-10
0.0029882068
7.4051596e-11
0.0029882068
4.9279683e-11
0.0029882067
2.8352362e-11
0.0029882067
2.2660591e-11
0.0029882067
1.1659618e-11
0.0029882067
1.5232164e-11
0.0029882067
8.0609438e-12
0.0029882067
1.9740838e-11
0.0029882066
1.5760553e-11
0.0029882066
3.9941526e-11
0.0029882066
4.4396471e-11
0.0029882065
9.6724034e-11
0.0029882063
1.3773966e-10
0.0029882061
2.8615379e-10
0.0029882056
4.9617536e-10
0.0029882046
9.7397117e-10
0.0029882028
1.7393948e-09
0.0029881997
3.1263956e-09
4.5683333e-09
0.010339525
0.00035427932
0.010570754
0.00079057335
0.010606301
0.00091894821
0.010547572
0.00090167138
0.010422317
0.00084262624
0.010244356
0.0007576856
0.01003942
0.00065662744
0.0098287426
0.00055365586
0.009625135
0.00045977083
0.0094353013
0.00037975352
0.0092624277
0.00031409255
0.0091075333
0.0002614042
0.0089701541
0.00021969939
0.0088489026
0.00018689769
0.008741972
0.00016105775
0.0086474934
0.00014051854
0.0085636951
0.00012399235
0.0084890126
0.00011047508
0.0084221125
9.9218509e-05
0.0083618819
8.9679402e-05
0.0083074022
8.1467747e-05
0.008257918
7.4303596e-05
0.008212808
6.7984318e-05
0.0081715576
6.2361034e-05
0.0081337376
5.732207e-05
0.0080989864
5.2781522e-05
0.008066996
4.8671441e-05
0.0080375023
4.4936581e-05
0.0080102766
4.1530868e-05
0.0079851198
3.8415033e-05
0.0079618577
3.5555002e-05
0.0079403376
3.2920823e-05
0.0079204253
3.0485923e-05
0.0079020028
2.8226606e-05
0.0078849666
2.612173e-05
0.0078692257
2.4152523e-05
0.0078547
2.2302517e-05
0.0078413191
2.0557521e-05
0.0078290203
1.8905647e-05
0.0078177474
1.733729e-05
0.0078074492
1.5845114e-05
0.0077980781
1.4423938e-05
0.0077895888
1.3070593e-05
0.0077819369
1.1783664e-05
0.0077750786
1.0563202e-05
0.0077689692
9.4103461e-06
0.0077635631
8.3269498e-06
0.0077588136
7.3151645e-06
0.0077546726
6.3770709e-06
0.0077510912
5.5143251e-06
0.0077480199
4.7278856e-06
0.007745409
4.0178038e-06
0.00774321
3.383104e-06
0.0077413751
2.8217479e-06
0.0077398591
2.3306718e-06
0.0077386188
1.9059016e-06
0.0077376145
1.5427053e-06
0.0077368097
1.235795e-06
0.0077361715
9.7952666e-07
0.0077356708
7.6811823e-07
0.0077352823
5.9583078e-07
0.0077349841
4.5714082e-07
0.0077347577
3.4686557e-07
0.0077345878
2.6026461e-07
0.0077344617
1.9309517e-07
0.0077343692
1.416429e-07
0.0077343021
1.0271897e-07
0.007734254
7.3638814e-08
0.0077342199
5.2183731e-08
0.007734196
3.6551417e-08
0.0077341794
2.5304712e-08
0.0077341681
1.7313681e-08
0.0077341605
1.1708529e-08
0.0077341553
7.8248218e-09
0.007734152
5.1699635e-09
0.0077341498
3.3755206e-09
0.0077341483
2.1812482e-09
0.0077341474
1.3925552e-09
0.0077341469
8.8312776e-10
0.0077341465
5.5229518e-10
0.0077341463
3.4738061e-10
0.0077341462
2.1327723e-10
0.0077341461
1.3748765e-10
0.007734146
8.2621589e-11
0.007734146
6.0335425e-11
0.007734146
3.5148321e-11
0.0077341459
3.7020752e-11
0.0077341459
2.3043927e-11
0.0077341459
4.1452297e-11
0.0077341459
3.6734418e-11
0.0077341458
7.7426779e-11
0.0077341458
9.6222385e-11
0.0077341457
1.8446925e-10
0.0077341456
2.8880613e-10
0.0077341454
5.2583937e-10
0.0077341449
9.4122487e-10
0.0077341443
1.6206207e-09
0.0077341432
2.8199915e-09
0.0077341421
4.1586316e-09
5.8276564e-09
0.010188704
0.00016557515
0.010530487
0.000448791
0.010851453
0.00059798178
0.011124174
0.00062895026
0.011350581
0.00061621887
0.011524486
0.00058378056
0.01164633
0.00053478421
0.011724155
0.0004758305
0.011767999
0.00041592666
0.011786639
0.00036111399
0.011787114
0.00031361709
0.011775058
0.00027346021
0.011754861
0.00023989709
0.011729768
0.00021199015
0.011702053
0.00018877233
0.011673239
0.00016933344
0.011644339
0.00015289227
0.011616003
0.00013881076
0.011588629
0.00012659218
0.011562447
0.00011586202
0.011537573
0.00010634133
0.011514055
9.7821665e-05
0.011491894
9.0145505e-05
0.011471063
8.319187e-05
0.011451519
7.686591e-05
0.011433209
7.1091441e-05
0.011416075
6.5805674e-05
0.011400056
6.0955575e-05
0.011385092
5.6495367e-05
0.011371122
5.2384794e-05
0.011358089
4.8587944e-05
0.011345937
4.5072435e-05
0.011334614
4.180887e-05
0.011324071
3.8770457e-05
0.01131426
3.5932781e-05
0.011305138
3.3273698e-05
0.011296668
3.0773331e-05
0.011288811
2.8414137e-05
0.011281536
2.6180987e-05
0.011274812
2.4061253e-05
0.011268612
2.2044847e-05
0.011262912
2.0124222e-05
0.011257688
1.8294261e-05
0.01125292
1.6552097e-05
0.011248586
1.4896817e-05
0.011244667
1.3329101e-05
0.011241143
1.1850778e-05
0.011237994
1.0464365e-05
0.011235199
9.1725734e-06
0.011232735
7.9778664e-06
0.011230581
6.8820443e-06
0.011228713
5.8859285e-06
0.011227107
4.9891272e-06
0.011225739
4.1899136e-06
0.011224584
3.4852067e-06
0.011223619
2.8706443e-06
0.011222821
2.3407459e-06
0.011222168
1.889123e-06
0.011221639
1.508743e-06
0.011221214
1.1921897e-06
0.011220878
9.3193704e-07
0.011220615
7.2057606e-07
0.011220411
5.5103023e-07
0.011220254
4.167015e-07
0.011220136
3.1159473e-07
0.011220047
2.3037158e-07
0.011219981
1.6838835e-07
0.011219933
1.216749e-07
0.011219899
8.6911342e-08
0.011219874
6.1361883e-08
0.011219856
4.2821983e-08
0.011219844
2.9534773e-08
0.011219836
2.0134657e-08
0.01121983
1.3564989e-08
0.011219826
9.0351725e-09
0.011219823
5.9470728e-09
0.011219822
3.8734856e-09
0.011219821
2.4927837e-09
0.01121982
1.5920065e-09
0.01121982
1.0035411e-09
0.011219819
6.3361433e-10
0.011219819
3.924623e-10
0.011219819
2.5094022e-10
0.011219819
1.5341302e-10
0.011219819
1.0671519e-10
0.011219819
6.528759e-11
0.011219819
5.8456717e-11
0.011219819
4.002693e-11
0.011219819
5.3863567e-11
0.011219819
5.265153e-11
0.011219819
8.6143892e-11
0.011219819
1.1983797e-10
0.011219819
1.9398481e-10
0.011219819
3.3513705e-10
0.011219819
5.406971e-10
0.011219819
9.9691434e-10
0.011219819
1.540318e-09
0.011219819
2.6110691e-09
0.011219819
3.5163398e-09
4.7789542e-09
0.010097182
6.8393556e-05
0.010346961
0.00019901112
0.010662469
0.00028247388
0.010982753
0.00030866649
0.011290229
0.00030874343
0.011575251
0.0002987579
0.011829022
0.00028101347
0.012047865
0.00025698757
0.012233272
0.00023051983
0.01238924
0.00020514591
0.012520295
0.00018256237
0.012630755
0.00016299957
0.012724427
0.00014622489
0.012804514
0.00013190306
0.012873613
0.00011967414
0.012933772
0.00010917439
0.012986595
0.0001000687
0.01303333
9.2075765e-05
0.013074948
8.4974306e-05
0.013112213
7.8597148e-05
0.013145734
7.2820068e-05
0.013176005
6.7550561e-05
0.013203432
6.2718869e-05
0.013228352
5.8271409e-05
0.013251052
5.4166017e-05
0.013271775
5.0368506e-05
0.013290731
4.6850236e-05
0.0133081
4.3586465e-05
0.01332404
4.0555238e-05
0.013338688
3.773666e-05
0.013352164
3.5112403e-05
0.013364571
3.2665421e-05
0.013376
3.0379759e-05
0.01338653
2.8240467e-05
0.013396229
2.6233541e-05
0.013405157
2.4345962e-05
0.013413364
2.2565753e-05
0.013420896
2.0882094e-05
0.013427792
1.9285429e-05
0.013434086
1.7767575e-05
0.013439809
1.6321811e-05
0.01344499
1.4942926e-05
0.013449657
1.3627222e-05
0.013453837
1.2372438e-05
0.013457556
1.117763e-05
0.013460842
1.0042965e-05
0.013463723
8.9694903e-06
0.013466229
7.9588301e-06
0.013468388
7.0128997e-06
0.013470233
6.13358e-06
0.013471792
5.3224496e-06
0.013473098
4.5805244e-06
0.013474179
3.9080786e-06
0.013475064
3.3045084e-06
0.013475781
2.7682808e-06
0.013476355
2.2969421e-06
0.013476808
1.8871897e-06
0.013477162
1.5349977e-06
0.013477435
1.2357705e-06
0.013477643
9.8452857e-07
0.013477799
7.7608576e-07
0.013477914
6.0523304e-07
0.013477998
4.6688878e-07
0.013478059
3.5623559e-07
0.013478102
2.6881501e-07
0.013478131
2.0059902e-07
0.013478152
1.4802454e-07
0.013478166
1.0800494e-07
0.013478175
7.7918624e-08
0.01347818
5.5578788e-08
0.013478184
3.9196818e-08
0.013478186
2.7330696e-08
0.013478187
1.8843353e-08
0.013478188
1.2845383e-08
0.013478189
8.6614623e-09
0.013478189
5.7755023e-09
0.013478189
3.8129131e-09
0.013478189
2.4900172e-09
0.013478189
1.6142885e-09
0.013478189
1.0352962e-09
0.013478189
6.6405283e-10
0.013478189
4.2054525e-10
0.013478189
2.7232094e-10
0.013478189
1.7236552e-10
0.013478189
1.1865861e-10
0.013478189
7.7539251e-11
0.013478189
6.3478939e-11
0.013478189
4.7878317e-11
0.013478189
5.173726e-11
0.013478189
5.3541281e-11
0.013478189
6.9728081e-11
0.013478189
9.8570249e-11
0.013478189
1.3642171e-10
0.013478189
2.3676801e-10
0.013478189
3.480173e-10
0.013478189
6.3369025e-10
0.01347819
9.227245e-10
0.013478191
1.5195609e-09
0.013478193
1.967643e-09
2.6249448e-09
0.010068394
5.7899811e-13
0.010267405
2.0458407e-12
0.010549879
3.8174279e-12
0.010858545
6.0596299e-12
0.011167288
8.8740155e-12
0.011466046
1.2485639e-11
0.01174706
1.6958853e-11
0.012004047
2.2523778e-11
0.012234567
2.9265958e-11
0.012439713
3.7488286e-11
0.012622275
4.7242364e-11
0.012785275
5.8860266e-11
0.0129315
7.2311451e-11
0.013063403
8.7912048e-11
0.013183077
1.0551052e-10
0.013292251
1.25347e-10
0.013392319
1.4695291e-10
0.013484395
1.7013009e-10
0.013569369
1.9373254e-10
0.013647966
2.1679777e-10
0.013720786
2.3724214e-10
0.013788336
2.5312736e-10
0.013851055
2.6165485e-10
0.013909326
2.6045086e-10
0.013963492
2.4691913e-10
0.01401386
2.1936429e-10
0.01406071
1.7628349e-10
0.014104296
1.1850216e-10
0.014144852
4.5814336e-11
0.014182588
-4.3890683e-11
0.014217701
-1.3970741e-10
0.014250366
-2.4276007e-10
0.014280747
-3.4420921e-10
0.014308987
-4.4376838e-10
0.014335221
-5.308231e-10
0.014359568
-6.0671313e-10
0.014382134
-6.6088961e-10
0.014403017
-6.9757327e-10
0.014422303
-7.0824598e-10
0.014440072
-6.9960511e-10
0.014456394
-6.6610329e-10
0.014471338
-6.1631685e-10
0.014484965
-5.4806524e-10
0.014497338
-4.7065041e-10
0.014508516
-3.8414427e-10
0.01451856
-2.969106e-10
0.014527529
-2.1035183e-10
0.014535488
-1.3107711e-10
0.014542501
-5.9932345e-11
0.014548635
9.717877e-13
0.014553957
4.9802563e-11
0.014558538
8.6404792e-11
0.014562446
1.1180128e-10
0.01456575
1.283765e-10
0.014568518
1.3692955e-10
0.014570815
1.4161544e-10
0.014572702
1.4196664e-10
0.014574237
1.4289591e-10
0.014575472
1.4216144e-10
0.014576457
1.4489415e-10
0.014577233
1.4670461e-10
0.014577838
1.5270315e-10
0.014578305
1.5679531e-10
0.014578661
1.644981e-10
0.014578929
1.6847135e-10
0.01457913
1.7486831e-10
0.014579278
1.7583946e-10
0.014579385
1.7844013e-10
0.014579463
1.7465366e-10
0.014579519
1.7234538e-10
0.014579558
1.6362897e-10
0.014579585
1.5694483e-10
0.014579604
1.4445403e-10
0.014579616
1.349128e-10
0.014579625
1.2053229e-10
0.014579631
1.1007833e-10
0.014579634
9.5635662e-11
0.014579637
8.5892437e-11
0.014579638
7.286138e-11
0.014579639
6.4985295e-11
0.01457964
5.4146156e-11
0.01457964
4.864486e-11
0.01457964
4.0373665e-11
0.014579641
3.7430267e-11
0.014579641
3.1663067e-11
0.014579641
3.1174585e-11
0.014579641
2.7910501e-11
0.014579641
2.9877904e-11
0.014579641
2.915228e-11
0.014579641
3.3247074e-11
0.014579641
3.3841336e-11
0.014579641
3.7008127e-11
0.014579641
3.494866e-11
0.014579641
3.6219238e-11
0.014579642
3.2609906e-11
0.014579642
3.298425e-11
0.014579643
3.2221899e-11
0.014579645
3.0397505e-11
0.014579646
2.2060123e-11
2.0390383e-11
0.010068394
-6.8393555e-05
0.010267405
-0.00019901112
0.010549879
-0.00028247387
0.010858545
-0.00030866648
0.011167288
-0.00030874341
0.011466046
-0.00029875787
0.01174706
-0.00028101344
0.012004047
-0.00025698753
0.012234567
-0.00023051978
0.012439713
-0.00020514584
0.012622275
-0.00018256228
0.012785275
-0.00016299946
0.0129315
-0.00014622475
0.013063403
-0.00013190289
0.013183077
-0.00011967394
0.013292251
-0.00010917415
0.01339232
-0.00010006842
0.013484395
-9.2075446e-05
0.013569369
-8.4973945e-05
0.013647966
-7.8596746e-05
0.013720786
-7.2819629e-05
0.013788336
-6.7550096e-05
0.013851055
-6.2718391e-05
0.013909326
-5.8270936e-05
0.013963492
-5.4165572e-05
0.01401386
-5.0368113e-05
0.01406071
-4.6849923e-05
0.014104297
-4.3586259e-05
0.014144852
-4.0555168e-05
0.014182589
-3.7736747e-05
0.014217701
-3.5112663e-05
0.014250367
-3.266586e-05
0.014280747
-3.0380378e-05
0.014308988
-2.8241256e-05
0.014335222
-2.6234483e-05
0.014359568
-2.4347029e-05
0.014382134
-2.2566916e-05
0.014403017
-2.0883314e-05
0.014422303
-1.928667e-05
0.014440071
-1.7768793e-05
0.014456393
-1.6322976e-05
0.014471337
-1.4944e-05
0.014484964
-1.3628185e-05
0.014497337
-1.2373263e-05
0.014508515
-1.1178313e-05
0.014518558
-1.0043496e-05
0.014527528
-8.9698775e-06
0.014535487
-7.9590783e-06
0.0145425
-7.013027e-06
0.014548634
-6.1336001e-06
0.014553956
-5.3223847e-06
0.014558537
-4.5803928e-06
0.014562445
-3.9078988e-06
0.014565749
-3.3042959e-06
0.014568517
-2.7680466e-06
0.014570814
-2.2966965e-06
0.014572701
-1.8869356e-06
0.014574236
-1.5347402e-06
0.014575472
-1.2355066e-06
0.014576456
-9.8426043e-07
0.014577232
-7.7580801e-07
0.014577837
-6.0494793e-07
0.014578304
-4.6659135e-07
0.01457866
-3.5593013e-07
0.014578929
-2.6849878e-07
0.014579129
-2.0027855e-07
0.014579277
-1.4769911e-07
0.014579385
-1.0768275e-07
0.014579463
-7.7600051e-08
0.014579518
-5.5272106e-08
0.014579557
-3.890199e-08
0.014579585
-2.7055133e-08
0.014579603
-1.8585827e-08
0.014579616
-1.2611512e-08
0.014579625
-8.4482714e-09
0.01457963
-5.5870384e-09
0.014579634
-3.6448229e-09
0.014579637
-2.3448358e-09
0.014579638
-1.4865422e-09
0.014579639
-9.2685432e-10
0.01457964
-5.6904328e-10
0.01457964
-3.4035393e-10
0.01457964
-2.0080771e-10
0.014579641
-1.1116712e-10
0.014579641
-6.1671463e-11
0.014579641
-2.6574174e-11
0.014579641
-1.212792e-11
0.014579641
1.872822e-12
0.014579641
2.2405797e-12
0.014579641
3.1336749e-12
0.014579641
-6.2318167e-12
0.014579641
-3.5143865e-11
0.014579641
-7.0755209e-11
0.014579641
-1.7503724e-10
0.014579642
-2.8629497e-10
0.014579642
-5.7381578e-10
0.014579643
-8.646479e-10
0.014579645
-1.4696656e-09
0.014579646
-1.9206364e-09
-2.5859794e-09
0.010097182
-0.00016557515
0.010346961
-0.000448791
0.010662469
-0.00059798177
0.010982753
-0.00062895024
0.011290229
-0.00061621886
0.011575251
-0.00058378054
0.011829022
-0.00053478418
0.012047865
-0.00047583046
0.012233272
-0.00041592661
0.01238924
-0.00036111393
0.012520295
-0.00031361702
0.012630755
-0.00027346011
0.012724427
-0.00023989698
0.012804515
-0.00021199001
0.012873613
-0.00018877216
0.012933772
-0.00016933325
0.012986596
-0.00015289205
0.013033331
-0.00013881051
0.013074949
-0.0001265919
0.013112213
-0.00011586171
0.013145735
-0.000106341
0.013176006
-9.7821318e-05
0.013203433
-9.0145154e-05
0.013228353
-8.3191528e-05
0.013251053
-7.6865595e-05
0.013271776
-7.1091169e-05
0.013290732
-6.5805466e-05
0.013308101
-6.0955446e-05
0.013324041
-5.6495336e-05
0.013338689
-5.2384872e-05
0.013352165
-4.8588142e-05
0.013364572
-4.5072751e-05
0.013376001
-4.1809305e-05
0.01338653
-3.8770999e-05
0.013396229
-3.5933421e-05
0.013405157
-3.3274414e-05
0.013413364
-3.0774105e-05
0.013420895
-2.8414945e-05
0.013427791
-2.6181806e-05
0.013434084
-2.4062059e-05
0.013439807
-2.204562e-05
0.013444988
-2.0124944e-05
0.013449654
-1.8294914e-05
0.013453834
-1.6552673e-05
0.013457553
-1.4897304e-05
0.013460839
-1.33295e-05
0.01346372
-1.1851085e-05
0.013466226
-1.0464587e-05
0.013468385
-9.1727136e-06
0.01347023
-7.9779365e-06
0.013471789
-6.8820515e-06
0.013473095
-5.8858853e-06
0.013474176
-4.989042e-06
0.013475062
-4.1897964e-06
0.013475779
-3.4850641e-06
0.013476352
-2.8704826e-06
0.013476806
-2.3405694e-06
0.01347716
-1.8889342e-06
0.013477433
-1.5085441e-06
0.013477641
-1.1919815e-06
0.013477797
-9.3172063e-07
0.013477912
-7.2035206e-07
0.013477997
-5.507997e-07
0.013478057
-4.1646624e-07
0.0134781
-3.1135625e-07
0.01347813
-2.30133e-07
0.01347815
-1.6815149e-07
0.013478164
-1.2144381e-07
0.013478173
-8.6687484e-08
0.013478179
-6.1149389e-08
0.013478183
-4.2621455e-08
0.013478185
-2.9349803e-08
0.013478187
-1.9964516e-08
0.013478188
-1.3412332e-08
0.013478188
-8.8980722e-09
0.013478188
-5.8272744e-09
0.013478188
-3.7679597e-09
0.013478188
-2.4025774e-09
0.013478189
-1.5135262e-09
0.013478189
-9.3747095e-10
0.013478189
-5.7600282e-10
0.013478189
-3.439202e-10
0.013478189
-2.0754185e-10
0.013478189
-1.1596683e-10
0.013478189
-7.1128029e-11
0.013478189
-3.2808594e-11
0.013478189
-2.4834351e-11
0.013478189
-6.4902087e-12
0.013478189
-1.6669139e-11
0.013478189
-1.311417e-11
0.013478189
-4.2649001e-11
0.013478189
-7.6294065e-11
0.013478189
-1.5006788e-10
0.013478189
-2.9434442e-10
0.013478189
-5.0156125e-10
0.01347819
-9.590534e-10
0.01347819
-1.4992483e-09
0.013478191
-2.5698281e-09
0.013478193
-3.4838689e-09
-4.7510638e-09
0.010188704
-0.00035427932
0.010530487
-0.00079057335
0.010851453
-0.00091894821
0.011124174
-0.00090167137
0.011350581
-0.00084262623
0.011524486
-0.00075768558
0.01164633
-0.00065662742
0.011724155
-0.00055365583
0.011767999
-0.00045977079
0.011786639
-0.00037975348
0.011787114
-0.0003140925
0.011775058
-0.00026140414
0.011754861
-0.00021969931
0.011729768
-0.0001868976
0.011702054
-0.00016105765
0.011673239
-0.00014051842
0.011644339
-0.00012399222
0.011616004
-0.00011047494
0.01158863
-9.9218351e-05
0.011562447
-8.9679233e-05
0.011537574
-8.1467569e-05
0.011514056
-7.4303413e-05
0.011491895
-6.7984137e-05
0.011471064
-6.2360861e-05
0.011451521
-5.7321914e-05
0.011433211
-5.278139e-05
0.011416077
-4.8671342e-05
0.011400058
-4.4936522e-05
0.011385093
-4.1530857e-05
0.011371123
-3.8415074e-05
0.01135809
-3.5555097e-05
0.011345938
-3.2920974e-05
0.011334615
-3.0486124e-05
0.011324071
-2.8226857e-05
0.01131426
-2.612202e-05
0.011305138
-2.4152851e-05
0.011296667
-2.2302868e-05
0.01128881
-2.0557892e-05
0.011281534
-1.8906022e-05
0.01127481
-1.7337668e-05
0.01126861
-1.5845478e-05
0.011262909
-1.4424289e-05
0.011257685
-1.3070917e-05
0.011252916
-1.1783962e-05
0.011248583
-1.0563461e-05
0.011244664
-9.4105707e-06
0.01124114
-8.3271324e-06
0.01123799
-7.3153096e-06
0.011235195
-6.3771763e-06
0.011232731
-5.5143951e-06
0.011230577
-4.7279227e-06
0.011228709
-4.0178117e-06
0.011227103
-3.383088e-06
0.011225735
-2.8217097e-06
0.011224581
-2.3306183e-06
0.011223616
-1.9058323e-06
0.011222818
-1.5426271e-06
0.011222165
-1.2357052e-06
0.011221636
-9.7943212e-07
0.011221212
-7.6801508e-07
0.011220876
-5.957254e-07
0.011220613
-4.5702897e-07
0.011220409
-3.4675369e-07
0.011220252
-2.6014857e-07
0.011220134
-1.9298133e-07
0.011220045
-1.4152757e-07
0.01121998
-1.0260852e-07
0.011219932
-7.3529716e-08
0.011219897
-5.2081917e-08
0.011219873
-3.6453412e-08
0.011219855
-2.5215996e-08
0.011219843
-1.7230414e-08
0.011219835
-1.1635392e-08
0.011219829
-7.7576887e-09
0.011219826
-5.112975e-09
0.011219823
-3.3241154e-09
0.011219821
-2.13891e-09
0.01121982
-1.3546119e-09
0.01121982
-8.5283411e-10
0.011219819
-5.2483383e-10
0.011219819
-3.2568815e-10
0.011219819
-1.927312e-10
0.011219819
-1.210824e-10
0.011219819
-6.5863069e-11
0.011219819
-4.6048006e-11
0.011219819
-1.9143268e-11
0.011219819
-2.2252043e-11
0.011219819
-5.4581551e-12
0.011219819
-2.4573372e-11
0.011219819
-1.6836493e-11
0.011219819
-5.909099e-11
0.011219819
-7.5499976e-11
0.011219819
-1.6610566e-10
0.011219819
-2.7191002e-10
0.011219819
-5.0814316e-10
0.011219819
-9.1780006e-10
0.011219819
-1.5976995e-09
0.011219819
-2.806089e-09
0.01121982
-4.1503329e-09
-5.8205259e-09
0.010339525
-0.00069380425
0.010570754
-0.0010218027
0.010606301
-0.00095449449
0.010547572
-0.00084294334
0.010422317
-0.0007173708
0.010244356
-0.00057972443
0.010039421
-0.00045169204
0.0098287427
-0.000342978
0.0096251351
-0.00025616316
0.0094353014
-0.00018991981
0.0092624278
-0.00014121894
0.0091075334
-0.00010650975
0.0089701543
-8.2320158e-05
0.0088489028
-6.5646157e-05
0.0087419723
-5.4127135e-05
0.0086474938
-4.6039891e-05
0.0085636956
-4.0194089e-05
0.0084890132
-3.5792487e-05
0.0084221132
-3.2318398e-05
0.0083618828
-2.9448794e-05
0.0083074031
-2.6987917e-05
0.0082579191
-2.4819397e-05
0.0082128091
-2.2874217e-05
0.0081715588
-2.1110622e-05
0.008133739
-1.9502058e-05
0.0080989877
-1.8030197e-05
0.0080669974
-1.6681037e-05
0.0080375037
-1.5442845e-05
0.0080102779
-1.4305128e-05
0.007985121
-1.3258179e-05
0.0079618588
-1.2292883e-05
0.0079403385
-1.1400683e-05
0.0079204259
-1.0573572e-05
0.0079020032
-9.8041265e-06
0.0078849667
-9.0855278e-06
0.0078692255
-8.4116036e-06
0.0078546995
-7.77688e-06
0.0078413182
-7.176617e-06
0.007829019
-6.60686e-06
0.0078177458
-6.0644387e-06
0.0078074473
-5.5469925e-06
0.007798076
-5.0529096e-06
0.0077895863
-4.581306e-06
0.0077819343
-4.1318981e-06
0.0077750757
-3.7049301e-06
0.0077689662
-3.3010004e-06
0.00776356
-2.9209574e-06
0.0077588104
-2.5657171e-06
0.0077546694
-2.2361572e-06
0.007751088
-1.9329683e-06
0.0077480167
-1.6565746e-06
0.0077454059
-1.4070512e-06
0.0077432069
-1.1840885e-06
0.0077413722
-9.869873e-07
0.0077398563
-8.1466557e-07
0.0077386162
-6.6572017e-07
0.0077376121
-5.3846279e-07
0.0077368074
-4.3102001e-07
0.0077361694
-3.4137698e-07
0.0077356689
-2.674957e-07
0.0077352805
-2.0733943e-07
0.0077349825
-1.5896329e-07
0.0077347563
-1.205306e-07
0.0077345865
-9.0378573e-08
0.0077344605
-6.7008773e-08
0.0077343682
-4.9124238e-08
0.0077343012
-3.5601797e-08
0.0077342532
-2.550852e-08
0.0077342192
-1.8064255e-08
0.0077341954
-1.2645779e-08
0.0077341789
-8.7475678e-09
0.0077341677
-5.9813257e-09
0.0077341601
-4.0402707e-09
0.0077341551
-2.6979842e-09
0.0077341518
-1.779306e-09
0.0077341496
-1.1604735e-09
0.0077341482
-7.4748152e-10
0.0077341474
-4.7653295e-10
0.0077341468
-3.0034351e-10
0.0077341465
-1.8732541e-10
0.0077341463
-1.1629911e-10
0.0077341462
-7.0816186e-11
0.0077341461
-4.4319276e-11
0.0077341461
-2.5482293e-11
0.007734146
-1.764022e-11
0.007734146
-8.2788957e-12
0.007734146
-9.9716922e-12
0.007734146
-4.7441426e-12
0.007734146
-1.5922506e-11
0.007734146
-1.5160268e-11
0.007734146
-3.8336865e-11
0.0077341459
-4.3538551e-11
0.0077341458
-9.1777415e-11
0.0077341457
-1.2791972e-10
0.0077341455
-2.6918478e-10
0.0077341451
-4.8229317e-10
0.0077341444
-9.7317179e-10
0.0077341433
-1.7503788e-09
0.0077341423
-3.1375223e-09
-4.5732925e-09
0.0093061957
0.0082843931
0.0073298986
0.0064869553
0.0057695845
0.00518986
0.004738168
0.00439519
0.0041390268
0.003949107
0.0038078881
0.0037013783
0.0036190582
0.003553412
0.0034992849
0.003453245
0.0034130509
0.0033772584
0.00334494
0.0033154912
0.0032885033
0.0032636839
0.0032408096
0.003219699
0.0032001969
0.0031821667
0.0031654857
0.0031500428
0.0031357377
0.0031224795
0.0031101866
0.0030987859
0.0030882124
0.0030784082
0.0030693227
0.0030609111
0.0030531342
0.0030459576
0.0030393508
0.0030332863
0.0030277393
0.0030226864
0.0030181051
0.0030139732
0.0030102683
0.0030069673
0.0030040463
0.0030014806
0.0029992445
0.0029973115
0.0029956549
0.0029942479
0.0029930638
0.0029920768
0.0029912622
0.0029905965
0.002990058
0.002989627
0.0029892856
0.0029890182
0.0029888108
0.0029886519
0.0029885314
0.002988441
0.002988374
0.0029883249
0.0029882893
0.0029882638
0.0029882457
0.0029882331
0.0029882243
0.0029882184
0.0029882143
0.0029882116
0.0029882099
0.0029882087
0.002988208
0.0029882075
0.0029882072
0.002988207
0.0029882069
0.0029882068
0.0029882068
0.0029882068
0.0029882067
0.0029882067
0.0029882067
0.0029882067
0.0029882067
0.0029882067
0.0029882066
0.0029882066
0.0029882065
0.0029882064
0.0029882061
0.0029882057
0.0029882047
0.0029882029
0.0029881997
)
;

boundaryField
{
    top
    {
        type            calculated;
        value           uniform 0;
    }
    inlet
    {
        type            calculated;
        value           nonuniform List<scalar> 10(-0.01 -0.01 -0.01 -0.01 -0.01 -0.01 -0.01 -0.01 -0.01 -0.01);
    }
    outlet
    {
        type            calculated;
        value           nonuniform List<scalar> 10(0.0029881951 0.0077341408 0.01121982 0.013478195 0.014579649 0.014579649 0.013478195 0.011219821 0.007734141 0.0029881952);
    }
    bottom
    {
        type            calculated;
        value           uniform 0;
    }
    back
    {
        type            empty;
        value           nonuniform 0();
    }
    front
    {
        type            empty;
        value           nonuniform 0();
    }
}


// ************************************************************************* //
