/*--------------------------------*- C++ -*----------------------------------*\
| =========                 |                                                 |
| \\      /  F ield         | OpenFOAM: The Open Source CFD Toolbox           |
|  \\    /   O peration     | Version:  v1812                                 |
|   \\  /    A nd           | Web:      www.OpenFOAM.com                      |
|    \\/     M anipulation  |                                                 |
\*---------------------------------------------------------------------------*/
FoamFile
{
    version     2.0;
    format      ascii;
    class       volVectorField;
    location    "3.7";
    object      U;
}
// * * * * * * * * * * * * * * * * * * * * * * * * * * * * * * * * * * * * * //

dimensions      [0 1 -1 0 0 0 0];


internalField   nonuniform List<vector> 
1000
(
(0.91890839 0.035821913 0)
(0.86271384 0.062195638 0)
(0.7870597 0.062510085 0)
(0.69536033 0.054550384 0)
(0.61089749 0.044531612 0)
(0.54411605 0.034015881 0)
(0.49343038 0.024187381 0)
(0.45479461 0.016143934 0)
(0.42544665 0.0102653 0)
(0.40347441 0.0063035073 0)
(0.38715953 0.0037968222 0)
(0.37496493 0.0023091594 0)
(0.36566598 0.0014911984 0)
(0.35836872 0.0010825089 0)
(0.35245139 0.00090261482 0)
(0.34749445 0.00083660859 0)
(0.34322105 0.00081798251 0)
(0.33945192 0.00081186837 0)
(0.33607248 0.00080231535 0)
(0.33300945 0.00078373975 0)
(0.33021512 0.00075563021 0)
(0.32765725 0.00071958435 0)
(0.32531307 0.00067780954 0)
(0.32316562 0.0006324067 0)
(0.32120171 0.00058506498 0)
(0.31941063 0.000537017 0)
(0.31778337 0.00048913234 0)
(0.31631206 0.0004420482 0)
(0.31498953 0.00039625668 0)
(0.31380884 0.00035216346 0)
(0.31276299 0.0003101155 0)
(0.31184464 0.00027042599 0)
(0.31104597 0.00023337331 0)
(0.31035857 0.00019919615 0)
(0.3097735 0.00016807485 0)
(0.30928138 0.00014012198 0)
(0.30887255 0.0001153729 0)
(0.30853728 9.3785318e-05 0)
(0.30826601 7.5241977e-05 0)
(0.30804955 5.955656e-05 0)
(0.30787927 4.6491798e-05 0)
(0.30774726 3.5779055e-05 0)
(0.30764642 2.7135612e-05 0)
(0.30757056 2.0274522e-05 0)
(0.30751436 1.4918944e-05 0)
(0.30747338 1.0807913e-05 0)
(0.30744396 7.7064395e-06 0)
(0.30742319 5.4061501e-06 0)
(0.30740877 3.7303505e-06 0)
(0.30739892 2.5303515e-06 0)
(0.3073923 1.6870032e-06 0)
(0.30738795 1.1045003e-06 0)
(0.30738513 7.1019655e-07 0)
(0.30738334 4.4775165e-07 0)
(0.30738222 2.7707664e-07 0)
(0.30738154 1.6773666e-07 0)
(0.30738113 9.9793171e-08 0)
(0.3073809 5.7843318e-08 0)
(0.30738076 3.3203145e-08 0)
(0.30738069 1.8425287e-08 0)
(0.30738065 1.0470416e-08 0)
(0.30738063 5.6468443e-09 0)
(0.30738061 3.417369e-09 0)
(0.30738061 1.907038e-09 0)
(0.3073806 1.3834019e-09 0)
(0.30738061 9.0830976e-10 0)
(0.3073806 7.1556668e-10 0)
(0.3073806 6.1190288e-10 0)
(0.3073806 4.2638866e-10 0)
(0.3073806 4.8238016e-10 0)
(0.3073806 2.5884084e-10 0)
(0.3073806 3.452083e-10 0)
(0.30738059 2.1587668e-10 0)
(0.3073806 1.9479689e-10 0)
(0.30738059 2.1094805e-10 0)
(0.3073806 1.3628326e-11 0)
(0.30738059 2.4935207e-10 0)
(0.3073806 -3.6989639e-11 0)
(0.30738059 2.810989e-10 0)
(0.3073806 -7.5768534e-11 0)
(0.30738059 3.7647863e-10 0)
(0.3073806 -1.2673878e-10 0)
(0.30738059 5.4087542e-10 0)
(0.3073806 -2.1526e-10 0)
(0.30738059 8.7605798e-10 0)
(0.3073806 -1.4936575e-10 0)
(0.30738059 1.5203194e-09 0)
(0.3073806 5.6149686e-10 0)
(0.30738058 3.3178517e-09 0)
(0.30738059 3.18839e-09 0)
(0.30738056 8.1851715e-09 0)
(0.30738058 1.0072714e-08 0)
(0.30738053 2.1210199e-08 0)
(0.30738054 3.1472745e-08 0)
(0.30738042 6.5563262e-08 0)
(0.3073804 1.1444478e-07 0)
(0.30738008 2.2320932e-07 0)
(0.30737988 3.8327338e-07 0)
(0.30737878 6.5502216e-07 0)
(0.30737789 8.9679861e-07 0)
(1.0016583 0.05381943 0)
(1.0359761 0.10128443 0)
(1.0597199 0.11073662 0)
(1.0628947 0.10592199 0)
(1.0515569 0.096228664 0)
(1.0340529 0.08393393 0)
(1.0142796 0.070326825 0)
(0.99360725 0.056980935 0)
(0.97292629 0.045106856 0)
(0.9531084 0.03523583 0)
(0.93479708 0.027400332 0)
(0.91829289 0.021385367 0)
(0.90362831 0.016881841 0)
(0.89068801 0.013565811 0)
(0.87929347 0.011141988 0)
(0.86925058 0.0093652758 0)
(0.86037165 0.0080448608 0)
(0.85248735 0.0070397092 0)
(0.84545208 0.0062501268 0)
(0.83914449 0.0056081262 0)
(0.83346529 0.0050682892 0)
(0.82833427 0.0046003671 0)
(0.82368712 0.0041841301 0)
(0.81947249 0.0038060508 0)
(0.81564926 0.0034570799 0)
(0.81218443 0.0031311209 0)
(0.80905121 0.0028240981 0)
(0.80622752 0.0025334717 0)
(0.80369456 0.0022579356 0)
(0.8014356 0.0019971379 0)
(0.79943499 0.0017513924 0)
(0.79767739 0.0015214246 0)
(0.79614717 0.0013081476 0)
(0.79482813 0.0011124655 0)
(0.79370334 0.00093509991 0)
(0.79275518 0.00077646241 0)
(0.79196563 0.00063657691 0)
(0.79131652 0.00051505366 0)
(0.79078995 0.00041110338 0)
(0.79036865 0.00032358387 0)
(0.79003634 0.00025107855 0)
(0.78977804 0.00019198963 0)
(0.78958025 0.0001446307 0)
(0.78943109 0.00010730763 0)
(0.78932036 7.8391367e-05 0)
(0.78923944 5.6369725e-05 0)
(0.78918127 3.9887798e-05 0)
(0.78914012 2.7765401e-05 0)
(0.7891115 1.9006272e-05 0)
(0.78909194 1.2788659e-05 0)
(0.7890788 8.4550846e-06 0)
(0.78907014 5.4890427e-06 0)
(0.78906453 3.4976758e-06 0)
(0.78906096 2.1853281e-06 0)
(0.78905875 1.3385246e-06 0)
(0.7890574 8.0221818e-07 0)
(0.78905659 4.7105462e-07 0)
(0.78905613 2.6990177e-07 0)
(0.78905586 1.5199003e-07 0)
(0.78905571 8.3260656e-08 0)
(0.78905563 4.5643303e-08 0)
(0.7890556 2.4445784e-08 0)
(0.78905557 1.3855519e-08 0)
(0.78905556 8.0487051e-09 0)
(0.78905555 5.1894399e-09 0)
(0.78905556 4.0049401e-09 0)
(0.78905554 2.6765152e-09 0)
(0.78905555 2.9323179e-09 0)
(0.78905554 1.626146e-09 0)
(0.78905555 2.337158e-09 0)
(0.78905554 1.0878742e-09 0)
(0.78905555 1.6340767e-09 0)
(0.78905553 9.713688e-10 0)
(0.78905554 8.3823946e-10 0)
(0.78905553 1.1317517e-09 0)
(0.78905554 1.3039993e-10 0)
(0.78905553 1.3130577e-09 0)
(0.78905554 -2.3857744e-10 0)
(0.78905553 1.3730527e-09 0)
(0.78905554 -3.3071509e-10 0)
(0.78905553 1.4407112e-09 0)
(0.78905554 -3.442967e-10 0)
(0.78905552 1.7487327e-09 0)
(0.78905554 -4.4171872e-10 0)
(0.78905552 2.457018e-09 0)
(0.78905555 -2.4915528e-10 0)
(0.78905551 3.905949e-09 0)
(0.78905555 1.237272e-09 0)
(0.7890555 7.6860856e-09 0)
(0.78905556 6.3583658e-09 0)
(0.78905547 1.7986441e-08 0)
(0.78905557 2.115379e-08 0)
(0.7890554 4.5192413e-08 0)
(0.78905557 6.6361217e-08 0)
(0.78905524 1.2849097e-07 0)
(0.78905554 2.2226811e-07 0)
(0.78905483 4.0090983e-07 0)
(0.78905535 6.9920036e-07 0)
(0.78905349 1.0958659e-06 0)
(0.78905486 1.6607065e-06 0)
(1.0014244 0.026824854 0)
(1.0291272 0.062791347 0)
(1.0654291 0.077736539 0)
(1.098962 0.080597161 0)
(1.1253148 0.078285089 0)
(1.1450529 0.073153751 0)
(1.1594857 0.066111014 0)
(1.1694285 0.058161615 0)
(1.1755351 0.050296044 0)
(1.1785735 0.043149618 0)
(1.1793567 0.036971158 0)
(1.1785946 0.031769147 0)
(1.17683 0.027448187 0)
(1.1744516 0.023881307 0)
(1.171729 0.020939357 0)
(1.1688456 0.018503498 0)
(1.1659222 0.016470252 0)
(1.1630367 0.014753829 0)
(1.1602381 0.01328609 0)
(1.1575557 0.012014573 0)
(1.1550055 0.010899262 0)
(1.1525947 0.0099091948 0)
(1.1503258 0.0090199592 0)
(1.1481981 0.008212216 0)
(1.1462094 0.0074707164 0)
(1.1443564 0.0067834626 0)
(1.1426354 0.0061411057 0)
(1.141043 0.0055366574 0)
(1.1395757 0.0049653515 0)
(1.1382305 0.0044244367 0)
(1.1370045 0.0039128572 0)
(1.1358948 0.0034308719 0)
(1.1348983 0.0029796558 0)
(1.1340114 0.0025608853 0)
(1.13323 0.0021763277 0)
(1.1325489 0.0018274755 0)
(1.1319623 0.0015152626 0)
(1.1314634 0.0012398806 0)
(1.1310448 0.0010006952 0)
(1.1306983 0.00079625814 0)
(1.1304157 0.00062439458 0)
(1.1301886 0.00048234644 0)
(1.1300089 0.00036695253 0)
(1.129869 0.00027483879 0)
(1.1297617 0.00020259868 0)
(1.1296808 0.00014694662 0)
(1.1296208 0.00010483803 0)
(1.129577 7.3548776e-05 0)
(1.1295456 5.07201e-05 0)
(1.1295235 3.436806e-05 0)
(1.1295082 2.2872141e-05 0)
(1.1294978 1.4941094e-05 0)
(1.1294908 9.5747359e-06 0)
(1.1294862 6.0137959e-06 0)
(1.1294833 3.6995732e-06 0)
(1.1294814 2.2257777e-06 0)
(1.1294803 1.3091316e-06 0)
(1.1294796 7.5068281e-07 0)
(1.1294792 4.2042302e-07 0)
(1.1294789 2.2881653e-07 0)
(1.1294788 1.2220069e-07 0)
(1.1294787 6.3830707e-08 0)
(1.1294787 3.3430134e-08 0)
(1.1294787 1.8477489e-08 0)
(1.1294787 1.0306426e-08 0)
(1.1294787 8.0161095e-09 0)
(1.1294786 4.7626205e-09 0)
(1.1294787 5.7670663e-09 0)
(1.1294786 3.1886691e-09 0)
(1.1294787 4.5656496e-09 0)
(1.1294786 2.6664107e-09 0)
(1.1294787 2.9959738e-09 0)
(1.1294786 2.7573263e-09 0)
(1.1294787 1.2533175e-09 0)
(1.1294786 3.0837694e-09 0)
(1.1294787 2.1595359e-12 0)
(1.1294786 3.0894254e-09 0)
(1.1294787 -3.3122388e-10 0)
(1.1294786 2.5253183e-09 0)
(1.1294787 7.5850627e-11 0)
(1.1294786 1.9617408e-09 0)
(1.1294787 4.2866541e-10 0)
(1.1294786 2.1721944e-09 0)
(1.1294787 2.865518e-10 0)
(1.1294786 3.3919892e-09 0)
(1.1294787 3.6490688e-10 0)
(1.1294786 5.5179868e-09 0)
(1.1294787 2.4472861e-09 0)
(1.1294786 9.8343365e-09 0)
(1.1294787 9.6868887e-09 0)
(1.1294785 2.1052866e-08 0)
(1.1294788 2.9779816e-08 0)
(1.1294784 5.2194863e-08 0)
(1.1294789 8.90383e-08 0)
(1.1294783 1.4828647e-07 0)
(1.1294791 2.7506236e-07 0)
(1.129478 4.3851905e-07 0)
(1.1294793 7.7066238e-07 0)
(1.1294772 1.0873267e-06 0)
(1.1294801 1.5928504e-06 0)
(1.0007347 0.011814722 0)
(1.0178472 0.030860923 0)
(1.0462163 0.041434431 0)
(1.0799017 0.045193541 0)
(1.1132663 0.045502287 0)
(1.1437818 0.044080197 0)
(1.1708938 0.041439786 0)
(1.1945682 0.037973337 0)
(1.2148575 0.034195182 0)
(1.231964 0.03053603 0)
(1.2462664 0.02722069 0)
(1.2582311 0.024311814 0)
(1.2683091 0.021794671 0)
(1.2768808 0.019628711 0)
(1.2842454 0.017766232 0)
(1.2906336 0.01615833 0)
(1.2962225 0.014759236 0)
(1.3011494 0.013529008 0)
(1.3055218 0.012434783 0)
(1.3094235 0.01145076 0)
(1.3129199 0.010557039 0)
(1.3160621 0.0097379748 0)
(1.3188909 0.008980887 0)
(1.3214396 0.0082754251 0)
(1.3237354 0.007613224 0)
(1.3258 0.0069875422 0)
(1.3276516 0.0063929632 0)
(1.3293052 0.0058253087 0)
(1.3307739 0.0052816836 0)
(1.3320695 0.0047604786 0)
(1.3332031 0.0042612726 0)
(1.3341853 0.0037846654 0)
(1.3350274 0.0033320753 0)
(1.3357405 0.0029054844 0)
(1.3363367 0.0025071429 0)
(1.3368282 0.0021392546 0)
(1.3372271 0.0018036912 0)
(1.3375459 0.0015017564 0)
(1.3377963 0.0012340247 0)
(1.3379895 0.0010002573 0)
(1.3381359 0.00079940138 0)
(1.3382446 0.00062966238 0)
(1.3383237 0.00048863496 0)
(1.33838 0.00037347044 0)
(1.3384191 0.00028105854 0)
(1.3384455 0.00020820424 0)
(1.338463 0.00015178296 0)
(1.3384741 0.00010886443 0)
(1.3384809 7.6800696e-05 0)
(1.3384849 5.3276486e-05 0)
(1.338487 3.6329959e-05 0)
(1.3384881 2.4343883e-05 0)
(1.3384886 1.6023107e-05 0)
(1.3384887 1.035377e-05 0)
(1.3384886 6.5654225e-06 0)
(1.3384885 4.0819604e-06 0)
(1.3384884 2.4877545e-06 0)
(1.3384883 1.4841489e-06 0)
(1.3384882 8.6731507e-07 0)
(1.3384881 4.9556657e-07 0)
(1.3384881 2.7774279e-07 0)
(1.3384881 1.5294858e-07 0)
(1.338488 8.307672e-08 0)
(1.338488 4.6160778e-08 0)
(1.338488 2.5169672e-08 0)
(1.338488 1.6501259e-08 0)
(1.338488 9.4857519e-09 0)
(1.338488 8.7358375e-09 0)
(1.338488 5.4251666e-09 0)
(1.338488 5.8544128e-09 0)
(1.338488 4.4642611e-09 0)
(1.338488 3.6051933e-09 0)
(1.338488 4.4185834e-09 0)
(1.338488 1.6069819e-09 0)
(1.338488 4.3615924e-09 0)
(1.338488 4.7577879e-10 0)
(1.338488 3.7073875e-09 0)
(1.338488 5.3532786e-10 0)
(1.338488 2.5403632e-09 0)
(1.338488 1.2102785e-09 0)
(1.338488 1.7800412e-09 0)
(1.338488 1.4626913e-09 0)
(1.338488 2.2216703e-09 0)
(1.338488 1.0706721e-09 0)
(1.3384879 3.6964549e-09 0)
(1.338488 1.1983232e-09 0)
(1.3384879 5.5384307e-09 0)
(1.3384881 3.7687591e-09 0)
(1.3384879 8.7028738e-09 0)
(1.3384881 1.1103396e-08 0)
(1.3384878 1.7356329e-08 0)
(1.3384882 2.8727536e-08 0)
(1.3384877 4.2081697e-08 0)
(1.3384884 7.8073528e-08 0)
(1.3384876 1.1861215e-07 0)
(1.3384887 2.2492755e-07 0)
(1.3384875 3.3734471e-07 0)
(1.3384893 5.7849031e-07 0)
(1.338487 7.7666484e-07 0)
(1.3384907 1.0902383e-06 0)
(1.0005903 0.0034629165 0)
(1.0136865 0.0093660202 0)
(1.0370283 0.013046806 0)
(1.0674202 0.014563255 0)
(1.1000314 0.014854508 0)
(1.1316426 0.014564959 0)
(1.1610741 0.013888279 0)
(1.1880668 0.012919136 0)
(1.2125195 0.011806323 0)
(1.2343924 0.010696131 0)
(1.2538052 0.0096722558 0)
(1.27103 0.0087620366 0)
(1.2863948 0.0079647346 0)
(1.3002014 0.0072702656 0)
(1.3126955 0.0066657793 0)
(1.3240688 0.0061373838 0)
(1.3344721 0.0056715084 0)
(1.3440253 0.0052559945 0)
(1.352825 0.0048807273 0)
(1.360949 0.0045377919 0)
(1.3684594 0.0042211795 0)
(1.375406 0.0039262513 0)
(1.38183 0.0036492983 0)
(1.3877659 0.0033873319 0)
(1.3932432 0.0031379839 0)
(1.3982864 0.0028993812 0)
(1.4029162 0.0026700373 0)
(1.4071505 0.0024488179 0)
(1.4110055 0.0022349711 0)
(1.4144959 0.0020281445 0)
(1.4176359 0.0018283728 0)
(1.42044 0.0016360363 0)
(1.4229236 0.0014518119 0)
(1.4251032 0.0012765968 0)
(1.4269972 0.0011114157 0)
(1.4286252 0.00095730774 0)
(1.4300087 0.0008152196 0)
(1.4311702 0.00068590757 0)
(1.432133 0.0005698625 0)
(1.4329204 0.00046726095 0)
(1.4335556 0.00037794626 0)
(1.4340609 0.00030144116 0)
(1.4344568 0.00023698377 0)
(1.4347626 0.00018358674 0)
(1.4349951 0.00014010331 0)
(1.4351692 0.00010530163 0)
(1.4352975 7.7929756e-05 0)
(1.4353905 5.6776534e-05 0)
(1.435457 4.0713984e-05 0)
(1.4355036 2.8731146e-05 0)
(1.4355357 1.9948428e-05 0)
(1.4355576 1.3624991e-05 0)
(1.4355721 9.1525119e-06 0)
(1.4355817 6.0457208e-06 0)
(1.4355878 3.9262275e-06 0)
(1.4355917 2.50655e-06 0)
(1.4355941 1.5730872e-06 0)
(1.4355955 9.7074991e-07 0)
(1.4355964 5.8944402e-07 0)
(1.4355969 3.5281256e-07 0)
(1.4355971 2.0855357e-07 0)
(1.4355973 1.2280926e-07 0)
(1.4355974 7.2001862e-08 0)
(1.4355974 4.3599853e-08 0)
(1.4355974 2.6353999e-08 0)
(1.4355975 1.797612e-08 0)
(1.4355974 1.1701846e-08 0)
(1.4355975 9.595386e-09 0)
(1.4355975 6.7925425e-09 0)
(1.4355975 6.1459128e-09 0)
(1.4355975 4.9292017e-09 0)
(1.4355975 4.0614159e-09 0)
(1.4355975 4.0635378e-09 0)
(1.4355975 2.5755531e-09 0)
(1.4355975 3.4294234e-09 0)
(1.4355975 1.7624605e-09 0)
(1.4355975 2.6976435e-09 0)
(1.4355975 1.6446234e-09 0)
(1.4355975 1.9506217e-09 0)
(1.4355975 1.8725989e-09 0)
(1.4355975 1.6163941e-09 0)
(1.4355975 1.955227e-09 0)
(1.4355974 1.9984645e-09 0)
(1.4355975 1.9080906e-09 0)
(1.4355974 2.9153017e-09 0)
(1.4355975 2.3567415e-09 0)
(1.4355974 4.0811823e-09 0)
(1.4355976 4.2370302e-09 0)
(1.4355974 6.0556182e-09 0)
(1.4355976 8.4286362e-09 0)
(1.4355973 1.0456243e-08 0)
(1.4355978 1.6203825e-08 0)
(1.4355972 2.031224e-08 0)
(1.435598 3.499958e-08 0)
(1.4355971 4.897989e-08 0)
(1.4355984 8.9276818e-08 0)
(1.4355971 1.287084e-07 0)
(1.4355991 2.1393621e-07 0)
(1.4355968 2.7954532e-07 0)
(1.4356008 3.8248417e-07 0)
(1.0005903 -0.0034629147 0)
(1.0136865 -0.0093660142 0)
(1.0370283 -0.013046795 0)
(1.0674202 -0.014563239 0)
(1.1000314 -0.014854485 0)
(1.1316426 -0.014564927 0)
(1.1610741 -0.013888234 0)
(1.1880668 -0.012919078 0)
(1.2125195 -0.011806252 0)
(1.2343924 -0.010696048 0)
(1.2538052 -0.0096721643 0)
(1.2710301 -0.0087619406 0)
(1.2863948 -0.0079646385 0)
(1.3002015 -0.0072701745 0)
(1.3126955 -0.0066656989 0)
(1.3240689 -0.0061373204 0)
(1.3344721 -0.005671467 0)
(1.3440253 -0.0052559795 0)
(1.352825 -0.0048807404 0)
(1.360949 -0.0045378351 0)
(1.3684594 -0.0042212523 0)
(1.375406 -0.0039263519 0)
(1.3818299 -0.003649422 0)
(1.3877659 -0.0033874739 0)
(1.3932432 -0.0031381376 0)
(1.3982863 -0.0028995402 0)
(1.4029161 -0.0026701955 0)
(1.4071504 -0.0024489691 0)
(1.4110054 -0.0022351112 0)
(1.4144957 -0.0020282694 0)
(1.4176358 -0.0018284817 0)
(1.4204399 -0.0016361284 0)
(1.4229235 -0.0014518892 0)
(1.4251031 -0.001276661 0)
(1.426997 -0.0011114701 0)
(1.4286251 -0.00095735512 0)
(1.4300086 -0.00081526314 0)
(1.4311702 -0.00068594948 0)
(1.4321329 -0.00056990418 0)
(1.4329203 -0.00046730304 0)
(1.4335556 -0.00037798821 0)
(1.4340608 -0.00030148207 0)
(1.4344567 -0.00023702179 0)
(1.4347625 -0.00018362025 0)
(1.434995 -0.00014013035 0)
(1.4351691 -0.00010532092 0)
(1.4352974 -7.7940185e-05 0)
(1.4353905 -5.6777704e-05 0)
(1.4354569 -4.0706211e-05 0)
(1.4355035 -2.8715025e-05 0)
(1.4355357 -1.9925094e-05 0)
(1.4355575 -1.3595629e-05 0)
(1.435572 -9.1187609e-06 0)
(1.4355816 -6.0088172e-06 0)
(1.4355877 -3.8877582e-06 0)
(1.4355916 -2.4674596e-06 0)
(1.435594 -1.534648e-06 0)
(1.4355955 -9.3345954e-07 0)
(1.4355963 -5.5417364e-07 0)
(1.4355968 -3.1965951e-07 0)
(1.4355971 -1.7809638e-07 0)
(1.4355973 -9.486413e-08 0)
(1.4355973 -4.6910861e-08 0)
(1.4355974 -2.1001817e-08 0)
(1.4355974 -6.492757e-09 0)
(1.4355975 -3.5718912e-10 0)
(1.4355974 3.5445317e-09 0)
(1.4355975 3.7975769e-09 0)
(1.4355974 4.6051975e-09 0)
(1.4355975 3.81183e-09 0)
(1.4355974 3.4751994e-09 0)
(1.4355975 3.3273146e-09 0)
(1.4355975 2.1141698e-09 0)
(1.4355975 2.9494702e-09 0)
(1.4355975 1.2464189e-09 0)
(1.4355975 2.5536723e-09 0)
(1.4355975 1.0267777e-09 0)
(1.4355975 1.9540808e-09 0)
(1.4355974 1.3069226e-09 0)
(1.4355975 1.4893247e-09 0)
(1.4355974 1.5965454e-09 0)
(1.4355975 1.5625601e-09 0)
(1.4355974 1.6164406e-09 0)
(1.4355975 2.263967e-09 0)
(1.4355974 1.5996182e-09 0)
(1.4355975 3.0507116e-09 0)
(1.4355974 2.0884033e-09 0)
(1.4355976 3.4068497e-09 0)
(1.4355973 2.9602097e-09 0)
(1.4355976 2.5740869e-09 0)
(1.4355973 1.9732541e-09 0)
(1.4355978 -2.5530971e-09 0)
(1.4355972 -6.9169561e-09 0)
(1.435598 -2.2091301e-08 0)
(1.4355971 -3.7489674e-08 0)
(1.4355984 -7.832794e-08 0)
(1.4355971 -1.1911073e-07 0)
(1.4355991 -2.064761e-07 0)
(1.4355968 -2.758295e-07 0)
(1.4356008 -3.8136e-07 0)
(1.0007347 -0.01181472 0)
(1.0178472 -0.030860917 0)
(1.0462163 -0.041434421 0)
(1.0799017 -0.045193526 0)
(1.1132663 -0.045502266 0)
(1.1437818 -0.044080167 0)
(1.1708938 -0.041439746 0)
(1.1945682 -0.037973286 0)
(1.2148575 -0.03419512 0)
(1.231964 -0.030535958 0)
(1.2462665 -0.027220613 0)
(1.2582311 -0.024311733 0)
(1.2683092 -0.021794591 0)
(1.2768808 -0.019628636 0)
(1.2842455 -0.017766167 0)
(1.2906337 -0.016158278 0)
(1.2962226 -0.014759202 0)
(1.3011495 -0.013528992 0)
(1.3055219 -0.012434789 0)
(1.3094236 -0.011450786 0)
(1.3129199 -0.010557086 0)
(1.3160621 -0.00973804 0)
(1.3188909 -0.0089809675 0)
(1.3214396 -0.0082755166 0)
(1.3237352 -0.0076133229 0)
(1.3257998 -0.0069876442 0)
(1.3276513 -0.0063930652 0)
(1.3293049 -0.0058254079 0)
(1.3307736 -0.0052817782 0)
(1.3320692 -0.0047605675 0)
(1.3332027 -0.0042613555 0)
(1.334185 -0.0037847427 0)
(1.335027 -0.0033321475 0)
(1.3357402 -0.0029055523 0)
(1.3363365 -0.0025072073 0)
(1.3368279 -0.0021393163 0)
(1.3372269 -0.0018037505 0)
(1.3375456 -0.0015018135 0)
(1.3377961 -0.0012340792 0)
(1.3379893 -0.0010003087 0)
(1.3381357 -0.00079944836 0)
(1.3382444 -0.00062970411 0)
(1.3383235 -0.00048867004 0)
(1.3383797 -0.0003734982 0)
(1.3384188 -0.00028107798 0)
(1.3384453 -0.00020821542 0)
(1.3384627 -0.00015178555 0)
(1.3384738 -0.0001088594 0)
(1.3384806 -7.6788246e-05 0)
(1.3384846 -5.3258195e-05 0)
(1.3384868 -3.6306428e-05 0)
(1.3384879 -2.4316964e-05 0)
(1.3384884 -1.5993385e-05 0)
(1.3384885 -1.0322981e-05 0)
(1.3384885 -6.5338305e-06 0)
(1.3384884 -4.0510256e-06 0)
(1.3384883 -2.4573987e-06 0)
(1.3384882 -1.4555265e-06 0)
(1.3384881 -8.4002505e-07 0)
(1.338488 -4.7054318e-07 0)
(1.338488 -2.5438365e-07 0)
(1.338488 -1.3203664e-07 0)
(1.3384879 -6.386654e-08 0)
(1.338488 -2.9377678e-08 0)
(1.3384879 -9.9767892e-09 0)
(1.338488 -3.6023342e-09 0)
(1.3384879 2.0570492e-09 0)
(1.338488 8.7347245e-10 0)
(1.3384879 3.1651938e-09 0)
(1.338488 1.1427215e-09 0)
(1.338488 1.893496e-09 0)
(1.338488 1.4624076e-09 0)
(1.338488 3.1919913e-10 0)
(1.338488 2.1160422e-09 0)
(1.338488 -7.3085521e-10 0)
(1.338488 2.4172613e-09 0)
(1.338488 -7.2683424e-10 0)
(1.338488 1.8793815e-09 0)
(1.338488 1.7474164e-10 0)
(1.338488 1.1013547e-09 0)
(1.338488 9.8555685e-10 0)
(1.338488 1.0708902e-09 0)
(1.3384879 9.6832666e-10 0)
(1.338488 2.0781055e-09 0)
(1.3384879 3.3627734e-10 0)
(1.338488 3.0726708e-09 0)
(1.3384879 -4.117588e-11 0)
(1.3384881 2.4034336e-09 0)
(1.3384879 -8.7037548e-10 0)
(1.3384881 -2.3427323e-09 0)
(1.3384878 -6.9970518e-09 0)
(1.3384882 -1.811643e-08 0)
(1.3384877 -3.1427571e-08 0)
(1.3384884 -6.8605196e-08 0)
(1.3384876 -1.1017922e-07 0)
(1.3384887 -2.1730958e-07 0)
(1.3384875 -3.3046195e-07 0)
(1.3384893 -5.7312905e-07 0)
(1.3384871 -7.7350456e-07 0)
(1.3384907 -1.0884716e-06 0)
(1.0014244 -0.026824853 0)
(1.0291272 -0.062791343 0)
(1.0654292 -0.077736531 0)
(1.098962 -0.08059715 0)
(1.1253148 -0.078285073 0)
(1.1450529 -0.073153729 0)
(1.1594857 -0.066110985 0)
(1.1694285 -0.058161578 0)
(1.1755351 -0.050296001 0)
(1.1785735 -0.04314957 0)
(1.1793568 -0.036971107 0)
(1.1785947 -0.031769095 0)
(1.1768301 -0.027448138 0)
(1.1744518 -0.023881262 0)
(1.1717291 -0.020939318 0)
(1.1688458 -0.018503467 0)
(1.1659224 -0.016470229 0)
(1.1630369 -0.014753816 0)
(1.1602382 -0.013286086 0)
(1.1575558 -0.012014579 0)
(1.1550055 -0.010899275 0)
(1.1525947 -0.0099092148 0)
(1.1503257 -0.0090199848 0)
(1.148198 -0.0082122464 0)
(1.1462093 -0.00747075 0)
(1.1443562 -0.0067834999 0)
(1.1426353 -0.0061411454 0)
(1.1410428 -0.0055367011 0)
(1.1395754 -0.0049653979 0)
(1.1382302 -0.0044244877 0)
(1.1370042 -0.0039129113 0)
(1.1358945 -0.0034309304 0)
(1.134898 -0.0029797169 0)
(1.1340111 -0.0025609492 0)
(1.1332296 -0.0021763926 0)
(1.1325486 -0.0018275405 0)
(1.131962 -0.0015153261 0)
(1.1314631 -0.001239941 0)
(1.1310444 -0.0010007513 0)
(1.1306979 -0.0007963082 0)
(1.1304153 -0.00062443816 0)
(1.1301883 -0.00048238205 0)
(1.1300086 -0.00036698057 0)
(1.1298686 -0.00027485843 0)
(1.1297614 -0.00020261103 0)
(1.1296805 -0.00014695156 0)
(1.1296205 -0.00010483711 0)
(1.1295767 -7.3542327e-05 0)
(1.1295453 -5.0709682e-05 0)
(1.1295232 -3.435421e-05 0)
(1.1295079 -2.2856315e-05 0)
(1.1294975 -1.4923742e-05 0)
(1.1294906 -9.5569261e-06 0)
(1.129486 -5.9957526e-06 0)
(1.1294831 -3.682008e-06 0)
(1.1294813 -2.208726e-06 0)
(1.1294801 -1.2930604e-06 0)
(1.1294795 -7.354778e-07 0)
(1.1294791 -4.0640352e-07 0)
(1.1294789 -2.1580682e-07 0)
(1.1294787 -1.1044063e-07 0)
(1.1294787 -5.308337e-08 0)
(1.1294786 -2.3912442e-08 0)
(1.1294786 -9.9232015e-09 0)
(1.1294786 -2.9012444e-09 0)
(1.1294786 -1.4413413e-09 0)
(1.1294786 7.9470657e-10 0)
(1.1294786 -9.1897803e-10 0)
(1.1294786 8.4442887e-10 0)
(1.1294786 -1.0241303e-09 0)
(1.1294786 2.244289e-10 0)
(1.1294786 -4.1489689e-10 0)
(1.1294786 -6.5500114e-10 0)
(1.1294786 7.0803864e-10 0)
(1.1294786 -1.4542031e-09 0)
(1.1294786 1.5794284e-09 0)
(1.1294786 -1.6903479e-09 0)
(1.1294786 1.8020825e-09 0)
(1.1294786 -1.1575843e-09 0)
(1.1294787 1.4654315e-09 0)
(1.1294786 -4.2604257e-10 0)
(1.1294787 1.3988968e-09 0)
(1.1294786 -2.4655826e-10 0)
(1.1294787 2.0345022e-09 0)
(1.1294786 -8.1969427e-10 0)
(1.1294787 2.7798336e-09 0)
(1.1294786 -1.9056516e-09 0)
(1.1294787 1.9304861e-09 0)
(1.1294786 -4.8113955e-09 0)
(1.1294787 -3.7702044e-09 0)
(1.1294785 -1.475468e-08 0)
(1.1294788 -2.3234825e-08 0)
(1.1294785 -4.6081146e-08 0)
(1.1294789 -8.3831956e-08 0)
(1.1294783 -1.441114e-07 0)
(1.1294791 -2.7122105e-07 0)
(1.129478 -4.3497547e-07 0)
(1.1294794 -7.6817894e-07 0)
(1.1294772 -1.0866283e-06 0)
(1.1294801 -1.5925855e-06 0)
(1.0016583 -0.053819429 0)
(1.0359761 -0.10128443 0)
(1.0597199 -0.11073662 0)
(1.0628947 -0.10592198 0)
(1.0515569 -0.096228655 0)
(1.0340529 -0.083933918 0)
(1.0142796 -0.070326811 0)
(0.9936073 -0.056980919 0)
(0.97292635 -0.045106838 0)
(0.95310847 -0.035235812 0)
(0.93479718 -0.027400313 0)
(0.91829301 -0.021385349 0)
(0.90362843 -0.016881824 0)
(0.89068815 -0.013565795 0)
(0.87929361 -0.011141972 0)
(0.86925072 -0.0093652601 0)
(0.86037178 -0.008044845 0)
(0.85248746 -0.0070396937 0)
(0.84545219 -0.0062501113 0)
(0.83914457 -0.0056081106 0)
(0.83346535 -0.0050682741 0)
(0.8283343 -0.0046003537 0)
(0.82368714 -0.0041841195 0)
(0.81947248 -0.0038060438 0)
(0.81564924 -0.0034570774 0)
(0.81218437 -0.0031311229 0)
(0.80905113 -0.0028241055 0)
(0.80622741 -0.0025334839 0)
(0.80369442 -0.0022579531 0)
(0.80143542 -0.0019971597 0)
(0.79943478 -0.0017514185 0)
(0.79767714 -0.001521454 0)
(0.79614689 -0.00130818 0)
(0.79482782 -0.0011124999 0)
(0.793703 -0.00093513557 0)
(0.79275482 -0.00077649838 0)
(0.79196525 -0.00063661224 0)
(0.79131614 -0.00051508758 0)
(0.79078956 -0.00041113496 0)
(0.79036827 -0.00032361276 0)
(0.79003596 -0.0002511039 0)
(0.78977768 -0.00019201148 0)
(0.7895799 -0.00014464855 0)
(0.78943077 -0.00010732189 0)
(0.78932005 -7.8401823e-05 0)
(0.78923916 -5.6377063e-05 0)
(0.789181 -3.9892094e-05 0)
(0.78913988 -2.7767379e-05 0)
(0.78911128 -1.9006057e-05 0)
(0.78909175 -1.2786989e-05 0)
(0.78907862 -8.4521726e-06 0)
(0.78906998 -5.4854295e-06 0)
(0.78906438 -3.4934391e-06 0)
(0.78906084 -2.1808763e-06 0)
(0.78905863 -1.3339079e-06 0)
(0.7890573 -7.9770734e-07 0)
(0.78905651 -4.6658577e-07 0)
(0.78905606 -2.6566621e-07 0)
(0.78905579 -1.4794907e-07 0)
(0.78905567 -7.9562357e-08 0)
(0.78905559 -4.219702e-08 0)
(0.78905556 -2.1350442e-08 0)
(0.78905554 -1.1045255e-08 0)
(0.78905554 -5.5897196e-09 0)
(0.78905553 -2.9996779e-09 0)
(0.78905554 -2.1165587e-09 0)
(0.78905553 -1.0288455e-09 0)
(0.78905555 -1.5847072e-09 0)
(0.78905553 -4.1923333e-10 0)
(0.78905555 -1.3644442e-09 0)
(0.78905554 -2.5002508e-10 0)
(0.78905555 -9.6052887e-10 0)
(0.78905554 -3.5407083e-10 0)
(0.78905555 -3.0953054e-10 0)
(0.78905554 -6.138269e-10 0)
(0.78905555 2.7216483e-10 0)
(0.78905553 -8.0972154e-10 0)
(0.78905555 7.0714934e-10 0)
(0.78905553 -7.9757481e-10 0)
(0.78905555 9.1047533e-10 0)
(0.78905553 -6.7680513e-10 0)
(0.78905555 1.1680298e-09 0)
(0.78905553 -7.4490088e-10 0)
(0.78905556 1.5580198e-09 0)
(0.78905553 -1.0958309e-09 0)
(0.78905556 1.8085118e-09 0)
(0.78905553 -2.0855468e-09 0)
(0.78905557 6.8845123e-10 0)
(0.78905552 -5.7238715e-09 0)
(0.78905558 -4.6308761e-09 0)
(0.78905549 -1.6645301e-08 0)
(0.78905559 -1.9978984e-08 0)
(0.78905543 -4.3806162e-08 0)
(0.78905559 -6.4260518e-08 0)
(0.78905527 -1.2498686e-07 0)
(0.78905557 -2.1796827e-07 0)
(0.78905486 -3.9856625e-07 0)
(0.78905538 -7.0087124e-07 0)
(0.78905351 -1.0996451e-06 0)
(0.7890549 -1.6637207e-06 0)
(0.91890839 -0.035821913 0)
(0.86271384 -0.062195638 0)
(0.7870597 -0.062510084 0)
(0.69536034 -0.054550382 0)
(0.6108975 -0.044531609 0)
(0.54411606 -0.034015877 0)
(0.4934304 -0.024187378 0)
(0.45479464 -0.016143931 0)
(0.42544668 -0.010265297 0)
(0.40347444 -0.006303505 0)
(0.38715956 -0.0037968195 0)
(0.37496497 -0.0023091564 0)
(0.36566602 -0.0014911947 0)
(0.35836876 -0.001082504 0)
(0.35245143 -0.00090260787 0)
(0.34749449 -0.00083659979 0)
(0.34322109 -0.0008179719 0)
(0.33945196 -0.00081185667 0)
(0.33607252 -0.0008023026 0)
(0.3330095 -0.00078372696 0)
(0.33021516 -0.00075561828 0)
(0.32765729 -0.00071957413 0)
(0.3253131 -0.00067780179 0)
(0.32316564 -0.00063240095 0)
(0.32120172 -0.00058506201 0)
(0.31941063 -0.00053701543 0)
(0.31778335 -0.0004891332 0)
(0.31631203 -0.0004420495 0)
(0.31498948 -0.00039625988 0)
(0.31380877 -0.00035216662 0)
(0.3127629 -0.00031012018 0)
(0.31184454 -0.00027043059 0)
(0.31104585 -0.00023337913 0)
(0.31035844 -0.00019920218 0)
(0.30977337 -0.00016808179 0)
(0.30928124 -0.00014012932 0)
(0.3088724 -0.00011538059 0)
(0.30853713 -9.3793423e-05 0)
(0.30826586 -7.5249934e-05 0)
(0.3080494 -5.9564835e-05 0)
(0.30787913 -4.6499394e-05 0)
(0.30774712 -3.5786739e-05 0)
(0.30764629 -2.7142254e-05 0)
(0.30757044 -2.0281013e-05 0)
(0.30751425 -1.492416e-05 0)
(0.30747327 -1.0812839e-05 0)
(0.30744387 -7.7101057e-06 0)
(0.30742311 -5.4094953e-06 0)
(0.30740869 -3.7325542e-06 0)
(0.30739885 -2.5323533e-06 0)
(0.30739225 -1.6880944e-06 0)
(0.3073879 -1.1054865e-06 0)
(0.30738508 -7.104417e-07 0)
(0.3073833 -4.4805351e-07 0)
(0.30738219 -2.7683599e-07 0)
(0.30738151 -1.6762864e-07 0)
(0.30738111 -9.9229144e-08 0)
(0.30738088 -5.7521577e-08 0)
(0.30738075 -3.2546493e-08 0)
(0.30738068 -1.8048958e-08 0)
(0.30738064 -9.7918776e-09 0)
(0.30738062 -5.3140541e-09 0)
(0.30738061 -2.8461553e-09 0)
(0.30738061 -1.6752162e-09 0)
(0.3073806 -8.9045601e-10 0)
(0.3073806 -7.814707e-10 0)
(0.3073806 -3.1454349e-10 0)
(0.3073806 -5.5105827e-10 0)
(0.3073806 -6.5534414e-11 0)
(0.3073806 -4.7750297e-10 0)
(0.3073806 2.2984728e-11 0)
(0.3073806 -3.8572106e-10 0)
(0.3073806 5.8816645e-11 0)
(0.3073806 -2.7190613e-10 0)
(0.3073806 4.094862e-12 0)
(0.3073806 -1.4038867e-10 0)
(0.3073806 -2.5542212e-11 0)
(0.3073806 -3.4143804e-11 0)
(0.3073806 -3.2669412e-11 0)
(0.3073806 5.938871e-11 0)
(0.3073806 -2.2278078e-11 0)
(0.3073806 1.7722067e-10 0)
(0.3073806 -1.2568313e-10 0)
(0.3073806 3.7549235e-10 0)
(0.3073806 -3.3321482e-10 0)
(0.3073806 4.3283074e-10 0)
(0.3073806 -9.6734175e-10 0)
(0.30738061 -5.1514715e-10 0)
(0.30738059 -3.3094519e-09 0)
(0.3073806 -4.018357e-09 0)
(0.30738057 -9.0123996e-09 0)
(0.30738058 -1.0982667e-08 0)
(0.30738053 -2.0911387e-08 0)
(0.30738054 -2.9341501e-08 0)
(0.30738044 -6.14845e-08 0)
(0.30738042 -1.1137317e-07 0)
(0.30738009 -2.240133e-07 0)
(0.30737988 -3.8728717e-07 0)
(0.30737878 -6.5898571e-07 0)
(0.30737791 -8.9905743e-07 0)
)
;

boundaryField
{
    top
    {
        type            fixedValue;
        value           uniform (0 0 0);
    }
    inlet
    {
        type            fixedValue;
        value           uniform (1 0 0);
    }
    outlet
    {
        type            zeroGradient;
    }
    bottom
    {
        type            fixedValue;
        value           uniform (0 0 0);
    }
    back
    {
        type            empty;
    }
    front
    {
        type            empty;
    }
}


// ************************************************************************* //
