# Field minima and maxima
# Time          	field           	min             	location(min)   	max             	location(max)   
0.05            	U               	(-5.43976686e-03 -2.02527055e-03 0.00000000e+00)	(5.00000000e-02 -4.50000000e-01 5.00000000e-02)	(-5.43976686e-03 -2.02527055e-03 0.00000000e+00)	(5.00000000e-02 -4.50000000e-01 5.00000000e-02)
0.05            	p               	0.00000000e+00	(1.00000000e+01 -4.50000000e-01 5.00000000e-02)	1.71288249e+00	(2.50000000e-01 -5.00000000e-02 5.00000000e-02)
0.1             	U               	(1.58141528e-03 -2.59111401e-03 0.00000000e+00)	(5.00000000e-02 -4.50000000e-01 5.00000000e-02)	(1.58141528e-03 -2.59111401e-03 0.00000000e+00)	(5.00000000e-02 -4.50000000e-01 5.00000000e-02)
0.1             	p               	0.00000000e+00	(1.00000000e+01 -4.50000000e-01 5.00000000e-02)	1.53520000e+00	(0.00000000e+00 -4.50000000e-01 5.00000000e-02)
0.15            	U               	(8.56785631e-03 -2.38055214e-03 0.00000000e+00)	(5.00000000e-02 -4.50000000e-01 5.00000000e-02)	(8.56785631e-03 -2.38055214e-03 0.00000000e+00)	(5.00000000e-02 -4.50000000e-01 5.00000000e-02)
0.15            	p               	0.00000000e+00	(1.00000000e+01 -4.50000000e-01 5.00000000e-02)	1.53520000e+00	(0.00000000e+00 -4.50000000e-01 5.00000000e-02)
0.2             	U               	(1.53505586e-02 -2.07911577e-03 0.00000000e+00)	(5.00000000e-02 -4.50000000e-01 5.00000000e-02)	(1.53505586e-02 -2.07911577e-03 0.00000000e+00)	(5.00000000e-02 -4.50000000e-01 5.00000000e-02)
0.2             	p               	0.00000000e+00	(1.00000000e+01 -4.50000000e-01 5.00000000e-02)	1.53520000e+00	(0.00000000e+00 -4.50000000e-01 5.00000000e-02)
0.25            	U               	(2.16122767e-02 -1.76727058e-03 0.00000000e+00)	(5.00000000e-02 -4.50000000e-01 5.00000000e-02)	(2.16122767e-02 -1.76727058e-03 0.00000000e+00)	(5.00000000e-02 -4.50000000e-01 5.00000000e-02)
0.25            	p               	0.00000000e+00	(1.00000000e+01 -4.50000000e-01 5.00000000e-02)	1.53520000e+00	(0.00000000e+00 -4.50000000e-01 5.00000000e-02)
0.3             	U               	(2.74080902e-02 -1.48039261e-03 0.00000000e+00)	(5.00000000e-02 -4.50000000e-01 5.00000000e-02)	(2.74080902e-02 -1.48039261e-03 0.00000000e+00)	(5.00000000e-02 -4.50000000e-01 5.00000000e-02)
0.3             	p               	0.00000000e+00	(1.00000000e+01 -4.50000000e-01 5.00000000e-02)	1.53520000e+00	(0.00000000e+00 -4.50000000e-01 5.00000000e-02)
0.35            	U               	(3.27769961e-02 -1.22644246e-03 0.00000000e+00)	(5.00000000e-02 -4.50000000e-01 5.00000000e-02)	(3.27769961e-02 -1.22644246e-03 0.00000000e+00)	(5.00000000e-02 -4.50000000e-01 5.00000000e-02)
0.35            	p               	0.00000000e+00	(1.00000000e+01 -4.50000000e-01 5.00000000e-02)	1.53520000e+00	(0.00000000e+00 -4.50000000e-01 5.00000000e-02)
0.4             	U               	(3.77653659e-02 -1.00542842e-03 0.00000000e+00)	(5.00000000e-02 -4.50000000e-01 5.00000000e-02)	(3.77653659e-02 -1.00542842e-03 0.00000000e+00)	(5.00000000e-02 -4.50000000e-01 5.00000000e-02)
0.4             	p               	0.00000000e+00	(1.00000000e+01 -4.50000000e-01 5.00000000e-02)	1.53520000e+00	(0.00000000e+00 -4.50000000e-01 5.00000000e-02)
0.45            	U               	(4.24185797e-02 -8.14653506e-04 0.00000000e+00)	(5.00000000e-02 -4.50000000e-01 5.00000000e-02)	(4.24185797e-02 -8.14653506e-04 0.00000000e+00)	(5.00000000e-02 -4.50000000e-01 5.00000000e-02)
0.45            	p               	0.00000000e+00	(1.00000000e+01 -4.50000000e-01 5.00000000e-02)	1.53520000e+00	(0.00000000e+00 -4.50000000e-01 5.00000000e-02)
0.5             	U               	(4.67765293e-02 -6.50541932e-04 0.00000000e+00)	(5.00000000e-02 -4.50000000e-01 5.00000000e-02)	(4.67765293e-02 -6.50541932e-04 0.00000000e+00)	(5.00000000e-02 -4.50000000e-01 5.00000000e-02)
0.5             	p               	0.00000000e+00	(1.00000000e+01 -4.50000000e-01 5.00000000e-02)	1.53520000e+00	(0.00000000e+00 -4.50000000e-01 5.00000000e-02)
0.55            	U               	(5.08731184e-02 -5.09697014e-04 0.00000000e+00)	(5.00000000e-02 -4.50000000e-01 5.00000000e-02)	(5.08731184e-02 -5.09697014e-04 0.00000000e+00)	(5.00000000e-02 -4.50000000e-01 5.00000000e-02)
0.55            	p               	0.00000000e+00	(1.00000000e+01 -4.50000000e-01 5.00000000e-02)	1.53520000e+00	(0.00000000e+00 -4.50000000e-01 5.00000000e-02)
0.6             	U               	(5.47376491e-02 -3.88391968e-04 0.00000000e+00)	(5.00000000e-02 -4.50000000e-01 5.00000000e-02)	(5.47376491e-02 -3.88391968e-04 0.00000000e+00)	(5.00000000e-02 -4.50000000e-01 5.00000000e-02)
0.6             	p               	0.00000000e+00	(1.00000000e+01 -4.50000000e-01 5.00000000e-02)	1.53520000e+00	(0.00000000e+00 -4.50000000e-01 5.00000000e-02)
0.65            	U               	(5.83954440e-02 -2.82963663e-04 0.00000000e+00)	(5.00000000e-02 -4.50000000e-01 5.00000000e-02)	(5.83954440e-02 -2.82963663e-04 0.00000000e+00)	(5.00000000e-02 -4.50000000e-01 5.00000000e-02)
0.65            	p               	0.00000000e+00	(1.00000000e+01 -4.50000000e-01 5.00000000e-02)	1.53520000e+00	(0.00000000e+00 -4.50000000e-01 5.00000000e-02)
0.7             	U               	(6.18680440e-02 -1.90120412e-04 0.00000000e+00)	(5.00000000e-02 -4.50000000e-01 5.00000000e-02)	(6.18680440e-02 -1.90120412e-04 0.00000000e+00)	(5.00000000e-02 -4.50000000e-01 5.00000000e-02)
0.7             	p               	0.00000000e+00	(1.00000000e+01 -4.50000000e-01 5.00000000e-02)	1.53520000e+00	(0.00000000e+00 -4.50000000e-01 5.00000000e-02)
0.75            	U               	(6.51735001e-02 -1.06647042e-04 0.00000000e+00)	(5.00000000e-02 -4.50000000e-01 5.00000000e-02)	(6.51735001e-02 -1.06647042e-04 0.00000000e+00)	(5.00000000e-02 -4.50000000e-01 5.00000000e-02)
0.75            	p               	0.00000000e+00	(1.00000000e+01 -4.50000000e-01 5.00000000e-02)	1.53520000e+00	(0.00000000e+00 -4.50000000e-01 5.00000000e-02)
0.8             	U               	(6.83257364e-02 -2.77740131e-05 0.00000000e+00)	(5.00000000e-02 -4.50000000e-01 5.00000000e-02)	(6.83257364e-02 -2.77740131e-05 0.00000000e+00)	(5.00000000e-02 -4.50000000e-01 5.00000000e-02)
0.8             	p               	0.00000000e+00	(1.00000000e+01 -4.50000000e-01 5.00000000e-02)	1.53520000e+00	(0.00000000e+00 -4.50000000e-01 5.00000000e-02)
0.85            	U               	(7.13453098e-02 3.89556997e-05 0.00000000e+00)	(5.00000000e-02 -4.50000000e-01 5.00000000e-02)	(7.13453098e-02 3.89556997e-05 0.00000000e+00)	(5.00000000e-02 -4.50000000e-01 5.00000000e-02)
0.85            	p               	0.00000000e+00	(1.00000000e+01 -4.50000000e-01 5.00000000e-02)	1.53520000e+00	(0.00000000e+00 -4.50000000e-01 5.00000000e-02)
0.9             	U               	(7.42463884e-02 9.46489514e-05 0.00000000e+00)	(5.00000000e-02 -4.50000000e-01 5.00000000e-02)	(7.42463884e-02 9.46489514e-05 0.00000000e+00)	(5.00000000e-02 -4.50000000e-01 5.00000000e-02)
0.9             	p               	0.00000000e+00	(1.00000000e+01 -4.50000000e-01 5.00000000e-02)	1.53520000e+00	(0.00000000e+00 -4.50000000e-01 5.00000000e-02)
0.95            	U               	(7.70445388e-02 1.40111860e-04 0.00000000e+00)	(5.00000000e-02 -4.50000000e-01 5.00000000e-02)	(7.70445388e-02 1.40111860e-04 0.00000000e+00)	(5.00000000e-02 -4.50000000e-01 5.00000000e-02)
0.95            	p               	0.00000000e+00	(1.00000000e+01 -4.50000000e-01 5.00000000e-02)	1.53520000e+00	(0.00000000e+00 -4.50000000e-01 5.00000000e-02)
1               	U               	(7.97523216e-02 1.77502763e-04 0.00000000e+00)	(5.00000000e-02 -4.50000000e-01 5.00000000e-02)	(7.97523216e-02 1.77502763e-04 0.00000000e+00)	(5.00000000e-02 -4.50000000e-01 5.00000000e-02)
1               	p               	0.00000000e+00	(1.00000000e+01 -4.50000000e-01 5.00000000e-02)	1.53520000e+00	(0.00000000e+00 -4.50000000e-01 5.00000000e-02)
1.05            	U               	(8.23674389e-02 2.10216098e-04 0.00000000e+00)	(5.00000000e-02 -4.50000000e-01 5.00000000e-02)	(8.23674389e-02 2.10216098e-04 0.00000000e+00)	(5.00000000e-02 -4.50000000e-01 5.00000000e-02)
1.05            	p               	0.00000000e+00	(1.00000000e+01 -4.50000000e-01 5.00000000e-02)	1.53520000e+00	(0.00000000e+00 -4.50000000e-01 5.00000000e-02)
1.1             	U               	(8.49026469e-02 2.38812095e-04 0.00000000e+00)	(5.00000000e-02 -4.50000000e-01 5.00000000e-02)	(8.49026469e-02 2.38812095e-04 0.00000000e+00)	(5.00000000e-02 -4.50000000e-01 5.00000000e-02)
1.1             	p               	0.00000000e+00	(1.00000000e+01 -4.50000000e-01 5.00000000e-02)	1.53520000e+00	(0.00000000e+00 -4.50000000e-01 5.00000000e-02)
1.15            	U               	(8.73600351e-02 2.63929465e-04 0.00000000e+00)	(5.00000000e-02 -4.50000000e-01 5.00000000e-02)	(8.73600351e-02 2.63929465e-04 0.00000000e+00)	(5.00000000e-02 -4.50000000e-01 5.00000000e-02)
1.15            	p               	0.00000000e+00	(1.00000000e+01 -4.50000000e-01 5.00000000e-02)	1.53520000e+00	(0.00000000e+00 -4.50000000e-01 5.00000000e-02)
1.2             	U               	(8.97475087e-02 2.86247952e-04 0.00000000e+00)	(5.00000000e-02 -4.50000000e-01 5.00000000e-02)	(8.97475087e-02 2.86247952e-04 0.00000000e+00)	(5.00000000e-02 -4.50000000e-01 5.00000000e-02)
1.2             	p               	0.00000000e+00	(1.00000000e+01 -4.50000000e-01 5.00000000e-02)	1.53520000e+00	(0.00000000e+00 -4.50000000e-01 5.00000000e-02)
1.25            	U               	(9.20724528e-02 3.06034782e-04 0.00000000e+00)	(5.00000000e-02 -4.50000000e-01 5.00000000e-02)	(9.20724528e-02 3.06034782e-04 0.00000000e+00)	(5.00000000e-02 -4.50000000e-01 5.00000000e-02)
1.25            	p               	0.00000000e+00	(1.00000000e+01 -4.50000000e-01 5.00000000e-02)	1.53520000e+00	(0.00000000e+00 -4.50000000e-01 5.00000000e-02)
1.3             	U               	(9.43345175e-02 3.23642002e-04 0.00000000e+00)	(5.00000000e-02 -4.50000000e-01 5.00000000e-02)	(9.43345175e-02 3.23642002e-04 0.00000000e+00)	(5.00000000e-02 -4.50000000e-01 5.00000000e-02)
1.3             	p               	0.00000000e+00	(1.00000000e+01 -4.50000000e-01 5.00000000e-02)	1.53520000e+00	(0.00000000e+00 -4.50000000e-01 5.00000000e-02)
1.35            	U               	(9.65407992e-02 3.39343207e-04 0.00000000e+00)	(5.00000000e-02 -4.50000000e-01 5.00000000e-02)	(9.65407992e-02 3.39343207e-04 0.00000000e+00)	(5.00000000e-02 -4.50000000e-01 5.00000000e-02)
1.35            	p               	0.00000000e+00	(1.00000000e+01 -4.50000000e-01 5.00000000e-02)	1.53520000e+00	(0.00000000e+00 -4.50000000e-01 5.00000000e-02)
1.4             	U               	(9.86978565e-02 3.53309141e-04 0.00000000e+00)	(5.00000000e-02 -4.50000000e-01 5.00000000e-02)	(9.86978565e-02 3.53309141e-04 0.00000000e+00)	(5.00000000e-02 -4.50000000e-01 5.00000000e-02)
1.4             	p               	0.00000000e+00	(1.00000000e+01 -4.50000000e-01 5.00000000e-02)	1.53520000e+00	(0.00000000e+00 -4.50000000e-01 5.00000000e-02)
1.45            	U               	(1.00803829e-01 3.65758462e-04 0.00000000e+00)	(5.00000000e-02 -4.50000000e-01 5.00000000e-02)	(1.00803829e-01 3.65758462e-04 0.00000000e+00)	(5.00000000e-02 -4.50000000e-01 5.00000000e-02)
1.45            	p               	0.00000000e+00	(1.00000000e+01 -4.50000000e-01 5.00000000e-02)	1.53520000e+00	(0.00000000e+00 -4.50000000e-01 5.00000000e-02)
1.5             	U               	(1.02864772e-01 3.76885558e-04 0.00000000e+00)	(5.00000000e-02 -4.50000000e-01 5.00000000e-02)	(1.02864772e-01 3.76885558e-04 0.00000000e+00)	(5.00000000e-02 -4.50000000e-01 5.00000000e-02)
1.5             	p               	0.00000000e+00	(1.00000000e+01 -4.50000000e-01 5.00000000e-02)	1.53520000e+00	(0.00000000e+00 -4.50000000e-01 5.00000000e-02)
1.55            	U               	(1.04885627e-01 3.86792602e-04 0.00000000e+00)	(5.00000000e-02 -4.50000000e-01 5.00000000e-02)	(1.04885627e-01 3.86792602e-04 0.00000000e+00)	(5.00000000e-02 -4.50000000e-01 5.00000000e-02)
1.55            	p               	0.00000000e+00	(1.00000000e+01 -4.50000000e-01 5.00000000e-02)	1.53520000e+00	(0.00000000e+00 -4.50000000e-01 5.00000000e-02)
1.6             	U               	(1.06864057e-01 3.95626328e-04 0.00000000e+00)	(5.00000000e-02 -4.50000000e-01 5.00000000e-02)	(1.06864057e-01 3.95626328e-04 0.00000000e+00)	(5.00000000e-02 -4.50000000e-01 5.00000000e-02)
1.6             	p               	0.00000000e+00	(1.00000000e+01 -4.50000000e-01 5.00000000e-02)	1.53520000e+00	(0.00000000e+00 -4.50000000e-01 5.00000000e-02)
1.65            	U               	(1.08805296e-01 4.03529257e-04 0.00000000e+00)	(5.00000000e-02 -4.50000000e-01 5.00000000e-02)	(1.08805296e-01 4.03529257e-04 0.00000000e+00)	(5.00000000e-02 -4.50000000e-01 5.00000000e-02)
1.65            	p               	0.00000000e+00	(1.00000000e+01 -4.50000000e-01 5.00000000e-02)	1.53520000e+00	(0.00000000e+00 -4.50000000e-01 5.00000000e-02)
1.7             	U               	(1.10713329e-01 4.10551620e-04 0.00000000e+00)	(5.00000000e-02 -4.50000000e-01 5.00000000e-02)	(1.10713329e-01 4.10551620e-04 0.00000000e+00)	(5.00000000e-02 -4.50000000e-01 5.00000000e-02)
1.7             	p               	0.00000000e+00	(1.00000000e+01 -4.50000000e-01 5.00000000e-02)	1.53520000e+00	(0.00000000e+00 -4.50000000e-01 5.00000000e-02)
1.75            	U               	(1.12585373e-01 4.16803532e-04 0.00000000e+00)	(5.00000000e-02 -4.50000000e-01 5.00000000e-02)	(1.12585373e-01 4.16803532e-04 0.00000000e+00)	(5.00000000e-02 -4.50000000e-01 5.00000000e-02)
1.75            	p               	0.00000000e+00	(1.00000000e+01 -4.50000000e-01 5.00000000e-02)	1.53520000e+00	(0.00000000e+00 -4.50000000e-01 5.00000000e-02)
1.8             	U               	(1.14426141e-01 4.22392951e-04 0.00000000e+00)	(5.00000000e-02 -4.50000000e-01 5.00000000e-02)	(1.14426141e-01 4.22392951e-04 0.00000000e+00)	(5.00000000e-02 -4.50000000e-01 5.00000000e-02)
1.8             	p               	0.00000000e+00	(1.00000000e+01 -4.50000000e-01 5.00000000e-02)	1.53520000e+00	(0.00000000e+00 -4.50000000e-01 5.00000000e-02)
1.85            	U               	(1.16238835e-01 4.27334661e-04 0.00000000e+00)	(5.00000000e-02 -4.50000000e-01 5.00000000e-02)	(1.16238835e-01 4.27334661e-04 0.00000000e+00)	(5.00000000e-02 -4.50000000e-01 5.00000000e-02)
1.85            	p               	0.00000000e+00	(1.00000000e+01 -4.50000000e-01 5.00000000e-02)	1.53520000e+00	(0.00000000e+00 -4.50000000e-01 5.00000000e-02)
1.9             	U               	(1.18020456e-01 4.31715573e-04 0.00000000e+00)	(5.00000000e-02 -4.50000000e-01 5.00000000e-02)	(1.18020456e-01 4.31715573e-04 0.00000000e+00)	(5.00000000e-02 -4.50000000e-01 5.00000000e-02)
1.9             	p               	0.00000000e+00	(1.00000000e+01 -4.50000000e-01 5.00000000e-02)	1.53520000e+00	(0.00000000e+00 -4.50000000e-01 5.00000000e-02)
1.95            	U               	(1.19775341e-01 4.35622081e-04 0.00000000e+00)	(5.00000000e-02 -4.50000000e-01 5.00000000e-02)	(1.19775341e-01 4.35622081e-04 0.00000000e+00)	(5.00000000e-02 -4.50000000e-01 5.00000000e-02)
1.95            	p               	0.00000000e+00	(1.00000000e+01 -4.50000000e-01 5.00000000e-02)	1.53520000e+00	(0.00000000e+00 -4.50000000e-01 5.00000000e-02)
2               	U               	(1.21506050e-01 4.39044019e-04 0.00000000e+00)	(5.00000000e-02 -4.50000000e-01 5.00000000e-02)	(1.21506050e-01 4.39044019e-04 0.00000000e+00)	(5.00000000e-02 -4.50000000e-01 5.00000000e-02)
2               	p               	0.00000000e+00	(1.00000000e+01 -4.50000000e-01 5.00000000e-02)	1.53520000e+00	(0.00000000e+00 -4.50000000e-01 5.00000000e-02)
2.05            	U               	(1.23209521e-01 4.42052871e-04 0.00000000e+00)	(5.00000000e-02 -4.50000000e-01 5.00000000e-02)	(1.23209521e-01 4.42052871e-04 0.00000000e+00)	(5.00000000e-02 -4.50000000e-01 5.00000000e-02)
2.05            	p               	0.00000000e+00	(1.00000000e+01 -4.50000000e-01 5.00000000e-02)	1.53520000e+00	(0.00000000e+00 -4.50000000e-01 5.00000000e-02)
2.1             	U               	(1.24889817e-01 4.44721331e-04 0.00000000e+00)	(5.00000000e-02 -4.50000000e-01 5.00000000e-02)	(1.24889817e-01 4.44721331e-04 0.00000000e+00)	(5.00000000e-02 -4.50000000e-01 5.00000000e-02)
2.1             	p               	0.00000000e+00	(1.00000000e+01 -4.50000000e-01 5.00000000e-02)	1.53520000e+00	(0.00000000e+00 -4.50000000e-01 5.00000000e-02)
2.15            	U               	(1.26548942e-01 4.47020963e-04 0.00000000e+00)	(5.00000000e-02 -4.50000000e-01 5.00000000e-02)	(1.26548942e-01 4.47020963e-04 0.00000000e+00)	(5.00000000e-02 -4.50000000e-01 5.00000000e-02)
2.15            	p               	0.00000000e+00	(1.00000000e+01 -4.50000000e-01 5.00000000e-02)	1.53520000e+00	(0.00000000e+00 -4.50000000e-01 5.00000000e-02)
2.2             	U               	(1.28183885e-01 4.49013701e-04 0.00000000e+00)	(5.00000000e-02 -4.50000000e-01 5.00000000e-02)	(1.28183885e-01 4.49013701e-04 0.00000000e+00)	(5.00000000e-02 -4.50000000e-01 5.00000000e-02)
2.2             	p               	0.00000000e+00	(1.00000000e+01 -4.50000000e-01 5.00000000e-02)	1.53520000e+00	(0.00000000e+00 -4.50000000e-01 5.00000000e-02)
2.25            	U               	(1.29798493e-01 4.50763204e-04 0.00000000e+00)	(5.00000000e-02 -4.50000000e-01 5.00000000e-02)	(1.29798493e-01 4.50763204e-04 0.00000000e+00)	(5.00000000e-02 -4.50000000e-01 5.00000000e-02)
2.25            	p               	0.00000000e+00	(1.00000000e+01 -4.50000000e-01 5.00000000e-02)	1.53520000e+00	(0.00000000e+00 -4.50000000e-01 5.00000000e-02)
2.3             	U               	(1.31393337e-01 4.52249229e-04 0.00000000e+00)	(5.00000000e-02 -4.50000000e-01 5.00000000e-02)	(1.31393337e-01 4.52249229e-04 0.00000000e+00)	(5.00000000e-02 -4.50000000e-01 5.00000000e-02)
2.3             	p               	0.00000000e+00	(1.00000000e+01 -4.50000000e-01 5.00000000e-02)	1.53520000e+00	(0.00000000e+00 -4.50000000e-01 5.00000000e-02)
2.35            	U               	(1.32968325e-01 4.53488593e-04 0.00000000e+00)	(5.00000000e-02 -4.50000000e-01 5.00000000e-02)	(1.32968325e-01 4.53488593e-04 0.00000000e+00)	(5.00000000e-02 -4.50000000e-01 5.00000000e-02)
2.35            	p               	0.00000000e+00	(1.00000000e+01 -4.50000000e-01 5.00000000e-02)	1.53520000e+00	(0.00000000e+00 -4.50000000e-01 5.00000000e-02)
2.4             	U               	(1.34524514e-01 4.54523355e-04 0.00000000e+00)	(5.00000000e-02 -4.50000000e-01 5.00000000e-02)	(1.34524514e-01 4.54523355e-04 0.00000000e+00)	(5.00000000e-02 -4.50000000e-01 5.00000000e-02)
2.4             	p               	0.00000000e+00	(1.00000000e+01 -4.50000000e-01 5.00000000e-02)	1.53520000e+00	(0.00000000e+00 -4.50000000e-01 5.00000000e-02)
2.45            	U               	(1.36062567e-01 4.55371495e-04 0.00000000e+00)	(5.00000000e-02 -4.50000000e-01 5.00000000e-02)	(1.36062567e-01 4.55371495e-04 0.00000000e+00)	(5.00000000e-02 -4.50000000e-01 5.00000000e-02)
2.45            	p               	0.00000000e+00	(1.00000000e+01 -4.50000000e-01 5.00000000e-02)	1.53520000e+00	(0.00000000e+00 -4.50000000e-01 5.00000000e-02)
2.5             	U               	(1.37583015e-01 4.56047495e-04 0.00000000e+00)	(5.00000000e-02 -4.50000000e-01 5.00000000e-02)	(1.37583015e-01 4.56047495e-04 0.00000000e+00)	(5.00000000e-02 -4.50000000e-01 5.00000000e-02)
2.5             	p               	0.00000000e+00	(1.00000000e+01 -4.50000000e-01 5.00000000e-02)	1.53520000e+00	(0.00000000e+00 -4.50000000e-01 5.00000000e-02)
2.55            	U               	(1.39086431e-01 4.56567445e-04 0.00000000e+00)	(5.00000000e-02 -4.50000000e-01 5.00000000e-02)	(1.39086431e-01 4.56567445e-04 0.00000000e+00)	(5.00000000e-02 -4.50000000e-01 5.00000000e-02)
2.55            	p               	0.00000000e+00	(1.00000000e+01 -4.50000000e-01 5.00000000e-02)	1.53520000e+00	(0.00000000e+00 -4.50000000e-01 5.00000000e-02)
2.6             	U               	(1.40573352e-01 4.56945225e-04 0.00000000e+00)	(5.00000000e-02 -4.50000000e-01 5.00000000e-02)	(1.40573352e-01 4.56945225e-04 0.00000000e+00)	(5.00000000e-02 -4.50000000e-01 5.00000000e-02)
2.6             	p               	0.00000000e+00	(1.00000000e+01 -4.50000000e-01 5.00000000e-02)	1.53520000e+00	(0.00000000e+00 -4.50000000e-01 5.00000000e-02)
2.65            	U               	(1.42044276e-01 4.57193384e-04 0.00000000e+00)	(5.00000000e-02 -4.50000000e-01 5.00000000e-02)	(1.42044276e-01 4.57193384e-04 0.00000000e+00)	(5.00000000e-02 -4.50000000e-01 5.00000000e-02)
2.65            	p               	0.00000000e+00	(1.00000000e+01 -4.50000000e-01 5.00000000e-02)	1.53520000e+00	(0.00000000e+00 -4.50000000e-01 5.00000000e-02)
2.7             	U               	(1.43499677e-01 4.57323465e-04 0.00000000e+00)	(5.00000000e-02 -4.50000000e-01 5.00000000e-02)	(1.43499677e-01 4.57323465e-04 0.00000000e+00)	(5.00000000e-02 -4.50000000e-01 5.00000000e-02)
2.7             	p               	0.00000000e+00	(1.00000000e+01 -4.50000000e-01 5.00000000e-02)	1.53520000e+00	(0.00000000e+00 -4.50000000e-01 5.00000000e-02)
2.75            	U               	(1.44940003e-01 4.57345854e-04 0.00000000e+00)	(5.00000000e-02 -4.50000000e-01 5.00000000e-02)	(1.44940003e-01 4.57345854e-04 0.00000000e+00)	(5.00000000e-02 -4.50000000e-01 5.00000000e-02)
2.75            	p               	0.00000000e+00	(1.00000000e+01 -4.50000000e-01 5.00000000e-02)	1.53520000e+00	(0.00000000e+00 -4.50000000e-01 5.00000000e-02)
2.8             	U               	(1.46365674e-01 4.57269897e-04 0.00000000e+00)	(5.00000000e-02 -4.50000000e-01 5.00000000e-02)	(1.46365674e-01 4.57269897e-04 0.00000000e+00)	(5.00000000e-02 -4.50000000e-01 5.00000000e-02)
2.8             	p               	0.00000000e+00	(1.00000000e+01 -4.50000000e-01 5.00000000e-02)	1.53520000e+00	(0.00000000e+00 -4.50000000e-01 5.00000000e-02)
2.85            	U               	(1.47777090e-01 4.57104031e-04 0.00000000e+00)	(5.00000000e-02 -4.50000000e-01 5.00000000e-02)	(1.47777090e-01 4.57104031e-04 0.00000000e+00)	(5.00000000e-02 -4.50000000e-01 5.00000000e-02)
2.85            	p               	0.00000000e+00	(1.00000000e+01 -4.50000000e-01 5.00000000e-02)	1.53520000e+00	(0.00000000e+00 -4.50000000e-01 5.00000000e-02)
2.9             	U               	(1.49174628e-01 4.56855857e-04 0.00000000e+00)	(5.00000000e-02 -4.50000000e-01 5.00000000e-02)	(1.49174628e-01 4.56855857e-04 0.00000000e+00)	(5.00000000e-02 -4.50000000e-01 5.00000000e-02)
2.9             	p               	0.00000000e+00	(1.00000000e+01 -4.50000000e-01 5.00000000e-02)	1.53520000e+00	(0.00000000e+00 -4.50000000e-01 5.00000000e-02)
2.95            	U               	(1.50558648e-01 4.56532220e-04 0.00000000e+00)	(5.00000000e-02 -4.50000000e-01 5.00000000e-02)	(1.50558648e-01 4.56532220e-04 0.00000000e+00)	(5.00000000e-02 -4.50000000e-01 5.00000000e-02)
2.95            	p               	0.00000000e+00	(1.00000000e+01 -4.50000000e-01 5.00000000e-02)	1.53520000e+00	(0.00000000e+00 -4.50000000e-01 5.00000000e-02)
3               	U               	(1.51929490e-01 4.56139277e-04 0.00000000e+00)	(5.00000000e-02 -4.50000000e-01 5.00000000e-02)	(1.51929490e-01 4.56139277e-04 0.00000000e+00)	(5.00000000e-02 -4.50000000e-01 5.00000000e-02)
3               	p               	0.00000000e+00	(1.00000000e+01 -4.50000000e-01 5.00000000e-02)	1.53520000e+00	(0.00000000e+00 -4.50000000e-01 5.00000000e-02)
3.05            	U               	(1.53287479e-01 4.55682565e-04 0.00000000e+00)	(5.00000000e-02 -4.50000000e-01 5.00000000e-02)	(1.53287479e-01 4.55682565e-04 0.00000000e+00)	(5.00000000e-02 -4.50000000e-01 5.00000000e-02)
3.05            	p               	0.00000000e+00	(1.00000000e+01 -4.50000000e-01 5.00000000e-02)	1.53520000e+00	(0.00000000e+00 -4.50000000e-01 5.00000000e-02)
3.1             	U               	(1.54632924e-01 4.55167087e-04 0.00000000e+00)	(5.00000000e-02 -4.50000000e-01 5.00000000e-02)	(1.54632924e-01 4.55167087e-04 0.00000000e+00)	(5.00000000e-02 -4.50000000e-01 5.00000000e-02)
3.1             	p               	0.00000000e+00	(1.00000000e+01 -4.50000000e-01 5.00000000e-02)	1.53520000e+00	(0.00000000e+00 -4.50000000e-01 5.00000000e-02)
3.15            	U               	(1.55966117e-01 4.54597270e-04 0.00000000e+00)	(5.00000000e-02 -4.50000000e-01 5.00000000e-02)	(1.55966117e-01 4.54597270e-04 0.00000000e+00)	(5.00000000e-02 -4.50000000e-01 5.00000000e-02)
3.15            	p               	0.00000000e+00	(1.00000000e+01 -4.50000000e-01 5.00000000e-02)	1.53520000e+00	(0.00000000e+00 -4.50000000e-01 5.00000000e-02)
3.2             	U               	(1.57287341e-01 4.53977136e-04 0.00000000e+00)	(5.00000000e-02 -4.50000000e-01 5.00000000e-02)	(1.57287341e-01 4.53977136e-04 0.00000000e+00)	(5.00000000e-02 -4.50000000e-01 5.00000000e-02)
3.2             	p               	0.00000000e+00	(1.00000000e+01 -4.50000000e-01 5.00000000e-02)	1.53520000e+00	(0.00000000e+00 -4.50000000e-01 5.00000000e-02)
3.25            	U               	(1.58596861e-01 4.53310271e-04 0.00000000e+00)	(5.00000000e-02 -4.50000000e-01 5.00000000e-02)	(1.58596861e-01 4.53310271e-04 0.00000000e+00)	(5.00000000e-02 -4.50000000e-01 5.00000000e-02)
3.25            	p               	0.00000000e+00	(1.00000000e+01 -4.50000000e-01 5.00000000e-02)	1.53520000e+00	(0.00000000e+00 -4.50000000e-01 5.00000000e-02)
3.3             	U               	(1.59894935e-01 4.52599900e-04 0.00000000e+00)	(5.00000000e-02 -4.50000000e-01 5.00000000e-02)	(1.59894935e-01 4.52599900e-04 0.00000000e+00)	(5.00000000e-02 -4.50000000e-01 5.00000000e-02)
3.3             	p               	0.00000000e+00	(1.00000000e+01 -4.50000000e-01 5.00000000e-02)	1.53520000e+00	(0.00000000e+00 -4.50000000e-01 5.00000000e-02)
3.35            	U               	(1.61181805e-01 4.51848946e-04 0.00000000e+00)	(5.00000000e-02 -4.50000000e-01 5.00000000e-02)	(1.61181805e-01 4.51848946e-04 0.00000000e+00)	(5.00000000e-02 -4.50000000e-01 5.00000000e-02)
3.35            	p               	0.00000000e+00	(1.00000000e+01 -4.50000000e-01 5.00000000e-02)	1.53520000e+00	(0.00000000e+00 -4.50000000e-01 5.00000000e-02)
3.4             	U               	(1.62457707e-01 4.51060031e-04 0.00000000e+00)	(5.00000000e-02 -4.50000000e-01 5.00000000e-02)	(1.62457707e-01 4.51060031e-04 0.00000000e+00)	(5.00000000e-02 -4.50000000e-01 5.00000000e-02)
3.4             	p               	0.00000000e+00	(1.00000000e+01 -4.50000000e-01 5.00000000e-02)	1.53520000e+00	(0.00000000e+00 -4.50000000e-01 5.00000000e-02)
3.45            	U               	(1.63722862e-01 4.50235537e-04 0.00000000e+00)	(5.00000000e-02 -4.50000000e-01 5.00000000e-02)	(1.63722862e-01 4.50235537e-04 0.00000000e+00)	(5.00000000e-02 -4.50000000e-01 5.00000000e-02)
3.45            	p               	0.00000000e+00	(1.00000000e+01 -4.50000000e-01 5.00000000e-02)	1.53520000e+00	(0.00000000e+00 -4.50000000e-01 5.00000000e-02)
3.5             	U               	(1.64977489e-01 4.49377645e-04 0.00000000e+00)	(5.00000000e-02 -4.50000000e-01 5.00000000e-02)	(1.64977489e-01 4.49377645e-04 0.00000000e+00)	(5.00000000e-02 -4.50000000e-01 5.00000000e-02)
3.5             	p               	0.00000000e+00	(1.00000000e+01 -4.50000000e-01 5.00000000e-02)	1.53520000e+00	(0.00000000e+00 -4.50000000e-01 5.00000000e-02)
3.55            	U               	(1.66221788e-01 4.48488280e-04 0.00000000e+00)	(5.00000000e-02 -4.50000000e-01 5.00000000e-02)	(1.66221788e-01 4.48488280e-04 0.00000000e+00)	(5.00000000e-02 -4.50000000e-01 5.00000000e-02)
3.55            	p               	0.00000000e+00	(1.00000000e+01 -4.50000000e-01 5.00000000e-02)	1.53520000e+00	(0.00000000e+00 -4.50000000e-01 5.00000000e-02)
3.6             	U               	(1.67455961e-01 4.47569317e-04 0.00000000e+00)	(5.00000000e-02 -4.50000000e-01 5.00000000e-02)	(1.67455961e-01 4.47569317e-04 0.00000000e+00)	(5.00000000e-02 -4.50000000e-01 5.00000000e-02)
3.6             	p               	0.00000000e+00	(1.00000000e+01 -4.50000000e-01 5.00000000e-02)	1.53520000e+00	(0.00000000e+00 -4.50000000e-01 5.00000000e-02)
3.65            	U               	(1.68680196e-01 4.46622346e-04 0.00000000e+00)	(5.00000000e-02 -4.50000000e-01 5.00000000e-02)	(1.68680196e-01 4.46622346e-04 0.00000000e+00)	(5.00000000e-02 -4.50000000e-01 5.00000000e-02)
3.65            	p               	0.00000000e+00	(1.00000000e+01 -4.50000000e-01 5.00000000e-02)	1.53520000e+00	(0.00000000e+00 -4.50000000e-01 5.00000000e-02)
3.7             	U               	(1.69894674e-01 4.45648917e-04 0.00000000e+00)	(5.00000000e-02 -4.50000000e-01 5.00000000e-02)	(1.69894674e-01 4.45648917e-04 0.00000000e+00)	(5.00000000e-02 -4.50000000e-01 5.00000000e-02)
3.7             	p               	0.00000000e+00	(1.00000000e+01 -4.50000000e-01 5.00000000e-02)	1.53520000e+00	(0.00000000e+00 -4.50000000e-01 5.00000000e-02)
3.75            	U               	(1.71099571e-01 4.44650419e-04 0.00000000e+00)	(5.00000000e-02 -4.50000000e-01 5.00000000e-02)	(1.71099571e-01 4.44650419e-04 0.00000000e+00)	(5.00000000e-02 -4.50000000e-01 5.00000000e-02)
3.75            	p               	0.00000000e+00	(1.00000000e+01 -4.50000000e-01 5.00000000e-02)	1.53520000e+00	(0.00000000e+00 -4.50000000e-01 5.00000000e-02)
3.8             	U               	(1.72295054e-01 4.43628197e-04 0.00000000e+00)	(5.00000000e-02 -4.50000000e-01 5.00000000e-02)	(1.72295054e-01 4.43628197e-04 0.00000000e+00)	(5.00000000e-02 -4.50000000e-01 5.00000000e-02)
3.8             	p               	0.00000000e+00	(1.00000000e+01 -4.50000000e-01 5.00000000e-02)	1.53520000e+00	(0.00000000e+00 -4.50000000e-01 5.00000000e-02)
3.85            	U               	(1.73481286e-01 4.42583436e-04 0.00000000e+00)	(5.00000000e-02 -4.50000000e-01 5.00000000e-02)	(1.73481286e-01 4.42583436e-04 0.00000000e+00)	(5.00000000e-02 -4.50000000e-01 5.00000000e-02)
3.85            	p               	0.00000000e+00	(1.00000000e+01 -4.50000000e-01 5.00000000e-02)	1.53520000e+00	(0.00000000e+00 -4.50000000e-01 5.00000000e-02)
3.9             	U               	(1.74658423e-01 4.41517298e-04 0.00000000e+00)	(5.00000000e-02 -4.50000000e-01 5.00000000e-02)	(1.74658423e-01 4.41517298e-04 0.00000000e+00)	(5.00000000e-02 -4.50000000e-01 5.00000000e-02)