/*--------------------------------*- C++ -*----------------------------------*\
| =========                 |                                                 |
| \\      /  F ield         | OpenFOAM: The Open Source CFD Toolbox           |
|  \\    /   O peration     | Version:  v1812                                 |
|   \\  /    A nd           | Web:      www.OpenFOAM.com                      |
|    \\/     M anipulation  |                                                 |
\*---------------------------------------------------------------------------*/
FoamFile
{
    version     2.0;
    format      ascii;
    class       volVectorField;
    location    "4";
    object      U;
}
// * * * * * * * * * * * * * * * * * * * * * * * * * * * * * * * * * * * * * //

dimensions      [0 1 -1 0 0 0 0];


internalField   nonuniform List<vector> 
1000
(
(0.91890839 0.035821913 0)
(0.86271384 0.062195639 0)
(0.7870597 0.06251009 0)
(0.69536033 0.054550392 0)
(0.61089745 0.044531642 0)
(0.54411595 0.034015946 0)
(0.49343019 0.024187491 0)
(0.45479426 0.016144143 0)
(0.42544605 0.010265638 0)
(0.4034735 0.0063039363 0)
(0.38715821 0.0037973643 0)
(0.374963 0.0023099732 0)
(0.36566313 0.0014924608 0)
(0.35836452 0.0010842964 0)
(0.3524453 0.0009049489 0)
(0.34748577 0.00083959376 0)
(0.34320881 0.00082184044 0)
(0.33943474 0.00081684897 0)
(0.33604842 0.00080864087 0)
(0.33297585 0.0007916643 0)
(0.33016841 0.00076552678 0)
(0.32759276 0.00073195046 0)
(0.32522466 0.00069320218 0)
(0.32304549 0.00065138074 0)
(0.32104024 0.00060814178 0)
(0.31919638 0.00056464592 0)
(0.3175033 0.00052162846 0)
(0.31595189 0.00047952227 0)
(0.31453433 0.00043857189 0)
(0.31324376 0.00039892179 0)
(0.31207408 0.00036067117 0)
(0.31101965 0.0003239161 0)
(0.31007505 0.00028876804 0)
(0.30923483 0.00025536397 0)
(0.3084934 0.0002238559 0)
(0.30784482 0.00019440122 0)
(0.30728281 0.00016714397 0)
(0.30680072 0.00014220323 0)
(0.30639159 0.00011965843 0)
(0.30604829 9.9542274e-05 0)
(0.30576359 8.1835483e-05 0)
(0.30553036 6.6467428e-05 0)
(0.30534169 5.3320686e-05 0)
(0.30519103 4.2236459e-05 0)
(0.30507231 3.3026066e-05 0)
(0.30498002 2.5483887e-05 0)
(0.30490926 1.9399903e-05 0)
(0.30485576 1.4565646e-05 0)
(0.30481589 1.0783626e-05 0)
(0.30478659 7.8699766e-06 0)
(0.30476538 5.6608923e-06 0)
(0.30475025 4.0118679e-06 0)
(0.30473961 2.8010202e-06 0)
(0.30473226 1.9256644e-06 0)
(0.30472725 1.3036268e-06 0)
(0.30472389 8.6837368e-07 0)
(0.30472167 5.6938772e-07 0)
(0.30472023 3.6700429e-07 0)
(0.30471932 2.3283203e-07 0)
(0.30471874 1.4503034e-07 0)
(0.30471839 8.9011813e-08 0)
(0.30471818 5.3569735e-08 0)
(0.30471805 3.1878535e-08 0)
(0.30471798 1.8613495e-08 0)
(0.30471793 1.0865654e-08 0)
(0.30471791 6.2646716e-09 0)
(0.30471789 3.6953845e-09 0)
(0.30471789 2.1963959e-09 0)
(0.30471788 1.4185155e-09 0)
(0.30471788 9.0262219e-10 0)
(0.30471788 6.9878829e-10 0)
(0.30471788 4.4028648e-10 0)
(0.30471787 4.6103383e-10 0)
(0.30471788 2.3715943e-10 0)
(0.30471787 3.4031888e-10 0)
(0.30471787 1.117015e-10 0)
(0.30471787 2.8109204e-10 0)
(0.30471787 4.2234248e-11 0)
(0.30471787 2.6627267e-10 0)
(0.30471787 -2.3305503e-11 0)
(0.30471787 3.2234728e-10 0)
(0.30471787 -6.8558308e-11 0)
(0.30471787 4.1038592e-10 0)
(0.30471787 -9.745936e-11 0)
(0.30471787 5.8583983e-10 0)
(0.30471787 -1.1931546e-11 0)
(0.30471787 1.0444614e-09 0)
(0.30471787 5.7022092e-10 0)
(0.30471786 2.4874461e-09 0)
(0.30471787 2.5151577e-09 0)
(0.30471785 6.3231237e-09 0)
(0.30471786 7.8261599e-09 0)
(0.30471782 1.6485642e-08 0)
(0.30471783 2.4525793e-08 0)
(0.30471774 5.1083365e-08 0)
(0.30471772 8.9258489e-08 0)
(0.30471747 1.7495708e-07 0)
(0.30471731 3.0158964e-07 0)
(0.30471645 5.1879748e-07 0)
(0.30471573 7.104884e-07 0)
(1.0016583 0.05381943 0)
(1.0359761 0.10128444 0)
(1.0597199 0.11073663 0)
(1.0628947 0.10592201 0)
(1.0515569 0.096228712 0)
(1.0340529 0.083934025 0)
(1.0142795 0.070326996 0)
(0.99360708 0.05698122 0)
(0.9729259 0.045107295 0)
(0.95310767 0.035236473 0)
(0.93479587 0.027401251 0)
(0.91829093 0.021386654 0)
(0.90362513 0.016883673 0)
(0.89068288 0.013568514 0)
(0.87928533 0.011145991 0)
(0.86923806 0.0093710725 0)
(0.86035289 0.0080531687 0)
(0.85245969 0.0070516819 0)
(0.84541175 0.0062673139 0)
(0.83908636 0.0056323327 0)
(0.83338264 0.0051016422 0)
(0.82821837 0.0046455064 0)
(0.82352681 0.0042442107 0)
(0.81925384 0.0038844914 0)
(0.81535543 0.0035572384 0)
(0.81179566 0.0032559938 0)
(0.80854511 0.0029759918 0)
(0.80557958 0.0027136255 0)
(0.80287902 0.0024661974 0)
(0.8004266 0.0022317973 0)
(0.79820787 0.0020092007 0)
(0.79621006 0.0017977717 0)
(0.79442139 0.0015973613 0)
(0.79283055 0.0014082014 0)
(0.79142628 0.0012307784 0)
(0.79019703 0.0010657035 0)
(0.78913077 0.00091358544 0)
(0.78821496 0.00077492567 0)
(0.78743662 0.00065003474 0)
(0.78678241 0.00053897836 0)
(0.78623891 0.00044155026 0)
(0.78579283 0.00035727313 0)
(0.78543127 0.00028542298 0)
(0.78514199 0.00022506924 0)
(0.78491359 0.00017513008 0)
(0.78473569 0.00013443365 0)
(0.78459904 0.00010177787 0)
(0.78449555 7.59792e-05 0)
(0.78441829 5.5916447e-05 0)
(0.78436144 4.0559075e-05 0)
(0.78432024 2.8990201e-05 0)
(0.78429081 2.0413482e-05 0)
(0.78427012 1.415778e-05 0)
(0.78425579 9.668113e-06 0)
(0.78424603 6.4993074e-06 0)
(0.78423948 4.2990146e-06 0)
(0.78423516 2.7975988e-06 0)
(0.78423236 1.789867e-06 0)
(0.78423057 1.1259432e-06 0)
(0.78422946 6.9578545e-07 0)
(0.78422877 4.2264642e-07 0)
(0.78422836 2.5220226e-07 0)
(0.78422811 1.4803599e-07 0)
(0.78422797 8.5723928e-08 0)
(0.78422789 4.8981472e-08 0)
(0.78422785 2.8125024e-08 0)
(0.78422782 1.6066656e-08 0)
(0.78422781 9.6726095e-09 0)
(0.78422779 5.9436204e-09 0)
(0.78422779 3.9850113e-09 0)
(0.78422779 2.9382796e-09 0)
(0.78422779 2.0481308e-09 0)
(0.78422778 1.9541481e-09 0)
(0.78422779 1.1934585e-09 0)
(0.78422778 1.4896818e-09 0)
(0.78422778 7.204216e-10 0)
(0.78422778 1.2065431e-09 0)
(0.78422778 4.329953e-10 0)
(0.78422778 1.0663343e-09 0)
(0.78422778 2.1337607e-10 0)
(0.78422777 1.1080005e-09 0)
(0.78422778 4.9842003e-11 0)
(0.78422777 1.3183548e-09 0)
(0.78422778 -3.4617119e-11 0)
(0.78422777 1.7722285e-09 0)
(0.78422778 1.3745215e-10 0)
(0.78422776 2.8627152e-09 0)
(0.78422779 1.1985732e-09 0)
(0.78422775 5.9167455e-09 0)
(0.78422779 5.0142187e-09 0)
(0.78422773 1.3995775e-08 0)
(0.7842278 1.6494775e-08 0)
(0.78422767 3.5342563e-08 0)
(0.7842278 5.1992685e-08 0)
(0.78422755 1.0128399e-07 0)
(0.78422778 1.7491257e-07 0)
(0.78422722 3.1692263e-07 0)
(0.78422763 5.5210194e-07 0)
(0.78422616 8.6829026e-07 0)
(0.78422724 1.3177027e-06 0)
(1.0014244 0.026824855 0)
(1.0291272 0.062791352 0)
(1.0654292 0.07773655 0)
(1.098962 0.080597192 0)
(1.1253148 0.078285151 0)
(1.145053 0.073153859 0)
(1.1594858 0.066111205 0)
(1.1694286 0.058161938 0)
(1.1755353 0.050296548 0)
(1.1785737 0.043150388 0)
(1.1793569 0.036972334 0)
(1.1785948 0.031770883 0)
(1.1768302 0.027450715 0)
(1.1744517 0.023885093 0)
(1.1717287 0.020945095 0)
(1.1688447 0.018511974 0)
(1.1659203 0.016482454 0)
(1.1630333 0.014771311 0)
(1.1602324 0.013311107 0)
(1.1575463 0.012049937 0)
(1.1549907 0.010948331 0)
(1.1525726 0.0099761405 0)
(1.1502937 0.0091099299 0)
(1.1481526 0.008331129 0)
(1.1461462 0.0076248314 0)
(1.1442704 0.0069789357 0)
(1.1425205 0.0063834845 0)
(1.1408916 0.0058302378 0)
(1.1393791 0.0053124803 0)
(1.1379785 0.0048249474 0)
(1.1366858 0.004363757 0)
(1.1354974 0.0039263072 0)
(1.1344097 0.0035111504 0)
(1.1334196 0.0031178333 0)
(1.132524 0.0027466927 0)
(1.1317196 0.0023986116 0)
(1.1310029 0.0020747582 0)
(1.1303701 0.0017763361 0)
(1.1298168 0.001504364 0)
(1.1293381 0.0012594996 0)
(1.1289285 0.0010419179 0)
(1.1285822 0.00085124845 0)
(1.1282931 0.00068657059 0)
(1.1280549 0.00054646029 0)
(1.1278612 0.00042907535 0)
(1.1277058 0.00033226301 0)
(1.127583 0.0002536812 0)
(1.1274873 0.0001909173 0)
(1.1274138 0.0001415967 0)
(1.1273582 0.00010346963 0)
(1.1273167 7.4478074e-05 0)
(1.1272863 5.2795202e-05 0)
(1.1272643 3.6847414e-05 0)
(1.1272487 2.5312654e-05 0)
(1.1272377 1.7110592e-05 0)
(1.1272302 1.1376752e-05 0)
(1.1272251 7.4379567e-06 0)
(1.1272217 4.779085e-06 0)
(1.1272194 3.0166516e-06 0)
(1.127218 1.869636e-06 0)
(1.1272171 1.1371346e-06 0)
(1.1272165 6.7883637e-07 0)
(1.1272162 3.9724371e-07 0)
(1.127216 2.2883101e-07 0)
(1.1272158 1.2915357e-07 0)
(1.1272158 7.2789963e-08 0)
(1.1272157 4.0403351e-08 0)
(1.1272157 2.3289166e-08 0)
(1.1272157 1.371831e-08 0)
(1.1272157 8.641233e-09 0)
(1.1272157 6.3092801e-09 0)
(1.1272157 4.1950372e-09 0)
(1.1272157 4.1299251e-09 0)
(1.1272157 2.5334706e-09 0)
(1.1272157 3.1218326e-09 0)
(1.1272157 1.7497665e-09 0)
(1.1272157 2.3962562e-09 0)
(1.1272157 1.3229609e-09 0)
(1.1272157 1.9346169e-09 0)
(1.1272157 9.8418481e-10 0)
(1.1272157 1.8649082e-09 0)
(1.1272157 6.4391608e-10 0)
(1.1272157 2.1689152e-09 0)
(1.1272157 4.415765e-10 0)
(1.1272157 2.8209723e-09 0)
(1.1272157 7.577747e-10 0)
(1.1272156 4.1632399e-09 0)
(1.1272157 2.3932361e-09 0)
(1.1272156 7.5840653e-09 0)
(1.1272157 7.6863386e-09 0)
(1.1272156 1.6625385e-08 0)
(1.1272158 2.3100192e-08 0)
(1.1272155 4.1118458e-08 0)
(1.1272159 6.9810897e-08 0)
(1.1272154 1.1692701e-07 0)
(1.127216 2.1724276e-07 0)
(1.1272152 3.4705558e-07 0)
(1.1272162 6.1110321e-07 0)
(1.1272145 8.628244e-07 0)
(1.1272168 1.265606e-06 0)
(1.0007347 0.011814722 0)
(1.0178472 0.030860927 0)
(1.0462163 0.04143444 0)
(1.0799018 0.045193564 0)
(1.1132663 0.045502336 0)
(1.1437819 0.044080278 0)
(1.170894 0.041439929 0)
(1.1945686 0.037973585 0)
(1.214858 0.034195574 0)
(1.2319648 0.030536639 0)
(1.2462677 0.027221655 0)
(1.258233 0.024313301 0)
(1.2683121 0.021796918 0)
(1.2768853 0.019632156 0)
(1.2842522 0.017771506 0)
(1.2906432 0.016166122 0)
(1.2962363 0.014770368 0)
(1.3011694 0.013544751 0)
(1.3055504 0.012457043 0)
(1.3094637 0.011481972 0)
(1.3129758 0.010600113 0)
(1.3161394 0.009796488 0)
(1.3189971 0.0090592523 0)
(1.3215836 0.0083787702 0)
(1.3239279 0.0077470628 0)
(1.3260541 0.00715744 0)
(1.327982 0.0066041894 0)
(1.3297282 0.0060823759 0)
(1.3313065 0.0055877905 0)
(1.3327286 0.005116991 0)
(1.3340044 0.0046673406 0)
(1.335143 0.0042370159 0)
(1.3361524 0.003824992 0)
(1.3370404 0.0034309984 0)
(1.3378147 0.003055435 0)
(1.3384832 0.0026992329 0)
(1.3390541 0.0023636815 0)
(1.339536 0.0020502318 0)
(1.3399376 0.0017603022 0)
(1.3402678 0.0014950958 0)
(1.3405355 0.0012554491 0)
(1.3407492 0.0010417216 0)
(1.3409172 0.00085373634 0)
(1.3410471 0.00069077137 0)
(1.3411458 0.00055159801 0)
(1.3412195 0.00043455667 0)
(1.3412735 0.00033765977 0)
(1.3413123 0.00025870723 0)
(1.3413396 0.00019540367 0)
(1.3413584 0.00014546478 0)
(1.341371 0.00010670795 0)
(1.3413792 7.7119158e-05 0)
(1.3413844 5.4899798e-05 0)
(1.3413876 3.8488301e-05 0)
(1.3413894 2.6567279e-05 0)
(1.3413904 1.805152e-05 0)
(1.3413909 1.2070533e-05 0)
(1.3413911 7.9405651e-06 0)
(1.3413912 5.1376415e-06 0)
(1.3413912 3.2685267e-06 0)
(1.3413911 2.0437364e-06 0)
(1.3413911 1.2563626e-06 0)
(1.341391 7.5856094e-07 0)
(1.341391 4.5103857e-07 0)
(1.3413909 2.63412e-07 0)
(1.3413909 1.525433e-07 0)
(1.3413909 8.7222381e-08 0)
(1.3413909 5.0244747e-08 0)
(1.3413909 2.9490132e-08 0)
(1.3413909 1.7541327e-08 0)
(1.3413909 1.1873179e-08 0)
(1.3413909 7.41584e-09 0)
(1.3413909 6.4638323e-09 0)
(1.3413909 4.1127134e-09 0)
(1.3413909 4.3346976e-09 0)
(1.3413909 2.8792667e-09 0)
(1.3413909 3.1150316e-09 0)
(1.3413909 2.2584956e-09 0)
(1.3413909 2.4417954e-09 0)
(1.3413909 1.7566181e-09 0)
(1.3413909 2.3307444e-09 0)
(1.3413909 1.2831114e-09 0)
(1.3413909 2.6229768e-09 0)
(1.3413909 1.1138064e-09 0)
(1.3413909 3.146745e-09 0)
(1.3413909 1.6625379e-09 0)
(1.3413908 4.1549638e-09 0)
(1.3413909 3.5950961e-09 0)
(1.3413908 6.8766188e-09 0)
(1.341391 8.7689661e-09 0)
(1.3413908 1.4045112e-08 0)
(1.3413911 2.2379167e-08 0)
(1.3413907 3.3275198e-08 0)
(1.3413912 6.1624485e-08 0)
(1.3413906 9.3429765e-08 0)
(1.3413915 1.7823002e-07 0)
(1.3413905 2.6716262e-07 0)
(1.3413919 4.595885e-07 0)
(1.3413901 6.1733533e-07 0)
(1.341393 8.6794241e-07 0)
(1.0005903 0.0034629162 0)
(1.0136865 0.0093660207 0)
(1.0370283 0.013046807 0)
(1.0674202 0.014563262 0)
(1.1000315 0.014854523 0)
(1.1316427 0.014564985 0)
(1.1610744 0.013888326 0)
(1.1880672 0.01291922 0)
(1.2125202 0.01180646 0)
(1.2343934 0.01069635 0)
(1.2538069 0.0096726143 0)
(1.2710327 0.0087626075 0)
(1.286399 0.0079656201 0)
(1.3002081 0.0072716452 0)
(1.3127054 0.0066679053 0)
(1.3240833 0.0061405273 0)
(1.3344932 0.0056759852 0)
(1.3440564 0.0052622944 0)
(1.3528703 0.0048895954 0)
(1.3610138 0.004550189 0)
(1.3685507 0.0042382481 0)
(1.3755336 0.0039493781 0)
(1.3820066 0.0036801809 0)
(1.3880074 0.0034279367 0)
(1.3935685 0.0031904229 0)
(1.3987186 0.0029657939 0)
(1.403482 0.0027524775 0)
(1.4078803 0.002549102 0)
(1.4119319 0.0023544825 0)
(1.4156532 0.0021676403 0)
(1.4190586 0.0019878291 0)
(1.4221613 0.001814546 0)
(1.4249736 0.0016475409 0)
(1.4275074 0.0014868128 0)
(1.4297748 0.0013325963 0)
(1.4317885 0.0011853226 0)
(1.433562 0.0010455682 0)
(1.4351099 0.00091398723 0)
(1.4364478 0.00079124394 0)
(1.437592 0.00067794107 0)
(1.43856 0.0005745584 0)
(1.4393694 0.00048140179 0)
(1.4400381 0.00039857005 0)
(1.4405838 0.00032594081 0)
(1.4410232 0.00026317453 0)
(1.4413726 0.00020973664 0)
(1.4416465 0.00016493055 0)
(1.4418584 0.00012794208 0)
(1.4420199 9.7884063e-05 0)
(1.4421414 7.3843609e-05 0)
(1.4422314 5.4920981e-05 0)
(1.4422971 4.0264609e-05 0)
(1.4423443 2.909398e-05 0)
(1.4423778 2.0716943e-05 0)
(1.4424012 1.4535553e-05 0)
(1.4424172 1.0048086e-05 0)
(1.4424281 6.8426162e-06 0)
(1.4424353 4.5903754e-06 0)
(1.44244 3.0331791e-06 0)
(1.4424431 1.9746997e-06 0)
(1.442445 1.2663569e-06 0)
(1.4424462 8.0096718e-07 0)
(1.4424469 4.9936492e-07 0)
(1.4424474 3.0813335e-07 0)
(1.4424476 1.8785648e-07 0)
(1.4424478 1.1437668e-07 0)
(1.4424479 6.9329238e-08 0)
(1.4424479 4.270282e-08 0)
(1.4424479 2.6762793e-08 0)
(1.442448 1.7309126e-08 0)
(1.442448 1.1951695e-08 0)
(1.442448 8.331321e-09 0)
(1.442448 6.5658681e-09 0)
(1.442448 4.9063924e-09 0)
(1.442448 4.2283975e-09 0)
(1.442448 3.4253813e-09 0)
(1.442448 2.9754341e-09 0)
(1.442448 2.6396758e-09 0)
(1.442448 2.3257349e-09 0)
(1.442448 2.1573233e-09 0)
(1.442448 2.1349926e-09 0)
(1.442448 1.8619011e-09 0)
(1.442448 2.256183e-09 0)
(1.442448 1.9002082e-09 0)
(1.4424479 2.5997736e-09 0)
(1.442448 2.4465304e-09 0)
(1.4424479 3.3176591e-09 0)
(1.4424481 3.8357566e-09 0)
(1.4424479 5.0158582e-09 0)
(1.4424481 6.8150834e-09 0)
(1.4424478 8.643225e-09 0)
(1.4424482 1.2924681e-08 0)
(1.4424478 1.6332882e-08 0)
(1.4424484 2.8033426e-08 0)
(1.4424477 3.898171e-08 0)
(1.4424487 7.1284699e-08 0)
(1.4424477 1.0258632e-07 0)
(1.4424493 1.7070305e-07 0)
(1.4424475 2.231101e-07 0)
(1.4424506 3.0549714e-07 0)
(1.0005903 -0.0034629154 0)
(1.0136865 -0.0093660176 0)
(1.0370283 -0.013046801 0)
(1.0674202 -0.014563253 0)
(1.1000315 -0.01485451 0)
(1.1316427 -0.014564968 0)
(1.1610744 -0.013888302 0)
(1.1880672 -0.012919189 0)
(1.2125202 -0.01180642 0)
(1.2343934 -0.010696299 0)
(1.2538069 -0.0096725526 0)
(1.2710327 -0.0087625354 0)
(1.286399 -0.0079655392 0)
(1.3002081 -0.0072715583 0)
(1.3127055 -0.0066678161 0)
(1.3240833 -0.0061404405 0)
(1.3344933 -0.005675906 0)
(1.3440565 -0.0052622284 0)
(1.3528704 -0.0048895474 0)
(1.3610138 -0.0045501643 0)
(1.3685507 -0.0042382499 0)
(1.3755337 -0.0039494091 0)
(1.3820067 -0.0036802415 0)
(1.3880074 -0.0034280262 0)
(1.3935685 -0.0031905381 0)
(1.3987185 -0.0029659308 0)
(1.403482 -0.0027526305 0)
(1.4078802 -0.0025492648 0)
(1.4119318 -0.0023546485 0)
(1.4156531 -0.0021678031 0)
(1.4190585 -0.0019879835 0)
(1.4221612 -0.0018146872 0)
(1.4249735 -0.0016476662 0)
(1.4275072 -0.00148692 0)
(1.4297746 -0.0013326857 0)
(1.4317883 -0.0011853947 0)
(1.4335619 -0.0010456253 0)
(1.4351098 -0.00091403165 0)
(1.4364476 -0.00079127878 0)
(1.4375919 -0.00067796898 0)
(1.4385599 -0.0005745819 0)
(1.4393693 -0.0004814227 0)
(1.440038 -0.00039858937 0)
(1.4405837 -0.00032595901 0)
(1.4410232 -0.00026319117 0)
(1.4413725 -0.00020975108 0)
(1.4416464 -0.00016494156 0)
(1.4418583 -0.0001279486 0)
(1.4420198 -9.7884948e-05 0)
(1.4421413 -7.3838232e-05 0)
(1.4422313 -5.4908921e-05 0)
(1.442297 -4.0245885e-05 0)
(1.4423442 -2.9069042e-05 0)
(1.4423777 -2.0686475e-05 0)
(1.4424011 -1.4500642e-05 0)
(1.4424172 -1.0009757e-05 0)
(1.442428 -6.8022176e-06 0)
(1.4424353 -4.5488884e-06 0)
(1.44244 -2.9918368e-06 0)
(1.442443 -1.9342095e-06 0)
(1.442445 -1.2276735e-06 0)
(1.4424462 -7.6441955e-07 0)
(1.4424469 -4.6555912e-07 0)
(1.4424474 -2.7706974e-07 0)
(1.4424476 -1.598929e-07 0)
(1.4424478 -8.9257931e-08 0)
(1.4424478 -4.7217715e-08 0)
(1.4424479 -2.3184344e-08 0)
(1.4424479 -9.9232233e-09 0)
(1.4424479 -2.6469033e-09 0)
(1.4424479 5.1011214e-10 0)
(1.442448 2.4572996e-09 0)
(1.442448 2.5043771e-09 0)
(1.442448 2.9540548e-09 0)
(1.442448 2.3908057e-09 0)
(1.442448 2.4240266e-09 0)
(1.442448 2.0003442e-09 0)
(1.442448 1.9109549e-09 0)
(1.442448 1.6922787e-09 0)
(1.442448 1.7318503e-09 0)
(1.442448 1.47184e-09 0)
(1.442448 1.8544609e-09 0)
(1.4424479 1.4294381e-09 0)
(1.442448 2.1583222e-09 0)
(1.4424479 1.6758573e-09 0)
(1.442448 2.498897e-09 0)
(1.4424479 2.2186106e-09 0)
(1.4424481 2.8460115e-09 0)
(1.4424479 2.7418585e-09 0)
(1.4424481 2.527835e-09 0)
(1.4424478 1.813294e-09 0)
(1.4424482 -1.4343896e-09 0)
(1.4424478 -4.9004661e-09 0)
(1.4424484 -1.6876401e-08 0)
(1.4424477 -2.8601532e-08 0)
(1.4424487 -6.1203782e-08 0)
(1.4424477 -9.3090506e-08 0)
(1.4424493 -1.6288271e-07 0)
(1.4424475 -2.1796586e-07 0)
(1.4424506 -3.0279139e-07 0)
(1.0007347 -0.011814721 0)
(1.0178472 -0.030860924 0)
(1.0462163 -0.041434434 0)
(1.0799018 -0.045193556 0)
(1.1132663 -0.045502324 0)
(1.1437819 -0.044080262 0)
(1.170894 -0.041439907 0)
(1.1945686 -0.037973557 0)
(1.214858 -0.034195537 0)
(1.2319648 -0.030536594 0)
(1.2462677 -0.027221601 0)
(1.258233 -0.024313239 0)
(1.2683121 -0.021796849 0)
(1.2768854 -0.019632083 0)
(1.2842522 -0.017771433 0)
(1.2906433 -0.016166051 0)
(1.2962364 -0.014770304 0)
(1.3011696 -0.013544697 0)
(1.3055506 -0.012457004 0)
(1.3094639 -0.011481951 0)
(1.3129759 -0.010600113 0)
(1.3161395 -0.009796509 0)
(1.3189971 -0.009059295 0)
(1.3215836 -0.0083788326 0)
(1.3239279 -0.0077471428 0)
(1.3260541 -0.0071575339 0)
(1.327982 -0.0066042935 0)
(1.3297281 -0.0060824857 0)
(1.3313063 -0.0055879024 0)
(1.3327283 -0.0051171012 0)
(1.3340042 -0.0046674465 0)
(1.3351427 -0.0042371155 0)
(1.3361521 -0.0038250839 0)
(1.33704 -0.003431082 0)
(1.3378143 -0.0030555102 0)
(1.3384828 -0.0026993002 0)
(1.3390538 -0.0023637415 0)
(1.3395357 -0.0020502852 0)
(1.3399373 -0.0017603499 0)
(1.3402675 -0.0014951384 0)
(1.3405352 -0.0012554871 0)
(1.3407489 -0.0010417553 0)
(1.3409169 -0.00085376563 0)
(1.3410468 -0.00069079613 0)
(1.3411456 -0.00055161769 0)
(1.3412193 -0.00043457103 0)
(1.3412733 -0.00033766815 0)
(1.3413121 -0.00025870962 0)
(1.3413394 -0.00019539968 0)
(1.3413581 -0.00014545483 0)
(1.3413707 -0.00010669202 0)
(1.3413789 -7.7098226e-05 0)
(1.3413842 -5.4874226e-05 0)
(1.3413873 -3.8459424e-05 0)
(1.3413892 -2.6535583e-05 0)
(1.3413902 -1.8018445e-05 0)
(1.3413907 -1.2036485e-05 0)
(1.341391 -7.9068607e-06 0)
(1.341391 -5.1044353e-06 0)
(1.3413911 -3.2369192e-06 0)
(1.341391 -2.0136111e-06 0)
(1.341391 -1.2285726e-06 0)
(1.3413909 -7.3272285e-07 0)
(1.3413909 -4.2783153e-07 0)
(1.3413909 -2.4227522e-07 0)
(1.3413909 -1.3401927e-07 0)
(1.3413909 -7.0609634e-08 0)
(1.3413909 -3.6014489e-08 0)
(1.3413909 -1.6881981e-08 0)
(1.3413909 -6.9904385e-09 0)
(1.3413909 -2.5772531e-09 0)
(1.3413909 2.0748807e-10 0)
(1.3413909 2.722318e-10 0)
(1.3413909 1.3403105e-09 0)
(1.3413909 6.0518352e-10 0)
(1.3413909 1.1151194e-09 0)
(1.3413909 6.6713616e-10 0)
(1.3413909 8.4112447e-10 0)
(1.3413909 7.0306834e-10 0)
(1.3413909 9.3479639e-10 0)
(1.3413909 6.0288997e-10 0)
(1.3413909 1.3884745e-09 0)
(1.3413909 5.0207158e-10 0)
(1.3413909 1.9472126e-09 0)
(1.3413908 5.6141795e-10 0)
(1.3413909 2.2194589e-09 0)
(1.3413908 6.795361e-10 0)
(1.3413909 1.7459555e-09 0)
(1.3413908 -1.9496957e-10 0)
(1.341391 -1.3367467e-09 0)
(1.3413908 -5.3477706e-09 0)
(1.3413911 -1.3437371e-08 0)
(1.3413907 -2.4215364e-08 0)
(1.3413912 -5.3400187e-08 0)
(1.3413906 -8.5766444e-08 0)
(1.3413915 -1.7106135e-07 0)
(1.3413905 -2.6021814e-07 0)
(1.3413919 -4.5380693e-07 0)
(1.3413901 -6.1318635e-07 0)
(1.3413931 -8.6537188e-07 0)
(1.0014244 -0.026824854 0)
(1.0291272 -0.062791349 0)
(1.0654292 -0.077736546 0)
(1.098962 -0.080597185 0)
(1.1253148 -0.078285141 0)
(1.145053 -0.073153846 0)
(1.1594858 -0.066111188 0)
(1.1694286 -0.058161917 0)
(1.1755353 -0.050296522 0)
(1.1785737 -0.043150356 0)
(1.179357 -0.036972297 0)
(1.1785948 -0.031770842 0)
(1.1768303 -0.027450671 0)
(1.1744518 -0.023885047 0)
(1.1717288 -0.02094505 0)
(1.1688448 -0.018511932 0)
(1.1659204 -0.016482417 0)
(1.1630335 -0.01477128 0)
(1.1602326 -0.013311085 0)
(1.1575465 -0.012049924 0)
(1.1549909 -0.010948328 0)
(1.1525727 -0.0099761478 0)
(1.1502938 -0.0091099468 0)
(1.1481527 -0.0083311541 0)
(1.1461463 -0.0076248635 0)
(1.1442704 -0.0069789735 0)
(1.1425204 -0.0063835264 0)
(1.1408915 -0.0058302832 0)
(1.1393789 -0.0053125277 0)
(1.1379783 -0.0048249972 0)
(1.1366856 -0.004363808 0)
(1.1354971 -0.0039263604 0)
(1.1344094 -0.0035112046 0)
(1.1334193 -0.0031178892 0)
(1.1325236 -0.0027467489 0)
(1.1317192 -0.0023986683 0)
(1.1310026 -0.0020748138 0)
(1.1303698 -0.0017763902 0)
(1.1298164 -0.0015044151 0)
(1.1293377 -0.0012595471 0)
(1.1289281 -0.0010419608 0)
(1.1285818 -0.00085128569 0)
(1.1282928 -0.00068660197 0)
(1.1280545 -0.00054648502 0)
(1.1278608 -0.0004290938 0)
(1.1277055 -0.00033227468 0)
(1.1275826 -0.000253687 0)
(1.1274869 -0.00019091713 0)
(1.1274134 -0.00014159174 0)
(1.1273578 -0.00010346001 0)
(1.1273164 -7.4465084e-05 0)
(1.127286 -5.2779204e-05 0)
(1.127264 -3.6829593e-05 0)
(1.1272484 -2.5293354e-05 0)
(1.1272375 -1.7090779e-05 0)
(1.12723 -1.135667e-05 0)
(1.1272249 -7.41831e-06 0)
(1.1272215 -4.7599712e-06 0)
(1.1272193 -2.9985603e-06 0)
(1.1272179 -1.8525444e-06 0)
(1.127217 -1.1213645e-06 0)
(1.1272164 -6.642614e-07 0)
(1.1272161 -3.8409136e-07 0)
(1.1272159 -2.1691872e-07 0)
(1.1272158 -1.1862603e-07 0)
(1.1272157 -6.3422371e-08 0)
(1.1272157 -3.2298004e-08 0)
(1.1272157 -1.6206922e-08 0)
(1.1272157 -7.7148286e-09 0)
(1.1272157 -3.4490798e-09 0)
(1.1272157 -1.9815306e-09 0)
(1.1272157 -4.7499736e-10 0)
(1.1272157 -1.0506261e-09 0)
(1.1272157 1.6484206e-10 0)
(1.1272157 -8.803027e-10 0)
(1.1272157 2.7318545e-10 0)
(1.1272157 -6.6538579e-10 0)
(1.1272157 3.6704871e-10 0)
(1.1272157 -4.1606329e-10 0)
(1.1272157 6.0598894e-10 0)
(1.1272157 -3.2635696e-10 0)
(1.1272157 1.09224e-09 0)
(1.1272157 -3.6793108e-10 0)
(1.1272157 1.6575539e-09 0)
(1.1272157 -5.204668e-10 0)
(1.1272157 2.0006478e-09 0)
(1.1272156 -1.0518735e-09 0)
(1.1272157 1.3459944e-09 0)
(1.1272156 -3.360064e-09 0)
(1.1272157 -2.7387928e-09 0)
(1.1272156 -1.1342074e-08 0)
(1.1272158 -1.7589119e-08 0)
(1.1272155 -3.5916646e-08 0)
(1.1272159 -6.5285304e-08 0)
(1.1272154 -1.1304886e-07 0)
(1.127216 -2.134751e-07 0)
(1.1272152 -3.432981e-07 0)
(1.1272162 -6.0812861e-07 0)
(1.1272145 -8.6137135e-07 0)
(1.1272168 -1.2650231e-06 0)
(1.0016583 -0.05381943 0)
(1.0359761 -0.10128443 0)
(1.0597199 -0.11073663 0)
(1.0628947 -0.10592201 0)
(1.0515569 -0.096228707 0)
(1.0340529 -0.083934018 0)
(1.0142795 -0.070326987 0)
(0.99360711 -0.056981209 0)
(0.97292594 -0.045107283 0)
(0.95310772 -0.03523646 0)
(0.93479593 -0.027401236 0)
(0.91829101 -0.021386638 0)
(0.90362522 -0.016883657 0)
(0.890683 -0.013568498 0)
(0.87928546 -0.011145976 0)
(0.8692382 -0.0093710576 0)
(0.86035304 -0.0080531543 0)
(0.85245984 -0.0070516684 0)
(0.8454119 -0.0062673014 0)
(0.8390865 -0.0056323213 0)
(0.83338277 -0.0051016318 0)
(0.82821848 -0.0046454971 0)
(0.82352691 -0.0042442029 0)
(0.81925391 -0.0038844858 0)
(0.81535548 -0.0035572352 0)
(0.81179568 -0.0032559933 0)
(0.8085451 -0.0029759945 0)
(0.80557954 -0.0027136314 0)
(0.80287895 -0.0024662071 0)
(0.80042649 -0.0022318104 0)
(0.79820774 -0.0020092174 0)
(0.79620989 -0.0017977914 0)
(0.79442118 -0.0015973842 0)
(0.79283031 -0.0014082265 0)
(0.79142601 -0.0012308056 0)
(0.79019672 -0.0010657318 0)
(0.78913043 -0.00091361422 0)
(0.78821461 -0.00077495405 0)
(0.78743625 -0.00065006207 0)
(0.78678203 -0.00053900398 0)
(0.78623852 -0.00044157354 0)
(0.78579244 -0.00035729382 0)
(0.78543089 -0.00028544067 0)
(0.78514162 -0.00022508407 0)
(0.78491323 -0.00017514178 0)
(0.78473535 -0.00013444263 0)
(0.78459872 -0.00010178405 0)
(0.78449525 -7.5983127e-05 0)
(0.784418 -5.5918104e-05 0)
(0.78436118 -4.0559037e-05 0)
(0.78432 -2.898856e-05 0)
(0.7842906 -2.0410772e-05 0)
(0.78426992 -1.4154064e-05 0)
(0.78425562 -9.6638386e-06 0)
(0.78424587 -6.4945337e-06 0)
(0.78423934 -4.2940798e-06 0)
(0.78423504 -2.7925038e-06 0)
(0.78423226 -1.7848729e-06 0)
(0.78423048 -1.1210341e-06 0)
(0.78422938 -6.9114268e-07 0)
(0.7842287 -4.1821765e-07 0)
(0.7842283 -2.4813941e-07 0)
(0.78422806 -1.4428434e-07 0)
(0.78422793 -8.2371378e-08 0)
(0.78422785 -4.5947608e-08 0)
(0.78422782 -2.5490515e-08 0)
(0.7842278 -1.3766458e-08 0)
(0.78422779 -7.7384771e-09 0)
(0.78422778 -4.2709978e-09 0)
(0.78422779 -2.5980542e-09 0)
(0.78422778 -1.7619206e-09 0)
(0.78422779 -1.0911588e-09 0)
(0.78422778 -1.1040339e-09 0)
(0.78422779 -5.0568383e-10 0)
(0.78422778 -8.5599531e-10 0)
(0.78422779 -2.1008869e-10 0)
(0.78422778 -6.7475187e-10 0)
(0.78422779 3.4261643e-11 0)
(0.78422778 -5.4207438e-10 0)
(0.78422779 2.982252e-10 0)
(0.78422778 -4.6477113e-10 0)
(0.78422779 6.4359404e-10 0)
(0.78422778 -4.8147533e-10 0)
(0.78422779 9.699542e-10 0)
(0.78422778 -6.1523869e-10 0)
(0.7842278 1.1631182e-09 0)
(0.78422777 -1.3294962e-09 0)
(0.78422781 4.4458493e-10 0)
(0.78422777 -4.2541081e-09 0)
(0.78422781 -3.5110312e-09 0)
(0.78422775 -1.2800402e-08 0)
(0.78422782 -1.5465424e-08 0)
(0.7842277 -3.4207805e-08 0)
(0.78422782 -5.0359305e-08 0)
(0.78422757 -9.8476473e-08 0)
(0.7842278 -1.7130163e-07 0)
(0.78422725 -3.145834e-07 0)
(0.78422765 -5.5288529e-07 0)
(0.78422619 -8.7101601e-07 0)
(0.78422727 -1.3202343e-06 0)
(0.91890839 -0.035821913 0)
(0.86271384 -0.062195638 0)
(0.7870597 -0.062510089 0)
(0.69536033 -0.054550391 0)
(0.61089746 -0.04453164 0)
(0.54411596 -0.034015943 0)
(0.4934302 -0.024187488 0)
(0.45479428 -0.01614414 0)
(0.42544607 -0.010265636 0)
(0.40347353 -0.0063039344 0)
(0.38715824 -0.0037973623 0)
(0.37496304 -0.0023099712 0)
(0.36566317 -0.0014924586 0)
(0.35836456 -0.001084294 0)
(0.35244535 -0.00090494566 0)
(0.34748582 -0.00083958942 0)
(0.34320885 -0.00082183481 0)
(0.33943479 -0.0008168424 0)
(0.33604847 -0.00080863324 0)
(0.3329759 -0.00079165599 0)
(0.33016846 -0.00076551791 0)
(0.32759281 -0.00073194186 0)
(0.32522471 -0.00069319429 0)
(0.32304554 -0.000651374 0)
(0.32104027 -0.00060813648 0)
(0.3191964 -0.00056464182 0)
(0.31750331 -0.00052162603 0)
(0.31595189 -0.00047952074 0)
(0.31453431 -0.00043857203 0)
(0.31324373 -0.00039892233 0)
(0.31207403 -0.00036067312 0)
(0.31101959 -0.00032391807 0)
(0.31007496 -0.00028877128 0)
(0.30923474 -0.00025536721 0)
(0.30849329 -0.00022386017 0)
(0.3078447 -0.00019440546 0)
(0.30728267 -0.00016714888 0)
(0.30680057 -0.0001422082 0)
(0.30639144 -0.00011966371 0)
(0.30604814 -9.9547631e-05 0)
(0.30576344 -8.1840734e-05 0)
(0.30553021 -6.647278e-05 0)
(0.30534154 -5.3325666e-05 0)
(0.30519088 -4.224155e-05 0)
(0.30507217 -3.3030538e-05 0)
(0.30497989 -2.548841e-05 0)
(0.30490914 -1.9403673e-05 0)
(0.30485565 -1.4569381e-05 0)
(0.30481579 -1.078652e-05 0)
(0.3047865 -7.8727833e-06 0)
(0.3047653 -5.6628912e-06 0)
(0.30475017 -4.0137529e-06 0)
(0.30473955 -2.8021533e-06 0)
(0.3047322 -1.926733e-06 0)
(0.3047272 -1.3040809e-06 0)
(0.30472385 -8.6881898e-07 0)
(0.30472164 -5.6932075e-07 0)
(0.3047202 -3.6702346e-07 0)
(0.30471929 -2.3246966e-07 0)
(0.30471872 -1.4481744e-07 0)
(0.30471837 -8.8488667e-08 0)
(0.30471816 -5.3273817e-08 0)
(0.30471804 -3.134941e-08 0)
(0.30471797 -1.8334512e-08 0)
(0.30471792 -1.0371022e-08 0)
(0.3047179 -6.0534994e-09 0)
(0.30471789 -3.2963591e-09 0)
(0.30471789 -2.0588769e-09 0)
(0.30471788 -1.075891e-09 0)
(0.30471788 -8.3081092e-10 0)
(0.30471788 -4.3770713e-10 0)
(0.30471788 -4.3357838e-10 0)
(0.30471788 -2.4081242e-10 0)
(0.30471788 -2.8837064e-10 0)
(0.30471788 -1.7069775e-10 0)
(0.30471788 -1.9428837e-10 0)
(0.30471788 -1.1084702e-10 0)
(0.30471788 -1.3181945e-10 0)
(0.30471788 -7.9991998e-11 0)
(0.30471788 -1.6730704e-11 0)
(0.30471788 -5.6280349e-11 0)
(0.30471788 1.0509402e-10 0)
(0.30471787 -8.7631691e-11 0)
(0.30471788 2.2543212e-10 0)
(0.30471787 -1.5449965e-10 0)
(0.30471788 2.214531e-10 0)
(0.30471787 -5.9116166e-10 0)
(0.30471788 -5.0017624e-10 0)
(0.30471787 -2.4601047e-09 0)
(0.30471788 -3.1569051e-09 0)
(0.30471786 -7.0045746e-09 0)
(0.30471786 -8.6402402e-09 0)
(0.30471782 -1.6385093e-08 0)
(0.30471783 -2.2950239e-08 0)
(0.30471775 -4.781581e-08 0)
(0.30471773 -8.6597691e-08 0)
(0.30471748 -1.7531256e-07 0)
(0.30471731 -3.0469355e-07 0)
(0.30471645 -5.2209829e-07 0)
(0.30471575 -7.125302e-07 0)
)
;

boundaryField
{
    top
    {
        type            fixedValue;
        value           uniform (0 0 0);
    }
    inlet
    {
        type            fixedValue;
        value           uniform (1 0 0);
    }
    outlet
    {
        type            zeroGradient;
    }
    bottom
    {
        type            fixedValue;
        value           uniform (0 0 0);
    }
    back
    {
        type            empty;
    }
    front
    {
        type            empty;
    }
}


// ************************************************************************* //
