/*--------------------------------*- C++ -*----------------------------------*\
| =========                 |                                                 |
| \\      /  F ield         | OpenFOAM: The Open Source CFD Toolbox           |
|  \\    /   O peration     | Version:  v1812                                 |
|   \\  /    A nd           | Web:      www.OpenFOAM.com                      |
|    \\/     M anipulation  |                                                 |
\*---------------------------------------------------------------------------*/
FoamFile
{
    version     2.0;
    format      ascii;
    class       surfaceScalarField;
    location    "18.8";
    object      phi;
}
// * * * * * * * * * * * * * * * * * * * * * * * * * * * * * * * * * * * * * //

dimensions      [0 3 -1 0 0 0 0];
oriented        oriented;


internalField   nonuniform List<scalar> 
1890
(
0.0093061958
0.00069380425
0.0082843931
0.0010218027
0.0073298986
0.00095449446
0.0064869553
0.00084294331
0.0057695845
0.00071737078
0.00518986
0.00057972443
0.004738168
0.00045169205
0.00439519
0.00034297802
0.0041390268
0.00025616318
0.003949107
0.00018991983
0.003807888
0.00014121897
0.0037013782
0.0001065098
0.003619058
8.2320219e-05
0.0035534117
6.5646243e-05
0.0034992845
5.4127248e-05
0.0034532444
4.6040037e-05
0.0034130502
4.0194282e-05
0.0033772574
3.5792748e-05
0.0033449386
3.2318757e-05
0.0033154894
2.9449282e-05
0.0032885008
2.6988583e-05
0.0032636805
2.4820307e-05
0.003240805
2.2875484e-05
0.0032196926
2.1112417e-05
0.0032001879
1.9504651e-05
0.0031821539
1.8034006e-05
0.0031654672
1.6686718e-05
0.0031500158
1.5451355e-05
0.0031356979
1.4317859e-05
0.0031224209
1.3277069e-05
0.0031101003
1.2320594e-05
0.0030986596
1.1440725e-05
0.0030880292
1.0630439e-05
0.0030781458
9.883369e-06
0.003068952
9.1937714e-06
0.0030603955
8.5564918e-06
0.0030524286
7.9669097e-06
0.0030450077
7.4208933e-06
0.0030380929
6.9147391e-06
0.0030316478
6.4451183e-06
0.0030256388
6.0090533e-06
0.0030200349
5.6038454e-06
0.0030148079
5.2270747e-06
0.0030099313
4.8765403e-06
0.0030053811
4.5502508e-06
0.0030011347
4.2464021e-06
0.0029971713
3.9633363e-06
0.0029934717
3.6995574e-06
0.002990018
3.4536781e-06
0.0029867936
3.2244195e-06
0.002983783
3.0106187e-06
0.0029809718
2.8111763e-06
0.0029783468
2.6250952e-06
0.0029758953
2.4514448e-06
0.002973606
2.2893598e-06
0.0029714679
2.1380635e-06
0.0029694711
1.9968114e-06
0.0029676061
1.8649548e-06
0.0029658642
1.7418593e-06
0.0029642372
1.6269403e-06
0.0029627176
1.5196527e-06
0.0029612982
1.4194678e-06
0.0029599723
1.3259074e-06
0.0029587338
1.2385122e-06
0.002957577
1.1568622e-06
0.0029564964
1.080585e-06
0.002955487
1.0093249e-06
0.0029545442
9.4276802e-07
0.0029536635
8.8063408e-07
0.0029528409
8.2261822e-07
0.0029520724
7.6846677e-07
0.0029513546
7.1789772e-07
0.002950684
6.7064912e-07
0.0029500575
6.2648532e-07
0.0029494724
5.8519205e-07
0.0029489258
5.4658025e-07
0.0029484152
5.1051242e-07
0.0029479383
4.7681369e-07
0.0029474929
4.4539899e-07
0.0029470768
4.1607763e-07
0.002946688
3.8875243e-07
0.0029463249
3.632093e-07
0.0029459856
3.3935608e-07
0.0029456687
3.1698367e-07
0.0029453726
2.9608145e-07
0.0029450962
2.7642243e-07
0.0029448379
2.582129e-07
0.0029445967
2.4105851e-07
0.0029443712
2.2532774e-07
0.0029441609
2.1041255e-07
0.0029439642
1.9684784e-07
0.0029437803
1.8377544e-07
0.0029436083
1.7211464e-07
0.002943448
1.6037707e-07
0.0029432978
1.5018673e-07
0.0029431574
1.402938e-07
0.0029430254
1.3210857e-07
0.0029429003
1.2511213e-07
0.0029427808
1.1941495e-07
1.2577326e-07
0.010339525
0.00035427931
0.010570754
0.00079057333
0.010606301
0.00091894817
0.010547572
0.00090167133
0.010422317
0.0008426262
0.010244356
0.00075768557
0.010039421
0.00065662743
0.0098287427
0.00055365586
0.009625135
0.00045977083
0.0094353013
0.00037975353
0.0092624277
0.00031409258
0.0091075333
0.00026140425
0.008970154
0.00021969948
0.0088489024
0.00018689785
0.0087419716
0.00016105801
0.0086474927
0.00014051893
0.008563694
0.00012399295
0.0084890108
0.00011047599
0.0084221097
9.9219866e-05
0.0083618776
8.9681405e-05
0.0083073955
8.1470668e-05
0.0082579079
7.4307847e-05
0.0082127929
6.7990493e-05
0.0081715354
6.2369982e-05
0.008133705
5.7335005e-05
0.0080989388
5.2800173e-05
0.0080669273
4.8698255e-05
0.0080374037
4.4974949e-05
0.0080101362
4.1585385e-05
0.0079849214
3.8491845e-05
0.0079615798
3.5662153e-05
0.0079399519
3.3068611e-05
0.0079198952
3.0687171e-05
0.0079012817
2.8496848e-05
0.0078839962
2.6479238e-05
0.0078679346
2.4618137e-05
0.0078530023
2.2899235e-05
0.0078391133
2.1309838e-05
0.0078261894
1.9838655e-05
0.0078141589
1.8475607e-05
0.0078029563
1.7211663e-05
0.0077925214
1.6038725e-05
0.007782799
1.4949479e-05
0.0077737382
1.3937336e-05
0.0077652921
1.2996318e-05
0.0077574175
1.2120997e-05
0.0077500744
1.1306445e-05
0.0077432258
1.0548141e-05
0.0077368375
9.8419659e-06
0.0077308778
9.1841305e-06
0.0077253173
8.5711436e-06
0.0077201287
7.9998136e-06
0.0077152866
7.4671673e-06
0.0077107676
6.970486e-06
0.0077065497
6.5072511e-06
0.0077026126
6.0751356e-06
0.0076989373
5.6720146e-06
0.0076955064
5.2958968e-06
0.0076923033
4.9449563e-06
0.0076893128
4.61747e-06
0.0076865206
4.3118342e-06
0.0076839136
4.0265683e-06
0.0076814792
3.7602641e-06
0.0076792061
3.5116431e-06
0.0076770834
3.2795044e-06
0.0076751012
3.0627429e-06
0.0076732501
2.8603539e-06
0.0076715215
2.6713914e-06
0.0076699072
2.4949739e-06
0.0076683996
2.330287e-06
0.0076669915
2.1765252e-06
0.0076656765
2.0329403e-06
0.0076644483
1.8988377e-06
0.0076633013
1.7735432e-06
0.0076622299
1.6564941e-06
0.0076612293
1.5471321e-06
0.0076602948
1.4450072e-06
0.007659422
1.3496373e-06
0.0076586068
1.2606474e-06
0.0076578453
1.1775482e-06
0.0076571341
1.1000372e-06
0.0076564698
1.027533e-06
0.0076558492
9.5989767e-07
0.0076552697
8.9649864e-07
0.0076547283
8.3743588e-07
0.0076542228
7.8189199e-07
0.0076537505
7.304631e-07
0.0076533094
6.8214318e-07
0.0076528972
6.3761046e-07
0.0076525127
5.9496645e-07
0.0076521528
5.5670601e-07
0.0076518171
5.1953959e-07
0.0076515027
4.8640621e-07
0.0076512105
4.5244635e-07
0.0076509355
4.251007e-07
0.0076506807
3.9526491e-07
0.0076504386
3.7432907e-07
0.0076502165
3.4709203e-07
0.0076499999
3.360704e-07
3.1077659e-07
0.010188704
0.00016557515
0.010530487
0.00044879097
0.010851453
0.00059798174
0.011124174
0.00062895021
0.011350581
0.00061621883
0.011524486
0.00058378053
0.01164633
0.00053478419
0.011724155
0.00047583049
0.011767999
0.00041592665
0.011786639
0.00036111399
0.011787114
0.0003136171
0.011775058
0.00027346024
0.011754861
0.00023989717
0.011729768
0.00021199029
0.011702054
0.00018877259
0.011673239
0.00016933387
0.011644339
0.00015289295
0.011616003
0.00013881182
0.011588629
0.00012659379
0.011562446
0.00011586444
0.011537572
0.00010634493
0.011514052
9.782699e-05
0.01149189
9.0153351e-05
0.011471056
8.3203355e-05
0.011451509
7.6882601e-05
0.011433193
7.111555e-05
0.011416051
6.5840285e-05
0.011400021
6.10049e-05
0.011385042
5.6565064e-05
0.011371051
5.2482331e-05
0.01135799
4.8723023e-05
0.011345801
4.5257383e-05
0.01133443
4.2058989e-05
0.011323822
3.9104266e-05
0.011313929
3.6372114e-05
0.011304704
3.3843598e-05
0.011296101
3.1501682e-05
0.01128808
2.9331007e-05
0.011280601
2.7317691e-05
0.011273628
2.5449169e-05
0.011267125
2.3714047e-05
0.011261062
2.2101952e-05
0.011255408
2.0603458e-05
0.011250135
1.9209949e-05
0.011245218
1.7913565e-05
0.011240632
1.6707108e-05
0.011236354
1.5583973e-05
0.011232365
1.4538106e-05
0.011228643
1.3563923e-05
0.01122517
1.2656291e-05
0.011221931
1.1810483e-05
0.011218909
1.1022107e-05
0.011216089
1.0287136e-05
0.011213457
9.6018243e-06
0.011211002
8.9627178e-06
0.01120871
8.36663e-06
0.011206572
7.8105977e-06
0.011204576
7.2918851e-06
0.011202713
6.8079259e-06
0.011200974
6.3563512e-06
0.011199351
5.9349604e-06
0.011197836
5.5416793e-06
0.011196422
5.1746167e-06
0.011195101
4.8319826e-06
0.011193868
4.5121426e-06
0.011192718
4.2135657e-06
0.011191643
3.9348344e-06
0.01119064
3.674629e-06
0.011189703
3.4317207e-06
0.011188829
3.2049293e-06
0.011188012
2.9931969e-06
0.011187249
2.7954713e-06
0.011186537
2.6108278e-06
0.011185873
2.4383745e-06
0.011185252
2.2773338e-06
0.011184672
2.1269211e-06
0.01118413
1.9865087e-06
0.011183625
1.8553661e-06
0.011183152
1.7329901e-06
0.011182711
1.6186414e-06
0.011182299
1.5119413e-06
0.011181915
1.4121246e-06
0.011181556
1.3190646e-06
0.01118122
1.2318424e-06
0.011180907
1.150695e-06
0.011180614
1.074514e-06
0.011180341
1.0040963e-06
0.011180086
9.3726128e-07
0.011179847
8.7619351e-07
0.011179625
8.1775066e-07
0.011179416
7.6531295e-07
0.011179222
7.1275325e-07
0.01117904
6.6812722e-07
0.011178872
6.2103858e-07
0.011178712
5.8528667e-07
0.011178566
5.4113075e-07
0.011178425
5.151879e-07
0.0111783
4.7224495e-07
0.011178177
4.5902045e-07
4.1608217e-07
0.010097182
6.8393549e-05
0.010346961
0.0001990111
0.010662469
0.00028247385
0.010982753
0.00030866646
0.011290229
0.00030874339
0.011575251
0.00029875786
0.011829022
0.00028101344
0.012047865
0.00025698754
0.012233272
0.00023051981
0.01238924
0.00020514589
0.012520295
0.00018256234
0.012630755
0.00016299955
0.012724428
0.00014622489
0.012804515
0.0001319031
0.012873613
0.00011967425
0.012933772
0.0001091746
0.012986596
0.00010006906
0.013033332
9.2076356e-05
0.01307495
8.4975243e-05
0.013112216
7.8598603e-05
0.013145739
7.2822292e-05
0.013176012
6.7553925e-05
0.013203441
6.2723909e-05
0.013228366
5.8278882e-05
0.013251071
5.4176977e-05
0.013271802
5.0384422e-05
0.01329077
4.6873153e-05
0.013308155
4.361917e-05
0.013324119
4.0601452e-05
0.0133388
3.7801275e-05
0.013352321
3.5201748e-05
0.013364791
3.2787525e-05
0.013376306
3.0544585e-05
0.01338695
2.846008e-05
0.0133968
2.6522214e-05
0.013405923
2.472013e-05
0.013414381
2.3043838e-05
0.013422228
2.1484136e-05
0.013429513
2.0032549e-05
0.013436281
1.8681259e-05
0.013442572
1.742305e-05
0.013448423
1.625127e-05
0.013453866
1.5159758e-05
0.013458933
1.4142829e-05
0.013463652
1.3195222e-05
0.013468047
1.2312071e-05
0.013472142
1.1488867e-05
0.013475959
1.0721433e-05
0.013479517
1.0005901e-05
0.013482834
9.3386782e-06
0.013485928
8.7164269e-06
0.013488814
8.1360623e-06
0.013491507
7.5946966e-06
0.013494019
7.0896672e-06
0.013496363
6.618499e-06
0.013498551
6.178892e-06
0.013500593
5.7687023e-06
0.013502499
5.3859276e-06
0.013504278
5.0287152e-06
0.013505939
4.695335e-06
0.01350749
4.3841692e-06
0.013508938
4.0937317e-06
0.01351029
3.8226169e-06
0.013511552
3.5695366e-06
0.013512731
3.3332812e-06
0.013513832
3.1127292e-06
0.01351486
2.9068373e-06
0.01351582
2.7146167e-06
0.013516716
2.535155e-06
0.013517554
2.3675952e-06
0.013518336
2.2111256e-06
0.013519066
2.0650102e-06
0.013519748
1.9285694e-06
0.013520386
1.8011461e-06
0.013520981
1.6821848e-06
0.013521537
1.5710857e-06
0.013522056
1.467383e-06
0.013522541
1.3705187e-06
0.013522994
1.2801067e-06
0.013523417
1.1955904e-06
0.013523812
1.1167345e-06
0.013524181
1.0429436e-06
0.013524526
9.7418179e-07
0.013524848
9.0971163e-07
0.013525148
8.4992597e-07
0.01352543
7.9367701e-07
0.013525692
7.4159725e-07
0.013525937
6.9214035e-07
0.013526166
6.4740843e-07
0.01352638
6.039981e-07
0.01352658
5.6504679e-07
0.013526766
5.2576564e-07
0.013526941
4.9380998e-07
0.013527104
4.5851744e-07
0.013527257
4.3256931e-07
0.013527399
3.9882928e-07
0.013527533
3.8082687e-07
0.013527658
3.471005e-07
0.013527779
3.379858e-07
3.0562971e-07
0.010068394
-5.0933061e-12
0.010267405
-1.3180357e-11
0.010549879
-1.4259873e-11
0.010858545
-1.2281468e-11
0.011167288
-9.6370305e-12
0.011466046
-9.6280314e-12
0.01174706
-1.0411886e-11
0.012004047
-1.1898633e-11
0.012234567
-1.3400362e-11
0.012439713
-1.5229301e-11
0.012622275
-1.581063e-11
0.012785275
-1.4755128e-11
0.0129315
-1.3492603e-11
0.013063403
-1.1648724e-11
0.013183077
-1.0155775e-11
0.013292252
-1.0110823e-11
0.013392321
-1.0808394e-11
0.013484397
-1.0746479e-11
0.013569373
-8.2845348e-12
0.013647971
-6.53252e-12
0.013720793
-8.6208139e-12
0.013788347
-1.3242622e-11
0.013851071
-1.4257639e-11
0.01390935
-1.3057295e-11
0.013963527
-1.0775782e-11
0.014013912
-9.2258008e-12
0.014060785
-9.9569666e-12
0.014104404
-9.5474163e-12
0.014145005
-6.0034347e-12
0.014182807
-4.0599558e-12
0.014218008
-3.8434222e-12
0.014250796
-7.2463257e-12
0.014281341
-1.1667754e-11
0.014309801
-1.4775802e-11
0.014336323
-1.4353336e-11
0.014361043
-1.0259272e-11
0.014384087
-4.9546234e-12
0.014405571
-2.4652166e-12
0.014425604
-2.4370476e-12
0.014444285
-3.6793017e-12
0.014461708
-5.4989777e-12
0.014477959
-7.6403718e-12
0.014493119
-7.9014478e-12
0.014507262
-8.0486794e-12
0.014520457
-7.8340315e-12
0.014532769
-7.4265671e-12
0.014544258
-7.8022035e-12
0.014554979
-7.1717365e-12
0.014564985
-4.2427199e-12
0.014574324
7.5930415e-14
0.014583041
3.1298237e-12
0.014591177
9.1972281e-13
0.014598771
-3.5958319e-12
0.014605861
-1.2555408e-11
0.014612479
-1.9009102e-11
0.014618658
-1.6588903e-11
0.014624427
-5.5040341e-12
0.014629813
7.4741345e-12
0.014634842
2.1094623e-11
0.014639537
2.7523539e-11
0.014643921
2.4891e-11
0.014648015
1.4230632e-11
0.014651837
3.0747281e-12
0.014655407
-1.0124543e-11
0.01465874
-1.9133391e-11
0.014661853
-1.7463322e-11
0.01466476
-7.6976977e-12
0.014667475
1.0348115e-11
0.01467001
3.0459932e-11
0.014672377
3.9371675e-11
0.014674588
3.815331e-11
0.014676653
2.0703439e-11
0.014678582
1.0281401e-12
0.014680383
-2.4283905e-11
0.014682065
-4.130777e-11
0.014683637
-3.440875e-11
0.014685103
-1.0592846e-11
0.014686474
2.476804e-11
0.014687755
5.0887653e-11
0.01468895
4.6823551e-11
0.014690066
2.7333125e-11
0.01469111
6.8786673e-12
0.014692084
-3.4844442e-11
0.014692993
-5.9041928e-11
0.014693843
-2.2642152e-11
0.014694637
1.3415755e-11
0.014695379
8.7257829e-12
0.014696071
2.5857611e-11
0.014696717
1.177001e-10
0.014697322
6.8312694e-11
0.014697888
-9.2207887e-11
0.014698412
-1.2662083e-10
0.014698906
-5.3558757e-11
0.014699366
6.8765126e-11
0.014699798
9.4867391e-11
0.014700196
4.7343003e-11
0.014700577
-3.8664275e-13
0.014700925
-6.9791588e-11
0.014701263
-1.1665881e-10
-8.0323129e-11
0.010068394
-6.8393558e-05
0.010267405
-0.00019901113
0.010549879
-0.00028247388
0.010858545
-0.00030866649
0.011167288
-0.00030874342
0.011466046
-0.00029875789
0.01174706
-0.00028101346
0.012004047
-0.00025698756
0.012234567
-0.00023051983
0.012439713
-0.00020514591
0.012622275
-0.00018256236
0.012785275
-0.00016299958
0.0129315
-0.00014622491
0.013063403
-0.00013190313
0.013183077
-0.00011967427
0.013292252
-0.00010917462
0.013392321
-0.00010006908
0.013484397
-9.2076369e-05
0.013569373
-8.4975254e-05
0.013647971
-7.8598616e-05
0.013720793
-7.2822308e-05
0.013788347
-6.7553945e-05
0.013851071
-6.2723934e-05
0.01390935
-5.8278906e-05
0.013963527
-5.4176996e-05
0.014013912
-5.0384441e-05
0.014060785
-4.6873173e-05
0.014104404
-4.3619185e-05
0.014145005
-4.0601463e-05
0.014182807
-3.7801281e-05
0.014218008
-3.5201758e-05
0.014250796
-3.278754e-05
0.014281341
-3.0544606e-05
0.014309801
-2.8460106e-05
0.014336323
-2.6522235e-05
0.014361043
-2.4720143e-05
0.014384087
-2.3043847e-05
0.014405571
-2.1484145e-05
0.014425604
-2.0032557e-05
0.014444285
-1.8681267e-05
0.014461708
-1.7423063e-05
0.014477959
-1.625128e-05
0.014493119
-1.5159767e-05
0.014507262
-1.4142839e-05
0.014520457
-1.3195235e-05
0.014532769
-1.2312087e-05
0.014544258
-1.1488885e-05
0.014554979
-1.072145e-05
0.014564985
-1.000591e-05
0.014574324
-9.338679e-06
0.01458304
-8.7164299e-06
0.014591177
-8.136062e-06
0.014598771
-7.5947037e-06
0.014605861
-7.0896843e-06
0.014612479
-6.6185202e-06
0.014618658
-6.1789067e-06
0.014624427
-5.768702e-06
0.014629813
-5.3859174e-06
0.014634842
-5.0286913e-06
0.014639537
-4.6952951e-06
0.014643921
-4.3841349e-06
0.014648015
-4.0937066e-06
0.014651837
-3.8226107e-06
0.014655407
-3.5695457e-06
0.01465874
-3.3333074e-06
0.014661853
-3.1127582e-06
0.01466476
-2.9068466e-06
0.014667475
-2.7146021e-06
0.01467001
-2.5351179e-06
0.014672377
-2.3675345e-06
0.014674588
-2.2110787e-06
0.014676653
-2.0649815e-06
0.014678582
-1.9285708e-06
0.014680383
-1.8011812e-06
0.014682065
-1.6822292e-06
0.014683637
-1.571123e-06
0.014685103
-1.467389e-06
0.014686474
-1.3704877e-06
0.014687755
-1.2800607e-06
0.01468895
-1.1955417e-06
0.014690066
-1.116702e-06
0.01469111
-1.0429447e-06
0.014692084
-9.7421476e-07
0.014692993
-9.0977128e-07
0.014693843
-8.4994734e-07
0.014694637
-7.9365154e-07
0.014695379
-7.415962e-07
0.014696071
-6.9213452e-07
0.014696717
-6.4727584e-07
0.014697322
-6.0381423e-07
0.014697888
-5.6526989e-07
0.014698413
-5.2610986e-07
0.014698906
-4.9354947e-07
0.014699366
-4.5816229e-07
0.014699799
-4.3278744e-07
0.014700196
-3.9913355e-07
0.014700577
-3.8078803e-07
0.014700925
-3.4701067e-07
0.014701263
-3.3806454e-07
-3.0572597e-07
0.010097182
-0.00016557515
0.010346961
-0.000448791
0.010662469
-0.00059798177
0.010982753
-0.00062895025
0.011290229
-0.00061621886
0.011575251
-0.00058378055
0.011829022
-0.0005347842
0.012047865
-0.0004758305
0.012233272
-0.00041592666
0.01238924
-0.000361114
0.012520295
-0.00031361712
0.012630755
-0.00027346026
0.012724428
-0.00023989719
0.012804515
-0.00021199031
0.012873613
-0.00018877261
0.012933772
-0.00016933388
0.012986596
-0.00015289296
0.013033332
-0.00013881183
0.01307495
-0.00012659379
0.013112216
-0.00011586445
0.013145739
-0.00010634494
0.013176012
-9.7827005e-05
0.013203441
-9.0153368e-05
0.013228366
-8.3203371e-05
0.013251071
-7.688262e-05
0.013271802
-7.1115567e-05
0.01329077
-6.5840297e-05
0.013308155
-6.100491e-05
0.013324119
-5.656507e-05
0.0133388
-5.2482339e-05
0.013352321
-4.8723028e-05
0.013364791
-4.5257392e-05
0.013376305
-4.2059001e-05
0.01338695
-3.9104278e-05
0.0133968
-3.6372128e-05
0.013405923
-3.3843614e-05
0.013414381
-3.1501698e-05
0.013422228
-2.933102e-05
0.013429513
-2.7317702e-05
0.013436281
-2.5449178e-05
0.013442572
-2.3714047e-05
0.013448422
-2.2101952e-05
0.013453866
-2.0603459e-05
0.013458933
-1.9209955e-05
0.013463652
-1.7913577e-05
0.013468047
-1.6707125e-05
0.013472142
-1.5583994e-05
0.013475958
-1.4538121e-05
0.013479516
-1.3563935e-05
0.013482834
-1.2656302e-05
0.013485928
-1.181048e-05
0.013488814
-1.1022103e-05
0.013491507
-1.0287129e-05
0.013494019
-9.60182e-06
0.013496363
-8.9627214e-06
0.013498551
-8.3666397e-06
0.013500593
-7.8106144e-06
0.013502499
-7.2918886e-06
0.013504278
-6.8079189e-06
0.013505939
-6.3563366e-06
0.01350749
-5.9349294e-06
0.013508938
-5.5416505e-06
0.01351029
-5.1745946e-06
0.013511552
-4.8319806e-06
0.013512731
-4.5121515e-06
0.013513832
-4.2135814e-06
0.01351486
-3.9348543e-06
0.01351582
-3.674637e-06
0.013516716
-3.4317108e-06
0.013517554
-3.2049152e-06
0.013518336
-2.9931624e-06
0.013519066
-2.7954383e-06
0.013519748
-2.6108087e-06
0.013520386
-2.4383719e-06
0.013520981
-2.2773508e-06
0.013521537
-2.1269567e-06
0.013522056
-1.9865476e-06
0.013522541
-1.8553897e-06
0.013522994
-1.7329847e-06
0.013523417
-1.6186098e-06
0.013523812
-1.5118927e-06
0.013524181
-1.4120786e-06
0.013524526
-1.3190461e-06
0.013524848
-1.2318509e-06
0.013525148
-1.1507642e-06
0.01352543
-1.0745668e-06
0.013525692
-1.0040614e-06
0.013525937
-9.3724607e-07
0.013526166
-8.7630096e-07
0.01352638
-8.1778325e-07
0.01352658
-7.6503085e-07
0.013526766
-7.1250724e-07
0.013526941
-6.6833686e-07
0.013527104
-6.2134618e-07
0.013527257
-5.8528001e-07
0.013527398
-5.4103387e-07
0.013527533
-5.1515289e-07
0.013527658
-4.7222959e-07
0.013527779
-4.5902856e-07
-4.1607454e-07
0.010188704
-0.00035427932
0.010530487
-0.00079057335
0.010851453
-0.0009189482
0.011124174
-0.00090167137
0.011350581
-0.00084262623
0.011524486
-0.00075768559
0.01164633
-0.00065662744
0.011724155
-0.00055365586
0.011767999
-0.00045977083
0.011786639
-0.00037975354
0.011787114
-0.00031409259
0.011775058
-0.00026140427
0.011754861
-0.00021969949
0.011729768
-0.00018689787
0.011702054
-0.00016105802
0.011673239
-0.00014051894
0.011644339
-0.00012399295
0.011616003
-0.00011047599
0.011588629
-9.9219868e-05
0.011562446
-8.9681405e-05
0.011537572
-8.1470672e-05
0.011514052
-7.4307852e-05
0.011491889
-6.7990501e-05
0.011471056
-6.2369993e-05
0.011451509
-5.7335016e-05
0.011433193
-5.2800185e-05
0.011416051
-4.8698266e-05
0.011400021
-4.4974955e-05
0.011385041
-4.1585392e-05
0.011371051
-3.8491849e-05
0.01135799
-3.5662158e-05
0.011345801
-3.3068613e-05
0.011334429
-3.0687174e-05
0.011323822
-2.8496852e-05
0.011313929
-2.6479244e-05
0.011304704
-2.461815e-05
0.011296101
-2.2899251e-05
0.01128808
-2.1309855e-05
0.011280601
-1.9838668e-05
0.011273628
-1.8475613e-05
0.011267125
-1.7211664e-05
0.011261062
-1.6038717e-05
0.011255408
-1.4949473e-05
0.011250135
-1.3937334e-05
0.011245218
-1.2996323e-05
0.011240632
-1.2121012e-05
0.011236354
-1.1306461e-05
0.011232364
-1.054816e-05
0.011228643
-9.8419818e-06
0.01122517
-9.1841393e-06
0.011221931
-8.571149e-06
0.011218909
-7.999804e-06
0.011216089
-7.4671513e-06
0.011213457
-6.9704653e-06
0.011211002
-6.5072342e-06
0.01120871
-6.0751373e-06
0.011206572
-5.6720279e-06
0.011204576
-5.2959216e-06
0.011202713
-4.9449761e-06
0.011200974
-4.6174777e-06
0.011199351
-4.3118291e-06
0.011197836
-4.0265411e-06
0.011196421
-3.7602322e-06
0.011195101
-3.5116121e-06
0.011193868
-3.2794857e-06
0.011192718
-3.0627457e-06
0.011191643
-2.8603746e-06
0.01119064
-2.6714243e-06
0.011189703
-2.495013e-06
0.011188829
-2.3303057e-06
0.011188012
-2.1765227e-06
0.011187249
-2.0329095e-06
0.011186537
-1.8987881e-06
0.011185873
-1.773498e-06
0.011185252
-1.6564716e-06
0.011184672
-1.5471443e-06
0.01118413
-1.4450599e-06
0.011183625
-1.3497068e-06
0.011183152
-1.2607102e-06
0.011182711
-1.177566e-06
0.011182299
-1.1000013e-06
0.011181915
-1.0274642e-06
0.011181556
-9.5981078e-07
0.01118122
-8.9644224e-07
0.011180907
-8.3743671e-07
0.011180614
-7.8196504e-07
0.011180341
-7.3056321e-07
0.011180086
-6.8219853e-07
0.011179847
-6.3766773e-07
0.011179624
-5.9502869e-07
0.011179416
-5.5653779e-07
0.011179223
-5.1915716e-07
0.01117904
-4.862989e-07
0.011178872
-4.5280502e-07
0.011178712
-4.2542354e-07
0.011178566
-3.9517717e-07
0.011178425
-3.741518e-07
0.0111783
-3.4705801e-07
0.011178177
-3.3599492e-07
-3.1069701e-07
0.010339525
-0.00069380425
0.010570754
-0.0010218027
0.010606301
-0.00095449448
0.010547572
-0.00084294333
0.010422317
-0.0007173708
0.010244356
-0.00057972444
0.010039421
-0.00045169205
0.0098287427
-0.00034297801
0.009625135
-0.00025616318
0.0094353013
-0.00018991983
0.0092624277
-0.00014121897
0.0091075332
-0.0001065098
0.008970154
-8.2320226e-05
0.0088489023
-6.5646249e-05
0.0087419716
-5.4127255e-05
0.0086474927
-4.6040044e-05
0.008563694
-4.0194286e-05
0.0084890108
-3.5792751e-05
0.0084221096
-3.2318757e-05
0.0083618775
-2.9449283e-05
0.0083073954
-2.698858e-05
0.0082579079
-2.4820304e-05
0.0082127929
-2.2875483e-05
0.0081715353
-2.1112419e-05
0.0081337049
-1.9504656e-05
0.0080989388
-1.8034017e-05
0.0080669272
-1.6686727e-05
0.0080374036
-1.5451365e-05
0.0080101361
-1.4317864e-05
0.0079849213
-1.3277073e-05
0.0079615798
-1.2320592e-05
0.0079399519
-1.144072e-05
0.0079198951
-1.0630433e-05
0.0079012816
-9.8833644e-06
0.0078839962
-9.1937718e-06
0.0078679345
-8.5564988e-06
0.0078530022
-7.9669236e-06
0.0078391132
-7.4209094e-06
0.0078261893
-6.9147517e-06
0.0078141588
-6.4451277e-06
0.0078029562
-6.0090524e-06
0.0077925213
-5.6038392e-06
0.0077827989
-5.2270627e-06
0.0077737381
-4.8765285e-06
0.0077652921
-4.5502456e-06
0.0077574175
-4.2464032e-06
0.0077500743
-3.9633492e-06
0.0077432258
-3.6995747e-06
0.0077368375
-3.4536958e-06
0.0077308778
-3.2244373e-06
0.0077253172
-3.0106236e-06
0.0077201286
-2.8111705e-06
0.0077152865
-2.6250766e-06
0.0077107675
-2.4514165e-06
0.0077065496
-2.289337e-06
0.0077026125
-2.1380501e-06
0.0076989373
-1.996824e-06
0.0076955064
-1.8649807e-06
0.0076923033
-1.7418919e-06
0.0076893128
-1.6269694e-06
0.0076865206
-1.5196622e-06
0.0076839135
-1.4194567e-06
0.0076814791
-1.3258746e-06
0.007679206
-1.2384687e-06
0.0076770834
-1.156826e-06
0.0076751012
-1.0805665e-06
0.0076732502
-1.0093381e-06
0.0076715216
-9.4281303e-07
0.0076699072
-8.8068751e-07
0.0076683996
-8.2266975e-07
0.0076669915
-7.6848711e-07
0.0076656765
-7.1787627e-07
0.0076644483
-6.7059696e-07
0.0076633012
-6.2641697e-07
0.0076622299
-5.8513938e-07
0.0076612294
-5.465684e-07
0.0076602949
-5.1054613e-07
0.007659422
-4.7689414e-07
0.0076586068
-4.4548555e-07
0.0076578453
-4.1613723e-07
0.0076571341
-3.8875553e-07
0.0076564698
-3.6314879e-07
0.0076558492
-3.3926443e-07
0.0076552697
-3.1687998e-07
0.0076547283
-2.9604375e-07
0.0076542229
-2.7646005e-07
0.0076537506
-2.5827262e-07
0.0076533094
-2.4117161e-07
0.0076528971
-2.2548416e-07
0.0076525126
-2.104187e-07
0.0076521529
-1.9666744e-07
0.0076518172
-1.8360966e-07
0.0076515028
-1.7205836e-07
0.0076512105
-1.6040758e-07
0.0076509355
-1.5028714e-07
0.0076506807
-1.4040345e-07
0.0076504385
-1.3208792e-07
0.0076502165
-1.250028e-07
0.0076499999
-1.1933671e-07
-1.2571547e-07
0.0093061957
0.0082843931
0.0073298986
0.0064869553
0.0057695845
0.00518986
0.004738168
0.00439519
0.0041390268
0.003949107
0.003807888
0.0037013782
0.003619058
0.0035534117
0.0034992845
0.0034532444
0.0034130501
0.0033772574
0.0033449386
0.0033154893
0.0032885008
0.0032636805
0.003240805
0.0032196926
0.0032001879
0.0031821539
0.0031654672
0.0031500158
0.0031356979
0.0031224208
0.0031101003
0.0030986595
0.0030880291
0.0030781458
0.003068952
0.0030603955
0.0030524286
0.0030450076
0.0030380929
0.0030316478
0.0030256387
0.0030200349
0.0030148078
0.0030099313
0.0030053811
0.0030011347
0.0029971713
0.0029934717
0.002990018
0.0029867936
0.0029837829
0.0029809718
0.0029783467
0.0029758953
0.002973606
0.0029714679
0.0029694711
0.0029676061
0.0029658642
0.0029642372
0.0029627175
0.0029612981
0.0029599722
0.0029587338
0.002957577
0.0029564965
0.0029554871
0.0029545443
0.0029536635
0.0029528408
0.0029520723
0.0029513545
0.0029506839
0.0029500575
0.0029494724
0.0029489259
0.0029484153
0.0029479384
0.0029474928
0.0029470767
0.0029466879
0.0029463248
0.0029459856
0.0029456687
0.0029453727
0.0029450963
0.002944838
0.0029445965
0.0029443711
0.002944161
0.0029439642
0.0029437802
0.0029436083
0.0029434482
0.002943298
0.0029431574
0.0029430253
0.0029429003
0.0029427809
)
;

boundaryField
{
    top
    {
        type            calculated;
        value           uniform 0;
    }
    inlet
    {
        type            calculated;
        value           nonuniform List<scalar> 10(-0.01 -0.01 -0.01 -0.01 -0.01 -0.01 -0.01 -0.01 -0.01 -0.01);
    }
    outlet
    {
        type            calculated;
        value           nonuniform List<scalar> 10(0.002942655 0.0076498148 0.011178072 0.01352789 0.014701569 0.014701569 0.01352789 0.011178072 0.0076498149 0.0029426552);
    }
    bottom
    {
        type            calculated;
        value           uniform 0;
    }
    back
    {
        type            empty;
        value           nonuniform 0();
    }
    front
    {
        type            empty;
        value           nonuniform 0();
    }
}


// ************************************************************************* //
