/*--------------------------------*- C++ -*----------------------------------*\
| =========                 |                                                 |
| \\      /  F ield         | OpenFOAM: The Open Source CFD Toolbox           |
|  \\    /   O peration     | Version:  v1812                                 |
|   \\  /    A nd           | Web:      www.OpenFOAM.com                      |
|    \\/     M anipulation  |                                                 |
\*---------------------------------------------------------------------------*/
FoamFile
{
    version     2.0;
    format      ascii;
    class       surfaceScalarField;
    location    "11";
    object      phi;
}
// * * * * * * * * * * * * * * * * * * * * * * * * * * * * * * * * * * * * * //

dimensions      [0 3 -1 0 0 0 0];
oriented        oriented;


internalField   nonuniform List<scalar> 
1890
(
0.0093061957
0.00069380425
0.0082843931
0.0010218027
0.0073298986
0.00095449449
0.0064869552
0.00084294334
0.0057695844
0.00071737081
0.00518986
0.00057972444
0.004738168
0.00045169204
0.00439519
0.000342978
0.0041390268
0.00025616317
0.003949107
0.00018991982
0.003807888
0.00014121897
0.0037013782
0.0001065098
0.003619058
8.2320228e-05
0.0035534117
6.5646254e-05
0.0034992845
5.4127261e-05
0.0034532444
4.6040051e-05
0.0034130502
4.0194289e-05
0.0033772574
3.5792748e-05
0.0033449386
3.2318749e-05
0.0033154893
2.9449272e-05
0.0032885008
2.698857e-05
0.0032636805
2.48203e-05
0.003240805
2.2875485e-05
0.0032196926
2.1112427e-05
0.0032001879
1.9504667e-05
0.0031821539
1.8034028e-05
0.0031654672
1.6686734e-05
0.0031500158
1.5451365e-05
0.0031356979
1.4317857e-05
0.0031224209
1.3277061e-05
0.0031101003
1.232058e-05
0.0030986595
1.1440711e-05
0.0030880291
1.0630431e-05
0.0030781457
9.8833699e-06
0.003068952
9.193783e-06
0.0030603955
8.5565119e-06
0.0030524286
7.9669341e-06
0.0030450077
7.4209137e-06
0.0030380929
6.9147476e-06
0.0030316478
6.4451163e-06
0.0030256387
6.009038e-06
0.0030200349
5.6038262e-06
0.0030148078
5.2270559e-06
0.0030099313
4.8765303e-06
0.003005381
4.5502555e-06
0.0030011346
4.2464187e-06
0.0029971713
3.9633655e-06
0.0029934717
3.6995863e-06
0.002990018
3.4536969e-06
0.0029867936
3.2244267e-06
0.002983783
3.0106058e-06
0.0029809718
2.8111519e-06
0.0029783467
2.6250656e-06
0.0029758953
2.4514191e-06
0.0029736059
2.2893537e-06
0.0029714679
2.1380757e-06
0.0029694711
1.9968496e-06
0.0029676061
1.8649987e-06
0.0029658642
1.741895e-06
0.0029642372
1.6269562e-06
0.0029627176
1.5196397e-06
0.0029612981
1.4194342e-06
0.0029599722
1.3258628e-06
0.0029587337
1.2384747e-06
0.0029575769
1.156851e-06
0.0029564963
1.0806043e-06
0.002955487
1.0093757e-06
0.0029545442
9.4283969e-07
0.0029536635
8.8069425e-07
0.0029528408
8.2265757e-07
0.0029520723
7.6846683e-07
0.0029513543
7.1786255e-07
0.0029506837
6.7060452e-07
0.0029500572
6.2645504e-07
0.0029494721
5.8520046e-07
0.0029489255
5.4664044e-07
0.002948415
5.1060393e-07
0.0029479381
4.7692628e-07
0.0029474926
4.4547945e-07
0.0029470764
4.161029e-07
0.0029466876
3.8869439e-07
0.0029463245
3.6306743e-07
0.0029459853
3.3914719e-07
0.0029456687
3.1671887e-07
0.002945373
2.9577862e-07
0.002945097
2.7607634e-07
0.0029448394
2.5773993e-07
0.002944599
2.4041582e-07
0.0029443746
2.2442111e-07
0.0029441654
2.0916991e-07
0.0029439701
1.9526073e-07
0.0029437884
1.8173409e-07
0.0029436189
1.6964731e-07
0.0029434615
1.5754003e-07
0.0029433145
1.4712597e-07
0.0029431783
1.3641496e-07
0.0029430507
1.2769451e-07
0.0029429315
1.1932566e-07
0.0029428183
1.1323071e-07
1.1581363e-07
0.010339525
0.00035427932
0.010570754
0.00079057336
0.010606301
0.00091894822
0.010547572
0.00090167138
0.010422317
0.00084262625
0.010244356
0.0007576856
0.010039421
0.00065662744
0.0098287427
0.00055365585
0.009625135
0.00045977082
0.0094353013
0.00037975352
0.0092624277
0.00031409258
0.0091075332
0.00026140425
0.0089701539
0.00021969949
0.0088489023
0.00018689788
0.0087419716
0.00016105804
0.0086474927
0.00014051896
0.008563694
0.00012399297
0.0084890108
0.00011047599
0.0084221097
9.9219857e-05
0.0083618776
8.9681386e-05
0.0083073954
8.1470652e-05
0.0082579079
7.4307837e-05
0.0082127929
6.7990497e-05
0.0081715353
6.2370001e-05
0.0081337049
5.7335033e-05
0.0080989388
5.2800206e-05
0.0080669272
4.8698284e-05
0.0080374037
4.4974963e-05
0.0080101361
4.1585388e-05
0.0079849214
3.8491833e-05
0.0079615798
3.5662135e-05
0.0079399519
3.3068592e-05
0.0079198951
3.068716e-05
0.0079012816
2.8496851e-05
0.0078839961
2.6479257e-05
0.0078679345
2.4618172e-05
0.0078530022
2.2899275e-05
0.0078391133
2.1309872e-05
0.0078261894
1.9838673e-05
0.0078141589
1.8475604e-05
0.0078029563
1.7211645e-05
0.0077925214
1.6038694e-05
0.0077827989
1.4949452e-05
0.0077737381
1.3937322e-05
0.007765292
1.2996327e-05
0.0077574174
1.2121033e-05
0.0077500743
1.1306493e-05
0.0077432258
1.0548194e-05
0.0077368375
9.8420047e-06
0.0077308778
9.184142e-06
0.0077253173
8.5711303e-06
0.0077201286
7.9997721e-06
0.0077152865
7.4671188e-06
0.0077107674
6.9704476e-06
0.0077065495
6.5072413e-06
0.0077026124
6.0751706e-06
0.0076989372
5.6720812e-06
0.0076955063
5.2959796e-06
0.0076923033
4.9450207e-06
0.0076893128
4.6174949e-06
0.0076865206
4.3118151e-06
0.0076839135
4.0265055e-06
0.0076814791
3.7601903e-06
0.0076792059
3.5115854e-06
0.0076770831
3.2794936e-06
0.007675101
3.0627977e-06
0.0076732499
2.8604612e-06
0.0076715214
2.6715224e-06
0.0076699071
2.495092e-06
0.0076683995
2.3303436e-06
0.0076669914
2.1765097e-06
0.0076656763
2.0328663e-06
0.007664448
1.8987398e-06
0.0076633009
1.7734806e-06
0.0076622295
1.6564988e-06
0.0076612289
1.547215e-06
0.0076602945
1.445132e-06
0.0076594219
1.3497401e-06
0.0076586068
1.2606439e-06
0.0076578456
1.1773741e-06
0.0076571346
1.0996323e-06
0.0076564705
1.0269289e-06
0.0076558504
9.5907698e-07
0.0076552714
8.9550139e-07
0.007654731
8.3620691e-07
0.0076542267
7.8045255e-07
0.007653756
7.2858739e-07
0.007653317
6.7953278e-07
0.0076529072
6.3422417e-07
0.0076525254
5.9088678e-07
0.0076521689
5.5146685e-07
0.0076518376
5.1286418e-07
0.0076515282
4.7885088e-07
0.0076512417
4.4395161e-07
0.0076509735
4.1528712e-07
0.0076507269
3.8310731e-07
0.0076504938
3.6077114e-07
0.0076502824
3.3069991e-07
0.0076500771
3.1835386e-07
2.8847033e-07
0.010188704
0.00016557516
0.010530487
0.00044879101
0.010851453
0.00059798178
0.011124174
0.00062895026
0.011350581
0.00061621887
0.011524486
0.00058378056
0.01164633
0.0005347842
0.011724155
0.00047583049
0.011767999
0.00041592664
0.011786639
0.00036111398
0.011787114
0.00031361711
0.011775058
0.00027346025
0.011754861
0.00023989719
0.011729768
0.00021199032
0.011702053
0.00018877262
0.011673239
0.00016933389
0.011644339
0.00015289297
0.011616003
0.00013881183
0.011588629
0.00012659378
0.011562446
0.00011586443
0.011537572
0.00010634492
0.011514052
9.7826991e-05
0.011491889
9.0153362e-05
0.011471056
8.3203374e-05
0.011451508
7.6882629e-05
0.011433193
7.1115579e-05
0.011416051
6.5840309e-05
0.011400021
6.1004918e-05
0.011385042
5.656507e-05
0.011371051
5.2482329e-05
0.01135799
4.8723013e-05
0.011345801
4.5257373e-05
0.01133443
4.2058985e-05
0.011323822
3.9104273e-05
0.011313929
3.6372135e-05
0.011304704
3.3843629e-05
0.011296101
3.1501717e-05
0.01128808
2.9331037e-05
0.011280601
2.731771e-05
0.011273628
2.5449175e-05
0.011267125
2.3714035e-05
0.011261062
2.2101934e-05
0.011255408
2.060344e-05
0.011250135
1.9209944e-05
0.011245218
1.791358e-05
0.011240632
1.6707141e-05
0.011236354
1.5584022e-05
0.011232364
1.4538154e-05
0.011228643
1.3563962e-05
0.01122517
1.2656312e-05
0.011221931
1.1810472e-05
0.011218909
1.102208e-05
0.011216089
1.0287101e-05
0.011213457
9.6018025e-06
0.011211002
8.9627293e-06
0.01120871
8.3666744e-06
0.011206572
7.8106676e-06
0.011204576
7.2919535e-06
0.011202713
6.8079766e-06
0.011200974
6.35637e-06
0.011199351
5.9349345e-06
0.011197836
5.5416311e-06
0.011196421
5.1745616e-06
0.011195101
4.8319552e-06
0.011193868
4.5121633e-06
0.011192717
4.2136393e-06
0.011191643
3.9349486e-06
0.01119064
3.6747508e-06
0.011189703
3.4318067e-06
0.011188829
3.2049648e-06
0.011188012
2.9931603e-06
0.011187249
2.7953964e-06
0.011186537
2.6107529e-06
0.011185872
2.4383419e-06
0.011185251
2.2773613e-06
0.011184671
2.1270062e-06
0.01118413
1.9865901e-06
0.011183624
1.8553882e-06
0.011183152
1.7328503e-06
0.011182712
1.6183081e-06
0.0111823
1.5113724e-06
0.011181915
1.41135e-06
0.011181556
1.3180469e-06
0.011181221
1.2306189e-06
0.011180908
1.1491789e-06
0.011180615
1.0725548e-06
0.011180343
1.001428e-06
0.011180089
9.3397377e-07
0.011179851
8.7194406e-07
0.01117963
8.1218625e-07
0.011179423
7.5843979e-07
0.01117923
7.0490842e-07
0.01117905
6.5906458e-07
0.011178883
6.1005712e-07
0.011178726
5.7242955e-07
0.011178583
5.2590134e-07
0.011178446
4.9817062e-07
0.011178325
4.517757e-07
0.011178206
4.3724202e-07
3.8992392e-07
0.010097182
6.8393561e-05
0.010346961
0.00019901113
0.010662469
0.00028247388
0.010982753
0.0003086665
0.011290229
0.00030874342
0.011575251
0.00029875788
0.011829022
0.00028101345
0.012047865
0.00025698755
0.012233272
0.00023051981
0.01238924
0.00020514589
0.012520295
0.00018256235
0.012630755
0.00016299957
0.012724428
0.00014622491
0.012804515
0.00013190313
0.012873613
0.00011967427
0.012933772
0.00010917461
0.012986596
0.00010006907
0.013033332
9.2076362e-05
0.01307495
8.4975246e-05
0.013112216
7.8598606e-05
0.013145739
7.2822297e-05
0.013176012
6.7553935e-05
0.013203441
6.2723925e-05
0.013228366
5.8278902e-05
0.013251071
5.4176996e-05
0.013271802
5.0384442e-05
0.01329077
4.6873173e-05
0.013308155
4.3619184e-05
0.013324119
4.0601461e-05
0.0133388
3.7801277e-05
0.013352321
3.5201748e-05
0.013364791
3.2787527e-05
0.013376306
3.0544593e-05
0.01338695
2.8460096e-05
0.0133968
2.6522233e-05
0.013405923
2.4720151e-05
0.013414381
2.3043858e-05
0.013422228
2.1484154e-05
0.013429513
2.0032564e-05
0.013436281
1.8681268e-05
0.013442572
1.7423056e-05
0.013448423
1.6251271e-05
0.013453866
1.5159759e-05
0.013458933
1.4142836e-05
0.013463652
1.3195239e-05
0.013468047
1.2312096e-05
0.013472142
1.1488899e-05
0.013475958
1.0721467e-05
0.013479517
1.0005929e-05
0.013482834
9.3386946e-06
0.013485928
8.7164342e-06
0.013488814
8.1360584e-06
0.013491507
7.5946953e-06
0.013494019
7.0896806e-06
0.013496363
6.6185284e-06
0.013498551
6.1789314e-06
0.013500592
5.7687429e-06
0.013502498
5.3859636e-06
0.013504278
5.0287385e-06
0.013505939
4.6953383e-06
0.01350749
4.3841612e-06
0.013508938
4.0937157e-06
0.01351029
3.8226098e-06
0.013511552
3.569552e-06
0.013512731
3.333324e-06
0.013513831
3.1127958e-06
0.013514859
2.9069086e-06
0.01351582
2.7146761e-06
0.013516716
2.5351875e-06
0.013517554
2.3675875e-06
0.013518336
2.2110957e-06
0.013519066
2.0649752e-06
0.013519749
1.9285473e-06
0.013520386
1.8011621e-06
0.013520981
1.6822228e-06
0.013521536
1.5711383e-06
0.013522056
1.4674025e-06
0.01352254
1.3704713e-06
0.013522994
1.2799484e-06
0.013523417
1.1953234e-06
0.013523812
1.1163317e-06
0.013524181
1.0424349e-06
0.013524525
9.7352875e-07
0.013524847
9.0894349e-07
0.013525147
8.4884291e-07
0.013525427
7.9223722e-07
0.013525688
7.3981107e-07
0.013525933
6.8994401e-07
0.01352616
6.4431322e-07
0.013526373
6.0004642e-07
0.01352657
5.6067085e-07
0.013526754
5.2085177e-07
0.013526926
4.8755707e-07
0.013527085
4.5081693e-07
0.013527233
4.2393806e-07
0.01352737
3.8860625e-07
0.013527499
3.693003e-07
0.013527618
3.3335629e-07
0.013527731
3.2349777e-07
2.8837476e-07
0.010068394
6.9516376e-12
0.010267405
1.2386829e-11
0.010549879
1.0932472e-11
0.010858545
5.9042984e-12
0.011167288
-1.8448076e-13
0.011466046
-4.3959002e-12
0.01174706
-7.1346284e-12
0.012004047
-7.2437365e-12
0.012234567
-4.4695227e-12
0.012439713
-6.7813739e-13
0.012622275
3.9505286e-12
0.012785275
7.1416821e-12
0.0129315
8.3036402e-12
0.013063403
6.399186e-12
0.013183077
1.8107986e-12
0.013292252
-3.1380963e-12
0.013392321
-7.4967349e-12
0.013484397
-9.658512e-12
0.013569373
-8.7614688e-12
0.013647971
-4.2129026e-12
0.013720794
1.373332e-12
0.013788347
6.4128581e-12
0.013851071
9.553877e-12
0.01390935
1.0406825e-11
0.013963527
6.8560333e-12
0.014013912
2.0951013e-12
0.014060785
-3.4101096e-12
0.014104404
-7.2524841e-12
0.014145005
-8.4383665e-12
0.014182807
-6.1555259e-12
0.014218009
-1.0577254e-12
0.014250796
4.5805405e-12
0.014281341
9.8915783e-12
0.014309801
1.2963252e-11
0.014336323
1.2145706e-11
0.014361043
7.5171719e-12
0.014384087
1.7074736e-12
0.014405571
-2.7891725e-12
0.014425604
-5.322012e-12
0.014444285
-4.7525271e-12
0.014461708
-1.0438016e-13
0.014477959
6.3102311e-12
0.014493119
1.3831297e-11
0.014507262
1.8660668e-11
0.014520457
1.9002775e-11
0.014532769
1.5947528e-11
0.014544258
1.0248175e-11
0.014554979
4.3938406e-12
0.014564985
-6.2498917e-15
0.014574324
-2.87991e-13
0.014583041
5.2807056e-12
0.014591177
1.3693112e-11
0.014598771
2.4358489e-11
0.014605861
3.0343325e-11
0.014612479
3.1851062e-11
0.014618658
2.9029991e-11
0.014624427
2.0570706e-11
0.014629813
1.1391485e-11
0.014634842
3.8064393e-12
0.014639537
2.0177513e-12
0.014643921
8.5801876e-12
0.014648015
1.9482928e-11
0.014651838
3.3950713e-11
0.014655407
4.2024584e-11
0.01465874
4.319282e-11
0.014661853
3.5682012e-11
0.01466476
2.1108207e-11
0.014667474
2.976624e-12
0.01467001
-1.1862478e-11
0.014672377
-1.8444107e-11
0.014674588
-1.2091346e-11
0.014676654
3.173891e-12
0.014678582
2.2104622e-11
0.014680383
3.4299373e-11
0.014682065
3.5994897e-11
0.014683636
2.3542479e-11
0.014685104
2.425029e-12
0.014686474
-2.0690131e-11
0.014687754
-3.8116664e-11
0.01468895
-4.6349618e-11
0.014690066
-4.1945565e-11
0.014691109
-3.2003774e-11
0.014692082
-1.6632309e-11
0.014692991
-8.8626331e-12
0.01469384
-9.5424445e-12
0.014694632
-2.3548819e-11
0.014695372
-4.2213603e-11
0.014696062
-6.48072e-11
0.014696706
-7.2668112e-11
0.014697306
-7.6829103e-11
0.014697867
-5.7700761e-11
0.014698388
-4.4835734e-11
0.014698875
-1.8845502e-11
0.014699326
-1.4560108e-11
0.01469975
-9.5134201e-12
0.014700138
-1.6759173e-11
0.014700508
-1.8476095e-11
0.014700841
-1.3131501e-11
0.014701165
8.1273938e-12
4.4090919e-11
0.010068394
-6.8393548e-05
0.010267405
-0.00019901111
0.010549879
-0.00028247386
0.010858545
-0.00030866649
0.011167288
-0.00030874342
0.011466046
-0.0002987579
0.01174706
-0.00028101347
0.012004047
-0.00025698756
0.012234567
-0.00023051982
0.012439713
-0.00020514589
0.012622275
-0.00018256234
0.012785275
-0.00016299956
0.0129315
-0.0001462249
0.013063403
-0.00013190312
0.013183077
-0.00011967427
0.013292252
-0.00010917462
0.013392321
-0.00010006909
0.013484397
-9.2076381e-05
0.013569373
-8.4975261e-05
0.013647971
-7.8598611e-05
0.013720794
-7.282229e-05
0.013788347
-6.7553919e-05
0.013851071
-6.2723905e-05
0.01390935
-5.8278883e-05
0.013963527
-5.4176986e-05
0.014013912
-5.0384443e-05
0.014060785
-4.6873184e-05
0.014104404
-4.3619201e-05
0.014145005
-4.0601477e-05
0.014182807
-3.7801286e-05
0.014218009
-3.5201745e-05
0.014250796
-3.2787512e-05
0.014281341
-3.0544569e-05
0.014309801
-2.8460071e-05
0.014336323
-2.6522212e-05
0.014361043
-2.472014e-05
0.014384087
-2.3043859e-05
0.014405571
-2.1484165e-05
0.014425604
-2.0032576e-05
0.014444285
-1.8681274e-05
0.014461708
-1.742305e-05
0.014477959
-1.625125e-05
0.014493119
-1.5159726e-05
0.014507262
-1.4142797e-05
0.014520457
-1.3195202e-05
0.014532769
-1.2312071e-05
0.014544258
-1.1488888e-05
0.014554979
-1.0721468e-05
0.014564985
-1.0005935e-05
0.014574324
-9.3386934e-06
0.014583041
-8.7164169e-06
0.014591177
-8.1360193e-06
0.014598771
-7.5946374e-06
0.014605861
-7.0896112e-06
0.014612479
-6.6184621e-06
0.014618658
-6.178883e-06
0.014624427
-5.7687172e-06
0.014629813
-5.385957e-06
0.014634842
-5.0287402e-06
0.014639537
-4.6953328e-06
0.014643921
-4.3841346e-06
0.014648015
-4.0936596e-06
0.014651838
-3.8225279e-06
0.014655407
-3.5694548e-06
0.01465874
-3.3332335e-06
0.014661853
-3.1127327e-06
0.01466476
-2.9068861e-06
0.014667474
-2.7146901e-06
0.01467001
-2.5352227e-06
0.014672377
-2.36762e-06
0.014674589
-2.2111047e-06
0.014676654
-2.0649482e-06
0.014678582
-1.9284879e-06
0.014680383
-1.8010886e-06
0.014682066
-1.6821619e-06
0.014683636
-1.5711148e-06
0.014685104
-1.4674286e-06
0.014686474
-1.3705403e-06
0.014687754
-1.2800448e-06
0.01468895
-1.1954176e-06
0.014690066
-1.1164e-06
0.014691109
-1.0424689e-06
0.014692082
-9.7354079e-07
0.014692991
-9.0895002e-07
0.01469384
-8.488711e-07
0.014694632
-7.9230221e-07
0.014695372
-7.3992067e-07
0.014696062
-6.900816e-07
0.014696706
-6.4446248e-07
0.014697306
-6.0017353e-07
0.014697867
-5.6076758e-07
0.014698388
-5.2090145e-07
0.014698875
-4.8759072e-07
0.014699326
-4.5083226e-07
0.01469975
-4.2398174e-07
0.014700138
-3.8865616e-07
0.014700508
-3.6937759e-07
0.014700841
-3.3339463e-07
0.014701165
-3.2351622e-07
-2.8831169e-07
0.010097182
-0.00016557515
0.010346961
-0.00044879099
0.010662469
-0.00059798177
0.010982753
-0.00062895026
0.011290229
-0.00061621888
0.011575251
-0.00058378057
0.011829022
-0.00053478422
0.012047865
-0.00047583049
0.012233272
-0.00041592664
0.01238924
-0.00036111397
0.012520295
-0.00031361708
0.012630755
-0.00027346024
0.012724428
-0.00023989718
0.012804515
-0.00021199033
0.012873613
-0.00018877264
0.012933772
-0.00016933391
0.012986596
-0.00015289299
0.013033332
-0.00013881184
0.01307495
-0.00012659378
0.013112216
-0.00011586442
0.013145739
-0.0001063449
0.013176012
-9.7826969e-05
0.013203441
-9.0153347e-05
0.013228366
-8.3203372e-05
0.013251071
-7.6882639e-05
0.013271802
-7.1115599e-05
0.01329077
-6.584033e-05
0.013308155
-6.1004934e-05
0.013324119
-5.6565073e-05
0.0133388
-5.2482317e-05
0.013352321
-4.872299e-05
0.013364791
-4.5257345e-05
0.013376306
-4.2058961e-05
0.01338695
-3.9104259e-05
0.0133968
-3.6372136e-05
0.013405923
-3.3843644e-05
0.013414381
-3.1501738e-05
0.013422228
-2.9331055e-05
0.013429513
-2.7317716e-05
0.013436281
-2.5449163e-05
0.013442572
-2.3714007e-05
0.013448423
-2.2101895e-05
0.013453866
-2.0603401e-05
0.013458933
-1.9209916e-05
0.013463652
-1.791357e-05
0.013468047
-1.6707149e-05
0.013472142
-1.5584041e-05
0.013475958
-1.4538173e-05
0.013479517
-1.3563966e-05
0.013482834
-1.2656292e-05
0.013485928
-1.1810427e-05
0.013488814
-1.1022016e-05
0.013491507
-1.0287035e-05
0.013494019
-9.6017502e-06
0.013496363
-8.9627022e-06
0.013498551
-8.3666766e-06
0.013500593
-7.8106883e-06
0.013502499
-7.2919766e-06
0.013504278
-6.8079797e-06
0.013505939
-6.3563387e-06
0.01350749
-5.9348679e-06
0.013508938
-5.5415384e-06
0.01351029
-5.174468e-06
0.013511552
-4.8318835e-06
0.013512731
-4.5121313e-06
0.013513832
-4.2136533e-06
0.01351486
-3.9349933e-06
0.01351582
-3.6748043e-06
0.013516716
-3.4318372e-06
0.013517554
-3.2049523e-06
0.013518336
-2.9931041e-06
0.013519067
-2.7953101e-06
0.013519749
-2.6106703e-06
0.013520386
-2.4382931e-06
0.013520981
-2.2773659e-06
0.013521537
-2.1270665e-06
0.013522056
-1.9866822e-06
0.013522541
-1.8554832e-06
0.013522994
-1.7329165e-06
0.013523417
-1.618328e-06
0.013523812
-1.5113522e-06
0.013524181
-1.4113092e-06
0.013524525
-1.318021e-06
0.013524847
-1.2306352e-06
0.013525147
-1.1492465e-06
0.013525427
-1.0726658e-06
0.013525688
-1.0015521e-06
0.013525932
-9.340813e-07
0.01352616
-8.7201102e-07
0.013526372
-8.1220601e-07
0.01352657
-7.5842694e-07
0.013526754
-7.0488471e-07
0.013526926
-6.5905767e-07
0.013527084
-6.1007257e-07
0.013527233
-5.7247724e-07
0.01352737
-5.2595402e-07
0.013527499
-4.9823074e-07
0.013527617
-4.5180806e-07
0.013527731
-4.372328e-07
-3.8990563e-07
0.010188704
-0.00035427931
0.010530487
-0.00079057335
0.010851453
-0.00091894822
0.011124174
-0.00090167139
0.011350581
-0.00084262626
0.011524486
-0.00075768561
0.01164633
-0.00065662744
0.011724155
-0.00055365584
0.011767999
-0.0004597708
0.011786639
-0.0003797535
0.011787114
-0.00031409256
0.011775058
-0.00026140425
0.011754861
-0.0002196995
0.011729768
-0.0001868979
0.011702053
-0.00016105806
0.011673239
-0.00014051898
0.011644339
-0.00012399298
0.011616003
-0.00011047599
0.011588629
-9.9219835e-05
0.011562446
-8.9681358e-05
0.011537572
-8.1470627e-05
0.011514052
-7.4307824e-05
0.011491889
-6.7990501e-05
0.011471056
-6.237002e-05
0.011451508
-5.7335062e-05
0.011433193
-5.2800233e-05
0.011416051
-4.8698301e-05
0.011400021
-4.4974963e-05
0.011385042
-4.158537e-05
0.011371051
-3.8491803e-05
0.01135799
-3.5662102e-05
0.011345801
-3.3068567e-05
0.01133443
-3.0687152e-05
0.011323822
-2.8496862e-05
0.011313929
-2.6479284e-05
0.011304704
-2.4618203e-05
0.011296101
-2.28993e-05
0.01128808
-2.1309879e-05
0.011280601
-1.9838658e-05
0.011273628
-1.847557e-05
0.011267125
-1.7211601e-05
0.011261062
-1.6038655e-05
0.011255408
-1.494943e-05
0.011250135
-1.3937325e-05
0.011245218
-1.2996352e-05
0.011240632
-1.2121069e-05
0.011236354
-1.1306526e-05
0.011232364
-1.0548206e-05
0.011228643
-9.8419863e-06
0.011225171
-9.1840945e-06
0.011221931
-8.5710656e-06
0.011218909
-7.9997103e-06
0.011216089
-7.4670792e-06
0.011213457
-6.9704427e-06
0.011211002
-6.5072704e-06
0.01120871
-6.075219e-06
0.011206572
-5.6721262e-06
0.011204576
-5.2959961e-06
0.011202713
-4.9449935e-06
0.011200974
-4.6174249e-06
0.011199351
-4.3117196e-06
0.011197836
-4.026415e-06
0.011196422
-3.7601341e-06
0.011195101
-3.5115827e-06
0.011193868
-3.2795434e-06
0.011192717
-3.0628777e-06
0.011191643
-2.860538e-06
0.01119064
-2.6715598e-06
0.011189703
-2.4950697e-06
0.011188829
-2.3302646e-06
0.011188013
-2.1764004e-06
0.01118725
-2.0327693e-06
0.011186538
-1.8986929e-06
0.011185873
-1.7735056e-06
0.011185252
-1.656588e-06
0.011184672
-1.5473347e-06
0.01118413
-1.445238e-06
0.011183625
-1.3497928e-06
0.011183153
-1.2606268e-06
0.011182712
-1.177301e-06
0.0111823
-1.0995374e-06
0.011181916
-1.026859e-06
0.011181556
-9.5906436e-07
0.011181221
-8.9555757e-07
0.011180908
-8.3631011e-07
0.011180615
-7.8056456e-07
0.011180343
-7.2866313e-07
0.011180088
-6.7954819e-07
0.011179851
-6.3417346e-07
0.01117963
-5.907999e-07
0.011179422
-5.5137242e-07
0.01117923
-5.1280264e-07
0.011179049
-4.7883094e-07
0.011178883
-4.439785e-07
0.011178726
-4.1532822e-07
0.011178583
-3.8314372e-07
0.011178446
-3.6075218e-07
0.011178325
-3.306613e-07
0.011178206
-3.1833017e-07
-2.8850929e-07
0.010339525
-0.00069380425
0.010570754
-0.0010218027
0.0106063
-0.0009544945
0.010547572
-0.00084294335
0.010422317
-0.00071737081
0.010244356
-0.00057972444
0.010039421
-0.00045169203
0.0098287427
-0.00034297798
0.0096251351
-0.00025616315
0.0094353014
-0.00018991981
0.0092624277
-0.00014121897
0.0091075332
-0.00010650981
0.0089701539
-8.2320244e-05
0.0088489023
-6.5646271e-05
0.0087419715
-5.4127274e-05
0.0086474927
-4.6040053e-05
0.008563694
-4.0194282e-05
0.0084890108
-3.5792732e-05
0.0084221097
-3.231873e-05
0.0083618776
-2.9449257e-05
0.0083073955
-2.6988564e-05
0.0082579079
-2.4820305e-05
0.0082127928
-2.28755e-05
0.0081715352
-2.1112447e-05
0.0081337049
-1.9504685e-05
0.0080989387
-1.8034037e-05
0.0080669272
-1.6686732e-05
0.0080374037
-1.5451352e-05
0.0080101362
-1.4317837e-05
0.0079849214
-1.327704e-05
0.0079615798
-1.2320565e-05
0.0079399519
-1.1440709e-05
0.0079198951
-1.0630442e-05
0.0079012816
-9.8833896e-06
0.0078839961
-9.193805e-06
0.0078679345
-8.5565276e-06
0.0078530022
-7.9669379e-06
0.0078391133
-7.4209028e-06
0.0078261894
-6.9147253e-06
0.007814159
-6.4450899e-06
0.0078029563
-6.0090162e-06
0.0077925214
-5.6038176e-06
0.007782799
-5.2270631e-06
0.0077737381
-4.8765513e-06
0.007765292
-4.5502826e-06
0.0077574174
-4.2464405e-06
0.0077500744
-3.9633733e-06
0.0077432259
-3.6995742e-06
0.0077368376
-3.4536678e-06
0.007730878
-3.2243894e-06
0.0077253174
-3.0105726e-06
0.0077201287
-2.8111361e-06
0.0077152866
-2.6250723e-06
0.0077107675
-2.4514467e-06
0.0077065495
-2.289391e-06
0.0077026125
-2.1381064e-06
0.0076989373
-1.9968605e-06
0.0076955065
-1.8649807e-06
0.0076923035
-1.7418522e-06
0.0076893131
-1.6269015e-06
0.0076865209
-1.5195914e-06
0.0076839137
-1.4194119e-06
0.0076814792
-1.3258738e-06
0.007679206
-1.2385168e-06
0.0076770833
-1.1569079e-06
0.0076751011
-1.0806522e-06
0.0076732502
-1.0093958e-06
0.0076715217
-9.4281954e-07
0.0076699075
-8.8064052e-07
0.0076683999
-8.225896e-07
0.0076669918
-7.6840968e-07
0.0076656766
-7.1784158e-07
0.0076644482
-6.7062734e-07
0.007663301
-6.2651488e-07
0.0076622296
-5.8527533e-07
0.0076612291
-5.4669917e-07
0.0076602948
-5.1062765e-07
0.0076594222
-4.7690468e-07
0.0076586072
-4.4542557e-07
0.0076578459
-4.1604091e-07
0.0076571348
-3.886503e-07
0.0076564706
-3.630612e-07
0.0076558504
-3.3918125e-07
0.0076552714
-3.1677726e-07
0.0076547309
-2.9584118e-07
0.0076542266
-2.7611309e-07
0.0076537559
-2.5774379e-07
0.0076533169
-2.4038253e-07
0.0076529071
-2.2437144e-07
0.0076525252
-2.0911972e-07
0.0076521687
-1.9523495e-07
0.0076518372
-1.8173183e-07
0.0076515277
-1.6967987e-07
0.0076512412
-1.5757481e-07
0.007650973
-1.4716336e-07
0.0076507264
-1.364225e-07
0.0076504933
-1.2768614e-07
0.0076502819
-1.1931117e-07
0.0076500764
-1.132512e-07
-1.1585931e-07
0.0093061957
0.0082843931
0.0073298985
0.0064869552
0.0057695844
0.00518986
0.004738168
0.00439519
0.0041390268
0.003949107
0.003807888
0.0037013781
0.0036190579
0.0035534117
0.0034992845
0.0034532445
0.0034130502
0.0033772574
0.0033449387
0.0033154894
0.0032885008
0.0032636804
0.0032408049
0.0032196925
0.0032001879
0.0031821539
0.0031654672
0.0031500158
0.003135698
0.0031224209
0.0031101003
0.0030986595
0.0030880291
0.0030781457
0.003068952
0.0030603955
0.0030524286
0.0030450077
0.003038093
0.0030316478
0.0030256387
0.0030200349
0.0030148078
0.0030099312
0.003005381
0.0030011346
0.0029971713
0.0029934718
0.0029900181
0.0029867937
0.002983783
0.0029809718
0.0029783467
0.0029758952
0.0029736059
0.0029714679
0.0029694712
0.0029676062
0.0029658644
0.0029642374
0.0029627177
0.0029612981
0.0029599722
0.0029587337
0.0029575769
0.0029564964
0.0029554871
0.0029545444
0.0029536637
0.002952841
0.0029520724
0.0029513544
0.0029506837
0.0029500572
0.0029494721
0.0029489256
0.0029484151
0.0029479383
0.0029474928
0.0029470765
0.0029466877
0.0029463245
0.0029459853
0.0029456686
0.0029453729
0.002945097
0.0029448394
0.002944599
0.0029443745
0.0029441652
0.0029439699
0.0029437881
0.0029436186
0.0029434612
0.0029433142
0.002943178
0.0029430504
0.0029429311
0.0029428178
)
;

boundaryField
{
    top
    {
        type            calculated;
        value           uniform 0;
    }
    inlet
    {
        type            calculated;
        value           nonuniform List<scalar> 10(-0.01 -0.01 -0.01 -0.01 -0.01 -0.01 -0.01 -0.01 -0.01 -0.01);
    }
    outlet
    {
        type            calculated;
        value           nonuniform List<scalar> 10(0.0029427028 0.0076499043 0.011178104 0.013527833 0.014701453 0.014701453 0.013527833 0.011178104 0.0076499036 0.0029427021);
    }
    bottom
    {
        type            calculated;
        value           uniform 0;
    }
    back
    {
        type            empty;
        value           nonuniform 0();
    }
    front
    {
        type            empty;
        value           nonuniform 0();
    }
}


// ************************************************************************* //
