/*--------------------------------*- C++ -*----------------------------------*\
| =========                 |                                                 |
| \\      /  F ield         | OpenFOAM: The Open Source CFD Toolbox           |
|  \\    /   O peration     | Version:  v1812                                 |
|   \\  /    A nd           | Web:      www.OpenFOAM.com                      |
|    \\/     M anipulation  |                                                 |
\*---------------------------------------------------------------------------*/
FoamFile
{
    version     2.0;
    format      ascii;
    class       volVectorField;
    location    "11";
    object      U;
}
// * * * * * * * * * * * * * * * * * * * * * * * * * * * * * * * * * * * * * //

dimensions      [0 1 -1 0 0 0 0];


internalField   nonuniform List<vector> 
1000
(
(0.91890839 0.035821913 0)
(0.86271384 0.062195639 0)
(0.7870597 0.062510091 0)
(0.69536033 0.054550395 0)
(0.61089744 0.044531652 0)
(0.54411592 0.034015972 0)
(0.49343012 0.024187539 0)
(0.45479414 0.016144229 0)
(0.42544583 0.010265785 0)
(0.40347313 0.0063041446 0)
(0.38715766 0.0037976291 0)
(0.3749622 0.0023103383 0)
(0.36566192 0.0014930154 0)
(0.35836272 0.0010851189 0)
(0.35244267 0.00090607291 0)
(0.34748201 0.00084105205 0)
(0.34320348 0.00082372408 0)
(0.33942726 0.00081930999 0)
(0.33603793 0.00081185138 0)
(0.33296114 0.00079580062 0)
(0.33014778 0.0007708111 0)
(0.32756384 0.00073870948 0)
(0.3251842 0.00070188966 0)
(0.32298902 0.00066256627 0)
(0.32096172 0.00062250024 0)
(0.31908785 0.00058295799 0)
(0.31735449 0.00054477182 0)
(0.31574996 0.00050843403 0)
(0.3142636 0.00047419115 0)
(0.31288574 0.00044212397 0)
(0.31160755 0.00041220885 0)
(0.31042101 0.00038436123 0)
(0.30931883 0.0003584649 0)
(0.30829438 0.00033439061 0)
(0.30734164 0.00031200723 0)
(0.30645515 0.00029118823 0)
(0.30562991 0.00027181474 0)
(0.30486136 0.00025377695 0)
(0.30414535 0.00023697416 0)
(0.30347807 0.00022131437 0)
(0.30285601 0.00020671359 0)
(0.30227596 0.000193095 0)
(0.30173496 0.0001803883 0)
(0.30123029 0.0001685289 0)
(0.30075941 0.00015745749 0)
(0.30032001 0.00014711948 0)
(0.29990993 0.00013746454 0)
(0.29952715 0.00012844634 0)
(0.29916983 0.00012002199 0)
(0.29883624 0.0001121518 0)
(0.29852478 0.00010479893 0)
(0.29823397 9.7928946e-05 0)
(0.29796241 9.1509817e-05 0)
(0.29770882 8.5511488e-05 0)
(0.297472 7.990593e-05 0)
(0.29725084 7.4667098e-05 0)
(0.29704428 6.9770721e-05 0)
(0.29685137 6.5194494e-05 0)
(0.2966712 6.0917654e-05 0)
(0.29650291 5.6920952e-05 0)
(0.29634572 5.3186407e-05 0)
(0.2961989 4.9696915e-05 0)
(0.29606175 4.6436418e-05 0)
(0.29593365 4.3389552e-05 0)
(0.29581399 4.0541914e-05 0)
(0.29570223 3.7880186e-05 0)
(0.29559783 3.5392003e-05 0)
(0.29550031 3.3066322e-05 0)
(0.29540922 3.0892962e-05 0)
(0.29532413 2.8862496e-05 0)
(0.29524464 2.6966161e-05 0)
(0.29517038 2.5195089e-05 0)
(0.29510101 2.3540986e-05 0)
(0.29503622 2.1995402e-05 0)
(0.29497569 2.0550654e-05 0)
(0.29491916 1.9199583e-05 0)
(0.29486635 1.7936147e-05 0)
(0.29481702 1.6754758e-05 0)
(0.29477094 1.5651306e-05 0)
(0.2947279 1.4620451e-05 0)
(0.29468769 1.365903e-05 0)
(0.29465013 1.2760355e-05 0)
(0.29461504 1.192183e-05 0)
(0.29458228 1.1135313e-05 0)
(0.29455169 1.0400633e-05 0)
(0.29452313 9.7084853e-06 0)
(0.29449647 9.0639395e-06 0)
(0.2944716 8.4543403e-06 0)
(0.29444837 7.8918993e-06 0)
(0.29442672 7.3558233e-06 0)
(0.29440649 6.8675208e-06 0)
(0.29438768 6.3940387e-06 0)
(0.29437012 5.9699476e-06 0)
(0.29435379 5.5507537e-06 0)
(0.29433861 5.1843024e-06 0)
(0.29432438 4.8298993e-06 0)
(0.29431143 4.5236642e-06 0)
(0.29429859 4.3125564e-06 0)
(0.29428827 4.1424203e-06 0)
(0.29427331 4.5813138e-06 0)
(1.0016583 0.05381943 0)
(1.0359761 0.10128444 0)
(1.0597199 0.11073663 0)
(1.0628947 0.10592202 0)
(1.0515569 0.096228729 0)
(1.0340529 0.083934061 0)
(1.0142795 0.070327063 0)
(0.99360703 0.056981333 0)
(0.97292577 0.045107478 0)
(0.9531074 0.035236749 0)
(0.93479539 0.027401649 0)
(0.91829012 0.021387227 0)
(0.90362379 0.016884499 0)
(0.89068067 0.01356971 0)
(0.87928174 0.01114775 0)
(0.86923242 0.0093736597 0)
(0.86034423 0.0080569284 0)
(0.85244667 0.007057127 0)
(0.84539242 0.0062752374 0)
(0.83905793 0.0056438273 0)
(0.83334127 0.0051180899 0)
(0.82815884 0.0046686716 0)
(0.82344212 0.0042764172 0)
(0.81913467 0.0039287392 0)
(0.81518961 0.0036172044 0)
(0.81156765 0.0033359714 0)
(0.80823544 0.0030808047 0)
(0.8051644 0.0028484691 0)
(0.80232979 0.0026363687 0)
(0.79970999 0.0024423374 0)
(0.79728597 0.0022645174 0)
(0.79504086 0.0021012887 0)
(0.79295963 0.0019512247 0)
(0.7910288 0.0018130633 0)
(0.78923627 0.0016856846 0)
(0.7875711 0.0015680941 0)
(0.78602338 0.0014594073 0)
(0.78458412 0.0013588369 0)
(0.78324511 0.0012656806 0)
(0.78199889 0.0011793109 0)
(0.78083861 0.0010991657 0)
(0.77975799 0.0010247396 0)
(0.77875128 0.0009555774 0)
(0.77781317 0.00089126771 0)
(0.7769388 0.00083143761 0)
(0.77612367 0.00077574827 0)
(0.77536362 0.00072389108 0)
(0.7746548 0.00067558435 0)
(0.77399367 0.00063057034 0)
(0.77337694 0.00058861271 0)
(0.77280154 0.0005494942 0)
(0.77226464 0.0005130146 0)
(0.77176363 0.00047898912 0)
(0.77129606 0.00044724681 0)
(0.77085966 0.00041762943 0)
(0.77045233 0.00038999052 0)
(0.7700721 0.00036419445 0)
(0.76971716 0.00034011582 0)
(0.7693858 0.00031763844 0)
(0.76907644 0.00029665461 0)
(0.7687876 0.00027706423 0)
(0.76851791 0.00025877387 0)
(0.76826609 0.00024169636 0)
(0.76803094 0.00022575001 0)
(0.76781137 0.00021085862 0)
(0.76760633 0.00019695116 0)
(0.76741486 0.0001839617 0)
(0.76723606 0.00017182942 0)
(0.76706909 0.00016049801 0)
(0.76691315 0.00014991516 0)
(0.76676751 0.00014003225 0)
(0.76663148 0.00013080289 0)
(0.76650444 0.00012218392 0)
(0.76638579 0.00011413341 0)
(0.76627497 0.00010661318 0)
(0.76617148 9.9586245e-05 0)
(0.76607482 9.3020693e-05 0)
(0.76598456 8.6884569e-05 0)
(0.76590025 8.1152834e-05 0)
(0.76582152 7.5795925e-05 0)
(0.76574797 7.0794578e-05 0)
(0.7656793 6.6117378e-05 0)
(0.76561514 6.1751112e-05 0)
(0.76555526 5.7659463e-05 0)
(0.76549932 5.3840462e-05 0)
(0.76544716 5.0249566e-05 0)
(0.76539842 4.6905244e-05 0)
(0.76535302 4.3745377e-05 0)
(0.76531057 4.0820711e-05 0)
(0.76527109 3.8032429e-05 0)
(0.76523414 3.5482188e-05 0)
(0.76519986 3.3006149e-05 0)
(0.7651678 3.0791457e-05 0)
(0.76513802 2.8571391e-05 0)
(0.76511048 2.6674813e-05 0)
(0.76508427 2.4677005e-05 0)
(0.76506149 2.3131298e-05 0)
(0.76503686 2.1393409e-05 0)
(0.76502114 2.0375644e-05 0)
(0.7649924 1.9321976e-05 0)
(1.0014244 0.026824855 0)
(1.0291272 0.062791353 0)
(1.0654292 0.077736554 0)
(1.098962 0.080597201 0)
(1.1253149 0.078285172 0)
(1.145053 0.0731539 0)
(1.1594858 0.066111278 0)
(1.1694287 0.058162062 0)
(1.1755354 0.050296753 0)
(1.1785738 0.043150707 0)
(1.1793571 0.036972824 0)
(1.178595 0.031771632 0)
(1.1768304 0.02745184 0)
(1.1744518 0.023886769 0)
(1.1717287 0.020947621 0)
(1.1688444 0.018515781 0)
(1.1659195 0.016488085 0)
(1.1630317 0.014779502 0)
(1.1602295 0.013322984 0)
(1.1575415 0.012067131 0)
(1.1549828 0.010972999 0)
(1.1525601 0.010011061 0)
(1.1502747 0.0091587466 0)
(1.1481246 0.0083986047 0)
(1.1461059 0.0077169516 0)
(1.1442134 0.0071028895 0)
(1.1424414 0.006547593 0)
(1.1407838 0.006043796 0)
(1.1392344 0.005585426 0)
(1.1377869 0.0051673438 0)
(1.1364353 0.0047851557 0)
(1.1351738 0.0044350749 0)
(1.1339968 0.004113816 0)
(1.1328987 0.0038185129 0)
(1.1318746 0.0035466541 0)
(1.1309195 0.0032960289 0)
(1.1300289 0.0030646852 0)
(1.1291985 0.0028508922 0)
(1.1284242 0.002653111 0)
(1.1277022 0.0024699681 0)
(1.1270291 0.0023002341 0)
(1.1264014 0.0021428051 0)
(1.1258161 0.0019966866 0)
(1.1252702 0.0018609801 0)
(1.1247612 0.0017348721 0)
(1.1242865 0.0016176232 0)
(1.1238437 0.0015085609 0)
(1.1234307 0.0014070715 0)
(1.1230455 0.001312594 0)
(1.1226861 0.001224615 0)
(1.1223509 0.001142663 0)
(1.1220381 0.001066305 0)
(1.1217462 0.00099514209 0)
(1.1214739 0.00092880634 0)
(1.1212198 0.00086695803 0)
(1.1209827 0.0008092829 0)
(1.1207613 0.00075549049 0)
(1.1205548 0.00070531194 0)
(1.120362 0.00065849839 0)
(1.1201821 0.00061481942 0)
(1.1200142 0.00057406124 0)
(1.1198574 0.00053602551 0)
(1.1197111 0.00050052769 0)
(1.1195744 0.00046739584 0)
(1.1194469 0.00043646992 0)
(1.1193278 0.00040760036 0)
(1.1192166 0.00038064839 0)
(1.1191129 0.00035548481 0)
(1.119016 0.00033198996 0)
(1.1189255 0.00031005262 0)
(1.118841 0.00028956972 0)
(1.1187621 0.00027044447 0)
(1.1186884 0.00025258734 0)
(1.1186196 0.00023591229 0)
(1.1185554 0.00022034134 0)
(1.1184954 0.0002057974 0)
(1.1184394 0.00019221404 0)
(1.1183871 0.00017952252 0)
(1.1183382 0.00016766912 0)
(1.1182927 0.00015659047 0)
(1.1182501 0.00014624662 0)
(1.1182103 0.00013657258 0)
(1.1181731 0.00012754481 0)
(1.1181385 0.00011908723 0)
(1.118106 0.00011120229 0)
(1.1180758 0.00010378939 0)
(1.1180475 9.6897594e-05 0)
(1.1180213 9.0376118e-05 0)
(1.1179966 8.4358474e-05 0)
(1.1179739 7.8590643e-05 0)
(1.1179522 7.3360573e-05 0)
(1.1179325 6.8209395e-05 0)
(1.1179136 6.3715683e-05 0)
(1.1178965 5.9028675e-05 0)
(1.1178802 5.5283017e-05 0)
(1.1178651 5.0885147e-05 0)
(1.1178518 4.8024924e-05 0)
(1.1178373 4.372964e-05 0)
(1.1178287 4.2105461e-05 0)
(1.1178116 3.7828074e-05 0)
(1.0007347 0.011814722 0)
(1.0178472 0.030860928 0)
(1.0462163 0.041434442 0)
(1.0799018 0.045193571 0)
(1.1132664 0.045502351 0)
(1.143782 0.044080308 0)
(1.1708941 0.041439982 0)
(1.1945687 0.037973677 0)
(1.2148582 0.034195728 0)
(1.2319652 0.030536886 0)
(1.2462683 0.027222044 0)
(1.2582339 0.02431392 0)
(1.2683135 0.021797888 0)
(1.2768875 0.01963366 0)
(1.2842554 0.017773827 0)
(1.2906479 0.016169653 0)
(1.296243 0.01477559 0)
(1.3011791 0.013552297 0)
(1.3055645 0.012467863 0)
(1.3094838 0.011497465 0)
(1.3130042 0.01062216 0)
(1.3161792 0.0098275125 0)
(1.3190526 0.0091024109 0)
(1.3216607 0.0084381773 0)
(1.3240343 0.0078279049 0)
(1.3261995 0.0072659757 0)
(1.3281786 0.0067477099 0)
(1.3299913 0.0062691174 0)
(1.3316544 0.0058267275 0)
(1.3331829 0.0054174727 0)
(1.3345896 0.0050386112 0)
(1.3358862 0.0046876726 0)
(1.3370827 0.0043624188 0)
(1.3381882 0.0040608147 0)
(1.3392108 0.0037810053 0)
(1.3401576 0.0035212967 0)
(1.3410349 0.0032801404 0)
(1.3418486 0.0030561191 0)
(1.3426038 0.0028479348 0)
(1.3433051 0.0026543975 0)
(1.3439569 0.0024744151 0)
(1.3445629 0.0023069849 0)
(1.3451267 0.0021511848 0)
(1.3456513 0.0020061667 0)
(1.3461398 0.0018711491 0)
(1.3465947 0.0017454119 0)
(1.3470185 0.0016282907 0)
(1.3474135 0.0015191721 0)
(1.3477816 0.0014174898 0)
(1.3481249 0.0013227202 0)
(1.3484449 0.001234379 0)
(1.3487435 0.0011520179 0)
(1.349022 0.0010752215 0)
(1.3492818 0.0010036046 0)
(1.3495242 0.0009368098 0)
(1.3497505 0.00087450497 0)
(1.3499616 0.00081638201 0)
(1.3501587 0.00076215465 0)
(1.3503427 0.00071155722 0)
(1.3505145 0.0006643429 0)
(1.3506748 0.00062028249 0)
(1.3508245 0.00057916308 0)
(1.3509643 0.00054078624 0)
(1.3510948 0.00050496731 0)
(1.3512167 0.00047153374 0)
(1.3513305 0.00044032445 0)
(1.3514368 0.00041118949 0)
(1.351536 0.00038398897 0)
(1.3516287 0.00035859351 0)
(1.3517153 0.00033488225 0)
(1.3517962 0.00031274384 0)
(1.3518717 0.00029207356 0)
(1.3519422 0.00027277491 0)
(1.3520081 0.00025475517 0)
(1.3520696 0.00023793034 0)
(1.3521271 0.0002222168 0)
(1.3521807 0.00020754319 0)
(1.3522309 0.00019383359 0)
(1.3522777 0.00018103126 0)
(1.3523214 0.00016906497 0)
(1.3523623 0.00015789515 0)
(1.3524005 0.00014744714 0)
(1.352436 0.00013770312 0)
(1.3524693 0.00012857135 0)
(1.3525002 0.00012006992 0)
(1.3525294 0.00011206778 0)
(1.3525562 0.00010465002 0)
(1.3525818 9.7606071e-05 0)
(1.3526049 9.1147265e-05 0)
(1.3526274 8.490319e-05 0)
(1.3526472 7.9320303e-05 0)
(1.3526672 7.3715089e-05 0)
(1.3526837 6.897146e-05 0)
(1.3527018 6.3818753e-05 0)
(1.352715 5.9945212e-05 0)
(1.3527321 5.5024049e-05 0)
(1.3527417 5.2165446e-05 0)
(1.3527588 4.7232949e-05 0)
(1.3527642 4.5667049e-05 0)
(1.3527832 4.0481158e-05 0)
(1.0005903 0.0034629165 0)
(1.0136865 0.0093660209 0)
(1.0370283 0.013046807 0)
(1.0674202 0.014563262 0)
(1.1000315 0.014854525 0)
(1.1316428 0.014564991 0)
(1.1610745 0.013888338 0)
(1.1880674 0.012919245 0)
(1.2125205 0.011806506 0)
(1.2343939 0.010696426 0)
(1.2538077 0.009672742 0)
(1.2710339 0.0087628223 0)
(1.286401 0.0079659742 0)
(1.3002112 0.0072722153 0)
(1.3127102 0.0066688091 0)
(1.3240903 0.0061419255 0)
(1.3345036 0.0056780719 0)
(1.3440716 0.0052653203 0)
(1.3528927 0.0048939342 0)
(1.3610463 0.0045563951 0)
(1.3685975 0.0042470694 0)
(1.3756004 0.0039617759 0)
(1.3821012 0.0036973982 0)
(1.3881402 0.0034515834 0)
(1.3937533 0.0032225195 0)
(1.3989728 0.0030087706 0)
(1.403828 0.0028091582 0)
(1.4083456 0.002622679 0)
(1.4125503 0.0024484491 0)
(1.4164646 0.0022856699 0)
(1.4201094 0.0021336068 0)
(1.423504 0.0019915758 0)
(1.4266661 0.0018589364 0)
(1.4296121 0.0017350867 0)
(1.4323573 0.0016194598 0)
(1.4349159 0.0015115228 0)
(1.4373007 0.0014107741 0)
(1.439524 0.0013167427 0)
(1.441597 0.0012289864 0)
(1.4435301 0.0011470904 0)
(1.4453329 0.0010706661 0)
(1.4470143 0.00099934979 0)
(1.4485827 0.00093280085 0)
(1.4500459 0.00087070092 0)
(1.451411 0.0008127523 0)
(1.4526846 0.00075867709 0)
(1.4538731 0.00070821573 0)
(1.4549821 0.00066112592 0)
(1.4560171 0.00061718167 0)
(1.4569831 0.00057617205 0)
(1.4578847 0.00053790041 0)
(1.4587262 0.00050218304 0)
(1.4595117 0.00046884858 0)
(1.460245 0.000437737 0)
(1.4609295 0.00040869902 0)
(1.4615685 0.00038159562 0)
(1.4621651 0.00035629695 0)
(1.4627221 0.00033268206 0)
(1.4632422 0.00031063837 0)
(1.4637278 0.00029006085 0)
(1.4641812 0.00027085179 0)
(1.4646045 0.00025291976 0)
(1.4649998 0.00023617949 0)
(1.4653689 0.00022055117 0)
(1.4657136 0.00020596025 0)
(1.4660355 0.00019233732 0)
(1.4663361 0.00017961765 0)
(1.4666168 0.00016774077 0)
(1.466879 0.0001566509 0)
(1.4671238 0.00014629574 0)
(1.4673524 0.00013662727 0)
(1.467566 0.00012759969 0)
(1.4677654 0.00011917084 0)
(1.4679517 0.00011130004 0)
(1.4681256 0.00010395039 0)
(1.468288 9.7085301e-05 0)
(1.4684397 9.0674094e-05 0)
(1.4685815 8.468353e-05 0)
(1.4687138 7.9090072e-05 0)
(1.4688374 7.3861757e-05 0)
(1.4689528 6.8982715e-05 0)
(1.4690607 6.4418321e-05 0)
(1.4691613 6.0163609e-05 0)
(1.4692554 5.6174122e-05 0)
(1.469343 5.2463313e-05 0)
(1.4694252 4.8965678e-05 0)
(1.4695014 4.5730298e-05 0)
(1.4695733 4.2649116e-05 0)
(1.4696392 3.9837531e-05 0)
(1.4697023 3.7103142e-05 0)
(1.469759 3.4682224e-05 0)
(1.4698148 3.2221683e-05 0)
(1.4698627 3.0177431e-05 0)
(1.4699129 2.7905045e-05 0)
(1.469952 2.6250815e-05 0)
(1.4699988 2.4067931e-05 0)
(1.4700281 2.2862953e-05 0)
(1.4700749 2.0664004e-05 0)
(1.4700917 2.0007501e-05 0)
(1.4701442 1.7679623e-05 0)
(1.0005903 -0.0034629151 0)
(1.0136865 -0.0093660185 0)
(1.0370283 -0.013046805 0)
(1.0674202 -0.014563261 0)
(1.1000315 -0.014854525 0)
(1.1316428 -0.014564991 0)
(1.1610745 -0.013888339 0)
(1.1880674 -0.012919246 0)
(1.2125205 -0.011806506 0)
(1.2343939 -0.010696426 0)
(1.2538077 -0.0096727411 0)
(1.2710339 -0.0087628209 0)
(1.286401 -0.0079659727 0)
(1.3002112 -0.0072722142 0)
(1.3127102 -0.0066688089 0)
(1.3240903 -0.0061419263 0)
(1.3345036 -0.0056780735 0)
(1.3440716 -0.0052653221 0)
(1.3528927 -0.0048939358 0)
(1.3610463 -0.0045563957 0)
(1.3685975 -0.0042470689 0)
(1.3756004 -0.0039617746 0)
(1.3821012 -0.0036973963 0)
(1.3881402 -0.0034515816 0)
(1.3937533 -0.0032225183 0)
(1.3989728 -0.0030087704 0)
(1.403828 -0.0028091591 0)
(1.4083456 -0.0026226804 0)
(1.4125503 -0.0024484506 0)
(1.4164646 -0.0022856709 0)
(1.4201094 -0.0021336067 0)
(1.423504 -0.0019915746 0)
(1.4266661 -0.0018589343 0)
(1.4296121 -0.0017350842 0)
(1.4323573 -0.0016194577 0)
(1.4349159 -0.0015115216 0)
(1.4373007 -0.0014107741 0)
(1.439524 -0.0013167435 0)
(1.441597 -0.0012289875 0)
(1.4435301 -0.001147091 0)
(1.4453329 -0.0010706657 0)
(1.4470143 -0.00099934796 0)
(1.4485827 -0.00093279775 0)
(1.4500459 -0.00087069715 0)
(1.451411 -0.00081274872 0)
(1.4526846 -0.0007586744 0)
(1.4538731 -0.00070821429 0)
(1.4549821 -0.00066112557 0)
(1.4560171 -0.00061718186 0)
(1.4569831 -0.00057617182 0)
(1.4578847 -0.00053789874 0)
(1.4587262 -0.00050217944 0)
(1.4595117 -0.00046884304 0)
(1.460245 -0.00043773048 0)
(1.4609295 -0.00040869274 0)
(1.4615685 -0.00038159053 0)
(1.4621651 -0.00035629373 0)
(1.4627221 -0.0003326806 0)
(1.4632422 -0.00031063792 0)
(1.4637278 -0.00029006006 0)
(1.4641812 -0.00027084916 0)
(1.4646045 -0.00025291456 0)
(1.4649998 -0.00023617165 0)
(1.4653689 -0.00022054204 0)
(1.4657136 -0.00020595164 0)
(1.4660355 -0.00019233096 0)
(1.4663361 -0.00017961461 0)
(1.4666168 -0.00016774108 0)
(1.466879 -0.00015665356 0)
(1.4671238 -0.00014629877 0)
(1.4673524 -0.00013662842 0)
(1.467566 -0.00012759764 0)
(1.4677654 -0.00011916551 0)
(1.4679517 -0.00011129289 0)
(1.4681256 -0.00010394387 0)
(1.4682881 -9.7081847e-05 0)
(1.4684398 -9.0675247e-05 0)
(1.4685815 -8.4689096e-05 0)
(1.4687138 -7.9098382e-05 0)
(1.4688374 -7.3870397e-05 0)
(1.4689528 -6.8989733e-05 0)
(1.4690607 -6.4422793e-05 0)
(1.4691613 -6.016566e-05 0)
(1.4692555 -5.6175446e-05 0)
(1.469343 -5.2466212e-05 0)
(1.4694252 -4.8972145e-05 0)
(1.4695014 -4.5740958e-05 0)
(1.4695733 -4.2663407e-05 0)
(1.4696392 -3.9852888e-05 0)
(1.4697023 -3.7117576e-05 0)
(1.469759 -3.4693116e-05 0)
(1.4698148 -3.2229047e-05 0)
(1.4698627 -3.0181577e-05 0)
(1.4699129 -2.7908235e-05 0)
(1.469952 -2.6254992e-05 0)
(1.4699988 -2.4073185e-05 0)
(1.4700281 -2.2869002e-05 0)
(1.4700749 -2.0667052e-05 0)
(1.4700917 -2.0007742e-05 0)
(1.4701442 -1.7670454e-05 0)
(1.0007347 -0.011814721 0)
(1.0178472 -0.030860926 0)
(1.0462163 -0.041434441 0)
(1.0799018 -0.04519357 0)
(1.1132664 -0.045502352 0)
(1.143782 -0.044080309 0)
(1.1708941 -0.041439983 0)
(1.1945687 -0.037973678 0)
(1.2148582 -0.034195728 0)
(1.2319652 -0.030536885 0)
(1.2462683 -0.027222042 0)
(1.2582339 -0.024313919 0)
(1.2683135 -0.021797887 0)
(1.2768875 -0.01963366 0)
(1.2842554 -0.017773828 0)
(1.2906479 -0.016169654 0)
(1.296243 -0.014775592 0)
(1.3011791 -0.013552299 0)
(1.3055645 -0.012467863 0)
(1.3094838 -0.011497464 0)
(1.3130042 -0.010622159 0)
(1.3161792 -0.0098275106 0)
(1.3190526 -0.0091024092 0)
(1.3216607 -0.0084381763 0)
(1.3240343 -0.0078279049 0)
(1.3261995 -0.0072659767 0)
(1.3281786 -0.0067477114 0)
(1.3299913 -0.0062691189 0)
(1.3316544 -0.0058267283 0)
(1.3331829 -0.0054174725 0)
(1.3345896 -0.00503861 0)
(1.3358862 -0.0046876705 0)
(1.3370827 -0.0043624164 0)
(1.3381883 -0.0040608128 0)
(1.3392108 -0.0037810043 0)
(1.3401576 -0.0035212969 0)
(1.3410349 -0.0032801414 0)
(1.3418486 -0.0030561204 0)
(1.3426038 -0.0028479356 0)
(1.3433051 -0.0026543971 0)
(1.3439569 -0.0024744133 0)
(1.3445629 -0.0023069819 0)
(1.3451267 -0.0021511813 0)
(1.3456513 -0.0020061634 0)
(1.3461398 -0.0018711468 0)
(1.3465947 -0.001745411 0)
(1.3470185 -0.0016282909 0)
(1.3474135 -0.0015191729 0)
(1.3477816 -0.0014174901 0)
(1.3481249 -0.0013227189 0)
(1.3484449 -0.0012343757 0)
(1.3487435 -0.0011520128 0)
(1.349022 -0.0010752154 0)
(1.3492818 -0.0010035987 0)
(1.3495242 -0.0009368052 0)
(1.3497505 -0.00087450255 0)
(1.3499616 -0.00081638151 0)
(1.3501587 -0.00076215512 0)
(1.3503427 -0.00071155706 0)
(1.3505145 -0.00066434069 0)
(1.3506748 -0.00062027761 0)
(1.3508246 -0.00057915559 0)
(1.3509643 -0.00054077757 0)
(1.3510949 -0.00050495909 0)
(1.3512167 -0.00047152774 0)
(1.3513305 -0.00044032188 0)
(1.3514368 -0.00041119023 0)
(1.3515361 -0.0003839918 0)
(1.3516288 -0.00035859623 0)
(1.3517153 -0.00033488281 0)
(1.3517962 -0.00031274125 0)
(1.3518717 -0.00029206792 0)
(1.3519423 -0.00027276799 0)
(1.3520081 -0.00025474931 0)
(1.3520696 -0.0002379277 0)
(1.3521271 -0.00022221859 0)
(1.3521807 -0.00020754887 0)
(1.3522309 -0.00019384143 0)
(1.3522777 -0.00018103897 0)
(1.3523215 -0.00016907048 0)
(1.3523623 -0.00015789775 0)
(1.3524005 -0.00014744734 0)
(1.352436 -0.00013770318 0)
(1.3524694 -0.00012857335 0)
(1.3525003 -0.00012007547 0)
(1.3525294 -0.00011207708 0)
(1.3525562 -0.00010466197 0)
(1.3525818 -9.7618435e-05 0)
(1.3526049 -9.1158227e-05 0)
(1.3526274 -8.4910899e-05 0)
(1.3526472 -7.9325187e-05 0)
(1.3526672 -7.3717318e-05 0)
(1.3526837 -6.8973872e-05 0)
(1.3527018 -6.3821252e-05 0)
(1.352715 -5.9950341e-05 0)
(1.3527321 -5.5029295e-05 0)
(1.3527417 -5.2171685e-05 0)
(1.3527588 -4.7236188e-05 0)
(1.3527642 -4.5666987e-05 0)
(1.3527832 -4.047707e-05 0)
(1.0014244 -0.026824854 0)
(1.0291272 -0.062791352 0)
(1.0654292 -0.077736553 0)
(1.098962 -0.080597201 0)
(1.1253148 -0.078285173 0)
(1.145053 -0.073153901 0)
(1.1594858 -0.066111279 0)
(1.1694287 -0.058162062 0)
(1.1755354 -0.050296751 0)
(1.1785738 -0.043150705 0)
(1.1793571 -0.036972822 0)
(1.178595 -0.031771631 0)
(1.1768304 -0.02745184 0)
(1.1744518 -0.02388677 0)
(1.1717287 -0.020947623 0)
(1.1688444 -0.018515783 0)
(1.1659195 -0.016488087 0)
(1.1630317 -0.014779503 0)
(1.1602295 -0.013322983 0)
(1.1575415 -0.012067129 0)
(1.1549828 -0.010972997 0)
(1.1525601 -0.010011059 0)
(1.1502747 -0.009158746 0)
(1.1481246 -0.0083986055 0)
(1.1461059 -0.0077169534 0)
(1.1442134 -0.0071028917 0)
(1.1424414 -0.0065475948 0)
(1.1407838 -0.0060437968 0)
(1.1392344 -0.0055854253 0)
(1.1377869 -0.0051673419 0)
(1.1364353 -0.0047851531 0)
(1.1351738 -0.0044350724 0)
(1.1339968 -0.0041138144 0)
(1.1328987 -0.0038185127 0)
(1.1318746 -0.0035466553 0)
(1.1309195 -0.003296031 0)
(1.1300289 -0.0030646873 0)
(1.1291985 -0.0028508935 0)
(1.1284242 -0.0026531106 0)
(1.1277023 -0.0024699659 0)
(1.1270291 -0.0023002307 0)
(1.1264014 -0.0021428013 0)
(1.1258161 -0.0019966836 0)
(1.1252702 -0.0018609788 0)
(1.1247612 -0.0017348726 0)
(1.1242865 -0.0016176252 0)
(1.1238437 -0.0015085633 0)
(1.1234307 -0.0014070729 0)
(1.1230455 -0.0013125933 0)
(1.1226861 -0.0012246117 0)
(1.1223509 -0.0011426577 0)
(1.1220381 -0.0010662989 0)
(1.1217463 -0.00099513694 0)
(1.1214739 -0.00092880342 0)
(1.1212198 -0.00086695791 0)
(1.1209827 -0.00080928511 0)
(1.1207614 -0.00075549344 0)
(1.1205548 -0.0007053137 0)
(1.1203621 -0.00065849716 0)
(1.1201821 -0.00061481454 0)
(1.1200142 -0.00057405346 0)
(1.1198575 -0.00053601669 0)
(1.1197111 -0.00050052042 0)
(1.1195745 -0.0004673921 0)
(1.1194469 -0.00043647053 0)
(1.1193278 -0.00040760462 0)
(1.1192167 -0.00038065403 0)
(1.1191129 -0.00035548908 0)
(1.119016 -0.00033199042 0)
(1.1189255 -0.00031004842 0)
(1.118841 -0.00028956204 0)
(1.1187622 -0.00027043594 0)
(1.1186885 -0.00025258132 0)
(1.1186197 -0.00023591123 0)
(1.1185554 -0.00022034583 0)
(1.1184954 -0.00020580602 0)
(1.1184394 -0.00019222361 0)
(1.1183871 -0.00017952982 0)
(1.1183383 -0.0001676719 0)
(1.1182927 -0.00015658853 0)
(1.1182501 -0.00014624181 0)
(1.1182103 -0.00013656799 0)
(1.1181731 -0.00012754357 0)
(1.1181385 -0.00011909112 0)
(1.118106 -0.00011121071 0)
(1.1180758 -0.00010380021 0)
(1.1180475 -9.6907312e-05 0)
(1.1180213 -9.0382237e-05 0)
(1.1179966 -8.4359632e-05 0)
(1.1179739 -7.8587873e-05 0)
(1.1179522 -7.3355895e-05 0)
(1.1179325 -6.8205568e-05 0)
(1.1179136 -6.3714438e-05 0)
(1.1178965 -5.903024e-05 0)
(1.1178802 -5.5286576e-05 0)
(1.1178651 -5.0888568e-05 0)
(1.1178518 -4.8025806e-05 0)
(1.1178373 -4.3727819e-05 0)
(1.1178286 -4.2101315e-05 0)
(1.1178116 -3.7829459e-05 0)
(1.0016583 -0.05381943 0)
(1.0359761 -0.10128444 0)
(1.0597199 -0.11073663 0)
(1.0628947 -0.10592202 0)
(1.0515569 -0.096228729 0)
(1.0340529 -0.083934062 0)
(1.0142795 -0.070327062 0)
(0.99360703 -0.056981331 0)
(0.97292578 -0.045107476 0)
(0.9531074 -0.035236747 0)
(0.93479539 -0.027401648 0)
(0.91829011 -0.021387228 0)
(0.90362378 -0.016884501 0)
(0.89068066 -0.013569712 0)
(0.87928174 -0.011147752 0)
(0.86923241 -0.009373661 0)
(0.86034423 -0.0080569285 0)
(0.85244668 -0.0070571259 0)
(0.84539242 -0.0062752353 0)
(0.83905794 -0.0056438251 0)
(0.83334127 -0.0051180882 0)
(0.82815884 -0.0046686711 0)
(0.82344212 -0.004276418 0)
(0.81913466 -0.0039287411 0)
(0.81518961 -0.0036172067 0)
(0.81156765 -0.0033359734 0)
(0.80823544 -0.0030808056 0)
(0.8051644 -0.0028484685 0)
(0.8023298 -0.0026363668 0)
(0.79971 -0.0024423348 0)
(0.79728598 -0.0022645149 0)
(0.79504087 -0.0021012872 0)
(0.79295963 -0.0019512247 0)
(0.7910288 -0.0018130648 0)
(0.78923627 -0.0016856871 0)
(0.78757109 -0.0015680966 0)
(0.78602338 -0.0014594089 0)
(0.78458412 -0.0013588369 0)
(0.78324512 -0.0012656789 0)
(0.7819989 -0.0011793079 0)
(0.78083862 -0.0010991623 0)
(0.77975799 -0.0010247371 0)
(0.77875128 -0.00095557656 0)
(0.77781317 -0.00089126883 0)
(0.7769388 -0.00083144023 0)
(0.77612367 -0.0007757513 0)
(0.77536362 -0.00072389328 0)
(0.77465481 -0.00067558456 0)
(0.77399369 -0.00063056815 0)
(0.77337695 -0.00058860856 0)
(0.77280155 -0.00054948928 0)
(0.77226465 -0.00051301061 0)
(0.77176364 -0.00047898735 0)
(0.77129606 -0.00044724786 0)
(0.77085966 -0.0004176328 0)
(0.77045233 -0.00038999467 0)
(0.77007211 -0.00036419756 0)
(0.76971718 -0.00034011611 0)
(0.76938583 -0.00031763525 0)
(0.76907647 -0.00029664857 0)
(0.76878763 -0.00027705708 0)
(0.76851794 -0.00025876813 0)
(0.76826611 -0.00024169397 0)
(0.76803096 -0.00022575191 0)
(0.76781138 -0.00021086406 0)
(0.76760634 -0.00019695788 0)
(0.76741488 -0.00018396706 0)
(0.76723609 -0.00017183088 0)
(0.76706912 -0.00016049474 0)
(0.76691319 -0.00014990815 0)
(0.76676755 -0.00014002402 0)
(0.76663152 -0.00013079687 0)
(0.76650447 -0.00012218253 0)
(0.7663858 -0.00011413752 0)
(0.76627498 -0.00010662147 0)
(0.76617149 -9.9595495e-05 0)
(0.76607484 -9.3027683e-05 0)
(0.76598459 -8.688667e-05 0)
(0.76590029 -8.1149692e-05 0)
(0.76582156 -7.5789307e-05 0)
(0.765748 -7.0787456e-05 0)
(0.76567931 -6.6113134e-05 0)
(0.76561514 -6.1751661e-05 0)
(0.76555526 -5.7664692e-05 0)
(0.76549931 -5.3848429e-05 0)
(0.76544715 -5.0256838e-05 0)
(0.76539841 -4.690915e-05 0)
(0.76535302 -4.3744326e-05 0)
(0.76531056 -4.0815354e-05 0)
(0.76527108 -3.8024925e-05 0)
(0.76523412 -3.5475321e-05 0)
(0.76519983 -3.3001897e-05 0)
(0.76516776 -3.079106e-05 0)
(0.76513797 -2.857357e-05 0)
(0.76511043 -2.6678183e-05 0)
(0.76508422 -2.4678795e-05 0)
(0.76506144 -2.3129708e-05 0)
(0.76503681 -2.1390002e-05 0)
(0.76502109 -2.0375109e-05 0)
(0.76499233 -1.9328089e-05 0)
(0.91890839 -0.035821913 0)
(0.86271384 -0.062195639 0)
(0.7870597 -0.062510091 0)
(0.69536032 -0.054550396 0)
(0.61089744 -0.044531652 0)
(0.54411592 -0.034015972 0)
(0.49343012 -0.024187539 0)
(0.45479414 -0.016144228 0)
(0.42544583 -0.010265784 0)
(0.40347313 -0.006304144 0)
(0.38715766 -0.003797629 0)
(0.37496219 -0.0023103388 0)
(0.36566192 -0.0014930163 0)
(0.35836272 -0.0010851199 0)
(0.35244267 -0.0009060737 0)
(0.34748201 -0.0008410523 0)
(0.34320348 -0.0008237237 0)
(0.33942726 -0.00081930911 0)
(0.33603793 -0.00081185029 0)
(0.33296114 -0.00079579973 0)
(0.33014778 -0.00077081068 0)
(0.32756384 -0.0007387097 0)
(0.3251842 -0.00070189045 0)
(0.32298902 -0.00066256737 0)
(0.32096172 -0.00062250128 0)
(0.31908785 -0.0005829586 0)
(0.31735449 -0.0005447718 0)
(0.31574996 -0.00050843334 0)
(0.31426361 -0.00047419003 0)
(0.31288575 -0.00044212278 0)
(0.31160756 -0.00041220799 0)
(0.31042101 -0.00038436103 0)
(0.30931882 -0.00035846543 0)
(0.30829437 -0.00033439169 0)
(0.30734164 -0.00031200849 0)
(0.30645515 -0.00029118919 0)
(0.30562991 -0.00027181506 0)
(0.30486137 -0.00025377645 0)
(0.30414536 -0.00023697298 0)
(0.30347807 -0.00022131291 0)
(0.30285601 -0.00020671234 0)
(0.30227596 -0.00019309445 0)
(0.30173496 -0.00018038864 0)
(0.30123028 -0.00016853006 0)
(0.30075941 -0.00015745904 0)
(0.30032001 -0.00014712082 0)
(0.29990993 -0.00013746516 0)
(0.29952716 -0.00012844586 0)
(0.29916984 -0.00012002052 0)
(0.29883625 -0.00011214979 0)
(0.29852479 -0.00010479708 0)
(0.29823397 -9.7928013e-05 0)
(0.29796241 -9.1510138e-05 0)
(0.29770882 -8.5513033e-05 0)
(0.297472 -7.9908127e-05 0)
(0.29725084 -7.4669041e-05 0)
(0.29704429 -6.9771638e-05 0)
(0.29685139 -6.5193809e-05 0)
(0.29667121 -6.0915517e-05 0)
(0.29650292 -5.6918037e-05 0)
(0.29634573 -5.3183727e-05 0)
(0.2961989 -4.9695594e-05 0)
(0.29606176 -4.6436959e-05 0)
(0.29593365 -4.3391912e-05 0)
(0.29581399 -4.054526e-05 0)
(0.29570223 -3.7883192e-05 0)
(0.29559784 -3.5393556e-05 0)
(0.29550033 -3.306562e-05 0)
(0.29540924 -3.0890248e-05 0)
(0.29532415 -2.8858775e-05 0)
(0.29524465 -2.6962839e-05 0)
(0.29517039 -2.5193656e-05 0)
(0.29510102 -2.3542011e-05 0)
(0.29503622 -2.1998622e-05 0)
(0.29497569 -2.05549e-05 0)
(0.29491916 -1.9203092e-05 0)
(0.29486636 -1.7937736e-05 0)
(0.29481704 -1.675372e-05 0)
(0.29477096 -1.564824e-05 0)
(0.29472791 -1.4616665e-05 0)
(0.29468769 -1.365604e-05 0)
(0.29465013 -1.2759394e-05 0)
(0.29461503 -1.1923184e-05 0)
(0.29458227 -1.1138187e-05 0)
(0.29455168 -1.04039e-05 0)
(0.29452313 -9.7104213e-06 0)
(0.29449647 -9.0639973e-06 0)
(0.2944716 -8.4521958e-06 0)
(0.29444836 -7.8886413e-06 0)
(0.29442671 -7.3524008e-06 0)
(0.29440648 -6.865415e-06 0)
(0.29438766 -6.3934125e-06 0)
(0.29437009 -5.9714811e-06 0)
(0.29435376 -5.5527451e-06 0)
(0.29433858 -5.1865199e-06 0)
(0.29432435 -4.8305516e-06 0)
(0.2943114 -4.5236392e-06 0)
(0.29429855 -4.3128145e-06 0)
(0.29428822 -4.1451869e-06 0)
(0.29427324 -4.5850324e-06 0)
)
;

boundaryField
{
    top
    {
        type            fixedValue;
        value           uniform (0 0 0);
    }
    inlet
    {
        type            fixedValue;
        value           uniform (1 0 0);
    }
    outlet
    {
        type            zeroGradient;
    }
    bottom
    {
        type            fixedValue;
        value           uniform (0 0 0);
    }
    back
    {
        type            empty;
    }
    front
    {
        type            empty;
    }
}


// ************************************************************************* //
