/*--------------------------------*- C++ -*----------------------------------*\
| =========                 |                                                 |
| \\      /  F ield         | OpenFOAM: The Open Source CFD Toolbox           |
|  \\    /   O peration     | Version:  v1812                                 |
|   \\  /    A nd           | Web:      www.OpenFOAM.com                      |
|    \\/     M anipulation  |                                                 |
\*---------------------------------------------------------------------------*/
FoamFile
{
    version     2.0;
    format      ascii;
    class       volVectorField;
    location    "18.55";
    object      U;
}
// * * * * * * * * * * * * * * * * * * * * * * * * * * * * * * * * * * * * * //

dimensions      [0 1 -1 0 0 0 0];


internalField   nonuniform List<vector> 
1000
(
(0.91890839 0.035821912 0)
(0.86271384 0.062195638 0)
(0.7870597 0.062510089 0)
(0.69536033 0.054550394 0)
(0.61089745 0.04453165 0)
(0.54411592 0.034015971 0)
(0.49343012 0.02418754 0)
(0.45479414 0.01614423 0)
(0.42544583 0.010265786 0)
(0.40347313 0.0063041453 0)
(0.38715767 0.0037976293 0)
(0.3749622 0.0023103382 0)
(0.36566193 0.001493015 0)
(0.35836272 0.0010851183 0)
(0.35244268 0.00090607198 0)
(0.34748201 0.00084105104 0)
(0.34320348 0.00082372347 0)
(0.33942726 0.00081930988 0)
(0.33603793 0.00081185196 0)
(0.33296114 0.00079580153 0)
(0.33014778 0.0007708122 0)
(0.32756384 0.00073871018 0)
(0.3251842 0.00070188973 0)
(0.32298902 0.00066256561 0)
(0.32096172 0.00062249903 0)
(0.31908785 0.0005829564 0)
(0.31735449 0.00054477061 0)
(0.31574996 0.00050843327 0)
(0.3142636 0.00047419133 0)
(0.31288575 0.0004421247 0)
(0.31160756 0.00041221009 0)
(0.31042101 0.00038436244 0)
(0.30931883 0.00035846568 0)
(0.30829438 0.00033439066 0)
(0.30734165 0.0003120064 0)
(0.30645515 0.00029118671 0)
(0.30562991 0.00027181289 0)
(0.30486136 0.00025377541 0)
(0.30414535 0.00023697355 0)
(0.30347807 0.00022131466 0)
(0.30285601 0.00020671492 0)
(0.30227596 0.00019309673 0)
(0.30173497 0.00018038998 0)
(0.30123029 0.00016852991 0)
(0.30075942 0.0001574573 0)
(0.30032002 0.00014711826 0)
(0.29990993 0.00013746234 0)
(0.29952715 0.00012844408 0)
(0.29916983 0.00012002053 0)
(0.29883624 0.00011215138 0)
(0.29852478 0.00010480011 0)
(0.29823397 9.7931176e-05 0)
(0.29796241 9.151244e-05 0)
(0.29770883 8.5513709e-05 0)
(0.29747201 7.9906511e-05 0)
(0.29725084 7.4665999e-05 0)
(0.29704429 6.9767609e-05 0)
(0.29685137 6.5190841e-05 0)
(0.2966712 6.0914769e-05 0)
(0.29650291 5.6919807e-05 0)
(0.29634572 5.3187712e-05 0)
(0.2961989 4.9700048e-05 0)
(0.29606176 4.6440412e-05 0)
(0.29593366 4.3392879e-05 0)
(0.295814 4.0542931e-05 0)
(0.29570223 3.7878443e-05 0)
(0.29559783 3.5387603e-05 0)
(0.29550031 3.3060314e-05 0)
(0.29540922 3.0887966e-05 0)
(0.29532413 2.8859696e-05 0)
(0.29524465 2.6966796e-05 0)
(0.2951704 2.5198752e-05 0)
(0.29510104 2.3545423e-05 0)
(0.29503625 2.1998323e-05 0)
(0.29497572 2.054988e-05 0)
(0.29491918 1.919412e-05 0)
(0.29486637 1.7927501e-05 0)
(0.29481705 1.6744374e-05 0)
(0.29477097 1.5643056e-05 0)
(0.29472793 1.4616416e-05 0)
(0.29468772 1.3660585e-05 0)
(0.29465016 1.2766823e-05 0)
(0.29461507 1.1930708e-05 0)
(0.29458229 1.1144683e-05 0)
(0.29455167 1.0407801e-05 0)
(0.29452308 9.7132581e-06 0)
(0.29449635 9.0725436e-06 0)
(0.29447142 8.4703317e-06 0)
(0.2944481 7.9182886e-06 0)
(0.29442633 7.3969288e-06 0)
(0.29440598 6.9260912e-06 0)
(0.294387 6.4726691e-06 0)
(0.2943692 6.0618172e-06 0)
(0.29435259 5.6503989e-06 0)
(0.29433714 5.2891219e-06 0)
(0.29432249 4.9685817e-06 0)
(0.29430919 4.6878271e-06 0)
(0.29429569 4.5388714e-06 0)
(0.29428502 4.4055848e-06 0)
(0.29426874 5.0574807e-06 0)
(1.0016583 0.05381943 0)
(1.0359761 0.10128443 0)
(1.0597199 0.11073663 0)
(1.0628947 0.10592201 0)
(1.0515569 0.096228725 0)
(1.0340529 0.083934059 0)
(1.0142795 0.070327062 0)
(0.99360703 0.056981334 0)
(0.97292577 0.045107479 0)
(0.9531074 0.03523675 0)
(0.93479539 0.02740165 0)
(0.91829012 0.021387227 0)
(0.90362379 0.016884499 0)
(0.89068068 0.013569709 0)
(0.87928175 0.011147748 0)
(0.86923242 0.0093736578 0)
(0.86034424 0.0080569271 0)
(0.85244667 0.0070571265 0)
(0.84539242 0.0062752379 0)
(0.83905793 0.0056438286 0)
(0.83334127 0.0051180915 0)
(0.82815884 0.0046686728 0)
(0.82344213 0.0042764175 0)
(0.81913467 0.0039287383 0)
(0.81518962 0.0036172024 0)
(0.81156765 0.0033359687 0)
(0.80823544 0.0030808023 0)
(0.8051644 0.0028484673 0)
(0.80232979 0.0026363682 0)
(0.79971 0.002442338 0)
(0.79728598 0.002264519 0)
(0.79504087 0.0021012905 0)
(0.79295963 0.0019512261 0)
(0.79102881 0.0018130636 0)
(0.78923628 0.0016856835 0)
(0.78757111 0.0015680917 0)
(0.78602339 0.0014594041 0)
(0.78458412 0.0013588338 0)
(0.78324512 0.0012656788 0)
(0.78199889 0.0011793106 0)
(0.78083861 0.001099167 0)
(0.77975799 0.001024742 0)
(0.77875128 0.00095557997 0)
(0.77781318 0.00089126953 0)
(0.77693882 0.00083143773 0)
(0.77612368 0.0007757465 0)
(0.77536363 0.00072388767 0)
(0.77465481 0.00067558032 0)
(0.77399368 0.00063056709 0)
(0.77337694 0.0005886111 0)
(0.77280154 0.00054949496 0)
(0.77226465 0.00051301759 0)
(0.77176364 0.00047899322 0)
(0.77129607 0.00044725074 0)
(0.77085967 0.00041763124 0)
(0.77045234 0.00038998934 0)
(0.77007212 0.00036418991 0)
(0.76971717 0.00034010947 0)
(0.76938581 0.00031763257 0)
(0.76907644 0.00029665117 0)
(0.7687876 0.00027706452 0)
(0.76851791 0.00025877782 0)
(0.7682661 0.00024170234 0)
(0.76803096 0.00022575575 0)
(0.76781139 0.00021086133 0)
(0.76760635 0.00019694917 0)
(0.76741488 0.0001839549 0)
(0.76723608 0.00017181918 0)
(0.7670691 0.00016048785 0)
(0.76691315 0.00014990806 0)
(0.76676752 0.00014003064 0)
(0.7666315 0.00013080685 0)
(0.76650447 0.00012219103 0)
(0.76638582 0.00011413981 0)
(0.76627501 0.00010661548 0)
(0.76617152 9.9582136e-05 0)
(0.76607485 9.3012168e-05 0)
(0.76598458 8.6874609e-05 0)
(0.76590026 8.1148598e-05 0)
(0.76582151 7.5802565e-05 0)
(0.76574794 7.0817767e-05 0)
(0.76567924 6.6157717e-05 0)
(0.76561504 6.180896e-05 0)
(0.76555512 5.7732657e-05 0)
(0.7654991 5.3930429e-05 0)
(0.76544684 5.0355238e-05 0)
(0.76539796 4.7038015e-05 0)
(0.76535239 4.3921124e-05 0)
(0.7653097 4.1053493e-05 0)
(0.76526997 3.8323279e-05 0)
(0.76523272 3.5844543e-05 0)
(0.76519804 3.3463767e-05 0)
(0.76516555 3.1332134e-05 0)
(0.76513516 2.9189519e-05 0)
(0.76510713 2.736398e-05 0)
(0.76507997 2.5517215e-05 0)
(0.76505663 2.4071463e-05 0)
(0.76503057 2.2554952e-05 0)
(0.76501445 2.1596897e-05 0)
(0.76498346 2.0993272e-05 0)
(1.0014244 0.026824854 0)
(1.0291272 0.06279135 0)
(1.0654292 0.077736549 0)
(1.098962 0.080597196 0)
(1.1253149 0.078285167 0)
(1.145053 0.073153897 0)
(1.1594858 0.066111277 0)
(1.1694287 0.058162063 0)
(1.1755354 0.050296754 0)
(1.1785738 0.043150707 0)
(1.1793571 0.036972824 0)
(1.178595 0.031771631 0)
(1.1768304 0.027451838 0)
(1.1744518 0.023886766 0)
(1.1717287 0.020947618 0)
(1.1688444 0.018515779 0)
(1.1659195 0.016488084 0)
(1.1630317 0.014779502 0)
(1.1602295 0.013322984 0)
(1.1575415 0.012067132 0)
(1.1549828 0.010973 0)
(1.1525601 0.010011061 0)
(1.1502747 0.0091587462 0)
(1.1481246 0.0083986032 0)
(1.1461059 0.0077169491 0)
(1.1442134 0.0071028865 0)
(1.1424414 0.0065475903 0)
(1.1407838 0.0060437941 0)
(1.1392344 0.0055854252 0)
(1.1377869 0.0051673441 0)
(1.1364353 0.0047851569 0)
(1.1351738 0.0044350764 0)
(1.1339968 0.0041138169 0)
(1.1328987 0.0038185127 0)
(1.1318746 0.0035466523 0)
(1.1309195 0.0032960258 0)
(1.1300289 0.0030646815 0)
(1.1291985 0.002850889 0)
(1.1284242 0.0026531091 0)
(1.1277022 0.0024699678 0)
(1.1270291 0.0023002354 0)
(1.1264014 0.0021428072 0)
(1.1258161 0.0019966885 0)
(1.1252702 0.001860981 0)
(1.1247612 0.001734871 0)
(1.1242865 0.0016176202 0)
(1.1238437 0.0015085565 0)
(1.1234308 0.0014070669 0)
(1.1230455 0.0013125905 0)
(1.1226861 0.0012246134 0)
(1.1223509 0.0011426639 0)
(1.1220381 0.001066308 0)
(1.1217462 0.00099514607 0)
(1.1214739 0.00092880956 0)
(1.1212198 0.00086695872 0)
(1.1209827 0.00080928013 0)
(1.1207614 0.00075548468 0)
(1.1205548 0.00070530488 0)
(1.1203621 0.00065849238 0)
(1.1201821 0.00061481625 0)
(1.1200142 0.00057406204 0)
(1.1198574 0.00053602971 0)
(1.1197111 0.00050053339 0)
(1.1195745 0.00046740024 0)
(1.1194469 0.00043647046 0)
(1.1193278 0.00040759565 0)
(1.1192167 0.00038063889 0)
(1.1191129 0.00035547286 0)
(1.119016 0.00033197923 0)
(1.1189255 0.00031004599 0)
(1.118841 0.00028956924 0)
(1.1187621 0.00027044884 0)
(1.1186884 0.0002525939 0)
(1.1186197 0.0002359167 0)
(1.1185554 0.0002203412 0)
(1.1184954 0.00020579158 0)
(1.1184394 0.00019220611 0)
(1.1183871 0.00017951722 0)
(1.1183383 0.00016767566 0)
(1.1182926 0.00015661388 0)
(1.11825 0.00014629397 0)
(1.1182103 0.000136643 0)
(1.1181731 0.00012764277 0)
(1.1181384 0.00011921012 0)
(1.1181059 0.00011135865 0)
(1.1180757 0.00010398441 0)
(1.1180473 9.7152951e-05 0)
(1.1180211 9.0704162e-05 0)
(1.1179962 8.4785869e-05 0)
(1.1179734 7.912932e-05 0)
(1.1179516 7.4028319e-05 0)
(1.1179318 6.9016335e-05 0)
(1.1179128 6.4660888e-05 0)
(1.1178955 6.014176e-05 0)
(1.117879 5.6561597e-05 0)
(1.1178635 5.2424167e-05 0)
(1.11785 4.9743491e-05 0)
(1.1178349 4.5808344e-05 0)
(1.1178261 4.432019e-05 0)
(1.1178083 4.0574816e-05 0)
(1.0007347 0.011814721 0)
(1.0178472 0.030860924 0)
(1.0462163 0.041434438 0)
(1.0799018 0.045193566 0)
(1.1132664 0.045502348 0)
(1.143782 0.044080305 0)
(1.1708941 0.04143998 0)
(1.1945687 0.037973676 0)
(1.2148582 0.034195728 0)
(1.2319652 0.030536886 0)
(1.2462683 0.027222043 0)
(1.2582339 0.024313918 0)
(1.2683135 0.021797886 0)
(1.2768875 0.019633657 0)
(1.2842554 0.017773824 0)
(1.2906479 0.01616965 0)
(1.296243 0.014775589 0)
(1.3011791 0.013552297 0)
(1.3055645 0.012467863 0)
(1.3094838 0.011497465 0)
(1.3130042 0.01062216 0)
(1.3161792 0.009827512 0)
(1.3190526 0.0091024096 0)
(1.3216607 0.0084381751 0)
(1.3240343 0.0078279022 0)
(1.3261995 0.007265973 0)
(1.3281786 0.0067477077 0)
(1.3299913 0.006269116 0)
(1.3316544 0.0058267268 0)
(1.3331829 0.0054174726 0)
(1.3345896 0.0050386116 0)
(1.3358862 0.004687673 0)
(1.3370827 0.0043624187 0)
(1.3381883 0.0040608137 0)
(1.3392108 0.003781003 0)
(1.3401576 0.0035212935 0)
(1.3410349 0.0032801369 0)
(1.3418486 0.0030561163 0)
(1.3426038 0.0028479333 0)
(1.3433051 0.0026543973 0)
(1.3439569 0.0024744161 0)
(1.3445629 0.0023069863 0)
(1.3451267 0.0021511858 0)
(1.3456513 0.0020061662 0)
(1.3461398 0.0018711467 0)
(1.3465947 0.001745408 0)
(1.3470185 0.0016282859 0)
(1.3474135 0.0015191676 0)
(1.3477816 0.0014174867 0)
(1.3481249 0.001322719 0)
(1.3484449 0.0012343799 0)
(1.3487435 0.0011520202 0)
(1.349022 0.0010752239 0)
(1.3492818 0.0010036057 0)
(1.3495242 0.00093680821 0)
(1.3497505 0.00087450076 0)
(1.3499616 0.00081637613 0)
(1.3501587 0.0007621489 0)
(1.3503427 0.00071155319 0)
(1.3505145 0.00066434162 0)
(1.3506748 0.00062028419 0)
(1.3508245 0.00057916655 0)
(1.3509643 0.00054078972 0)
(1.3510948 0.00050496832 0)
(1.3512167 0.00047153079 0)
(1.3513305 0.00044031732 0)
(1.3514368 0.00041117971 0)
(1.3515361 0.00038397904 0)
(1.3516288 0.0003585866 0)
(1.3517153 0.00033488008 0)
(1.3517962 0.00031274652 0)
(1.3518717 0.00029207828 0)
(1.3519422 0.00027277888 0)
(1.3520081 0.00025475459 0)
(1.3520696 0.00023792528 0)
(1.3521271 0.00022220796 0)
(1.3521807 0.00020753575 0)
(1.3522309 0.00019383167 0)
(1.3522777 0.000181043 0)
(1.3523215 0.00016909207 0)
(1.3523622 0.00015794152 0)
(1.3524005 0.00014750935 0)
(1.3524361 0.00013778702 0)
(1.3524695 0.00012867294 0)
(1.3525003 0.00012020144 0)
(1.3525296 0.00011223853 0)
(1.3525565 0.00010488304 0)
(1.3525822 9.7900471e-05 0)
(1.3526053 9.1531711e-05 0)
(1.3526281 8.539988e-05 0)
(1.352648 7.9934672e-05 0)
(1.3526684 7.4427968e-05 0)
(1.3526849 6.9800078e-05 0)
(1.3527037 6.4828952e-05 0)
(1.352717 6.1123631e-05 0)
(1.3527349 5.6439515e-05 0)
(1.3527446 5.3736603e-05 0)
(1.3527628 4.9141531e-05 0)
(1.3527683 4.7706478e-05 0)
(1.3527888 4.2958292e-05 0)
(1.0005903 0.0034629152 0)
(1.0136865 0.009366018 0)
(1.0370283 0.013046804 0)
(1.0674202 0.014563259 0)
(1.1000315 0.014854523 0)
(1.1316428 0.014564989 0)
(1.1610745 0.013888337 0)
(1.1880674 0.012919244 0)
(1.2125205 0.011806505 0)
(1.2343939 0.010696425 0)
(1.2538077 0.0096727405 0)
(1.2710339 0.0087628202 0)
(1.286401 0.0079659717 0)
(1.3002111 0.0072722127 0)
(1.3127102 0.0066688069 0)
(1.3240903 0.006141924 0)
(1.3345036 0.0056780712 0)
(1.3440716 0.0052653202 0)
(1.3528927 0.0048939343 0)
(1.3610463 0.0045563946 0)
(1.3685975 0.0042470684 0)
(1.3756004 0.0039617744 0)
(1.3821012 0.0036973963 0)
(1.3881402 0.0034515811 0)
(1.3937533 0.0032225171 0)
(1.3989728 0.0030087686 0)
(1.403828 0.0028091569 0)
(1.4083456 0.0026226783 0)
(1.4125503 0.0024484488 0)
(1.4164646 0.0022856697 0)
(1.4201094 0.0021336064 0)
(1.423504 0.001991575 0)
(1.426666 0.0018589353 0)
(1.4296121 0.0017350849 0)
(1.4323573 0.0016194576 0)
(1.4349159 0.0015115203 0)
(1.4373007 0.0014107719 0)
(1.4395241 0.0013167411 0)
(1.441597 0.0012289856 0)
(1.4435301 0.0011470904 0)
(1.4453328 0.0010706666 0)
(1.4470143 0.0009993501 0)
(1.4485827 0.00093280037 0)
(1.4500459 0.00087069916 0)
(1.451411 0.00081274932 0)
(1.4526846 0.00075867337 0)
(1.4538731 0.000708212 0)
(1.4549822 0.00066112284 0)
(1.4560172 0.00061717975 0)
(1.4569831 0.00057617164 0)
(1.4578847 0.00053790092 0)
(1.4587262 0.00050218364 0)
(1.4595117 0.00046884824 0)
(1.460245 0.0004377351 0)
(1.4609295 0.00040869558 0)
(1.4615685 0.00038159129 0)
(1.4621651 0.00035629299 0)
(1.4627221 0.00033267946 0)
(1.4632422 0.00031063766 0)
(1.4637278 0.00029006191 0)
(1.4641811 0.00027085346 0)
(1.4646045 0.00025292087 0)
(1.4649998 0.00023617885 0)
(1.4653689 0.00022054813 0)
(1.4657136 0.00020595503 0)
(1.4660355 0.00019233096 0)
(1.4663361 0.0001796119 0)
(1.4666168 0.00016773722 0)
(1.466879 0.00015665076 0)
(1.4671238 0.00014629897 0)
(1.4673524 0.00013663199 0)
(1.467566 0.00012760299 0)
(1.4677654 0.00011917077 0)
(1.4679516 0.00011129535 0)
(1.4681255 0.00010394281 0)
(1.4682881 9.7077539e-05 0)
(1.4684398 9.0670426e-05 0)
(1.4685814 8.4685838e-05 0)
(1.4687138 7.9101061e-05 0)
(1.4688376 7.3879707e-05 0)
(1.4689528 6.9006458e-05 0)
(1.4690607 6.4444403e-05 0)
(1.4691615 6.01951e-05 0)
(1.4692558 5.6209765e-05 0)
(1.4693432 5.2511945e-05 0)
(1.4694256 4.9033319e-05 0)
(1.4695021 4.5825672e-05 0)
(1.4695742 4.2770633e-05 0)
(1.46964 4.0000488e-05 0)
(1.4697037 3.7311726e-05 0)
(1.4697608 3.4926788e-05 0)
(1.4698173 3.2495281e-05 0)
(1.4698651 3.0493969e-05 0)
(1.4699166 2.8304184e-05 0)
(1.4699562 2.6725857e-05 0)
(1.4700045 2.4639401e-05 0)
(1.4700339 2.3486113e-05 0)
(1.4700831 2.1417279e-05 0)
(1.4701001 2.0813508e-05 0)
(1.4701557 1.8651869e-05 0)
(1.0005903 -0.0034629162 0)
(1.0136865 -0.0093660206 0)
(1.0370283 -0.013046807 0)
(1.0674202 -0.014563262 0)
(1.1000315 -0.014854525 0)
(1.1316428 -0.014564991 0)
(1.1610745 -0.013888338 0)
(1.1880674 -0.012919246 0)
(1.2125205 -0.011806507 0)
(1.2343939 -0.010696428 0)
(1.2538077 -0.0096727436 0)
(1.2710339 -0.0087628233 0)
(1.286401 -0.0079659746 0)
(1.3002111 -0.0072722154 0)
(1.3127102 -0.0066688093 0)
(1.3240903 -0.0061419261 0)
(1.3345036 -0.005678073 0)
(1.3440716 -0.0052653216 0)
(1.3528927 -0.0048939357 0)
(1.3610463 -0.0045563966 0)
(1.3685975 -0.0042470707 0)
(1.3756004 -0.0039617767 0)
(1.3821012 -0.0036973984 0)
(1.3881402 -0.0034515835 0)
(1.3937533 -0.0032225197 0)
(1.3989728 -0.003008771 0)
(1.403828 -0.0028091589 0)
(1.4083456 -0.0026226798 0)
(1.4125503 -0.0024484501 0)
(1.4164646 -0.002285671 0)
(1.4201094 -0.0021336078 0)
(1.423504 -0.0019915765 0)
(1.426666 -0.0018589367 0)
(1.4296121 -0.0017350866 0)
(1.4323573 -0.0016194597 0)
(1.4349158 -0.0015115229 0)
(1.4373007 -0.0014107745 0)
(1.439524 -0.0013167434 0)
(1.441597 -0.001228987 0)
(1.4435301 -0.0011470906 0)
(1.4453328 -0.001070666 0)
(1.4470143 -0.00099934931 0)
(1.4485827 -0.00093280021 0)
(1.4500459 -0.00087070034 0)
(1.451411 -0.00081275201 0)
(1.4526846 -0.00075867706 0)
(1.4538731 -0.00070821583 0)
(1.4549821 -0.00066112604 0)
(1.4560171 -0.00061718145 0)
(1.4569831 -0.00057617124 0)
(1.4578847 -0.00053789905 0)
(1.4587262 -0.00050218151 0)
(1.4595117 -0.00046884705 0)
(1.460245 -0.0004377355 0)
(1.4609295 -0.00040869738 0)
(1.4615685 -0.00038159349 0)
(1.4621651 -0.00035629414 0)
(1.4627221 -0.00033267883 0)
(1.4632422 -0.0003106349 0)
(1.4637278 -0.00029005746 0)
(1.4641811 -0.00027084877 0)
(1.4646045 -0.00025291737 0)
(1.4649998 -0.00023617752 0)
(1.4653689 -0.00022054915 0)
(1.4657136 -0.00020595795 0)
(1.4660355 -0.00019233424 0)
(1.4663361 -0.00017961356 0)
(1.4666168 -0.00016773605 0)
(1.466879 -0.00015664615 0)
(1.4671238 -0.00014629157 0)
(1.4673524 -0.00013662461 0)
(1.467566 -0.00012759865 0)
(1.4677654 -0.00011917131 0)
(1.4679516 -0.00011130062 0)
(1.4681255 -0.00010395067 0)
(1.4682881 -9.7083854e-05 0)
(1.4684398 -9.0671813e-05 0)
(1.4685814 -8.4681714e-05 0)
(1.4687138 -7.9092096e-05 0)
(1.4688376 -7.38692e-05 0)
(1.4689528 -6.8999903e-05 0)
(1.4690607 -6.4444638e-05 0)
(1.4691615 -6.020061e-05 0)
(1.4692558 -5.6218362e-05 0)
(1.4693432 -5.2519275e-05 0)
(1.4694256 -4.9036804e-05 0)
(1.4695021 -4.5823698e-05 0)
(1.4695742 -4.2761823e-05 0)
(1.46964 -3.9983572e-05 0)
(1.4697037 -3.7297816e-05 0)
(1.4697608 -3.4930363e-05 0)
(1.4698173 -3.2514027e-05 0)
(1.4698651 -3.0513614e-05 0)
(1.4699166 -2.8304402e-05 0)
(1.4699562 -2.6706537e-05 0)
(1.4700046 -2.4626152e-05 0)
(1.4700339 -2.3494265e-05 0)
(1.4700831 -2.1431418e-05 0)
(1.4701001 -2.0820379e-05 0)
(1.4701557 -1.8660731e-05 0)
(1.0007347 -0.011814722 0)
(1.0178472 -0.030860927 0)
(1.0462163 -0.041434442 0)
(1.0799018 -0.04519357 0)
(1.1132664 -0.045502351 0)
(1.143782 -0.044080308 0)
(1.1708941 -0.041439982 0)
(1.1945687 -0.037973678 0)
(1.2148582 -0.03419573 0)
(1.2319652 -0.030536888 0)
(1.2462683 -0.027222046 0)
(1.2582339 -0.024313921 0)
(1.2683135 -0.021797888 0)
(1.2768875 -0.01963366 0)
(1.2842554 -0.017773827 0)
(1.2906479 -0.016169652 0)
(1.296243 -0.01477559 0)
(1.3011791 -0.013552298 0)
(1.3055645 -0.012467864 0)
(1.3094838 -0.011497466 0)
(1.3130042 -0.010622162 0)
(1.3161792 -0.0098275135 0)
(1.3190526 -0.0091024113 0)
(1.3216607 -0.0084381771 0)
(1.3240343 -0.0078279044 0)
(1.3261995 -0.0072659751 0)
(1.3281786 -0.0067477093 0)
(1.3299913 -0.0062691172 0)
(1.3316544 -0.0058267278 0)
(1.3331829 -0.0054174736 0)
(1.3345896 -0.0050386125 0)
(1.3358862 -0.004687674 0)
(1.3370827 -0.0043624198 0)
(1.3381882 -0.004060815 0)
(1.3392108 -0.0037810049 0)
(1.3401576 -0.0035212959 0)
(1.3410349 -0.0032801394 0)
(1.3418486 -0.0030561182 0)
(1.3426038 -0.0028479342 0)
(1.3433051 -0.0026543973 0)
(1.3439569 -0.0024744154 0)
(1.3445629 -0.0023069856 0)
(1.3451267 -0.0021511857 0)
(1.3456513 -0.0020061674 0)
(1.3461398 -0.0018711492 0)
(1.3465947 -0.0017454112 0)
(1.3470185 -0.0016282892 0)
(1.3474135 -0.0015191701 0)
(1.3477816 -0.0014174876 0)
(1.3481249 -0.0013227185 0)
(1.3484449 -0.0012343784 0)
(1.3487435 -0.0011520184 0)
(1.349022 -0.0010752227 0)
(1.3492818 -0.0010036053 0)
(1.3495242 -0.00093680888 0)
(1.3497505 -0.00087450193 0)
(1.3499616 -0.00081637717 0)
(1.3501587 -0.00076214894 0)
(1.3503427 -0.00071155185 0)
(1.3505145 -0.00066433901 0)
(1.3506748 -0.00062028084 0)
(1.3508245 -0.00057916344 0)
(1.3509643 -0.00054078774 0)
(1.3510948 -0.00050496816 0)
(1.3512167 -0.00047153226 0)
(1.3513305 -0.00044031951 0)
(1.3514368 -0.00041118144 0)
(1.3515361 -0.00038397913 0)
(1.3516288 -0.0003585844 0)
(1.3517153 -0.00033487603 0)
(1.3517962 -0.00031274219 0)
(1.3518717 -0.00029207547 0)
(1.3519422 -0.00027277866 0)
(1.3520081 -0.00025475725 0)
(1.3520696 -0.00023792922 0)
(1.3521271 -0.00022221126 0)
(1.3521807 -0.00020753719 0)
(1.3522309 -0.00019383047 0)
(1.3522777 -0.00018103915 0)
(1.3523215 -0.00016908695 0)
(1.3523622 -0.0001579378 0)
(1.3524005 -0.0001475084 0)
(1.3524361 -0.00013778838 0)
(1.3524695 -0.00012867609 0)
(1.3525003 -0.00012020721 0)
(1.3525296 -0.0001122433 0)
(1.3525566 -0.0001048817 0)
(1.3525822 -9.789392e-05 0)
(1.3526053 -9.1527721e-05 0)
(1.3526282 -8.5396899e-05 0)
(1.352648 -7.9929073e-05 0)
(1.3526683 -7.4429054e-05 0)
(1.3526849 -6.9807953e-05 0)
(1.3527037 -6.4830831e-05 0)
(1.3527171 -6.1120481e-05 0)
(1.3527348 -5.6443812e-05 0)
(1.3527446 -5.3746419e-05 0)
(1.3527628 -4.9143493e-05 0)
(1.3527683 -4.7703479e-05 0)
(1.3527888 -4.2959685e-05 0)
(1.0014244 -0.026824855 0)
(1.0291272 -0.062791352 0)
(1.0654292 -0.077736552 0)
(1.098962 -0.0805972 0)
(1.1253149 -0.07828517 0)
(1.145053 -0.073153899 0)
(1.1594858 -0.066111278 0)
(1.1694287 -0.058162063 0)
(1.1755354 -0.050296754 0)
(1.1785738 -0.043150708 0)
(1.1793571 -0.036972825 0)
(1.1785949 -0.031771633 0)
(1.1768304 -0.02745184 0)
(1.1744518 -0.023886768 0)
(1.1717287 -0.02094762 0)
(1.1688444 -0.01851578 0)
(1.1659195 -0.016488084 0)
(1.1630317 -0.014779502 0)
(1.1602295 -0.013322985 0)
(1.1575415 -0.012067133 0)
(1.1549828 -0.010973001 0)
(1.1525601 -0.010011062 0)
(1.1502747 -0.0091587472 0)
(1.1481246 -0.0083986045 0)
(1.1461059 -0.0077169507 0)
(1.1442134 -0.0071028881 0)
(1.1424414 -0.0065475916 0)
(1.1407838 -0.006043795 0)
(1.1392344 -0.0055854258 0)
(1.1377869 -0.0051673446 0)
(1.1364353 -0.0047851573 0)
(1.1351738 -0.0044350767 0)
(1.1339968 -0.0041138175 0)
(1.1328987 -0.0038185136 0)
(1.1318746 -0.0035466535 0)
(1.1309195 -0.0032960275 0)
(1.1300289 -0.0030646833 0)
(1.1291985 -0.0028508905 0)
(1.1284242 -0.0026531098 0)
(1.1277022 -0.002469968 0)
(1.1270291 -0.0023002351 0)
(1.1264014 -0.0021428068 0)
(1.1258161 -0.0019966885 0)
(1.1252702 -0.0018609817 0)
(1.1247612 -0.0017348725 0)
(1.1242865 -0.0016176222 0)
(1.1238437 -0.0015085586 0)
(1.1234307 -0.0014070683 0)
(1.1230455 -0.001312591 0)
(1.1226861 -0.0012246133 0)
(1.1223509 -0.0011426632 0)
(1.1220381 -0.0010663068 0)
(1.1217462 -0.00099514464 0)
(1.1214739 -0.00092880819 0)
(1.1212198 -0.0008669578 0)
(1.1209827 -0.00080928018 0)
(1.1207614 -0.00075548579 0)
(1.1205548 -0.00070530624 0)
(1.1203621 -0.00065849316 0)
(1.1201821 -0.00061481618 0)
(1.1200142 -0.00057406073 0)
(1.1198574 -0.0005360273 0)
(1.1197111 -0.00050053069 0)
(1.1195745 -0.00046739831 0)
(1.1194469 -0.00043646966 0)
(1.1193278 -0.00040759607 0)
(1.1192167 -0.00038064046 0)
(1.1191129 -0.00035547473 0)
(1.119016 -0.00033198066 0)
(1.1189255 -0.00031004669 0)
(1.118841 -0.00028956862 0)
(1.1187621 -0.00027044701 0)
(1.1186884 -0.00025259149 0)
(1.1186197 -0.00023591452 0)
(1.1185554 -0.00022033995 0)
(1.1184954 -0.00020579194 0)
(1.1184394 -0.00019220868 0)
(1.1183871 -0.000179521 0)
(1.1183383 -0.00016767907 0)
(1.1182927 -0.0001566153 0)
(1.11825 -0.0001462925 0)
(1.1182103 -0.00013663926 0)
(1.1181731 -0.00012763794 0)
(1.1181384 -0.00011920611 0)
(1.1181059 -0.00011135958 0)
(1.1180758 -0.00010398921 0)
(1.1180473 -9.7155905e-05 0)
(1.1180211 -9.0705002e-05 0)
(1.1179963 -8.4791788e-05 0)
(1.1179734 -7.9137515e-05 0)
(1.1179516 -7.4019705e-05 0)
(1.1179318 -6.899068e-05 0)
(1.1179128 -6.4648309e-05 0)
(1.1178955 -6.0157539e-05 0)
(1.117879 -5.6584323e-05 0)
(1.1178635 -5.2431948e-05 0)
(1.11785 -4.9737666e-05 0)
(1.1178349 -4.5800199e-05 0)
(1.1178261 -4.4313382e-05 0)
(1.1178083 -4.0569985e-05 0)
(1.0016583 -0.05381943 0)
(1.0359761 -0.10128444 0)
(1.0597199 -0.11073663 0)
(1.0628947 -0.10592202 0)
(1.0515569 -0.096228728 0)
(1.0340529 -0.083934061 0)
(1.0142795 -0.070327063 0)
(0.99360703 -0.056981334 0)
(0.97292577 -0.045107479 0)
(0.9531074 -0.03523675 0)
(0.93479538 -0.02740165 0)
(0.91829012 -0.021387228 0)
(0.90362379 -0.0168845 0)
(0.89068067 -0.01356971 0)
(0.87928174 -0.011147749 0)
(0.86923242 -0.0093736586 0)
(0.86034423 -0.0080569274 0)
(0.85244667 -0.0070571267 0)
(0.84539241 -0.006275238 0)
(0.83905793 -0.0056438286 0)
(0.83334126 -0.0051180914 0)
(0.82815884 -0.0046686728 0)
(0.82344212 -0.0042764176 0)
(0.81913467 -0.0039287387 0)
(0.81518961 -0.0036172031 0)
(0.81156765 -0.0033359698 0)
(0.80823544 -0.0030808033 0)
(0.8051644 -0.0028484682 0)
(0.80232979 -0.0026363689 0)
(0.79970999 -0.0024423385 0)
(0.79728597 -0.0022645191 0)
(0.79504086 -0.0021012904 0)
(0.79295963 -0.0019512259 0)
(0.7910288 -0.0018130634 0)
(0.78923627 -0.0016856837 0)
(0.7875711 -0.0015680924 0)
(0.78602338 -0.0014594054 0)
(0.78458411 -0.0013588354 0)
(0.78324511 -0.00126568 0)
(0.78199889 -0.0011793116 0)
(0.7808386 -0.0010991673 0)
(0.77975799 -0.0010247416 0)
(0.77875127 -0.00095557926 0)
(0.77781317 -0.00089126875 0)
(0.77693881 -0.00083143738 0)
(0.77612367 -0.00077574671 0)
(0.77536362 -0.00072388849 0)
(0.77465481 -0.00067558151 0)
(0.77399367 -0.00063056838 0)
(0.77337693 -0.00058861242 0)
(0.77280153 -0.00054949565 0)
(0.77226464 -0.00051301718 0)
(0.77176363 -0.00047899174 0)
(0.77129606 -0.00044724819 0)
(0.77085967 -0.00041762877 0)
(0.77045234 -0.00038998791 0)
(0.77007212 -0.00036419058 0)
(0.76971717 -0.00034011168 0)
(0.76938581 -0.00031763542 0)
(0.76907644 -0.00029665378 0)
(0.7687876 -0.00027706567 0)
(0.76851791 -0.00025877682 0)
(0.76826609 -0.00024169959 0)
(0.76803096 -0.00022575193 0)
(0.76781139 -0.00021085783 0)
(0.76760635 -0.00019694721 0)
(0.76741489 -0.0001839555 0)
(0.76723608 -0.0001718226 0)
(0.7670691 -0.00016049284 0)
(0.76691316 -0.00014991307 0)
(0.76676752 -0.00014003345 0)
(0.7666315 -0.00013080587 0)
(0.76650446 -0.00012218664 0)
(0.76638582 -0.00011413339 0)
(0.76627501 -0.00010660974 0)
(0.76617152 -9.9579913e-05 0)
(0.76607486 -9.3014794e-05 0)
(0.76598459 -8.6881941e-05 0)
(0.76590026 -8.1157599e-05 0)
(0.76582151 -7.5809281e-05 0)
(0.76574794 -7.0819061e-05 0)
(0.76567924 -6.6152797e-05 0)
(0.76561504 -6.1799843e-05 0)
(0.76555512 -5.7722342e-05 0)
(0.76549911 -5.3925552e-05 0)
(0.76544685 -5.0358072e-05 0)
(0.76539796 -4.7043928e-05 0)
(0.76535239 -4.3930044e-05 0)
(0.76530971 -4.1069256e-05 0)
(0.76526996 -3.8332717e-05 0)
(0.7652327 -3.5828678e-05 0)
(0.76519805 -3.3433356e-05 0)
(0.76516559 -3.1318535e-05 0)
(0.76513517 -2.9204087e-05 0)
(0.7651071 -2.7385911e-05 0)
(0.76507997 -2.5524374e-05 0)
(0.76505664 -2.4063665e-05 0)
(0.76503057 -2.2544999e-05 0)
(0.76501445 -2.158775e-05 0)
(0.76498347 -2.0985032e-05 0)
(0.91890839 -0.035821913 0)
(0.86271384 -0.062195638 0)
(0.7870597 -0.06251009 0)
(0.69536033 -0.054550395 0)
(0.61089745 -0.044531651 0)
(0.54411592 -0.034015972 0)
(0.49343012 -0.02418754 0)
(0.45479413 -0.01614423 0)
(0.42544582 -0.010265785 0)
(0.40347313 -0.006304145 0)
(0.38715766 -0.0037976294 0)
(0.3749622 -0.0023103384 0)
(0.36566192 -0.0014930154 0)
(0.35836272 -0.0010851186 0)
(0.35244268 -0.0009060723 0)
(0.34748201 -0.00084105135 0)
(0.34320348 -0.00082372362 0)
(0.33942726 -0.00081931007 0)
(0.33603793 -0.00081185199 0)
(0.33296114 -0.00079580153 0)
(0.33014778 -0.00077081194 0)
(0.32756384 -0.00073870994 0)
(0.3251842 -0.00070188955 0)
(0.32298902 -0.00066256563 0)
(0.32096172 -0.00062249931 0)
(0.31908785 -0.00058295704 0)
(0.31735449 -0.00054477116 0)
(0.31574995 -0.00050843392 0)
(0.3142636 -0.00047419168 0)
(0.31288574 -0.00044212494 0)
(0.31160755 -0.0004122099 0)
(0.31042101 -0.00038436204 0)
(0.30931883 -0.00035846518 0)
(0.30829438 -0.00033439022 0)
(0.30734165 -0.00031200633 0)
(0.30645515 -0.00029118713 0)
(0.30562991 -0.00027181379 0)
(0.30486136 -0.00025377647 0)
(0.30414535 -0.00023697438 0)
(0.30347807 -0.00022131524 0)
(0.302856 -0.00020671481 0)
(0.30227596 -0.0001930962 0)
(0.30173496 -0.00018038905 0)
(0.30123029 -0.00016852893 0)
(0.30075942 -0.00015745673 0)
(0.30032002 -0.00014711813 0)
(0.29990993 -0.000137463 0)
(0.29952715 -0.00012844517 0)
(0.29916983 -0.00012002175 0)
(0.29883624 -0.00011215263 0)
(0.29852478 -0.00010480049 0)
(0.29823396 -9.7930701e-05 0)
(0.29796241 -9.1511038e-05 0)
(0.29770882 -8.5511613e-05 0)
(0.29747201 -7.9904853e-05 0)
(0.29725084 -7.4665171e-05 0)
(0.29704429 -6.976858e-05 0)
(0.29685138 -6.5192821e-05 0)
(0.2966712 -6.0917179e-05 0)
(0.29650291 -5.6921939e-05 0)
(0.29634572 -5.3188427e-05 0)
(0.2961989 -4.9699234e-05 0)
(0.29606176 -4.6438108e-05 0)
(0.29593366 -4.3389762e-05 0)
(0.29581401 -4.0540318e-05 0)
(0.29570224 -3.7877187e-05 0)
(0.29559784 -3.5388644e-05 0)
(0.29550032 -3.3063713e-05 0)
(0.29540922 -3.0892067e-05 0)
(0.29532413 -2.8863465e-05 0)
(0.29524464 -2.6968227e-05 0)
(0.29517039 -2.5197009e-05 0)
(0.29510103 -2.3541358e-05 0)
(0.29503624 -2.1993206e-05 0)
(0.29497573 -2.0546077e-05 0)
(0.29491919 -1.9193524e-05 0)
(0.29486638 -1.793037e-05 0)
(0.29481705 -1.6750441e-05 0)
(0.29477097 -1.5649382e-05 0)
(0.29472793 -1.4620438e-05 0)
(0.29468771 -1.3660394e-05 0)
(0.29465016 -1.2762073e-05 0)
(0.29461507 -1.1923775e-05 0)
(0.2945823 -1.1137515e-05 0)
(0.29455168 -1.0405459e-05 0)
(0.29452309 -9.7161659e-06 0)
(0.29449637 -9.0770713e-06 0)
(0.29447142 -8.4790022e-06 0)
(0.29444808 -7.9300799e-06 0)
(0.29442632 -7.3961197e-06 0)
(0.29440599 -6.9097794e-06 0)
(0.294387 -6.4602745e-06 0)
(0.2943692 -6.0628214e-06 0)
(0.29435259 -5.6565946e-06 0)
(0.29433715 -5.2937182e-06 0)
(0.2943225 -4.9715983e-06 0)
(0.29430919 -4.6856381e-06 0)
(0.29429569 -4.5322805e-06 0)
(0.29428502 -4.4001625e-06 0)
(0.29426875 -5.053627e-06 0)
)
;

boundaryField
{
    top
    {
        type            fixedValue;
        value           uniform (0 0 0);
    }
    inlet
    {
        type            fixedValue;
        value           uniform (1 0 0);
    }
    outlet
    {
        type            zeroGradient;
    }
    bottom
    {
        type            fixedValue;
        value           uniform (0 0 0);
    }
    back
    {
        type            empty;
    }
    front
    {
        type            empty;
    }
}


// ************************************************************************* //
