# Region type : patch outlet
# Faces         : 10
# Area          : 1.00000000e-01
# Scale factor  : 1.00000000e+00
# Time          	max(U)	max(p)
0.05            	(1.01908269e+00 1.75609413e-04 0.00000000e+00)	0.00000000e+00
0.1             	(1.09094970e+00 1.62977562e-03 0.00000000e+00)	0.00000000e+00
0.15            	(1.07069475e+00 2.97973059e-04 0.00000000e+00)	0.00000000e+00
0.2             	(1.08516061e+00 1.53323962e-04 0.00000000e+00)	0.00000000e+00
0.25            	(1.09380543e+00 3.94414762e-04 0.00000000e+00)	0.00000000e+00
0.3             	(1.10382788e+00 6.23965775e-04 0.00000000e+00)	0.00000000e+00
0.35            	(1.11403572e+00 8.19559969e-04 0.00000000e+00)	0.00000000e+00
0.4             	(1.12444622e+00 9.41027762e-04 0.00000000e+00)	0.00000000e+00
0.45            	(1.13488934e+00 9.85958003e-04 0.00000000e+00)	0.00000000e+00
0.5             	(1.14528117e+00 9.65110605e-04 0.00000000e+00)	0.00000000e+00
0.55            	(1.15554670e+00 8.94209835e-04 0.00000000e+00)	0.00000000e+00
0.6             	(1.16562947e+00 7.90698665e-04 0.00000000e+00)	0.00000000e+00
0.65            	(1.17548808e+00 6.70857462e-04 0.00000000e+00)	0.00000000e+00
0.7             	(1.18509376e+00 5.48168022e-04 0.00000000e+00)	0.00000000e+00
0.75            	(1.19442808e+00 4.32244446e-04 0.00000000e+00)	0.00000000e+00
0.8             	(1.20348211e+00 3.29314704e-04 0.00000000e+00)	0.00000000e+00
0.85            	(1.21225326e+00 2.42918965e-04 0.00000000e+00)	0.00000000e+00
0.9             	(1.22074388e+00 1.83051916e-04 0.00000000e+00)	0.00000000e+00
0.95            	(1.22895999e+00 1.40683232e-04 0.00000000e+00)	0.00000000e+00
1               	(1.23690999e+00 1.06169917e-04 0.00000000e+00)	0.00000000e+00
1.05            	(1.24460275e+00 7.87933903e-05 0.00000000e+00)	0.00000000e+00
1.1             	(1.25204852e+00 5.76049733e-05 0.00000000e+00)	0.00000000e+00
1.15            	(1.25925721e+00 4.15682436e-05 0.00000000e+00)	0.00000000e+00
1.2             	(1.26623829e+00 2.96606349e-05 0.00000000e+00)	0.00000000e+00
1.25            	(1.27300062e+00 2.09636576e-05 0.00000000e+00)	0.00000000e+00
1.3             	(1.27955242e+00 1.46873372e-05 0.00000000e+00)	0.00000000e+00
1.35            	(1.28590110e+00 1.01781714e-05 0.00000000e+00)	0.00000000e+00
1.4             	(1.29205352e+00 7.44301330e-06 0.00000000e+00)	0.00000000e+00
1.45            	(1.29801591e+00 5.63711998e-06 0.00000000e+00)	0.00000000e+00
1.5             	(1.30379401e+00 4.00621537e-06 0.00000000e+00)	0.00000000e+00
1.55            	(1.30939323e+00 2.59282730e-06 0.00000000e+00)	0.00000000e+00
1.6             	(1.31481853e+00 1.31970905e-06 0.00000000e+00)	0.00000000e+00
1.65            	(1.32007489e+00 1.58161801e-06 0.00000000e+00)	0.00000000e+00
1.7             	(1.32516678e+00 2.45760476e-06 0.00000000e+00)	0.00000000e+00
1.75            	(1.33009869e+00 3.20110380e-06 0.00000000e+00)	0.00000000e+00
1.8             	(1.33487495e+00 3.82063641e-06 0.00000000e+00)	0.00000000e+00
1.85            	(1.33949977e+00 4.31150306e-06 0.00000000e+00)	0.00000000e+00
1.9             	(1.34397726e+00 4.67549430e-06 0.00000000e+00)	0.00000000e+00
1.95            	(1.34831145e+00 4.92600643e-06 0.00000000e+00)	0.00000000e+00
2               	(1.35250628e+00 5.07811412e-06 0.00000000e+00)	0.00000000e+00
2.05            	(1.35656562e+00 5.14884866e-06 0.00000000e+00)	0.00000000e+00
2.1             	(1.36049326e+00 5.15468738e-06 0.00000000e+00)	0.00000000e+00
2.15            	(1.36429293e+00 5.11082123e-06 0.00000000e+00)	0.00000000e+00
2.2             	(1.36796827e+00 5.03001406e-06 0.00000000e+00)	0.00000000e+00
2.25            	(1.37152286e+00 4.92271861e-06 0.00000000e+00)	0.00000000e+00
2.3             	(1.37496020e+00 4.79705514e-06 0.00000000e+00)	0.00000000e+00
2.35            	(1.37828372e+00 4.65924903e-06 0.00000000e+00)	0.00000000e+00
2.4             	(1.38149678e+00 4.51394621e-06 0.00000000e+00)	0.00000000e+00
2.45            	(1.38460267e+00 4.36454886e-06 0.00000000e+00)	0.00000000e+00
2.5             	(1.38760461e+00 4.21353446e-06 0.00000000e+00)	0.00000000e+00
2.55            	(1.39050573e+00 4.06271065e-06 0.00000000e+00)	0.00000000e+00
2.6             	(1.39330911e+00 3.91339981e-06 0.00000000e+00)	0.00000000e+00
2.65            	(1.39601775e+00 3.76656928e-06 0.00000000e+00)	0.00000000e+00
2.7             	(1.39863458e+00 3.62293466e-06 0.00000000e+00)	0.00000000e+00
2.75            	(1.40116247e+00 3.48302190e-06 0.00000000e+00)	0.00000000e+00
2.8             	(1.40360423e+00 3.34681068e-06 0.00000000e+00)	0.00000000e+00
2.85            	(1.40596254e+00 3.21626570e-06 0.00000000e+00)	0.00000000e+00
2.9             	(1.40824005e+00 3.08986148e-06 0.00000000e+00)	0.00000000e+00
2.95            	(1.41043937e+00 2.96860511e-06 0.00000000e+00)	0.00000000e+00
3               	(1.41256300e+00 2.85331019e-06 0.00000000e+00)	0.00000000e+00
3.05            	(1.41461340e+00 2.74343144e-06 0.00000000e+00)	0.00000000e+00
3.1             	(1.41659295e+00 2.63853711e-06 0.00000000e+00)	0.00000000e+00
3.15            	(1.41850395e+00 2.53824106e-06 0.00000000e+00)	0.00000000e+00
3.2             	(1.42034867e+00 2.44218113e-06 0.00000000e+00)	0.00000000e+00
3.25            	(1.42212928e+00 2.35000987e-06 0.00000000e+00)	0.00000000e+00
3.3             	(1.42384792e+00 2.26142269e-06 0.00000000e+00)	0.00000000e+00
3.35            	(1.42550664e+00 2.17616968e-06 0.00000000e+00)	0.00000000e+00
3.4             	(1.42710744e+00 2.09405332e-06 0.00000000e+00)	0.00000000e+00
3.45            	(1.42865228e+00 2.01492198e-06 0.00000000e+00)	0.00000000e+00
3.5             	(1.43014302e+00 1.93865974e-06 0.00000000e+00)	0.00000000e+00
3.55            	(1.43158150e+00 1.86517654e-06 0.00000000e+00)	0.00000000e+00
3.6             	(1.43296949e+00 1.79439928e-06 0.00000000e+00)	0.00000000e+00
3.65            	(1.43430870e+00 1.72626325e-06 0.00000000e+00)	0.00000000e+00
3.7             	(1.43560080e+00 1.66070654e-06 0.00000000e+00)	0.00000000e+00
3.75            	(1.43684739e+00 1.59766590e-06 0.00000000e+00)	0.00000000e+00
3.8             	(1.43805004e+00 1.53707422e-06 0.00000000e+00)	0.00000000e+00
3.85            	(1.43921025e+00 1.47885991e-06 0.00000000e+00)	0.00000000e+00
3.9             	(1.44032948e+00 1.42294685e-06 0.00000000e+00)	0.00000000e+00
3.95            	(1.44140915e+00 1.36925524e-06 0.00000000e+00)	0.00000000e+00
4               	(1.44245062e+00 1.31770274e-06 0.00000000e+00)	0.00000000e+00
4.05            	(1.44345522e+00 1.26820570e-06 0.00000000e+00)	0.00000000e+00
4.1             	(1.44442423e+00 1.22068048e-06 0.00000000e+00)	0.00000000e+00
4.15            	(1.44535888e+00 1.17504435e-06 0.00000000e+00)	0.00000000e+00
4.2             	(1.44626038e+00 1.13121656e-06 0.00000000e+00)	0.00000000e+00
4.25            	(1.44712987e+00 1.08911881e-06 0.00000000e+00)	0.00000000e+00
4.3             	(1.44796847e+00 1.04867563e-06 0.00000000e+00)	0.00000000e+00
4.35            	(1.44877728e+00 1.00981494e-06 0.00000000e+00)	0.00000000e+00
4.4             	(1.44955732e+00 9.72467744e-07 0.00000000e+00)	0.00000000e+00
4.45            	(1.45030961e+00 9.36568541e-07 0.00000000e+00)	0.00000000e+00
4.5             	(1.45103512e+00 9.02055013e-07 0.00000000e+00)	0.00000000e+00
4.55            	(1.45173480e+00 8.68867942e-07 0.00000000e+00)	0.00000000e+00
4.6             	(1.45240956e+00 8.36951245e-07 0.00000000e+00)	0.00000000e+00
4.65            	(1.45306026e+00 8.06251515e-07 0.00000000e+00)	0.00000000e+00
4.7             	(1.45368777e+00 7.76718125e-07 0.00000000e+00)	0.00000000e+00
4.75            	(1.45429290e+00 7.48302968e-07 0.00000000e+00)	0.00000000e+00
4.8             	(1.45487644e+00 7.20960226e-07 0.00000000e+00)	0.00000000e+00
4.85            	(1.45543915e+00 6.94646320e-07 0.00000000e+00)	0.00000000e+00
4.9             	(1.45598177e+00 6.69319776e-07 0.00000000e+00)	0.00000000e+00
4.95            	(1.45650502e+00 6.44941067e-07 0.00000000e+00)	0.00000000e+00
5               	(1.45700957e+00 6.21472427e-07 0.00000000e+00)	0.00000000e+00
5.05            	(1.45749610e+00 5.98877879e-07 0.00000000e+00)	0.00000000e+00
5.1             	(1.45796524e+00 5.77123078e-07 0.00000000e+00)	0.00000000e+00
5.15            	(1.45841762e+00 5.56175159e-07 0.00000000e+00)	0.00000000e+00
5.2             	(1.45885381e+00 5.36002792e-07 0.00000000e+00)	0.00000000e+00
5.25            	(1.45927441e+00 5.16575938e-07 0.00000000e+00)	0.00000000e+00
5.3             	(1.45968005e+00 4.93360955e-07 0.00000000e+00)	0.00000000e+00
5.35            	(1.46007107e+00 4.75461753e-07 0.00000000e+00)	0.00000000e+00
5.4             	(1.46044814e+00 4.55632228e-07 0.00000000e+00)	0.00000000e+00
5.45            	(1.46081167e+00 4.37464470e-07 0.00000000e+00)	0.00000000e+00
5.5             	(1.46116222e+00 4.18171437e-07 0.00000000e+00)	0.00000000e+00
5.55            	(1.46150020e+00 3.99943284e-07 0.00000000e+00)	0.00000000e+00
5.6             	(1.46182609e+00 3.81926778e-07 0.00000000e+00)	0.00000000e+00
5.65            	(1.46214031e+00 3.64675358e-07 0.00000000e+00)	0.00000000e+00
5.7             	(1.46244328e+00 3.48338137e-07 0.00000000e+00)	0.00000000e+00
5.75            	(1.46273539e+00 3.32863896e-07 0.00000000e+00)	0.00000000e+00
5.8             	(1.46301705e+00 3.18315007e-07 0.00000000e+00)	0.00000000e+00
5.85            	(1.46328860e+00 3.04869272e-07 0.00000000e+00)	0.00000000e+00
5.9             	(1.46355044e+00 2.92087511e-07 0.00000000e+00)	0.00000000e+00
5.95            	(1.46380289e+00 2.80430432e-07 0.00000000e+00)	0.00000000e+00
6               	(1.46404629e+00 2.69344287e-07 0.00000000e+00)	0.00000000e+00
6.05            	(1.46428097e+00 2.59056046e-07 0.00000000e+00)	0.00000000e+00
6.1             	(1.46450724e+00 2.49496070e-07 0.00000000e+00)	0.00000000e+00
6.15            	(1.46472540e+00 2.40303583e-07 0.00000000e+00)	0.00000000e+00
6.2             	(1.46493573e+00 2.31963430e-07 0.00000000e+00)	0.00000000e+00
6.25            	(1.46513853e+00 2.23534641e-07 0.00000000e+00)	0.00000000e+00
6.3             	(1.46533406e+00 2.15741852e-07 0.00000000e+00)	0.00000000e+00
6.35            	(1.46552257e+00 2.08574262e-07 0.00000000e+00)	0.00000000e+00
6.4             	(1.46570433e+00 2.01727446e-07 0.00000000e+00)	0.00000000e+00
6.45            	(1.46587956e+00 1.95920504e-07 0.00000000e+00)	0.00000000e+00
6.5             	(1.46604851e+00 1.92763781e-07 0.00000000e+00)	0.00000000e+00
6.55            	(1.46621139e+00 1.91124529e-07 0.00000000e+00)	0.00000000e+00
6.6             	(1.46636843e+00 1.90434271e-07 0.00000000e+00)	0.00000000e+00
6.65            	(1.46651984e+00 1.91345839e-07 0.00000000e+00)	0.00000000e+00
6.7             	(1.46666580e+00 1.93989639e-07 0.00000000e+00)	0.00000000e+00
6.75            	(1.46680654e+00 1.98306893e-07 0.00000000e+00)	0.00000000e+00
6.8             	(1.46694220e+00 2.05331000e-07 0.00000000e+00)	0.00000000e+00
6.85            	(1.46707300e+00 2.14485230e-07 0.00000000e+00)	0.00000000e+00
6.9             	(1.46719910e+00 2.34963212e-07 0.00000000e+00)	0.00000000e+00
6.95            	(1.46732065e+00 2.60694393e-07 0.00000000e+00)	0.00000000e+00
7               	(1.46743785e+00 2.91810894e-07 0.00000000e+00)	0.00000000e+00
7.05            	(1.46755080e+00 3.29123882e-07 0.00000000e+00)	0.00000000e+00
7.1             	(1.46765971e+00 3.72639019e-07 0.00000000e+00)	0.00000000e+00
7.15            	(1.46776467e+00 4.24396382e-07 0.00000000e+00)	0.00000000e+00
7.2             	(1.46786584e+00 4.83910773e-07 0.00000000e+00)	0.00000000e+00
7.25            	(1.46796338e+00 5.53198392e-07 0.00000000e+00)	0.00000000e+00
7.3             	(1.46805735e+00 6.32814450e-07 0.00000000e+00)	0.00000000e+00
7.35            	(1.46814795e+00 7.23377283e-07 0.00000000e+00)	0.00000000e+00
7.4             	(1.46823523e+00 8.27208242e-07 0.00000000e+00)	0.00000000e+00
7.45            	(1.46831934e+00 9.43661917e-07 0.00000000e+00)	0.00000000e+00
7.5             	(1.46840039e+00 1.07566279e-06 0.00000000e+00)	0.00000000e+00
7.55            	(1.46847846e+00 1.22315876e-06 0.00000000e+00)	0.00000000e+00
7.6             	(1.46855369e+00 1.38755922e-06 0.00000000e+00)	0.00000000e+00
7.65            	(1.46862612e+00 1.57099182e-06 0.00000000e+00)	0.00000000e+00
7.7             	(1.46869590e+00 1.77270946e-06 0.00000000e+00)	0.00000000e+00
7.75            	(1.46876308e+00 1.99624530e-06 0.00000000e+00)	0.00000000e+00
7.8             	(1.46882774e+00 2.24056083e-06 0.00000000e+00)	0.00000000e+00
7.85            	(1.46889002e+00 2.50797274e-06 0.00000000e+00)	0.00000000e+00
7.9             	(1.46894990e+00 2.79953999e-06 0.00000000e+00)	0.00000000e+00
7.95            	(1.46900756e+00 3.11482903e-06 0.00000000e+00)	0.00000000e+00
8               	(1.46906300e+00 3.45694392e-06 0.00000000e+00)	0.00000000e+00
8.05            	(1.46911631e+00 3.82414175e-06 0.00000000e+00)	0.00000000e+00
8.1             	(1.46916758e+00 4.21899543e-06 0.00000000e+00)	0.00000000e+00
8.15            	(1.46921682e+00 4.64113960e-06 0.00000000e+00)	0.00000000e+00
8.2             	(1.46926415e+00 5.09055301e-06 0.00000000e+00)	0.00000000e+00
8.25            	(1.46930959e+00 5.56889451e-06 0.00000000e+00)	0.00000000e+00
8.3             	(1.46935322e+00 6.07428224e-06 0.00000000e+00)	0.00000000e+00
8.35            	(1.46939509e+00 6.60846828e-06 0.00000000e+00)	0.00000000e+00
8.4             	(1.46943523e+00 7.17003361e-06 0.00000000e+00)	0.00000000e+00
8.45            	(1.46947373e+00 7.75881830e-06 0.00000000e+00)	0.00000000e+00
8.5             	(1.46951061e+00 8.37489252e-06 0.00000000e+00)	0.00000000e+00
8.55            	(1.46954594e+00 9.01629872e-06 0.00000000e+00)	0.00000000e+00
8.6             	(1.46957976e+00 9.68348164e-06 0.00000000e+00)	0.00000000e+00
8.65            	(1.46961210e+00 1.03743496e-05 0.00000000e+00)	0.00000000e+00
8.7             	(1.46964303e+00 1.10881469e-05 0.00000000e+00)	0.00000000e+00
8.75            	(1.46967264e+00 1.18313348e-05 0.00000000e+00)	0.00000000e+00
8.8             	(1.46970078e+00 1.25860075e-05 0.00000000e+00)	0.00000000e+00
8.85            	(1.46972769e+00 1.33532030e-05 0.00000000e+00)	0.00000000e+00
8.9             	(1.46975342e+00 1.41559309e-05 0.00000000e+00)	0.00000000e+00
8.95            	(1.46977779e+00 1.49583129e-05 0.00000000e+00)	0.00000000e+00
9               	(1.46980108e+00 1.57670616e-05 0.00000000e+00)	0.00000000e+00
9.05            	(1.46982327e+00 1.66081056e-05 0.00000000e+00)	0.00000000e+00
9.1             	(1.46984423e+00 1.74436611e-05 0.00000000e+00)	0.00000000e+00
9.15            	(1.46986423e+00 1.82821615e-05 0.00000000e+00)	0.00000000e+00
9.2             	(1.46988322e+00 1.91423338e-05 0.00000000e+00)	0.00000000e+00
9.25            	(1.46990112e+00 1.99915784e-05 0.00000000e+00)	0.00000000e+00
9.3             	(1.46991809e+00 2.08314457e-05 0.00000000e+00)	0.00000000e+00
9.35            	(1.46993426e+00 2.16845729e-05 0.00000000e+00)	0.00000000e+00
9.4             	(1.46994944e+00 2.25424523e-05 0.00000000e+00)	0.00000000e+00
9.45            	(1.46996377e+00 2.33857940e-05 0.00000000e+00)	0.00000000e+00
9.5             	(1.46997735e+00 2.42198030e-05 0.00000000e+00)	0.00000000e+00
9.55            	(1.46999015e+00 2.50411417e-05 0.00000000e+00)	0.00000000e+00
9.6             	(1.47000215e+00 2.58628230e-05 0.00000000e+00)	0.00000000e+00
9.65            	(1.47001343e+00 2.66612763e-05 0.00000000e+00)	0.00000000e+00
9.7             	(1.47002406e+00 2.74427214e-05 0.00000000e+00)	0.00000000e+00
9.75            	(1.47003397e+00 2.82214787e-05 0.00000000e+00)	0.00000000e+00
9.8             	(1.47004332e+00 2.89709050e-05 0.00000000e+00)	0.00000000e+00
9.85            	(1.47005208e+00 2.96986650e-05 0.00000000e+00)	0.00000000e+00
9.9             	(1.47006024e+00 3.04158090e-05 0.00000000e+00)	0.00000000e+00
9.95            	(1.47006783e+00 3.11161089e-05 0.00000000e+00)	0.00000000e+00
10              	(1.47007488e+00 3.17967310e-05 0.00000000e+00)	0.00000000e+00
10.05           	(1.47008159e+00 3.24485952e-05 0.00000000e+00)	0.00000000e+00
10.1            	(1.47008779e+00 3.30790527e-05 0.00000000e+00)	0.00000000e+00
10.15           	(1.47009349e+00 3.36913047e-05 0.00000000e+00)	0.00000000e+00
10.2            	(1.47009880e+00 3.42739375e-05 0.00000000e+00)	0.00000000e+00
10.25           	(1.47010368e+00 3.48345381e-05 0.00000000e+00)	0.00000000e+00
10.3            	(1.47010827e+00 3.53664952e-05 0.00000000e+00)	0.00000000e+00
10.35           	(1.47011249e+00 3.58773256e-05 0.00000000e+00)	0.00000000e+00
10.4            	(1.47011635e+00 3.63633632e-05 0.00000000e+00)	0.00000000e+00
10.45           	(1.47011996e+00 3.68248989e-05 0.00000000e+00)	0.00000000e+00
10.5            	(1.47012327e+00 3.72646350e-05 0.00000000e+00)	0.00000000e+00
10.55           	(1.47012628e+00 3.76807756e-05 0.00000000e+00)	0.00000000e+00
10.6            	(1.47012900e+00 3.80757509e-05 0.00000000e+00)	0.00000000e+00
10.65           	(1.47013164e+00 3.84425991e-05 0.00000000e+00)	0.00000000e+00
10.7            	(1.47013401e+00 3.87905214e-05 0.00000000e+00)	0.00000000e+00
10.75           	(1.47013613e+00 3.91231398e-05 0.00000000e+00)	0.00000000e+00
10.8            	(1.47013805e+00 3.94350516e-05 0.00000000e+00)	0.00000000e+00
10.85           	(1.47013984e+00 3.97247279e-05 0.00000000e+00)	0.00000000e+00
10.9            	(1.47014145e+00 4.00001367e-05 0.00000000e+00)	0.00000000e+00
10.95           	(1.47014292e+00 4.02495506e-05 0.00000000e+00)	0.00000000e+00
11              	(1.47014422e+00 4.04811582e-05 0.00000000e+00)	0.00000000e+00
11.05           	(1.47014546e+00 4.06969978e-05 0.00000000e+00)	0.00000000e+00
11.1            	(1.47014660e+00 4.08960169e-05 0.00000000e+00)	0.00000000e+00
11.15           	(1.47014759e+00 4.10840615e-05 0.00000000e+00)	0.00000000e+00
11.2            	(1.47014847e+00 4.12581890e-05 0.00000000e+00)	0.00000000e+00
11.25           	(1.47014926e+00 4.14183658e-05 0.00000000e+00)	0.00000000e+00
11.3            	(1.47014999e+00 4.15661166e-05 0.00000000e+00)	0.00000000e+00
11.35           	(1.47015061e+00 4.17102313e-05 0.00000000e+00)	0.00000000e+00
11.4            	(1.47015120e+00 4.18342905e-05 0.00000000e+00)	0.00000000e+00
11.45           	(1.47015175e+00 4.19409335e-05 0.00000000e+00)	0.00000000e+00
11.5            	(1.47015223e+00 4.20437069e-05 0.00000000e+00)	0.00000000e+00
11.55           	(1.47015265e+00 4.21352094e-05 0.00000000e+00)	0.00000000e+00
11.6            	(1.47015300e+00 4.22160587e-05 0.00000000e+00)	0.00000000e+00
11.65           	(1.47015330e+00 4.22961233e-05 0.00000000e+00)	0.00000000e+00
11.7            	(1.47015357e+00 4.23846600e-05 0.00000000e+00)	0.00000000e+00
11.75           	(1.47015386e+00 4.24470908e-05 0.00000000e+00)	0.00000000e+00
11.8            	(1.47015410e+00 4.24979166e-05 0.00000000e+00)	0.00000000e+00
11.85           	(1.47015431e+00 4.25454250e-05 0.00000000e+00)	0.00000000e+00
11.9            	(1.47015449e+00 4.25861614e-05 0.00000000e+00)	0.00000000e+00
11.95           	(1.47015463e+00 4.26277055e-05 0.00000000e+00)	0.00000000e+00
12              	(1.47015477e+00 4.26707257e-05 0.00000000e+00)	0.00000000e+00
12.05           	(1.47015490e+00 4.27021386e-05 0.00000000e+00)	0.00000000e+00
12.1            	(1.47015498e+00 4.27343676e-05 0.00000000e+00)	0.00000000e+00
12.15           	(1.47015510e+00 4.27629467e-05 0.00000000e+00)	0.00000000e+00
12.2            	(1.47015518e+00 4.27791852e-05 0.00000000e+00)	0.00000000e+00
12.25           	(1.47015525e+00 4.28012276e-05 0.00000000e+00)	0.00000000e+00
12.3            	(1.47015530e+00 4.28245254e-05 0.00000000e+00)	0.00000000e+00
12.35           	(1.47015537e+00 4.28415146e-05 0.00000000e+00)	0.00000000e+00
12.4            	(1.47015540e+00 4.28648969e-05 0.00000000e+00)	0.00000000e+00
12.45           	(1.47015544e+00 4.28807573e-05 0.00000000e+00)	0.00000000e+00
12.5            	(1.47015549e+00 4.28829859e-05 0.00000000e+00)	0.00000000e+00
12.55           	(1.47015550e+00 4.28945469e-05 0.00000000e+00)	0.00000000e+00
12.6            	(1.47015552e+00 4.29086952e-05 0.00000000e+00)	0.00000000e+00
12.65           	(1.47015555e+00 4.29116002e-05 0.00000000e+00)	0.00000000e+00
12.7            	(1.47015557e+00 4.29196914e-05 0.00000000e+00)	0.00000000e+00
12.75           	(1.47015558e+00 4.29298537e-05 0.00000000e+00)	0.00000000e+00
12.8            	(1.47015560e+00 4.29275295e-05 0.00000000e+00)	0.00000000e+00
12.85           	(1.47015561e+00 4.29311577e-05 0.00000000e+00)	0.00000000e+00
12.9            	(1.47015561e+00 4.29445189e-05 0.00000000e+00)	0.00000000e+00
12.95           	(1.47015563e+00 4.29448838e-05 0.00000000e+00)	0.00000000e+00
13              	(1.47015565e+00 4.29423855e-05 0.00000000e+00)	0.00000000e+00
13.05           	(1.47015564e+00 4.29514064e-05 0.00000000e+00)	0.00000000e+00
13.1            	(1.47015564e+00 4.29532537e-05 0.00000000e+00)	0.00000000e+00
13.15           	(1.47015566e+00 4.29502139e-05 0.00000000e+00)	0.00000000e+00
13.2            	(1.47015565e+00 4.29594857e-05 0.00000000e+00)	0.00000000e+00
13.25           	(1.47015565e+00 4.29626357e-05 0.00000000e+00)	0.00000000e+00
13.3            	(1.47015567e+00 4.29533550e-05 0.00000000e+00)	0.00000000e+00
13.35           	(1.47015566e+00 4.29582940e-05 0.00000000e+00)	0.00000000e+00
13.4            	(1.47015564e+00 4.29685500e-05 0.00000000e+00)	0.00000000e+00
13.45           	(1.47015566e+00 4.29617309e-05 0.00000000e+00)	0.00000000e+00
13.5            	(1.47015568e+00 4.29591812e-05 0.00000000e+00)	0.00000000e+00
13.55           	(1.47015565e+00 4.29644956e-05 0.00000000e+00)	0.00000000e+00
13.6            	(1.47015567e+00 4.29585704e-05 0.00000000e+00)	0.00000000e+00
13.65           	(1.47015566e+00 4.29600719e-05 0.00000000e+00)	0.00000000e+00
13.7            	(1.47015566e+00 4.29634943e-05 0.00000000e+00)	0.00000000e+00
13.75           	(1.47015566e+00 4.29611197e-05 0.00000000e+00)	0.00000000e+00
13.8            	(1.47015566e+00 4.29591666e-05 0.00000000e+00)	0.00000000e+00
13.85           	(1.47015566e+00 4.29577388e-05 0.00000000e+00)	0.00000000e+00
13.9            	(1.47015567e+00 4.29568301e-05 0.00000000e+00)	0.00000000e+00
13.95           	(1.47015566e+00 4.29563745e-05 0.00000000e+00)	0.00000000e+00
14              	(1.47015565e+00 4.29562747e-05 0.00000000e+00)	0.00000000e+00
14.05           	(1.47015565e+00 4.29564345e-05 0.00000000e+00)	0.00000000e+00
14.1            	(1.47015566e+00 4.29567328e-05 0.00000000e+00)	0.00000000e+00
14.15           	(1.47015570e+00 4.29570484e-05 0.00000000e+00)	0.00000000e+00
14.2            	(1.47015569e+00 4.29572955e-05 0.00000000e+00)	0.00000000e+00
14.25           	(1.47015563e+00 4.29574165e-05 0.00000000e+00)	0.00000000e+00
14.3            	(1.47015558e+00 4.29573898e-05 0.00000000e+00)	0.00000000e+00
14.35           	(1.47015563e+00 4.29572300e-05 0.00000000e+00)	0.00000000e+00
14.4            	(1.47015571e+00 4.29569800e-05 0.00000000e+00)	0.00000000e+00
14.45           	(1.47015573e+00 4.29566993e-05 0.00000000e+00)	0.00000000e+00
14.5            	(1.47015569e+00 4.29564501e-05 0.00000000e+00)	0.00000000e+00
14.55           	(1.47015563e+00 4.29562838e-05 0.00000000e+00)	0.00000000e+00
14.6            	(1.47015554e+00 4.29561258e-05 0.00000000e+00)	0.00000000e+00
14.65           	(1.47015561e+00 4.29560075e-05 0.00000000e+00)	0.00000000e+00
14.7            	(1.47015572e+00 4.29559619e-05 0.00000000e+00)	0.00000000e+00
14.75           	(1.47015578e+00 4.29560183e-05 0.00000000e+00)	0.00000000e+00
14.8            	(1.47015572e+00 4.29561976e-05 0.00000000e+00)	0.00000000e+00
14.85           	(1.47015561e+00 4.29565066e-05 0.00000000e+00)	0.00000000e+00
14.9            	(1.47015555e+00 4.29569350e-05 0.00000000e+00)	0.00000000e+00
14.95           	(1.47015562e+00 4.29574514e-05 0.00000000e+00)	0.00000000e+00
15              	(1.47015570e+00 4.29580023e-05 0.00000000e+00)	0.00000000e+00
15.05           	(1.47015573e+00 4.29585169e-05 0.00000000e+00)	0.00000000e+00
15.1            	(1.47015567e+00 4.29589172e-05 0.00000000e+00)	0.00000000e+00
15.15           	(1.47015561e+00 4.29591308e-05 0.00000000e+00)	0.00000000e+00
15.2            	(1.47015563e+00 4.29591062e-05 0.00000000e+00)	0.00000000e+00
15.25           	(1.47015567e+00 4.29588242e-05 0.00000000e+00)	0.00000000e+00
15.3            	(1.47015570e+00 4.29583057e-05 0.00000000e+00)	0.00000000e+00
15.35           	(1.47015566e+00 4.29576136e-05 0.00000000e+00)	0.00000000e+00
15.4            	(1.47015560e+00 4.29568473e-05 0.00000000e+00)	0.00000000e+00
15.45           	(1.47015558e+00 4.29561287e-05 0.00000000e+00)	0.00000000e+00
15.5            	(1.47015565e+00 4.29555809e-05 0.00000000e+00)	0.00000000e+00
15.55           	(1.47015573e+00 4.29553046e-05 0.00000000e+00)	0.00000000e+00
15.6            	(1.47015572e+00 4.29553554e-05 0.00000000e+00)	0.00000000e+00
15.65           	(1.47015564e+00 4.29557315e-05 0.00000000e+00)	0.00000000e+00
15.7            	(1.47015559e+00 4.29563721e-05 0.00000000e+00)	0.00000000e+00
15.75           	(1.47015561e+00 4.29571684e-05 0.00000000e+00)	0.00000000e+00
15.8            	(1.47015565e+00 4.29579836e-05 0.00000000e+00)	0.00000000e+00
15.85           	(1.47015571e+00 4.29586799e-05 0.00000000e+00)	0.00000000e+00
15.9            	(1.47015568e+00 4.29591459e-05 0.00000000e+00)	0.00000000e+00
15.95           	(1.47015563e+00 4.29593199e-05 0.00000000e+00)	0.00000000e+00
16              	(1.47015560e+00 4.29592002e-05 0.00000000e+00)	0.00000000e+00
16.05           	(1.47015563e+00 4.29588417e-05 0.00000000e+00)	0.00000000e+00
16.1            	(1.47015569e+00 4.29583378e-05 0.00000000e+00)	0.00000000e+00
16.15           	(1.47015569e+00 4.29577943e-05 0.00000000e+00)	0.00000000e+00
16.2            	(1.47015563e+00 4.29573023e-05 0.00000000e+00)	0.00000000e+00
16.25           	(1.47015560e+00 4.29569190e-05 0.00000000e+00)	0.00000000e+00
16.3            	(1.47015563e+00 4.29566589e-05 0.00000000e+00)	0.00000000e+00
16.35           	(1.47015568e+00 4.29564997e-05 0.00000000e+00)	0.00000000e+00
16.4            	(1.47015570e+00 4.29563993e-05 0.00000000e+00)	0.00000000e+00
16.45           	(1.47015567e+00 4.29563195e-05 0.00000000e+00)	0.00000000e+00
16.5            	(1.47015561e+00 4.29562476e-05 0.00000000e+00)	0.00000000e+00
16.55           	(1.47015561e+00 4.29562078e-05 0.00000000e+00)	0.00000000e+00
16.6            	(1.47015565e+00 4.29562562e-05 0.00000000e+00)	0.00000000e+00
16.65           	(1.47015568e+00 4.29564602e-05 0.00000000e+00)	0.00000000e+00
16.7            	(1.47015569e+00 4.29568674e-05 0.00000000e+00)	0.00000000e+00
16.75           	(1.47015564e+00 4.29574759e-05 0.00000000e+00)	0.00000000e+00
16.8            	(1.47015561e+00 4.29582162e-05 0.00000000e+00)	0.00000000e+00
16.85           	(1.47015563e+00 4.29589534e-05 0.00000000e+00)	0.00000000e+00
16.9            	(1.47015567e+00 4.29595118e-05 0.00000000e+00)	0.00000000e+00
16.95           	(1.47015569e+00 4.29597192e-05 0.00000000e+00)	0.00000000e+00
17              	(1.47015566e+00 4.29594595e-05 0.00000000e+00)	0.00000000e+00
17.05           	(1.47015561e+00 4.29587174e-05 0.00000000e+00)	0.00000000e+00
17.1            	(1.47015561e+00 4.29576009e-05 0.00000000e+00)	0.00000000e+00
17.15           	(1.47015566e+00 4.29563291e-05 0.00000000e+00)	0.00000000e+00
17.2            	(1.47015569e+00 4.29551845e-05 0.00000000e+00)	0.00000000e+00
17.25           	(1.47015567e+00 4.29544415e-05 0.00000000e+00)	0.00000000e+00
17.3            	(1.47015563e+00 4.29549354e-05 0.00000000e+00)	0.00000000e+00
17.35           	(1.47015560e+00 4.29552566e-05 0.00000000e+00)	0.00000000e+00
17.4            	(1.47015563e+00 4.29559864e-05 0.00000000e+00)	0.00000000e+00
17.45           	(1.47015567e+00 4.29569391e-05 0.00000000e+00)	0.00000000e+00
17.5            	(1.47015568e+00 4.29578706e-05 0.00000000e+00)	0.00000000e+00
17.55           	(1.47015564e+00 4.29585469e-05 0.00000000e+00)	0.00000000e+00
17.6            	(1.47015562e+00 4.29588131e-05 0.00000000e+00)	0.00000000e+00
17.65           	(1.47015561e+00 4.29583502e-05 0.00000000e+00)	0.00000000e+00
17.7            	(1.47015566e+00 4.29580531e-05 0.00000000e+00)	0.00000000e+00
17.75           	(1.47015569e+00 4.29576288e-05 0.00000000e+00)	0.00000000e+00
17.8            	(1.47015567e+00 4.29572457e-05 0.00000000e+00)	0.00000000e+00
17.85           	(1.47015563e+00 4.29570439e-05 0.00000000e+00)	0.00000000e+00
17.9            	(1.47015560e+00 4.29570847e-05 0.00000000e+00)	0.00000000e+00
17.95           	(1.47015563e+00 4.29573256e-05 0.00000000e+00)	0.00000000e+00
18              	(1.47015567e+00 4.29574428e-05 0.00000000e+00)	0.00000000e+00
18.05           	(1.47015568e+00 4.29575178e-05 0.00000000e+00)	0.00000000e+00
18.1            	(1.47015564e+00 4.29574182e-05 0.00000000e+00)	0.00000000e+00
18.15           	(1.47015562e+00 4.29570943e-05 0.00000000e+00)	0.00000000e+00
18.2            	(1.47015563e+00 4.29565869e-05 0.00000000e+00)	0.00000000e+00
18.25           	(1.47015565e+00 4.29562078e-05 0.00000000e+00)	0.00000000e+00
18.3            	(1.47015568e+00 4.29559615e-05 0.00000000e+00)	0.00000000e+00
18.35           	(1.47015566e+00 4.29559498e-05 0.00000000e+00)	0.00000000e+00
18.4            	(1.47015563e+00 4.29562533e-05 0.00000000e+00)	0.00000000e+00
18.45           	(1.47015562e+00 4.29568651e-05 0.00000000e+00)	0.00000000e+00
18.5            	(1.47015563e+00 4.29576760e-05 0.00000000e+00)	0.00000000e+00
18.55           	(1.47015567e+00 4.29582925e-05 0.00000000e+00)	0.00000000e+00
18.6            	(1.47015567e+00 4.29586969e-05 0.00000000e+00)	0.00000000e+00
18.65           	(1.47015564e+00 4.29588056e-05 0.00000000e+00)	0.00000000e+00
18.7            	(1.47015562e+00 4.29585516e-05 0.00000000e+00)	0.00000000e+00
18.75           	(1.47015564e+00 4.29579686e-05 0.00000000e+00)	0.00000000e+00
18.8            	(1.47015566e+00 4.29571379e-05 0.00000000e+00)	0.00000000e+00
18.85           	(1.47015567e+00 4.29565868e-05 0.00000000e+00)	0.00000000e+00