/*--------------------------------*- C++ -*----------------------------------*\
| =========                 |                                                 |
| \\      /  F ield         | OpenFOAM: The Open Source CFD Toolbox           |
|  \\    /   O peration     | Version:  v1812                                 |
|   \\  /    A nd           | Web:      www.OpenFOAM.com                      |
|    \\/     M anipulation  |                                                 |
\*---------------------------------------------------------------------------*/
FoamFile
{
    version     2.0;
    format      ascii;
    class       volVectorField;
    location    "11.2";
    object      U;
}
// * * * * * * * * * * * * * * * * * * * * * * * * * * * * * * * * * * * * * //

dimensions      [0 1 -1 0 0 0 0];


internalField   nonuniform List<vector> 
1000
(
(0.91890839 0.035821913 0)
(0.86271384 0.062195638 0)
(0.7870597 0.06251009 0)
(0.69536033 0.054550395 0)
(0.61089745 0.044531651 0)
(0.54411592 0.034015972 0)
(0.49343012 0.02418754 0)
(0.45479413 0.01614423 0)
(0.42544582 0.010265786 0)
(0.40347313 0.0063041452 0)
(0.38715767 0.0037976289 0)
(0.3749622 0.0023103373 0)
(0.36566193 0.0014930141 0)
(0.35836272 0.0010851179 0)
(0.35244267 0.00090607262 0)
(0.347482 0.00084105256 0)
(0.34320347 0.00082372516 0)
(0.33942725 0.00081931123 0)
(0.33603793 0.00081185229 0)
(0.33296114 0.00079580093 0)
(0.33014778 0.00077081069 0)
(0.32756384 0.00073870853 0)
(0.3251842 0.00070188853 0)
(0.32298902 0.00066256533 0)
(0.32096172 0.00062249982 0)
(0.31908785 0.0005829582 0)
(0.31735449 0.0005447726 0)
(0.31574995 0.00050843511 0)
(0.3142636 0.00047419215 0)
(0.31288574 0.00044212457 0)
(0.31160755 0.00041220882 0)
(0.31042101 0.00038436057 0)
(0.30931883 0.00035846382 0)
(0.30829438 0.00033438943 0)
(0.30734165 0.00031200637 0)
(0.30645515 0.00029118798 0)
(0.30562991 0.00027181523 0)
(0.30486136 0.00025377804 0)
(0.30414535 0.00023697549 0)
(0.30347806 0.00022131549 0)
(0.302856 0.00020671407 0)
(0.30227596 0.00019309464 0)
(0.30173496 0.00018038716 0)
(0.30123029 0.00016852734 0)
(0.30075942 0.00015745606 0)
(0.30032002 0.00014711869 0)
(0.29990993 0.00013746478 0)
(0.29952715 0.00012844757 0)
(0.29916982 0.00012002384 0)
(0.29883623 0.00011215365 0)
(0.29852478 0.00010480002 0)
(0.29823397 9.792882e-05 0)
(0.29796241 9.1508362e-05 0)
(0.29770883 8.5509118e-05 0)
(0.29747201 7.9903508e-05 0)
(0.29725084 7.4665501e-05 0)
(0.29704429 6.9770717e-05 0)
(0.29685137 6.5196187e-05 0)
(0.29667119 6.09205e-05 0)
(0.2965029 5.6923927e-05 0)
(0.29634571 5.3188214e-05 0)
(0.29619889 4.9696742e-05 0)
(0.29606176 4.6434087e-05 0)
(0.29593366 4.3385757e-05 0)
(0.29581401 4.0538109e-05 0)
(0.29570224 3.7877777e-05 0)
(0.29559783 3.5392146e-05 0)
(0.2955003 3.3069052e-05 0)
(0.29540921 3.0897255e-05 0)
(0.29532411 2.8866666e-05 0)
(0.29524463 2.6968193e-05 0)
(0.29517038 2.5193909e-05 0)
(0.29510103 2.3536611e-05 0)
(0.29503624 2.1989166e-05 0)
(0.29497572 2.0544925e-05 0)
(0.29491918 1.9196332e-05 0)
(0.29486636 1.7936687e-05 0)
(0.29481702 1.6758615e-05 0)
(0.29477094 1.5656602e-05 0)
(0.2947279 1.4624764e-05 0)
(0.29468769 1.3660198e-05 0)
(0.29465014 1.2757861e-05 0)
(0.29461506 1.1917143e-05 0)
(0.2945823 1.1131067e-05 0)
(0.29455169 1.0400421e-05 0)
(0.29452311 9.7142533e-06 0)
(0.2944964 9.0764452e-06 0)
(0.2944715 8.4719015e-06 0)
(0.29444822 7.9121254e-06 0)
(0.29442653 7.3764133e-06 0)
(0.29440626 6.8879648e-06 0)
(0.29438738 6.4156887e-06 0)
(0.29436974 5.9959434e-06 0)
(0.2943533 5.5845504e-06 0)
(0.294338 5.22719e-06 0)
(0.29432362 4.8844795e-06 0)
(0.29431053 4.5849044e-06 0)
(0.29429748 4.3881072e-06 0)
(0.29428702 4.2272772e-06 0)
(0.29427167 4.7162619e-06 0)
(1.0016583 0.05381943 0)
(1.0359761 0.10128444 0)
(1.0597199 0.11073663 0)
(1.0628947 0.10592202 0)
(1.0515569 0.096228728 0)
(1.0340529 0.083934061 0)
(1.0142795 0.070327064 0)
(0.99360702 0.056981335 0)
(0.97292576 0.04510748 0)
(0.95310739 0.03523675 0)
(0.93479539 0.027401649 0)
(0.91829012 0.021387226 0)
(0.90362379 0.016884497 0)
(0.89068068 0.013569708 0)
(0.87928174 0.011147749 0)
(0.86923241 0.0093736601 0)
(0.86034423 0.0080569301 0)
(0.85244667 0.0070571293 0)
(0.84539241 0.0062752395 0)
(0.83905793 0.0056438285 0)
(0.83334126 0.0051180898 0)
(0.82815884 0.0046686703 0)
(0.82344212 0.0042764152 0)
(0.81913467 0.0039287372 0)
(0.81518962 0.003617203 0)
(0.81156765 0.0033359711 0)
(0.80823544 0.0030808056 0)
(0.8051644 0.0028484708 0)
(0.80232979 0.0026363707 0)
(0.79970999 0.0024423389 0)
(0.79728597 0.002264518 0)
(0.79504086 0.0021012881 0)
(0.79295963 0.0019512231 0)
(0.79102881 0.0018130611 0)
(0.78923628 0.0016856826 0)
(0.7875711 0.001568093 0)
(0.78602338 0.0014594075 0)
(0.78458411 0.0013588383 0)
(0.78324511 0.0012656829 0)
(0.78199888 0.0011793133 0)
(0.7808386 0.0010991673 0)
(0.77975799 0.0010247398 0)
(0.77875128 0.00095557605 0)
(0.77781318 0.00089126518 0)
(0.77693881 0.00083143474 0)
(0.77612368 0.00077574606 0)
(0.77536362 0.00072389042 0)
(0.7746548 0.0006755856 0)
(0.77399367 0.00063057318 0)
(0.77337693 0.00058861619 0)
(0.77280152 0.00054949699 0)
(0.77226464 0.00051301557 0)
(0.77176363 0.00047898765 0)
(0.77129607 0.00044724315 0)
(0.77085967 0.00041762479 0)
(0.77045234 0.00038998653 0)
(0.77007211 0.00036419275 0)
(0.76971716 0.00034011721 0)
(0.76938579 0.00031764257 0)
(0.76907643 0.00029666 0)
(0.76878759 0.00027706865 0)
(0.7685179 0.00025877541 0)
(0.76826609 0.00024169398 0)
(0.76803096 0.00022574421 0)
(0.76781139 0.00021085136 0)
(0.76760635 0.00019694506 0)
(0.76741488 0.00018395931 0)
(0.76723606 0.00017183181 0)
(0.76706907 0.00016050444 0)
(0.76691312 0.00014992314 0)
(0.76676749 0.00014003832 0)
(0.76663148 0.00013080429 0)
(0.76650445 0.00012217957 0)
(0.76638581 0.00011412464 0)
(0.766275 0.0001066036 0)
(0.76617151 9.9579882e-05 0)
(0.76607484 9.3021211e-05 0)
(0.76598455 8.6892925e-05 0)
(0.76590022 8.116769e-05 0)
(0.76582148 7.5813783e-05 0)
(0.76574793 7.0812073e-05 0)
(0.76567925 6.613265e-05 0)
(0.7656151 6.1766207e-05 0)
(0.76555521 5.7678627e-05 0)
(0.76549923 5.3871264e-05 0)
(0.76544702 5.0297363e-05 0)
(0.76539819 4.697497e-05 0)
(0.7653527 4.383646e-05 0)
(0.76531014 4.0932188e-05 0)
(0.76527057 3.8160317e-05 0)
(0.7652335 3.562665e-05 0)
(0.76519909 3.3168166e-05 0)
(0.76516688 3.0977314e-05 0)
(0.76513689 2.8787297e-05 0)
(0.76510914 2.6925025e-05 0)
(0.76508261 2.4967978e-05 0)
(0.7650596 2.3454376e-05 0)
(0.76503452 2.1768777e-05 0)
(0.76501864 2.0770433e-05 0)
(0.76498923 1.981939e-05 0)
(1.0014244 0.026824854 0)
(1.0291272 0.062791351 0)
(1.0654292 0.077736552 0)
(1.098962 0.080597199 0)
(1.1253149 0.078285171 0)
(1.145053 0.0731539 0)
(1.1594858 0.066111279 0)
(1.1694287 0.058162064 0)
(1.1755354 0.050296755 0)
(1.1785738 0.043150709 0)
(1.1793571 0.036972825 0)
(1.178595 0.031771631 0)
(1.1768304 0.027451838 0)
(1.1744518 0.023886767 0)
(1.1717287 0.020947619 0)
(1.1688444 0.018515781 0)
(1.1659195 0.016488086 0)
(1.1630317 0.014779504 0)
(1.1602295 0.013322987 0)
(1.1575415 0.012067133 0)
(1.1549828 0.010973 0)
(1.1525601 0.010011061 0)
(1.1502747 0.0091587452 0)
(1.1481246 0.0083986027 0)
(1.1461059 0.0077169496 0)
(1.1442134 0.0071028881 0)
(1.1424414 0.0065475927 0)
(1.1407838 0.0060437968 0)
(1.1392344 0.0055854277 0)
(1.1377869 0.0051673458 0)
(1.1364353 0.0047851574 0)
(1.1351738 0.0044350757 0)
(1.1339968 0.0041138155 0)
(1.1328987 0.0038185114 0)
(1.1318746 0.0035466518 0)
(1.1309195 0.0032960268 0)
(1.1300289 0.0030646838 0)
(1.1291985 0.0028508922 0)
(1.1284242 0.0026531122 0)
(1.1277022 0.0024699702 0)
(1.1270291 0.0023002365 0)
(1.1264014 0.0021428068 0)
(1.1258161 0.0019966869 0)
(1.1252702 0.001860979 0)
(1.1247612 0.0017348696 0)
(1.1242865 0.0016176203 0)
(1.1238437 0.0015085586 0)
(1.1234307 0.0014070706 0)
(1.1230455 0.001312595 0)
(1.1226861 0.0012246175 0)
(1.1223509 0.0011426663 0)
(1.1220381 0.0010663077 0)
(1.1217462 0.00099514306 0)
(1.1214739 0.00092880498 0)
(1.1212198 0.00086695447 0)
(1.1209827 0.00080927831 0)
(1.1207614 0.00075548646 0)
(1.1205548 0.00070530995 0)
(1.120362 0.00065849935 0)
(1.1201821 0.00061482293 0)
(1.1200142 0.00057406604 0)
(1.1198574 0.00053602961 0)
(1.1197111 0.00050052915 0)
(1.1195745 0.0004673937 0)
(1.1194469 0.00043646438 0)
(1.1193278 0.00040759319 0)
(1.1192167 0.00038064216 0)
(1.1191129 0.00035548182 0)
(1.1190159 0.00033199165 0)
(1.1189255 0.00031005828 0)
(1.118841 0.00028957725 0)
(1.1187621 0.00027045075 0)
(1.1186884 0.00025258963 0)
(1.1186197 0.00023590959 0)
(1.1185554 0.0002203348 0)
(1.1184954 0.00020579031 0)
(1.1184394 0.00019221099 0)
(1.1183871 0.00017952699 0)
(1.1183382 0.00016768374 0)
(1.1182926 0.00015661438 0)
(1.11825 0.00014627857 0)
(1.1182103 0.00013660987 0)
(1.1181731 0.00012758794 0)
(1.1181385 0.00011913781 0)
(1.118106 0.00011126754 0)
(1.1180758 0.00010387511 0)
(1.1180475 9.7013937e-05 0)
(1.1180212 9.052607e-05 0)
(1.1179964 8.4548761e-05 0)
(1.1179737 7.8818355e-05 0)
(1.117952 7.3630004e-05 0)
(1.1179323 6.8517645e-05 0)
(1.1179133 6.4070586e-05 0)
(1.1178962 5.9432679e-05 0)
(1.1178798 5.5745098e-05 0)
(1.1178646 5.1412312e-05 0)
(1.1178512 4.8613502e-05 0)
(1.1178364 4.4405151e-05 0)
(1.1178277 4.2827676e-05 0)
(1.1178105 3.8671087e-05 0)
(1.0007347 0.011814721 0)
(1.0178472 0.030860926 0)
(1.0462163 0.04143444 0)
(1.0799018 0.045193569 0)
(1.1132664 0.045502351 0)
(1.143782 0.044080308 0)
(1.1708941 0.041439983 0)
(1.1945687 0.037973679 0)
(1.2148582 0.03419573 0)
(1.2319652 0.030536887 0)
(1.2462683 0.027222045 0)
(1.2582339 0.02431392 0)
(1.2683135 0.021797887 0)
(1.2768875 0.019633659 0)
(1.2842554 0.017773826 0)
(1.2906479 0.016169652 0)
(1.296243 0.014775591 0)
(1.3011791 0.013552299 0)
(1.3055645 0.012467865 0)
(1.3094838 0.011497467 0)
(1.3130042 0.010622162 0)
(1.3161792 0.0098275127 0)
(1.3190526 0.00910241 0)
(1.3216607 0.0084381755 0)
(1.3240343 0.0078279028 0)
(1.3261995 0.007265974 0)
(1.3281786 0.006747709 0)
(1.3299913 0.0062691177 0)
(1.3316544 0.0058267288 0)
(1.3331829 0.0054174746 0)
(1.3345896 0.0050386131 0)
(1.3358862 0.0046876739 0)
(1.3370827 0.0043624189 0)
(1.3381883 0.0040608136 0)
(1.3392108 0.0037810032 0)
(1.3401576 0.0035212944 0)
(1.3410349 0.0032801385 0)
(1.3418486 0.0030561183 0)
(1.3426038 0.0028479354 0)
(1.3433051 0.0026543991 0)
(1.3439569 0.0024744173 0)
(1.3445629 0.0023069869 0)
(1.3451267 0.0021511859 0)
(1.3456513 0.0020061664 0)
(1.3461398 0.0018711473 0)
(1.3465947 0.0017454092 0)
(1.3470185 0.0016282879 0)
(1.3474135 0.0015191703 0)
(1.3477816 0.0014174896 0)
(1.3481248 0.0013227218 0)
(1.3484449 0.0012343818 0)
(1.3487435 0.0011520209 0)
(1.349022 0.0010752234 0)
(1.3492818 0.0010036046 0)
(1.3495242 0.00093680738 0)
(1.3497505 0.00087450093 0)
(1.3499616 0.00081637753 0)
(1.3501587 0.00076215137 0)
(1.3503427 0.00071155633 0)
(1.3505145 0.00066434475 0)
(1.3506748 0.00062028654 0)
(1.3508245 0.0005791676 0)
(1.3509643 0.00054078935 0)
(1.3510948 0.00050496728 0)
(1.3512167 0.00047153001 0)
(1.3513305 0.00044031803 0)
(1.3514368 0.00041118248 0)
(1.3515361 0.00038398408 0)
(1.3516288 0.00035859279 0)
(1.3517153 0.00033488614 0)
(1.3517962 0.00031275121 0)
(1.3518717 0.00029208148 0)
(1.3519422 0.00027278033 0)
(1.3520081 0.00025475569 0)
(1.3520696 0.00023792577 0)
(1.3521271 0.00022220941 0)
(1.3521808 0.00020753718 0)
(1.3522309 0.0001938332 0)
(1.3522777 0.00018104044 0)
(1.3523214 0.00016908421 0)
(1.3523622 0.00015792428 0)
(1.3524005 0.00014748268 0)
(1.352436 0.00013774471 0)
(1.3524694 0.00012861777 0)
(1.3525004 0.00012012709 0)
(1.3525296 0.00011213971 0)
(1.3525564 0.0001047479 0)
(1.352582 9.7733391e-05 0)
(1.3526052 9.1313849e-05 0)
(1.3526278 8.5105983e-05 0)
(1.3526476 7.9565334e-05 0)
(1.3526677 7.3996435e-05 0)
(1.3526843 6.9296627e-05 0)
(1.3527027 6.4187556e-05 0)
(1.352716 6.0367494e-05 0)
(1.3527333 5.5508179e-05 0)
(1.352743 5.2708133e-05 0)
(1.3527604 4.786094e-05 0)
(1.3527659 4.6341545e-05 0)
(1.3527853 4.1258189e-05 0)
(1.0005903 0.0034629153 0)
(1.0136865 0.0093660188 0)
(1.0370283 0.013046805 0)
(1.0674202 0.014563261 0)
(1.1000315 0.014854525 0)
(1.1316428 0.014564991 0)
(1.1610745 0.013888339 0)
(1.1880674 0.012919246 0)
(1.2125205 0.011806506 0)
(1.2343939 0.010696427 0)
(1.2538077 0.0096727414 0)
(1.2710339 0.0087628212 0)
(1.286401 0.0079659728 0)
(1.3002112 0.0072722141 0)
(1.3127102 0.0066688085 0)
(1.3240903 0.0061419257 0)
(1.3345036 0.005678073 0)
(1.3440716 0.0052653219 0)
(1.3528927 0.0048939359 0)
(1.3610463 0.0045563962 0)
(1.3685975 0.0042470697 0)
(1.3756004 0.0039617753 0)
(1.3821012 0.0036973968 0)
(1.3881402 0.0034515818 0)
(1.3937533 0.0032225182 0)
(1.3989728 0.0030087699 0)
(1.403828 0.0028091584 0)
(1.4083456 0.0026226799 0)
(1.4125503 0.0024484504 0)
(1.4164646 0.0022856713 0)
(1.4201094 0.0021336076 0)
(1.423504 0.0019915758 0)
(1.426666 0.0018589356 0)
(1.4296121 0.0017350852 0)
(1.4323573 0.0016194583 0)
(1.4349159 0.0015115216 0)
(1.4373007 0.0014107737 0)
(1.4395241 0.0013167432 0)
(1.441597 0.0012289875 0)
(1.4435301 0.0011470917 0)
(1.4453328 0.0010706673 0)
(1.4470143 0.00099935022 0)
(1.4485827 0.00093280041 0)
(1.4500459 0.00087069967 0)
(1.451411 0.0008127507 0)
(1.4526846 0.00075867563 0)
(1.4538731 0.00070821483 0)
(1.4549822 0.00066112592 0)
(1.4560172 0.00061718248 0)
(1.4569831 0.00057617347 0)
(1.4578847 0.00053790177 0)
(1.4587262 0.00050218368 0)
(1.4595117 0.00046884811 0)
(1.460245 0.00043773541 0)
(1.4609295 0.00040869682 0)
(1.4615685 0.00038159338 0)
(1.4621651 0.00035629541 0)
(1.4627221 0.00033268177 0)
(1.4632422 0.00031063933 0)
(1.4637278 0.00029006281 0)
(1.4641811 0.00027085383 0)
(1.4646045 0.00025292088 0)
(1.4649998 0.00023617903 0)
(1.4653689 0.00022054896 0)
(1.4657136 0.00020595698 0)
(1.4660355 0.000192334 0)
(1.4663361 0.00017961546 0)
(1.4666168 0.00016774079 0)
(1.466879 0.0001566533 0)
(1.4671238 0.00014630011 0)
(1.4673524 0.00013663213 0)
(1.4675659 0.00012760311 0)
(1.4677654 0.00011917157 0)
(1.4679516 0.00011129739 0)
(1.4681256 0.00010394556 0)
(1.4682881 9.7079999e-05 0)
(1.4684398 9.0670718e-05 0)
(1.4685815 8.46839e-05 0)
(1.4687138 7.9094866e-05 0)
(1.4688375 7.3870264e-05 0)
(1.4689529 6.8993977e-05 0)
(1.4690608 6.4430272e-05 0)
(1.4691614 6.0176305e-05 0)
(1.4692556 5.6187299e-05 0)
(1.4693432 5.2480223e-05 0)
(1.4694255 4.8988594e-05 0)
(1.4695017 4.5764483e-05 0)
(1.4695737 4.2695894e-05 0)
(1.4696397 3.9900258e-05 0)
(1.469703 3.7179559e-05 0)
(1.4697598 3.4774014e-05 0)
(1.4698159 3.2325988e-05 0)
(1.4698639 3.0297728e-05 0)
(1.4699145 2.804257e-05 0)
(1.4699538 2.6410755e-05 0)
(1.4700012 2.4254658e-05 0)
(1.4700306 2.3074706e-05 0)
(1.4700782 2.0912989e-05 0)
(1.470095 2.0275638e-05 0)
(1.4701485 1.7987824e-05 0)
(1.0005903 -0.0034629163 0)
(1.0136865 -0.0093660203 0)
(1.0370283 -0.013046806 0)
(1.0674202 -0.014563261 0)
(1.1000315 -0.014854524 0)
(1.1316428 -0.01456499 0)
(1.1610745 -0.013888337 0)
(1.1880674 -0.012919245 0)
(1.2125205 -0.011806507 0)
(1.2343939 -0.010696428 0)
(1.2538077 -0.0096727436 0)
(1.2710339 -0.0087628232 0)
(1.286401 -0.0079659742 0)
(1.3002112 -0.0072722143 0)
(1.3127102 -0.0066688076 0)
(1.3240903 -0.006141924 0)
(1.3345036 -0.005678071 0)
(1.3440716 -0.0052653203 0)
(1.3528927 -0.0048939352 0)
(1.3610463 -0.0045563966 0)
(1.3685975 -0.0042470711 0)
(1.3756004 -0.0039617771 0)
(1.3821012 -0.0036973985 0)
(1.3881402 -0.0034515827 0)
(1.3937533 -0.0032225179 0)
(1.3989728 -0.0030087686 0)
(1.403828 -0.0028091565 0)
(1.4083456 -0.002622678 0)
(1.4125503 -0.0024484491 0)
(1.4164646 -0.0022856708 0)
(1.4201094 -0.0021336082 0)
(1.423504 -0.0019915772 0)
(1.426666 -0.0018589372 0)
(1.4296121 -0.0017350863 0)
(1.4323573 -0.0016194583 0)
(1.4349159 -0.0015115205 0)
(1.4373007 -0.0014107715 0)
(1.4395241 -0.0013167406 0)
(1.441597 -0.0012289852 0)
(1.4435301 -0.0011470903 0)
(1.4453328 -0.0010706669 0)
(1.4470143 -0.00099935077 0)
(1.4485827 -0.00093280132 0)
(1.4500459 -0.00087070015 0)
(1.451411 -0.00081275 0)
(1.4526846 -0.00075867346 0)
(1.4538731 -0.00070821133 0)
(1.4549822 -0.00066112177 0)
(1.4560172 -0.00061717862 0)
(1.4569831 -0.00057617048 0)
(1.4578847 -0.00053790018 0)
(1.4587262 -0.00050218336 0)
(1.4595117 -0.00046884839 0)
(1.460245 -0.00043773519 0)
(1.4609295 -0.000408695 0)
(1.4615685 -0.0003815895 0)
(1.4621651 -0.00035628948 0)
(1.4627221 -0.00033267485 0)
(1.4632422 -0.00031063279 0)
(1.4637278 -0.00029005773 0)
(1.4641811 -0.00027085105 0)
(1.4646045 -0.00025292023 0)
(1.4649998 -0.00023617952 0)
(1.4653689 -0.00022054899 0)
(1.4657136 -0.00020595487 0)
(1.4660355 -0.00019232898 0)
(1.4663361 -0.00017960756 0)
(1.4666168 -0.00016773143 0)
(1.466879 -0.00015664453 0)
(1.4671238 -0.00014629361 0)
(1.4673524 -0.00013662925 0)
(1.467566 -0.00012760402 0)
(1.4677654 -0.00011917526 0)
(1.4679516 -0.00011130209 0)
(1.4681256 -0.00010394906 0)
(1.4682881 -9.7081472e-05 0)
(1.4684398 -9.067024e-05 0)
(1.4685815 -8.4682956e-05 0)
(1.4687138 -7.9095975e-05 0)
(1.4688375 -7.3875294e-05 0)
(1.4689529 -6.9004327e-05 0)
(1.4690608 -6.4445426e-05 0)
(1.4691614 -6.0194635e-05 0)
(1.4692556 -5.6206722e-05 0)
(1.4693432 -5.2499471e-05 0)
(1.4694255 -4.9007077e-05 0)
(1.4695017 -4.5782643e-05 0)
(1.4695737 -4.271514e-05 0)
(1.4696398 -3.9922443e-05 0)
(1.469703 -3.7205708e-05 0)
(1.4697598 -3.4804256e-05 0)
(1.4698159 -3.2358743e-05 0)
(1.4698639 -3.033075e-05 0)
(1.4699145 -2.807277e-05 0)
(1.4699538 -2.6436635e-05 0)
(1.4700012 -2.4275304e-05 0)
(1.4700306 -2.3090887e-05 0)
(1.4700782 -2.0922286e-05 0)
(1.470095 -2.0281644e-05 0)
(1.4701485 -1.7985735e-05 0)
(1.0007347 -0.011814722 0)
(1.0178472 -0.030860927 0)
(1.0462163 -0.041434441 0)
(1.0799018 -0.045193568 0)
(1.1132664 -0.045502349 0)
(1.143782 -0.044080307 0)
(1.1708941 -0.041439982 0)
(1.1945687 -0.037973679 0)
(1.2148582 -0.034195731 0)
(1.2319652 -0.030536889 0)
(1.2462683 -0.027222046 0)
(1.2582339 -0.024313921 0)
(1.2683135 -0.021797887 0)
(1.2768875 -0.019633658 0)
(1.2842554 -0.017773824 0)
(1.2906479 -0.01616965 0)
(1.296243 -0.014775589 0)
(1.3011791 -0.013552298 0)
(1.3055645 -0.012467865 0)
(1.3094838 -0.011497468 0)
(1.3130042 -0.010622163 0)
(1.3161792 -0.009827514 0)
(1.3190526 -0.0091024105 0)
(1.3216607 -0.0084381751 0)
(1.3240343 -0.0078279016 0)
(1.3261995 -0.0072659723 0)
(1.3281786 -0.0067477074 0)
(1.3299913 -0.0062691167 0)
(1.3316544 -0.0058267286 0)
(1.3331828 -0.0054174754 0)
(1.3345896 -0.0050386144 0)
(1.3358862 -0.0046876752 0)
(1.3370827 -0.0043624196 0)
(1.3381883 -0.0040608134 0)
(1.3392108 -0.0037810021 0)
(1.3401576 -0.0035212924 0)
(1.3410349 -0.0032801363 0)
(1.3418486 -0.0030561165 0)
(1.3426038 -0.0028479344 0)
(1.3433051 -0.0026543992 0)
(1.3439569 -0.0024744181 0)
(1.3445629 -0.0023069878 0)
(1.3451267 -0.0021511863 0)
(1.3456513 -0.0020061655 0)
(1.3461398 -0.0018711452 0)
(1.3465947 -0.0017454059 0)
(1.3470185 -0.0016282842 0)
(1.3474135 -0.001519167 0)
(1.3477816 -0.0014174874 0)
(1.3481249 -0.0013227209 0)
(1.3484449 -0.0012343821 0)
(1.3487435 -0.0011520215 0)
(1.349022 -0.0010752233 0)
(1.3492818 -0.0010036027 0)
(1.3495242 -0.00093680362 0)
(1.3497505 -0.00087449542 0)
(1.3499617 -0.00081637143 0)
(1.3501588 -0.00076214585 0)
(1.3503427 -0.00071155246 0)
(1.3505145 -0.0006643432 0)
(1.3506748 -0.00062028674 0)
(1.3508245 -0.00057916845 0)
(1.3509643 -0.0005407893 0)
(1.3510948 -0.00050496496 0)
(1.3512167 -0.00047152502 0)
(1.3513306 -0.00044031068 0)
(1.3514368 -0.00041117428 0)
(1.3515361 -0.00038397673 0)
(1.3516288 -0.00035858772 0)
(1.3517153 -0.0003348844 0)
(1.3517962 -0.00031275233 0)
(1.3518717 -0.0002920842 0)
(1.3519422 -0.00027278297 0)
(1.3520081 -0.00025475678 0)
(1.3520696 -0.00023792519 0)
(1.3521271 -0.00022220749 0)
(1.3521808 -0.00020753573 0)
(1.3522309 -0.00019383421 0)
(1.3522777 -0.00018104516 0)
(1.3523215 -0.00016909328 0)
(1.3523623 -0.00015793665 0)
(1.3524005 -0.00014749696 0)
(1.352436 -0.00013775944 0)
(1.3524694 -0.00012863191 0)
(1.3525004 -0.00012014047 0)
(1.3525296 -0.0001121533 0)
(1.3525564 -0.00010476323 0)
(1.352582 -9.7751943e-05 0)
(1.3526052 -9.1336006e-05 0)
(1.3526278 -8.5131265e-05 0)
(1.3526476 -7.9592534e-05 0)
(1.3526677 -7.4023129e-05 0)
(1.3526843 -6.932199e-05 0)
(1.3527027 -6.4209359e-05 0)
(1.3527159 -6.0386731e-05 0)
(1.3527333 -5.5523418e-05 0)
(1.352743 -5.2721409e-05 0)
(1.3527604 -4.7870332e-05 0)
(1.3527659 -4.6347611e-05 0)
(1.3527853 -4.1259247e-05 0)
(1.0014244 -0.026824854 0)
(1.0291272 -0.062791351 0)
(1.0654292 -0.077736551 0)
(1.098962 -0.080597198 0)
(1.1253149 -0.07828517 0)
(1.145053 -0.0731539 0)
(1.1594858 -0.06611128 0)
(1.1694287 -0.058162066 0)
(1.1755354 -0.050296757 0)
(1.1785738 -0.04315071 0)
(1.1793571 -0.036972825 0)
(1.178595 -0.03177163 0)
(1.1768304 -0.027451836 0)
(1.1744518 -0.023886765 0)
(1.1717287 -0.020947618 0)
(1.1688444 -0.01851578 0)
(1.1659195 -0.016488087 0)
(1.1630317 -0.014779506 0)
(1.1602295 -0.013322989 0)
(1.1575415 -0.012067135 0)
(1.1549828 -0.010973001 0)
(1.1525601 -0.01001106 0)
(1.1502747 -0.0091587438 0)
(1.1481246 -0.0083986005 0)
(1.1461059 -0.0077169474 0)
(1.1442134 -0.0071028866 0)
(1.1424414 -0.0065475923 0)
(1.1407838 -0.0060437977 0)
(1.1392343 -0.0055854295 0)
(1.1377869 -0.0051673479 0)
(1.1364353 -0.0047851589 0)
(1.1351738 -0.0044350761 0)
(1.1339968 -0.0041138145 0)
(1.1328987 -0.0038185092 0)
(1.1318746 -0.0035466491 0)
(1.1309195 -0.0032960244 0)
(1.1300289 -0.0030646826 0)
(1.1291985 -0.0028508924 0)
(1.1284242 -0.0026531138 0)
(1.1277022 -0.0024699725 0)
(1.1270291 -0.0023002383 0)
(1.1264014 -0.0021428074 0)
(1.1258161 -0.0019966857 0)
(1.1252703 -0.001860976 0)
(1.1247612 -0.0017348657 0)
(1.1242865 -0.0016176165 0)
(1.1238437 -0.001508556 0)
(1.1234307 -0.00140707 0)
(1.1230455 -0.0013125963 0)
(1.1226861 -0.00122462 0)
(1.1223509 -0.0011426685 0)
(1.1220381 -0.0010663084 0)
(1.1217462 -0.00099514119 0)
(1.1214739 -0.00092880051 0)
(1.1212198 -0.00086694839 0)
(1.1209827 -0.00080927219 0)
(1.1207614 -0.00075548216 0)
(1.1205548 -0.00070530856 0)
(1.1203621 -0.00065850093 0)
(1.1201821 -0.00061482646 0)
(1.1200142 -0.00057406944 0)
(1.1198574 -0.00053603082 0)
(1.1197111 -0.00050052668 0)
(1.1195745 -0.0004673875 0)
(1.1194469 -0.0004364559 0)
(1.1193279 -0.00040758479 0)
(1.1192167 -0.00038063646 0)
(1.1191129 -0.00035548035 0)
(1.119016 -0.00033199441 0)
(1.1189255 -0.0003100638 0)
(1.118841 -0.00028958284 0)
(1.1187621 -0.00027045384 0)
(1.1186885 -0.00025258866 0)
(1.1186197 -0.00023590484 0)
(1.1185555 -0.00022032846 0)
(1.1184955 -0.00020578536 0)
(1.1184395 -0.00019221034 0)
(1.1183871 -0.00017953206 0)
(1.1183383 -0.00016769379 0)
(1.1182926 -0.00015662729 0)
(1.11825 -0.000146291 0)
(1.1182103 -0.00013661958 0)
(1.1181731 -0.00012759397 0)
(1.1181385 -0.00011914146 0)
(1.118106 -0.00011127105 0)
(1.1180759 -0.00010388158 0)
(1.1180475 -9.7025021e-05 0)
(1.1180212 -9.0542446e-05 0)
(1.1179964 -8.4568318e-05 0)
(1.1179736 -7.8838888e-05 0)
(1.1179519 -7.3648203e-05 0)
(1.1179322 -6.8532176e-05 0)
(1.1179133 -6.4080868e-05 0)
(1.1178962 -5.9440489e-05 0)
(1.1178798 -5.5751726e-05 0)
(1.1178646 -5.1419559e-05 0)
(1.1178511 -4.8619876e-05 0)
(1.1178364 -4.4411189e-05 0)
(1.1178277 -4.2831967e-05 0)
(1.1178104 -3.8676027e-05 0)
(1.0016583 -0.05381943 0)
(1.0359761 -0.10128443 0)
(1.0597199 -0.11073663 0)
(1.0628947 -0.10592201 0)
(1.0515569 -0.096228728 0)
(1.0340529 -0.083934062 0)
(1.0142795 -0.070327065 0)
(0.99360702 -0.056981337 0)
(0.97292576 -0.045107482 0)
(0.95310739 -0.035236751 0)
(0.93479539 -0.027401649 0)
(0.91829013 -0.021387224 0)
(0.9036238 -0.016884495 0)
(0.89068068 -0.013569706 0)
(0.87928175 -0.011147748 0)
(0.86923241 -0.0093736608 0)
(0.86034422 -0.008056932 0)
(0.85244666 -0.0070571317 0)
(0.84539241 -0.0062752415 0)
(0.83905792 -0.0056438295 0)
(0.83334126 -0.0051180894 0)
(0.82815884 -0.0046686686 0)
(0.82344213 -0.0042764127 0)
(0.81913468 -0.0039287348 0)
(0.81518962 -0.0036172015 0)
(0.81156765 -0.003335971 0)
(0.80823543 -0.0030808069 0)
(0.80516439 -0.0028484731 0)
(0.80232978 -0.0026363732 0)
(0.79970999 -0.0024423407 0)
(0.79728597 -0.0022645184 0)
(0.79504087 -0.0021012869 0)
(0.79295964 -0.0019512207 0)
(0.79102881 -0.0018130582 0)
(0.78923628 -0.0016856802 0)
(0.7875711 -0.0015680919 0)
(0.78602338 -0.0014594081 0)
(0.78458411 -0.0013588404 0)
(0.7832451 -0.0012656857 0)
(0.78199888 -0.0011793157 0)
(0.7808386 -0.0010991683 0)
(0.77975799 -0.0010247389 0)
(0.77875129 -0.00095557332 0)
(0.77781319 -0.00089126147 0)
(0.77693882 -0.00083143123 0)
(0.77612369 -0.00077574404 0)
(0.77536363 -0.00072389055 0)
(0.7746548 -0.00067558783 0)
(0.77399367 -0.00063057665 0)
(0.77337693 -0.00058861942 0)
(0.77280153 -0.00054949859 0)
(0.77226465 -0.0005130145 0)
(0.77176364 -0.00047898393 0)
(0.77129608 -0.00044723787 0)
(0.77085969 -0.00041761959 0)
(0.77045236 -0.00038998334 0)
(0.77007212 -0.00036419267 0)
(0.76971717 -0.00034012029 0)
(0.7693858 -0.0003176476 0)
(0.76907643 -0.0002966648 0)
(0.7687876 -0.00027707116 0)
(0.76851792 -0.00025877407 0)
(0.76826612 -0.0002416888 0)
(0.76803099 -0.00022573673 0)
(0.76781142 -0.00021084401 0)
(0.76760638 -0.00019694062 0)
(0.76741489 -0.00018395935 0)
(0.76723608 -0.00017183636 0)
(0.76706908 -0.00016051181 0)
(0.76691314 -0.00014993029 0)
(0.76676751 -0.00014004253 0)
(0.7666315 -0.00013080366 0)
(0.76650449 -0.00012217432 0)
(0.76638585 -0.00011411697 0)
(0.76627504 -0.00010659669 0)
(0.76617153 -9.957704e-05 0)
(0.76607485 -9.3024038e-05 0)
(0.76598456 -8.6900888e-05 0)
(0.76590023 -8.1178466e-05 0)
(0.76582149 -7.5823679e-05 0)
(0.76574794 -7.081843e-05 0)
(0.76567927 -6.6134055e-05 0)
(0.76561512 -6.1763765e-05 0)
(0.76555523 -5.7675027e-05 0)
(0.76549924 -5.38697e-05 0)
(0.76544702 -5.0300215e-05 0)
(0.76539818 -4.6983074e-05 0)
(0.76535269 -4.3848097e-05 0)
(0.76531013 -4.0945058e-05 0)
(0.76527055 -3.8170866e-05 0)
(0.76523349 -3.5633388e-05 0)
(0.76519908 -3.3170229e-05 0)
(0.76516686 -3.097659e-05 0)
(0.76513687 -2.8785867e-05 0)
(0.76510911 -2.6924931e-05 0)
(0.76508258 -2.4969423e-05 0)
(0.76505956 -2.3457108e-05 0)
(0.76503449 -2.1772305e-05 0)
(0.7650186 -2.0776759e-05 0)
(0.76498917 -1.9827845e-05 0)
(0.91890839 -0.035821912 0)
(0.86271385 -0.062195638 0)
(0.78705971 -0.06251009 0)
(0.69536033 -0.054550395 0)
(0.61089745 -0.044531651 0)
(0.54411591 -0.034015972 0)
(0.49343012 -0.024187541 0)
(0.45479413 -0.016144231 0)
(0.42544582 -0.010265786 0)
(0.40347313 -0.0063041448 0)
(0.38715767 -0.0037976279 0)
(0.3749622 -0.0023103362 0)
(0.36566193 -0.0014930132 0)
(0.35836272 -0.0010851175 0)
(0.35244267 -0.00090607293 0)
(0.347482 -0.00084105346 0)
(0.34320347 -0.00082372632 0)
(0.33942725 -0.00081931226 0)
(0.33603793 -0.00081185286 0)
(0.33296114 -0.00079580081 0)
(0.33014778 -0.00077080994 0)
(0.32756385 -0.00073870739 0)
(0.3251842 -0.00070188737 0)
(0.32298902 -0.00066256456 0)
(0.32096172 -0.00062249967 0)
(0.31908785 -0.00058295876 0)
(0.31735449 -0.00054477365 0)
(0.31574995 -0.00050843631 0)
(0.3142636 -0.00047419309 0)
(0.31288574 -0.00044212489 0)
(0.31160755 -0.00041220841 0)
(0.31042102 -0.00038435953 0)
(0.30931883 -0.00035846249 0)
(0.30829438 -0.00033438827 0)
(0.30734165 -0.00031200578 0)
(0.30645515 -0.00029118821 0)
(0.30562991 -0.00027181619 0)
(0.30486136 -0.00025377941 0)
(0.30414535 -0.00023697677 0)
(0.30347806 -0.00022131618 0)
(0.30285601 -0.00020671389 0)
(0.30227596 -0.00019309358 0)
(0.30173497 -0.00018038557 0)
(0.3012303 -0.00016852578 0)
(0.30075942 -0.00015745507 0)
(0.30032002 -0.00014711872 0)
(0.29990993 -0.0001374658 0)
(0.29952714 -0.00012844927 0)
(0.29916982 -0.00012002558 0)
(0.29883624 -0.0001121547 0)
(0.29852478 -0.00010479994 0)
(0.29823397 -9.7927475e-05 0)
(0.29796242 -9.1506188e-05 0)
(0.29770884 -8.5506888e-05 0)
(0.29747202 -7.9902036e-05 0)
(0.29725085 -7.4665475e-05 0)
(0.29704429 -6.9772163e-05 0)
(0.29685137 -6.519866e-05 0)
(0.29667119 -6.0923075e-05 0)
(0.2965029 -5.6925513e-05 0)
(0.29634572 -5.3188164e-05 0)
(0.29619891 -4.9694852e-05 0)
(0.29606178 -4.6430989e-05 0)
(0.29593368 -4.338259e-05 0)
(0.29581402 -4.0536022e-05 0)
(0.29570224 -3.7877747e-05 0)
(0.29559783 -3.5394188e-05 0)
(0.2955003 -3.3072521e-05 0)
(0.29540921 -3.0900881e-05 0)
(0.29532412 -2.8868972e-05 0)
(0.29524464 -2.6968378e-05 0)
(0.2951704 -2.5191777e-05 0)
(0.29510105 -2.3533066e-05 0)
(0.29503626 -2.1985688e-05 0)
(0.29497573 -2.0542923e-05 0)
(0.29491918 -1.9196814e-05 0)
(0.29486636 -1.7939547e-05 0)
(0.29481702 -1.6762798e-05 0)
(0.29477094 -1.5660706e-05 0)
(0.2947279 -1.4627126e-05 0)
(0.2946877 -1.3660377e-05 0)
(0.29465015 -1.2755915e-05 0)
(0.29461507 -1.1914385e-05 0)
(0.2945823 -1.1128861e-05 0)
(0.29455169 -1.0400075e-05 0)
(0.2945231 -9.7160451e-06 0)
(0.29449639 -9.0801964e-06 0)
(0.29447148 -8.4760476e-06 0)
(0.29444821 -7.915906e-06 0)
(0.29442652 -7.3781915e-06 0)
(0.29440625 -6.8882319e-06 0)
(0.29438737 -6.414222e-06 0)
(0.29436973 -5.9946691e-06 0)
(0.29435329 -5.5835483e-06 0)
(0.29433799 -5.2274865e-06 0)
(0.2943236 -4.8847526e-06 0)
(0.29431051 -4.5867153e-06 0)
(0.29429745 -4.3909393e-06 0)
(0.29428699 -4.2321945e-06 0)
(0.29427163 -4.7208202e-06 0)
)
;

boundaryField
{
    top
    {
        type            fixedValue;
        value           uniform (0 0 0);
    }
    inlet
    {
        type            fixedValue;
        value           uniform (1 0 0);
    }
    outlet
    {
        type            zeroGradient;
    }
    bottom
    {
        type            fixedValue;
        value           uniform (0 0 0);
    }
    back
    {
        type            empty;
    }
    front
    {
        type            empty;
    }
}


// ************************************************************************* //
