/*--------------------------------*- C++ -*----------------------------------*\
| =========                 |                                                 |
| \\      /  F ield         | OpenFOAM: The Open Source CFD Toolbox           |
|  \\    /   O peration     | Version:  v1812                                 |
|   \\  /    A nd           | Web:      www.OpenFOAM.com                      |
|    \\/     M anipulation  |                                                 |
\*---------------------------------------------------------------------------*/
FoamFile
{
    version     2.0;
    format      ascii;
    class       surfaceScalarField;
    location    "19.05";
    object      phi;
}
// * * * * * * * * * * * * * * * * * * * * * * * * * * * * * * * * * * * * * //

dimensions      [0 3 -1 0 0 0 0];
oriented        oriented;


internalField   nonuniform List<scalar> 
1890
(
0.0093061958
0.00069380425
0.0082843931
0.0010218027
0.0073298986
0.00095449446
0.0064869553
0.00084294331
0.0057695845
0.00071737078
0.00518986
0.00057972443
0.004738168
0.00045169205
0.00439519
0.00034297802
0.0041390268
0.00025616318
0.003949107
0.00018991983
0.003807888
0.00014121897
0.0037013782
0.0001065098
0.003619058
8.2320219e-05
0.0035534117
6.5646243e-05
0.0034992845
5.4127248e-05
0.0034532444
4.6040037e-05
0.0034130502
4.0194282e-05
0.0033772574
3.5792748e-05
0.0033449386
3.2318757e-05
0.0033154894
2.9449282e-05
0.0032885008
2.6988583e-05
0.0032636805
2.4820307e-05
0.003240805
2.2875484e-05
0.0032196926
2.1112417e-05
0.0032001879
1.9504651e-05
0.0031821539
1.8034006e-05
0.0031654672
1.6686718e-05
0.0031500158
1.5451355e-05
0.0031356979
1.4317859e-05
0.0031224209
1.3277069e-05
0.0031101003
1.2320594e-05
0.0030986596
1.1440724e-05
0.0030880292
1.0630439e-05
0.0030781458
9.8833689e-06
0.003068952
9.1937715e-06
0.0030603955
8.556492e-06
0.0030524286
7.9669098e-06
0.0030450077
7.4208933e-06
0.0030380929
6.9147388e-06
0.0030316478
6.4451178e-06
0.0030256388
6.0090528e-06
0.0030200349
5.6038451e-06
0.0030148079
5.2270746e-06
0.0030099313
4.8765404e-06
0.0030053811
4.550251e-06
0.0030011347
4.2464021e-06
0.0029971713
3.963336e-06
0.0029934717
3.6995567e-06
0.002990018
3.4536771e-06
0.0029867936
3.2244184e-06
0.002983783
3.0106176e-06
0.0029809718
2.8111754e-06
0.0029783468
2.6250945e-06
0.0029758953
2.4514444e-06
0.002973606
2.2893597e-06
0.0029714679
2.1380635e-06
0.0029694711
1.9968116e-06
0.0029676061
1.8649549e-06
0.0029658642
1.7418594e-06
0.0029642373
1.6269403e-06
0.0029627176
1.5196526e-06
0.0029612982
1.4194677e-06
0.0029599723
1.3259073e-06
0.0029587338
1.2385122e-06
0.002957577
1.1568623e-06
0.0029564964
1.0805851e-06
0.002955487
1.0093251e-06
0.0029545442
9.4276826e-07
0.0029536635
8.806343e-07
0.0029528409
8.2261839e-07
0.0029520724
7.6846691e-07
0.0029513546
7.1789784e-07
0.002950684
6.7064919e-07
0.0029500575
6.2648531e-07
0.0029494724
5.8519191e-07
0.0029489258
5.4657998e-07
0.0029484152
5.1051221e-07
0.0029479383
4.7681367e-07
0.0029474929
4.4539907e-07
0.0029470768
4.1607777e-07
0.002946688
3.8875273e-07
0.0029463249
3.6320967e-07
0.0029459856
3.393562e-07
0.0029456687
3.1698358e-07
0.0029453726
2.9608159e-07
0.0029450962
2.7642261e-07
0.0029448379
2.5821252e-07
0.0029445967
2.4105789e-07
0.0029443712
2.2532783e-07
0.0029441609
2.1041287e-07
0.0029439642
1.9684727e-07
0.0029437803
1.8377532e-07
0.0029436083
1.7211607e-07
0.002943448
1.6037783e-07
0.0029432978
1.5018561e-07
0.0029431574
1.4029304e-07
0.0029430254
1.3210929e-07
0.0029429003
1.2511195e-07
0.0029427808
1.1941373e-07
1.2577314e-07
0.010339525
0.00035427931
0.010570754
0.00079057333
0.010606301
0.00091894817
0.010547572
0.00090167133
0.010422317
0.0008426262
0.010244356
0.00075768557
0.010039421
0.00065662743
0.0098287427
0.00055365586
0.009625135
0.00045977083
0.0094353013
0.00037975353
0.0092624277
0.00031409258
0.0091075333
0.00026140425
0.008970154
0.00021969948
0.0088489024
0.00018689785
0.0087419716
0.00016105801
0.0086474927
0.00014051893
0.008563694
0.00012399295
0.0084890108
0.00011047599
0.0084221097
9.9219866e-05
0.0083618776
8.9681405e-05
0.0083073955
8.1470669e-05
0.0082579079
7.4307848e-05
0.0082127929
6.7990493e-05
0.0081715354
6.2369982e-05
0.008133705
5.7335005e-05
0.0080989388
5.2800173e-05
0.0080669273
4.8698255e-05
0.0080374037
4.4974949e-05
0.0080101362
4.1585385e-05
0.0079849214
3.8491845e-05
0.0079615798
3.5662154e-05
0.0079399519
3.3068611e-05
0.0079198952
3.0687171e-05
0.0079012817
2.8496847e-05
0.0078839962
2.6479237e-05
0.0078679346
2.4618137e-05
0.0078530023
2.2899236e-05
0.0078391133
2.1309839e-05
0.0078261894
1.9838656e-05
0.0078141589
1.8475607e-05
0.0078029563
1.7211662e-05
0.0077925214
1.6038723e-05
0.007782799
1.4949477e-05
0.0077737382
1.3937336e-05
0.0077652921
1.2996319e-05
0.0077574175
1.2120999e-05
0.0077500744
1.1306447e-05
0.0077432258
1.0548142e-05
0.0077368375
9.8419655e-06
0.0077308778
9.1841289e-06
0.0077253173
8.571141e-06
0.0077201287
7.9998106e-06
0.0077152866
7.4671644e-06
0.0077107676
6.9704837e-06
0.0077065497
6.5072494e-06
0.0077026126
6.0751346e-06
0.0076989374
5.6720143e-06
0.0076955064
5.2958972e-06
0.0076923033
4.9449569e-06
0.0076893128
4.6174707e-06
0.0076865206
4.3118347e-06
0.0076839136
4.0265683e-06
0.0076814792
3.7602636e-06
0.0076792061
3.5116425e-06
0.0076770834
3.2795039e-06
0.0076751012
3.0627425e-06
0.0076732502
2.8603537e-06
0.0076715215
2.6713916e-06
0.0076699072
2.4949745e-06
0.0076683996
2.3302876e-06
0.0076669915
2.1765256e-06
0.0076656765
2.0329408e-06
0.0076644483
1.8988383e-06
0.0076633013
1.773544e-06
0.0076622299
1.6564947e-06
0.0076612293
1.5471318e-06
0.0076602948
1.445006e-06
0.007659422
1.3496363e-06
0.0076586068
1.260647e-06
0.0076578453
1.1775476e-06
0.0076571341
1.100037e-06
0.0076564698
1.0275344e-06
0.0076558492
9.5989948e-07
0.0076552697
8.9649845e-07
0.0076547283
8.3743526e-07
0.0076542228
7.8189415e-07
0.0076537505
7.3046514e-07
0.0076533094
6.8214031e-07
0.0076528972
6.3760731e-07
0.0076525127
5.9496926e-07
0.0076521528
5.5670645e-07
0.0076518171
5.195325e-07
0.0076515027
4.8640596e-07
0.0076512105
4.5245668e-07
0.0076509355
4.2510388e-07
0.0076506807
3.9525715e-07
0.0076504386
3.7432837e-07
0.0076502165
3.4709849e-07
0.0076499999
3.3606787e-07
3.107726e-07
0.010188704
0.00016557515
0.010530487
0.00044879097
0.010851453
0.00059798174
0.011124174
0.00062895021
0.011350581
0.00061621883
0.011524486
0.00058378053
0.01164633
0.00053478419
0.011724155
0.00047583049
0.011767999
0.00041592665
0.011786639
0.00036111399
0.011787114
0.0003136171
0.011775058
0.00027346024
0.011754861
0.00023989717
0.011729768
0.00021199029
0.011702054
0.00018877259
0.011673239
0.00016933387
0.011644339
0.00015289295
0.011616003
0.00013881182
0.011588629
0.00012659378
0.011562446
0.00011586444
0.011537572
0.00010634493
0.011514052
9.7826992e-05
0.01149189
9.0153352e-05
0.011471056
8.3203354e-05
0.011451509
7.68826e-05
0.011433193
7.111555e-05
0.011416051
6.5840286e-05
0.011400021
6.1004901e-05
0.011385042
5.6565063e-05
0.011371051
5.2482331e-05
0.01135799
4.8723023e-05
0.011345801
4.5257384e-05
0.01133443
4.205899e-05
0.011323822
3.9104265e-05
0.011313929
3.6372111e-05
0.011304704
3.3843595e-05
0.011296101
3.1501682e-05
0.01128808
2.933101e-05
0.011280601
2.7317696e-05
0.011273628
2.5449172e-05
0.011267125
2.3714047e-05
0.011261062
2.2101949e-05
0.011255408
2.0603452e-05
0.011250135
1.9209944e-05
0.011245218
1.7913563e-05
0.011240632
1.6707109e-05
0.011236354
1.5583977e-05
0.011232365
1.4538111e-05
0.011228643
1.3563927e-05
0.01122517
1.2656293e-05
0.011221931
1.1810482e-05
0.011218909
1.1022103e-05
0.011216089
1.0287131e-05
0.011213457
9.6018188e-06
0.011211002
8.9627128e-06
0.01120871
8.3666256e-06
0.011206572
7.8105946e-06
0.011204576
7.2918839e-06
0.011202713
6.8079264e-06
0.011200974
6.3563527e-06
0.011199351
5.9349623e-06
0.011197836
5.5416808e-06
0.011196422
5.174617e-06
0.011195101
4.8319818e-06
0.011193868
4.5121413e-06
0.011192718
4.2135643e-06
0.011191643
3.9348328e-06
0.01119064
3.6746279e-06
0.011189703
3.4317209e-06
0.011188829
3.2049305e-06
0.011188012
2.9931978e-06
0.011187249
2.7954718e-06
0.011186537
2.6108286e-06
0.011185873
2.4383761e-06
0.011185252
2.277337e-06
0.011184672
2.1269241e-06
0.01118413
1.986508e-06
0.011183625
1.8553628e-06
0.011183152
1.7329881e-06
0.011182711
1.6186397e-06
0.011182299
1.5119374e-06
0.011181915
1.4121233e-06
0.011181556
1.3190704e-06
0.01118122
1.2318463e-06
0.011180907
1.1506898e-06
0.011180614
1.0745135e-06
0.011180341
1.0041091e-06
0.011180086
9.3726543e-07
0.011179847
8.7617794e-07
0.011179625
8.1774931e-07
0.011179416
7.6533081e-07
0.011179222
7.1274115e-07
0.01117904
6.6809586e-07
0.011178872
6.2105137e-07
0.011178712
5.8532439e-07
0.011178566
5.4112399e-07
0.011178425
5.151618e-07
0.0111783
4.7226013e-07
0.011178177
4.5903616e-07
4.1607579e-07
0.010097182
6.8393549e-05
0.010346961
0.0001990111
0.010662469
0.00028247385
0.010982753
0.00030866646
0.011290229
0.00030874339
0.011575251
0.00029875786
0.011829022
0.00028101344
0.012047865
0.00025698754
0.012233272
0.00023051981
0.01238924
0.00020514589
0.012520295
0.00018256234
0.012630755
0.00016299955
0.012724428
0.00014622489
0.012804515
0.0001319031
0.012873613
0.00011967425
0.012933772
0.0001091746
0.012986596
0.00010006906
0.013033332
9.2076357e-05
0.01307495
8.4975242e-05
0.013112216
7.8598601e-05
0.013145739
7.2822292e-05
0.013176012
6.7553929e-05
0.013203441
6.2723912e-05
0.013228366
5.8278881e-05
0.013251071
5.4176974e-05
0.013271802
5.0384421e-05
0.01329077
4.6873155e-05
0.013308155
4.3619172e-05
0.013324119
4.0601452e-05
0.0133388
3.7801273e-05
0.013352321
3.5201747e-05
0.013364791
3.2787527e-05
0.013376306
3.0544588e-05
0.01338695
2.8460081e-05
0.0133968
2.652221e-05
0.013405923
2.4720124e-05
0.013414381
2.3043834e-05
0.013422228
2.1484138e-05
0.013429513
2.0032556e-05
0.013436281
1.8681267e-05
0.013442572
1.7423055e-05
0.013448423
1.6251269e-05
0.013453866
1.5159751e-05
0.013458933
1.4142819e-05
0.013463652
1.3195214e-05
0.013468047
1.2312068e-05
0.013472142
1.1488871e-05
0.013475959
1.0721441e-05
0.013479517
1.000591e-05
0.013482834
9.338686e-06
0.013485928
8.7164308e-06
0.013488814
8.1360606e-06
0.013491507
7.5946906e-06
0.013494019
7.0896597e-06
0.013496363
6.6184914e-06
0.013498551
6.1788841e-06
0.013500593
5.7686954e-06
0.013502499
5.3859231e-06
0.013504278
5.0287138e-06
0.013505939
4.695336e-06
0.01350749
4.384172e-06
0.013508938
4.093735e-06
0.01351029
3.8226191e-06
0.013511552
3.5695367e-06
0.013512731
3.33328e-06
0.013513832
3.1127275e-06
0.01351486
2.9068346e-06
0.01351582
2.7146134e-06
0.013516716
2.5351536e-06
0.013517554
2.3675963e-06
0.013518336
2.2111267e-06
0.013519066
2.0650102e-06
0.013519748
1.9285693e-06
0.013520386
1.8011469e-06
0.013520981
1.6821895e-06
0.013521537
1.571094e-06
0.013522056
1.4673867e-06
0.013522541
1.3705146e-06
0.013522994
1.2801029e-06
0.013523417
1.1955891e-06
0.013523812
1.1167271e-06
0.013524181
1.042934e-06
0.013524526
9.7418759e-07
0.013524848
9.0972513e-07
0.013525149
8.4991932e-07
0.01352543
7.9366338e-07
0.013525692
7.4161652e-07
0.013525937
6.921677e-07
0.013526166
6.4738604e-07
0.01352638
6.0397377e-07
0.01352658
5.6508632e-07
0.013526766
5.2577858e-07
0.013526941
4.9373647e-07
0.013527104
4.5849043e-07
0.013527257
4.3264772e-07
0.013527398
3.9886127e-07
0.013527533
3.8076586e-07
0.013527659
3.4709784e-07
0.013527779
3.3803256e-07
3.0563337e-07
0.010068394
-5.0927311e-12
0.010267405
-1.3181056e-11
0.010549879
-1.4263741e-11
0.010858545
-1.2281253e-11
0.011167288
-9.6260779e-12
0.011466046
-9.6172837e-12
0.01174706
-1.0423475e-11
0.012004047
-1.1937286e-11
0.012234567
-1.3438455e-11
0.012439713
-1.5211154e-11
0.012622275
-1.567782e-11
0.012785275
-1.4559569e-11
0.0129315
-1.3518368e-11
0.013063403
-1.2181049e-11
0.013183077
-1.0809724e-11
0.013292252
-9.7344031e-12
0.013392321
-9.0899331e-12
0.013484397
-9.6256316e-12
0.013569373
-9.9815138e-12
0.013647971
-9.8896608e-12
0.013720793
-9.3855321e-12
0.013788347
-9.6027768e-12
0.013851071
-1.0375835e-11
0.01390935
-1.3766467e-11
0.013963527
-1.4965474e-11
0.014013912
-1.149308e-11
0.014060785
-8.2026296e-12
0.014104404
-7.0690737e-12
0.014145005
-6.1539404e-12
0.014182807
-6.1980632e-12
0.014218008
-4.8696801e-12
0.014250796
-5.0905372e-12
0.014281341
-7.5284415e-12
0.014309801
-1.2565086e-11
0.014336323
-1.7406616e-11
0.014361043
-1.7428628e-11
0.014384087
-1.0987851e-11
0.014405571
-3.0200706e-12
0.014425604
3.6368324e-12
0.014444285
5.6874098e-12
0.014461708
2.1164968e-12
0.014477959
-6.3608153e-12
0.014493119
-1.4267888e-11
0.014507262
-1.9374892e-11
0.014520457
-1.8819141e-11
0.014532769
-1.3071278e-11
0.014544258
-6.1012043e-12
0.014554979
-2.3575288e-13
0.014564985
5.8492989e-12
0.014574324
1.1048306e-11
0.01458304
1.0296621e-11
0.014591177
1.8786914e-12
0.014598771
-9.720659e-12
0.014605861
-2.0564385e-11
0.014612479
-2.7299769e-11
0.014618658
-2.5298254e-11
0.014624427
-1.3671858e-11
0.014629813
4.9818931e-13
0.014634842
1.8398364e-11
0.014639537
2.7690568e-11
0.014643921
2.7309934e-11
0.014648015
1.7793802e-11
0.014651837
5.7003848e-12
0.014655407
-9.5209233e-12
0.01465874
-2.0037792e-11
0.014661853
-1.8859789e-11
0.01466476
-1.0244974e-11
0.014667475
5.554222e-12
0.01467001
2.8078645e-11
0.014672377
4.0221271e-11
0.014674588
3.9399164e-11
0.014676653
2.0462894e-11
0.014678582
1.762322e-13
0.014680383
-2.4170093e-11
0.014682066
-3.6536162e-11
0.014683636
-2.3945211e-11
0.014685103
-4.3445398e-12
0.014686474
2.029215e-11
0.014687755
4.595117e-11
0.01468895
4.632204e-11
0.014690066
2.0282784e-11
0.01469111
-6.23317e-12
0.014692084
-3.0050324e-11
0.014692993
-4.0149926e-11
0.014693843
-2.5014146e-11
0.014694638
-1.0146213e-11
0.014695379
2.5286973e-11
0.01469607
7.1616807e-11
0.014696718
9.4406061e-11
0.014697323
3.3105727e-11
0.014697887
-3.3948107e-11
0.014698412
-8.8214993e-11
0.014698907
-1.4682801e-10
0.014699366
5.6989003e-12
0.014699798
2.0636998e-10
0.014700196
1.1026227e-10
0.014700577
-8.2781689e-11
0.014700925
-8.4137871e-11
0.014701263
-5.3382984e-11
-6.780443e-11
0.010068394
-6.8393558e-05
0.010267405
-0.00019901113
0.010549879
-0.00028247388
0.010858545
-0.00030866649
0.011167288
-0.00030874342
0.011466046
-0.00029875789
0.01174706
-0.00028101346
0.012004047
-0.00025698756
0.012234567
-0.00023051983
0.012439713
-0.00020514591
0.012622275
-0.00018256236
0.012785275
-0.00016299958
0.0129315
-0.00014622491
0.013063403
-0.00013190313
0.013183077
-0.00011967427
0.013292252
-0.00010917462
0.013392321
-0.00010006908
0.013484397
-9.2076369e-05
0.013569373
-8.4975256e-05
0.013647971
-7.8598618e-05
0.013720793
-7.2822308e-05
0.013788347
-6.7553942e-05
0.013851071
-6.2723931e-05
0.01390935
-5.8278907e-05
0.013963527
-5.4176999e-05
0.014013912
-5.0384442e-05
0.014060785
-4.6873171e-05
0.014104404
-4.3619184e-05
0.014145005
-4.0601463e-05
0.014182807
-3.7801282e-05
0.014218008
-3.5201758e-05
0.014250796
-3.2787538e-05
0.014281341
-3.0544603e-05
0.014309801
-2.8460105e-05
0.014336323
-2.6522239e-05
0.014361043
-2.4720149e-05
0.014384087
-2.304385e-05
0.014405571
-2.1484144e-05
0.014425604
-2.0032552e-05
0.014444285
-1.8681259e-05
0.014461708
-1.7423058e-05
0.014477959
-1.625128e-05
0.014493119
-1.5159773e-05
0.014507262
-1.4142848e-05
0.014520457
-1.3195243e-05
0.014532769
-1.2312091e-05
0.014544258
-1.1488882e-05
0.014554979
-1.0721443e-05
0.014564985
-1.0005901e-05
0.014574324
-9.3386711e-06
0.01458304
-8.7164254e-06
0.014591177
-8.1360627e-06
0.014598771
-7.5947084e-06
0.014605861
-7.0896905e-06
0.014612479
-6.6185267e-06
0.014618658
-6.1789137e-06
0.014624427
-5.7687085e-06
0.014629813
-5.3859217e-06
0.014634842
-5.028693e-06
0.014639537
-4.6952948e-06
0.014643921
-4.384133e-06
0.014648015
-4.0937039e-06
0.014651837
-3.8226088e-06
0.014655407
-3.5695455e-06
0.01465874
-3.3333082e-06
0.014661853
-3.1127596e-06
0.01466476
-2.9068491e-06
0.014667475
-2.7146052e-06
0.01467001
-2.5351192e-06
0.014672377
-2.3675336e-06
0.014674588
-2.211078e-06
0.014676653
-2.064982e-06
0.014678582
-1.9285712e-06
0.014680383
-1.8011803e-06
0.014682066
-1.6822246e-06
0.014683636
-1.5711148e-06
0.014685103
-1.467385e-06
0.014686474
-1.3704913e-06
0.014687755
-1.2800643e-06
0.01468895
-1.1955429e-06
0.014690066
-1.1167093e-06
0.01469111
-1.0429546e-06
0.014692084
-9.7420998e-07
0.014692993
-9.0975815e-07
0.014693843
-8.4995328e-07
0.014694638
-7.9366516e-07
0.014695379
-7.4157803e-07
0.01469607
-6.921068e-07
0.014696718
-6.4729613e-07
0.014697323
-6.038388e-07
0.014697887
-5.6523249e-07
0.014698412
-5.2609572e-07
0.014698907
-4.936203e-07
0.014699366
-4.5819136e-07
0.014699798
-4.3271309e-07
0.014700196
-3.9910028e-07
0.014700577
-3.8084577e-07
0.014700925
-3.4701441e-07
0.014701263
-3.3801902e-07
-3.0572177e-07
0.010097182
-0.00016557515
0.010346961
-0.000448791
0.010662469
-0.00059798177
0.010982753
-0.00062895025
0.011290229
-0.00061621886
0.011575251
-0.00058378055
0.011829022
-0.0005347842
0.012047865
-0.0004758305
0.012233272
-0.00041592666
0.01238924
-0.000361114
0.012520295
-0.00031361712
0.012630755
-0.00027346026
0.012724428
-0.00023989719
0.012804515
-0.00021199032
0.012873613
-0.00018877261
0.012933772
-0.00016933388
0.012986596
-0.00015289296
0.013033332
-0.00013881183
0.01307495
-0.00012659379
0.013112216
-0.00011586445
0.013145739
-0.00010634494
0.013176012
-9.7827003e-05
0.013203441
-9.0153368e-05
0.013228366
-8.3203373e-05
0.013251071
-7.6882621e-05
0.013271802
-7.1115567e-05
0.01329077
-6.5840297e-05
0.013308155
-6.100491e-05
0.013324119
-5.6565071e-05
0.0133388
-5.248234e-05
0.013352321
-4.8723028e-05
0.013364791
-4.5257391e-05
0.013376305
-4.2059001e-05
0.01338695
-3.9104279e-05
0.0133968
-3.637213e-05
0.013405923
-3.3843616e-05
0.013414381
-3.1501699e-05
0.013422228
-2.9331017e-05
0.013429513
-2.7317698e-05
0.013436281
-2.5449175e-05
0.013442572
-2.3714046e-05
0.013448422
-2.2101954e-05
0.013453866
-2.0603463e-05
0.013458933
-1.920996e-05
0.013463652
-1.791358e-05
0.013468047
-1.6707124e-05
0.013472142
-1.5583991e-05
0.013475958
-1.4538116e-05
0.013479517
-1.3563931e-05
0.013482834
-1.2656299e-05
0.013485928
-1.181048e-05
0.013488814
-1.1022105e-05
0.013491507
-1.0287133e-05
0.013494019
-9.6018241e-06
0.013496363
-8.9627255e-06
0.013498551
-8.3666436e-06
0.013500593
-7.8106173e-06
0.013502499
-7.2918901e-06
0.013504278
-6.8079191e-06
0.013505939
-6.356336e-06
0.01350749
-5.9349282e-06
0.013508938
-5.5416494e-06
0.01351029
-5.1745942e-06
0.013511552
-4.8319811e-06
0.013512731
-4.5121523e-06
0.013513832
-4.2135825e-06
0.01351486
-3.9348557e-06
0.01351582
-3.6746381e-06
0.013516716
-3.4317107e-06
0.013517554
-3.2049145e-06
0.013518336
-2.9931621e-06
0.013519066
-2.7954381e-06
0.013519748
-2.6108079e-06
0.013520386
-2.4383701e-06
0.013520981
-2.2773475e-06
0.013521537
-2.1269536e-06
0.013522056
-1.9865479e-06
0.013522541
-1.8553926e-06
0.013522994
-1.7329865e-06
0.013523417
-1.6186115e-06
0.013523812
-1.5118967e-06
0.013524181
-1.4120805e-06
0.013524526
-1.3190411e-06
0.013524848
-1.231847e-06
0.013525149
-1.1507687e-06
0.01352543
-1.0745675e-06
0.013525692
-1.0040491e-06
0.013525937
-9.3724087e-07
0.013526166
-8.7631516e-07
0.01352638
-8.177857e-07
0.01352658
-7.6501421e-07
0.013526766
-7.1251768e-07
0.013526941
-6.6836736e-07
0.013527104
-6.2133637e-07
0.013527257
-5.8524428e-07
0.013527398
-5.4103796e-07
0.013527533
-5.1517716e-07
0.013527658
-4.7221593e-07
0.013527779
-4.5901296e-07
-4.1608023e-07
0.010188704
-0.00035427932
0.010530487
-0.00079057335
0.010851453
-0.0009189482
0.011124174
-0.00090167137
0.011350581
-0.00084262623
0.011524486
-0.00075768559
0.01164633
-0.00065662744
0.011724155
-0.00055365586
0.011767999
-0.00045977083
0.011786639
-0.00037975354
0.011787114
-0.00031409259
0.011775058
-0.00026140427
0.011754861
-0.00021969949
0.011729768
-0.00018689787
0.011702054
-0.00016105802
0.011673239
-0.00014051894
0.011644339
-0.00012399295
0.011616003
-0.00011047599
0.011588629
-9.9219868e-05
0.011562446
-8.9681405e-05
0.011537572
-8.1470672e-05
0.011514052
-7.4307852e-05
0.011491889
-6.7990502e-05
0.011471056
-6.2369993e-05
0.011451509
-5.7335017e-05
0.011433193
-5.2800185e-05
0.011416051
-4.8698266e-05
0.011400021
-4.4974955e-05
0.011385041
-4.1585392e-05
0.011371051
-3.8491848e-05
0.01135799
-3.5662157e-05
0.011345801
-3.3068613e-05
0.01133443
-3.0687174e-05
0.011323822
-2.8496852e-05
0.011313929
-2.6479245e-05
0.011304704
-2.461815e-05
0.011296101
-2.289925e-05
0.01128808
-2.1309853e-05
0.011280601
-1.9838667e-05
0.011273628
-1.8475613e-05
0.011267125
-1.7211665e-05
0.011261062
-1.6038718e-05
0.011255408
-1.4949474e-05
0.011250135
-1.3937334e-05
0.011245218
-1.2996322e-05
0.011240632
-1.2121011e-05
0.011236354
-1.1306459e-05
0.011232364
-1.0548158e-05
0.011228643
-9.8419813e-06
0.01122517
-9.1841398e-06
0.011221931
-8.5711504e-06
0.011218909
-7.999806e-06
0.011216089
-7.4671533e-06
0.011213457
-6.9704672e-06
0.011211002
-6.5072358e-06
0.01120871
-6.0751385e-06
0.011206572
-5.6720286e-06
0.011204576
-5.2959217e-06
0.011202713
-4.9449759e-06
0.011200974
-4.6174774e-06
0.011199351
-4.3118288e-06
0.011197836
-4.026541e-06
0.011196421
-3.7602324e-06
0.011195101
-3.5116124e-06
0.011193868
-3.2794861e-06
0.011192718
-3.062746e-06
0.011191643
-2.8603748e-06
0.01119064
-2.6714242e-06
0.011189703
-2.4950126e-06
0.011188829
-2.3303053e-06
0.011188012
-2.1765223e-06
0.011187249
-2.0329089e-06
0.011186537
-1.8987873e-06
0.011185873
-1.7734971e-06
0.011185252
-1.6564708e-06
0.011184672
-1.5471444e-06
0.01118413
-1.445061e-06
0.011183625
-1.3497079e-06
0.011183152
-1.2607108e-06
0.011182711
-1.1775667e-06
0.0111823
-1.1000017e-06
0.011181915
-1.0274631e-06
0.011181556
-9.5980901e-07
0.01118122
-8.9644215e-07
0.011180907
-8.374372e-07
0.011180614
-7.8196299e-07
0.011180341
-7.3056095e-07
0.011180086
-6.8220089e-07
0.011179847
-6.3767103e-07
0.011179624
-5.9502654e-07
0.011179416
-5.5653718e-07
0.011179223
-5.1916382e-07
0.01117904
-4.8629993e-07
0.011178872
-4.5279559e-07
0.011178712
-4.2541961e-07
0.011178566
-3.9518373e-07
0.011178425
-3.7415286e-07
0.0111783
-3.4705193e-07
0.011178177
-3.3599689e-07
-3.107009e-07
0.010339525
-0.00069380425
0.010570754
-0.0010218027
0.010606301
-0.00095449448
0.010547572
-0.00084294333
0.010422317
-0.0007173708
0.010244356
-0.00057972444
0.010039421
-0.00045169205
0.0098287427
-0.00034297801
0.009625135
-0.00025616318
0.0094353013
-0.00018991983
0.0092624277
-0.00014121897
0.0091075332
-0.0001065098
0.008970154
-8.2320226e-05
0.0088489023
-6.5646249e-05
0.0087419716
-5.4127255e-05
0.0086474927
-4.6040044e-05
0.008563694
-4.0194286e-05
0.0084890108
-3.5792751e-05
0.0084221096
-3.2318757e-05
0.0083618775
-2.9449282e-05
0.0083073954
-2.698858e-05
0.0082579079
-2.4820304e-05
0.0082127929
-2.2875483e-05
0.0081715353
-2.1112419e-05
0.0081337049
-1.9504656e-05
0.0080989388
-1.8034017e-05
0.0080669272
-1.6686727e-05
0.0080374036
-1.5451365e-05
0.0080101361
-1.4317864e-05
0.0079849213
-1.3277073e-05
0.0079615798
-1.2320592e-05
0.0079399519
-1.144072e-05
0.0079198951
-1.0630433e-05
0.0079012816
-9.8833644e-06
0.0078839962
-9.1937718e-06
0.0078679345
-8.5564986e-06
0.0078530022
-7.9669234e-06
0.0078391132
-7.4209093e-06
0.0078261893
-6.9147518e-06
0.0078141588
-6.4451279e-06
0.0078029562
-6.0090527e-06
0.0077925213
-5.6038394e-06
0.0077827989
-5.2270627e-06
0.0077737381
-4.8765282e-06
0.0077652921
-4.5502453e-06
0.0077574175
-4.2464029e-06
0.0077500744
-3.9633491e-06
0.0077432258
-3.6995749e-06
0.0077368375
-3.4536963e-06
0.0077308778
-3.224438e-06
0.0077253172
-3.0106243e-06
0.0077201286
-2.8111712e-06
0.0077152865
-2.6250772e-06
0.0077107675
-2.4514169e-06
0.0077065496
-2.2893373e-06
0.0077026125
-2.1380503e-06
0.0076989373
-1.9968241e-06
0.0076955064
-1.8649807e-06
0.0076923033
-1.7418919e-06
0.0076893128
-1.6269694e-06
0.0076865206
-1.5196622e-06
0.0076839135
-1.4194567e-06
0.0076814791
-1.3258747e-06
0.007679206
-1.2384687e-06
0.0076770834
-1.156826e-06
0.0076751012
-1.0805665e-06
0.0076732502
-1.009338e-06
0.0076715216
-9.4281285e-07
0.0076699072
-8.8068731e-07
0.0076683996
-8.2266956e-07
0.0076669915
-7.6848691e-07
0.0076656765
-7.1787607e-07
0.0076644483
-6.7059681e-07
0.0076633012
-6.2641693e-07
0.0076622299
-5.851395e-07
0.0076612294
-5.4656866e-07
0.0076602949
-5.1054638e-07
0.007659422
-4.7689424e-07
0.0076586068
-4.4548554e-07
0.0076578453
-4.1613714e-07
0.0076571341
-3.8875526e-07
0.0076564698
-3.631484e-07
0.0076558492
-3.3926424e-07
0.0076552697
-3.1688e-07
0.0076547283
-2.9604361e-07
0.0076542229
-2.7645985e-07
0.0076537506
-2.5827296e-07
0.0076533094
-2.4117228e-07
0.0076528971
-2.2548421e-07
0.0076525126
-2.1041842e-07
0.0076521529
-1.9666793e-07
0.0076518172
-1.8360985e-07
0.0076515028
-1.7205702e-07
0.0076512105
-1.6040666e-07
0.0076509355
-1.50288e-07
0.0076506807
-1.4040421e-07
0.0076504385
-1.3208734e-07
0.0076502165
-1.2500293e-07
0.0076499999
-1.1933794e-07
-1.257157e-07
0.0093061957
0.0082843931
0.0073298986
0.0064869553
0.0057695845
0.00518986
0.004738168
0.00439519
0.0041390268
0.003949107
0.003807888
0.0037013782
0.003619058
0.0035534117
0.0034992845
0.0034532444
0.0034130501
0.0033772574
0.0033449386
0.0033154893
0.0032885008
0.0032636805
0.003240805
0.0032196926
0.0032001879
0.0031821539
0.0031654672
0.0031500158
0.0031356979
0.0031224208
0.0031101003
0.0030986595
0.0030880291
0.0030781458
0.003068952
0.0030603955
0.0030524286
0.0030450076
0.0030380929
0.0030316478
0.0030256387
0.0030200349
0.0030148078
0.0030099313
0.0030053811
0.0030011347
0.0029971713
0.0029934717
0.002990018
0.0029867936
0.0029837829
0.0029809718
0.0029783467
0.0029758953
0.002973606
0.0029714679
0.0029694711
0.0029676061
0.0029658642
0.0029642372
0.0029627175
0.0029612981
0.0029599722
0.0029587338
0.002957577
0.0029564965
0.0029554871
0.0029545443
0.0029536635
0.0029528408
0.0029520723
0.0029513545
0.0029506839
0.0029500575
0.0029494724
0.0029489259
0.0029484153
0.0029479384
0.0029474928
0.0029470767
0.0029466879
0.0029463248
0.0029459856
0.0029456687
0.0029453727
0.0029450963
0.002944838
0.0029445965
0.0029443711
0.002944161
0.0029439642
0.0029437802
0.0029436083
0.0029434482
0.002943298
0.0029431574
0.0029430253
0.0029429003
0.0029427809
)
;

boundaryField
{
    top
    {
        type            calculated;
        value           uniform 0;
    }
    inlet
    {
        type            calculated;
        value           nonuniform List<scalar> 10(-0.01 -0.01 -0.01 -0.01 -0.01 -0.01 -0.01 -0.01 -0.01 -0.01);
    }
    outlet
    {
        type            calculated;
        value           nonuniform List<scalar> 10(0.002942655 0.0076498149 0.011178072 0.01352789 0.014701568 0.014701568 0.01352789 0.011178072 0.0076498149 0.0029426552);
    }
    bottom
    {
        type            calculated;
        value           uniform 0;
    }
    back
    {
        type            empty;
        value           nonuniform 0();
    }
    front
    {
        type            empty;
        value           nonuniform 0();
    }
}


// ************************************************************************* //
