/*--------------------------------*- C++ -*----------------------------------*\
| =========                 |                                                 |
| \\      /  F ield         | OpenFOAM: The Open Source CFD Toolbox           |
|  \\    /   O peration     | Version:  v1812                                 |
|   \\  /    A nd           | Web:      www.OpenFOAM.com                      |
|    \\/     M anipulation  |                                                 |
\*---------------------------------------------------------------------------*/
FoamFile
{
    version     2.0;
    format      ascii;
    class       volVectorField;
    location    "18";
    object      U;
}
// * * * * * * * * * * * * * * * * * * * * * * * * * * * * * * * * * * * * * //

dimensions      [0 1 -1 0 0 0 0];


internalField   nonuniform List<vector> 
1000
(
(0.91890839 0.035821912 0)
(0.86271384 0.062195638 0)
(0.7870597 0.062510089 0)
(0.69536033 0.054550394 0)
(0.61089745 0.04453165 0)
(0.54411592 0.034015971 0)
(0.49343012 0.02418754 0)
(0.45479414 0.01614423 0)
(0.42544583 0.010265786 0)
(0.40347313 0.0063041453 0)
(0.38715767 0.0037976293 0)
(0.3749622 0.0023103382 0)
(0.36566193 0.001493015 0)
(0.35836272 0.0010851183 0)
(0.35244268 0.00090607198 0)
(0.34748201 0.00084105105 0)
(0.34320348 0.00082372347 0)
(0.33942726 0.00081930988 0)
(0.33603793 0.00081185196 0)
(0.33296114 0.00079580153 0)
(0.33014778 0.0007708122 0)
(0.32756384 0.00073871018 0)
(0.3251842 0.00070188973 0)
(0.32298902 0.00066256562 0)
(0.32096172 0.00062249904 0)
(0.31908785 0.00058295641 0)
(0.31735449 0.00054477061 0)
(0.31574996 0.00050843327 0)
(0.3142636 0.00047419134 0)
(0.31288575 0.00044212471 0)
(0.31160756 0.00041221011 0)
(0.31042101 0.00038436247 0)
(0.30931883 0.00035846571 0)
(0.30829438 0.00033439069 0)
(0.30734165 0.00031200643 0)
(0.30645515 0.00029118674 0)
(0.30562991 0.00027181294 0)
(0.30486136 0.00025377548 0)
(0.30414535 0.00023697364 0)
(0.30347807 0.00022131476 0)
(0.30285601 0.00020671503 0)
(0.30227596 0.00019309683 0)
(0.30173497 0.00018039006 0)
(0.30123029 0.00016852998 0)
(0.30075942 0.00015745734 0)
(0.30032002 0.00014711829 0)
(0.29990993 0.00013746235 0)
(0.29952715 0.00012844407 0)
(0.29916983 0.00012002052 0)
(0.29883624 0.00011215137 0)
(0.29852478 0.00010480011 0)
(0.29823397 9.7931174e-05 0)
(0.29796241 9.1512441e-05 0)
(0.29770882 8.551371e-05 0)
(0.29747201 7.990651e-05 0)
(0.29725084 7.4665992e-05 0)
(0.29704429 6.9767596e-05 0)
(0.29685137 6.5190824e-05 0)
(0.2966712 6.091475e-05 0)
(0.29650291 5.6919788e-05 0)
(0.29634572 5.3187697e-05 0)
(0.2961989 4.9700039e-05 0)
(0.29606176 4.6440408e-05 0)
(0.29593366 4.3392881e-05 0)
(0.295814 4.0542936e-05 0)
(0.29570223 3.7878449e-05 0)
(0.29559783 3.5387608e-05 0)
(0.29550031 3.3060315e-05 0)
(0.29540922 3.0887962e-05 0)
(0.29532413 2.8859686e-05 0)
(0.29524465 2.6966782e-05 0)
(0.2951704 2.5198737e-05 0)
(0.29510104 2.354541e-05 0)
(0.29503625 2.1998314e-05 0)
(0.29497572 2.0549878e-05 0)
(0.29491918 1.9194123e-05 0)
(0.29486637 1.7927508e-05 0)
(0.29481705 1.6744381e-05 0)
(0.29477097 1.5643061e-05 0)
(0.29472793 1.4616418e-05 0)
(0.29468772 1.3660583e-05 0)
(0.29465016 1.2766818e-05 0)
(0.29461507 1.19307e-05 0)
(0.29458229 1.1144678e-05 0)
(0.29455167 1.0407801e-05 0)
(0.29452308 9.7132641e-06 0)
(0.29449635 9.072556e-06 0)
(0.29447142 8.4703467e-06 0)
(0.2944481 7.9183012e-06 0)
(0.29442633 7.3969326e-06 0)
(0.29440598 6.9260868e-06 0)
(0.294387 6.4726572e-06 0)
(0.2943692 6.0618011e-06 0)
(0.29435259 5.6503879e-06 0)
(0.29433714 5.2891172e-06 0)
(0.29432249 4.9685948e-06 0)
(0.29430919 4.6878498e-06 0)
(0.29429569 4.538894e-06 0)
(0.29428502 4.4056111e-06 0)
(0.29426874 5.0574877e-06 0)
(1.0016583 0.05381943 0)
(1.0359761 0.10128443 0)
(1.0597199 0.11073663 0)
(1.0628947 0.10592201 0)
(1.0515569 0.096228725 0)
(1.0340529 0.083934059 0)
(1.0142795 0.070327062 0)
(0.99360703 0.056981334 0)
(0.97292577 0.045107479 0)
(0.9531074 0.03523675 0)
(0.93479539 0.02740165 0)
(0.91829012 0.021387227 0)
(0.90362379 0.016884499 0)
(0.89068068 0.013569709 0)
(0.87928175 0.011147748 0)
(0.86923242 0.0093736578 0)
(0.86034424 0.0080569271 0)
(0.85244667 0.0070571265 0)
(0.84539242 0.0062752379 0)
(0.83905793 0.0056438286 0)
(0.83334127 0.0051180915 0)
(0.82815884 0.0046686728 0)
(0.82344213 0.0042764175 0)
(0.81913467 0.0039287383 0)
(0.81518962 0.0036172024 0)
(0.81156765 0.0033359687 0)
(0.80823544 0.0030808023 0)
(0.8051644 0.0028484673 0)
(0.80232979 0.0026363682 0)
(0.79971 0.002442338 0)
(0.79728598 0.002264519 0)
(0.79504087 0.0021012905 0)
(0.79295963 0.0019512262 0)
(0.79102881 0.0018130637 0)
(0.78923628 0.0016856836 0)
(0.78757111 0.0015680917 0)
(0.78602339 0.0014594041 0)
(0.78458412 0.0013588338 0)
(0.78324512 0.0012656788 0)
(0.78199889 0.0011793108 0)
(0.78083861 0.0010991673 0)
(0.77975799 0.0010247423 0)
(0.77875128 0.00095558038 0)
(0.77781318 0.00089126995 0)
(0.77693882 0.0008314381 0)
(0.77612368 0.00077574678 0)
(0.77536363 0.00072388785 0)
(0.77465481 0.0006755804 0)
(0.77399368 0.00063056709 0)
(0.77337694 0.00058861106 0)
(0.77280154 0.00054949491 0)
(0.77226464 0.00051301754 0)
(0.77176363 0.0004789932 0)
(0.77129607 0.00044725076 0)
(0.77085967 0.00041763128 0)
(0.77045234 0.00038998938 0)
(0.77007212 0.00036418993 0)
(0.76971717 0.00034010946 0)
(0.76938581 0.00031763253 0)
(0.76907644 0.0002966511 0)
(0.7687876 0.00027706444 0)
(0.76851791 0.00025877773 0)
(0.7682661 0.00024170227 0)
(0.76803096 0.0002257557 0)
(0.76781139 0.0002108613 0)
(0.76760635 0.00019694918 0)
(0.76741488 0.00018395494 0)
(0.76723608 0.00017181923 0)
(0.7670691 0.0001604879 0)
(0.76691315 0.00014990809 0)
(0.76676751 0.00014003065 0)
(0.7666315 0.00013080682 0)
(0.76650446 0.00012219096 0)
(0.76638582 0.00011413973 0)
(0.76627501 0.0001066154 0)
(0.76617152 9.9582084e-05 0)
(0.76607485 9.3012151e-05 0)
(0.76598458 8.6874626e-05 0)
(0.76590026 8.1148642e-05 0)
(0.76582151 7.5802619e-05 0)
(0.76574794 7.0817816e-05 0)
(0.76567924 6.6157744e-05 0)
(0.76561504 6.1808947e-05 0)
(0.76555512 5.773261e-05 0)
(0.7654991 5.393036e-05 0)
(0.76544684 5.0355167e-05 0)
(0.76539796 4.703798e-05 0)
(0.76535239 4.3921148e-05 0)
(0.7653097 4.1053585e-05 0)
(0.76526997 3.8323394e-05 0)
(0.76523272 3.5844639e-05 0)
(0.76519804 3.3463824e-05 0)
(0.76516555 3.1332104e-05 0)
(0.76513516 2.9189434e-05 0)
(0.76510713 2.7363825e-05 0)
(0.76507997 2.551707e-05 0)
(0.76505663 2.4071449e-05 0)
(0.76503058 2.2554969e-05 0)
(0.76501446 2.1597049e-05 0)
(0.76498346 2.0993423e-05 0)
(1.0014244 0.026824854 0)
(1.0291272 0.06279135 0)
(1.0654292 0.077736549 0)
(1.098962 0.080597196 0)
(1.1253149 0.078285167 0)
(1.145053 0.073153897 0)
(1.1594858 0.066111277 0)
(1.1694287 0.058162063 0)
(1.1755354 0.050296754 0)
(1.1785738 0.043150707 0)
(1.1793571 0.036972824 0)
(1.178595 0.031771631 0)
(1.1768304 0.027451838 0)
(1.1744518 0.023886766 0)
(1.1717287 0.020947618 0)
(1.1688444 0.018515779 0)
(1.1659195 0.016488084 0)
(1.1630317 0.014779502 0)
(1.1602295 0.013322985 0)
(1.1575415 0.012067132 0)
(1.1549828 0.010973 0)
(1.1525601 0.010011061 0)
(1.1502747 0.0091587462 0)
(1.1481246 0.0083986032 0)
(1.1461059 0.0077169491 0)
(1.1442134 0.0071028866 0)
(1.1424414 0.0065475904 0)
(1.1407838 0.0060437942 0)
(1.1392344 0.0055854252 0)
(1.1377869 0.005167344 0)
(1.1364353 0.0047851567 0)
(1.1351738 0.0044350762 0)
(1.1339968 0.0041138169 0)
(1.1328987 0.0038185129 0)
(1.1318746 0.0035466527 0)
(1.1309195 0.0032960262 0)
(1.1300289 0.0030646817 0)
(1.1291985 0.0028508889 0)
(1.1284242 0.0026531087 0)
(1.1277022 0.0024699674 0)
(1.1270291 0.0023002351 0)
(1.1264014 0.0021428072 0)
(1.1258161 0.0019966889 0)
(1.1252702 0.0018609817 0)
(1.1247612 0.0017348719 0)
(1.1242865 0.0016176212 0)
(1.1238437 0.0015085574 0)
(1.1234307 0.0014070676 0)
(1.1230455 0.0013125909 0)
(1.1226861 0.0012246135 0)
(1.1223509 0.0011426639 0)
(1.1220381 0.0010663079 0)
(1.1217462 0.00099514588 0)
(1.1214739 0.00092880943 0)
(1.1212198 0.00086695869 0)
(1.1209827 0.00080928021 0)
(1.1207614 0.00075548484 0)
(1.1205548 0.00070530506 0)
(1.1203621 0.00065849252 0)
(1.1201821 0.00061481631 0)
(1.1200142 0.00057406199 0)
(1.1198574 0.00053602956 0)
(1.1197111 0.00050053318 0)
(1.1195745 0.00046739999 0)
(1.1194469 0.00043647022 0)
(1.1193278 0.00040759546 0)
(1.1192167 0.00038063878 0)
(1.1191129 0.00035547284 0)
(1.119016 0.00033197933 0)
(1.1189255 0.00031004619 0)
(1.118841 0.00028956949 0)
(1.1187621 0.00027044905 0)
(1.1186884 0.00025259399 0)
(1.1186197 0.00023591663 0)
(1.1185554 0.00022034099 0)
(1.1184954 0.00020579129 0)
(1.1184394 0.00019220584 0)
(1.1183871 0.00017951701 0)
(1.1183382 0.00016767557 0)
(1.1182926 0.00015661391 0)
(1.11825 0.00014629412 0)
(1.1182103 0.00013664326 0)
(1.1181731 0.00012764304 0)
(1.1181384 0.00011921028 0)
(1.1181059 0.00011135867 0)
(1.1180757 0.00010398421 0)
(1.1180473 9.7152561e-05 0)
(1.1180211 9.0703726e-05 0)
(1.1179962 8.4785636e-05 0)
(1.1179734 7.9129423e-05 0)
(1.1179516 7.402863e-05 0)
(1.1179318 6.9016868e-05 0)
(1.1179128 6.466138e-05 0)
(1.1178955 6.0142115e-05 0)
(1.117879 5.6561651e-05 0)
(1.1178635 5.2423508e-05 0)
(1.11785 4.9742903e-05 0)
(1.1178349 4.5807768e-05 0)
(1.1178261 4.4319769e-05 0)
(1.1178083 4.0575059e-05 0)
(1.0007347 0.011814721 0)
(1.0178472 0.030860924 0)
(1.0462163 0.041434438 0)
(1.0799018 0.045193566 0)
(1.1132664 0.045502348 0)
(1.143782 0.044080305 0)
(1.1708941 0.04143998 0)
(1.1945687 0.037973676 0)
(1.2148582 0.034195728 0)
(1.2319652 0.030536886 0)
(1.2462683 0.027222043 0)
(1.2582339 0.024313918 0)
(1.2683135 0.021797886 0)
(1.2768875 0.019633657 0)
(1.2842554 0.017773824 0)
(1.2906479 0.01616965 0)
(1.296243 0.014775589 0)
(1.3011791 0.013552297 0)
(1.3055645 0.012467863 0)
(1.3094838 0.011497465 0)
(1.3130042 0.01062216 0)
(1.3161792 0.0098275119 0)
(1.3190526 0.0091024095 0)
(1.3216607 0.0084381751 0)
(1.3240343 0.0078279022 0)
(1.3261995 0.007265973 0)
(1.3281786 0.0067477078 0)
(1.3299913 0.0062691161 0)
(1.3316544 0.005826727 0)
(1.3331829 0.0054174727 0)
(1.3345896 0.0050386114 0)
(1.3358862 0.0046876726 0)
(1.3370827 0.0043624183 0)
(1.3381883 0.0040608135 0)
(1.3392108 0.0037810033 0)
(1.3401576 0.0035212942 0)
(1.3410349 0.0032801378 0)
(1.3418486 0.0030561168 0)
(1.3426038 0.0028479332 0)
(1.3433051 0.0026543967 0)
(1.3439569 0.0024744151 0)
(1.3445629 0.0023069853 0)
(1.3451267 0.0021511852 0)
(1.3456513 0.0020061662 0)
(1.3461398 0.0018711475 0)
(1.3465947 0.0017454092 0)
(1.3470185 0.0016282874 0)
(1.3474135 0.0015191691 0)
(1.3477816 0.001417488 0)
(1.3481249 0.0013227199 0)
(1.3484449 0.0012343804 0)
(1.3487435 0.0011520203 0)
(1.349022 0.0010752237 0)
(1.3492818 0.0010036053 0)
(1.3495242 0.00093680787 0)
(1.3497505 0.00087450058 0)
(1.3499616 0.00081637619 0)
(1.3501587 0.00076214918 0)
(1.3503427 0.00071155358 0)
(1.3505145 0.000664342 0)
(1.3506748 0.00062028446 0)
(1.3508245 0.00057916665 0)
(1.3509643 0.00054078962 0)
(1.3510948 0.00050496805 0)
(1.3512167 0.0004715304 0)
(1.3513305 0.00044031686 0)
(1.3514368 0.00041117925 0)
(1.3515361 0.00038397864 0)
(1.3516288 0.00035858635 0)
(1.3517153 0.00033488008 0)
(1.3517962 0.00031274683 0)
(1.3518717 0.00029207884 0)
(1.3519422 0.00027277951 0)
(1.3520081 0.00025475506 0)
(1.3520696 0.0002379254 0)
(1.3521271 0.0002222077 0)
(1.3521807 0.00020753525 0)
(1.3522309 0.00019383106 0)
(1.3522777 0.00018104241 0)
(1.3523215 0.00016909165 0)
(1.3523622 0.00015794131 0)
(1.3524005 0.00014750951 0)
(1.3524361 0.00013778756 0)
(1.3524695 0.00012867363 0)
(1.3525003 0.00012020216 0)
(1.3525296 0.00011223899 0)
(1.3525565 0.0001048829 0)
(1.3525822 9.7899597e-05 0)
(1.3526053 9.1530451e-05 0)
(1.3526281 8.5399028e-05 0)
(1.352648 7.9934282e-05 0)
(1.3526684 7.4428369e-05 0)
(1.3526849 6.9801124e-05 0)
(1.3527037 6.4830191e-05 0)
(1.352717 6.1125421e-05 0)
(1.3527349 5.6439828e-05 0)
(1.3527446 5.3735699e-05 0)
(1.3527628 4.9140522e-05 0)
(1.3527683 4.7704364e-05 0)
(1.3527888 4.2957443e-05 0)
(1.0005903 0.0034629152 0)
(1.0136865 0.009366018 0)
(1.0370283 0.013046804 0)
(1.0674202 0.014563259 0)
(1.1000315 0.014854523 0)
(1.1316428 0.014564989 0)
(1.1610745 0.013888337 0)
(1.1880674 0.012919244 0)
(1.2125205 0.011806505 0)
(1.2343939 0.010696425 0)
(1.2538077 0.0096727404 0)
(1.2710339 0.0087628202 0)
(1.286401 0.0079659717 0)
(1.3002111 0.0072722128 0)
(1.3127102 0.006668807 0)
(1.3240903 0.0061419239 0)
(1.3345036 0.0056780711 0)
(1.3440716 0.0052653202 0)
(1.3528927 0.0048939344 0)
(1.3610463 0.0045563948 0)
(1.3685975 0.0042470684 0)
(1.3756004 0.0039617743 0)
(1.3821012 0.0036973961 0)
(1.3881402 0.003451581 0)
(1.3937533 0.0032225171 0)
(1.3989728 0.0030087686 0)
(1.403828 0.002809157 0)
(1.4083456 0.0026226785 0)
(1.4125503 0.0024484491 0)
(1.4164646 0.00228567 0)
(1.4201094 0.0021336064 0)
(1.423504 0.0019915746 0)
(1.426666 0.0018589346 0)
(1.4296121 0.0017350843 0)
(1.4323573 0.0016194575 0)
(1.4349159 0.0015115209 0)
(1.4373007 0.0014107729 0)
(1.4395241 0.0013167422 0)
(1.441597 0.0012289862 0)
(1.4435301 0.0011470902 0)
(1.4453328 0.0010706655 0)
(1.4470143 0.0009993486 0)
(1.4485827 0.00093279896 0)
(1.4500459 0.00087069833 0)
(1.451411 0.00081274935 0)
(1.4526846 0.00075867426 0)
(1.4538731 0.00070821353 0)
(1.4549822 0.00066112468 0)
(1.4560172 0.00061718156 0)
(1.4569831 0.00057617315 0)
(1.4578847 0.00053790196 0)
(1.4587262 0.00050218417 0)
(1.4595117 0.00046884829 0)
(1.460245 0.00043773481 0)
(1.4609295 0.00040869514 0)
(1.4615685 0.00038159091 0)
(1.4621651 0.00035629284 0)
(1.4627221 0.00033267961 0)
(1.4632422 0.00031063805 0)
(1.4637278 0.00029006243 0)
(1.4641811 0.00027085396 0)
(1.4646045 0.00025292122 0)
(1.4649998 0.00023617898 0)
(1.4653689 0.00022054803 0)
(1.4657136 0.00020595472 0)
(1.4660355 0.00019233048 0)
(1.4663361 0.00017961129 0)
(1.4666168 0.00016773655 0)
(1.466879 0.00015665014 0)
(1.4671238 0.00014629858 0)
(1.4673524 0.00013663201 0)
(1.467566 0.00012760349 0)
(1.4677654 0.00011917162 0)
(1.4679516 0.00011129627 0)
(1.4681255 0.00010394345 0)
(1.4682881 9.7077654e-05 0)
(1.4684398 9.0670059e-05 0)
(1.4685814 8.4685132e-05 0)
(1.4687138 7.9100184e-05 0)
(1.4688376 7.3878889e-05 0)
(1.4689528 6.9005775e-05 0)
(1.4690607 6.4444107e-05 0)
(1.4691615 6.0195445e-05 0)
(1.4692558 5.6210529e-05 0)
(1.4693432 5.2513065e-05 0)
(1.4694256 4.9034537e-05 0)
(1.469502 4.5826337e-05 0)
(1.4695742 4.2770167e-05 0)
(1.46964 3.9998885e-05 0)
(1.4697037 3.7310123e-05 0)
(1.4697608 3.492542e-05 0)
(1.4698172 3.2494739e-05 0)
(1.4698651 3.0494805e-05 0)
(1.4699166 2.8305496e-05 0)
(1.4699562 2.672863e-05 0)
(1.4700045 2.4641362e-05 0)
(1.4700339 2.348592e-05 0)
(1.4700831 2.1416868e-05 0)
(1.4701001 2.0810781e-05 0)
(1.4701557 1.8649941e-05 0)
(1.0005903 -0.0034629162 0)
(1.0136865 -0.0093660206 0)
(1.0370283 -0.013046807 0)
(1.0674202 -0.014563262 0)
(1.1000315 -0.014854525 0)
(1.1316428 -0.014564991 0)
(1.1610745 -0.013888338 0)
(1.1880674 -0.012919246 0)
(1.2125205 -0.011806507 0)
(1.2343939 -0.010696428 0)
(1.2538077 -0.0096727436 0)
(1.2710339 -0.0087628233 0)
(1.286401 -0.0079659746 0)
(1.3002111 -0.0072722154 0)
(1.3127102 -0.0066688093 0)
(1.3240903 -0.0061419261 0)
(1.3345036 -0.0056780731 0)
(1.3440716 -0.0052653217 0)
(1.3528927 -0.0048939356 0)
(1.3610463 -0.0045563964 0)
(1.3685975 -0.0042470706 0)
(1.3756004 -0.0039617768 0)
(1.3821012 -0.0036973985 0)
(1.3881402 -0.0034515836 0)
(1.3937533 -0.0032225197 0)
(1.3989728 -0.003008771 0)
(1.403828 -0.0028091588 0)
(1.4083456 -0.0026226797 0)
(1.4125503 -0.0024484498 0)
(1.4164646 -0.0022856708 0)
(1.4201094 -0.0021336078 0)
(1.423504 -0.0019915769 0)
(1.426666 -0.0018589373 0)
(1.4296121 -0.0017350871 0)
(1.4323573 -0.0016194598 0)
(1.4349158 -0.0015115224 0)
(1.4373007 -0.0014107735 0)
(1.439524 -0.0013167423 0)
(1.441597 -0.0012289864 0)
(1.4435301 -0.0011470908 0)
(1.4453328 -0.0010706669 0)
(1.4470143 -0.0009993507 0)
(1.4485827 -0.00093280156 0)
(1.4500459 -0.00087070121 0)
(1.451411 -0.00081275211 0)
(1.4526846 -0.00075867637 0)
(1.4538731 -0.00070821453 0)
(1.4549821 -0.00066112442 0)
(1.4560172 -0.00061717984 0)
(1.4569831 -0.00057616986 0)
(1.4578847 -0.00053789807 0)
(1.4587262 -0.00050218097 0)
(1.4595117 -0.00046884693 0)
(1.460245 -0.00043773568 0)
(1.4609295 -0.00040869771 0)
(1.4615685 -0.00038159379 0)
(1.4621651 -0.00035629425 0)
(1.4627221 -0.00033267869 0)
(1.4632422 -0.00031063456 0)
(1.4637278 -0.00029005701 0)
(1.4641811 -0.00027084832 0)
(1.4646045 -0.00025291704 0)
(1.4649998 -0.00023617737 0)
(1.4653689 -0.00022054921 0)
(1.4657136 -0.00020595819 0)
(1.4660355 -0.00019233466 0)
(1.4663361 -0.00017961412 0)
(1.4666168 -0.00016773671 0)
(1.466879 -0.00015664679 0)
(1.4671238 -0.00014629202 0)
(1.4673524 -0.00013662465 0)
(1.467566 -0.00012759822 0)
(1.4677654 -0.0001191705 0)
(1.4679516 -0.00011129971 0)
(1.4681255 -0.00010395 0)
(1.4682881 -9.7083677e-05 0)
(1.4684398 -9.0672116e-05 0)
(1.4685814 -8.4682364e-05 0)
(1.4687138 -7.9092945e-05 0)
(1.4688376 -7.3870036e-05 0)
(1.4689529 -6.9000625e-05 0)
(1.4690607 -6.4444981e-05 0)
(1.4691615 -6.0200331e-05 0)
(1.4692558 -5.6217663e-05 0)
(1.4693432 -5.251817e-05 0)
(1.4694256 -4.9035538e-05 0)
(1.4695021 -4.5822975e-05 0)
(1.4695742 -4.2762221e-05 0)
(1.46964 -3.9985061e-05 0)
(1.4697038 -3.7299342e-05 0)
(1.4697608 -3.4931787e-05 0)
(1.4698172 -3.2514733e-05 0)
(1.4698651 -3.0512841e-05 0)
(1.4699166 -2.8303091e-05 0)
(1.4699562 -2.6703942e-05 0)
(1.4700045 -2.4624257e-05 0)
(1.4700339 -2.3494285e-05 0)
(1.4700831 -2.1431598e-05 0)
(1.4701001 -2.0822944e-05 0)
(1.4701557 -1.8662666e-05 0)
(1.0007347 -0.011814722 0)
(1.0178472 -0.030860927 0)
(1.0462163 -0.041434442 0)
(1.0799018 -0.04519357 0)
(1.1132664 -0.045502351 0)
(1.143782 -0.044080308 0)
(1.1708941 -0.041439982 0)
(1.1945687 -0.037973678 0)
(1.2148582 -0.03419573 0)
(1.2319652 -0.030536888 0)
(1.2462683 -0.027222046 0)
(1.2582339 -0.024313921 0)
(1.2683135 -0.021797888 0)
(1.2768875 -0.01963366 0)
(1.2842554 -0.017773826 0)
(1.2906479 -0.016169652 0)
(1.296243 -0.01477559 0)
(1.3011791 -0.013552298 0)
(1.3055645 -0.012467864 0)
(1.3094838 -0.011497466 0)
(1.3130042 -0.010622162 0)
(1.3161792 -0.0098275135 0)
(1.3190526 -0.0091024113 0)
(1.3216607 -0.0084381772 0)
(1.3240343 -0.0078279044 0)
(1.3261995 -0.0072659751 0)
(1.3281786 -0.0067477092 0)
(1.3299913 -0.006269117 0)
(1.3316544 -0.0058267276 0)
(1.3331829 -0.0054174735 0)
(1.3345896 -0.0050386126 0)
(1.3358862 -0.0046876743 0)
(1.3370827 -0.0043624201 0)
(1.3381882 -0.0040608152 0)
(1.3392108 -0.0037810048 0)
(1.3401576 -0.0035212954 0)
(1.3410349 -0.0032801387 0)
(1.3418486 -0.0030561177 0)
(1.3426038 -0.0028479341 0)
(1.3433051 -0.0026543977 0)
(1.3439569 -0.0024744162 0)
(1.3445629 -0.0023069865 0)
(1.3451267 -0.0021511864 0)
(1.3456513 -0.0020061677 0)
(1.3461398 -0.001871149 0)
(1.3465947 -0.0017454105 0)
(1.3470185 -0.0016282882 0)
(1.3474135 -0.001519169 0)
(1.3477816 -0.0014174866 0)
(1.3481249 -0.0013227178 0)
(1.3484449 -0.0012343779 0)
(1.3487435 -0.0011520182 0)
(1.349022 -0.0010752226 0)
(1.3492818 -0.0010036054 0)
(1.3495242 -0.00093680902 0)
(1.3497505 -0.000874502 0)
(1.3499616 -0.00081637713 0)
(1.3501587 -0.00076214877 0)
(1.3503427 -0.0007115516 0)
(1.3505145 -0.00066433874 0)
(1.3506748 -0.00062028062 0)
(1.3508245 -0.00057916332 0)
(1.3509643 -0.00054078776 0)
(1.3510948 -0.0005049683 0)
(1.3512167 -0.00047153251 0)
(1.3513305 -0.00044031988 0)
(1.3514368 -0.00041118188 0)
(1.3515361 -0.00038397958 0)
(1.3516288 -0.00035858475 0)
(1.3517153 -0.00033487615 0)
(1.3517962 -0.00031274201 0)
(1.3518717 -0.00029207502 0)
(1.3519422 -0.00027277808 0)
(1.3520081 -0.00025475674 0)
(1.3520696 -0.00023792898 0)
(1.3521271 -0.00022221137 0)
(1.3521807 -0.00020753757 0)
(1.3522309 -0.00019383102 0)
(1.3522777 -0.00018103975 0)
(1.3523215 -0.00016908745 0)
(1.3523622 -0.00015793811 0)
(1.3524005 -0.00014750835 0)
(1.3524361 -0.00013778796 0)
(1.3524695 -0.00012867546 0)
(1.3525003 -0.00012020642 0)
(1.3525297 -0.00011224268 0)
(1.3525565 -0.00010488171 0)
(1.3525822 -9.7894636e-05 0)
(1.3526053 -9.152881e-05 0)
(1.3526282 -8.5397778e-05 0)
(1.352648 -7.9929746e-05 0)
(1.3526683 -7.4428959e-05 0)
(1.3526849 -6.9806932e-05 0)
(1.3527037 -6.4829664e-05 0)
(1.3527171 -6.1118974e-05 0)
(1.3527348 -5.6443303e-05 0)
(1.3527446 -5.3746822e-05 0)
(1.3527628 -4.9144111e-05 0)
(1.3527683 -4.7705499e-05 0)
(1.3527888 -4.29607e-05 0)
(1.0014244 -0.026824855 0)
(1.0291272 -0.062791352 0)
(1.0654292 -0.077736552 0)
(1.098962 -0.0805972 0)
(1.1253149 -0.07828517 0)
(1.145053 -0.073153899 0)
(1.1594858 -0.066111278 0)
(1.1694287 -0.058162063 0)
(1.1755354 -0.050296754 0)
(1.1785738 -0.043150708 0)
(1.1793571 -0.036972825 0)
(1.1785949 -0.031771633 0)
(1.1768304 -0.02745184 0)
(1.1744518 -0.023886768 0)
(1.1717287 -0.02094762 0)
(1.1688444 -0.01851578 0)
(1.1659195 -0.016488084 0)
(1.1630317 -0.014779502 0)
(1.1602295 -0.013322985 0)
(1.1575415 -0.012067133 0)
(1.1549828 -0.010973001 0)
(1.1525601 -0.010011062 0)
(1.1502747 -0.0091587472 0)
(1.1481246 -0.0083986045 0)
(1.1461059 -0.0077169506 0)
(1.1442134 -0.0071028881 0)
(1.1424414 -0.0065475915 0)
(1.1407838 -0.006043795 0)
(1.1392344 -0.0055854258 0)
(1.1377869 -0.0051673447 0)
(1.1364353 -0.0047851574 0)
(1.1351738 -0.0044350768 0)
(1.1339968 -0.0041138175 0)
(1.1328987 -0.0038185135 0)
(1.1318746 -0.0035466533 0)
(1.1309195 -0.0032960273 0)
(1.1300289 -0.0030646832 0)
(1.1291985 -0.0028508905 0)
(1.1284242 -0.0026531101 0)
(1.1277022 -0.0024699684 0)
(1.1270291 -0.0023002354 0)
(1.1264014 -0.002142807 0)
(1.1258161 -0.0019966885 0)
(1.1252702 -0.0018609814 0)
(1.1247612 -0.001734872 0)
(1.1242865 -0.0016176217 0)
(1.1238437 -0.001508558 0)
(1.1234307 -0.0014070678 0)
(1.1230455 -0.0013125907 0)
(1.1226861 -0.0012246131 0)
(1.1223509 -0.0011426631 0)
(1.1220381 -0.0010663068 0)
(1.1217462 -0.00099514465 0)
(1.1214739 -0.0009288082 0)
(1.1212198 -0.0008669578 0)
(1.1209827 -0.00080928014 0)
(1.1207614 -0.00075548572 0)
(1.1205548 -0.00070530614 0)
(1.1203621 -0.00065849308 0)
(1.1201821 -0.00061481612 0)
(1.1200142 -0.00057406072 0)
(1.1198574 -0.00053602735 0)
(1.1197111 -0.00050053081 0)
(1.1195745 -0.00046739848 0)
(1.1194469 -0.00043646986 0)
(1.1193278 -0.00040759628 0)
(1.1192167 -0.00038064065 0)
(1.1191129 -0.00035547485 0)
(1.119016 -0.00033198066 0)
(1.1189255 -0.00031004657 0)
(1.118841 -0.00028956841 0)
(1.1187621 -0.00027044678 0)
(1.1186884 -0.00025259132 0)
(1.1186197 -0.00023591448 0)
(1.1185554 -0.00022034006 0)
(1.1184954 -0.00020579216 0)
(1.1184394 -0.00019220895 0)
(1.1183871 -0.00017952127 0)
(1.1183383 -0.00016767926 0)
(1.1182927 -0.00015661536 0)
(1.11825 -0.00014629241 0)
(1.1182103 -0.00013663903 0)
(1.1181731 -0.00012763764 0)
(1.1181384 -0.00011920584 0)
(1.1181059 -0.00011135942 0)
(1.1180758 -0.0001039893 0)
(1.1180473 -9.7156243e-05 0)
(1.1180211 -9.0705435e-05 0)
(1.1179963 -8.4792124e-05 0)
(1.1179734 -7.9137618e-05 0)
(1.1179516 -7.4019577e-05 0)
(1.1179318 -6.8990202e-05 0)
(1.1179128 -6.4647762e-05 0)
(1.1178955 -6.0157163e-05 0)
(1.117879 -5.6584102e-05 0)
(1.1178635 -5.2432269e-05 0)
(1.11785 -4.973811e-05 0)
(1.1178349 -4.5800796e-05 0)
(1.1178261 -4.4314047e-05 0)
(1.1178083 -4.0569961e-05 0)
(1.0016583 -0.05381943 0)
(1.0359761 -0.10128444 0)
(1.0597199 -0.11073663 0)
(1.0628947 -0.10592202 0)
(1.0515569 -0.096228728 0)
(1.0340529 -0.083934061 0)
(1.0142795 -0.070327063 0)
(0.99360703 -0.056981334 0)
(0.97292577 -0.045107479 0)
(0.9531074 -0.03523675 0)
(0.93479538 -0.02740165 0)
(0.91829012 -0.021387228 0)
(0.90362379 -0.0168845 0)
(0.89068067 -0.01356971 0)
(0.87928174 -0.011147749 0)
(0.86923242 -0.0093736586 0)
(0.86034423 -0.0080569274 0)
(0.85244667 -0.0070571267 0)
(0.84539241 -0.006275238 0)
(0.83905793 -0.0056438286 0)
(0.83334126 -0.0051180914 0)
(0.82815884 -0.0046686728 0)
(0.82344212 -0.0042764176 0)
(0.81913467 -0.0039287387 0)
(0.81518961 -0.0036172031 0)
(0.81156765 -0.0033359698 0)
(0.80823544 -0.0030808033 0)
(0.8051644 -0.0028484682 0)
(0.80232979 -0.0026363689 0)
(0.79970999 -0.0024423385 0)
(0.79728597 -0.0022645191 0)
(0.79504086 -0.0021012904 0)
(0.79295963 -0.0019512259 0)
(0.7910288 -0.0018130634 0)
(0.78923627 -0.0016856836 0)
(0.7875711 -0.0015680924 0)
(0.78602338 -0.0014594055 0)
(0.78458411 -0.0013588354 0)
(0.78324511 -0.0012656801 0)
(0.78199889 -0.0011793116 0)
(0.7808386 -0.0010991672 0)
(0.77975798 -0.0010247415 0)
(0.77875127 -0.00095557909 0)
(0.77781317 -0.00089126855 0)
(0.77693881 -0.00083143717 0)
(0.77612368 -0.00077574651 0)
(0.77536362 -0.00072388833 0)
(0.77465481 -0.00067558139 0)
(0.77399368 -0.00063056829 0)
(0.77337693 -0.00058861238 0)
(0.77280153 -0.00054949563 0)
(0.77226464 -0.00051301717 0)
(0.77176363 -0.00047899174 0)
(0.77129606 -0.00044724818 0)
(0.77085967 -0.00041762876 0)
(0.77045234 -0.0003899879 0)
(0.77007212 -0.00036419057 0)
(0.76971717 -0.00034011169 0)
(0.76938581 -0.00031763544 0)
(0.76907645 -0.00029665381 0)
(0.7687876 -0.00027706573 0)
(0.76851791 -0.00025877689 0)
(0.76826609 -0.00024169966 0)
(0.76803096 -0.000225752 0)
(0.76781139 -0.00021085789 0)
(0.76760635 -0.00019694724 0)
(0.76741489 -0.00018395551 0)
(0.76723608 -0.00017182257 0)
(0.7670691 -0.00016049279 0)
(0.76691316 -0.00014991302 0)
(0.76676752 -0.00014003341 0)
(0.7666315 -0.00013080587 0)
(0.76650446 -0.00012218668 0)
(0.76638582 -0.00011413345 0)
(0.76627501 -0.00010660982 0)
(0.76617152 -9.9579991e-05 0)
(0.76607486 -9.3014847e-05 0)
(0.76598459 -8.6881958e-05 0)
(0.76590026 -8.1157576e-05 0)
(0.76582151 -7.5809224e-05 0)
(0.76574794 -7.0818988e-05 0)
(0.76567924 -6.615273e-05 0)
(0.76561504 -6.179981e-05 0)
(0.76555512 -5.7722356e-05 0)
(0.76549911 -5.3925615e-05 0)
(0.76544685 -5.0358169e-05 0)
(0.76539796 -4.7044011e-05 0)
(0.76535239 -4.3930078e-05 0)
(0.76530971 -4.106922e-05 0)
(0.76526996 -3.8332622e-05 0)
(0.7652327 -3.5828555e-05 0)
(0.76519805 -3.3433237e-05 0)
(0.76516559 -3.13185e-05 0)
(0.76513517 -2.9204123e-05 0)
(0.7651071 -2.7386017e-05 0)
(0.76507997 -2.552454e-05 0)
(0.76505664 -2.4063763e-05 0)
(0.76503057 -2.2545077e-05 0)
(0.76501445 -2.1587687e-05 0)
(0.76498346 -2.0984881e-05 0)
(0.91890839 -0.035821913 0)
(0.86271384 -0.062195638 0)
(0.7870597 -0.06251009 0)
(0.69536033 -0.054550395 0)
(0.61089745 -0.044531651 0)
(0.54411592 -0.034015972 0)
(0.49343012 -0.02418754 0)
(0.45479413 -0.01614423 0)
(0.42544582 -0.010265785 0)
(0.40347313 -0.006304145 0)
(0.38715766 -0.0037976294 0)
(0.3749622 -0.0023103384 0)
(0.36566192 -0.0014930154 0)
(0.35836272 -0.0010851186 0)
(0.35244268 -0.0009060723 0)
(0.34748201 -0.00084105135 0)
(0.34320348 -0.00082372362 0)
(0.33942726 -0.00081931007 0)
(0.33603793 -0.00081185199 0)
(0.33296114 -0.00079580153 0)
(0.33014778 -0.00077081194 0)
(0.32756384 -0.00073870994 0)
(0.3251842 -0.00070188955 0)
(0.32298902 -0.00066256563 0)
(0.32096172 -0.00062249931 0)
(0.31908785 -0.00058295704 0)
(0.31735449 -0.00054477117 0)
(0.31574995 -0.00050843392 0)
(0.3142636 -0.00047419168 0)
(0.31288574 -0.00044212494 0)
(0.31160755 -0.0004122099 0)
(0.31042101 -0.00038436204 0)
(0.30931883 -0.00035846518 0)
(0.30829438 -0.00033439022 0)
(0.30734165 -0.00031200634 0)
(0.30645515 -0.00029118713 0)
(0.30562991 -0.00027181379 0)
(0.30486136 -0.00025377646 0)
(0.30414535 -0.00023697436 0)
(0.30347807 -0.00022131521 0)
(0.30285601 -0.00020671477 0)
(0.30227596 -0.00019309615 0)
(0.30173496 -0.000180389 0)
(0.30123029 -0.00016852888 0)
(0.30075942 -0.00015745669 0)
(0.30032002 -0.00014711809 0)
(0.29990993 -0.00013746298 0)
(0.29952715 -0.00012844515 0)
(0.29916983 -0.00012002174 0)
(0.29883624 -0.00011215263 0)
(0.29852478 -0.00010480049 0)
(0.29823397 -9.7930701e-05 0)
(0.29796241 -9.151104e-05 0)
(0.29770882 -8.5511616e-05 0)
(0.29747201 -7.9904857e-05 0)
(0.29725084 -7.4665177e-05 0)
(0.29704429 -6.9768588e-05 0)
(0.29685138 -6.5192832e-05 0)
(0.2966712 -6.0917193e-05 0)
(0.29650291 -5.6921955e-05 0)
(0.29634572 -5.3188442e-05 0)
(0.2961989 -4.9699248e-05 0)
(0.29606176 -4.643812e-05 0)
(0.29593366 -4.338977e-05 0)
(0.29581401 -4.0540321e-05 0)
(0.29570224 -3.7877185e-05 0)
(0.29559784 -3.5388639e-05 0)
(0.29550032 -3.3063707e-05 0)
(0.29540922 -3.0892064e-05 0)
(0.29532413 -2.8863467e-05 0)
(0.29524464 -2.6968234e-05 0)
(0.29517039 -2.5197021e-05 0)
(0.29510103 -2.3541373e-05 0)
(0.29503624 -2.199322e-05 0)
(0.29497573 -2.0546086e-05 0)
(0.29491919 -1.9193527e-05 0)
(0.29486638 -1.7930367e-05 0)
(0.29481705 -1.6750432e-05 0)
(0.29477097 -1.5649371e-05 0)
(0.29472793 -1.4620428e-05 0)
(0.29468771 -1.3660388e-05 0)
(0.29465016 -1.2762074e-05 0)
(0.29461507 -1.1923782e-05 0)
(0.2945823 -1.1137526e-05 0)
(0.29455168 -1.040547e-05 0)
(0.29452309 -9.7161709e-06 0)
(0.29449637 -9.0770666e-06 0)
(0.29447142 -8.4789893e-06 0)
(0.29444808 -7.9300621e-06 0)
(0.29442632 -7.3961041e-06 0)
(0.29440599 -6.909771e-06 0)
(0.294387 -6.4602773e-06 0)
(0.2943692 -6.0628363e-06 0)
(0.29435259 -5.6566114e-06 0)
(0.29433715 -5.293735e-06 0)
(0.2943225 -4.9716043e-06 0)
(0.29430919 -4.6856277e-06 0)
(0.29429569 -4.5322623e-06 0)
(0.29428502 -4.4001279e-06 0)
(0.29426875 -5.053604e-06 0)
)
;

boundaryField
{
    top
    {
        type            fixedValue;
        value           uniform (0 0 0);
    }
    inlet
    {
        type            fixedValue;
        value           uniform (1 0 0);
    }
    outlet
    {
        type            zeroGradient;
    }
    bottom
    {
        type            fixedValue;
        value           uniform (0 0 0);
    }
    back
    {
        type            empty;
    }
    front
    {
        type            empty;
    }
}


// ************************************************************************* //
