/*--------------------------------*- C++ -*----------------------------------*\
| =========                 |                                                 |
| \\      /  F ield         | OpenFOAM: The Open Source CFD Toolbox           |
|  \\    /   O peration     | Version:  v1812                                 |
|   \\  /    A nd           | Web:      www.OpenFOAM.com                      |
|    \\/     M anipulation  |                                                 |
\*---------------------------------------------------------------------------*/
FoamFile
{
    version     2.0;
    format      ascii;
    class       volScalarField;
    location    "19";
    object      p;
}
// * * * * * * * * * * * * * * * * * * * * * * * * * * * * * * * * * * * * * //

dimensions      [0 2 -2 0 0 0 0];


internalField   nonuniform List<scalar> 
1000
(
1.5148259
1.4986581
1.4827097
1.4669273
1.4512599
1.4356717
1.4201404
1.404653
1.3892017
1.3737806
1.358385
1.3430109
1.3276552
1.3123153
1.2969898
1.2816771
1.2663761
1.251086
1.2358057
1.2205346
1.205272
1.1900173
1.1747699
1.1595294
1.1442952
1.1290669
1.1138443
1.0986268
1.0834142
1.0682062
1.0530025
1.0378028
1.0226069
1.0074146
0.99222559
0.97703973
0.96185683
0.94667671
0.93149921
0.91632417
0.90115145
0.88598091
0.87081242
0.85564587
0.84048114
0.82531812
0.81015671
0.79499683
0.77983837
0.76468127
0.74952543
0.73437078
0.71921726
0.70406479
0.68891332
0.67376279
0.65861313
0.64346431
0.62831627
0.61316895
0.59802233
0.58287636
0.56773099
0.5525862
0.53744195
0.5222982
0.50715493
0.4920121
0.47686969
0.46172768
0.44658603
0.43144473
0.41630376
0.40116309
0.38602271
0.37088259
0.35574273
0.3406031
0.32546369
0.31032449
0.29518549
0.28004666
0.26490801
0.24976951
0.23463117
0.21949296
0.20435488
0.18921692
0.17407908
0.15894134
0.1438037
0.12866616
0.1135287
0.098391318
0.083254014
0.06811678
0.052979611
0.037842501
0.022705455
0.0075684446
1.5146211
1.4984248
1.4826214
1.4669681
1.4513484
1.4357539
1.4202032
1.4047024
1.3892448
1.3738202
1.358421
1.3430428
1.327683
1.3123399
1.2970117
1.2816969
1.2663942
1.2511025
1.2358209
1.2205487
1.205285
1.1900294
1.1747811
1.1595398
1.1443049
1.129076
1.1138527
1.0986347
1.0834216
1.0682132
1.053009
1.0378089
1.0226127
1.00742
0.99223064
0.97704448
0.96186129
0.9466809
0.93150314
0.91632787
0.90115492
0.88598417
0.87081548
0.85564875
0.84048384
0.82532066
0.8101591
0.79499907
0.77984048
0.76468324
0.74952728
0.73437252
0.71921889
0.70406632
0.68891476
0.67376414
0.6586144
0.6434655
0.62831738
0.61317
0.59802331
0.58287727
0.56773185
0.552587
0.5374427
0.5222989
0.50715558
0.49201272
0.47687027
0.46172822
0.44658654
0.4314452
0.4163042
0.4011635
0.38602309
0.37088295
0.35574306
0.34060341
0.32546399
0.31032477
0.29518574
0.2800469
0.26490823
0.24976972
0.23463136
0.21949313
0.20435504
0.18921707
0.17407922
0.15894147
0.14380382
0.12866627
0.1135288
0.098391415
0.083254104
0.068116862
0.052979688
0.037842568
0.022705516
0.0075684755
1.5142495
1.4979507
1.4823424
1.4669151
1.4514134
1.4358368
1.420263
1.4047409
1.3892751
1.3738498
1.3584504
1.34307
1.3277068
1.3123602
1.2970293
1.2817126
1.2664084
1.2511155
1.2358328
1.2205595
1.2052949
1.1900384
1.1747895
1.1595476
1.1443121
1.1290827
1.113859
1.0986405
1.083427
1.0682182
1.0530137
1.0378133
1.0226168
1.0074238
0.99223426
0.97704787
0.96186447
0.94668388
0.93150594
0.91633049
0.90115738
0.88598648
0.87081765
0.85565078
0.84048575
0.82532245
0.81016078
0.79500065
0.77984196
0.76468464
0.74952859
0.73437375
0.71922005
0.70406741
0.68891578
0.67376509
0.6586153
0.64346634
0.62831817
0.61317074
0.598024
0.58287792
0.56773246
0.55258758
0.53744324
0.52229941
0.50715606
0.49201316
0.47687068
0.4617286
0.4465869
0.43144554
0.41630452
0.4011638
0.38602337
0.37088321
0.35574331
0.34060364
0.3254642
0.31032496
0.29518592
0.28004707
0.26490839
0.24976987
0.23463149
0.21949326
0.20435516
0.18921719
0.17407932
0.15894157
0.14380391
0.12866635
0.11352888
0.098391487
0.08325417
0.068116923
0.052979742
0.037842615
0.022705546
0.0075684948
1.5138772
1.4974375
1.4819934
1.4668033
1.4514501
1.4359127
1.4203224
1.4047782
1.3893032
1.3738784
1.3584809
1.3430997
1.3277333
1.312383
1.2970491
1.2817301
1.2664243
1.2511299
1.2358458
1.2205713
1.2053057
1.1900484
1.1747986
1.159556
1.1443199
1.1290899
1.1138657
1.0986467
1.0834328
1.0682236
1.0530188
1.0378181
1.0226212
1.007428
0.99223813
0.97705149
0.96186787
0.94668707
0.93150893
0.9163333
0.90116002
0.88598896
0.87081999
0.85565297
0.84048781
0.82532439
0.8101626
0.79500236
0.77984357
0.76468615
0.74953001
0.73437509
0.7192213
0.70406859
0.68891689
0.67376614
0.65861628
0.64346726
0.62831903
0.61317155
0.59802477
0.58287864
0.56773314
0.55258821
0.53744383
0.52229996
0.50715658
0.49201365
0.47687114
0.46172903
0.4465873
0.43144592
0.41630487
0.40116413
0.38602368
0.3708835
0.35574358
0.3406039
0.32546444
0.31032519
0.29518613
0.28004727
0.26490857
0.24977004
0.23463165
0.21949341
0.2043553
0.18921732
0.17407945
0.15894168
0.14380402
0.12866645
0.11352897
0.098391573
0.083254248
0.068116997
0.052979805
0.037842675
0.022705585
0.0075685372
1.5136519
1.4971154
1.4817605
1.4667169
1.4514646
1.4359589
1.4203608
1.4048024
1.3893212
1.3738969
1.3585012
1.3431201
1.327752
1.3123994
1.2970634
1.2817429
1.2664359
1.2511405
1.2358556
1.2205802
1.2053139
1.1900559
1.1748056
1.1595624
1.1443258
1.1290954
1.1138708
1.0986515
1.0834373
1.0682278
1.0530227
1.0378217
1.0226246
1.0074312
0.99224114
0.97705432
0.96187052
0.94668956
0.93151127
0.9163355
0.90116209
0.8859909
0.87082181
0.85565469
0.84048943
0.82532591
0.81016404
0.79500371
0.77984484
0.76468734
0.74953114
0.73437614
0.7192223
0.70406953
0.68891777
0.67376696
0.65861705
0.64346799
0.62831972
0.6131722
0.59802537
0.58287921
0.56773367
0.55258871
0.5374443
0.52230041
0.507157
0.49201404
0.47687151
0.46172938
0.44658763
0.43144623
0.41630516
0.4011644
0.38602393
0.37088374
0.3557438
0.3406041
0.32546463
0.31032537
0.2951863
0.28004743
0.26490872
0.24977018
0.23463178
0.21949353
0.20435542
0.18921742
0.17407954
0.15894178
0.14380411
0.12866653
0.11352905
0.098391644
0.083254312
0.068117059
0.052979856
0.037842727
0.022705623
0.0075685788
1.5136519
1.4971154
1.4817605
1.4667169
1.4514646
1.4359589
1.4203608
1.4048024
1.3893212
1.3738969
1.3585012
1.3431201
1.327752
1.3123994
1.2970634
1.2817429
1.2664359
1.2511405
1.2358556
1.2205802
1.2053139
1.1900559
1.1748056
1.1595624
1.1443258
1.1290954
1.1138708
1.0986515
1.0834373
1.0682278
1.0530227
1.0378217
1.0226246
1.0074312
0.99224114
0.97705432
0.96187052
0.94668956
0.93151127
0.9163355
0.90116209
0.8859909
0.87082181
0.85565469
0.84048943
0.82532591
0.81016404
0.79500371
0.77984484
0.76468734
0.74953114
0.73437614
0.7192223
0.70406953
0.68891777
0.67376696
0.65861705
0.64346799
0.62831972
0.6131722
0.59802537
0.58287921
0.56773367
0.55258871
0.5374443
0.52230041
0.507157
0.49201404
0.47687151
0.46172938
0.44658763
0.43144623
0.41630516
0.4011644
0.38602393
0.37088374
0.3557438
0.3406041
0.32546463
0.31032537
0.2951863
0.28004743
0.26490872
0.24977018
0.23463178
0.21949353
0.20435542
0.18921742
0.17407954
0.15894178
0.14380411
0.12866653
0.11352905
0.098391645
0.083254312
0.068117059
0.052979856
0.037842728
0.022705624
0.0075685795
1.5138772
1.4974375
1.4819934
1.4668033
1.4514501
1.4359127
1.4203224
1.4047782
1.3893032
1.3738784
1.3584809
1.3430997
1.3277333
1.312383
1.2970491
1.2817301
1.2664243
1.2511299
1.2358458
1.2205713
1.2053057
1.1900484
1.1747986
1.159556
1.1443199
1.1290899
1.1138657
1.0986468
1.0834328
1.0682236
1.0530188
1.0378181
1.0226212
1.007428
0.99223813
0.97705149
0.96186787
0.94668707
0.93150893
0.9163333
0.90116002
0.88598896
0.87081999
0.85565297
0.84048781
0.82532439
0.8101626
0.79500236
0.77984357
0.76468615
0.74953001
0.73437509
0.7192213
0.70406859
0.68891689
0.67376614
0.65861628
0.64346726
0.62831903
0.61317155
0.59802477
0.58287864
0.56773314
0.55258821
0.53744383
0.52229996
0.50715658
0.49201365
0.47687114
0.46172903
0.4465873
0.43144592
0.41630487
0.40116413
0.38602368
0.3708835
0.35574358
0.3406039
0.32546444
0.31032519
0.29518613
0.28004727
0.26490857
0.24977004
0.23463165
0.21949341
0.2043553
0.18921732
0.17407945
0.15894168
0.14380402
0.12866645
0.11352897
0.098391574
0.083254249
0.068116998
0.052979805
0.037842676
0.022705587
0.0075685388
1.5142495
1.4979507
1.4823424
1.4669151
1.4514134
1.4358367
1.420263
1.4047409
1.3892751
1.3738498
1.3584504
1.34307
1.3277068
1.3123602
1.2970293
1.2817126
1.2664084
1.2511155
1.2358328
1.2205595
1.2052949
1.1900385
1.1747895
1.1595476
1.1443121
1.1290827
1.113859
1.0986405
1.0834271
1.0682182
1.0530137
1.0378133
1.0226168
1.0074238
0.99223426
0.97704787
0.96186447
0.94668388
0.93150594
0.91633049
0.90115738
0.88598648
0.87081765
0.85565078
0.84048575
0.82532245
0.81016078
0.79500065
0.77984196
0.76468464
0.74952859
0.73437375
0.71922005
0.70406741
0.68891578
0.67376509
0.6586153
0.64346634
0.62831817
0.61317074
0.598024
0.58287792
0.56773246
0.55258758
0.53744324
0.52229941
0.50715606
0.49201316
0.47687068
0.4617286
0.4465869
0.43144554
0.41630451
0.4011638
0.38602337
0.37088321
0.3557433
0.34060364
0.3254642
0.31032496
0.29518592
0.28004707
0.26490839
0.24976987
0.23463149
0.21949326
0.20435516
0.18921719
0.17407932
0.15894157
0.14380392
0.12866635
0.11352888
0.098391488
0.083254171
0.068116924
0.052979742
0.037842616
0.022705548
0.0075684964
1.5146211
1.4984248
1.4826214
1.4669681
1.4513484
1.4357539
1.4202031
1.4047024
1.3892448
1.3738202
1.358421
1.3430428
1.327683
1.3123399
1.2970117
1.2816969
1.2663942
1.2511025
1.2358209
1.2205487
1.205285
1.1900294
1.1747811
1.1595398
1.1443049
1.129076
1.1138527
1.0986347
1.0834217
1.0682132
1.053009
1.0378089
1.0226127
1.00742
0.99223064
0.97704448
0.96186129
0.9466809
0.93150314
0.91632787
0.90115492
0.88598417
0.87081548
0.85564875
0.84048384
0.82532066
0.8101591
0.79499907
0.77984048
0.76468324
0.74952728
0.73437252
0.71921889
0.70406632
0.68891476
0.67376414
0.6586144
0.6434655
0.62831738
0.61317
0.59802331
0.58287727
0.56773185
0.552587
0.5374427
0.5222989
0.50715558
0.49201272
0.47687027
0.46172822
0.44658653
0.4314452
0.4163042
0.4011635
0.38602309
0.37088295
0.35574306
0.34060341
0.32546399
0.31032477
0.29518574
0.2800469
0.26490823
0.24976972
0.23463136
0.21949313
0.20435504
0.18921707
0.17407922
0.15894147
0.14380383
0.12866627
0.1135288
0.098391416
0.083254105
0.068116863
0.052979689
0.037842568
0.022705517
0.0075684765
1.5148258
1.4986581
1.4827097
1.4669274
1.4512599
1.4356717
1.4201404
1.404653
1.3892016
1.3737806
1.358385
1.3430109
1.3276551
1.3123153
1.2969898
1.2816771
1.2663761
1.251086
1.2358057
1.2205347
1.2052721
1.1900173
1.1747699
1.1595294
1.1442952
1.1290669
1.1138443
1.0986268
1.0834142
1.0682062
1.0530025
1.0378028
1.0226069
1.0074146
0.99222559
0.97703973
0.96185683
0.94667672
0.93149921
0.91632417
0.90115145
0.88598091
0.87081242
0.85564587
0.84048114
0.82531812
0.81015671
0.79499683
0.77983837
0.76468127
0.74952543
0.73437078
0.71921726
0.70406479
0.68891332
0.67376279
0.65861313
0.64346431
0.62831626
0.61316895
0.59802233
0.58287636
0.56773099
0.5525862
0.53744195
0.5222982
0.50715492
0.4920121
0.47686969
0.46172768
0.44658603
0.43144473
0.41630376
0.40116309
0.38602271
0.37088259
0.35574273
0.3406031
0.32546369
0.31032449
0.29518549
0.28004666
0.26490801
0.24976951
0.23463117
0.21949296
0.20435488
0.18921692
0.17407908
0.15894134
0.1438037
0.12866616
0.1135287
0.098391319
0.083254015
0.06811678
0.052979612
0.037842501
0.022705456
0.0075684451
)
;

boundaryField
{
    top
    {
        type            zeroGradient;
    }
    inlet
    {
        type            fixedValue;
        value           uniform 1.523;
    }
    outlet
    {
        type            fixedValue;
        value           uniform 0;
    }
    bottom
    {
        type            zeroGradient;
    }
    back
    {
        type            empty;
    }
    front
    {
        type            empty;
    }
}


// ************************************************************************* //
