/*--------------------------------*- C++ -*----------------------------------*\
| =========                 |                                                 |
| \\      /  F ield         | OpenFOAM: The Open Source CFD Toolbox           |
|  \\    /   O peration     | Version:  v1812                                 |
|   \\  /    A nd           | Web:      www.OpenFOAM.com                      |
|    \\/     M anipulation  |                                                 |
\*---------------------------------------------------------------------------*/
FoamFile
{
    version     2.0;
    format      ascii;
    class       volVectorField;
    location    "15.65";
    object      U;
}
// * * * * * * * * * * * * * * * * * * * * * * * * * * * * * * * * * * * * * //

dimensions      [0 1 -1 0 0 0 0];


internalField   nonuniform List<vector> 
1000
(
(0.91890839 0.035821912 0)
(0.86271384 0.062195638 0)
(0.7870597 0.062510089 0)
(0.69536033 0.054550394 0)
(0.61089745 0.04453165 0)
(0.54411592 0.034015971 0)
(0.49343012 0.02418754 0)
(0.45479414 0.01614423 0)
(0.42544583 0.010265786 0)
(0.40347313 0.0063041453 0)
(0.38715767 0.0037976293 0)
(0.3749622 0.0023103382 0)
(0.36566193 0.001493015 0)
(0.35836272 0.0010851183 0)
(0.35244268 0.00090607207 0)
(0.34748201 0.00084105119 0)
(0.34320348 0.00082372366 0)
(0.33942726 0.0008193101 0)
(0.33603793 0.00081185218 0)
(0.33296114 0.00079580174 0)
(0.33014778 0.00077081239 0)
(0.32756384 0.00073871035 0)
(0.3251842 0.00070188989 0)
(0.32298902 0.00066256577 0)
(0.32096172 0.00062249919 0)
(0.31908785 0.00058295657 0)
(0.31735449 0.00054477078 0)
(0.31574995 0.00050843345 0)
(0.3142636 0.00047419151 0)
(0.31288574 0.00044212486 0)
(0.31160755 0.00041221023 0)
(0.31042101 0.00038436257 0)
(0.30931883 0.00035846579 0)
(0.30829438 0.00033439076 0)
(0.30734165 0.0003120065 0)
(0.30645515 0.00029118682 0)
(0.30562991 0.00027181302 0)
(0.30486136 0.00025377555 0)
(0.30414535 0.00023697369 0)
(0.30347807 0.00022131478 0)
(0.30285601 0.00020671502 0)
(0.30227596 0.00019309679 0)
(0.30173496 0.00018039 0)
(0.30123029 0.00016852991 0)
(0.30075942 0.00015745728 0)
(0.30032002 0.00014711824 0)
(0.29990993 0.00013746233 0)
(0.29952715 0.00012844407 0)
(0.29916983 0.00012002053 0)
(0.29883624 0.00011215138 0)
(0.29852478 0.00010480011 0)
(0.29823397 9.7931154e-05 0)
(0.29796241 9.1512397e-05 0)
(0.29770882 8.5513649e-05 0)
(0.29747201 7.9906447e-05 0)
(0.29725084 7.4665943e-05 0)
(0.29704429 6.9767575e-05 0)
(0.29685137 6.5190836e-05 0)
(0.2966712 6.091479e-05 0)
(0.29650291 5.6919842e-05 0)
(0.29634572 5.3187744e-05 0)
(0.2961989 4.9700061e-05 0)
(0.29606176 4.6440395e-05 0)
(0.29593366 4.3392834e-05 0)
(0.295814 4.054287e-05 0)
(0.29570223 3.7878388e-05 0)
(0.29559783 3.5387577e-05 0)
(0.29550031 3.306033e-05 0)
(0.29540922 3.0888023e-05 0)
(0.29532413 2.8859775e-05 0)
(0.29524465 2.696687e-05 0)
(0.2951704 2.5198793e-05 0)
(0.29510104 2.3545413e-05 0)
(0.29503625 2.1998264e-05 0)
(0.29497572 2.0549794e-05 0)
(0.29491918 1.9194042e-05 0)
(0.29486637 1.7927469e-05 0)
(0.29481705 1.6744411e-05 0)
(0.29477097 1.5643163e-05 0)
(0.29472793 1.4616566e-05 0)
(0.29468772 1.3660733e-05 0)
(0.29465016 1.2766925e-05 0)
(0.29461507 1.1930735e-05 0)
(0.29458229 1.1144635e-05 0)
(0.29455167 1.0407709e-05 0)
(0.29452308 9.7131794e-06 0)
(0.29449636 9.0725343e-06 0)
(0.29447142 8.4704156e-06 0)
(0.2944481 7.9184602e-06 0)
(0.29442633 7.3971548e-06 0)
(0.29440598 6.9263002e-06 0)
(0.294387 6.4727806e-06 0)
(0.2943692 6.0618075e-06 0)
(0.29435259 5.6503161e-06 0)
(0.29433714 5.2889958e-06 0)
(0.29432249 4.9684598e-06 0)
(0.29430918 4.6878026e-06 0)
(0.29429569 4.5389627e-06 0)
(0.29428502 4.4058266e-06 0)
(0.29426873 5.0576303e-06 0)
(1.0016583 0.05381943 0)
(1.0359761 0.10128443 0)
(1.0597199 0.11073663 0)
(1.0628947 0.10592201 0)
(1.0515569 0.096228725 0)
(1.0340529 0.083934059 0)
(1.0142795 0.070327062 0)
(0.99360703 0.056981334 0)
(0.97292577 0.045107479 0)
(0.9531074 0.03523675 0)
(0.93479539 0.02740165 0)
(0.91829012 0.021387227 0)
(0.90362379 0.016884499 0)
(0.89068068 0.013569709 0)
(0.87928175 0.011147748 0)
(0.86923242 0.0093736579 0)
(0.86034424 0.0080569274 0)
(0.85244667 0.007057127 0)
(0.84539242 0.0062752386 0)
(0.83905793 0.0056438293 0)
(0.83334127 0.0051180922 0)
(0.82815884 0.0046686735 0)
(0.82344212 0.0042764181 0)
(0.81913467 0.0039287388 0)
(0.81518962 0.0036172029 0)
(0.81156765 0.0033359691 0)
(0.80823544 0.0030808027 0)
(0.8051644 0.0028484678 0)
(0.80232979 0.0026363688 0)
(0.79970999 0.0024423386 0)
(0.79728597 0.0022645195 0)
(0.79504086 0.002101291 0)
(0.79295963 0.0019512266 0)
(0.7910288 0.001813064 0)
(0.78923627 0.0016856839 0)
(0.7875711 0.0015680919 0)
(0.78602338 0.0014594044 0)
(0.78458411 0.0013588341 0)
(0.78324511 0.0012656791 0)
(0.78199889 0.001179311 0)
(0.78083861 0.0010991675 0)
(0.77975799 0.0010247425 0)
(0.77875128 0.0009555804 0)
(0.77781318 0.00089126985 0)
(0.77693881 0.0008314379 0)
(0.77612368 0.00077574652 0)
(0.77536362 0.0007238876 0)
(0.77465481 0.0006755802 0)
(0.77399367 0.00063056699 0)
(0.77337693 0.00058861106 0)
(0.77280153 0.00054949499 0)
(0.77226464 0.00051301764 0)
(0.77176363 0.00047899326 0)
(0.77129606 0.00044725073 0)
(0.77085967 0.00041763114 0)
(0.77045234 0.00038998915 0)
(0.77007212 0.00036418966 0)
(0.76971717 0.00034010922 0)
(0.76938581 0.00031763239 0)
(0.76907644 0.0002966511 0)
(0.7687876 0.00027706458 0)
(0.76851791 0.00025877797 0)
(0.7682661 0.00024170252 0)
(0.76803096 0.00022575586 0)
(0.76781139 0.00021086131 0)
(0.76760635 0.00019694901 0)
(0.76741488 0.00018395463 0)
(0.76723608 0.00017181889 0)
(0.7670691 0.00016048765 0)
(0.76691315 0.00014990805 0)
(0.76676752 0.00014003084 0)
(0.7666315 0.00013080719 0)
(0.76650447 0.00012219138 0)
(0.76638582 0.00011414004 0)
(0.76627501 0.00010661549 0)
(0.76617152 9.9581897e-05 0)
(0.76607485 9.3011757e-05 0)
(0.76598458 8.687417e-05 0)
(0.76590026 8.1148318e-05 0)
(0.76582151 7.5802591e-05 0)
(0.76574794 7.0818126e-05 0)
(0.76567924 6.6158308e-05 0)
(0.76561505 6.180961e-05 0)
(0.76555512 5.7733156e-05 0)
(0.7654991 5.3930562e-05 0)
(0.76544684 5.0354946e-05 0)
(0.76539796 4.7037499e-05 0)
(0.76535239 4.3920644e-05 0)
(0.7653097 4.1053216e-05 0)
(0.76526997 3.8323405e-05 0)
(0.76523272 3.5845247e-05 0)
(0.76519804 3.3464819e-05 0)
(0.76516555 3.133294e-05 0)
(0.76513516 2.9189915e-05 0)
(0.76510713 2.7364074e-05 0)
(0.76507997 2.5516796e-05 0)
(0.76505662 2.4070752e-05 0)
(0.76503057 2.2554113e-05 0)
(0.76501446 2.1596819e-05 0)
(0.76498346 2.0993949e-05 0)
(1.0014244 0.026824854 0)
(1.0291272 0.06279135 0)
(1.0654292 0.077736549 0)
(1.098962 0.080597196 0)
(1.1253149 0.078285167 0)
(1.145053 0.073153897 0)
(1.1594858 0.066111277 0)
(1.1694287 0.058162063 0)
(1.1755354 0.050296753 0)
(1.1785738 0.043150707 0)
(1.1793571 0.036972824 0)
(1.178595 0.031771631 0)
(1.1768304 0.027451838 0)
(1.1744518 0.023886766 0)
(1.1717287 0.020947618 0)
(1.1688444 0.018515779 0)
(1.1659195 0.016488083 0)
(1.1630317 0.014779502 0)
(1.1602295 0.013322985 0)
(1.1575415 0.012067133 0)
(1.1549828 0.010973002 0)
(1.1525601 0.010011063 0)
(1.1502747 0.0091587476 0)
(1.1481246 0.0083986044 0)
(1.1461059 0.0077169502 0)
(1.1442134 0.0071028875 0)
(1.1424414 0.0065475911 0)
(1.1407838 0.0060437949 0)
(1.1392344 0.005585426 0)
(1.1377869 0.005167345 0)
(1.1364353 0.0047851578 0)
(1.1351738 0.0044350773 0)
(1.1339968 0.0041138179 0)
(1.1328987 0.0038185137 0)
(1.1318746 0.0035466532 0)
(1.1309195 0.0032960267 0)
(1.1300289 0.0030646822 0)
(1.1291985 0.0028508895 0)
(1.1284242 0.0026531094 0)
(1.1277022 0.0024699681 0)
(1.1270291 0.0023002358 0)
(1.1264014 0.0021428078 0)
(1.1258161 0.0019966894 0)
(1.1252702 0.001860982 0)
(1.1247612 0.001734872 0)
(1.1242865 0.0016176211 0)
(1.1238437 0.0015085572 0)
(1.1234307 0.0014070672 0)
(1.1230455 0.0013125905 0)
(1.1226861 0.0012246131 0)
(1.1223509 0.0011426636 0)
(1.1220381 0.0010663078 0)
(1.1217462 0.00099514592 0)
(1.1214739 0.00092880955 0)
(1.1212198 0.00086695881 0)
(1.1209827 0.00080928025 0)
(1.1207614 0.00075548472 0)
(1.1205548 0.00070530477 0)
(1.1203621 0.0006584921 0)
(1.1201821 0.00061481585 0)
(1.1200142 0.00057406159 0)
(1.1198574 0.00053602934 0)
(1.1197111 0.0005005332 0)
(1.1195745 0.00046740027 0)
(1.1194469 0.00043647067 0)
(1.1193278 0.00040759595 0)
(1.1192167 0.00038063911 0)
(1.1191129 0.00035547285 0)
(1.119016 0.00033197894 0)
(1.1189255 0.00031004551 0)
(1.118841 0.00028956876 0)
(1.1187621 0.00027044855 0)
(1.1186884 0.00025259391 0)
(1.1186197 0.00023591702 0)
(1.1185554 0.00022034169 0)
(1.1184954 0.00020579208 0)
(1.1184394 0.00019220645 0)
(1.1183871 0.0001795172 0)
(1.1183382 0.00016767517 0)
(1.1182926 0.00015661311 0)
(1.11825 0.00014629323 0)
(1.1182103 0.00013664252 0)
(1.118173 0.00012764273 0)
(1.1181384 0.00011921081 0)
(1.1181059 0.00011135998 0)
(1.1180757 0.00010398556 0)
(1.1180473 9.7153407e-05 0)
(1.1180211 9.0704234e-05 0)
(1.1179963 8.4785533e-05 0)
(1.1179734 7.9128005e-05 0)
(1.1179516 7.4026727e-05 0)
(1.1179318 6.9016388e-05 0)
(1.1179128 6.4662232e-05 0)
(1.1178955 6.0142625e-05 0)
(1.117879 5.6562768e-05 0)
(1.1178635 5.2425845e-05 0)
(1.11785 4.9744821e-05 0)
(1.1178349 4.5808049e-05 0)
(1.1178261 4.4317706e-05 0)
(1.1178083 4.0573708e-05 0)
(1.0007347 0.011814721 0)
(1.0178472 0.030860924 0)
(1.0462163 0.041434438 0)
(1.0799018 0.045193566 0)
(1.1132664 0.045502348 0)
(1.143782 0.044080305 0)
(1.1708941 0.04143998 0)
(1.1945687 0.037973676 0)
(1.2148582 0.034195728 0)
(1.2319652 0.030536886 0)
(1.2462683 0.027222043 0)
(1.2582339 0.024313919 0)
(1.2683135 0.021797886 0)
(1.2768875 0.019633657 0)
(1.2842554 0.017773824 0)
(1.2906479 0.01616965 0)
(1.296243 0.014775588 0)
(1.3011791 0.013552296 0)
(1.3055645 0.012467863 0)
(1.3094838 0.011497466 0)
(1.3130042 0.010622162 0)
(1.3161792 0.0098275135 0)
(1.3190526 0.0091024112 0)
(1.3216607 0.0084381768 0)
(1.3240343 0.0078279039 0)
(1.3261995 0.0072659745 0)
(1.3281786 0.0067477089 0)
(1.3299913 0.006269117 0)
(1.3316544 0.0058267278 0)
(1.3331829 0.0054174738 0)
(1.3345896 0.0050386128 0)
(1.3358862 0.0046876742 0)
(1.3370827 0.0043624199 0)
(1.3381882 0.0040608148 0)
(1.3392108 0.0037810042 0)
(1.3401576 0.0035212949 0)
(1.3410349 0.0032801383 0)
(1.3418486 0.0030561175 0)
(1.3426038 0.0028479341 0)
(1.3433051 0.0026543978 0)
(1.3439569 0.0024744163 0)
(1.3445629 0.0023069865 0)
(1.3451267 0.0021511862 0)
(1.3456513 0.0020061671 0)
(1.3461398 0.001871148 0)
(1.3465947 0.0017454095 0)
(1.3470185 0.0016282875 0)
(1.3474135 0.001519169 0)
(1.3477816 0.0014174876 0)
(1.3481249 0.0013227195 0)
(1.3484449 0.0012343799 0)
(1.3487435 0.0011520199 0)
(1.349022 0.0010752235 0)
(1.3492818 0.0010036053 0)
(1.3495242 0.00093680793 0)
(1.3497505 0.00087450072 0)
(1.3499616 0.00081637628 0)
(1.3501587 0.00076214911 0)
(1.3503427 0.00071155332 0)
(1.3505145 0.00066434156 0)
(1.3506748 0.00062028387 0)
(1.3508245 0.000579166 0)
(1.3509643 0.00054078908 0)
(1.3510948 0.00050496777 0)
(1.3512167 0.00047153047 0)
(1.3513305 0.00044031731 0)
(1.3514368 0.00041118 0)
(1.3515361 0.00038397946 0)
(1.3516288 0.00035858683 0)
(1.3517153 0.00033487992 0)
(1.3517962 0.00031274603 0)
(1.3518717 0.00029207767 0)
(1.3519422 0.00027277839 0)
(1.3520081 0.00025475441 0)
(1.3520696 0.00023792541 0)
(1.3521271 0.00022220828 0)
(1.3521807 0.00020753631 0)
(1.3522309 0.00019383232 0)
(1.3522777 0.00018104323 0)
(1.3523215 0.00016909167 0)
(1.3523623 0.00015794081 0)
(1.3524005 0.00014750848 0)
(1.352436 0.00013778581 0)
(1.3524695 0.00012867199 0)
(1.3525004 0.00012020215 0)
(1.3525296 0.0001122405 0)
(1.3525564 0.00010488422 0)
(1.3525822 9.7900974e-05 0)
(1.3526054 9.1533125e-05 0)
(1.3526281 8.5400395e-05 0)
(1.3526479 7.9931418e-05 0)
(1.3526685 7.4424833e-05 0)
(1.3526851 6.9801534e-05 0)
(1.3527035 6.4830386e-05 0)
(1.3527169 6.1122784e-05 0)
(1.352735 5.6440458e-05 0)
(1.3527447 5.374059e-05 0)
(1.3527627 4.914519e-05 0)
(1.3527683 4.7704674e-05 0)
(1.3527889 4.2955732e-05 0)
(1.0005903 0.0034629152 0)
(1.0136865 0.009366018 0)
(1.0370283 0.013046804 0)
(1.0674202 0.014563259 0)
(1.1000315 0.014854523 0)
(1.1316428 0.014564989 0)
(1.1610745 0.013888337 0)
(1.1880674 0.012919244 0)
(1.2125205 0.011806505 0)
(1.2343939 0.010696425 0)
(1.2538077 0.0096727405 0)
(1.2710339 0.0087628203 0)
(1.286401 0.0079659717 0)
(1.3002111 0.0072722127 0)
(1.3127102 0.0066688068 0)
(1.3240903 0.0061419237 0)
(1.3345036 0.0056780708 0)
(1.3440716 0.0052653198 0)
(1.3528927 0.0048939343 0)
(1.3610463 0.0045563953 0)
(1.3685975 0.0042470695 0)
(1.3756004 0.0039617757 0)
(1.3821012 0.0036973976 0)
(1.3881402 0.0034515825 0)
(1.3937533 0.0032225187 0)
(1.3989728 0.0030087701 0)
(1.403828 0.0028091582 0)
(1.4083456 0.0026226794 0)
(1.4125503 0.0024484499 0)
(1.4164646 0.002285671 0)
(1.4201094 0.0021336077 0)
(1.423504 0.0019915764 0)
(1.426666 0.0018589364 0)
(1.4296121 0.0017350859 0)
(1.4323573 0.0016194586 0)
(1.4349159 0.0015115216 0)
(1.4373007 0.0014107734 0)
(1.4395241 0.0013167426 0)
(1.441597 0.0012289869 0)
(1.4435301 0.0011470913 0)
(1.4453328 0.001070667 0)
(1.4470143 0.00099935013 0)
(1.4485827 0.00093280039 0)
(1.4500459 0.00087069952 0)
(1.451411 0.00081275024 0)
(1.4526846 0.00075867483 0)
(1.4538731 0.00070821381 0)
(1.4549822 0.00066112471 0)
(1.4560172 0.0006171814 0)
(1.4569831 0.00057617279 0)
(1.4578847 0.00053790146 0)
(1.4587262 0.0005021837 0)
(1.4595117 0.00046884798 0)
(1.460245 0.00043773465 0)
(1.4609295 0.00040869509 0)
(1.4615685 0.00038159095 0)
(1.4621651 0.00035629291 0)
(1.4627221 0.00033267958 0)
(1.4632422 0.00031063786 0)
(1.4637278 0.00029006209 0)
(1.4641812 0.00027085345 0)
(1.4646045 0.00025292056 0)
(1.4649998 0.00023617829 0)
(1.4653689 0.00022054748 0)
(1.4657136 0.00020595444 0)
(1.4660355 0.00019233057 0)
(1.4663361 0.00017961183 0)
(1.4666168 0.00016773747 0)
(1.466879 0.00015665105 0)
(1.4671238 0.00014629899 0)
(1.4673524 0.00013663165 0)
(1.467566 0.00012760248 0)
(1.4677654 0.00011917031 0)
(1.4679516 0.00011129515 0)
(1.4681256 0.00010394288 0)
(1.468288 9.7077658e-05 0)
(1.4684397 9.0670651e-05 0)
(1.4685815 8.4686374e-05 0)
(1.4687138 7.9101445e-05 0)
(1.4688375 7.3879416e-05 0)
(1.4689529 6.9005871e-05 0)
(1.4690609 6.444395e-05 0)
(1.4691614 6.0194123e-05 0)
(1.4692557 5.6208068e-05 0)
(1.4693434 5.2511625e-05 0)
(1.4694257 4.9035388e-05 0)
(1.4695018 4.5827323e-05 0)
(1.4695741 4.2770505e-05 0)
(1.4696403 4.0001736e-05 0)
(1.4697038 3.7314296e-05 0)
(1.4697604 3.4924476e-05 0)
(1.4698173 3.2489611e-05 0)
(1.4698655 3.0494443e-05 0)
(1.4699165 2.8307831e-05 0)
(1.4699558 2.6724772e-05 0)
(1.4700046 2.4637484e-05 0)
(1.4700342 2.348981e-05 0)
(1.470083 2.1423653e-05 0)
(1.4700999 2.0813095e-05 0)
(1.4701556 1.8649024e-05 0)
(1.0005903 -0.0034629162 0)
(1.0136865 -0.0093660206 0)
(1.0370283 -0.013046807 0)
(1.0674202 -0.014563262 0)
(1.1000315 -0.014854525 0)
(1.1316428 -0.014564991 0)
(1.1610745 -0.013888338 0)
(1.1880674 -0.012919246 0)
(1.2125205 -0.011806507 0)
(1.2343939 -0.010696428 0)
(1.2538077 -0.0096727435 0)
(1.2710339 -0.0087628233 0)
(1.286401 -0.0079659746 0)
(1.3002111 -0.0072722154 0)
(1.3127102 -0.0066688094 0)
(1.3240903 -0.0061419262 0)
(1.3345036 -0.0056780733 0)
(1.3440716 -0.0052653219 0)
(1.3528927 -0.0048939357 0)
(1.3610463 -0.0045563961 0)
(1.3685975 -0.0042470699 0)
(1.3756004 -0.0039617759 0)
(1.3821012 -0.0036973977 0)
(1.3881402 -0.0034515827 0)
(1.3937533 -0.0032225187 0)
(1.3989728 -0.00300877 0)
(1.403828 -0.002809158 0)
(1.4083456 -0.002622679 0)
(1.4125503 -0.0024484492 0)
(1.4164646 -0.0022856699 0)
(1.4201094 -0.0021336066 0)
(1.423504 -0.0019915754 0)
(1.4266661 -0.0018589358 0)
(1.4296121 -0.0017350859 0)
(1.4323573 -0.001619459 0)
(1.4349159 -0.0015115219 0)
(1.4373007 -0.0014107733 0)
(1.4395241 -0.001316742 0)
(1.441597 -0.0012289858 0)
(1.4435301 -0.0011470898 0)
(1.4453328 -0.0010706656 0)
(1.4470143 -0.00099934927 0)
(1.4485827 -0.00093280024 0)
(1.4500459 -0.00087070011 0)
(1.451411 -0.00081275131 0)
(1.4526846 -0.00075867589 0)
(1.4538731 -0.00070821432 0)
(1.4549822 -0.00066112441 0)
(1.4560172 -0.00061717997 0)
(1.4569831 -0.00057617013 0)
(1.4578847 -0.00053789845 0)
(1.4587262 -0.00050218132 0)
(1.4595117 -0.00046884714 0)
(1.460245 -0.0004377358 0)
(1.4609295 -0.0004086978 0)
(1.4615685 -0.00038159385 0)
(1.4621651 -0.00035629431 0)
(1.4627221 -0.00033267884 0)
(1.4632422 -0.00031063483 0)
(1.4637278 -0.00029005735 0)
(1.4641812 -0.00027084875 0)
(1.4646045 -0.00025291756 0)
(1.4649998 -0.0002361779 0)
(1.4653689 -0.00022054962 0)
(1.4657136 -0.00020595841 0)
(1.4660355 -0.00019233463 0)
(1.4663361 -0.00017961376 0)
(1.4666168 -0.00016773603 0)
(1.466879 -0.0001566461 0)
(1.4671238 -0.00014629172 0)
(1.4673524 -0.00013662495 0)
(1.467566 -0.000127599 0)
(1.4677654 -0.00011917149 0)
(1.4679516 -0.00011130054 0)
(1.4681256 -0.00010395041 0)
(1.468288 -9.7083713e-05 0)
(1.4684397 -9.0671768e-05 0)
(1.4685815 -8.4681516e-05 0)
(1.4687138 -7.9092088e-05 0)
(1.4688375 -7.3869753e-05 0)
(1.4689529 -6.9000496e-05 0)
(1.4690609 -6.4444835e-05 0)
(1.4691614 -6.0201145e-05 0)
(1.4692557 -5.6219527e-05 0)
(1.4693434 -5.2519253e-05 0)
(1.4694257 -4.9034864e-05 0)
(1.4695018 -4.5822466e-05 0)
(1.4695741 -4.2762359e-05 0)
(1.4696403 -3.9982837e-05 0)
(1.4697038 -3.7295837e-05 0)
(1.4697605 -3.4932631e-05 0)
(1.4698173 -3.2518835e-05 0)
(1.4698655 -3.0512399e-05 0)
(1.4699165 -2.8300411e-05 0)
(1.4699558 -2.6707528e-05 0)
(1.4700046 -2.4628186e-05 0)
(1.4700342 -2.3490669e-05 0)
(1.470083 -2.1426286e-05 0)
(1.4701 -2.082195e-05 0)
(1.4701556 -1.8663316e-05 0)
(1.0007347 -0.011814722 0)
(1.0178472 -0.030860927 0)
(1.0462163 -0.041434442 0)
(1.0799018 -0.04519357 0)
(1.1132664 -0.045502351 0)
(1.143782 -0.044080308 0)
(1.1708941 -0.041439982 0)
(1.1945687 -0.037973678 0)
(1.2148582 -0.03419573 0)
(1.2319652 -0.030536888 0)
(1.2462683 -0.027222046 0)
(1.2582339 -0.024313921 0)
(1.2683135 -0.021797888 0)
(1.2768875 -0.01963366 0)
(1.2842554 -0.017773827 0)
(1.2906479 -0.016169652 0)
(1.296243 -0.01477559 0)
(1.3011791 -0.013552298 0)
(1.3055645 -0.012467864 0)
(1.3094838 -0.011497466 0)
(1.3130042 -0.010622162 0)
(1.3161792 -0.0098275132 0)
(1.3190526 -0.009102411 0)
(1.3216607 -0.0084381768 0)
(1.3240343 -0.007827904 0)
(1.3261995 -0.0072659746 0)
(1.3281786 -0.0067477089 0)
(1.3299913 -0.0062691167 0)
(1.3316544 -0.0058267271 0)
(1.3331829 -0.0054174728 0)
(1.3345896 -0.0050386117 0)
(1.3358862 -0.0046876733 0)
(1.3370827 -0.0043624193 0)
(1.3381882 -0.0040608146 0)
(1.3392108 -0.0037810045 0)
(1.3401576 -0.0035212952 0)
(1.3410349 -0.0032801385 0)
(1.3418486 -0.0030561174 0)
(1.3426038 -0.0028479335 0)
(1.3433051 -0.0026543968 0)
(1.3439569 -0.0024744152 0)
(1.3445629 -0.0023069855 0)
(1.3451267 -0.0021511856 0)
(1.3456513 -0.0020061671 0)
(1.3461398 -0.0018711486 0)
(1.3465947 -0.0017454103 0)
(1.3470185 -0.0016282882 0)
(1.3474135 -0.0015191691 0)
(1.3477816 -0.0014174868 0)
(1.3481249 -0.0013227179 0)
(1.3484449 -0.0012343781 0)
(1.3487435 -0.0011520184 0)
(1.349022 -0.0010752228 0)
(1.3492818 -0.0010036056 0)
(1.3495242 -0.00093680918 0)
(1.3497505 -0.00087450217 0)
(1.3499616 -0.00081637733 0)
(1.3501587 -0.00076214902 0)
(1.3503427 -0.00071155187 0)
(1.3505145 -0.00066433901 0)
(1.3506748 -0.00062028089 0)
(1.3508245 -0.00057916359 0)
(1.3509643 -0.00054078797 0)
(1.3510948 -0.00050496843 0)
(1.3512167 -0.00047153255 0)
(1.3513305 -0.0004403198 0)
(1.3514368 -0.00041118165 0)
(1.3515361 -0.00038397928 0)
(1.3516288 -0.00035858456 0)
(1.3517153 -0.00033487623 0)
(1.3517962 -0.00031274234 0)
(1.3518717 -0.00029207546 0)
(1.3519422 -0.00027277849 0)
(1.3520081 -0.00025475699 0)
(1.3520696 -0.00023792904 0)
(1.3521271 -0.00022221131 0)
(1.3521807 -0.00020753736 0)
(1.3522309 -0.00019383067 0)
(1.3522777 -0.00018103954 0)
(1.3523215 -0.00016908744 0)
(1.3523623 -0.00015793797 0)
(1.3524005 -0.0001475083 0)
(1.352436 -0.00013778849 0)
(1.3524695 -0.00012867618 0)
(1.3525004 -0.00012020649 0)
(1.3525296 -0.00011224228 0)
(1.3525565 -0.0001048817 0)
(1.3525822 -9.7894418e-05 0)
(1.3526054 -9.1527321e-05 0)
(1.3526281 -8.5396791e-05 0)
(1.3526479 -7.9931016e-05 0)
(1.3526684 -7.4430034e-05 0)
(1.352685 -6.9805422e-05 0)
(1.3527036 -6.4829147e-05 0)
(1.352717 -6.1121639e-05 0)
(1.3527349 -5.6443704e-05 0)
(1.3527446 -5.3743706e-05 0)
(1.3527628 -4.9142866e-05 0)
(1.3527683 -4.7706069e-05 0)
(1.3527888 -4.296068e-05 0)
(1.0014244 -0.026824855 0)
(1.0291272 -0.062791352 0)
(1.0654292 -0.077736552 0)
(1.098962 -0.0805972 0)
(1.1253149 -0.07828517 0)
(1.145053 -0.073153899 0)
(1.1594858 -0.066111278 0)
(1.1694287 -0.058162063 0)
(1.1755354 -0.050296754 0)
(1.1785738 -0.043150708 0)
(1.1793571 -0.036972825 0)
(1.1785949 -0.031771633 0)
(1.1768304 -0.02745184 0)
(1.1744518 -0.023886768 0)
(1.1717287 -0.02094762 0)
(1.1688444 -0.01851578 0)
(1.1659195 -0.016488084 0)
(1.1630317 -0.014779502 0)
(1.1602295 -0.013322985 0)
(1.1575415 -0.012067133 0)
(1.1549828 -0.010973001 0)
(1.1525601 -0.010011062 0)
(1.1502747 -0.0091587472 0)
(1.1481246 -0.0083986044 0)
(1.1461059 -0.0077169505 0)
(1.1442134 -0.0071028879 0)
(1.1424414 -0.0065475913 0)
(1.1407838 -0.0060437946 0)
(1.1392344 -0.0055854254 0)
(1.1377869 -0.0051673442 0)
(1.1364353 -0.0047851569 0)
(1.1351738 -0.0044350764 0)
(1.1339968 -0.0041138173 0)
(1.1328987 -0.0038185133 0)
(1.1318746 -0.0035466532 0)
(1.1309195 -0.0032960271 0)
(1.1300289 -0.0030646829 0)
(1.1291985 -0.0028508901 0)
(1.1284242 -0.0026531095 0)
(1.1277022 -0.0024699678 0)
(1.1270291 -0.0023002349 0)
(1.1264014 -0.0021428066 0)
(1.1258161 -0.0019966883 0)
(1.1252702 -0.0018609813 0)
(1.1247612 -0.001734872 0)
(1.1242865 -0.0016176217 0)
(1.1238437 -0.0015085581 0)
(1.1234307 -0.0014070679 0)
(1.1230455 -0.0013125907 0)
(1.1226861 -0.0012246132 0)
(1.1223509 -0.0011426632 0)
(1.1220381 -0.0010663069 0)
(1.1217462 -0.00099514481 0)
(1.1214739 -0.0009288084 0)
(1.1212198 -0.000866958 0)
(1.1209827 -0.00080928033 0)
(1.1207614 -0.00075548589 0)
(1.1205548 -0.00070530628 0)
(1.1203621 -0.00065849317 0)
(1.1201821 -0.00061481618 0)
(1.1200142 -0.00057406078 0)
(1.1198574 -0.00053602742 0)
(1.1197111 -0.00050053087 0)
(1.1195745 -0.00046739854 0)
(1.1194469 -0.00043646991 0)
(1.1193278 -0.00040759629 0)
(1.1192167 -0.00038064061 0)
(1.1191129 -0.0003554748 0)
(1.119016 -0.00033198065 0)
(1.1189255 -0.00031004661 0)
(1.118841 -0.00028956848 0)
(1.1187621 -0.00027044686 0)
(1.1186884 -0.00025259141 0)
(1.1186197 -0.00023591456 0)
(1.1185554 -0.00022034013 0)
(1.1184954 -0.00020579221 0)
(1.1184394 -0.00019220892 0)
(1.1183871 -0.00017952117 0)
(1.1183383 -0.00016767913 0)
(1.1182927 -0.00015661517 0)
(1.11825 -0.00014629222 0)
(1.1182103 -0.00013663902 0)
(1.118173 -0.00012763781 0)
(1.1181384 -0.00011920598 0)
(1.1181059 -0.00011135945 0)
(1.1180757 -0.0001039893 0)
(1.1180473 -9.7156189e-05 0)
(1.1180211 -9.0705057e-05 0)
(1.1179963 -8.4791548e-05 0)
(1.1179734 -7.9137425e-05 0)
(1.1179516 -7.4019622e-05 0)
(1.1179318 -6.8989876e-05 0)
(1.1179128 -6.46474e-05 0)
(1.1178955 -6.0157633e-05 0)
(1.117879 -5.6584672e-05 0)
(1.1178635 -5.2431723e-05 0)
(1.11785 -4.9737511e-05 0)
(1.1178349 -4.5800858e-05 0)
(1.1178261 -4.4313479e-05 0)
(1.1178083 -4.056949e-05 0)
(1.0016583 -0.05381943 0)
(1.0359761 -0.10128444 0)
(1.0597199 -0.11073663 0)
(1.0628947 -0.10592202 0)
(1.0515569 -0.096228728 0)
(1.0340529 -0.083934061 0)
(1.0142795 -0.070327063 0)
(0.99360703 -0.056981334 0)
(0.97292577 -0.045107479 0)
(0.9531074 -0.03523675 0)
(0.93479538 -0.02740165 0)
(0.91829012 -0.021387228 0)
(0.90362379 -0.0168845 0)
(0.89068067 -0.01356971 0)
(0.87928174 -0.011147749 0)
(0.86923242 -0.0093736586 0)
(0.86034423 -0.0080569275 0)
(0.85244667 -0.0070571268 0)
(0.84539241 -0.006275238 0)
(0.83905793 -0.0056438286 0)
(0.83334126 -0.0051180914 0)
(0.82815884 -0.0046686728 0)
(0.82344212 -0.0042764176 0)
(0.81913467 -0.0039287386 0)
(0.81518961 -0.003617203 0)
(0.81156765 -0.0033359696 0)
(0.80823544 -0.003080803 0)
(0.8051644 -0.002848468 0)
(0.80232979 -0.0026363687 0)
(0.79970999 -0.0024423384 0)
(0.79728597 -0.002264519 0)
(0.79504086 -0.0021012903 0)
(0.79295963 -0.0019512258 0)
(0.7910288 -0.0018130633 0)
(0.78923627 -0.0016856835 0)
(0.7875711 -0.0015680922 0)
(0.78602338 -0.0014594053 0)
(0.78458412 -0.0013588352 0)
(0.78324511 -0.00126568 0)
(0.78199889 -0.0011793115 0)
(0.78083861 -0.0010991672 0)
(0.77975799 -0.0010247415 0)
(0.77875128 -0.0009555791 0)
(0.77781318 -0.00089126856 0)
(0.77693881 -0.00083143717 0)
(0.77612368 -0.00077574651 0)
(0.77536362 -0.00072388834 0)
(0.77465481 -0.00067558143 0)
(0.77399368 -0.00063056838 0)
(0.77337694 -0.0005886125 0)
(0.77280153 -0.00054949577 0)
(0.77226464 -0.00051301732 0)
(0.77176363 -0.00047899187 0)
(0.77129606 -0.00044724827 0)
(0.77085967 -0.0004176288 0)
(0.77045234 -0.0003899879 0)
(0.77007212 -0.00036419055 0)
(0.76971717 -0.00034011167 0)
(0.76938581 -0.00031763546 0)
(0.76907645 -0.00029665387 0)
(0.7687876 -0.00027706582 0)
(0.76851791 -0.00025877699 0)
(0.7682661 -0.00024169974 0)
(0.76803096 -0.00022575203 0)
(0.76781139 -0.00021085785 0)
(0.76760635 -0.00019694716 0)
(0.76741489 -0.0001839554 0)
(0.76723608 -0.00017182249 0)
(0.7670691 -0.00016049277 0)
(0.76691316 -0.00014991307 0)
(0.76676752 -0.00014003352 0)
(0.7666315 -0.000130806 0)
(0.76650446 -0.00012218679 0)
(0.76638582 -0.0001141335 0)
(0.76627501 -0.00010660977 0)
(0.76617152 -9.9579845e-05 0)
(0.76607486 -9.3014643e-05 0)
(0.76598459 -8.6881763e-05 0)
(0.76590026 -8.1157452e-05 0)
(0.76582151 -7.5809209e-05 0)
(0.76574794 -7.081909e-05 0)
(0.76567924 -6.61529e-05 0)
(0.76561504 -6.1799944e-05 0)
(0.76555512 -5.7722368e-05 0)
(0.76549911 -5.3925473e-05 0)
(0.76544685 -5.0357898e-05 0)
(0.76539796 -4.7043661e-05 0)
(0.7653524 -4.3929721e-05 0)
(0.76530971 -4.1068983e-05 0)
(0.76526996 -3.8332595e-05 0)
(0.7652327 -3.582866e-05 0)
(0.76519805 -3.3433376e-05 0)
(0.76516559 -3.1318626e-05 0)
(0.76513517 -2.9204171e-05 0)
(0.76510711 -2.7385831e-05 0)
(0.76507997 -2.5524169e-05 0)
(0.76505665 -2.406345e-05 0)
(0.76503057 -2.2544712e-05 0)
(0.76501445 -2.1587428e-05 0)
(0.76498347 -2.0985111e-05 0)
(0.91890839 -0.035821913 0)
(0.86271384 -0.062195638 0)
(0.7870597 -0.06251009 0)
(0.69536033 -0.054550395 0)
(0.61089745 -0.044531651 0)
(0.54411592 -0.034015972 0)
(0.49343012 -0.02418754 0)
(0.45479413 -0.01614423 0)
(0.42544582 -0.010265785 0)
(0.40347313 -0.006304145 0)
(0.38715766 -0.0037976294 0)
(0.3749622 -0.0023103384 0)
(0.36566192 -0.0014930154 0)
(0.35836272 -0.0010851186 0)
(0.35244268 -0.00090607232 0)
(0.34748201 -0.00084105136 0)
(0.34320348 -0.00082372363 0)
(0.33942726 -0.00081931007 0)
(0.33603793 -0.00081185199 0)
(0.33296114 -0.00079580153 0)
(0.33014778 -0.00077081193 0)
(0.32756384 -0.00073870991 0)
(0.3251842 -0.00070188952 0)
(0.32298902 -0.00066256559 0)
(0.32096172 -0.00062249926 0)
(0.31908785 -0.00058295699 0)
(0.31735449 -0.00054477112 0)
(0.31574995 -0.00050843388 0)
(0.3142636 -0.00047419164 0)
(0.31288574 -0.00044212491 0)
(0.31160755 -0.00041220987 0)
(0.31042101 -0.000384362 0)
(0.30931883 -0.00035846513 0)
(0.30829438 -0.00033439016 0)
(0.30734165 -0.00031200628 0)
(0.30645515 -0.00029118709 0)
(0.30562991 -0.00027181376 0)
(0.30486136 -0.00025377645 0)
(0.30414535 -0.00023697436 0)
(0.30347807 -0.00022131522 0)
(0.30285601 -0.00020671478 0)
(0.30227596 -0.00019309616 0)
(0.30173496 -0.00018038901 0)
(0.30123029 -0.00016852888 0)
(0.30075942 -0.0001574567 0)
(0.30032002 -0.00014711811 0)
(0.29990993 -0.00013746301 0)
(0.29952715 -0.00012844519 0)
(0.29916983 -0.00012002178 0)
(0.29883624 -0.00011215267 0)
(0.29852478 -0.00010480053 0)
(0.29823397 -9.7930724e-05 0)
(0.29796241 -9.151105e-05 0)
(0.29770882 -8.5511616e-05 0)
(0.29747201 -7.9904852e-05 0)
(0.29725084 -7.4665176e-05 0)
(0.29704429 -6.9768596e-05 0)
(0.29685138 -6.5192851e-05 0)
(0.2966712 -6.0917219e-05 0)
(0.29650291 -5.6921981e-05 0)
(0.29634572 -5.3188461e-05 0)
(0.2961989 -4.9699254e-05 0)
(0.29606176 -4.6438109e-05 0)
(0.29593366 -4.3389746e-05 0)
(0.29581401 -4.0540292e-05 0)
(0.29570224 -3.7877163e-05 0)
(0.29559784 -3.5388631e-05 0)
(0.29550032 -3.3063718e-05 0)
(0.29540922 -3.089209e-05 0)
(0.29532413 -2.8863498e-05 0)
(0.29524464 -2.6968258e-05 0)
(0.29517039 -2.5197026e-05 0)
(0.29510103 -2.3541353e-05 0)
(0.29503624 -2.1993176e-05 0)
(0.29497573 -2.054603e-05 0)
(0.29491919 -1.9193474e-05 0)
(0.29486638 -1.7930332e-05 0)
(0.29481706 -1.6750425e-05 0)
(0.29477097 -1.5649389e-05 0)
(0.29472793 -1.4620456e-05 0)
(0.29468771 -1.3660407e-05 0)
(0.29465016 -1.2762064e-05 0)
(0.29461507 -1.1923732e-05 0)
(0.2945823 -1.1137441e-05 0)
(0.29455168 -1.0405368e-05 0)
(0.29452309 -9.7160777e-06 0)
(0.29449637 -9.0770007e-06 0)
(0.29447142 -8.4789618e-06 0)
(0.29444808 -7.9300759e-06 0)
(0.29442632 -7.3961407e-06 0)
(0.29440599 -6.9097919e-06 0)
(0.294387 -6.4602606e-06 0)
(0.2943692 -6.0627833e-06 0)
(0.29435259 -5.6565393e-06 0)
(0.29433715 -5.2936538e-06 0)
(0.2943225 -4.9715425e-06 0)
(0.29430919 -4.6856078e-06 0)
(0.29429569 -4.532289e-06 0)
(0.29428502 -4.4002488e-06 0)
(0.29426875 -5.0537696e-06 0)
)
;

boundaryField
{
    top
    {
        type            fixedValue;
        value           uniform (0 0 0);
    }
    inlet
    {
        type            fixedValue;
        value           uniform (1 0 0);
    }
    outlet
    {
        type            zeroGradient;
    }
    bottom
    {
        type            fixedValue;
        value           uniform (0 0 0);
    }
    back
    {
        type            empty;
    }
    front
    {
        type            empty;
    }
}


// ************************************************************************* //
