/*--------------------------------*- C++ -*----------------------------------*\
| =========                 |                                                 |
| \\      /  F ield         | OpenFOAM: The Open Source CFD Toolbox           |
|  \\    /   O peration     | Version:  v1812                                 |
|   \\  /    A nd           | Web:      www.OpenFOAM.com                      |
|    \\/     M anipulation  |                                                 |
\*---------------------------------------------------------------------------*/
FoamFile
{
    version     2.0;
    format      ascii;
    class       volScalarField;
    location    "4";
    object      p;
}
// * * * * * * * * * * * * * * * * * * * * * * * * * * * * * * * * * * * * * //

dimensions      [0 2 -2 0 0 0 0];


internalField   nonuniform List<scalar> 
1000
(
1.5141329
1.4972014
1.4810685
1.4653451
1.4498141
1.4343993
1.4190698
1.4038018
1.3885747
1.373373
1.3581863
1.3430081
1.3278341
1.3126616
1.2974891
1.2823161
1.2671424
1.2519681
1.2367934
1.2216184
1.2064432
1.1912679
1.1760925
1.1609172
1.1457418
1.1305664
1.115391
1.1002156
1.0850402
1.0698648
1.0546894
1.039514
1.0243386
1.0091633
0.99398787
0.97881248
0.96363709
0.94846171
0.93328632
0.91811093
0.90293554
0.88776016
0.87258477
0.85740938
0.84223399
0.82705861
0.81188322
0.79670783
0.78153244
0.76635705
0.75118167
0.73600628
0.72083089
0.7056555
0.69048012
0.67530473
0.66012934
0.64495395
0.62977857
0.61460318
0.59942779
0.5842524
0.56907702
0.55390163
0.53872624
0.52355085
0.50837546
0.49320008
0.47802469
0.4628493
0.44767391
0.43249853
0.41732314
0.40214775
0.38697236
0.37179698
0.35662159
0.3414462
0.32627081
0.31109543
0.29592004
0.28074465
0.26556926
0.25039388
0.23521849
0.2200431
0.20486771
0.18969232
0.17451694
0.15934155
0.14416616
0.12899077
0.11381539
0.098639998
0.08346461
0.068289223
0.053113836
0.037938451
0.022763067
0.0075876868
1.5136987
1.4967844
1.4810036
1.4654765
1.4499601
1.4345056
1.4191447
1.4038566
1.3886131
1.3733975
1.3582007
1.343016
1.3278382
1.3126635
1.2974899
1.2823164
1.2671425
1.2519681
1.2367934
1.2216183
1.2064432
1.1912679
1.1760925
1.1609171
1.1457418
1.1305664
1.115391
1.1002156
1.0850402
1.0698648
1.0546894
1.039514
1.0243386
1.0091633
0.99398787
0.97881248
0.96363709
0.94846171
0.93328632
0.91811093
0.90293554
0.88776016
0.87258477
0.85740938
0.84223399
0.82705861
0.81188322
0.79670783
0.78153244
0.76635705
0.75118167
0.73600628
0.72083089
0.7056555
0.69048012
0.67530473
0.66012934
0.64495395
0.62977857
0.61460318
0.59942779
0.5842524
0.56907702
0.55390163
0.53872624
0.52355085
0.50837546
0.49320008
0.47802469
0.4628493
0.44767391
0.43249853
0.41732314
0.40214775
0.38697236
0.37179698
0.35662159
0.3414462
0.32627081
0.31109543
0.29592004
0.28074465
0.26556926
0.25039388
0.23521849
0.2200431
0.20486771
0.18969232
0.17451694
0.15934155
0.14416616
0.12899077
0.11381539
0.098639998
0.08346461
0.068289222
0.053113835
0.037938449
0.022763062
0.0075876834
1.5130404
1.4960589
1.4807292
1.4655075
1.4500562
1.4345778
1.419197
1.4039011
1.3886502
1.3734249
1.3582191
1.3430277
1.3278454
1.3126679
1.2974924
1.2823177
1.2671431
1.2519684
1.2367935
1.2216184
1.2064432
1.1912679
1.1760925
1.1609171
1.1457418
1.1305664
1.115391
1.1002156
1.0850402
1.0698648
1.0546894
1.039514
1.0243386
1.0091633
0.99398787
0.97881248
0.96363709
0.94846171
0.93328632
0.91811093
0.90293554
0.88776016
0.87258477
0.85740938
0.84223399
0.82705861
0.81188322
0.79670783
0.78153244
0.76635705
0.75118167
0.73600628
0.72083089
0.7056555
0.69048012
0.67530473
0.66012934
0.64495395
0.62977857
0.61460318
0.59942779
0.5842524
0.56907702
0.55390163
0.53872624
0.52355085
0.50837546
0.49320008
0.47802469
0.4628493
0.44767391
0.43249853
0.41732314
0.40214775
0.38697236
0.37179698
0.35662159
0.3414462
0.32627081
0.31109543
0.29592004
0.28074465
0.26556926
0.25039388
0.23521849
0.2200431
0.20486771
0.18969232
0.17451694
0.15934155
0.14416616
0.12899077
0.11381539
0.098639997
0.083464609
0.068289221
0.053113833
0.037938446
0.022763058
0.0075876801
1.5124909
1.4954062
1.4804361
1.4654991
1.4501289
1.4346401
1.4192461
1.4039469
1.3886916
1.3734577
1.3582425
1.3430436
1.3278558
1.3126743
1.2974962
1.2823198
1.2671442
1.2519689
1.2367937
1.2216185
1.2064432
1.1912678
1.1760925
1.1609171
1.1457417
1.1305664
1.115391
1.1002156
1.0850402
1.0698648
1.0546894
1.039514
1.0243386
1.0091633
0.99398787
0.97881248
0.96363709
0.94846171
0.93328632
0.91811093
0.90293554
0.88776016
0.87258477
0.85740938
0.84223399
0.82705861
0.81188322
0.79670783
0.78153244
0.76635705
0.75118167
0.73600628
0.72083089
0.7056555
0.69048012
0.67530473
0.66012934
0.64495395
0.62977857
0.61460318
0.59942779
0.5842524
0.56907702
0.55390163
0.53872624
0.52355085
0.50837546
0.49320008
0.47802469
0.4628493
0.44767391
0.43249853
0.41732314
0.40214775
0.38697236
0.37179698
0.35662159
0.3414462
0.32627081
0.31109543
0.29592004
0.28074465
0.26556926
0.25039388
0.23521849
0.2200431
0.20486771
0.18969232
0.17451694
0.15934155
0.14416616
0.12899077
0.11381538
0.098639997
0.083464608
0.06828922
0.053113831
0.037938443
0.022763054
0.0075876779
1.5122005
1.495045
1.4802622
1.4654873
1.4501695
1.4346779
1.4192772
1.4039768
1.3887194
1.3734803
1.3582591
1.343055
1.3278634
1.3126791
1.297499
1.2823214
1.267145
1.2519693
1.2367939
1.2216185
1.2064432
1.1912678
1.1760925
1.1609171
1.1457417
1.1305664
1.115391
1.1002156
1.0850402
1.0698648
1.0546894
1.039514
1.0243386
1.0091633
0.99398787
0.97881248
0.96363709
0.94846171
0.93328632
0.91811093
0.90293554
0.88776016
0.87258477
0.85740938
0.84223399
0.82705861
0.81188322
0.79670783
0.78153244
0.76635705
0.75118167
0.73600628
0.72083089
0.7056555
0.69048012
0.67530473
0.66012934
0.64495395
0.62977857
0.61460318
0.59942779
0.5842524
0.56907702
0.55390163
0.53872624
0.52355085
0.50837546
0.49320008
0.47802469
0.4628493
0.44767391
0.43249853
0.41732314
0.40214775
0.38697236
0.37179698
0.35662159
0.3414462
0.32627081
0.31109543
0.29592004
0.28074465
0.26556926
0.25039388
0.23521849
0.2200431
0.20486771
0.18969232
0.17451694
0.15934155
0.14416616
0.12899077
0.11381538
0.098639996
0.083464608
0.068289219
0.05311383
0.037938442
0.022763052
0.0075876768
1.5122005
1.495045
1.4802622
1.4654873
1.4501695
1.4346779
1.4192772
1.4039768
1.3887194
1.3734803
1.3582591
1.343055
1.3278634
1.3126791
1.297499
1.2823213
1.267145
1.2519693
1.2367939
1.2216185
1.2064432
1.1912678
1.1760925
1.1609171
1.1457417
1.1305664
1.115391
1.1002156
1.0850402
1.0698648
1.0546894
1.039514
1.0243386
1.0091633
0.99398787
0.97881248
0.96363709
0.94846171
0.93328632
0.91811093
0.90293554
0.88776016
0.87258477
0.85740938
0.84223399
0.82705861
0.81188322
0.79670783
0.78153244
0.76635705
0.75118167
0.73600628
0.72083089
0.7056555
0.69048012
0.67530473
0.66012934
0.64495395
0.62977857
0.61460318
0.59942779
0.5842524
0.56907702
0.55390163
0.53872624
0.52355085
0.50837546
0.49320008
0.47802469
0.4628493
0.44767391
0.43249853
0.41732314
0.40214775
0.38697236
0.37179698
0.35662159
0.3414462
0.32627081
0.31109543
0.29592004
0.28074465
0.26556926
0.25039388
0.23521849
0.2200431
0.20486771
0.18969232
0.17451694
0.15934155
0.14416616
0.12899077
0.11381538
0.098639996
0.083464608
0.068289219
0.05311383
0.037938442
0.022763053
0.0075876769
1.5124909
1.4954062
1.4804361
1.465499
1.4501289
1.4346401
1.4192461
1.4039469
1.3886916
1.3734577
1.3582425
1.3430436
1.3278558
1.3126743
1.2974962
1.2823197
1.2671441
1.2519689
1.2367937
1.2216184
1.2064432
1.1912678
1.1760925
1.1609171
1.1457417
1.1305664
1.115391
1.1002156
1.0850402
1.0698648
1.0546894
1.039514
1.0243386
1.0091633
0.99398787
0.97881248
0.96363709
0.94846171
0.93328632
0.91811093
0.90293554
0.88776016
0.87258477
0.85740938
0.84223399
0.82705861
0.81188322
0.79670783
0.78153244
0.76635705
0.75118167
0.73600628
0.72083089
0.7056555
0.69048012
0.67530473
0.66012934
0.64495395
0.62977857
0.61460318
0.59942779
0.5842524
0.56907702
0.55390163
0.53872624
0.52355085
0.50837546
0.49320008
0.47802469
0.4628493
0.44767391
0.43249853
0.41732314
0.40214775
0.38697236
0.37179698
0.35662159
0.3414462
0.32627081
0.31109543
0.29592004
0.28074465
0.26556926
0.25039388
0.23521849
0.2200431
0.20486771
0.18969232
0.17451694
0.15934155
0.14416616
0.12899077
0.11381538
0.098639996
0.083464608
0.06828922
0.053113831
0.037938444
0.022763055
0.0075876781
1.5130404
1.4960589
1.4807292
1.4655074
1.4500562
1.4345778
1.419197
1.4039011
1.3886502
1.3734249
1.3582191
1.3430277
1.3278454
1.3126679
1.2974924
1.2823177
1.2671431
1.2519684
1.2367935
1.2216184
1.2064432
1.1912679
1.1760925
1.1609171
1.1457418
1.1305664
1.115391
1.1002156
1.0850402
1.0698648
1.0546894
1.039514
1.0243386
1.0091633
0.99398787
0.97881248
0.96363709
0.94846171
0.93328632
0.91811093
0.90293554
0.88776016
0.87258477
0.85740938
0.84223399
0.82705861
0.81188322
0.79670783
0.78153244
0.76635705
0.75118167
0.73600628
0.72083089
0.7056555
0.69048012
0.67530473
0.66012934
0.64495395
0.62977857
0.61460318
0.59942779
0.5842524
0.56907702
0.55390163
0.53872624
0.52355085
0.50837546
0.49320008
0.47802469
0.4628493
0.44767391
0.43249853
0.41732314
0.40214775
0.38697236
0.37179698
0.35662159
0.3414462
0.32627081
0.31109543
0.29592004
0.28074465
0.26556926
0.25039388
0.23521849
0.2200431
0.20486771
0.18969232
0.17451694
0.15934155
0.14416616
0.12899077
0.11381538
0.098639997
0.083464609
0.068289221
0.053113833
0.037938447
0.022763058
0.0075876804
1.5136987
1.4967844
1.4810036
1.4654764
1.4499601
1.4345056
1.4191447
1.4038566
1.3886131
1.3733975
1.3582007
1.343016
1.3278382
1.3126635
1.2974899
1.2823164
1.2671425
1.2519681
1.2367934
1.2216183
1.2064432
1.1912679
1.1760925
1.1609171
1.1457418
1.1305664
1.115391
1.1002156
1.0850402
1.0698648
1.0546894
1.039514
1.0243386
1.0091633
0.99398787
0.97881248
0.96363709
0.94846171
0.93328632
0.91811093
0.90293554
0.88776016
0.87258477
0.85740938
0.84223399
0.82705861
0.81188322
0.79670783
0.78153244
0.76635705
0.75118167
0.73600628
0.72083089
0.7056555
0.69048012
0.67530473
0.66012934
0.64495395
0.62977857
0.61460318
0.59942779
0.5842524
0.56907702
0.55390163
0.53872624
0.52355085
0.50837546
0.49320008
0.47802469
0.4628493
0.44767391
0.43249853
0.41732314
0.40214775
0.38697236
0.37179698
0.35662159
0.3414462
0.32627081
0.31109543
0.29592004
0.28074465
0.26556926
0.25039388
0.23521849
0.2200431
0.20486771
0.18969232
0.17451694
0.15934155
0.14416616
0.12899077
0.11381538
0.098639997
0.083464609
0.068289222
0.053113835
0.03793845
0.022763063
0.0075876837
1.5141329
1.4972014
1.4810685
1.4653451
1.4498141
1.4343993
1.4190698
1.4038019
1.3885747
1.373373
1.3581863
1.3430081
1.327834
1.3126616
1.2974891
1.2823161
1.2671424
1.2519681
1.2367934
1.2216184
1.2064432
1.1912679
1.1760925
1.1609172
1.1457418
1.1305664
1.115391
1.1002156
1.0850402
1.0698648
1.0546894
1.039514
1.0243386
1.0091633
0.99398787
0.97881248
0.96363709
0.94846171
0.93328632
0.91811093
0.90293554
0.88776016
0.87258477
0.85740938
0.84223399
0.82705861
0.81188322
0.79670783
0.78153244
0.76635705
0.75118167
0.73600628
0.72083089
0.7056555
0.69048012
0.67530473
0.66012934
0.64495395
0.62977857
0.61460318
0.59942779
0.5842524
0.56907702
0.55390163
0.53872624
0.52355085
0.50837546
0.49320008
0.47802469
0.4628493
0.44767391
0.43249853
0.41732314
0.40214775
0.38697236
0.37179698
0.35662159
0.3414462
0.32627081
0.31109543
0.29592004
0.28074465
0.26556926
0.25039388
0.23521849
0.2200431
0.20486771
0.18969232
0.17451694
0.15934155
0.14416616
0.12899077
0.11381538
0.098639997
0.08346461
0.068289222
0.053113836
0.037938451
0.022763067
0.007587687
)
;

boundaryField
{
    top
    {
        type            zeroGradient;
    }
    inlet
    {
        type            fixedValue;
        value           uniform 1.523;
    }
    outlet
    {
        type            fixedValue;
        value           uniform 0;
    }
    bottom
    {
        type            zeroGradient;
    }
    back
    {
        type            empty;
    }
    front
    {
        type            empty;
    }
}


// ************************************************************************* //
