/*--------------------------------*- C++ -*----------------------------------*\
| =========                 |                                                 |
| \\      /  F ield         | OpenFOAM: The Open Source CFD Toolbox           |
|  \\    /   O peration     | Version:  v1812                                 |
|   \\  /    A nd           | Web:      www.OpenFOAM.com                      |
|    \\/     M anipulation  |                                                 |
\*---------------------------------------------------------------------------*/
FoamFile
{
    version     2.0;
    format      ascii;
    class       surfaceScalarField;
    location    "4";
    object      phi;
}
// * * * * * * * * * * * * * * * * * * * * * * * * * * * * * * * * * * * * * //

dimensions      [0 3 -1 0 0 0 0];
oriented        oriented;


internalField   nonuniform List<scalar> 
1890
(
0.0017507733
6.1089897e-06
0.001734256
1.6516671e-05
0.0017180496
1.6206024e-05
0.0017062215
1.1828527e-05
0.0016982222
8.0001493e-06
0.0016926585
5.5644926e-06
0.0016887418
3.9173075e-06
0.0016860983
2.6440887e-06
0.001684431
1.667828e-06
0.0016834517
9.7978424e-07
0.0016829208
5.314772e-07
0.0016826643
2.5689011e-07
0.0016825642
1.0060412e-07
0.0016825448
1.985895e-08
0.001682558
-1.2928037e-08
0.0016825802
-2.1908342e-08
0.0016826006
-2.0171524e-08
0.0016826158
-1.500407e-08
0.0016826258
-9.8485922e-09
0.0016826318
-5.9039517e-09
0.0016826352
-3.2832146e-09
0.0016826369
-1.701101e-09
0.0016826378
-8.2020066e-10
0.0016826382
-3.602831e-10
0.0016826384
-1.3805699e-10
0.0016826384
-3.6923301e-11
0.0016826384
3.1854927e-12
0.0016826384
1.7629019e-11
0.0016826384
1.8752198e-11
0.0016826384
1.8089477e-11
0.0016826384
1.389399e-11
0.0016826384
1.2019602e-11
0.0016826384
8.2880012e-12
0.0016826384
7.1815903e-12
0.0016826384
4.1967303e-12
0.0016826384
3.6382692e-12
0.0016826384
1.4178438e-12
0.0016826384
1.3430354e-12
0.0016826384
-1.9727646e-13
0.0016826384
4.7885852e-14
0.0016826384
-8.6987043e-13
0.0016826384
-5.5318061e-14
0.0016826384
-6.057951e-13
0.0016826384
4.9534141e-13
0.0016826384
1.3175489e-13
0.0016826384
1.3751691e-12
0.0016826384
7.8242518e-13
0.0016826384
1.9266189e-12
0.0016826384
1.0945403e-12
0.0016826384
2.0120193e-12
0.0016826384
8.4217871e-13
0.0016826384
1.349932e-12
0.0016826383
1.5165279e-13
0.0016826383
3.8503201e-13
0.0016826383
-9.6526314e-13
0.0016826383
-5.8401111e-13
0.0016826383
-1.8745276e-12
0.0016826383
-1.1677978e-12
0.0016826383
-2.2993412e-12
0.0016826384
-1.3304505e-12
0.0016826384
-2.0959339e-12
0.0016826384
-8.2781602e-13
0.0016826384
-1.3071894e-12
0.0016826384
-7.1262616e-14
0.0016826384
-1.7938791e-13
0.0016826384
1.1657434e-12
0.0016826384
7.3175443e-13
0.0016826384
2.0610823e-12
0.0016826384
1.4147917e-12
0.0016826384
2.6089089e-12
0.0016826384
1.618621e-12
0.0016826384
2.4677982e-12
0.0016826384
1.2763286e-12
0.0016826384
1.8854856e-12
0.0016826383
5.2538552e-13
0.0016826383
7.9151995e-13
0.0016826383
-5.6188834e-13
0.0016826383
-2.5595166e-13
0.0016826383
-1.6660616e-12
0.0016826383
-1.1877643e-12
0.0016826383
-2.5054781e-12
0.0016826383
-1.7182765e-12
0.0016826383
-2.8700323e-12
0.0016826383
-1.8615734e-12
0.0016826383
-2.68003e-12
0.0016826384
-1.3681717e-12
0.0016826384
-1.9166456e-12
0.0016826384
-4.9574357e-13
0.0016826384
-5.6987096e-13
0.0016826384
1.1491296e-12
0.0016826384
1.2729765e-12
0.0016826384
3.4367945e-12
0.0016826384
4.3869658e-12
0.0016826383
8.4667244e-12
0.0016826383
1.3830602e-11
0.0016826383
2.5233385e-11
0.0016826383
4.3970415e-11
0.0016826382
6.8757374e-11
0.001682638
1.5835999e-10
1.6776837e-10
0.0038101896
6.9155829e-06
0.0038034933
2.3211273e-05
0.0037929453
2.6752553e-05
0.0037822892
2.2484478e-05
0.0037730759
1.7214195e-05
0.0037655062
1.3134803e-05
0.0037595177
9.9060521e-06
0.0037550299
7.1319781e-06
0.0037518759
4.8220138e-06
0.0037498
3.0560504e-06
0.0037485238
1.8079802e-06
0.0037477992
9.8185037e-07
0.003747428
4.7219359e-07
0.003747263
1.8508287e-07
0.0037472079
4.2619392e-08
0.0037472026
-1.6422732e-08
0.0037472154
-3.2676366e-08
0.0037472309
-3.0288261e-08
0.0037472435
-2.2299608e-08
0.0037472522
-1.4443567e-08
0.0037472575
-8.5376842e-09
0.0037472605
-4.6854942e-09
0.0037472622
-2.4018501e-09
0.003747263
-1.1491978e-09
0.0037472634
-5.0364911e-10
0.0037472636
-1.9372387e-10
0.0037472636
-5.3037931e-11
0.0037472637
3.0976211e-12
0.0037472637
2.4118958e-11
0.0037472637
2.7161846e-11
0.0037472637
2.5854997e-11
0.0037472637
2.0857578e-11
0.0037472637
1.7531674e-11
0.0037472637
1.2677049e-11
0.0037472637
1.0046658e-11
0.0037472636
6.1997079e-12
0.0037472636
4.5751035e-12
0.0037472636
1.9600729e-12
0.0037472636
1.0511209e-12
0.0037472636
-4.0628374e-13
0.0037472636
-3.617598e-13
0.0037472636
-8.7795384e-13
0.0037472636
-2.0417866e-13
0.0037472636
-4.936266e-14
0.0037472636
1.0792244e-12
0.0037472636
1.1307481e-12
0.0037472636
2.3757019e-12
0.0037472636
2.032023e-12
0.0037472636
3.0053784e-12
0.0037472636
2.2162004e-12
0.0037472636
2.5767319e-12
0.0037472636
1.3348782e-12
0.0037472636
1.1919231e-12
0.0037472636
-1.1710703e-13
0.0037472636
-5.274527e-13
0.0037472636
-1.9803011e-12
0.0037472636
-1.9059877e-12
0.0037472636
-3.1393215e-12
0.0037472636
-2.6622614e-12
0.0037472636
-3.4643217e-12
0.0037472636
-2.4175357e-12
0.0037472636
-2.6361713e-12
0.0037472636
-1.3324537e-12
0.0037472636
-1.080975e-12
0.0037472636
3.9752983e-13
0.0037472636
7.5546251e-13
0.0037472636
2.2282488e-12
0.0037472636
2.1854191e-12
0.0037472636
3.5569046e-12
0.0037472636
3.1261583e-12
0.0037472636
3.9991169e-12
0.0037472636
3.0492922e-12
0.0037472636
3.5031535e-12
0.0037472636
2.2176741e-12
0.0037472636
2.1332604e-12
0.0037472636
6.9414941e-13
0.0037472636
2.1458482e-13
0.0037472636
-1.1779045e-12
0.0037472636
-1.4373094e-12
0.0037472636
-2.9946182e-12
0.0037472636
-2.8225537e-12
0.0037472636
-4.0763479e-12
0.0037472636
-3.5513376e-12
0.0037472636
-4.420256e-12
0.0037472636
-3.3564273e-12
0.0037472636
-3.6660326e-12
0.0037472636
-2.2297935e-12
0.0037472636
-1.9554132e-12
0.0037472636
-1.6376583e-13
0.0037472636
8.8644397e-13
0.0037472636
3.5171424e-12
0.0037472636
5.0278643e-12
0.0037472636
1.0083865e-11
0.0037472636
1.5465079e-11
0.0037472636
2.7808272e-11
0.0037472636
4.3002945e-11
0.0037472636
7.429357e-11
0.0037472635
1.0301973e-10
0.0037472635
1.9486955e-10
2.0522251e-10
0.0049178957
4.7322572e-06
0.0049223986
1.8705663e-05
0.0049252569
2.3893196e-05
0.004925836
2.1906161e-05
0.004925017
1.8034389e-05
0.0049235444
1.460786e-05
0.0049218469
1.1603547e-05
0.0049201996
8.7791741e-06
0.004918781
6.2406756e-06
0.004917673
4.1642704e-06
0.004916878
2.6031415e-06
0.0049163515
1.5084833e-06
0.0049160304
7.9354998e-07
0.0049158512
3.645629e-07
0.0049157613
1.3274433e-07
0.0049157214
2.3813903e-08
0.0049157084
-1.9345674e-08
0.0049157065
-2.8205929e-08
0.0049157086
-2.418874e-08
0.0049157113
-1.7002182e-08
0.0049157134
-1.0613474e-08
0.0049157149
-6.0725577e-09
0.0049157158
-3.2310908e-09
0.0049157163
-1.603439e-09
0.0049157166
-7.3772712e-10
0.0049157167
-3.0493409e-10
0.0049157168
-1.033159e-10
0.0049157168
-1.6525348e-11
0.0049157168
1.8179229e-11
0.0049157168
2.831444e-11
0.0049157168
2.7720561e-11
0.0049157168
2.4803541e-11
0.0049157168
1.9676692e-11
0.0049157168
1.5832676e-11
0.0049157168
1.1223547e-11
0.0049157168
8.3036899e-12
0.0049157168
4.9558872e-12
0.0049157168
3.0496949e-12
0.0049157168
1.1873538e-12
0.0049157168
1.2025024e-13
0.0049157168
-3.6321769e-13
0.0049157168
-4.5311485e-13
0.0049157168
-7.9376966e-14
0.0049157168
4.5444559e-13
0.0049157168
9.8404234e-13
0.0049157168
1.9158875e-12
0.0049157168
2.1277252e-12
0.0049157168
2.892306e-12
0.0049157168
2.6193656e-12
0.0049157168
2.8372715e-12
0.0049157168
2.0539056e-12
0.0049157168
1.6746883e-12
0.0049157168
7.0717221e-13
0.0049157168
-1.9732349e-13
0.0049157168
-1.2573209e-12
0.0049157168
-1.7900321e-12
0.0049157168
-2.842369e-12
0.0049157168
-2.9043804e-12
0.0049157168
-3.5349158e-12
0.0049157168
-3.0186592e-12
0.0049157168
-3.0688976e-12
0.0049157168
-2.1285296e-12
0.0049157168
-1.6155613e-12
0.0049157168
-5.6880331e-13
0.0049157168
3.6924927e-13
0.0049157168
1.5060342e-12
0.0049157168
2.0465546e-12
0.0049157168
3.190064e-12
0.0049157168
3.294348e-12
0.0049157168
4.0404794e-12
0.0049157168
3.6246424e-12
0.0049157168
3.8787536e-12
0.0049157168
3.0176923e-12
0.0049157168
2.7496277e-12
0.0049157168
1.6160723e-12
0.0049157168
8.3090098e-13
0.0049157168
-1.9615885e-13
0.0049157168
-1.0752926e-12
0.0049157168
-2.291381e-12
0.0049157168
-2.6899557e-12
0.0049157168
-3.771856e-12
0.0049157168
-3.762708e-12
0.0049157168
-4.4559631e-12
0.0049157168
-3.922292e-12
0.0049157168
-4.0869308e-12
0.0049157168
-3.0889411e-12
0.0049157168
-2.6613345e-12
0.0049157168
-1.2536698e-12
0.0049157168
1.2351998e-13
0.0049157168
1.9719374e-12
0.0049157168
3.8436189e-12
0.0049157168
7.234523e-12
0.0049157168
1.2042995e-11
0.0049157168
2.0128677e-11
0.0049157168
3.148864e-11
0.0049157168
4.6295816e-11
0.0049157168
7.2280532e-11
0.0049157168
9.3035079e-11
0.0049157168
1.5518493e-10
1.5972387e-10
0.0054602228
2.2195588e-06
0.0054691522
9.7736594e-06
0.005479776
1.3268447e-05
0.005488906
1.2777051e-05
0.0054959921
1.0949595e-05
0.0055014236
9.1770425e-06
0.0055055042
7.5230149e-06
0.0055084138
5.8696146e-06
0.0055103526
4.3019602e-06
0.0055115568
2.9602515e-06
0.0055122497
1.9104947e-06
0.0055126112
1.1471404e-06
0.0055127742
6.3084282e-07
0.0055128297
3.0941976e-07
0.0055128349
1.2795319e-07
0.0055128218
3.7231099e-08
0.0055128051
-2.2590837e-09
0.0055127914
-1.4275339e-08
0.0055127819
-1.4485462e-08
0.005512776
-1.0941343e-08
0.0055127726
-7.1089936e-09
0.0055127708
-4.1756088e-09
0.0055127699
-2.2566821e-09
0.0055127695
-1.1316275e-09
0.0055127693
-5.1788617e-10
0.0055127692
-2.1123061e-10
0.0055127692
-6.4658219e-11
0.0055127692
-4.0144287e-12
0.0055127692
2.1879791e-11
0.0055127692
2.5727933e-11
0.0055127692
2.6823129e-11
0.0055127692
2.0878428e-11
0.0055127692
1.8786235e-11
0.0055127692
1.2519501e-11
0.0055127693
1.0989151e-11
0.0055127693
5.8612441e-12
0.0055127693
5.1525193e-12
0.0055127693
1.578094e-12
0.0055127693
1.74637e-12
0.0055127693
-4.320703e-13
0.0055127693
4.7073262e-13
0.0055127693
-6.9952431e-13
0.0055127693
1.0312158e-12
0.0055127693
2.3501165e-13
0.0055127693
2.1570566e-12
0.0055127693
1.1079776e-12
0.0055127693
3.1468208e-12
0.0055127693
1.6160939e-12
0.0055127693
3.1560256e-12
0.0055127693
1.2248084e-12
0.0055127693
2.2610746e-12
0.0055127693
2.3151361e-13
0.0055127693
5.5455601e-13
0.0055127693
-1.5940158e-12
0.0055127693
-8.0393362e-13
0.0055127693
-3.0267543e-12
0.0055127693
-1.8147433e-12
0.0055127693
-3.7562747e-12
0.0055127693
-1.9585662e-12
0.0055127693
-3.3949537e-12
0.0055127693
-1.3200103e-12
0.0055127693
-2.2058299e-12
0.0055127693
-8.4790446e-14
0.0055127693
-3.6389326e-13
0.0055127693
1.7429833e-12
0.0055127693
9.9018642e-13
0.0055127693
3.3127369e-12
0.0055127693
2.0612483e-12
0.0055127693
4.0794007e-12
0.0055127693
2.3797277e-12
0.0055127693
4.0363332e-12
0.0055127693
1.9414739e-12
0.0055127693
3.0595095e-12
0.0055127693
8.5747168e-13
0.0055127693
1.5563789e-12
0.0055127693
-6.3976616e-13
0.0055127693
-2.4178474e-13
0.0055127693
-2.4227404e-12
0.0055127693
-1.4509456e-12
0.0055127693
-3.7202478e-12
0.0055127693
-2.373316e-12
0.0055127693
-4.3610128e-12
0.0055127693
-2.4969204e-12
0.0055127693
-4.0503867e-12
0.0055127693
-1.8974581e-12
0.0055127693
-2.9060624e-12
0.0055127693
-5.3264373e-13
0.0055127692
-7.4178583e-13
0.0055127693
2.0024909e-12
0.0055127693
1.8895923e-12
0.0055127693
5.6961721e-12
0.0055127693
6.6550125e-12
0.0055127693
1.3506374e-11
0.0055127693
1.7799746e-11
0.0055127693
2.8515111e-11
0.0055127693
3.4452526e-11
0.0055127693
5.1035561e-11
0.0055127693
5.7985408e-11
0.0055127694
8.7261653e-11
8.6727103e-11
0.0056765932
-8.6562253e-11
0.0056863639
-3.5242416e-10
0.0056996315
-2.2661472e-10
0.0057124097
7.1394606e-11
0.0057233611
2.2675961e-10
0.0057325391
2.8795123e-11
0.0057400627
-2.3672799e-10
0.0057459328
-4.1121411e-10
0.0057502354
-4.5333012e-10
0.0057531965
-4.640193e-10
0.0057551077
-4.5670855e-10
0.0057562556
-4.028416e-10
0.005756887
-3.019278e-10
0.005757197
-1.8889664e-10
0.0057573255
-3.315492e-11
0.0057573631
5.141771e-11
0.0057573611
1.289693e-10
0.0057573469
1.6694742e-10
0.0057573325
1.7779889e-10
0.0057573215
1.7513222e-10
0.0057573144
1.5948088e-10
0.0057573102
1.418946e-10
0.0057573079
1.1929086e-10
0.0057573067
1.0029947e-10
0.0057573061
8.0100369e-11
0.0057573059
6.5839003e-11
0.0057573058
5.0998005e-11
0.0057573058
4.1982481e-11
0.0057573058
3.1838545e-11
0.0057573058
2.6593755e-11
0.0057573058
1.9437416e-11
0.0057573058
1.6145181e-11
0.0057573058
1.0797923e-11
0.0057573058
9.0099444e-12
0.0057573058
5.0743438e-12
0.0057573058
4.1772911e-12
0.0057573058
1.2125756e-12
0.0057573058
1.4990494e-12
0.0057573058
-4.2060049e-13
0.0057573058
6.1884831e-13
0.0057573058
-7.1521618e-13
0.0057573058
1.048628e-12
0.0057573058
1.7782948e-13
0.0057573058
1.9774232e-12
0.0057573058
8.7360434e-13
0.0057573058
2.594203e-12
0.0057573058
1.3550679e-12
0.0057573058
2.506012e-12
0.0057573058
7.4437664e-13
0.0057573058
1.6589175e-12
0.0057573058
-2.2405588e-13
0.0057573058
3.5959996e-13
0.0057573058
-1.7421046e-12
0.0057573058
-8.2956421e-13
0.0057573058
-2.6341213e-12
0.0057573058
-1.5459113e-12
0.0057573058
-3.1055078e-12
0.0057573058
-1.5449962e-12
0.0057573058
-2.4988633e-12
0.0057573058
-7.2324889e-13
0.0057573058
-1.5296966e-12
0.0057573058
5.1043697e-13
0.0057573058
-7.2398332e-14
0.0057573058
1.8981112e-12
0.0057573058
9.4180762e-13
0.0057573058
2.8671333e-12
0.0057573058
1.7823527e-12
0.0057573058
3.2243313e-12
0.0057573058
1.7121402e-12
0.0057573058
2.8825763e-12
0.0057573058
1.180413e-12
0.0057573058
1.9274979e-12
0.0057573058
1.6194366e-14
0.0057573059
7.3549225e-13
0.0057573058
-1.1687005e-12
0.0057573059
-4.2950405e-13
0.0057573058
-2.4818877e-12
0.0057573058
-1.3696777e-12
0.0057573058
-3.015251e-12
0.0057573058
-1.8185945e-12
0.0057573058
-3.2642161e-12
0.0057573058
-1.6695435e-12
0.0057573058
-2.5897585e-12
0.0057573058
-8.1659305e-13
0.0057573058
-1.6238014e-12
0.0057573058
4.6015568e-13
0.0057573058
4.124146e-14
0.0057573058
2.2956684e-12
0.0057573058
1.7842919e-12
0.0057573058
4.3784442e-12
0.0057573058
4.4641268e-12
0.0057573058
8.1813734e-12
0.0057573058
9.6236117e-12
0.0057573059
1.4856323e-11
0.0057573059
1.5801534e-11
0.0057573059
1.7804914e-11
0.0057573059
1.6807764e-11
0.0057573059
1.4221133e-11
0.005757306
1.0289418e-11
8.1005497e-12
0.0056765925
-2.2196158e-06
0.0056863629
-9.7733703e-06
0.0056996304
-1.3267953e-05
0.0057124089
-1.277682e-05
0.0057233605
-1.094965e-05
0.0057325387
-9.177283e-06
0.0057400622
-7.5234462e-06
0.0057459323
-5.8702814e-06
0.005750235
-4.3027864e-06
0.005753196
-2.9611427e-06
0.0057551072
-1.9113487e-06
0.005756255
-1.1478768e-06
0.0057568864
-6.313881e-07
0.0057571965
-3.097286e-07
0.0057573249
-1.2807995e-07
0.0057573626
-3.7141771e-08
0.0057573606
2.4775786e-09
0.0057573465
1.455787e-08
0.0057573322
1.4792364e-08
0.0057573213
1.1246317e-08
0.0057573142
7.3905594e-09
0.00575731
4.4261035e-09
0.0057573077
2.469049e-09
0.0057573066
1.3093753e-09
0.005757306
6.6141766e-10
0.0057573058
3.2835667e-10
0.0057573057
1.5617017e-10
0.0057573057
7.8245124e-11
0.0057573057
3.6103057e-11
0.0057573057
2.1334729e-11
0.0057573058
8.8227747e-12
0.0057573058
7.0242928e-12
0.0057573058
1.7092861e-12
0.0057573058
2.4839053e-12
0.0057573058
-7.9859825e-13
0.0057573058
2.8441551e-13
0.0057573058
-2.0450819e-12
0.0057573058
4.836757e-14
0.0057573058
-1.8340667e-12
0.0057573058
5.3070294e-13
0.0057573058
-9.8167317e-13
0.0057573058
1.7731523e-12
0.0057573058
1.0617818e-13
0.0057573058
2.4803024e-12
0.0057573058
4.6563191e-13
0.0057573058
2.7350623e-12
0.0057573058
3.4635478e-13
0.0057573058
1.9184206e-12
0.0057573058
-6.6691746e-13
0.0057573058
8.6745876e-13
0.0057573058
-1.8707521e-12
0.0057573058
-3.6192986e-13
0.0057573058
-2.9741385e-12
0.0057573058
-8.0257148e-13
0.0057573058
-3.2501157e-12
0.0057573058
-8.7125692e-13
0.0057573058
-2.8535695e-12
0.0057573058
-1.6796116e-13
0.0057573058
-1.6731895e-12
0.0057573058
9.5318485e-13
0.0057573058
-3.9964047e-13
0.0057573058
2.360209e-12
0.0057573058
5.8055164e-13
0.0057573058
3.1366027e-12
0.0057573058
9.6888607e-13
0.0057573058
3.4952952e-12
0.0057573058
9.331716e-13
0.0057573058
2.8375337e-12
0.0057573058
2.8747353e-13
0.0057573058
1.928336e-12
0.0057573058
-7.7394559e-13
0.0057573058
5.0806991e-13
0.0057573058
-2.0815789e-12
0.0057573058
-3.6366456e-13
0.0057573058
-2.9708999e-12
0.0057573058
-9.994803e-13
0.0057573058
-3.5543281e-12
0.0057573058
-1.0252899e-12
0.0057573058
-3.2797704e-12
0.0057573058
-7.6469869e-13
0.0057573058
-2.550564e-12
0.0057573058
1.5575388e-13
0.0057573058
-1.2642483e-12
0.0057573058
1.4162937e-12
0.0057573058
6.7454741e-14
0.0057573058
3.0087907e-12
0.0057573058
1.2752083e-12
0.0057573058
4.3580357e-12
0.0057573058
2.3082285e-12
0.0057573058
5.7441961e-12
0.0057573058
3.688704e-12
0.0057573058
7.6038714e-12
0.0057573058
5.2467063e-12
0.0057573058
8.0740289e-12
0.0057573059
1.2820449e-12
0.0057573059
-2.1575891e-12
0.0057573059
-1.9581907e-11
0.0057573059
-3.2710415e-11
0.005757306
-6.7949764e-11
-7.1738749e-11
0.0054602194
-4.7322103e-06
0.0054691498
-1.870579e-05
0.005479774
-2.3893584e-05
0.0054889042
-2.1906374e-05
0.0054959903
-1.8034484e-05
0.0055014219
-1.4608019e-05
0.0055055027
-1.1603915e-05
0.0055084123
-8.7796832e-06
0.0055103511
-6.2412675e-06
0.0055115552
-4.1648762e-06
0.005512248
-2.6037184e-06
0.0055126095
-1.508971e-06
0.0055127725
-7.9394787e-07
0.005512828
-3.6480592e-07
0.0055128333
-1.3285788e-07
0.0055128204
-2.3822879e-08
0.0055128039
1.9439261e-08
0.0055127904
2.8356506e-08
0.0055127811
2.4376541e-08
0.0055127753
1.7193863e-08
0.0055127721
1.0801459e-08
0.0055127704
6.2373314e-09
0.0055127696
3.3777895e-09
0.0055127692
1.7220167e-09
0.0055127691
8.3948667e-10
0.005512769
3.8314702e-10
0.0055127691
1.7016442e-10
0.0055127691
6.4815116e-11
0.0055127691
2.5380861e-11
0.0055127691
3.1386775e-12
0.0055127692
-9.9291371e-13
0.0055127692
-6.9721749e-12
0.0055127692
-3.4681309e-12
0.0055127692
-7.0644596e-12
0.0055127692
-2.6829201e-12
0.0055127692
-5.863455e-12
0.0055127692
-1.3258049e-12
0.0055127692
-3.9226902e-12
0.0055127692
1.1819929e-13
0.0055127692
-2.3322215e-12
0.0055127692
1.8805005e-12
0.0055127692
-7.7482101e-13
0.0055127692
2.7634285e-12
0.0055127692
-3.7690378e-13
0.0055127692
2.8917855e-12
0.0055127692
-5.8987417e-13
0.0055127692
2.1536414e-12
0.0055127692
-1.8375182e-12
0.0055127692
9.9164483e-13
0.0055127692
-2.8302472e-12
0.0055127692
-8.7993012e-14
0.0055127692
-3.7441918e-12
0.0055127692
-4.4359555e-13
0.0055127692
-3.6282276e-12
0.0055127692
-1.837569e-13
0.0055127692
-3.0749961e-12
0.0055127692
9.0585702e-13
0.0055127692
-1.733593e-12
0.0055127692
2.2100766e-12
0.0055127692
-4.6114632e-13
0.0055127692
3.4244116e-12
0.0055127692
4.9783715e-13
0.0055127692
3.9570647e-12
0.0055127692
5.7927635e-13
0.0055127692
3.8591884e-12
0.0055127692
2.8502167e-13
0.0055127692
2.9888187e-12
0.0055127692
-9.6950276e-13
0.0055127692
1.8170772e-12
0.0055127692
-2.192747e-12
0.0055127692
3.3064091e-13
0.0055127692
-3.5389629e-12
0.0055127692
-5.1914731e-13
0.0055127692
-4.1427519e-12
0.0055127692
-8.6550513e-13
0.0055127692
-4.3407788e-12
0.0055127692
-6.4014641e-13
0.0055127692
-3.567447e-12
0.0055127692
8.282642e-14
0.0055127692
-2.6208702e-12
0.0055127692
1.5534717e-12
0.0055127692
-9.7809434e-13
0.0055127692
2.9702034e-12
0.0055127692
3.3263991e-13
0.0055127692
4.4446107e-12
0.0055127692
1.3877073e-12
0.0055127692
5.4395481e-12
0.0055127692
1.9446086e-12
0.0055127692
5.9954472e-12
0.0055127692
2.3761929e-12
0.0055127692
6.1062991e-12
0.0055127692
2.0885364e-12
0.0055127692
4.253919e-12
0.0055127692
-3.1684761e-12
0.0055127693
-7.3834799e-12
0.0055127693
-2.3065439e-11
0.0055127693
-4.7961689e-11
0.0055127693
-7.3771622e-11
0.0055127694
-1.3993908e-10
-1.4752813e-10
0.0049178912
-6.9155981e-06
0.0049223946
-2.3211641e-05
0.0049252534
-2.6753245e-05
0.0049258327
-2.248511e-05
0.0049250138
-1.7214512e-05
0.0049235413
-1.3134858e-05
0.004921844
-9.9060751e-06
0.0049201969
-7.1320971e-06
0.0049187784
-4.8222264e-06
0.0049176705
-3.0562952e-06
0.0049168755
-1.8082026e-06
0.0049163492
-9.8206984e-07
0.0049160282
-4.723302e-07
0.0049158492
-1.8522218e-07
0.0049157595
-4.2676805e-08
0.0049157198
1.6375785e-08
0.0049157069
3.2681651e-08
0.0049157053
3.0332304e-08
0.0049157076
2.23725e-08
0.0049157105
1.4527206e-08
0.0049157128
8.623602e-09
0.0049157144
4.7635625e-09
0.0049157154
2.4718703e-09
0.004915716
1.207338e-09
0.0049157163
5.5338744e-10
0.0049157165
2.3293768e-10
0.0049157166
8.6055684e-11
0.0049157166
2.215524e-11
0.0049157167
-1.9450388e-12
0.0049157167
-1.09729e-11
0.0049157167
-1.2179083e-11
0.0049157167
-1.1408301e-11
0.0049157167
-9.2173484e-12
0.0049157168
-7.9920208e-12
0.0049157168
-6.0353081e-12
0.0049157168
-4.8978325e-12
0.0049157168
-3.1129132e-12
0.0049157168
-2.5020393e-12
0.0049157168
-1.1266923e-12
0.0049157168
-6.0347313e-13
0.0049157168
5.4489097e-13
0.0049157168
4.2846377e-13
0.0049157168
9.3660823e-13
0.0049157168
6.1869517e-13
0.0049157168
8.5053186e-13
0.0049157168
-5.1459353e-14
0.0049157168
-7.6537831e-14
0.0049157168
-9.8312465e-13
0.0049157168
-9.0969602e-13
0.0049157168
-1.8302274e-12
0.0049157168
-1.6823851e-12
0.0049157168
-2.0265289e-12
0.0049157168
-1.4316422e-12
0.0049157168
-1.6520586e-12
0.0049157168
-8.8686031e-13
0.0049157168
-6.5828003e-13
0.0049157168
4.2438048e-13
0.0049157168
4.3861387e-13
0.0049157168
1.3784283e-12
0.0049157168
1.4894009e-12
0.0049157168
2.2850634e-12
0.0049157168
1.8703503e-12
0.0049157168
2.1565442e-12
0.0049157168
1.6558686e-12
0.0049157168
1.7587616e-12
0.0049157168
7.5885045e-13
0.0049157168
5.4284557e-13
0.0049157168
-3.8815889e-13
0.0049157168
-4.8290061e-13
0.0049157168
-1.6462744e-12
0.0049157168
-1.7403461e-12
0.0049157168
-2.3986018e-12
0.0049157168
-2.1113627e-12
0.0049157168
-2.6772048e-12
0.0049157168
-2.2036872e-12
0.0049157168
-2.2234133e-12
0.0049157168
-1.3584393e-12
0.0049157168
-1.3403391e-12
0.0049157168
-3.8089865e-13
0.0049157168
-1.3768842e-13
0.0049157168
1.1663632e-12
0.0049157168
1.2185629e-12
0.0049157168
2.1945626e-12
0.0049157168
2.3927872e-12
0.0049157168
3.2747639e-12
0.0049157168
3.0030953e-12
0.0049157168
3.4912183e-12
0.0049157168
3.22565e-12
0.0049157168
3.6069999e-12
0.0049157168
2.8934956e-12
0.0049157168
2.682468e-12
0.0049157168
1.3008005e-12
0.0049157168
-9.4976484e-13
0.0049157168
-6.6308426e-12
0.0049157168
-1.4891679e-11
0.0049157168
-2.8338417e-11
0.0049157168
-6.0899558e-11
0.0049157168
-9.1761394e-11
0.0049157168
-1.8441132e-10
-1.9684258e-10
0.0038101845
-6.1088065e-06
0.0038034886
-1.6516469e-05
0.0037929411
-1.6206083e-05
0.0037822852
-1.1828762e-05
0.0037730721
-8.0001709e-06
0.0037655027
-5.5642191e-06
0.0037595147
-3.9168977e-06
0.0037550274
-2.6437793e-06
0.0037518738
-1.6676656e-06
0.0037497981
-9.7970458e-07
0.0037485221
-5.3141785e-07
0.0037477976
-2.5681704e-07
0.0037474265
-1.0051734e-07
0.0037472617
-1.975942e-08
0.0037472066
1.2978578e-08
0.0037472015
2.1976595e-08
0.0037472144
2.0224078e-08
0.00374723
1.5060248e-08
0.0037472428
9.8998642e-09
0.0037472515
5.9556047e-09
0.003747257
3.3249868e-09
0.0037472602
1.7400151e-09
0.0037472619
8.4856186e-10
0.0037472627
3.868078e-10
0.0037472632
1.5573591e-10
0.0037472634
5.4182314e-11
0.0037472635
7.9588048e-12
0.0037472636
-5.4877601e-12
0.0037472636
-1.2820639e-11
0.0037472636
-9.407425e-12
0.0037472636
-1.0919389e-11
0.0037472636
-5.9158991e-12
0.0037472636
-7.3883328e-12
0.0037472636
-3.0985491e-12
0.0037472636
-4.790079e-12
0.0037472636
-1.0646968e-12
0.0037472636
-2.9732316e-12
0.0037472636
1.5481474e-13
0.0037472636
-1.7773445e-12
0.0037472636
1.3272896e-12
0.0037472636
-1.0871803e-12
0.0037472636
1.6168214e-12
0.0037472636
-9.4077906e-13
0.0037472636
1.6591174e-12
0.0037472636
-1.2132341e-12
0.0037472636
1.1314791e-12
0.0037472636
-1.6875139e-12
0.0037472636
7.3053361e-13
0.0037472636
-2.0988152e-12
0.0037472636
2.388631e-13
0.0037472636
-2.2389885e-12
0.0037472636
3.8777155e-13
0.0037472636
-2.0592458e-12
0.0037472636
6.7852565e-13
0.0037472636
-1.6029328e-12
0.0037472636
1.4104828e-12
0.0037472636
-9.7029414e-13
0.0037472636
1.8610022e-12
0.0037472636
-3.9132644e-13
0.0037472636
2.3625631e-12
0.0037472636
-1.1965835e-13
0.0037472636
2.3016916e-12
0.0037472636
-2.4516691e-13
0.0037472636
2.1505657e-12
0.0037472636
-7.3129889e-13
0.0037472636
1.5162593e-12
0.0037472636
-1.3985485e-12
0.0037472636
9.7194314e-13
0.0037472636
-2.0001228e-12
0.0037472636
2.0424643e-13
0.0037472636
-2.4388915e-12
0.0037472636
6.9271509e-15
0.0037472636
-2.5917192e-12
0.0037472636
-8.0487489e-14
0.0037472636
-2.3971037e-12
0.0037472636
3.881719e-13
0.0037472636
-1.9406978e-12
0.0037472636
9.280146e-13
0.0037472636
-1.3099171e-12
0.0037472636
1.7479584e-12
0.0037472636
-5.2254728e-13
0.0037472636
2.2774005e-12
0.0037472636
7.9195436e-14
0.0037472636
2.8824526e-12
0.0037472636
4.1690864e-13
0.0037472636
2.987673e-12
0.0037472636
4.5301966e-13
0.0037472636
3.0222655e-12
0.0037472636
3.4043308e-13
0.0037472636
2.6348234e-12
0.0037472636
-2.6966111e-13
0.0037472636
1.3044829e-12
0.0037472636
-3.8342812e-12
0.0037472636
-3.953152e-12
0.0037472636
-1.1077904e-11
0.0037472636
-1.9237787e-11
0.0037472636
-4.1568012e-11
0.0037472635
-6.6180592e-11
0.0037472635
-1.5426495e-10
-1.6429544e-10
0.0017507712
0.0017342544
0.0017180483
0.0017062202
0.0016982208
0.0016926573
0.0016887411
0.0016860979
0.0016844308
0.0016834515
0.0016829205
0.0016826641
0.0016825639
0.0016825445
0.0016825577
0.0016825799
0.0016826003
0.0016826155
0.0016826256
0.0016826316
0.001682635
0.0016826368
0.0016826377
0.0016826381
0.0016826383
0.0016826383
0.0016826384
0.0016826384
0.0016826384
0.0016826384
0.0016826384
0.0016826383
0.0016826383
0.0016826383
0.0016826383
0.0016826383
0.0016826383
0.0016826383
0.0016826383
0.0016826383
0.0016826383
0.0016826383
0.0016826383
0.0016826383
0.0016826383
0.0016826383
0.0016826383
0.0016826383
0.0016826383
0.0016826383
0.0016826383
0.0016826383
0.0016826383
0.0016826383
0.0016826383
0.0016826383
0.0016826383
0.0016826383
0.0016826383
0.0016826383
0.0016826383
0.0016826383
0.0016826383
0.0016826383
0.0016826383
0.0016826383
0.0016826383
0.0016826383
0.0016826383
0.0016826383
0.0016826383
0.0016826383
0.0016826383
0.0016826383
0.0016826383
0.0016826383
0.0016826383
0.0016826383
0.0016826383
0.0016826383
0.0016826383
0.0016826383
0.0016826383
0.0016826383
0.0016826383
0.0016826383
0.0016826383
0.0016826383
0.0016826383
0.0016826383
0.0016826383
0.0016826383
0.0016826383
0.0016826383
0.0016826383
0.0016826383
0.0016826382
0.0016826382
0.001682638
)
;

boundaryField
{
    top
    {
        type            calculated;
        value           uniform 0;
    }
    inlet
    {
        type            calculated;
        value           nonuniform List<scalar> 10(-0.0017568822 -0.0038109969 -0.0049157144 -0.0054577124 -0.0056743759 -0.0056743757 -0.0054577087 -0.0049157095 -0.0038109917 -0.0017568801);
    }
    outlet
    {
        type            calculated;
        value           nonuniform List<scalar> 10(0.0016826379 0.0037472635 0.0049157169 0.0055127695 0.0057573061 0.0057573061 0.0055127695 0.0049157169 0.0037472634 0.0016826379);
    }
    bottom
    {
        type            calculated;
        value           uniform 0;
    }
    back
    {
        type            empty;
        value           nonuniform 0();
    }
    front
    {
        type            empty;
        value           nonuniform 0();
    }
}


// ************************************************************************* //
