/*--------------------------------*- C++ -*----------------------------------*\
| =========                 |                                                 |
| \\      /  F ield         | OpenFOAM: The Open Source CFD Toolbox           |
|  \\    /   O peration     | Version:  v1812                                 |
|   \\  /    A nd           | Web:      www.OpenFOAM.com                      |
|    \\/     M anipulation  |                                                 |
\*---------------------------------------------------------------------------*/
FoamFile
{
    version     2.0;
    format      ascii;
    class       surfaceScalarField;
    location    "4";
    object      phi;
}
// * * * * * * * * * * * * * * * * * * * * * * * * * * * * * * * * * * * * * //

dimensions      [0 3 -1 0 0 0 0];
oriented        oriented;


internalField   nonuniform List<scalar> 
1890
(
0.0093061957
0.00069380425
0.0082843931
0.0010218027
0.0073298986
0.00095449447
0.0064869553
0.00084294326
0.0057695848
0.00071737059
0.0051898607
0.00057972409
0.0047381691
0.00045169153
0.0043951919
0.0003429772
0.00413903
0.00025616192
0.0039491119
0.00018991806
0.0038078954
0.00014121655
0.0037013891
0.00010650628
0.0036190742
8.2314993e-05
0.0035534354
6.5638742e-05
0.0034993186
5.4116902e-05
0.0034532927
4.6025896e-05
0.0034131178
4.0174889e-05
0.0033773519
3.5766021e-05
0.0033450703
3.2281624e-05
0.003315673
2.9397424e-05
0.0032887569
2.6916278e-05
0.003264037
2.4719981e-05
0.0032413003
2.2736865e-05
0.0032203787
2.0921798e-05
0.0032011342
1.9244625e-05
0.0031834508
1.7683562e-05
0.0031672295
1.6221527e-05
0.0031523851
1.4844476e-05
0.0031388443
1.3540929e-05
0.0031265424
1.2302085e-05
0.0031154206
1.1121823e-05
0.003105424
9.9966795e-06
0.0030964985
8.9255461e-06
0.0030885891
7.9093958e-06
0.0030816384
6.9506964e-06
0.0030755855
6.0528796e-06
0.0030703659
5.2196256e-06
0.0030659115
4.454333e-06
0.0030621518
3.7595725e-06
0.003059015
3.136744e-06
0.0030564291
2.5858302e-06
0.0030543237
2.1053148e-06
0.0030526313
1.6922449e-06
0.0030512888
1.3424156e-06
0.0030502379
1.050685e-06
0.0030494266
8.1115566e-07
0.0030488089
6.1756881e-07
0.0030483452
4.6356401e-07
0.0030480021
3.4300232e-07
0.0030477518
2.5011462e-07
0.003047572
1.7970766e-07
0.0030474447
1.2718978e-07
0.003047356
8.8661995e-08
0.0030472951
6.0848156e-08
0.003047254
4.1110034e-08
0.0030472266
2.7325978e-08
0.0030472087
1.7871993e-08
0.0030471972
1.148957e-08
0.0030471899
7.2647845e-09
0.0030471854
4.5104308e-09
0.0030471827
2.7546376e-09
0.003047181
1.650529e-09
0.0030471801
9.7441267e-10
0.0030471795
5.6541042e-10
0.0030471792
3.2529817e-10
0.003047179
1.857338e-10
0.0030471789
1.0706096e-10
0.0030471788
6.2697812e-11
0.0030471788
3.9454488e-11
0.0030471788
2.4559509e-11
0.0030471788
1.917755e-11
0.0030471788
1.1835019e-11
0.0030471788
1.2707424e-11
0.0030471787
6.5523052e-12
0.0030471787
9.4953156e-12
0.0030471787
3.7596888e-12
0.0030471787
7.673751e-12
0.0030471787
2.0694803e-12
0.0030471787
6.6261706e-12
0.0030471787
6.9151418e-13
0.0030471787
7.1183229e-12
0.0030471787
-5.636429e-13
0.0030471787
8.4714508e-12
0.0030471787
-1.4009828e-12
0.0030471787
1.1180872e-11
0.0030471787
6.6957796e-14
0.0030471787
1.7774559e-11
0.0030471787
6.7225678e-12
0.0030471786
3.7661015e-11
0.0030471786
3.1100646e-11
0.0030471785
8.9301574e-11
0.0030471784
1.0164095e-10
0.0030471782
2.2372252e-10
0.0030471779
3.2223581e-10
0.0030471773
6.6499491e-10
0.0030471762
1.1587124e-09
0.0030471739
2.2557222e-09
0.0030471698
4.0271793e-09
0.0030471625
7.1692771e-09
1.0476593e-08
0.010339525
0.00035427932
0.010570754
0.00079057333
0.010606301
0.00091894814
0.010547573
0.00090167126
0.010422317
0.00084262598
0.010244356
0.00075768508
0.010039421
0.00065662655
0.009828744
0.00055365438
0.0096251375
0.0004597684
0.0094353058
0.00037974983
0.0092624352
0.00031408709
0.0091075455
0.00026139597
0.0089701737
0.00021968685
0.0088489339
0.00018687857
0.0087420208
0.00016102996
0.008647568
0.00014047874
0.0085638074
0.00012393549
0.008489179
0.00011039445
0.0084223564
9.910433e-05
0.0083622358
8.9518095e-05
0.0083079106
8.1241555e-05
0.0082586411
7.398962e-05
0.0082138253
6.7552715e-05
0.0081729737
6.1773498e-05
0.0081356871
5.6531377e-05
0.0081016388
5.1731942e-05
0.0080705607
4.7299714e-05
0.0080422315
4.3173781e-05
0.0080164667
3.9305727e-05
0.0079931103
3.5658546e-05
0.0079720263
3.2205822e-05
0.0079530923
2.8930648e-05
0.0079361933
2.5824529e-05
0.0079212167
2.2885925e-05
0.0079080487
2.0118641e-05
0.0078965717
1.7529874e-05
0.0078866629
1.5128335e-05
0.0078781947
1.2922418e-05
0.0078710355
1.0918719e-05
0.0078650513
9.1208463e-06
0.0078601083
7.5286785e-06
0.0078560755
6.1380424e-06
0.0078528268
4.9407818e-06
0.0078502439
3.9252084e-06
0.0078482177
3.0767606e-06
0.0078466498
2.3788472e-06
0.0078454535
1.8137122e-06
0.0078445537
1.3633174e-06
0.0078438865
1.010075e-06
0.007843399
7.3747033e-07
0.0078430481
5.3048614e-07
0.0078427993
3.7587503e-07
0.0078426257
2.6227061e-07
0.0078425063
1.8016637e-07
0.0078424256
1.2181409e-07
0.0078423718
8.1033458e-08
0.0078423367
5.3020122e-08
0.007842314
3.4105428e-08
0.0078422997
2.1561228e-08
0.0078422909
1.3390185e-08
0.0078422855
8.1657612e-09
0.0078422822
4.8916322e-09
0.0078422803
2.8753987e-09
0.0078422793
1.6662911e-09
0.0078422786
9.4746055e-10
0.0078422783
5.3968719e-10
0.0078422781
3.0282321e-10
0.007842278
1.7760193e-10
0.0078422779
1.0528184e-10
0.0078422779
6.7887895e-11
0.0078422779
4.8534538e-11
0.0078422779
3.3300286e-11
0.0078422778
3.0972301e-11
0.0078422778
1.9908455e-11
0.0078422778
2.3071252e-11
0.0078422778
1.3217131e-11
0.0078422778
1.7716707e-11
0.0078422778
9.3257352e-12
0.0078422778
1.4765337e-11
0.0078422778
6.3381952e-12
0.0078422778
1.4743809e-11
0.0078422778
3.6495566e-12
0.0078422778
1.759169e-11
0.0078422778
2.3187193e-12
0.0078422777
2.3371642e-11
0.0078422777
5.2333206e-12
0.0078422777
3.6597211e-11
0.0078422777
1.9781525e-11
0.0078422777
7.2081872e-11
0.0078422776
6.914315e-11
0.0078422776
1.6682591e-10
0.0078422774
2.1614245e-10
0.0078422772
4.2044094e-10
0.0078422769
6.6847155e-10
0.0078422765
1.210963e-09
0.0078422755
2.1768865e-09
0.007842274
3.7208185e-09
0.0078422715
6.4717089e-09
0.007842269
9.479944e-09
1.3271538e-08
0.010188704
0.00016557515
0.010530487
0.00044879099
0.010851453
0.00059798171
0.011124174
0.00062895015
0.011350581
0.00061621867
0.011524486
0.00058378016
0.011646329
0.00053478345
0.011724155
0.00047582915
0.011767999
0.00041592439
0.011786638
0.00036111039
0.011787114
0.00031361149
0.011775058
0.00027345148
0.011754861
0.00023988364
0.01172977
0.00021196979
0.011702058
0.0001887421
0.011673248
0.00016928906
0.011644355
0.00015282795
0.011616031
0.0001387185
0.011588675
0.00012646031
0.011562519
0.00011567429
0.011537684
0.00010607652
0.011514221
9.7452645e-05
0.011492137
8.9637208e-05
0.011471411
8.2499448e-05
0.011452008
7.5934142e-05
0.011433885
6.9855067e-05
0.011416995
6.4190157e-05
0.01140129
5.8878689e-05
0.011386725
5.3870295e-05
0.011373259
4.912488e-05
0.011360852
4.4612445e-05
0.01134947
4.0312757e-05
0.01133908
3.6214709e-05
0.01132965
3.2315474e-05
0.01132115
2.8619076e-05
0.011313545
2.513462e-05
0.011306799
2.1874157e-05
0.011300871
1.8850602e-05
0.011295714
1.6075688e-05
0.011291277
1.3558271e-05
0.011287502
1.1302987e-05
0.011284331
9.3094348e-06
0.0112817
7.5718784e-06
0.011279546
6.0794364e-06
0.011277806
4.8167162e-06
0.01127642
3.7647053e-06
0.011275331
2.9019028e-06
0.011274489
2.2054426e-06
0.011273847
1.6522303e-06
0.011273365
1.2198599e-06
0.011273008
8.8741211e-07
0.011272747
6.3594568e-07
0.011272561
4.4885475e-07
0.011272429
3.1194075e-07
0.011272337
2.1341399e-07
0.011272275
1.4368744e-07
0.011272233
9.5181162e-08
0.011272205
6.2007471e-08
0.011272187
3.9716702e-08
0.011272175
2.5001877e-08
0.011272168
1.546197e-08
0.011272163
9.3961334e-09
0.011272161
5.6052223e-09
0.011272159
3.2929873e-09
0.011272158
1.899208e-09
0.011272157
1.0890149e-09
0.011272157
6.1643264e-10
0.011272157
3.5526375e-10
0.011272157
2.0922176e-10
0.011272157
1.2716149e-10
0.011272157
8.8798611e-11
0.011272157
5.6982096e-11
0.011272157
5.2375526e-11
0.011272157
3.2933814e-11
0.011272157
3.7146938e-11
0.011272157
2.2783298e-11
0.011272157
2.7841621e-11
0.011272157
1.747186e-11
0.011272157
2.2285065e-11
0.011272157
1.3258484e-11
0.011272157
2.1543118e-11
0.011272157
9.3912279e-12
0.011272157
2.459207e-11
0.011272157
7.8888984e-12
0.011272157
3.1249402e-11
0.011272157
1.2760273e-11
0.011272157
4.4888599e-11
0.011272157
3.2767332e-11
0.011272157
8.0464523e-11
0.011272157
9.2618084e-11
0.011272157
1.7467233e-10
0.011272157
2.605755e-10
0.011272157
4.3300021e-10
0.011272156
7.628688e-10
0.011272157
1.2329313e-09
0.011272157
2.2794775e-09
0.011272157
3.5071042e-09
0.011272157
5.9323038e-09
0.011272159
7.9492468e-09
1.0807404e-08
0.010097182
6.8393559e-05
0.010346961
0.00019901112
0.010662469
0.00028247386
0.010982753
0.00030866645
0.011290228
0.00030874334
0.011575251
0.0002987577
0.011829021
0.0002810131
0.012047863
0.00025698689
0.012233269
0.00023051861
0.012389236
0.0002051439
0.012520288
0.00018255913
0.012630745
0.0001629944
0.012724412
0.00014621685
0.012804491
0.00013189086
0.012873577
0.00011965579
0.012933719
0.00010914708
0.012986518
0.00010002872
0.013033219
9.2017975e-05
0.013074788
8.4891203e-05
0.013111984
7.8478228e-05
0.013145409
7.2651628e-05
0.013175546
6.7315174e-05
0.013202789
6.2394074e-05
0.01322746
5.7828489e-05
0.013249825
5.356951e-05
0.013270104
4.9576378e-05
0.01328848
4.5814217e-05
0.013305106
4.2252832e-05
0.01332011
3.8866497e-05
0.0133336
3.5634277e-05
0.013345672
3.2540283e-05
0.013356411
2.9573725e-05
0.013365897
2.6728902e-05
0.013374208
2.400493e-05
0.013381421
2.1405262e-05
0.013387619
1.8936734e-05
0.013392885
1.6608506e-05
0.013397305
1.4430741e-05
0.013400967
1.241339e-05
0.01340396
1.0564939e-05
0.013406372
8.89144e-06
0.013408286
7.3957294e-06
0.013409781
6.0770289e-06
0.013410929
4.9308484e-06
0.013411797
3.9492137e-06
0.01341244
3.1211595e-06
0.013412909
2.4333847e-06
0.013413243
1.871044e-06
0.013413477
1.4185181e-06
0.013413636
1.0601669e-06
0.013413743
7.8094021e-07
0.013413812
5.6687534e-07
0.013413855
4.0542145e-07
0.013413882
2.8562631e-07
0.013413897
1.9819201e-07
0.013413905
1.3542076e-07
0.013413909
9.1099936e-08
0.013413911
6.0324765e-08
0.013413911
3.9313604e-08
0.013413911
2.5212613e-08
0.013413911
1.5908635e-08
0.01341391
9.881556e-09
0.01341391
6.0397552e-09
0.01341391
3.6428546e-09
0.013413909
2.16568e-09
0.013413909
1.2803478e-09
0.013413909
7.5234152e-10
0.013413909
4.4652513e-10
0.013413909
2.7184371e-10
0.013413909
1.6807065e-10
0.013413909
1.1661604e-10
0.013413909
7.6256849e-11
0.013413909
6.4761952e-11
0.013413909
4.3484223e-11
0.013413909
4.3329e-11
0.013413909
3.0223019e-11
0.013413909
3.128244e-11
0.013413909
2.3478442e-11
0.013413909
2.4781553e-11
0.013413909
1.8898733e-11
0.013413909
2.3102693e-11
0.013413909
1.5267465e-11
0.013413909
2.5370189e-11
0.013413909
1.4879126e-11
0.013413909
3.0382082e-11
0.013413909
2.0688759e-11
0.013413909
4.0653251e-11
0.013413909
3.9399074e-11
0.013413909
6.622012e-11
0.013413909
8.6183863e-11
0.013413909
1.2951792e-10
0.013413909
2.0224755e-10
0.013413909
2.9231253e-10
0.013413909
5.2371537e-10
0.01341391
7.7863502e-10
0.013413911
1.4270776e-09
0.013413912
2.0770384e-09
0.013413915
3.414418e-09
0.013413918
4.403663e-09
5.8927187e-09
0.010068394
4.4476824e-12
0.010267405
1.5916717e-11
0.010549878
2.9270223e-11
0.010858545
4.5366352e-11
0.011167288
6.4020118e-11
0.011466046
8.754797e-11
0.011747059
1.1718706e-10
0.012004045
1.5510409e-10
0.012234564
2.0052921e-10
0.012439707
2.5259271e-10
0.012622266
3.0657237e-10
0.01278526
3.5807425e-10
0.012931477
4.0113991e-10
0.013063367
4.3091476e-10
0.013183022
4.4148554e-10
0.013292169
4.2769653e-10
0.013392197
3.8830027e-10
0.013484215
3.2161288e-10
0.013569106
2.302468e-10
0.013647584
1.1694683e-10
0.013720236
-2.2156799e-11
0.013787551
-1.7313402e-10
0.013849945
-3.2157038e-10
0.013907774
-4.6882277e-10
0.013961344
-5.936941e-10
0.014010922
-7.0374892e-10
0.014056737
-7.7664905e-10
0.01409899
-8.2533016e-10
0.014137858
-8.3184633e-10
0.014173493
-8.1478844e-10
0.014206034
-7.6384879e-10
0.014235608
-6.9770755e-10
0.014262338
-6.1222008e-10
0.014286343
-5.2305352e-10
0.014307749
-4.3074657e-10
0.014326686
-3.4682467e-10
0.014343295
-2.7227375e-10
0.014357725
-2.1193367e-10
0.014370139
-1.6578166e-10
0.014380704
-1.3348993e-10
0.014389596
-1.1405389e-10
0.014396991
-1.0192587e-10
0.014403069
-9.6581815e-11
0.014407999
-8.987537e-11
0.014411949
-8.4069688e-11
0.01441507
-7.0993221e-11
0.014417503
-5.5453816e-11
0.014419374
-3.1185693e-11
0.014420793
-4.2696397e-12
0.014421853
2.9896708e-11
0.014422634
6.1182657e-11
0.014423201
9.7784071e-11
0.014423606
1.257515e-10
0.014423892
1.5674264e-10
0.01442409
1.7500739e-10
0.014424225
1.9560245e-10
0.014424316
2.016654e-10
0.014424376
2.1070488e-10
0.014424415
2.0549438e-10
0.01442444
2.0498411e-10
0.014424456
1.9151966e-10
0.014424466
1.8468288e-10
0.014424472
1.6666912e-10
0.014424475
1.5691158e-10
0.014424477
1.3723152e-10
0.014424478
1.2695614e-10
0.014424479
1.0785995e-10
0.014424479
9.8897477e-11
0.01442448
8.1690072e-11
0.01442448
7.4681925e-11
0.01442448
6.0039258e-11
0.01442448
5.533264e-11
0.01442448
4.3321617e-11
0.01442448
4.0712603e-11
0.01442448
3.1236712e-11
0.01442448
3.0688678e-11
0.01442448
2.3253997e-11
0.01442448
2.4290417e-11
0.01442448
1.8586957e-11
0.01442448
2.1032049e-11
0.01442448
1.6611346e-11
0.01442448
2.0223483e-11
0.01442448
1.701595e-11
0.01442448
2.2116834e-11
0.01442448
2.0080036e-11
0.01442448
2.6855653e-11
0.01442448
2.6634612e-11
0.01442448
3.6186746e-11
0.01442448
3.9244439e-11
0.01442448
5.1428794e-11
0.01442448
5.3412981e-11
0.01442448
6.2016734e-11
0.01442448
5.6651792e-11
0.014424481
5.9353473e-11
0.014424482
4.9612595e-11
0.014424483
4.9124793e-11
0.014424485
4.5734173e-11
0.014424488
3.8988723e-11
0.014424493
2.0505021e-11
1.208873e-11
0.010068394
-6.839355e-05
0.010267405
-0.00019901109
0.010549878
-0.0002824738
0.010858545
-0.00030866637
0.011167288
-0.00030874321
0.011466046
-0.00029875754
0.011747059
-0.00028101287
0.012004045
-0.00025698659
0.012234564
-0.00023051823
0.012439708
-0.00020514342
0.012622266
-0.00018255856
0.01278526
-0.00016299374
0.012931477
-0.00014621611
0.013063367
-0.00013189006
0.013183023
-0.00011965498
0.013292169
-0.0001091463
0.013392198
-0.00010002801
0.013484215
-9.201739e-05
0.013569106
-8.4890782e-05
0.013647584
-7.8478013e-05
0.013720236
-7.2651653e-05
0.013787551
-6.7315455e-05
0.013849946
-6.2394611e-05
0.013907774
-5.7829268e-05
0.013961344
-5.3570504e-05
0.014010921
-4.9577545e-05
0.014056736
-4.5815514e-05
0.014098989
-4.2254198e-05
0.014137857
-3.8867888e-05
0.014173492
-3.5635633e-05
0.014206032
-3.2541578e-05
0.014235607
-2.9574912e-05
0.014262336
-2.6729975e-05
0.014286342
-2.4005863e-05
0.014307747
-2.1406069e-05
0.014326684
-1.8937408e-05
0.014343293
-1.6609075e-05
0.014357724
-1.4431211e-05
0.014370138
-1.2413788e-05
0.014380703
-1.0565277e-05
0.014389595
-8.8917355e-06
0.01439699
-7.3959927e-06
0.014403068
-6.0772624e-06
0.014407999
-4.9310568e-06
0.014411948
-3.9493875e-06
0.014415069
-3.1212996e-06
0.014417503
-2.4334748e-06
0.014419374
-1.8710865e-06
0.014420792
-1.4184966e-06
0.014421852
-1.0600884e-06
0.014422633
-7.8079424e-07
0.0144232
-5.6667548e-07
0.014423605
-4.0516372e-07
0.014423891
-2.8532877e-07
0.014424089
-1.9785475e-07
0.014424224
-1.3506379e-07
0.014424315
-9.072464e-08
0.014424375
-5.9949899e-08
0.014424415
-3.8938759e-08
0.01442444
-2.4854089e-08
0.014424455
-1.5563536e-08
0.014424465
-9.5626286e-09
0.014424471
-5.7409943e-09
0.014424475
-3.3745417e-09
0.014424477
-1.9202351e-09
0.014424478
-1.0653239e-09
0.014424479
-5.5898652e-10
0.014424479
-2.8089506e-10
0.014424479
-1.2478819e-10
0.014424479
-4.491176e-11
0.01442448
-7.1816786e-12
0.01442448
1.3228233e-11
0.01442448
1.5397373e-11
0.01442448
2.0694211e-11
0.01442448
1.5917964e-11
0.01442448
1.6860533e-11
0.01442448
1.4120597e-11
0.01442448
1.28233e-11
0.01442448
1.3018594e-11
0.01442448
1.2295066e-11
0.01442448
1.1616044e-11
0.01442448
1.5074984e-11
0.01442448
1.0888602e-11
0.01442448
1.9369237e-11
0.01442448
1.1986749e-11
0.01442448
2.2439589e-11
0.01442448
1.4286128e-11
0.01442448
2.0844581e-11
0.01442448
1.0330224e-11
0.01442448
3.4567976e-12
0.01442448
-2.6400001e-11
0.01442448
-9.5890473e-11
0.01442448
-1.8274238e-10
0.014424481
-4.2367501e-10
0.014424482
-6.8216701e-10
0.014424483
-1.336523e-09
0.014424485
-1.9944517e-09
0.014424488
-3.3544184e-09
0.014424493
-4.3525035e-09
-5.8663435e-09
0.010097182
-0.00016557515
0.010346961
-0.00044879096
0.010662469
-0.00059798166
0.010982753
-0.00062895007
0.011290228
-0.00061621857
0.011575251
-0.00058378001
0.011829021
-0.00053478325
0.012047863
-0.0004758289
0.012233269
-0.00041592407
0.012389236
-0.00036110999
0.012520288
-0.00031361102
0.012630745
-0.00027345096
0.012724412
-0.00023988306
0.012804491
-0.00021196919
0.012873578
-0.0001887415
0.01293372
-0.00016928849
0.012986519
-0.00015282744
0.01303322
-0.00013871808
0.013074789
-0.00012646001
0.013111985
-0.00011567411
0.01314541
-0.0001060765
0.013175547
-9.7452777e-05
0.01320279
-8.9637498e-05
0.013227461
-8.2499871e-05
0.013249825
-7.5934694e-05
0.013270103
-6.9855713e-05
0.013288479
-6.4190882e-05
0.013305104
-5.8879461e-05
0.013320107
-5.3871096e-05
0.013333598
-4.9125689e-05
0.013345669
-4.4613245e-05
0.013356408
-4.0313543e-05
0.013365894
-3.6215463e-05
0.013374204
-3.2316202e-05
0.013381418
-2.8619759e-05
0.013387616
-2.5135268e-05
0.013392882
-2.1874755e-05
0.013397302
-1.8851158e-05
0.013400964
-1.6076192e-05
0.013403958
-1.3558727e-05
0.013406369
-1.1303389e-05
0.013408283
-9.3097833e-06
0.013409778
-7.5721705e-06
0.013410927
-6.07967e-06
0.013411794
-4.8168917e-06
0.013412438
-3.7648196e-06
0.013412906
-2.901959e-06
0.013413241
-2.2054396e-06
0.013413474
-1.6521736e-06
0.013413634
-1.2197517e-06
0.01341374
-8.872595e-07
0.01341381
-6.357551e-07
0.013413853
-4.4863336e-07
0.01341388
-3.1169729e-07
0.013413895
-2.1315436e-07
0.013413903
-1.4342119e-07
0.013413908
-9.4911918e-08
0.013413909
-6.1743964e-08
0.01341391
-3.9460049e-08
0.01341391
-2.475948e-08
0.01341391
-1.5232526e-08
0.013413909
-9.1855289e-09
0.013413909
-5.4103338e-09
0.013413909
-3.1186538e-09
0.013413909
-1.7409625e-09
0.013413909
-9.5058086e-10
0.013413909
-4.9323111e-10
0.013413909
-2.4957787e-10
0.013413909
-1.1654585e-10
0.013413909
-4.9054068e-11
0.013413909
-2.0854276e-11
0.013413909
-7.4934494e-13
0.013413909
-3.1516554e-12
0.013413909
7.1448016e-12
0.013413909
-8.0115581e-13
0.013413909
6.4668429e-12
0.013413909
2.3804976e-13
0.013413909
5.7157406e-12
0.013413909
1.8151814e-12
0.013413909
7.4341169e-12
0.013413909
1.8469867e-12
0.013413909
1.2230236e-11
0.013413909
1.0726794e-12
0.013413909
1.75744e-11
0.013413909
2.2959905e-13
0.013413909
2.0006767e-11
0.013413909
-3.0681547e-12
0.013413909
1.2965896e-11
0.013413909
-2.2566194e-11
0.013413909
-2.7218052e-11
0.013413909
-1.0043213e-10
0.013413909
-1.859886e-10
0.013413909
-3.5939054e-10
0.013413909
-6.9719564e-10
0.01341391
-1.1737521e-09
0.013413911
-2.2246649e-09
0.013413912
-3.4480425e-09
0.013413915
-5.876068e-09
0.013413918
-7.9173465e-09
-1.0789966e-08
0.010188704
-0.00035427931
0.010530487
-0.00079057331
0.010851453
-0.0009189481
0.011124174
-0.0009016712
0.011350581
-0.0008426259
0.011524486
-0.00075768498
0.01164633
-0.00065662642
0.011724155
-0.00055365421
0.011767999
-0.0004597682
0.011786638
-0.00037974959
0.011787114
-0.00031408682
0.011775059
-0.00026139568
0.011754862
-0.00021968654
0.011729771
-0.00018687825
0.011702059
-0.00016102966
0.011673249
-0.00014047844
0.011644357
-0.00012393522
0.011616033
-0.00011039422
0.011588677
-9.9104147e-05
0.011562521
-8.9517961e-05
0.011537686
-8.1241474e-05
0.011514223
-7.3989595e-05
0.011492138
-6.7552743e-05
0.011471411
-6.1773583e-05
0.011452008
-5.6531507e-05
0.011433885
-5.1732126e-05
0.011416994
-4.7299933e-05
0.011401289
-4.3174051e-05
0.011386724
-3.9306023e-05
0.011373257
-3.5658889e-05
0.01136085
-3.2206185e-05
0.011349467
-2.8931052e-05
0.011339077
-2.5824946e-05
0.011329647
-2.288637e-05
0.011321147
-2.011909e-05
0.011313542
-1.7530333e-05
0.011306796
-1.5128783e-05
0.011300867
-1.2922854e-05
0.01129571
-1.0919131e-05
0.011291273
-9.1212252e-06
0.011287499
-7.5290214e-06
0.011284327
-6.1383373e-06
0.011281696
-4.9410345e-06
0.011279542
-3.9254064e-06
0.011277802
-3.0769157e-06
0.011276416
-2.378948e-06
0.011275328
-1.8137753e-06
0.011274486
-1.3633333e-06
0.011273844
-1.0100616e-06
0.011273361
-7.3741986e-07
0.011273005
-5.304169e-07
0.011272745
-3.7578026e-07
0.011272558
-2.6216715e-07
0.011272427
-1.8004778e-07
0.011272335
-1.2169543e-07
0.011272273
-8.0907816e-08
0.011272231
-5.2900184e-08
0.011272203
-3.3983945e-08
0.011272185
-2.1449349e-08
0.011272174
-1.3280096e-08
0.011272167
-8.0670571e-09
0.011272162
-4.7965183e-09
0.01127216
-2.7925115e-09
0.011272158
-1.587739e-09
0.011272157
-8.8070658e-10
0.011272157
-4.774357e-10
0.011272157
-2.515652e-10
0.011272157
-1.3034055e-10
0.011272157
-6.7685718e-11
0.011272157
-3.2706008e-11
0.011272157
-2.2203431e-11
0.011272157
-7.8127195e-12
0.011272157
-1.2794306e-11
0.011272157
-1.4166571e-12
0.011272157
-1.0343545e-11
0.011272157
1.2014882e-12
0.011272157
-8.19121e-12
0.011272157
3.3013365e-12
0.011272157
-6.304383e-12
0.011272157
6.0199804e-12
0.011272157
-5.3664232e-12
0.011272157
1.0390806e-11
0.011272157
-5.8487709e-12
0.011272157
1.4752603e-11
0.011272157
-7.5582771e-12
0.011272157
1.6965978e-11
0.011272157
-1.4895474e-11
0.011272157
9.0629208e-12
0.011272157
-4.4134443e-11
0.011272157
-3.417327e-11
0.011272157
-1.3588603e-10
0.011272157
-1.8034626e-10
0.011272157
-3.9092677e-10
0.011272157
-6.4270465e-10
0.011272157
-1.1839703e-09
0.011272157
-2.1374797e-09
0.011272157
-3.6850053e-09
0.011272157
-6.4601189e-09
0.011272159
-9.4850891e-09
-1.3281812e-08
0.010339525
-0.00069380425
0.010570754
-0.0010218027
0.010606301
-0.00095449446
0.010547573
-0.00084294324
0.010422317
-0.00071737055
0.010244356
-0.00057972405
0.010039421
-0.00045169149
0.0098287443
-0.00034297715
0.009625138
-0.00025616186
0.0094353063
-0.000189918
0.009262436
-0.00014121648
0.0091075464
-0.0001065062
0.0089701748
-8.2314916e-05
0.0088489351
-6.5638663e-05
0.0087420222
-5.4116819e-05
0.0086475695
-4.6025806e-05
0.008563809
-4.0174791e-05
0.0084891806
-3.5765919e-05
0.0084223579
-3.2281516e-05
0.0083622372
-2.9397316e-05
0.0083079118
-2.6916167e-05
0.0082586421
-2.4719876e-05
0.0082138261
-2.2736769e-05
0.0081729743
-2.092172e-05
0.0081356874
-1.9244566e-05
0.0081016389
-1.7683519e-05
0.0080705605
-1.6221511e-05
0.0080422309
-1.4844474e-05
0.0080164659
-1.3540957e-05
0.0079931091
-1.2302121e-05
0.0079720248
-1.1121887e-05
0.0079530904
-9.9967461e-06
0.0079361911
-8.9256408e-06
0.0079212142
-7.9094911e-06
0.0079080458
-6.9508152e-06
0.0078965685
-6.0529978e-06
0.0078866595
-5.2197592e-06
0.0078781911
-4.454467e-06
0.0078710317
-3.7597121e-06
0.0078650474
-3.1368836e-06
0.0078601044
-2.5859641e-06
0.0078560716
-2.1054477e-06
0.007852823
-1.6923636e-06
0.0078502402
-1.3425314e-06
0.0078482141
-1.0507804e-06
0.0078466465
-8.1124661e-07
0.0078454504
-6.176374e-07
0.0078445507
-4.6362754e-07
0.0078438837
-3.4304392e-07
0.0078433965
-2.5015165e-07
0.0078430458
-1.7972547e-07
0.0078427973
-1.272044e-07
0.0078426238
-8.8660939e-08
0.0078425046
-6.0846189e-08
0.0078424241
-4.1096281e-08
0.0078423705
-2.7313241e-08
0.0078423355
-1.7850583e-08
0.0078423131
-1.1471235e-08
0.0078422989
-7.2404021e-09
0.0078422901
-4.490327e-09
0.0078422849
-2.7301224e-09
0.0078422817
-1.6315704e-09
0.0078422799
-9.5222835e-10
0.0078422789
-5.4917805e-10
0.0078422784
-3.0617551e-10
0.0078422781
-1.7315602e-10
0.0078422779
-9.1761677e-11
0.0078422779
-5.3833069e-11
0.0078422779
-2.7462418e-11
0.0078422778
-1.8930453e-11
0.0078422778
-1.0339398e-11
0.0078422778
-8.5803892e-12
0.0078422778
-5.8816142e-12
0.0078422778
-4.9383557e-12
0.0078422779
-4.2257114e-12
0.0078422778
-2.7444076e-12
0.0078422779
-3.0907354e-12
0.0078422779
-9.6025222e-13
0.0078422779
-2.3508586e-12
0.0078422779
8.0068234e-13
0.0078422779
-1.970124e-12
0.0078422779
2.8001368e-12
0.0078422779
-2.1675313e-12
0.0078422779
4.9810276e-12
0.0078422779
-2.9761218e-12
0.0078422779
5.9638001e-12
0.0078422779
-8.2928337e-12
0.0078422779
-7.958784e-13
0.0078422779
-3.1855901e-11
0.0078422778
-3.2496376e-11
0.0078422778
-8.8876989e-11
0.0078422777
-1.0268643e-10
0.0078422775
-2.1464892e-10
0.0078422772
-3.0090878e-10
0.0078422767
-6.2651897e-10
0.0078422758
-1.1285344e-09
0.0078422743
-2.25889e-09
0.0078422717
-4.0606881e-09
0.0078422693
-7.2044044e-09
-1.0498051e-08
0.0093061957
0.0082843931
0.0073298986
0.0064869554
0.0057695848
0.0051898608
0.0047381693
0.0043951921
0.0041390302
0.0039491122
0.0038078957
0.0037013895
0.0036190746
0.0035534359
0.003499319
0.0034532932
0.0034131183
0.0033773524
0.0033450708
0.0033156735
0.0032887574
0.0032640375
0.0032413007
0.0032203791
0.0032011345
0.003183451
0.0031672296
0.0031523851
0.0031388441
0.003126542
0.0031154201
0.0031054233
0.0030964976
0.0030885881
0.0030816373
0.0030755842
0.0030703645
0.00306591
0.0030621504
0.0030590135
0.0030564276
0.0030543222
0.0030526298
0.0030512874
0.0030502366
0.0030494254
0.0030488078
0.0030483442
0.0030480011
0.003047751
0.0030475713
0.0030474441
0.0030473554
0.0030472946
0.0030472535
0.0030472262
0.0030472084
0.0030471969
0.0030471897
0.0030471852
0.0030471825
0.0030471809
0.00304718
0.0030471794
0.0030471791
0.003047179
0.0030471789
0.0030471788
0.0030471788
0.0030471788
0.0030471788
0.0030471788
0.0030471788
0.0030471788
0.0030471788
0.0030471788
0.0030471788
0.0030471788
0.0030471788
0.0030471788
0.0030471788
0.0030471788
0.0030471788
0.0030471788
0.0030471788
0.0030471788
0.0030471788
0.0030471788
0.0030471787
0.0030471787
0.0030471786
0.0030471785
0.0030471782
0.003047178
0.0030471774
0.0030471763
0.003047174
0.0030471698
0.0030471626
)
;

boundaryField
{
    top
    {
        type            calculated;
        value           uniform 0;
    }
    inlet
    {
        type            calculated;
        value           nonuniform List<scalar> 10(-0.01 -0.01 -0.01 -0.01 -0.01 -0.01 -0.01 -0.01 -0.01 -0.01);
    }
    outlet
    {
        type            calculated;
        value           nonuniform List<scalar> 10(0.003047152 0.0078422662 0.011272161 0.013413923 0.014424498 0.014424498 0.013413923 0.011272161 0.0078422665 0.0030471521);
    }
    bottom
    {
        type            calculated;
        value           uniform 0;
    }
    back
    {
        type            empty;
        value           nonuniform 0();
    }
    front
    {
        type            empty;
        value           nonuniform 0();
    }
}


// ************************************************************************* //
