/*--------------------------------*- C++ -*----------------------------------*\
| =========                 |                                                 |
| \\      /  F ield         | OpenFOAM: The Open Source CFD Toolbox           |
|  \\    /   O peration     | Version:  v1812                                 |
|   \\  /    A nd           | Web:      www.OpenFOAM.com                      |
|    \\/     M anipulation  |                                                 |
\*---------------------------------------------------------------------------*/
FoamFile
{
    version     2.0;
    format      ascii;
    class       volVectorField;
    location    "6.95";
    object      U;
}
// * * * * * * * * * * * * * * * * * * * * * * * * * * * * * * * * * * * * * //

dimensions      [0 1 -1 0 0 0 0];


internalField   nonuniform List<vector> 
1000
(
(0.91890839 0.035821913 0)
(0.86271384 0.062195638 0)
(0.7870597 0.06251009 0)
(0.69536033 0.054550395 0)
(0.61089745 0.044531651 0)
(0.54411592 0.034015971 0)
(0.49343012 0.024187539 0)
(0.45479413 0.01614423 0)
(0.42544582 0.010265786 0)
(0.40347313 0.0063041453 0)
(0.38715766 0.0037976295 0)
(0.3749622 0.0023103382 0)
(0.36566192 0.001493015 0)
(0.35836272 0.0010851184 0)
(0.35244267 0.00090607253 0)
(0.347482 0.00084105204 0)
(0.34320347 0.00082372448 0)
(0.33942725 0.00081931072 0)
(0.33603793 0.00081185221 0)
(0.33296114 0.00079580136 0)
(0.33014778 0.00077081156 0)
(0.32756384 0.00073870963 0)
(0.3251842 0.0007018896 0)
(0.32298902 0.0006625662 0)
(0.32096171 0.00062250043 0)
(0.31908784 0.00058295868 0)
(0.31735448 0.00054477323 0)
(0.31574994 0.00050843625 0)
(0.31426358 0.00047419423 0)
(0.31288572 0.00044212795 0)
(0.31160753 0.00041221382 0)
(0.31042098 0.00038436745 0)
(0.30931879 0.00035847282 0)
(0.30829433 0.00033440088 0)
(0.30734159 0.00031202069 0)
(0.30645507 0.00029120575 0)
(0.30562981 0.00027183706 0)
(0.30486124 0.00025380446 0)
(0.3041452 0.00023700663 0)
(0.30347788 0.00022135069 0)
(0.30285579 0.00020675144 0)
(0.30227573 0.00019313047 0)
(0.30173475 0.00018041546 0)
(0.30123013 0.00016853919 0)
(0.30075938 0.00015743914 0)
(0.3003202 0.00014705662 0)
(0.29991048 0.00013733665 0)
(0.29952827 0.00012822725 0)
(0.2991718 0.00011967965 0)
(0.29883943 0.00011164773 0)
(0.29852967 0.00010408863 0)
(0.29824115 9.6962046e-05 0)
(0.29797262 9.0231331e-05 0)
(0.29772295 8.3862619e-05 0)
(0.29749109 7.7826169e-05 0)
(0.2972761 7.2095234e-05 0)
(0.29707709 6.6647562e-05 0)
(0.29689327 6.1463956e-05 0)
(0.29672387 5.6529713e-05 0)
(0.29656818 5.1832917e-05 0)
(0.29642554 4.7365743e-05 0)
(0.29629529 4.3122478e-05 0)
(0.2961768 3.9100592e-05 0)
(0.29606945 3.5298737e-05 0)
(0.2959726 3.1717555e-05 0)
(0.29588565 2.8357719e-05 0)
(0.29580797 2.5220547e-05 0)
(0.29573894 2.2306398e-05 0)
(0.29567794 1.9615131e-05 0)
(0.29562434 1.7144874e-05 0)
(0.29557754 1.4892479e-05 0)
(0.29553693 1.2852876e-05 0)
(0.29550192 1.1019388e-05 0)
(0.29547193 9.3835933e-06 0)
(0.29544642 7.9354709e-06 0)
(0.29542488 6.6638299e-06 0)
(0.29540681 5.5561293e-06 0)
(0.29539176 4.5992804e-06 0)
(0.29537932 3.7793734e-06 0)
(0.29536911 3.0827104e-06 0)
(0.29536081 2.4954602e-06 0)
(0.2953541 2.0046978e-06 0)
(0.29534873 1.597893e-06 0)
(0.29534445 1.2639385e-06 0)
(0.29534108 9.9216251e-07 0)
(0.29533843 7.733147e-07 0)
(0.29533637 5.9852253e-07 0)
(0.29533478 4.6020822e-07 0)
(0.29533355 3.5142181e-07 0)
(0.29533263 2.6631247e-07 0)
(0.29533194 2.0016825e-07 0)
(0.29533143 1.4907065e-07 0)
(0.29533104 1.1055033e-07 0)
(0.29533077 8.2044557e-08 0)
(0.29533055 6.2937951e-08 0)
(0.2953304 5.0881297e-08 0)
(0.29533026 4.6822831e-08 0)
(0.29533017 4.94101e-08 0)
(0.29533002 6.6150426e-08 0)
(0.29532992 8.2873844e-08 0)
(1.0016583 0.05381943 0)
(1.0359761 0.10128444 0)
(1.0597199 0.11073663 0)
(1.0628947 0.10592202 0)
(1.0515569 0.096228728 0)
(1.0340529 0.083934061 0)
(1.0142795 0.070327063 0)
(0.99360703 0.056981333 0)
(0.97292577 0.045107479 0)
(0.9531074 0.03523675 0)
(0.93479538 0.02740165 0)
(0.91829012 0.021387227 0)
(0.90362379 0.016884499 0)
(0.89068067 0.013569709 0)
(0.87928174 0.011147749 0)
(0.86923241 0.0093736599 0)
(0.86034423 0.0080569294 0)
(0.85244666 0.0070571286 0)
(0.84539241 0.0062752393 0)
(0.83905792 0.0056438292 0)
(0.83334126 0.0051180914 0)
(0.82815883 0.0046686727 0)
(0.82344211 0.004276418 0)
(0.81913466 0.00392874 0)
(0.8151896 0.0036172056 0)
(0.81156764 0.0033359735 0)
(0.80823542 0.003080808 0)
(0.80516438 0.0028484737 0)
(0.80232977 0.0026363745 0)
(0.79970996 0.0024423442 0)
(0.79728594 0.002264525 0)
(0.79504083 0.0021012969 0)
(0.7929596 0.0019512335 0)
(0.79102877 0.0018130725 0)
(0.78923624 0.001685694 0)
(0.78757108 0.0015681027 0)
(0.78602337 0.0014594126 0)
(0.78458414 0.0013588343 0)
(0.78324519 0.001265662 0)
(0.78199905 0.0011792636 0)
(0.78083891 0.0010990701 0)
(0.7797585 0.0010245678 0)
(0.77875212 0.0009552905 0)
(0.7778145 0.00089081283 0)
(0.77694082 0.00083074488 0)
(0.77612665 0.00077472731 0)
(0.77536795 0.00072242788 0)
(0.77466097 0.0006735381 0)
(0.77400231 0.00062777139 0)
(0.77338884 0.00058486143 0)
(0.7728177 0.00054456163 0)
(0.77228628 0.00050664453 0)
(0.77179219 0.00047090233 0)
(0.77133325 0.00043714694 0)
(0.77090748 0.00040521086 0)
(0.77051303 0.00037494708 0)
(0.77014825 0.00034622985 0)
(0.76981157 0.00031895397 0)
(0.76950155 0.00029303474 0)
(0.76921683 0.0002684063 0)
(0.76895612 0.00024502062 0)
(0.76871819 0.00022284477 0)
(0.76850183 0.00020185892 0)
(0.76830586 0.00018205296 0)
(0.76812913 0.00016342388 0)
(0.76797048 0.00014597211 0)
(0.76782875 0.00012969892 0)
(0.76770281 0.00011460318 0)
(0.76759149 0.00010067935 0)
(0.76749368 8.7915141e-05 0)
(0.76740824 7.629057e-05 0)
(0.76733407 6.5776824e-05 0)
(0.7672701 5.6336522e-05 0)
(0.76721529 4.7923543e-05 0)
(0.76716865 4.0484267e-05 0)
(0.76712923 3.3958205e-05 0)
(0.76709615 2.8279777e-05 0)
(0.76706859 2.3379397e-05 0)
(0.76704579 1.9185558e-05 0)
(0.76702709 1.5626172e-05 0)
(0.76701185 1.2630695e-05 0)
(0.76699954 1.0130952e-05 0)
(0.76698967 8.0631218e-06 0)
(0.76698181 6.3674734e-06 0)
(0.7669756 4.9899815e-06 0)
(0.76697074 3.8807998e-06 0)
(0.76696694 2.9961078e-06 0)
(0.76696403 2.2958575e-06 0)
(0.76696178 1.7465681e-06 0)
(0.76696009 1.317855e-06 0)
(0.76695881 9.8676418e-07 0)
(0.76695787 7.3199158e-07 0)
(0.76695716 5.4004451e-07 0)
(0.76695666 3.9641554e-07 0)
(0.76695625 2.941281e-07 0)
(0.76695599 2.2273878e-07 0)
(0.76695573 1.7900362e-07 0)
(0.76695563 1.5715907e-07 0)
(0.76695538 1.5993541e-07 0)
(0.76695543 1.8078559e-07 0)
(1.0014244 0.026824855 0)
(1.0291272 0.062791352 0)
(1.0654292 0.077736553 0)
(1.098962 0.0805972 0)
(1.1253149 0.078285171 0)
(1.145053 0.0731539 0)
(1.1594858 0.066111278 0)
(1.1694287 0.058162063 0)
(1.1755354 0.050296754 0)
(1.1785738 0.043150708 0)
(1.1793571 0.036972825 0)
(1.1785949 0.031771632 0)
(1.1768304 0.02745184 0)
(1.1744518 0.023886769 0)
(1.1717287 0.020947621 0)
(1.1688444 0.018515782 0)
(1.1659195 0.016488086 0)
(1.1630317 0.014779504 0)
(1.1602295 0.013322987 0)
(1.1575415 0.012067134 0)
(1.1549828 0.010973002 0)
(1.1525601 0.010011063 0)
(1.1502747 0.0091587491 0)
(1.1481246 0.0083986074 0)
(1.1461059 0.0077169547 0)
(1.1442134 0.0071028935 0)
(1.1424414 0.0065475982 0)
(1.1407838 0.0060438028 0)
(1.1392343 0.0055854344 0)
(1.1377869 0.0051673536 0)
(1.1364353 0.0047851667 0)
(1.1351738 0.0044350865 0)
(1.1339967 0.0041138276 0)
(1.1328987 0.0038185235 0)
(1.1318746 0.0035466619 0)
(1.1309195 0.0032960311 0)
(1.1300289 0.0030646763 0)
(1.1291985 0.0028508634 0)
(1.1284243 0.0026530478 0)
(1.1277023 0.0024698483 0)
(1.1270292 0.0023000248 0)
(1.1264017 0.0021424591 0)
(1.1258165 0.0019961384 0)
(1.1252709 0.001860141 0)
(1.1247622 0.0017336241 0)
(1.1242879 0.0016158138 0)
(1.1238457 0.0015059964 0)
(1.1234334 0.0014035113 0)
(1.1230491 0.0013077461 0)
(1.122691 0.0012181322 0)
(1.1223573 0.0011341424 0)
(1.1220465 0.0010552894 0)
(1.1217571 0.00098112489 0)
(1.1214879 0.00091124048 0)
(1.1212375 0.00084526738 0)
(1.121005 0.000782878 0)
(1.1207893 0.00072378562 0)
(1.1205894 0.00066774539 0)
(1.1204044 0.00061455295 0)
(1.1202337 0.00056404381 0)
(1.1200763 0.00051609024 0)
(1.1199317 0.00047059857 0)
(1.1197992 0.00042750439 0)
(1.1196782 0.00038676782 0)
(1.1195679 0.00034836754 0)
(1.119468 0.00031229486 0)
(1.1193777 0.00027854755 0)
(1.1192966 0.00024712392 0)
(1.119224 0.00021801762 0)
(1.1191594 0.00019121277 0)
(1.1191022 0.00016668088 0)
(1.1190518 0.00014437772 0)
(1.1190078 0.00012424266 0)
(1.1189695 0.0001061975 0)
(1.1189364 9.0148261e-05 0)
(1.118908 7.5985637e-05 0)
(1.1188838 6.3588461e-05 0)
(1.1188634 5.2825149e-05 0)
(1.1188462 4.3558324e-05 0)
(1.1188319 3.5646585e-05 0)
(1.11882 2.8949578e-05 0)
(1.1188103 2.3328944e-05 0)
(1.1188024 1.8653368e-05 0)
(1.118796 1.4797605e-05 0)
(1.1187908 1.1647267e-05 0)
(1.1187867 9.0956113e-06 0)
(1.1187835 7.0484023e-06 0)
(1.118781 5.419164e-06 0)
(1.118779 4.1346833e-06 0)
(1.1187775 3.1289402e-06 0)
(1.1187763 2.3493047e-06 0)
(1.1187755 1.7489335e-06 0)
(1.1187748 1.2929434e-06 0)
(1.1187744 9.5031873e-07 0)
(1.1187739 6.9827721e-07 0)
(1.1187737 5.1700474e-07 0)
(1.1187734 3.9169273e-07 0)
(1.1187734 3.1008167e-07 0)
(1.1187731 2.7005957e-07 0)
(1.1187733 2.4295484e-07 0)
(1.0007347 0.011814722 0)
(1.0178472 0.030860927 0)
(1.0462163 0.041434441 0)
(1.0799018 0.04519357 0)
(1.1132664 0.045502351 0)
(1.143782 0.044080308 0)
(1.1708941 0.041439982 0)
(1.1945687 0.037973678 0)
(1.2148582 0.034195729 0)
(1.2319652 0.030536887 0)
(1.2462683 0.027222045 0)
(1.2582339 0.024313921 0)
(1.2683135 0.021797889 0)
(1.2768875 0.019633661 0)
(1.2842554 0.017773828 0)
(1.2906479 0.016169653 0)
(1.296243 0.014775592 0)
(1.3011791 0.013552299 0)
(1.3055645 0.012467866 0)
(1.3094838 0.011497468 0)
(1.3130042 0.010622164 0)
(1.3161792 0.0098275161 0)
(1.3190526 0.0091024146 0)
(1.3216607 0.0084381812 0)
(1.3240343 0.0078279094 0)
(1.3261995 0.0072659811 0)
(1.3281786 0.0067477165 0)
(1.3299913 0.0062691257 0)
(1.3316544 0.0058267375 0)
(1.3331828 0.0054174844 0)
(1.3345896 0.0050386243 0)
(1.3358861 0.0046876866 0)
(1.3370827 0.004362433 0)
(1.3381882 0.0040608282 0)
(1.3392108 0.0037810164 0)
(1.3401575 0.0035213027 0)
(1.3410349 0.0032801365 0)
(1.3418485 0.0030560973 0)
(1.3426037 0.0028478826 0)
(1.343305 0.0026542953 0)
(1.3439567 0.0024742345 0)
(1.3445626 0.0023066848 0)
(1.3451262 0.0021507084 0)
(1.3456506 0.0020054367 0)
(1.3461387 0.0018700631 0)
(1.3465931 0.0017438368 0)
(1.3470161 0.0016260573 0)
(1.34741 0.0015160695 0)
(1.3477768 0.0014132599 0)
(1.3481181 0.0013170543 0)
(1.3484357 0.0012269155 0)
(1.348731 0.0011423424 0)
(1.3490054 0.0010628692 0)
(1.34926 0.00098806666 0)
(1.349496 0.00091754164 0)
(1.3497144 0.00085093958 0)
(1.3499161 0.00078794347 0)
(1.350102 0.00072827677 0)
(1.3502728 0.00067170116 0)
(1.3504293 0.00061801852 0)
(1.3505722 0.00056706701 0)
(1.3507023 0.00051872131 0)
(1.3508201 0.00047288688 0)
(1.3509263 0.00042949835 0)
(1.3510217 0.00038851217 0)
(1.3511069 0.0003499035 0)
(1.3511825 0.00031365835 0)
(1.3512492 0.00027976965 0)
(1.3513078 0.00024823003 0)
(1.3513588 0.00021902818 0)
(1.351403 0.00019214338 0)
(1.3514409 0.00016754297 0)
(1.3514734 0.00014517942 0)
(1.3515008 0.00012498907 0)
(1.3515239 0.00010689188 0)
(1.3515431 9.079178e-05 0)
(1.351559 7.6579143e-05 0)
(1.351572 6.4131475e-05 0)
(1.3515827 5.3318155e-05 0)
(1.3515912 4.4001145e-05 0)
(1.3515981 3.6040996e-05 0)
(1.3516035 2.9296851e-05 0)
(1.3516077 2.3632779e-05 0)
(1.3516111 1.89162e-05 0)
(1.3516136 1.5024206e-05 0)
(1.3516156 1.1839872e-05 0)
(1.351617 9.2587708e-06 0)
(1.3516182 7.1835267e-06 0)
(1.351619 5.5305741e-06 0)
(1.3516196 4.2237608e-06 0)
(1.35162 3.2006167e-06 0)
(1.3516203 2.4055628e-06 0)
(1.3516205 1.7950929e-06 0)
(1.3516208 1.3306937e-06 0)
(1.3516208 9.8367972e-07 0)
(1.351621 7.2628923e-07 0)
(1.3516209 5.440035e-07 0)
(1.3516211 4.0973872e-07 0)
(1.3516209 3.3666894e-07 0)
(1.3516212 2.6069439e-07 0)
(1.0005903 0.0034629159 0)
(1.0136865 0.0093660197 0)
(1.0370283 0.013046806 0)
(1.0674202 0.014563261 0)
(1.1000315 0.014854525 0)
(1.1316428 0.014564991 0)
(1.1610745 0.013888338 0)
(1.1880674 0.012919245 0)
(1.2125205 0.011806506 0)
(1.2343939 0.010696427 0)
(1.2538077 0.0096727425 0)
(1.2710339 0.0087628227 0)
(1.286401 0.0079659745 0)
(1.3002112 0.0072722157 0)
(1.3127102 0.0066688099 0)
(1.3240903 0.0061419268 0)
(1.3345036 0.0056780738 0)
(1.3440716 0.0052653228 0)
(1.3528927 0.0048939372 0)
(1.3610463 0.0045563982 0)
(1.3685975 0.0042470727 0)
(1.3756004 0.0039617794 0)
(1.3821012 0.0036974019 0)
(1.3881402 0.0034515876 0)
(1.3937533 0.0032225246 0)
(1.3989728 0.0030087768 0)
(1.403828 0.0028091659 0)
(1.4083456 0.0026226881 0)
(1.4125503 0.0024484596 0)
(1.4164646 0.0022856817 0)
(1.4201094 0.0021336196 0)
(1.423504 0.0019915895 0)
(1.426666 0.0018589507 0)
(1.4296121 0.0017351013 0)
(1.4323573 0.0016194744 0)
(1.4349158 0.0015115364 0)
(1.4373007 0.0014107848 0)
(1.4395239 0.0013167471 0)
(1.4415968 0.0012289792 0)
(1.4435298 0.0011470636 0)
(1.4453324 0.0010706079 0)
(1.4470136 0.00099924368 0)
(1.4485816 0.00093262416 0)
(1.4500442 0.00087042315 0)
(1.4514085 0.00081233334 0)
(1.4526811 0.0007580648 0)
(1.453868 0.00070734382 0)
(1.4549749 0.00065991167 0)
(1.456007 0.00061552416 0)
(1.4569692 0.00057395002 0)
(1.4578657 0.00053497147 0)
(1.4587008 0.00049838357 0)
(1.4594781 0.00046399472 0)
(1.460201 0.00043162649 0)
(1.4608727 0.00040111453 0)
(1.4614961 0.00037230872 0)
(1.4620738 0.0003450739 0)
(1.4626083 0.00031929016 0)
(1.4631017 0.00029485315 0)
(1.4635563 0.0002716741 0)
(1.463974 0.00024967929 0)
(1.4643568 0.00022880967 0)
(1.4647063 0.00020901936 0)
(1.4650244 0.0001902747 0)
(1.4653128 0.00017255194 0)
(1.4655731 0.00015583574 0)
(1.4658071 0.00014011639 0)
(1.4660164 0.00012538817 0)
(1.4662026 0.00011164646 0)
(1.4663675 9.888622e-05 0)
(1.4665126 8.7099552e-05 0)
(1.4666395 7.6274687e-05 0)
(1.46675 6.6394047e-05 0)
(1.4668454 5.7434238e-05 0)
(1.4669273 4.9365184e-05 0)
(1.4669972 4.2150291e-05 0)
(1.4670564 3.5746891e-05 0)
(1.4671062 3.0106984e-05 0)
(1.4671477 2.5178428e-05 0)
(1.4671822 2.0905789e-05 0)
(1.4672106 1.7232024e-05 0)
(1.4672337 1.4099226e-05 0)
(1.4672525 1.1450309e-05 0)
(1.4672676 9.2293943e-06 0)
(1.4672797 7.3834747e-06 0)
(1.4672892 5.8621568e-06 0)
(1.4672967 4.6193546e-06 0)
(1.4673025 3.6123467e-06 0)
(1.4673071 2.8035435e-06 0)
(1.4673105 2.15906e-06 0)
(1.4673132 1.6502878e-06 0)
(1.4673152 1.2518809e-06 0)
(1.4673166 9.4361636e-07 0)
(1.4673178 7.0691036e-07 0)
(1.4673186 5.2851599e-07 0)
(1.4673193 3.9364345e-07 0)
(1.4673196 2.9704902e-07 0)
(1.4673201 2.2213878e-07 0)
(1.46732 1.8021872e-07 0)
(1.4673206 1.3357586e-07 0)
(1.0005903 -0.0034629158 0)
(1.0136865 -0.0093660197 0)
(1.0370283 -0.013046806 0)
(1.0674202 -0.014563261 0)
(1.1000315 -0.014854524 0)
(1.1316428 -0.014564991 0)
(1.1610745 -0.013888338 0)
(1.1880674 -0.012919245 0)
(1.2125205 -0.011806506 0)
(1.2343939 -0.010696426 0)
(1.2538077 -0.0096727416 0)
(1.2710339 -0.0087628215 0)
(1.286401 -0.0079659729 0)
(1.3002112 -0.0072722137 0)
(1.3127102 -0.0066688075 0)
(1.3240903 -0.0061419239 0)
(1.3345036 -0.0056780706 0)
(1.3440716 -0.0052653191 0)
(1.3528927 -0.0048939329 0)
(1.3610463 -0.0045563933 0)
(1.3685975 -0.0042470668 0)
(1.3756004 -0.0039617724 0)
(1.3821012 -0.0036973936 0)
(1.3881402 -0.0034515778 0)
(1.3937533 -0.003222513 0)
(1.3989728 -0.0030087634 0)
(1.403828 -0.0028091507 0)
(1.4083456 -0.0026226709 0)
(1.4125503 -0.0024484405 0)
(1.4164646 -0.0022856606 0)
(1.4201094 -0.0021335963 0)
(1.423504 -0.0019915638 0)
(1.4266661 -0.0018589225 0)
(1.4296121 -0.0017350704 0)
(1.4323573 -0.0016194406 0)
(1.4349158 -0.0015114996 0)
(1.4373007 -0.0014107454 0)
(1.439524 -0.0013167054 0)
(1.4415969 -0.0012289359 0)
(1.4435298 -0.0011470194 0)
(1.4453324 -0.0010705639 0)
(1.4470136 -0.00099920095 0)
(1.4485817 -0.00093258393 0)
(1.4500443 -0.0008703868 0)
(1.4514086 -0.00081230215 0)
(1.4526811 -0.00075804034 0)
(1.453868 -0.00070732747 0)
(1.454975 -0.00065990515 0)
(1.4560071 -0.00061552824 0)
(1.4569692 -0.00057396629 0)
(1.4578658 -0.00053500073 0)
(1.4587008 -0.00049842714 0)
(1.4594781 -0.00046405257 0)
(1.460201 -0.0004316993 0)
(1.4608727 -0.00040120119 0)
(1.4614961 -0.00037240899 0)
(1.4620738 -0.00034518553 0)
(1.4626082 -0.00031941206 0)
(1.4631017 -0.0002949821 0)
(1.4635563 -0.00027180826 0)
(1.463974 -0.00024981484 0)
(1.4643567 -0.00022894445 0)
(1.4647062 -0.00020914954 0)
(1.4650243 -0.00019039825 0)
(1.4653127 -0.00017266562 0)
(1.465573 -0.0001559382 0)
(1.465807 -0.00014020556 0)
(1.4660163 -0.00012546357 0)
(1.4662025 -0.00011170713 0)
(1.4663673 -9.893234e-05 0)
(1.4665124 -8.7130916e-05 0)
(1.4666394 -7.6291631e-05 0)
(1.4667498 -6.6397159e-05 0)
(1.4668453 -5.7424293e-05 0)
(1.4669272 -4.9343492e-05 0)
(1.4669971 -4.2118022e-05 0)
(1.4670563 -3.5706416e-05 0)
(1.4671061 -3.0059834e-05 0)
(1.4671476 -2.5127184e-05 0)
(1.4671821 -2.0851531e-05 0)
(1.4672105 -1.7176634e-05 0)
(1.4672337 -1.4042736e-05 0)
(1.4672524 -1.1393967e-05 0)
(1.4672676 -9.1727028e-06 0)
(1.4672796 -7.3278897e-06 0)
(1.4672892 -5.8073248e-06 0)
(1.4672967 -4.5671706e-06 0)
(1.4673025 -3.5626807e-06 0)
(1.467307 -2.7579913e-06 0)
(1.4673105 -2.1169803e-06 0)
(1.4673131 -1.612113e-06 0)
(1.4673152 -1.2162351e-06 0)
(1.4673166 -9.1007483e-07 0)
(1.4673178 -6.7402091e-07 0)
(1.4673186 -4.9675541e-07 0)
(1.4673193 -3.62479e-07 0)
(1.4673196 -2.6796424e-07 0)
(1.4673201 -1.9486028e-07 0)
(1.46732 -1.5573952e-07 0)
(1.4673206 -1.0900494e-07 0)
(1.0007347 -0.011814721 0)
(1.0178472 -0.030860927 0)
(1.0462163 -0.041434441 0)
(1.0799018 -0.04519357 0)
(1.1132664 -0.045502351 0)
(1.143782 -0.044080308 0)
(1.1708941 -0.041439982 0)
(1.1945687 -0.037973677 0)
(1.2148582 -0.034195729 0)
(1.2319652 -0.030536886 0)
(1.2462683 -0.027222044 0)
(1.2582339 -0.02431392 0)
(1.2683135 -0.021797887 0)
(1.2768875 -0.019633659 0)
(1.2842554 -0.017773825 0)
(1.2906479 -0.016169651 0)
(1.296243 -0.014775589 0)
(1.3011791 -0.013552296 0)
(1.3055645 -0.012467862 0)
(1.3094838 -0.011497464 0)
(1.3130042 -0.010622159 0)
(1.3161792 -0.00982751 0)
(1.3190526 -0.0091024073 0)
(1.3216607 -0.0084381725 0)
(1.3240343 -0.0078278992 0)
(1.3261995 -0.0072659694 0)
(1.3281786 -0.0067477032 0)
(1.3299913 -0.0062691108 0)
(1.3316545 -0.005826721 0)
(1.3331829 -0.0054174663 0)
(1.3345896 -0.0050386045 0)
(1.3358862 -0.004687665 0)
(1.3370827 -0.0043624093 0)
(1.3381883 -0.0040608022 0)
(1.3392108 -0.0037809881 0)
(1.3401576 -0.0035212722 0)
(1.3410349 -0.003280104 0)
(1.3418486 -0.0030560633 0)
(1.3426038 -0.0028478476 0)
(1.3433051 -0.0026542601 0)
(1.3439568 -0.0024742 0)
(1.3445627 -0.002306652 0)
(1.3451263 -0.0021506783 0)
(1.3456507 -0.0020054102 0)
(1.3461388 -0.0018700413 0)
(1.3465932 -0.0017438207 0)
(1.3470163 -0.001626048 0)
(1.3474102 -0.0015160678 0)
(1.347777 -0.0014132673 0)
(1.3481183 -0.0013170717 0)
(1.3484359 -0.0012269438 0)
(1.3487312 -0.0011423818 0)
(1.3490055 -0.0010629203 0)
(1.3492601 -0.00098812889 0)
(1.3494961 -0.00091761498 0)
(1.3497145 -0.00085102255 0)
(1.3499162 -0.00078803542 0)
(1.350102 -0.00072837549 0)
(1.3502728 -0.00067180537 0)
(1.3504292 -0.00061812546 0)
(1.3505721 -0.00056717502 0)
(1.3507021 -0.00051882752 0)
(1.3508199 -0.0004729896 0)
(1.3509261 -0.00042959499 0)
(1.3510215 -0.0003886014 0)
(1.3511066 -0.00034998355 0)
(1.3511822 -0.00031372853 0)
(1.3512489 -0.00027982904 0)
(1.3513074 -0.00024827854 0)
(1.3513585 -0.00021906557 0)
(1.3514026 -0.0001921698 0)
(1.3514406 -0.00016755851 0)
(1.351473 -0.00014518405 0)
(1.3515005 -0.00012498326 0)
(1.3515235 -0.00010687627 0)
(1.3515428 -9.0767993e-05 0)
(1.3515587 -7.6548402e-05 0)
(1.3515718 -6.4095908e-05 0)
(1.3515824 -5.3278957e-05 0)
(1.351591 -4.3960071e-05 0)
(1.3515978 -3.599842e-05 0)
(1.3516033 -2.925378e-05 0)
(1.3516075 -2.3588903e-05 0)
(1.3516109 -1.8872479e-05 0)
(1.3516135 -1.4980346e-05 0)
(1.3516154 -1.1797303e-05 0)
(1.3516169 -9.2175236e-06 0)
(1.351618 -7.1452125e-06 0)
(1.3516188 -5.494871e-06 0)
(1.3516195 -4.1916409e-06 0)
(1.3516199 -3.1708241e-06 0)
(1.3516203 -2.3784693e-06 0)
(1.3516205 -1.7689023e-06 0)
(1.3516207 -1.3056673e-06 0)
(1.3516208 -9.5900451e-07 0)
(1.3516209 -7.0228661e-07 0)
(1.3516209 -5.2094318e-07 0)
(1.3516211 -3.8797428e-07 0)
(1.3516209 -3.1591694e-07 0)
(1.3516212 -2.4108567e-07 0)
(1.0014244 -0.026824855 0)
(1.0291272 -0.062791352 0)
(1.0654292 -0.077736553 0)
(1.098962 -0.0805972 0)
(1.1253149 -0.078285171 0)
(1.145053 -0.0731539 0)
(1.1594858 -0.066111278 0)
(1.1694287 -0.058162063 0)
(1.1755354 -0.050296754 0)
(1.1785738 -0.043150708 0)
(1.1793571 -0.036972825 0)
(1.1785949 -0.031771631 0)
(1.1768304 -0.027451839 0)
(1.1744518 -0.023886767 0)
(1.1717287 -0.020947619 0)
(1.1688444 -0.01851578 0)
(1.1659195 -0.016488084 0)
(1.1630317 -0.014779502 0)
(1.1602295 -0.013322984 0)
(1.1575415 -0.012067131 0)
(1.1549828 -0.010972998 0)
(1.1525601 -0.010011059 0)
(1.1502747 -0.0091587437 0)
(1.1481246 -0.008398601 0)
(1.1461059 -0.0077169473 0)
(1.1442135 -0.0071028851 0)
(1.1424415 -0.0065475889 0)
(1.1407838 -0.0060437925 0)
(1.1392344 -0.0055854231 0)
(1.1377869 -0.0051673414 0)
(1.1364354 -0.0047851534 0)
(1.1351739 -0.0044350721 0)
(1.1339968 -0.0041138118 0)
(1.1328988 -0.0038185065 0)
(1.1318747 -0.0035466436 0)
(1.1309196 -0.0032960117 0)
(1.130029 -0.0030646561 0)
(1.1291986 -0.0028508427 0)
(1.1284244 -0.0026530271 0)
(1.1277025 -0.0024698282 0)
(1.1270294 -0.002300006 0)
(1.1264018 -0.0021424423 0)
(1.1258167 -0.0019961241 0)
(1.1252711 -0.0018601298 0)
(1.1247624 -0.0017336168 0)
(1.1242881 -0.0016158108 0)
(1.1238459 -0.0015059985 0)
(1.1234336 -0.0014035191 0)
(1.1230493 -0.0013077603 0)
(1.1226912 -0.001218153 0)
(1.1223575 -0.0011341703 0)
(1.1220466 -0.001055324 0)
(1.1217572 -0.00098116681 0)
(1.121488 -0.0009112886 0)
(1.1212376 -0.00084532197 0)
(1.1210051 -0.00078293738 0)
(1.1207893 -0.00072384986 0)
(1.1205893 -0.00066781232 0)
(1.1204043 -0.00061462238 0)
(1.1202335 -0.00056411327 0)
(1.1200762 -0.00051615948 0)
(1.1199315 -0.00047066513 0)
(1.1197989 -0.00042756804 0)
(1.1196778 -0.00038682645 0)
(1.1195676 -0.00034842121 0)
(1.1194676 -0.00031234211 0)
(1.1193773 -0.00027858875 0)
(1.1192961 -0.00024715826 0)
(1.1192235 -0.00021804562 0)
(1.1191589 -0.00019123402 0)
(1.1191017 -0.00016669563 0)
(1.1190513 -0.00014438572 0)
(1.1190073 -0.00012424391 0)
(1.118969 -0.00010619254 0)
(1.118936 -9.0137476e-05 0)
(1.1189076 -7.5970496e-05 0)
(1.1188834 -6.3569515e-05 0)
(1.118863 -5.2804224e-05 0)
(1.1188458 -4.3535651e-05 0)
(1.1188315 -3.5623495e-05 0)
(1.1188197 -2.8925456e-05 0)
(1.11881 -2.330474e-05 0)
(1.1188021 -1.8628114e-05 0)
(1.1187957 -1.4772651e-05 0)
(1.1187906 -1.1621774e-05 0)
(1.1187866 -9.0715619e-06 0)
(1.1187834 -7.0251068e-06 0)
(1.1187808 -5.3984572e-06 0)
(1.1187789 -4.115295e-06 0)
(1.1187774 -3.1120356e-06 0)
(1.1187762 -2.3330711e-06 0)
(1.1187754 -1.7343555e-06 0)
(1.1187748 -1.2783308e-06 0)
(1.1187743 -9.3682623e-07 0)
(1.1187739 -6.8499324e-07 0)
(1.1187737 -5.0391176e-07 0)
(1.1187734 -3.7868083e-07 0)
(1.1187734 -2.972596e-07 0)
(1.1187731 -2.561963e-07 0)
(1.1187733 -2.3046458e-07 0)
(1.0016583 -0.05381943 0)
(1.0359761 -0.10128444 0)
(1.0597199 -0.11073663 0)
(1.0628947 -0.10592202 0)
(1.0515569 -0.096228728 0)
(1.0340529 -0.083934061 0)
(1.0142795 -0.070327063 0)
(0.99360703 -0.056981333 0)
(0.97292577 -0.045107479 0)
(0.9531074 -0.03523675 0)
(0.93479539 -0.02740165 0)
(0.91829012 -0.021387227 0)
(0.90362379 -0.016884498 0)
(0.89068067 -0.013569709 0)
(0.87928175 -0.011147749 0)
(0.86923242 -0.0093736589 0)
(0.86034423 -0.0080569283 0)
(0.85244667 -0.0070571274 0)
(0.84539242 -0.0062752379 0)
(0.83905793 -0.0056438275 0)
(0.83334127 -0.0051180894 0)
(0.82815884 -0.0046686703 0)
(0.82344213 -0.0042764152 0)
(0.81913468 -0.0039287369 0)
(0.81518963 -0.0036172021 0)
(0.81156766 -0.0033359697 0)
(0.80823545 -0.0030808039 0)
(0.80516441 -0.0028484692 0)
(0.80232981 -0.0026363697 0)
(0.79971001 -0.002442339 0)
(0.79728599 -0.0022645194 0)
(0.79504089 -0.0021012909 0)
(0.79295966 -0.0019512271 0)
(0.79102885 -0.0018130658 0)
(0.78923633 -0.001685687 0)
(0.78757117 -0.0015680956 0)
(0.78602348 -0.0014594057 0)
(0.78458425 -0.0013588276 0)
(0.78324531 -0.0012656558 0)
(0.78199918 -0.001179258 0)
(0.78083904 -0.0010990653 0)
(0.77975865 -0.0010245641 0)
(0.77875226 -0.00095528797 0)
(0.77781465 -0.0008908118 0)
(0.77694096 -0.00083074539 0)
(0.7761268 -0.00077472976 0)
(0.77536809 -0.00072243221 0)
(0.7746611 -0.00067354468 0)
(0.77400242 -0.00062778001 0)
(0.77338894 -0.00058487239 0)
(0.77281777 -0.00054457449 0)
(0.77228633 -0.00050665961 0)
(0.77179221 -0.00047091903 0)
(0.77133324 -0.00043716556 0)
(0.77090743 -0.00040523064 0)
(0.77051295 -0.00037496838 0)
(0.77014813 -0.00034625179 0)
(0.76981141 -0.00031897679 0)
(0.76950135 -0.00029305747 0)
(0.7692166 -0.00026842914 0)
(0.76895585 -0.00024504258 0)
(0.76871789 -0.00022286593 0)
(0.7685015 -0.00020187846 0)
(0.76830551 -0.00018207106 0)
(0.76812876 -0.00016344003 0)
(0.76797009 -0.00014598657 0)
(0.76782835 -0.00012971143 0)
(0.7677024 -0.00011461395 0)
(0.76759108 -0.00010068817 0)
(0.76749327 -8.7921929e-05 0)
(0.76740784 -7.6295107e-05 0)
(0.76733368 -6.57789e-05 0)
(0.76726972 -5.6336322e-05 0)
(0.76721493 -4.7921135e-05 0)
(0.76716831 -4.048046e-05 0)
(0.7671289 -3.3953228e-05 0)
(0.76709584 -2.8274549e-05 0)
(0.7670683 -2.337379e-05 0)
(0.76704554 -1.9179973e-05 0)
(0.76702685 -1.5619807e-05 0)
(0.76701164 -1.2623696e-05 0)
(0.76699935 -1.0122667e-05 0)
(0.7669895 -8.0543811e-06 0)
(0.76698166 -6.3581748e-06 0)
(0.76697548 -4.9815303e-06 0)
(0.76697062 -3.8731097e-06 0)
(0.76696685 -2.9900857e-06 0)
(0.76696394 -2.2905022e-06 0)
(0.76696171 -1.7419165e-06 0)
(0.76696003 -1.3126122e-06 0)
(0.76695877 -9.8129287e-07 0)
(0.76695783 -7.2573199e-07 0)
(0.76695713 -5.3456237e-07 0)
(0.76695663 -3.9158298e-07 0)
(0.76695624 -2.9082641e-07 0)
(0.76695599 -2.1931436e-07 0)
(0.76695573 -1.7605943e-07 0)
(0.76695564 -1.5275984e-07 0)
(0.76695538 -1.5293203e-07 0)
(0.76695544 -1.7473439e-07 0)
(0.91890839 -0.035821913 0)
(0.86271384 -0.062195638 0)
(0.7870597 -0.06251009 0)
(0.69536033 -0.054550395 0)
(0.61089745 -0.044531651 0)
(0.54411592 -0.034015971 0)
(0.49343012 -0.024187539 0)
(0.45479413 -0.016144229 0)
(0.42544582 -0.010265785 0)
(0.40347313 -0.0063041451 0)
(0.38715767 -0.0037976293 0)
(0.3749622 -0.002310338 0)
(0.36566193 -0.0014930148 0)
(0.35836272 -0.0010851181 0)
(0.35244268 -0.00090607233 0)
(0.34748201 -0.00084105184 0)
(0.34320348 -0.00082372426 0)
(0.33942726 -0.00081931046 0)
(0.33603793 -0.00081185188 0)
(0.33296114 -0.00079580094 0)
(0.33014779 -0.00077081106 0)
(0.32756385 -0.00073870905 0)
(0.3251842 -0.00070188897 0)
(0.32298903 -0.00066256555 0)
(0.32096173 -0.00062249979 0)
(0.31908785 -0.00058295806 0)
(0.31735449 -0.00054477263 0)
(0.31574996 -0.00050843567 0)
(0.3142636 -0.00047419362 0)
(0.31288574 -0.0004421273 0)
(0.31160755 -0.0004122131 0)
(0.31042101 -0.00038436667 0)
(0.30931882 -0.00035847201 0)
(0.30829436 -0.00033440009 0)
(0.30734162 -0.00031201998 0)
(0.30645511 -0.00029120515 0)
(0.30562985 -0.00027183661 0)
(0.30486128 -0.00025380416 0)
(0.30414524 -0.00023700644 0)
(0.30347793 -0.00022135059 0)
(0.30285584 -0.00020675131 0)
(0.30227578 -0.00019313034 0)
(0.3017348 -0.0001804152 0)
(0.30123018 -0.0001685389 0)
(0.30075943 -0.00015743867 0)
(0.30032025 -0.00014705614 0)
(0.29991052 -0.00013733598 0)
(0.29952831 -0.00012822662 0)
(0.29917183 -0.00011967874 0)
(0.29883946 -0.00011164687 0)
(0.29852968 -0.00010408737 0)
(0.29824115 -9.6960887e-05 0)
(0.29797261 -9.0229674e-05 0)
(0.29772293 -8.3861143e-05 0)
(0.29749106 -7.7824248e-05 0)
(0.29727605 -7.209373e-05 0)
(0.29707703 -6.6645722e-05 0)
(0.29689319 -6.1462705e-05 0)
(0.29672378 -5.6528257e-05 0)
(0.29656808 -5.1832183e-05 0)
(0.29642543 -4.7364839e-05 0)
(0.29629518 -4.3122236e-05 0)
(0.29617668 -3.9100212e-05 0)
(0.29606931 -3.5298997e-05 0)
(0.29597246 -3.1717772e-05 0)
(0.2958855 -2.835853e-05 0)
(0.29580782 -2.5221415e-05 0)
(0.29573879 -2.2307748e-05 0)
(0.29567779 -1.9616479e-05 0)
(0.2956242 -1.7146326e-05 0)
(0.2955774 -1.4893687e-05 0)
(0.2955368 -1.2853753e-05 0)
(0.29550179 -1.1019992e-05 0)
(0.29547181 -9.3838229e-06 0)
(0.29544631 -7.9358302e-06 0)
(0.29542477 -6.6641175e-06 0)
(0.29540671 -5.5569648e-06 0)
(0.29539167 -4.6000723e-06 0)
(0.29537923 -3.7804321e-06 0)
(0.29536904 -3.0830542e-06 0)
(0.29536074 -2.4954926e-06 0)
(0.29535405 -2.0035924e-06 0)
(0.29534868 -1.5966474e-06 0)
(0.29534441 -1.2620577e-06 0)
(0.29534104 -9.9111521e-07 0)
(0.2953384 -7.7244787e-07 0)
(0.29533634 -5.9883026e-07 0)
(0.29533476 -4.6037422e-07 0)
(0.29533354 -3.5192636e-07 0)
(0.29533262 -2.6573106e-07 0)
(0.29533193 -1.9934292e-07 0)
(0.29533142 -1.4723469e-07 0)
(0.29533104 -1.0955887e-07 0)
(0.29533077 -8.1107034e-08 0)
(0.29533055 -6.3158163e-08 0)
(0.2953304 -5.1286775e-08 0)
(0.29533026 -4.7576345e-08 0)
(0.29533017 -4.8485459e-08 0)
(0.29533003 -6.3803288e-08 0)
(0.29532993 -8.1237921e-08 0)
)
;

boundaryField
{
    top
    {
        type            fixedValue;
        value           uniform (0 0 0);
    }
    inlet
    {
        type            fixedValue;
        value           uniform (1 0 0);
    }
    outlet
    {
        type            zeroGradient;
    }
    bottom
    {
        type            fixedValue;
        value           uniform (0 0 0);
    }
    back
    {
        type            empty;
    }
    front
    {
        type            empty;
    }
}


// ************************************************************************* //
