/*--------------------------------*- C++ -*----------------------------------*\
| =========                 |                                                 |
| \\      /  F ield         | OpenFOAM: The Open Source CFD Toolbox           |
|  \\    /   O peration     | Version:  2112                                  |
|   \\  /    A nd           | Website:  www.openfoam.com                      |
|    \\/     M anipulation  |                                                 |
\*---------------------------------------------------------------------------*/
FoamFile
{
    version     2.0;
    format      ascii;
    arch        "LSB;label=32;scalar=64";
    class       volScalarField;
    location    "90";
    object      p;
}
// * * * * * * * * * * * * * * * * * * * * * * * * * * * * * * * * * * * * * //

dimensions      [0 2 -2 0 0 0 0];

internalField   nonuniform List<scalar> 
1000
(
1.6854902
1.5553399
1.4646855
1.40652
1.3569357
1.3124186
1.2741439
1.2416427
1.2136706
1.1890792
1.1669369
1.1465453
1.1273677
1.1090426
1.091341
1.0741207
1.0572943
1.040808
1.0246274
1.0087286
0.99309309
0.97770529
0.96255074
0.94761567
0.93288682
0.9183514
0.90399718
0.88981252
0.87578644
0.86190853
0.84816899
0.83455863
0.82106884
0.80769163
0.79441957
0.78124576
0.76816377
0.75516761
0.74225168
0.72941075
0.7166399
0.70393454
0.69129034
0.67870326
0.66616953
0.6536856
0.64124824
0.62885448
0.61650166
0.6041874
0.59190966
0.5796666
0.56745662
0.55527827
0.54313013
0.53101081
0.51891879
0.50685245
0.49480997
0.4827894
0.47078859
0.45880535
0.44683737
0.43488244
0.42293836
0.41100313
0.3990749
0.3871521
0.37523331
0.36331745
0.35140356
0.339491
0.3275792
0.31566784
0.30375661
0.29184544
0.27993412
0.26802276
0.25611119
0.24419959
0.23228777
0.22037601
0.20846401
0.19655219
0.18464006
0.17272824
0.16081604
0.14890427
0.13699204
0.12508031
0.11316814
0.10125642
0.089344553
0.077432773
0.06552186
0.053609851
0.041701093
0.029788354
0.017881814
0.0059660439
1.5619425
1.4955251
1.4371028
1.3927288
1.3508842
1.3112754
1.2758989
1.2448411
1.217353
1.1926831
1.170186
1.1493118
1.1296419
1.1108757
1.0928057
1.0752907
1.0582351
1.0415733
1.0252592
1.0092588
0.99354548
0.97809724
0.96289475
0.94792068
0.93315934
0.91859641
0.90421873
0.89001402
0.87597066
0.86207768
0.84832473
0.8347022
0.82120125
0.80781377
0.7945323
0.78134991
0.76826013
0.75525691
0.74233454
0.72948772
0.71671147
0.70400113
0.69135235
0.67876105
0.66622341
0.65373586
0.64129512
0.62889816
0.61654227
0.60422503
0.59194434
0.57969835
0.56748546
0.55530419
0.54315317
0.53103101
0.51893627
0.50686734
0.49482246
0.48279969
0.47079693
0.45881198
0.44684254
0.43488639
0.42294131
0.41100529
0.39907644
0.38715317
0.37523402
0.36331792
0.35140384
0.33949118
0.32757927
0.31566789
0.3037566
0.29184544
0.27993408
0.26802277
0.25611113
0.24419962
0.2322877
0.22037606
0.20846392
0.19655226
0.18463995
0.17272835
0.16081589
0.1489044
0.13699184
0.12508043
0.1131679
0.10125643
0.089344314
0.077432448
0.065521925
0.053609193
0.041703963
0.029791643
0.017904581
0.0059821473
1.4993986
1.4709398
1.4328847
1.3960002
1.3587106
1.3217785
1.2870561
1.2552423
1.2262922
1.1999488
1.1758568
1.1536198
1.1328652
1.1132771
1.094605
1.0766589
1.0592982
1.0424211
1.025954
1.0098433
0.99404885
0.9785389
0.96328746
0.94827264
0.93347598
0.91888185
0.90447672
0.89024819
0.87618437
0.86227365
0.84850496
0.83486804
0.82135368
0.80795368
0.79466064
0.78146771
0.76836845
0.75535675
0.74242678
0.72957308
0.71679057
0.70407448
0.69142039
0.67882418
0.666282
0.65379023
0.64134555
0.62894492
0.61658557
0.60426508
0.59198131
0.57973239
0.5675167
0.55533277
0.5431792
0.53105461
0.51895754
0.50688638
0.49483938
0.4828146
0.47080994
0.4588232
0.44685211
0.43489443
0.42294797
0.41101072
0.39908079
0.38715659
0.37523664
0.36331989
0.35140527
0.33949219
0.32757994
0.31566834
0.30375684
0.2918456
0.2799341
0.2680228
0.25611106
0.24419962
0.23228759
0.22037608
0.20846379
0.19655232
0.18463979
0.17272846
0.16081566
0.14890454
0.13699148
0.12508054
0.11316724
0.10125628
0.08934296
0.07743144
0.065519011
0.053606024
0.041698306
0.029785268
0.01789745
0.0059752165
1.4703186
1.4541429
1.4252152
1.3929714
1.3592876
1.3250535
1.2918048
1.2605156
1.2314952
1.2047332
1.1800525
1.1571817
1.1358231
1.1156995
1.0965751
1.0782593
1.060603
1.0434927
1.026843
1.0105898
0.99468407
0.9790867
0.9637654
0.94869324
0.93384823
0.91921269
0.9047721
0.89051355
0.87642454
0.86249255
0.84870545
0.83505207
0.82152261
0.8081086
0.79480266
0.78159801
0.76848822
0.7554671
0.7425287
0.72966738
0.71687792
0.70415544
0.69149544
0.67889376
0.66634651
0.65385008
0.64140113
0.6289966
0.61663372
0.60431005
0.5920234
0.57977189
0.56755383
0.55536769
0.54321203
0.53108538
0.51898624
0.50691297
0.49486379
0.48283677
0.47082981
0.45884077
0.44686738
0.4349075
0.42295893
0.41101975
0.39908805
0.38716231
0.37524103
0.36332317
0.35140763
0.33949385
0.32758103
0.31566903
0.30375722
0.29184579
0.27993414
0.26802279
0.25611097
0.24419956
0.23228747
0.22037604
0.20846367
0.19655232
0.18463965
0.17272849
0.16081546
0.1489046
0.13699106
0.12508056
0.11316626
0.10125606
0.089340411
0.0774301
0.065511759
0.053599912
0.041675324
0.029758661
0.017822817
0.0059179232
1.4573119
1.4449348
1.4205982
1.3913682
1.3598566
1.3271712
1.2947918
1.2638297
1.2347735
1.2077515
1.1826969
1.1594204
1.1376759
1.1172139
1.0978079
1.0792659
1.0614322
1.0441842
1.0274281
1.0110924
0.99512223
0.97947381
0.964111
0.94900389
0.93412844
0.91946593
0.90500145
0.89072201
0.8766149
0.86266721
0.84886621
0.83520021
0.82165904
0.80823412
0.79491805
0.78170412
0.76858591
0.7555572
0.74261194
0.72974441
0.71694925
0.70422152
0.69155669
0.67895054
0.66639919
0.65389901
0.64144666
0.62903908
0.6166735
0.60434743
0.59205867
0.57980527
0.56758548
0.55539771
0.54324044
0.53111218
0.51901133
0.50693628
0.49488519
0.48285617
0.47084714
0.458856
0.44688055
0.43491866
0.42296822
0.41102731
0.39909407
0.38716698
0.37524456
0.36332575
0.35140946
0.33949509
0.32758183
0.3156695
0.30375746
0.29184589
0.27993414
0.26802274
0.25611088
0.24419948
0.23228737
0.22037597
0.20846359
0.19655228
0.18463957
0.17272848
0.16081534
0.14890461
0.13699078
0.12508056
0.11316551
0.10125593
0.089338247
0.077429203
0.065504992
0.053594719
0.041651558
0.029731147
0.017738824
0.005852895
1.4573119
1.4449348
1.4205982
1.3913682
1.3598566
1.3271712
1.2947918
1.2638297
1.2347735
1.2077515
1.1826969
1.1594204
1.1376759
1.1172139
1.0978079
1.0792659
1.0614322
1.0441842
1.0274281
1.0110924
0.99512223
0.97947382
0.964111
0.94900389
0.93412845
0.91946593
0.90500145
0.89072201
0.8766149
0.86266721
0.84886621
0.83520021
0.82165904
0.80823412
0.79491805
0.78170412
0.76858592
0.75555721
0.74261195
0.72974442
0.71694926
0.70422154
0.69155671
0.67895056
0.6663992
0.65389902
0.64144668
0.6290391
0.61667351
0.60434744
0.59205867
0.57980527
0.56758547
0.5553977
0.54324043
0.53111216
0.51901132
0.50693625
0.49488517
0.48285614
0.47084711
0.45885597
0.44688052
0.43491863
0.42296819
0.41102727
0.39909403
0.38716694
0.37524452
0.36332571
0.35140942
0.33949505
0.32758178
0.31566946
0.30375742
0.29184585
0.2799341
0.26802271
0.25611085
0.24419945
0.23228735
0.22037595
0.20846357
0.19655227
0.18463956
0.17272847
0.16081533
0.1489046
0.13699078
0.12508055
0.1131655
0.10125591
0.089338236
0.077429182
0.06550498
0.053594706
0.041651553
0.029731161
0.017738837
0.0058528997
1.4703186
1.4541429
1.4252152
1.3929714
1.3592876
1.3250535
1.2918048
1.2605156
1.2314952
1.2047332
1.1800525
1.1571817
1.1358231
1.1156995
1.0965751
1.0782593
1.060603
1.0434926
1.0268429
1.0105898
0.99468406
0.97908671
0.96376541
0.94869326
0.93384824
0.9192127
0.9047721
0.89051355
0.87642453
0.86249254
0.84870545
0.83505207
0.8215226
0.8081086
0.79480267
0.78159802
0.76848824
0.75546712
0.74252872
0.72966742
0.71687796
0.70415548
0.69149549
0.67889381
0.66634656
0.65385013
0.64140117
0.62899663
0.61663375
0.60431006
0.59202341
0.57977189
0.56755382
0.55536767
0.54321199
0.53108534
0.51898619
0.50691291
0.49486373
0.4828367
0.47082974
0.45884068
0.4468673
0.4349074
0.42295883
0.41101964
0.39908794
0.38716219
0.37524091
0.36332304
0.35140751
0.33949372
0.32758091
0.31566891
0.3037571
0.29184568
0.27993404
0.2680227
0.25611089
0.24419948
0.2322874
0.22037598
0.20846362
0.19655228
0.18463962
0.17272847
0.16081544
0.14890458
0.13699104
0.12508054
0.11316623
0.10125602
0.089340373
0.07743006
0.065511718
0.053599886
0.041675328
0.029758687
0.017822846
0.005917935
1.4993986
1.4709398
1.4328847
1.3960002
1.3587106
1.3217785
1.2870561
1.2552423
1.2262922
1.1999488
1.1758568
1.1536198
1.1328652
1.1132771
1.094605
1.0766589
1.0592982
1.042421
1.025954
1.0098433
0.99404884
0.9785389
0.96328748
0.94827267
0.933476
0.91888187
0.90447673
0.89024819
0.87618436
0.86227364
0.84850495
0.83486803
0.82135368
0.80795369
0.79466065
0.78146773
0.76836848
0.75535678
0.74242682
0.72957313
0.71679062
0.70407454
0.69142046
0.67882425
0.66628207
0.6537903
0.64134561
0.62894497
0.61658561
0.6042651
0.59198131
0.57973238
0.56751667
0.55533272
0.54317915
0.53105455
0.51895746
0.5068863
0.49483928
0.4828145
0.47080982
0.45882308
0.44685197
0.43489429
0.42294782
0.41101056
0.39908061
0.38715641
0.37523646
0.3633197
0.35140508
0.33949201
0.32757976
0.31566816
0.30375667
0.29184544
0.27993395
0.26802266
0.25611093
0.24419951
0.23228749
0.220376
0.20846372
0.19655226
0.18463974
0.17272842
0.16081563
0.14890451
0.13699145
0.1250805
0.11316719
0.10125623
0.089342905
0.07743139
0.065518965
0.053606006
0.041698322
0.029785311
0.017897482
0.0059752286
1.5619425
1.4955251
1.4371028
1.3927288
1.3508842
1.3112754
1.2758989
1.2448411
1.217353
1.1926831
1.170186
1.1493118
1.129642
1.1108757
1.0928057
1.0752907
1.0582351
1.0415733
1.0252591
1.0092587
0.99354546
0.97809724
0.96289477
0.9479207
0.93315936
0.91859642
0.90421873
0.89001401
0.87597066
0.86207768
0.84832473
0.8347022
0.82120125
0.80781378
0.79453231
0.78134993
0.76826016
0.75525694
0.74233459
0.72948778
0.71671153
0.70400119
0.69135242
0.67876112
0.66622348
0.65373594
0.64129519
0.62889822
0.61654231
0.60422506
0.59194435
0.57969835
0.56748542
0.55530414
0.5431531
0.53103094
0.51893618
0.50686724
0.49482235
0.48279957
0.4707968
0.45881183
0.44684239
0.43488622
0.42294113
0.4110051
0.39907624
0.38715296
0.37523381
0.36331769
0.35140362
0.33949095
0.32757906
0.31566768
0.3037564
0.29184525
0.2799339
0.26802261
0.25611098
0.24419948
0.23228758
0.22037596
0.20846383
0.19655219
0.18463989
0.1727283
0.16081586
0.14890437
0.13699181
0.12508039
0.11316785
0.10125637
0.089344254
0.077432392
0.065521894
0.053609189
0.04170399
0.029791682
0.017904613
0.0059821541
1.6854902
1.5553399
1.4646855
1.40652
1.3569357
1.3124186
1.2741439
1.2416427
1.2136706
1.1890792
1.1669369
1.1465453
1.1273677
1.1090426
1.091341
1.0741207
1.0572943
1.040808
1.0246274
1.0087285
0.99309309
0.97770532
0.96255078
0.94761571
0.93288684
0.91835139
0.90399716
0.88981251
0.87578644
0.86190854
0.848169
0.83455864
0.82106885
0.80769164
0.79441958
0.78124578
0.7681638
0.75516765
0.74225173
0.72941081
0.71663996
0.7039346
0.69129041
0.67870333
0.66616959
0.65368566
0.6412483
0.62885453
0.61650169
0.60418742
0.59190966
0.57966658
0.56745659
0.55527822
0.54313007
0.53101073
0.5189187
0.50685234
0.49480985
0.48278926
0.47078845
0.45880519
0.44683721
0.43488226
0.42293816
0.41100293
0.39907469
0.38715188
0.37523308
0.36331722
0.35140333
0.33949077
0.32757897
0.31566762
0.3037564
0.29184524
0.27993394
0.26802259
0.25611103
0.24419945
0.23228764
0.22037591
0.20846391
0.19655211
0.18463999
0.17272819
0.160816
0.14890423
0.13699199
0.12508027
0.11316808
0.10125637
0.089344495
0.077432741
0.065521848
0.05360986
0.041701106
0.029788362
0.017881818
0.0059660445
)
;

boundaryField
{
    top
    {
        type            zeroGradient;
    }
    inlet
    {
        type            zeroGradient;
    }
    outlet
    {
        type            fixedValue;
        value           uniform 0;
    }
    bottom
    {
        type            zeroGradient;
    }
    back
    {
        type            empty;
    }
    front
    {
        type            empty;
    }
}


// ************************************************************************* //
