/*--------------------------------*- C++ -*----------------------------------*\
| =========                 |                                                 |
| \\      /  F ield         | OpenFOAM: The Open Source CFD Toolbox           |
|  \\    /   O peration     | Version:  2112                                  |
|   \\  /    A nd           | Website:  www.openfoam.com                      |
|    \\/     M anipulation  |                                                 |
\*---------------------------------------------------------------------------*/
FoamFile
{
    version     2.0;
    format      ascii;
    arch        "LSB;label=32;scalar=64";
    class       surfaceScalarField;
    location    "90";
    object      phi;
}
// * * * * * * * * * * * * * * * * * * * * * * * * * * * * * * * * * * * * * //

dimensions      [0 3 -1 0 0 0 0];

oriented        oriented;

internalField   nonuniform List<scalar> 
1890
(
0.0092501688
0.00074983119
0.0082910045
0.00095916431
0.007362155
0.00092884952
0.0065322493
0.00082990566
0.0058250505
0.0007071988
0.0052477518
0.00057729866
0.0047933609
0.00045439096
0.0044450115
0.00034834933
0.0041822268
0.00026278482
0.0039852749
0.00019695194
0.0038371611
0.00014811392
0.0037244019
0.00011275914
0.003636761
8.7640588e-05
0.003566821
6.993977e-05
0.0035093753
5.7445395e-05
0.0034608577
4.8517686e-05
0.0034188678
4.1990467e-05
0.0033818055
3.7062975e-05
0.0033486046
3.3201436e-05
0.0033185461
3.0058411e-05
0.0032911336
2.7411771e-05
0.0032660116
2.5121046e-05
0.0032429132
2.3097651e-05
0.0032216278
2.1285299e-05
0.0032019812
1.9647192e-05
0.0031838242
1.8158019e-05
0.0031670259
1.6799086e-05
0.0031514706
1.5555619e-05
0.0031370549
1.4415484e-05
0.0031236858
1.3368482e-05
0.0031112792
1.2405922e-05
0.0030997586
1.1520213e-05
0.0030890541
1.0704512e-05
0.0030791018
9.9525376e-06
0.0030698436
9.2584804e-06
0.0030612268
8.6170439e-06
0.0030532035
8.0234528e-06
0.0030457301
7.4734711e-06
0.0030387666
6.963335e-06
0.0030322768
6.4897386e-06
0.003026227
6.0497745e-06
0.0030205861
5.6409547e-06
0.0030153251
5.2612026e-06
0.0030104167
4.9087967e-06
0.0030058348
4.582344e-06
0.0030015549
4.2805169e-06
0.0029975535
4.0019977e-06
0.0029938089
3.7450741e-06
0.0029903017
3.507663e-06
0.002987015
3.2869965e-06
0.0029839353
3.0798576e-06
0.0029810525
2.8825677e-06
0.0029783609
2.6914154e-06
0.0029758576
2.5029144e-06
0.0029735429
2.3142425e-06
0.0029714189
2.1235238e-06
0.0029694883
1.9300808e-06
0.0029677534
1.7344401e-06
0.0029662147
1.5383606e-06
0.00296487
1.3443848e-06
0.0029637139
1.1558554e-06
0.0029627376
9.7600895e-07
0.0029619289
8.0833599e-07
0.0029612732
6.5526315e-07
0.0029607535
5.1921603e-07
0.0029603521
4.0083682e-07
0.0029600504
3.0103913e-07
0.0029598312
2.185046e-07
0.0029596775
1.5299222e-07
0.0029595751
1.0162498e-07
0.0029595106
6.3847606e-08
0.0029594741
3.5774279e-08
0.0029594561
1.748289e-08
0.0029594512
4.3867391e-09
0.0029594528
-1.9707741e-09
0.0029594594
-7.0084242e-09
0.0029594662
-6.9995472e-09
0.0029594747
-8.8099628e-09
0.0029594805
-5.7767668e-09
0.0029594876
-7.2812374e-09
0.0029594903
-2.7275156e-09
0.0029594958
-5.5173325e-09
0.0029594955
2.9450029e-10
0.0029595001
-4.6435614e-09
0.0029594973
2.8614762e-09
0.002959502
-4.7453545e-09
0.0029594969
5.1414256e-09
0.0029595021
-5.3282834e-09
0.0029594948
7.4260038e-09
0.0029594998
-5.172104e-09
0.00295949
9.9586543e-09
0.0029594912
-1.4061261e-09
0.0029594782
1.2864734e-08
0.002959465
1.2314818e-08
0.0029594492
1.5401213e-08
0.0029594031
4.5957888e-08
0.0029594003
3.2394226e-09
0.0029593294
7.171713e-08
0.0029594838
-1.5393467e-07
-1.3291083e-07
0.010379776
0.00037005492
0.010574967
0.00076397368
0.01062758
0.00087623601
0.01056664
0.00089084618
0.010429447
0.00084439178
0.010247193
0.00075955212
0.010042592
0.00065899279
0.009832618
0.00055832291
0.0096291833
0.00046621956
0.0094394518
0.00038668344
0.0092669478
0.00032061798
0.0091125601
0.00026714679
0.008975635
0.00022456561
0.0088546742
0.00019090042
0.0087478443
0.00016427517
0.0086532844
0.00014307755
0.0085692701
0.00012600505
0.0084942842
0.00011204937
0.008427033
0.00010045289
0.008366434
9.0657366e-05
0.0083115895
8.2255814e-05
0.0082617576
7.4952379e-05
0.0082163236
6.8531244e-05
0.0081747754
6.283352e-05
0.0081366825
5.7740392e-05
0.0081016801
5.3161028e-05
0.0080694555
4.9024107e-05
0.0080397391
4.5272172e-05
0.0080122964
4.1858066e-05
0.0079869219
3.8742601e-05
0.0079634345
3.5892909e-05
0.0079416734
3.3281097e-05
0.0079214948
3.0883124e-05
0.0079027695
2.8677972e-05
0.0078853812
2.6647044e-05
0.0078692245
2.4773832e-05
0.0078542044
2.304366e-05
0.0078402343
2.1443555e-05
0.0078272355
1.9962078e-05
0.0078151359
1.8589293e-05
0.007803869
1.7316615e-05
0.0077933732
1.6136799e-05
0.0077835909
1.5043659e-05
0.007774468
1.4031854e-05
0.0077659543
1.3096352e-05
0.0077580031
1.2231938e-05
0.0077505728
1.1432657e-05
0.0077436268
1.0691332e-05
0.0077371352
9.9995168e-06
0.0077310749
9.3474123e-06
0.0077254302
8.7246813e-06
0.0077201918
8.1208292e-06
0.0077153565
7.52665e-06
0.0077109245
6.9346389e-06
0.0077068981
6.3404061e-06
0.0077032787
5.7425152e-06
0.0077000652
5.1432769e-06
0.0076972517
4.54769e-06
0.0076948262
3.9635409e-06
0.0076927707
3.3996014e-06
0.0076910608
2.8655367e-06
0.0076896668
2.3697697e-06
0.0076885549
1.9199446e-06
0.0076876892
1.5207132e-06
0.0076870327
1.1753953e-06
0.0076865497
8.8350112e-07
0.0076862063
6.4400969e-07
0.0076859724
4.5195852e-07
0.0076858213
3.0370064e-07
0.007685731
1.9152423e-07
0.007685683
1.1150362e-07
0.0076856636
5.4803886e-08
0.0076856615
1.9302478e-08
0.0076856698
-4.1880007e-09
0.0076856822
-1.4503263e-08
0.0076856965
-2.1504441e-08
0.0076857091
-1.9665979e-08
0.007685721
-2.0853388e-08
0.0076857293
-1.4037543e-08
0.0076857373
-1.5307034e-08
0.0076857409
-6.363394e-09
0.007685746
-1.0665399e-08
0.0076857461
2.8617293e-10
0.0076857501
-8.6838356e-09
0.0076857472
5.7389497e-09
0.0076857518
-9.3240521e-09
0.0076857459
1.1009715e-08
0.0076857524
-1.1844516e-08
0.0076857423
1.7578788e-08
0.0076857518
-1.4709409e-08
0.0076857343
2.7508087e-08
0.0076857468
-1.3929507e-08
0.0076857149
4.4588162e-08
0.0076857253
1.6351703e-09
0.0076856627
7.7689422e-08
0.0076856481
6.0524506e-08
0.0076855052
1.4660824e-07
0.0076853574
2.1986924e-07
0.0076849148
2.887442e-07
5.3007089e-07
0.010194547
0.00017550777
0.010510297
0.00044822425
0.010823883
0.00056264936
0.011103868
0.00061086184
0.011333741
0.0006145186
0.011509103
0.00058418988
0.011633657
0.0005344385
0.011714988
0.00047699172
0.011761891
0.0004193175
0.011782797
0.00036577674
0.011784951
0.00031846408
0.011774171
0.00027792662
0.011754924
0.00024381237
0.011730492
0.00021533306
0.011703199
0.00019156788
0.011674643
0.00017163344
0.011645887
0.00015476133
0.011617615
0.00014032177
0.01159025
0.00012781808
0.01156404
0.00011686783
0.011539115
0.00010718025
0.011515532
9.8534982e-05
0.011493298
9.0764377e-05
0.011472392
8.3739731e-05
0.011452772
7.7360689e-05
0.011434386
7.1547347e-05
0.011417176
6.6234446e-05
0.011401081
6.1367446e-05
0.011386039
5.6900008e-05
0.011371989
5.2792358e-05
0.011358871
4.9010139e-05
0.011346629
4.5523384e-05
0.011335206
4.230566e-05
0.011324551
3.9333357e-05
0.011314613
3.6585198e-05
0.011305345
3.4041949e-05
0.011296703
3.1686241e-05
0.011288644
2.9502494e-05
0.011281129
2.7476868e-05
0.011274121
2.5597221e-05
0.011267584
2.3853032e-05
0.011261486
2.2235211e-05
0.011255794
2.0735762e-05
0.011250479
1.9347233e-05
0.011245513
1.8062084e-05
0.011240873
1.6871921e-05
0.011236539
1.5766981e-05
0.011232495
1.4735726e-05
0.011228729
1.3765043e-05
0.011225236
1.284067e-05
0.011222012
1.1948308e-05
0.011219059
1.1074701e-05
0.011216376
1.0209127e-05
0.011213966
9.3443518e-06
0.011211829
8.477629e-06
0.01120996
7.610704e-06
0.011208354
6.7498391e-06
0.011206997
5.9045778e-06
0.011205873
5.0870639e-06
0.011204963
4.3099347e-06
0.011204242
3.5857788e-06
0.011203687
2.9247605e-06
0.011203272
2.3351183e-06
0.011202972
1.8208211e-06
0.011202764
1.3836821e-06
0.011202626
1.0207721e-06
0.011202542
7.2839585e-07
0.011202495
4.9844608e-07
0.011202474
3.2447111e-07
0.01120247
1.9579272e-07
0.011202475
1.0628528e-07
0.011202485
4.4764923e-08
0.011202496
7.8447193e-09
0.011202507
-1.540251e-08
0.011202517
-2.4080806e-08
0.011202524
-2.9515991e-08
0.01120253
-2.543579e-08
0.011202535
-2.5458802e-08
0.011202537
-1.6567721e-08
0.01120254
-1.7724789e-08
0.01120254
-6.6938627e-09
0.011202542
-1.22732e-08
0.011202541
1.5188911e-09
0.011202543
-1.0701257e-08
0.01120254
8.6048764e-09
0.011202543
-1.2995181e-08
0.011202538
1.6456436e-08
0.011202545
-1.8857406e-08
0.011202535
2.7757463e-08
0.011202548
-2.7725673e-08
0.011202529
4.6448251e-08
0.011202552
-3.6907486e-08
0.011202517
7.9660466e-08
0.011202553
-3.470235e-08
0.011202486
1.4441749e-07
0.011202523
2.3634972e-08
0.011202375
2.9550055e-07
0.011202289
3.0534295e-07
0.011201842
7.360971e-07
1.3233482e-06
0.010101125
7.4383134e-05
0.010347883
0.00020146599
0.010645913
0.00026461962
0.010960847
0.00029592755
0.011269219
0.00030614635
0.011554366
0.00029904322
0.011807917
0.00028088739
0.012027601
0.00025730764
0.012214837
0.00023208139
0.012373018
0.00020759575
0.012506297
0.00018518558
0.012618823
0.00016540055
0.012714342
0.00014829318
0.012796031
0.0001336439
0.012866483
0.00012111607
0.012927764
0.00011035165
0.012981504
0.00010102176
0.013028978
9.2848219e-05
0.013071189
8.5607658e-05
0.01310893
7.9126689e-05
0.013142836
7.3273281e-05
0.013173423
6.7947677e-05
0.013201113
6.3074422e-05
0.013226257
5.8595891e-05
0.01324915
5.4467303e-05
0.013270045
5.0652901e-05
0.013289157
4.7123165e-05
0.013306671
4.3852971e-05
0.013322751
4.0820449e-05
0.013337537
3.8006341e-05
0.013351153
3.5393548e-05
0.013363709
3.2966739e-05
0.013375303
3.0712005e-05
0.01338602
2.8616557e-05
0.013395937
2.6668553e-05
0.013405122
2.4857001e-05
0.013413636
2.3171761e-05
0.013421535
2.1603568e-05
0.013428868
2.0144082e-05
0.013435679
1.8785914e-05
0.01344201
1.7522583e-05
0.013447896
1.6348384e-05
0.013453374
1.5258099e-05
0.013458475
1.4246607e-05
0.013463229
1.3308367e-05
0.013467664
1.2436987e-05
0.013471806
1.1624834e-05
0.013475679
1.0862981e-05
0.013479302
1.0141414e-05
0.013482693
9.4495664e-06
0.013485865
8.7772134e-06
0.013488824
8.1153076e-06
0.013491576
7.4571188e-06
0.013494122
6.7987067e-06
0.013496459
6.1396984e-06
0.013498587
5.4828686e-06
0.013500503
4.8342455e-06
0.013502206
4.2017836e-06
0.013503698
3.5950165e-06
0.013504984
3.0232764e-06
0.013506075
2.4954604e-06
0.013506981
2.0183223e-06
0.013507719
1.5969009e-06
0.013508307
1.2330837e-06
0.013508764
9.2701981e-07
0.013509109
6.7568446e-07
0.013509362
4.7540788e-07
0.013509541
3.1978788e-07
0.013509662
2.0351734e-07
0.013509739
1.1876703e-07
0.013509784
6.0800662e-08
0.013509807
2.1756683e-08
0.013509816
-9.1713653e-10
0.013509815
-1.471926e-08
0.01350981
-1.9034648e-08
0.013509802
-2.1624125e-08
0.013509795
-1.7968225e-08
0.013509787
-1.7605375e-08
0.013509781
-1.103879e-08
0.013509776
-1.2009591e-08
0.013509773
-3.9527679e-09
0.013509769
-8.5046618e-09
0.013509769
1.9257157e-09
0.013509766
-8.024563e-09
0.013509768
7.3108109e-09
0.013509765
-1.0654439e-08
0.013509768
1.3846484e-08
0.013509766
-1.6529018e-08
0.013509769
2.3830007e-08
0.013509768
-2.5857621e-08
0.013509774
4.0584328e-08
0.013509774
-3.754898e-08
0.013509784
6.9737453e-08
0.013509793
-4.3553454e-08
0.013509813
1.2423572e-07
0.013509843
-6.8024934e-09
0.013509889
2.4988589e-07
0.013509966
2.295888e-07
0.01351006
6.4174702e-07
1.1871327e-06
0.010074383
-8.7171421e-13
0.010275849
-8.4275768e-13
0.010540469
-1.1594505e-12
0.010836396
-1.9189512e-12
0.011142543
-2.622791e-12
0.011441586
-2.7275241e-12
0.011722473
-1.1757294e-12
0.011979781
2.1128868e-12
0.012211862
6.6397341e-12
0.012419458
1.2031569e-11
0.012604644
1.3511098e-11
0.012770044
1.0462616e-11
0.012918337
-3.5371156e-13
0.013051981
-1.6729118e-11
0.013173097
-2.7587176e-11
0.013283449
-2.9597959e-11
0.013384471
-1.2514222e-11
0.013477319
1.5692543e-11
0.013562927
3.991442e-11
0.013642054
5.3868194e-11
0.013715327
4.318962e-11
0.013783274
2.323607e-11
0.013846348
3.5238823e-12
0.013904944
-6.6225195e-12
0.013959411
2.0837468e-12
0.014010065
1.6537007e-11
0.014057188
3.5388183e-11
0.014101041
5.0412216e-11
0.014141861
5.960518e-11
0.014179867
6.7935911e-11
0.014215261
7.2521347e-11
0.014248227
7.7350805e-11
0.014278939
7.9070082e-11
0.014307556
7.8604278e-11
0.014334224
7.6761379e-11
0.014359081
7.5591999e-11
0.014382253
7.7944239e-11
0.014403857
8.2910243e-11
0.014424
9.2947466e-11
0.014442786
9.87761e-11
0.014460309
1.0604458e-10
0.014476657
9.5797463e-11
0.014491915
8.1596369e-11
0.014506161
3.62036e-11
0.01451947
-1.765267e-11
0.014531907
-1.0585479e-10
0.014543532
-2.0226135e-10
0.014554395
-3.2104236e-10
0.014564537
-4.4469587e-10
0.014573987
-5.6807135e-10
0.014582765
-6.9244136e-10
0.014590882
-7.8965657e-10
0.01459834
-8.8461135e-10
0.014605139
-9.3467242e-10
0.01461128
-9.8509897e-10
0.014616764
-9.8901245e-10
0.014621599
-9.9858776e-10
0.014625802
-9.7282911e-10
0.014629398
-9.5860542e-10
0.014632422
-9.2842003e-10
0.014634919
-9.1263116e-10
0.014636938
-8.9560027e-10
0.014638536
-8.8958094e-10
0.01463977
-8.8900468e-10
0.014640698
-8.9269098e-10
0.014641375
-8.9871737e-10
0.014641851
-9.012379e-10
0.014642172
-8.9805183e-10
0.014642376
-8.8701914e-10
0.014642496
-8.6196089e-10
0.014642558
-8.2997193e-10
0.01464258
-7.7935927e-10
0.01464258
-7.2751415e-10
0.014642566
-6.5611142e-10
0.014642548
-5.9204538e-10
0.014642527
-5.1097043e-10
0.014642509
-4.4605461e-10
0.014642492
-3.6668278e-10
0.014642482
-3.1071689e-10
0.01464247
-2.4280343e-10
0.014642466
-2.0353019e-10
0.014642458
-1.5246138e-10
0.01464246
-1.3339048e-10
0.014642452
-1.0197154e-10
0.01464246
-1.0433562e-10
0.014642449
-8.8967806e-11
0.014642463
-1.0635872e-10
0.014642447
-9.4292079e-11
0.014642471
-1.1351733e-10
0.014642445
-8.5888505e-11
0.014642485
-9.7671948e-11
0.014642448
-4.4599648e-11
0.014642518
-4.6463897e-11
0.014642474
3.894226e-11
0.014642598
4.3836878e-11
0.014642591
9.7705691e-11
0.014642841
1.145069e-10
0.014643071
2.7248983e-11
0.014643713
-1.2353351e-11
-3.5625276e-11
0.010074383
-7.4383135e-05
0.010275849
-0.00020146599
0.010540469
-0.00026461963
0.010836396
-0.00029592755
0.011142543
-0.00030614635
0.011441586
-0.00029904323
0.011722473
-0.00028088739
0.011979781
-0.00025730763
0.012211862
-0.00023208138
0.012419458
-0.00020759573
0.012604644
-0.00018518555
0.012770044
-0.00016540053
0.012918337
-0.00014829318
0.013051981
-0.00013364393
0.013173097
-0.00012111612
0.013283449
-0.0001103517
0.013384471
-0.00010102178
0.013477319
-9.2848192e-05
0.013562927
-8.5607591e-05
0.013642054
-7.9126603e-05
0.013715327
-7.3273207e-05
0.013783274
-6.7947628e-05
0.013846348
-6.3074402e-05
0.013904944
-5.8595885e-05
0.013959411
-5.4467293e-05
0.014010065
-5.0652875e-05
0.014057188
-4.712311e-05
0.014101041
-4.3852888e-05
0.014141861
-4.0820336e-05
0.014179867
-3.8006204e-05
0.014215261
-3.5393395e-05
0.014248227
-3.2966578e-05
0.014278939
-3.0711846e-05
0.014307556
-2.8616401e-05
0.014334224
-2.6668401e-05
0.014359081
-2.4856847e-05
0.014382253
-2.3171597e-05
0.014403857
-2.1603385e-05
0.014424
-2.0143878e-05
0.014442786
-1.878569e-05
0.014460308
-1.7522352e-05
0.014476656
-1.6348167e-05
0.014491914
-1.5257922e-05
0.014506161
-1.4246512e-05
0.014519469
-1.3308387e-05
0.014531906
-1.243717e-05
0.014543531
-1.1625204e-05
0.014554395
-1.0863575e-05
0.014564536
-1.0142232e-05
0.014573987
-9.4506195e-06
0.014582765
-8.7784795e-06
0.014590881
-8.1167656e-06
0.014598339
-7.4587286e-06
0.014605138
-6.8004283e-06
0.014611279
-6.1414928e-06
0.014616763
-5.4846964e-06
0.014621598
-4.8360808e-06
0.014625801
-4.2036009e-06
0.014629397
-3.5968107e-06
0.014632421
-3.0250422e-06
0.014634918
-2.4972091e-06
0.014636937
-2.0200592e-06
0.014638535
-1.5986414e-06
0.014639769
-1.2348322e-06
0.014640697
-9.2878634e-07
0.014641374
-6.7746143e-07
0.01464185
-4.7719356e-07
0.014642171
-3.2156078e-07
0.014642376
-2.0526669e-07
0.014642495
-1.2046129e-07
0.014642557
-6.2426576e-08
0.01464258
-2.3281981e-08
0.01464258
-4.9923596e-10
0.014642566
1.3438179e-08
0.014642547
1.7887466e-08
0.014642526
2.0625648e-08
0.014642509
1.7106769e-08
0.014642492
1.6885054e-08
0.014642481
1.0440221e-08
0.01464247
1.1526611e-08
0.014642466
3.5624533e-09
0.014642458
8.1940891e-09
0.01464246
-2.1786063e-09
0.014642452
7.8091808e-09
0.014642459
-7.5038142e-09
0.014642449
1.0460786e-08
0.014642463
-1.4038219e-08
0.014642446
1.6318286e-08
0.01464247
-2.4028904e-08
0.014642445
2.5652026e-08
0.014642485
-4.0740528e-08
0.014642448
3.7409651e-08
0.014642518
-6.9777762e-08
0.014642474
4.3529993e-08
0.014642598
-1.2412624e-07
0.014642591
6.9250575e-09
0.014642841
-2.4980942e-07
0.014643071
-2.2956435e-07
0.014643713
-6.4182661e-07
-1.1872548e-06
0.010101125
-0.00017550777
0.010347883
-0.00044822425
0.010645913
-0.00056264936
0.010960847
-0.00061086184
0.011269219
-0.00061451861
0.011554366
-0.00058418988
0.011807917
-0.0005344385
0.012027601
-0.00047699172
0.012214837
-0.00041931748
0.012373018
-0.00036577672
0.012506297
-0.00031846406
0.012618823
-0.0002779266
0.012714342
-0.00024381237
0.012796031
-0.00021533307
0.012866483
-0.00019156792
0.012927764
-0.00017163349
0.012981504
-0.00015476137
0.013028978
-0.00014032178
0.013071189
-0.00012781804
0.01310893
-0.00011686776
0.013142836
-0.00010718017
0.013173423
-9.8534915e-05
0.013201113
-9.0764344e-05
0.013226257
-8.3739723e-05
0.013249151
-7.7360694e-05
0.013270045
-7.1547334e-05
0.013289157
-6.6234405e-05
0.013306672
-6.1367371e-05
0.013322751
-5.6899903e-05
0.013337537
-5.2792238e-05
0.013351153
-4.9010007e-05
0.01336371
-4.5523249e-05
0.013375303
-4.2305521e-05
0.01338602
-3.933321e-05
0.013395937
-3.658504e-05
0.013405122
-3.4041771e-05
0.013413637
-3.1686039e-05
0.013421535
-2.9502263e-05
0.013428868
-2.7476611e-05
0.013435679
-2.5596942e-05
0.013442009
-2.3852753e-05
0.013447896
-2.2234944e-05
0.013453373
-2.0735548e-05
0.013458474
-1.9347089e-05
0.013463227
-1.806206e-05
0.013467662
-1.6872029e-05
0.013471804
-1.5767263e-05
0.013475677
-1.4736178e-05
0.0134793
-1.3765681e-05
0.013482691
-1.2841481e-05
0.013485862
-1.1949279e-05
0.013488822
-1.1075812e-05
0.013491573
-1.0210347e-05
0.013494119
-9.3456679e-06
0.013496457
-8.479003e-06
0.013498585
-7.6121407e-06
0.0135005
-6.7513016e-06
0.013502203
-5.9060892e-06
0.013503695
-5.0885905e-06
0.013504982
-4.3115142e-06
0.013506072
-3.5873742e-06
0.013506979
-2.9264168e-06
0.013507717
-2.336787e-06
0.013508305
-1.8225497e-06
0.013508762
-1.3854045e-06
0.013509107
-1.0225371e-06
0.01350936
-7.3011945e-07
0.013509539
-5.0018093e-07
0.01350966
-3.2611933e-07
0.013509737
-1.9741462e-07
0.013509782
-1.0777654e-07
0.013509805
-4.6197215e-08
0.013509814
-9.1133377e-09
0.013509814
1.421342e-08
0.013509809
2.307081e-08
0.013509801
2.8589353e-08
0.013509794
2.4685904e-08
0.013509786
2.4781512e-08
0.013509781
1.6049486e-08
0.013509775
1.7256676e-08
0.013509772
6.3573851e-09
0.013509769
1.1958268e-08
0.013509768
-1.7363463e-09
0.013509766
1.0473512e-08
0.013509767
-8.7699672e-09
0.013509765
1.2791965e-08
0.013509768
-1.6621684e-08
0.013509765
1.8642755e-08
0.013509769
-2.7930088e-08
0.013509767
2.7520893e-08
0.013509773
-4.6577566e-08
0.013509774
3.6778702e-08
0.013509784
-7.9695746e-08
0.013509793
3.4675321e-08
0.013509813
-1.4442487e-07
0.013509843
-2.3697662e-08
0.013509889
-2.956263e-07
0.013509965
-3.0556552e-07
0.01351006
-7.3629344e-07
-1.3235467e-06
0.010194547
-0.00037005493
0.010510297
-0.00076397368
0.010823883
-0.00087623602
0.011103868
-0.00089084618
0.011333741
-0.00084439178
0.011509103
-0.00075955213
0.011633657
-0.00065899279
0.011714988
-0.00055832291
0.011761891
-0.00046621955
0.011782797
-0.00038668343
0.011784951
-0.00032061796
0.011774171
-0.00026714678
0.011754924
-0.0002245656
0.011730492
-0.00019090043
0.011703199
-0.0001642752
0.011674643
-0.0001430776
0.011645887
-0.00012600509
0.011617615
-0.00011204938
0.01159025
-0.00010045286
0.01156404
-9.0657314e-05
0.011539115
-8.2255752e-05
0.011515532
-7.4952343e-05
0.011493298
-6.8531246e-05
0.011472392
-6.2833534e-05
0.011452772
-5.7740403e-05
0.011434386
-5.3160999e-05
0.011417176
-4.9024039e-05
0.011401081
-4.5272083e-05
0.011386039
-4.1857975e-05
0.011371989
-3.8742532e-05
0.011358872
-3.5892857e-05
0.011346629
-3.3281051e-05
0.011335207
-3.0883061e-05
0.011324551
-2.867787e-05
0.011314613
-2.6646897e-05
0.011305345
-2.4773634e-05
0.011296703
-2.3043422e-05
0.011288644
-2.1443275e-05
0.011281129
-1.9961779e-05
0.011274121
-1.8588966e-05
0.011267584
-1.7316299e-05
0.011261485
-1.6136482e-05
0.011255793
-1.5043398e-05
0.011250477
-1.403164e-05
0.011245511
-1.3096237e-05
0.011240871
-1.2231927e-05
0.011236536
-1.1432762e-05
0.011232492
-1.0691585e-05
0.011228726
-9.9998642e-06
0.011225233
-9.3479217e-06
0.011222009
-8.7252399e-06
0.011219055
-8.1215423e-06
0.011216373
-7.5273744e-06
0.011213963
-6.9354995e-06
0.011211825
-6.3412685e-06
0.011209957
-5.7434928e-06
0.01120835
-5.1442808e-06
0.011206993
-4.5487897e-06
0.01120587
-3.964708e-06
0.011204959
-3.4008398e-06
0.011204239
-2.8668749e-06
0.011203684
-2.3711468e-06
0.011203269
-1.9214309e-06
0.011202969
-1.5221969e-06
0.01120276
-1.176967e-06
0.011202623
-8.8502485e-07
0.011202539
-6.4558144e-07
0.011202492
-4.5343986e-07
0.011202471
-3.051818e-07
0.011202467
-1.928823e-07
0.011202472
-1.1282065e-07
0.011202482
-5.5978032e-08
0.011202494
-2.0407253e-08
0.011202505
3.2313678e-09
0.011202515
1.3626732e-08
0.011202523
2.0769777e-08
0.011202529
1.9009173e-08
0.011202534
2.0322367e-08
0.011202536
1.3570146e-08
0.011202539
1.4944326e-08
0.011202539
6.0449769e-09
0.011202541
1.0426716e-08
0.01120254
-5.0566707e-10
0.011202542
8.5188749e-09
0.011202539
-5.9100857e-09
0.011202543
9.1836368e-09
0.011202537
-1.117653e-08
0.011202545
1.1697587e-08
0.011202534
-1.7750961e-08
0.011202548
1.4570866e-08
0.011202529
-2.7644289e-08
0.011202552
1.387365e-08
0.011202517
-4.463835e-08
0.011202553
-1.6170031e-09
0.011202486
-7.7847397e-08
0.011202523
-6.0760574e-08
0.011202374
-1.4691848e-07
0.011202289
-2.2009503e-07
0.011201842
-2.8896065e-07
-5.3019784e-07
0.010379776
-0.00074983119
0.010574967
-0.00095916432
0.01062758
-0.00092884952
0.01056664
-0.00082990566
0.010429447
-0.00070719881
0.010247193
-0.00057729866
0.010042592
-0.00045439096
0.009832618
-0.00034834933
0.0096291833
-0.00026278481
0.0094394518
-0.00019695192
0.0092669478
-0.0001481139
0.0091125601
-0.00011275914
0.0089756349
-8.7640612e-05
0.0088546741
-6.9939815e-05
0.0087478443
-5.7445431e-05
0.0086532845
-4.8517684e-05
0.0085692703
-4.1990408e-05
0.0084942843
-3.7062875e-05
0.0084270331
-3.3201355e-05
0.008366434
-3.0058402e-05
0.0083115895
-2.7411876e-05
0.0082617575
-2.5121226e-05
0.0082163236
-2.309782e-05
0.0081747753
-2.1285368e-05
0.0081366826
-1.9647098e-05
0.0081016802
-1.8157805e-05
0.0080694557
-1.6798835e-05
0.0080397394
-1.555544e-05
0.0080122967
-1.441545e-05
0.0079869222
-1.3368579e-05
0.0079634349
-1.2406098e-05
0.0079416739
-1.1520373e-05
0.0079214953
-1.0704591e-05
0.0079027701
-9.9525026e-06
0.0078853818
-9.2583461e-06
0.0078692252
-8.6168424e-06
0.007854205
-8.0232285e-06
0.0078402349
-7.4732438e-06
0.0078272359
-6.9631152e-06
0.0078151361
-6.489524e-06
0.0078038689
-6.0495436e-06
0.0077933727
-5.6407285e-06
0.00778359
-5.2609442e-06
0.0077744667
-4.9085644e-06
0.0077659525
-4.5820948e-06
0.0077580011
-4.2803272e-06
0.0077505704
-4.0018398e-06
0.0077436243
-3.7449982e-06
0.0077371325
-3.5076725e-06
0.0077310721
-3.287075e-06
0.0077254273
-3.0800608e-06
0.007720189
-2.8828079e-06
0.0077153535
-2.6917968e-06
0.0077109215
-2.5032947e-06
0.0077068949
-2.3147458e-06
0.0077032755
-2.1240033e-06
0.0077000619
-1.9306521e-06
0.0076972482
-1.7350001e-06
0.0076948226
-1.5389783e-06
0.0076927671
-1.3450262e-06
0.0076910571
-1.1565278e-06
0.0076896631
-9.7674996e-07
0.0076885513
-8.0908829e-07
0.0076876855
-6.5611162e-07
0.0076870292
-5.2005289e-07
0.0076865463
-4.0176879e-07
0.0076862032
-3.0193172e-07
0.0076859694
-2.1946427e-07
0.0076858186
-1.538813e-07
0.0076857285
-1.025398e-07
0.0076856807
-6.4664511e-08
0.0076856615
-3.6577797e-08
0.0076856596
-1.8172301e-08
0.0076856681
-5.0379211e-09
0.0076856806
1.4370683e-09
0.0076856951
6.5217404e-09
0.0076857078
6.6216062e-09
0.0076857199
8.4727111e-09
0.0076857282
5.5329473e-09
0.0076857363
7.0638729e-09
0.00768574
2.5855762e-09
0.0076857452
5.382116e-09
0.0076857453
-3.6922159e-10
0.0076857493
4.5557894e-09
0.0076857465
-2.8998843e-09
0.0076857511
4.6750674e-09
0.0076857453
-5.1712282e-09
0.0076857519
5.2510404e-09
0.0076857419
-7.4686412e-09
0.0076857516
5.079476e-09
0.0076857342
-9.9914333e-09
0.0076857469
1.3152703e-09
0.007685715
-1.2913793e-08
0.0076857252
-1.2583299e-08
0.0076856623
-1.5638375e-08
0.0076856474
-4.6225617e-08
0.0076855044
-3.3135861e-09
0.0076853568
-7.1566181e-08
0.0076849146
1.5413909e-07
1.3294429e-07
0.0092501688
0.0082910045
0.007362155
0.0065322493
0.0058250505
0.0052477518
0.0047933609
0.0044450116
0.0041822268
0.0039852749
0.0038371609
0.0037244017
0.0036367609
0.003566821
0.0035093756
0.0034608582
0.0034188683
0.0033818057
0.0033486044
0.0033185456
0.003291133
0.0032660112
0.0032429132
0.0032216281
0.0032019816
0.0031838245
0.003167026
0.0031514706
0.0031370548
0.0031236858
0.0031112793
0.0030997588
0.0030890542
0.0030791019
0.0030698437
0.003061227
0.0030532037
0.0030457303
0.0030387669
0.003032277
0.0030262271
0.0030205861
0.003015325
0.0030104165
0.0030058345
0.0030015544
0.0029975529
0.0029938083
0.002990301
0.0029870142
0.0029839345
0.0029810517
0.00297836
0.0029758566
0.0029735419
0.0029714178
0.0029694871
0.0029677522
0.0029662134
0.0029648686
0.0029637124
0.002962736
0.0029619273
0.0029612716
0.0029607519
0.0029603505
0.0029600489
0.0029598297
0.002959676
0.0029595737
0.0029595092
0.0029594728
0.0029594548
0.00295945
0.0029594516
0.0029594583
0.0029594651
0.0029594738
0.0029594795
0.0029594868
0.0029594895
0.002959495
0.0029594948
0.0029594994
0.0029594966
0.0029595015
0.0029594964
0.0029595019
0.0029594946
0.0029594999
0.00295949
0.0029594912
0.0029594777
0.0029594645
0.0029594484
0.0029594025
0.0029594
0.0029593293
0.0029594838
)
;

boundaryField
{
    top
    {
        type            calculated;
        value           uniform 0;
    }
    inlet
    {
        type            calculated;
        value           nonuniform List<scalar> 10(-0.01 -0.01 -0.01 -0.01 -0.01 -0.01 -0.01 -0.01 -0.01 -0.01);
    }
    outlet
    {
        type            calculated;
        value           nonuniform List<scalar> 10(0.0029596167 0.0076842519 0.011201049 0.013510196 0.0146449 0.0146449 0.013510196 0.011201049 0.0076842517 0.0029596167);
    }
    bottom
    {
        type            calculated;
        value           uniform 0;
    }
    back
    {
        type            empty;
        value           nonuniform List<scalar> 0();
    }
    front
    {
        type            empty;
        value           nonuniform List<scalar> 0();
    }
}


// ************************************************************************* //
