/*--------------------------------*- C++ -*----------------------------------*\
| =========                 |                                                 |
| \\      /  F ield         | OpenFOAM: The Open Source CFD Toolbox           |
|  \\    /   O peration     | Version:  2112                                  |
|   \\  /    A nd           | Website:  www.openfoam.com                      |
|    \\/     M anipulation  |                                                 |
\*---------------------------------------------------------------------------*/
FoamFile
{
    version     2.0;
    format      ascii;
    arch        "LSB;label=32;scalar=64";
    class       volVectorField;
    location    "90";
    object      U;
}
// * * * * * * * * * * * * * * * * * * * * * * * * * * * * * * * * * * * * * //

dimensions      [0 1 -1 0 0 0 0];

internalField   nonuniform List<vector> 
1000
(
(0.92241905 0.034487138 0)
(0.87132478 0.058494328 0)
(0.78815633 0.05621487 0)
(0.69388547 0.045746924 0)
(0.61395329 0.03451106 0)
(0.55015832 0.024456415 0)
(0.49940111 0.016279986 0)
(0.45984778 0.010228164 0)
(0.42978245 0.0061010083 0)
(0.4072318 0.0034637565 0)
(0.39031208 0.0018585198 0)
(0.3774959 0.00095337161 0)
(0.36763739 0.00049218733 0)
(0.35987522 0.00029070921 0)
(0.3535886 0.00022860802 0)
(0.34834765 0.0002328716 0)
(0.34386158 0.00026207003 0)
(0.33993602 0.00029463623 0)
(0.33644167 0.00032079335 0)
(0.33329202 0.00033726197 0)
(0.33042816 0.00034403811 0)
(0.32780869 0.00034259512 0)
(0.32540329 0.00033494923 0)
(0.32318862 0.00032315161 0)
(0.32114582 0.00030895924 0)
(0.31925892 0.00029364491 0)
(0.31751407 0.00027796198 0)
(0.31589897 0.00026226517 0)
(0.31440267 0.00024671282 0)
(0.3130154 0.00023143599 0)
(0.31172833 0.00021661481 0)
(0.31053351 0.00020245699 0)
(0.30942366 0.00018913333 0)
(0.30839213 0.00017672855 0)
(0.30743283 0.00016523164 0)
(0.30654022 0.00015456564 0)
(0.30570925 0.00014462816 0)
(0.30493535 0.00013532588 0)
(0.30421435 0.00012658841 0)
(0.30354248 0.00011836898 0)
(0.30291626 0.0001106358 0)
(0.30233249 0.0001033651 0)
(0.30178816 9.6539288e-05 0)
(0.30128044 9.0145534e-05 0)
(0.30080661 8.4182779e-05 0)
(0.30036408 7.8656333e-05 0)
(0.29995036 7.3583278e-05 0)
(0.2995631 6.8977286e-05 0)
(0.29920019 6.4848295e-05 0)
(0.29885977 6.1184377e-05 0)
(0.29854035 5.7950946e-05 0)
(0.29824085 5.5082696e-05 0)
(0.29796059 5.2488033e-05 0)
(0.29769932 5.0056061e-05 0)
(0.29745712 4.7667002e-05 0)
(0.29723429 4.5207898e-05 0)
(0.29703124 4.2585675e-05 0)
(0.29684832 3.9736957e-05 0)
(0.29668573 3.6640478e-05 0)
(0.29654335 3.3307208e-05 0)
(0.29642073 2.9795625e-05 0)
(0.29631704 2.6175488e-05 0)
(0.29623105 2.2556164e-05 0)
(0.29616128 1.9022748e-05 0)
(0.29610594 1.5691789e-05 0)
(0.2960632 1.261804e-05 0)
(0.29603106 9.8929774e-06 0)
(0.29600772 7.5134132e-06 0)
(0.29599135 5.5390612e-06 0)
(0.29598048 3.9027693e-06 0)
(0.29597361 2.649518e-06 0)
(0.29596977 1.654802e-06 0)
(0.29596784 9.7995291e-07 0)
(0.29596737 4.4827914e-07 0)
(0.2959675 1.7295096e-07 0)
(0.29596827 -8.1815147e-08 0)
(0.29596893 -1.1416293e-07 0)
(0.29596993 -2.4382353e-07 0)
(0.29597044 -1.3955769e-07 0)
(0.29597132 -2.4951664e-07 0)
(0.29597147 -6.2250354e-08 0)
(0.29597221 -2.1851456e-07 0)
(0.295972 3.9303537e-08 0)
(0.2959727 -2.0335895e-07 0)
(0.29597218 1.3743587e-07 0)
(0.29597292 -2.142489e-07 0)
(0.29597216 2.2821148e-07 0)
(0.29597295 -2.315336e-07 0)
(0.29597204 3.124143e-07 0)
(0.29597266 -1.9424889e-07 0)
(0.29597188 3.851945e-07 0)
(0.29597162 4.209269e-08 0)
(0.29597158 4.1331639e-07 0)
(0.29596862 7.6733957e-07 0)
(0.2959706 2.2525308e-07 0)
(0.29596134 2.2839569e-06 0)
(0.29596844 -1.5852475e-06 0)
(0.2959498 1.7314755e-06 0)
(0.29597029 -1.5402624e-05 0)
(0.29597466 -1.8701044e-05 0)
(1.003271 0.054817095 0)
(1.0472129 0.10100035 0)
(1.066112 0.11153423 0)
(1.0625934 0.10907373 0)
(1.0508094 0.099917527 0)
(1.0345 0.087034603 0)
(1.014893 0.0729258 0)
(0.99382461 0.05936706 0)
(0.97290665 0.047360875 0)
(0.95311343 0.037329023 0)
(0.93493756 0.029286344 0)
(0.91857687 0.02304953 0)
(0.90402629 0.018325324 0)
(0.89116437 0.014797174 0)
(0.87981415 0.012176639 0)
(0.86978451 0.010224409 0)
(0.86089287 0.0087538965 0)
(0.85297569 0.0076261026 0)
(0.84589201 0.0067409345 0)
(0.8395232 0.006028032 0)
(0.8337707 0.0054387292 0)
(0.82855315 0.0049397502 0)
(0.82380339 0.0045085827 0)
(0.81946574 0.0041301316 0)
(0.81549354 0.0037942233 0)
(0.81184731 0.0034937422 0)
(0.8084933 0.0032233347 0)
(0.80540248 0.0029786678 0)
(0.80254978 0.0027561351 0)
(0.79991339 0.0025527965 0)
(0.79747421 0.0023663571 0)
(0.79521533 0.0021950685 0)
(0.79312162 0.0020375583 0)
(0.79117946 0.0018926558 0)
(0.78937656 0.0017592692 0)
(0.78770183 0.0016363448 0)
(0.78614525 0.0015228743 0)
(0.78469774 0.0014179334 0)
(0.7833511 0.0013207043 0)
(0.78209783 0.0012304939 0)
(0.78093105 0.0011467246 0)
(0.77984439 0.0010689299 0)
(0.77883191 0.00099673245 0)
(0.77788801 0.00092982596 0)
(0.77700745 0.00086794655 0)
(0.77618534 0.00081083033 0)
(0.77541718 0.00075818344 0)
(0.774699 0.00070962584 0)
(0.77402743 0.00066468745 0)
(0.77339979 0.00062277238 0)
(0.77281415 0.0005832099 0)
(0.77226934 0.00054526245 0)
(0.77176482 0.00050822573 0)
(0.77130058 0.0004714631 0)
(0.7708769 0.00043451239 0)
(0.77049412 0.00039710069 0)
(0.77015236 0.00035921259 0)
(0.76985138 0.00032104605 0)
(0.76959028 0.00028302954 0)
(0.76936762 0.00024571056 0)
(0.76918114 0.00020975463 0)
(0.76902813 0.00017578502 0)
(0.76890519 0.00014442204 0)
(0.76880884 0.00011609188 0)
(0.76873516 9.1162391e-05 0)
(0.76868059 6.9712594e-05 0)
(0.76864136 5.1806112e-05 0)
(0.76861449 3.7176444e-05 0)
(0.76859675 2.5672699e-05 0)
(0.76858613 1.678173e-05 0)
(0.76858011 1.0298649e-05 0)
(0.76857773 5.5770417e-06 0)
(0.768577 2.5195974e-06 0)
(0.768578 4.0995763e-07 0)
(0.76857894 -6.1400726e-07 0)
(0.76858086 -1.3528474e-06 0)
(0.76858177 -1.3352462e-06 0)
(0.76858366 -1.5378326e-06 0)
(0.76858391 -1.0580073e-06 0)
(0.76858562 -1.2085123e-06 0)
(0.76858508 -5.2176821e-07 0)
(0.76858679 -8.7029287e-07 0)
(0.7685855 -2.0998267e-08 0)
(0.76858746 -6.9554122e-07 0)
(0.76858547 3.8874062e-07 0)
(0.76858783 -6.9054303e-07 0)
(0.76858527 7.5137487e-07 0)
(0.76858789 -7.7734046e-07 0)
(0.7685852 1.1399514e-06 0)
(0.76858729 -7.776285e-07 0)
(0.76858567 1.6476022e-06 0)
(0.76858503 -2.6394253e-07 0)
(0.76858734 2.4503758e-06 0)
(0.76857854 1.7998651e-06 0)
(0.76859089 3.9692336e-06 0)
(0.76856156 7.5189252e-06 0)
(0.76859552 6.6458511e-06 0)
(0.76851713 1.7621913e-05 0)
(0.76859554 5.9979947e-06 0)
(0.76842618 1.007713e-05 0)
(1.0001503 0.028832875 0)
(1.0314833 0.059420851 0)
(1.0675718 0.071130968 0)
(1.0976325 0.075530464 0)
(1.122939 0.074771643 0)
(1.1433305 0.070076815 0)
(1.1583159 0.063250553 0)
(1.1684314 0.055736679 0)
(1.1746341 0.048415349 0)
(1.1778353 0.041758146 0)
(1.1788249 0.035964084 0)
(1.1782597 0.031054905 0)
(1.1766545 0.026957995 0)
(1.1743937 0.023560802 0)
(1.1717526 0.02074366 0)
(1.1689225 0.018396403 0)
(1.1660318 0.016425104 0)
(1.1631644 0.014753406 0)
(1.1603728 0.013321025 0)
(1.1576883 0.012081078 0)
(1.1551282 0.010997301 0)
(1.152701 0.01004169 0)
(1.1504095 0.0091926978 0)
(1.148253 0.0084338056 0)
(1.146228 0.0077522655 0)
(1.1443296 0.007137959 0)
(1.1425518 0.0065824797 0)
(1.1408883 0.0060785694 0)
(1.1393327 0.0056198999 0)
(1.137879 0.0052010551 0)
(1.1365214 0.0048175339 0)
(1.1352544 0.0044656568 0)
(1.1340724 0.0041423803 0)
(1.1329698 0.0038450875 0)
(1.1319416 0.0035714256 0)
(1.1309826 0.0033192259 0)
(1.1300882 0.0030864884 0)
(1.1292541 0.0028714041 0)
(1.1284763 0.0026723756 0)
(1.127751 0.0024880304 0)
(1.1270745 0.0023172075 0)
(1.1264436 0.0021589356 0)
(1.1258548 0.0020123862 0)
(1.1253052 0.0018768187 0)
(1.1247919 0.0017515114 0)
(1.1243122 0.0016356844 0)
(1.1238639 0.0015284429 0)
(1.1234452 0.0014287228 0)
(1.1230547 0.0013353021 0)
(1.1226915 0.0012468167 0)
(1.1223551 0.0011618678 0)
(1.1220456 0.0010791046 0)
(1.1217631 0.00099738622 0)
(1.1215079 0.00091586333 0)
(1.12128 0.00083410957 0)
(1.1210795 0.0007521208 0)
(1.1209059 0.00067035602 0)
(1.1207581 0.00058961684 0)
(1.1206349 0.00051101009 0)
(1.1205344 0.00043573369 0)
(1.1204542 0.0003650372 0)
(1.1203921 0.0002999704 0)
(1.1203453 0.0002414347 0)
(1.1203113 0.00018992675 0)
(1.1202875 0.00014574848 0)
(1.1202719 0.00010872216 0)
(1.1202621 7.8595132e-05 0)
(1.1202569 5.4645812e-05 0)
(1.1202543 3.6314001e-05 0)
(1.1202541 2.2576202e-05 0)
(1.1202544 1.2867737e-05 0)
(1.120256 6.0718108e-06 0)
(1.1202569 1.8710154e-06 0)
(1.1202588 -8.552346e-07 0)
(1.1202593 -2.0081449e-06 0)
(1.1202611 -2.7613832e-06 0)
(1.1202608 -2.481809e-06 0)
(1.1202626 -2.5687276e-06 0)
(1.1202614 -1.7223852e-06 0)
(1.1202635 -1.8493575e-06 0)
(1.1202614 -7.630737e-07 0)
(1.1202641 -1.2811875e-06 0)
(1.1202611 5.4764399e-08 0)
(1.1202646 -1.0617452e-06 0)
(1.1202605 7.3673229e-07 0)
(1.1202652 -1.189481e-06 0)
(1.1202598 1.433332e-06 0)
(1.1202657 -1.6015804e-06 0)
(1.1202594 2.3663478e-06 0)
(1.1202657 -2.1746633e-06 0)
(1.1202599 3.8661689e-06 0)
(1.1202642 -2.542019e-06 0)
(1.1202624 6.5679939e-06 0)
(1.1202587 -1.488082e-06 0)
(1.1202689 1.2053141e-05 0)
(1.120244 4.9011291e-06 0)
(1.12028 2.4975766e-05 0)
(1.120204 2.9107681e-05 0)
(1.120284 5.9884286e-05 0)
(1.12011 0.0001061129 0)
(0.99973847 0.01235542 0)
(1.0184395 0.030251941 0)
(1.0484404 0.03961205 0)
(1.0802132 0.044574128 0)
(1.1117125 0.046231243 0)
(1.1417317 0.04518731 0)
(1.1688992 0.042438568 0)
(1.1926147 0.038841859 0)
(1.2129156 0.034971891 0)
(1.2301011 0.031197142 0)
(1.2445728 0.027728485 0)
(1.2567613 0.024657707 0)
(1.2670716 0.021999847 0)
(1.2758542 0.019726035 0)
(1.2833978 0.017787096 0)
(1.289934 0.016128697 0)
(1.2956456 0.014699796 0)
(1.3006757 0.013456525 0)
(1.3051361 0.012363171 0)
(1.3091148 0.011391579 0)
(1.3126816 0.010519925 0)
(1.3158931 0.0097314707 0)
(1.3187959 0.0090135276 0)
(1.3214288 0.0083565784 0)
(1.3238241 0.0077534571 0)
(1.3260086 0.0071985664 0)
(1.3280049 0.0066872304 0)
(1.3298323 0.0062153043 0)
(1.3315079 0.0057790408 0)
(1.333047 0.0053751211 0)
(1.3344632 0.005000703 0)
(1.3357686 0.0046533973 0)
(1.3369736 0.0043311672 0)
(1.3380872 0.0040321961 0)
(1.3391174 0.0037547877 0)
(1.3400712 0.0034973188 0)
(1.3409549 0.0032582445 0)
(1.3417742 0.003036128 0)
(1.3425346 0.0028296741 0)
(1.3432406 0.0026377467 0)
(1.3438966 0.0024593661 0)
(1.3445065 0.0022936856 0)
(1.3450739 0.0021399441 0)
(1.345602 0.0019974067 0)
(1.3460941 0.0018652908 0)
(1.3465528 0.0017427012 0)
(1.346981 0.0016285794 0)
(1.3473811 0.001521687 0)
(1.3477553 0.0014206352 0)
(1.3481053 0.0013239502 0)
(1.3484327 0.0012301947 0)
(1.3487386 0.0011380821 0)
(1.3490236 0.0010466305 0)
(1.349288 0.0009552394 0)
(1.3495319 0.00086379 0)
(1.349755 0.00077260952 0)
(1.349957 0.00068247416 0)
(1.3501381 0.00059445027 0)
(1.350298 0.00050983139 0)
(1.3504373 0.0004299092 0)
(1.3505565 0.00035592768 0)
(1.3506569 0.00028885038 0)
(1.3507395 0.00022941475 0)
(1.3508063 0.00017792178 0)
(1.3508589 0.00013443997 0)
(1.3508995 9.8582412e-05 0)
(1.3509296 6.9880243e-05 0)
(1.3509517 4.7460233e-05 0)
(1.3509666 3.0610742e-05 0)
(1.350977 1.8240903e-05 0)
(1.3509829 9.7036872e-06 0)
(1.3509869 3.889225e-06 0)
(1.3509879 4.448398e-07 0)
(1.3509892 -1.6961302e-06 0)
(1.3509879 -2.4492655e-06 0)
(1.3509886 -2.9178707e-06 0)
(1.3509863 -2.475208e-06 0)
(1.3509874 -2.4654752e-06 0)
(1.3509844 -1.5733462e-06 0)
(1.3509867 -1.7121066e-06 0)
(1.3509828 -5.9899406e-07 0)
(1.3509868 -1.2127526e-06 0)
(1.3509813 2.2070776e-07 0)
(1.3509876 -1.1180105e-06 0)
(1.3509797 9.6424236e-07 0)
(1.3509891 -1.4431063e-06 0)
(1.3509777 1.846149e-06 0)
(1.3509914 -2.1985602e-06 0)
(1.3509751 3.1718211e-06 0)
(1.3509947 -3.3958071e-06 0)
(1.3509718 5.3849203e-06 0)
(1.3509994 -4.8612903e-06 0)
(1.3509679 9.2317764e-06 0)
(1.3510064 -5.4953538e-06 0)
(1.3509641 1.6356752e-05 0)
(1.3510174 -5.011316e-07 0)
(1.3509625 3.2197317e-05 0)
(1.3510365 2.9680793e-05 0)
(1.3509622 7.9641612e-05 0)
(1.3510499 0.00015052167 0)
(0.99995388 0.0035944823 0)
(1.0140006 0.0095669618 0)
(1.0391252 0.012868147 0)
(1.0682249 0.014559237 0)
(1.0987449 0.015147454 0)
(1.1293714 0.014873897 0)
(1.158664 0.014054172 0)
(1.185715 0.012960605 0)
(1.2102173 0.011777814 0)
(1.2321785 0.01062456 0)
(1.2517646 0.0095680664 0)
(1.2692272 0.0086360372 0)
(1.284844 0.007830644 0)
(1.2988788 0.0071400933 0)
(1.3115634 0.0065468674 0)
(1.3230926 0.0060328217 0)
(1.3336256 0.0055818128 0)
(1.3432908 0.0051806903 0)
(1.352191 0.004819327 0)
(1.3604092 0.0044901788 0)
(1.3680133 0.0041877088 0)
(1.3750603 0.0039078852 0)
(1.381599 0.0036478043 0)
(1.3876723 0.0034054019 0)
(1.3933175 0.0031791994 0)
(1.3985671 0.0029680579 0)
(1.4034504 0.0027709839 0)
(1.4079935 0.00258702 0)
(1.4122212 0.0024152266 0)
(1.4161563 0.0022547226 0)
(1.4198202 0.0021047247 0)
(1.4232329 0.0019645582 0)
(1.4264124 0.0018336332 0)
(1.4293752 0.0017114058 0)
(1.4321363 0.0015973485 0)
(1.4347096 0.0014909372 0)
(1.4371083 0.001391659 0)
(1.4393442 0.0012990266 0)
(1.4414289 0.001212595 0)
(1.4433728 0.0011319698 0)
(1.4451858 0.0010568078 0)
(1.4468771 0.0009868062 0)
(1.4484553 0.00092168348 0)
(1.4499286 0.00086115158 0)
(1.4513046 0.00080488766 0)
(1.4525903 0.00075250618 0)
(1.453792 0.00070354438 0)
(1.4549152 0.00065745857 0)
(1.4559643 0.00061364701 0)
(1.4569431 0.00057148122 0)
(1.4578537 0.00053036648 0)
(1.4586979 0.0004897896 0)
(1.4594761 0.00044938683 0)
(1.4601886 0.00040896941 0)
(1.4608353 0.00036856195 0)
(1.4614162 0.0003283776 0)
(1.4619318 0.00028881179 0)
(1.4623833 0.00025036877 0)
(1.4627727 0.00021362802 0)
(1.4631032 0.00017914919 0)
(1.4633786 0.00014744811 0)
(1.4636038 0.00011890891 0)
(1.463784 9.3802386e-05 0)
(1.4639251 7.2213468e-05 0)
(1.4640324 5.4120084e-05 0)
(1.4641123 3.9317656e-05 0)
(1.4641693 2.7564639e-05 0)
(1.464209 1.8464993e-05 0)
(1.4642346 1.1690573e-05 0)
(1.464251 6.7703883e-06 0)
(1.4642593 3.4192962e-06 0)
(1.4642641 1.1707023e-06 0)
(1.4642643 -1.2472446e-07 0)
(1.4642646 -9.1080805e-07 0)
(1.4642617 -1.1440189e-06 0)
(1.4642613 -1.2885396e-06 0)
(1.4642574 -1.0615919e-06 0)
(1.4642582 -1.045665e-06 0)
(1.4642537 -6.461173e-07 0)
(1.4642565 -7.2152263e-07 0)
(1.4642509 -2.2220667e-07 0)
(1.4642563 -5.2794818e-07 0)
(1.4642485 1.3740217e-07 0)
(1.4642576 -5.2215295e-07 0)
(1.4642459 4.8106788e-07 0)
(1.4642603 -7.1676273e-07 0)
(1.4642422 9.1365593e-07 0)
(1.464265 -1.1312384e-06 0)
(1.4642366 1.5814732e-06 0)
(1.4642726 -1.7918209e-06 0)
(1.464228 2.6883766e-06 0)
(1.4642853 -2.6465804e-06 0)
(1.4642149 4.5481074e-06 0)
(1.464307 -3.2151534e-06 0)
(1.4641964 7.818709e-06 0)
(1.4643464 -1.2400834e-06 0)
(1.4641765 1.4862124e-05 0)
(1.464426 1.2856298e-05 0)
(1.4641716 3.685526e-05 0)
(1.4645467 7.1878426e-05 0)
(0.99995388 -0.0035944825 0)
(1.0140006 -0.0095669619 0)
(1.0391252 -0.012868147 0)
(1.0682249 -0.014559237 0)
(1.0987449 -0.015147454 0)
(1.1293714 -0.014873898 0)
(1.158664 -0.014054172 0)
(1.185715 -0.012960604 0)
(1.2102173 -0.011777813 0)
(1.2321785 -0.010624558 0)
(1.2517646 -0.0095680645 0)
(1.2692272 -0.0086360359 0)
(1.284844 -0.0078306447 0)
(1.2988788 -0.0071400968 0)
(1.3115634 -0.0065468734 0)
(1.3230926 -0.0060328295 0)
(1.3336256 -0.0055818188 0)
(1.3432908 -0.0051806917 0)
(1.352191 -0.0048193223 0)
(1.3604092 -0.0044901682 0)
(1.3680133 -0.0041876963 0)
(1.3750603 -0.0039078737 0)
(1.381599 -0.0036477963 0)
(1.3876723 -0.0034053974 0)
(1.3933175 -0.0031791962 0)
(1.3985671 -0.0029680544 0)
(1.4034504 -0.0027709778 0)
(1.4079935 -0.0025870108 0)
(1.4122212 -0.0024152143 0)
(1.4161563 -0.0022547074 0)
(1.4198202 -0.0021047071 0)
(1.4232329 -0.0019645381 0)
(1.4264124 -0.001833611 0)
(1.4293752 -0.0017113815 0)
(1.4321363 -0.0015973221 0)
(1.4347097 -0.0014909085 0)
(1.4371083 -0.0013916274 0)
(1.4393442 -0.0012989919 0)
(1.4414289 -0.0012125566 0)
(1.4433728 -0.0011319293 0)
(1.4451857 -0.0010567657 0)
(1.446877 -0.00098676736 0)
(1.4484553 -0.00092164977 0)
(1.4499286 -0.00086113065 0)
(1.4513046 -0.00080488258 0)
(1.4525903 -0.00075252497 0)
(1.4537919 -0.00070358991 0)
(1.4549151 -0.0006575355 0)
(1.4559643 -0.00061375657 0)
(1.456943 -0.00057162261 0)
(1.4578536 -0.00053053924 0)
(1.4586978 -0.00048998737 0)
(1.459476 -0.00044960761 0)
(1.4601885 -0.00040920357 0)
(1.4608352 -0.00036880763 0)
(1.4614161 -0.00032862573 0)
(1.4619317 -0.00028906194 0)
(1.4623832 -0.00025061473 0)
(1.4627726 -0.00021387112 0)
(1.4631031 -0.00017938709 0)
(1.4633785 -0.00014768355 0)
(1.4636038 -0.00011914194 0)
(1.4637839 -9.4035703e-05 0)
(1.463925 -7.2447427e-05 0)
(1.4640323 -5.4356427e-05 0)
(1.4641122 -3.9555203e-05 0)
(1.4641692 -2.7803735e-05 0)
(1.464209 -1.870228e-05 0)
(1.4642345 -1.1925541e-05 0)
(1.464251 -6.9978892e-06 0)
(1.4642593 -3.6389464e-06 0)
(1.4642641 -1.3767373e-06 0)
(1.4642643 -6.8410944e-08 0)
(1.4642646 7.3603515e-07 0)
(1.4642616 9.8526737e-07 0)
(1.4642613 1.1501994e-06 0)
(1.4642573 9.3962612e-07 0)
(1.4642582 9.4344876e-07 0)
(1.4642536 5.5833516e-07 0)
(1.4642565 6.5062308e-07 0)
(1.4642508 1.6203852e-07 0)
(1.4642563 4.8052372e-07 0)
(1.4642485 -1.7857042e-07 0)
(1.4642576 4.8886425e-07 0)
(1.4642459 -5.1298648e-07 0)
(1.4642603 6.882274e-07 0)
(1.4642422 -9.4447546e-07 0)
(1.464265 1.1018529e-06 0)
(1.4642366 -1.6135805e-06 0)
(1.4642726 1.7636349e-06 0)
(1.464228 -2.7165512e-06 0)
(1.4642853 2.627196e-06 0)
(1.4642149 -4.5628631e-06 0)
(1.464307 3.2138951e-06 0)
(1.4641964 -7.8086108e-06 0)
(1.4643465 1.2614678e-06 0)
(1.4641765 -1.4835448e-05 0)
(1.464426 -1.283899e-05 0)
(1.4641716 -3.6851149e-05 0)
(1.4645467 -7.1882723e-05 0)
(0.99973847 -0.01235542 0)
(1.0184395 -0.030251941 0)
(1.0484404 -0.03961205 0)
(1.0802132 -0.044574128 0)
(1.1117125 -0.046231243 0)
(1.1417317 -0.04518731 0)
(1.1688992 -0.042438568 0)
(1.1926147 -0.038841859 0)
(1.2129156 -0.034971889 0)
(1.2301011 -0.03119714 0)
(1.2445728 -0.027728482 0)
(1.2567613 -0.024657705 0)
(1.2670716 -0.021999847 0)
(1.2758542 -0.019726037 0)
(1.2833978 -0.017787102 0)
(1.289934 -0.016128704 0)
(1.2956456 -0.014699802 0)
(1.3006757 -0.013456528 0)
(1.3051361 -0.012363169 0)
(1.3091148 -0.011391571 0)
(1.3126816 -0.010519914 0)
(1.3158931 -0.00973146 0)
(1.3187959 -0.0090135193 0)
(1.3214288 -0.0083565724 0)
(1.3238241 -0.007753453 0)
(1.3260086 -0.0071985622 0)
(1.3280049 -0.0066872249 0)
(1.3298323 -0.0062152966 0)
(1.3315079 -0.0057790303 0)
(1.333047 -0.0053751076 0)
(1.3344632 -0.0050006863 0)
(1.3357686 -0.0046533777 0)
(1.3369736 -0.0043311448 0)
(1.3380872 -0.0040321711 0)
(1.3391174 -0.0037547604 0)
(1.3400712 -0.0034972888 0)
(1.3409549 -0.0032582115 0)
(1.3417743 -0.0030360914 0)
(1.3425346 -0.0028296344 0)
(1.3432406 -0.0026377042 0)
(1.3438965 -0.0024593236 0)
(1.3445064 -0.0022936454 0)
(1.3450738 -0.0021399114 0)
(1.3456019 -0.0019973849 0)
(1.3460939 -0.001865286 0)
(1.3465527 -0.0017427166 0)
(1.3469809 -0.0016286197 0)
(1.3473809 -0.001521753 0)
(1.347755 -0.0014207283 0)
(1.3481051 -0.0013240689 0)
(1.3484325 -0.0012303371 0)
(1.3487384 -0.0011382451 0)
(1.3490234 -0.0010468097 0)
(1.3492878 -0.0009554318 0)
(1.3495316 -0.00086399056 0)
(1.3497547 -0.00077281731 0)
(1.3499568 -0.00068268475 0)
(1.3501378 -0.00059466496 0)
(1.3502978 -0.00051004674 0)
(1.3504371 -0.00043012852 0)
(1.3505563 -0.00035614799 0)
(1.3506566 -0.00028907585 0)
(1.3507392 -0.00022964169 0)
(1.3508061 -0.0001781542 0)
(1.3508587 -0.0001346728 0)
(1.3508993 -9.8818956e-05 0)
(1.3509294 -7.0113814e-05 0)
(1.3509515 -4.7693557e-05 0)
(1.3509664 -3.0836009e-05 0)
(1.3509769 -1.8460787e-05 0)
(1.3509827 -9.9100494e-06 0)
(1.3509868 -4.0854343e-06 0)
(1.3509878 -6.2319209e-07 0)
(1.3509891 1.5311571e-06 0)
(1.3509878 2.304454e-06 0)
(1.3509885 2.7873819e-06 0)
(1.3509862 2.3648275e-06 0)
(1.3509873 2.3682539e-06 0)
(1.3509843 1.4942611e-06 0)
(1.3509867 1.6433204e-06 0)
(1.3509827 5.4502621e-07 0)
(1.3509867 1.1652651e-06 0)
(1.3509812 -2.5737611e-07 0)
(1.3509875 1.083359e-06 0)
(1.3509797 -9.9226128e-07 0)
(1.350989 1.4127889e-06 0)
(1.3509777 -1.87276e-06 0)
(1.3509914 2.1671196e-06 0)
(1.3509751 -3.1989837e-06 0)
(1.3509947 3.3647063e-06 0)
(1.3509718 -5.4070814e-06 0)
(1.3509994 4.8381259e-06 0)
(1.3509679 -9.2404011e-06 0)
(1.3510064 5.4878632e-06 0)
(1.3509641 -1.6352397e-05 0)
(1.3510174 5.0876919e-07 0)
(1.3509624 -3.2194635e-05 0)
(1.3510365 -2.9688388e-05 0)
(1.3509622 -7.9655317e-05 0)
(1.3510499 -0.00015053885 0)
(1.0001503 -0.028832875 0)
(1.0314833 -0.059420851 0)
(1.0675718 -0.071130968 0)
(1.0976325 -0.075530464 0)
(1.122939 -0.074771643 0)
(1.1433305 -0.070076816 0)
(1.1583159 -0.063250553 0)
(1.1684314 -0.055736679 0)
(1.1746341 -0.048415348 0)
(1.1778353 -0.041758144 0)
(1.1788249 -0.035964082 0)
(1.1782597 -0.031054903 0)
(1.1766545 -0.026957994 0)
(1.1743937 -0.023560803 0)
(1.1717526 -0.020743664 0)
(1.1689225 -0.018396409 0)
(1.1660318 -0.01642511 0)
(1.1631644 -0.01475341 0)
(1.1603728 -0.013321024 0)
(1.1576883 -0.012081074 0)
(1.1551282 -0.010997294 0)
(1.152701 -0.010041683 0)
(1.1504095 -0.0091926923 0)
(1.148253 -0.0084338018 0)
(1.146228 -0.0077522628 0)
(1.1443296 -0.0071379543 0)
(1.1425519 -0.0065824728 0)
(1.1408883 -0.0060785599 0)
(1.1393327 -0.0056198887 0)
(1.137879 -0.0052010432 0)
(1.1365215 -0.0048175207 0)
(1.1352544 -0.0044656421 0)
(1.1340724 -0.0041423625 0)
(1.1329699 -0.0038450658 0)
(1.1319416 -0.0035713992 0)
(1.1309826 -0.0033191945 0)
(1.1300882 -0.003086453 0)
(1.1292542 -0.0028713641 0)
(1.1284763 -0.0026723339 0)
(1.127751 -0.0024879862 0)
(1.1270745 -0.0023171659 0)
(1.1264435 -0.0021588962 0)
(1.1258547 -0.0020123558 0)
(1.1253051 -0.0018767976 0)
(1.1247917 -0.001751505 0)
(1.124312 -0.0016356942 0)
(1.1238636 -0.0015284698 0)
(1.1234449 -0.0014287697 0)
(1.1230544 -0.0013353637 0)
(1.1226911 -0.0012468981 0)
(1.1223548 -0.0011619594 0)
(1.1220453 -0.0010792136 0)
(1.1217628 -0.00099750179 0)
(1.1215075 -0.00091599349 0)
(1.1212797 -0.00083424569 0)
(1.1210792 -0.00075226979 0)
(1.1209055 -0.00067051286 0)
(1.1207578 -0.0005897855 0)
(1.1206345 -0.00051118902 0)
(1.120534 -0.00043592304 0)
(1.1204539 -0.00036523744 0)
(1.1203918 -0.00030017836 0)
(1.1203449 -0.00024165135 0)
(1.120311 -0.00019014705 0)
(1.1202872 -0.00014597265 0)
(1.1202716 -0.00010894503 0)
(1.1202617 -7.8815781e-05 0)
(1.1202566 -5.4860317e-05 0)
(1.120254 -3.6520238e-05 0)
(1.1202538 -2.2772275e-05 0)
(1.1202542 -1.3050825e-05 0)
(1.1202558 -6.2421529e-06 0)
(1.1202567 -2.0254062e-06 0)
(1.1202586 7.1463878e-07 0)
(1.1202592 1.8844206e-06 0)
(1.120261 2.6509676e-06 0)
(1.1202607 2.3875902e-06 0)
(1.1202624 2.4861797e-06 0)
(1.1202613 1.6539798e-06 0)
(1.1202634 1.7901133e-06 0)
(1.1202614 7.151744e-07 0)
(1.120264 1.2395135e-06 0)
(1.120261 -8.8600893e-08 0)
(1.1202646 1.0309295e-06 0)
(1.1202604 -7.6332377e-07 0)
(1.1202652 1.162983e-06 0)
(1.1202598 -1.4584797e-06 0)
(1.1202657 1.5751288e-06 0)
(1.1202594 -2.3915662e-06 0)
(1.1202657 2.1500879e-06 0)
(1.1202598 -3.8865069e-06 0)
(1.1202641 2.5280326e-06 0)
(1.1202624 -6.576511e-06 0)
(1.1202588 1.4879992e-06 0)
(1.1202689 -1.2058791e-05 0)
(1.120244 -4.9167818e-06 0)
(1.12028 -2.5003033e-05 0)
(1.1202039 -2.9142503e-05 0)
(1.120284 -5.9919268e-05 0)
(1.1201099 -0.00010614037 0)
(1.003271 -0.054817095 0)
(1.0472129 -0.10100035 0)
(1.066112 -0.11153423 0)
(1.0625934 -0.10907373 0)
(1.0508094 -0.099917528 0)
(1.0345 -0.087034603 0)
(1.014893 -0.072925801 0)
(0.99382461 -0.05936706 0)
(0.97290665 -0.047360875 0)
(0.95311343 -0.037329022 0)
(0.93493756 -0.029286342 0)
(0.91857686 -0.023049527 0)
(0.90402629 -0.018325321 0)
(0.89116436 -0.014797174 0)
(0.87981414 -0.012176644 0)
(0.86978451 -0.010224417 0)
(0.86089288 -0.0087539047 0)
(0.85297571 -0.0076261055 0)
(0.84589204 -0.0067409291 0)
(0.83952323 -0.0060280204 0)
(0.83377071 -0.0054387175 0)
(0.82855314 -0.0049397453 0)
(0.82380338 -0.0045085876 0)
(0.81946572 -0.0041301428 0)
(0.81549353 -0.0037942335 0)
(0.81184731 -0.0034937442 0)
(0.80849331 -0.0032233252 0)
(0.80540251 -0.0029786498 0)
(0.80254981 -0.0027561147 0)
(0.79991343 -0.0025527798 0)
(0.79747425 -0.002366347 0)
(0.79521538 -0.0021950632 0)
(0.79312167 -0.0020375539 0)
(0.79117952 -0.0018926472 0)
(0.78937663 -0.0017592537 0)
(0.7877019 -0.0016363213 0)
(0.78614532 -0.0015228447 0)
(0.78469781 -0.0014178998 0)
(0.78335115 -0.0013206698 0)
(0.78209786 -0.0012304602 0)
(0.78093105 -0.0011466932 0)
(0.77984435 -0.0010689019 0)
(0.77883183 -0.00099670801 0)
(0.77788788 -0.00092980698 0)
(0.77700728 -0.00086793238 0)
(0.77618512 -0.00081082404 0)
(0.77541693 -0.00075818366 0)
(0.77469873 -0.00070963646 0)
(0.77402714 -0.00066470616 0)
(0.77339949 -0.00062280273 0)
(0.77281385 -0.00058324908 0)
(0.77226904 -0.00054531315 0)
(0.77176451 -0.00050828575 0)
(0.77130027 -0.00047153398 0)
(0.77087658 -0.00043459295 0)
(0.77049379 -0.00039719104 0)
(0.77015202 -0.0003593131 0)
(0.76985103 -0.0003211557 0)
(0.76958992 -0.00028314984 0)
(0.76936725 -0.00024583905 0)
(0.76918077 -0.00020989321 0)
(0.76902775 -0.00017593009 0)
(0.76890482 -0.00014457538 0)
(0.76880847 -0.00011624878 0)
(0.7687348 -9.1324002e-05 0)
(0.76868025 -6.9873651e-05 0)
(0.76864104 -5.1967432e-05 0)
(0.76861419 -3.7332696e-05 0)
(0.76859648 -2.5824615e-05 0)
(0.76858588 -1.6924609e-05 0)
(0.76857988 -1.0433627e-05 0)
(0.76857752 -5.7002447e-06 0)
(0.76857681 -2.6327357e-06 0)
(0.76857783 -5.1025542e-07 0)
(0.76857879 5.2420571e-07 0)
(0.76858073 1.2755414e-06 0)
(0.76858165 1.2676761e-06 0)
(0.76858355 1.4812245e-06 0)
(0.76858381 1.0093781e-06 0)
(0.76858553 1.1687082e-06 0)
(0.768585 4.8787136e-07 0)
(0.76858672 8.4260345e-07 0)
(0.76858542 -3.1363656e-09 0)
(0.76858739 6.7504255e-07 0)
(0.7685854 -4.0763209e-07 0)
(0.76858776 6.7323883e-07 0)
(0.76858521 -7.6822974e-07 0)
(0.76858783 7.6130436e-07 0)
(0.76858515 -1.1551545e-06 0)
(0.76858726 7.6419997e-07 0)
(0.76858566 -1.6569766e-06 0)
(0.76858503 2.5890524e-07 0)
(0.76858737 -2.4520758e-06 0)
(0.76857855 -1.8082007e-06 0)
(0.76859087 -3.9943105e-06 0)
(0.76856151 -7.5600681e-06 0)
(0.76859544 -6.6906917e-06 0)
(0.76851705 -1.7646763e-05 0)
(0.7685955 -6.0078446e-06 0)
(0.76842618 -1.0081414e-05 0)
(0.92241905 -0.034487138 0)
(0.87132478 -0.058494328 0)
(0.78815633 -0.05621487 0)
(0.69388547 -0.045746924 0)
(0.61395329 -0.03451106 0)
(0.55015832 -0.024456415 0)
(0.49940112 -0.016279987 0)
(0.45984778 -0.010228165 0)
(0.42978245 -0.0061010082 0)
(0.4072318 -0.0034637552 0)
(0.39031208 -0.0018585172 0)
(0.37749589 -0.00095336834 0)
(0.36763737 -0.00049218553 0)
(0.3598752 -0.00029071153 0)
(0.35358859 -0.00022861502 0)
(0.34834767 -0.00023288124 0)
(0.34386162 -0.00026207648 0)
(0.33993608 -0.00029463427 0)
(0.33644171 -0.00032078209 0)
(0.33329203 -0.00033724607 0)
(0.33042812 -0.00034402758 0)
(0.32780863 -0.00034259644 0)
(0.32540324 -0.00033496318 0)
(0.3231886 -0.0003231709 0)
(0.32114583 -0.00030897253 0)
(0.31925896 -0.00029364549 0)
(0.31751411 -0.00027794879 0)
(0.315899 -0.00026224544 0)
(0.31440269 -0.00024669586 0)
(0.3130154 -0.00023142822 0)
(0.31172834 -0.0002166182 0)
(0.31053352 -0.00020246708 0)
(0.30942368 -0.00018914455 0)
(0.30839215 -0.00017673501 0)
(0.30743286 -0.00016523101 0)
(0.30654026 -0.000154558 0)
(0.30570929 -0.00014461576 0)
(0.30493538 -0.00013531144 0)
(0.30421438 -0.00012657304 0)
(0.3035425 -0.00011835436 0)
(0.30291627 -0.00011061983 0)
(0.30233247 -0.00010334956 0)
(0.30178813 -9.6521002e-05 0)
(0.30128038 -9.0127636e-05 0)
(0.30080654 -8.4163265e-05 0)
(0.30036399 -7.8638641e-05 0)
(0.29995026 -7.3568224e-05 0)
(0.29956299 -6.8965998e-05 0)
(0.29920007 -6.4844367e-05 0)
(0.29885966 -6.118447e-05 0)
(0.29854024 -5.7960961e-05 0)
(0.29824073 -5.5095345e-05 0)
(0.29796047 -5.2510305e-05 0)
(0.29769921 -5.0078846e-05 0)
(0.297457 -4.7696545e-05 0)
(0.29723417 -4.5236594e-05 0)
(0.2970311 -4.2617967e-05 0)
(0.29684818 -3.9769289e-05 0)
(0.29668557 -3.6674271e-05 0)
(0.29654319 -3.3343436e-05 0)
(0.29642057 -2.9832476e-05 0)
(0.29631687 -2.6217579e-05 0)
(0.29623089 -2.2598682e-05 0)
(0.29616112 -1.9071912e-05 0)
(0.29610578 -1.5740645e-05 0)
(0.29606304 -1.2672897e-05 0)
(0.29603091 -9.9460041e-06 0)
(0.29600759 -7.5700766e-06 0)
(0.29599123 -5.5918305e-06 0)
(0.29598036 -3.9562265e-06 0)
(0.2959735 -2.6972283e-06 0)
(0.29596967 -1.7006936e-06 0)
(0.29596774 -1.0190274e-06 0)
(0.29596728 -4.8420883e-07 0)
(0.29596742 -2.0195486e-07 0)
(0.29596819 5.6182016e-08 0)
(0.29596886 9.4780463e-08 0)
(0.29596986 2.2711185e-07 0)
(0.29597037 1.2802035e-07 0)
(0.29597125 2.3960266e-07 0)
(0.29597141 5.6374346e-08 0)
(0.29597215 2.129569e-07 0)
(0.29597195 -4.1785208e-08 0)
(0.29597264 1.999229e-07 0)
(0.29597213 -1.3855016e-07 0)
(0.29597287 2.1101211e-07 0)
(0.29597211 -2.2968063e-07 0)
(0.29597291 2.2711674e-07 0)
(0.29597202 -3.1525554e-07 0)
(0.29597265 1.8878141e-07 0)
(0.2959719 -3.8605074e-07 0)
(0.29597163 -4.4291175e-08 0)
(0.29597158 -4.1141096e-07 0)
(0.29596858 -7.8218735e-07 0)
(0.29597054 -2.4607095e-07 0)
(0.29596127 -2.3113369e-06 0)
(0.29596839 1.5699426e-06 0)
(0.29594978 -1.7250609e-06 0)
(0.29597029 1.5421174e-05 0)
(0.29597467 1.8710238e-05 0)
)
;

boundaryField
{
    top
    {
        type            fixedValue;
        value           uniform (0 0 0);
    }
    inlet
    {
        type            fixedValue;
        value           uniform (1 0 0);
    }
    outlet
    {
        type            zeroGradient;
    }
    bottom
    {
        type            fixedValue;
        value           uniform (0 0 0);
    }
    back
    {
        type            empty;
    }
    front
    {
        type            empty;
    }
}


// ************************************************************************* //
