/*--------------------------------*- C++ -*----------------------------------*\
| =========                 |                                                 |
| \\      /  F ield         | OpenFOAM: The Open Source CFD Toolbox           |
|  \\    /   O peration     | Version:  v1812                                 |
|   \\  /    A nd           | Web:      www.OpenFOAM.com                      |
|    \\/     M anipulation  |                                                 |
\*---------------------------------------------------------------------------*/
FoamFile
{
    version     2.0;
    format      ascii;
    class       volVectorField;
    location    "20";
    object      U;
}
// * * * * * * * * * * * * * * * * * * * * * * * * * * * * * * * * * * * * * //

dimensions      [0 1 -1 0 0 0 0];


internalField   nonuniform List<vector> 
1000
(
(0.33987916 0.00010865575 0)
(0.33964778 0.00033440291 0)
(0.3391158 0.00038463977 0)
(0.33855507 0.00030808534 0)
(0.33808381 0.0002084759 0)
(0.33771298 0.00013953142 0)
(0.33741575 0.00010385821 0)
(0.33716569 8.6008471e-05 0)
(0.33694752 7.4012789e-05 0)
(0.33675457 6.3584345e-05 0)
(0.33658365 5.4607017e-05 0)
(0.33643195 4.7627575e-05 0)
(0.33629639 4.2553825e-05 0)
(0.33617402 3.8811046e-05 0)
(0.33606249 3.581356e-05 0)
(0.33596013 3.3204808e-05 0)
(0.33586575 3.0842975e-05 0)
(0.33577847 2.869266e-05 0)
(0.33569755 2.6740693e-05 0)
(0.33562235 2.4965868e-05 0)
(0.33555232 2.3341322e-05 0)
(0.335487 2.1843642e-05 0)
(0.33542598 2.0456613e-05 0)
(0.33536891 1.9169588e-05 0)
(0.33531548 1.7974551e-05 0)
(0.33526543 1.6864131e-05 0)
(0.33521849 1.5831236e-05 0)
(0.33517445 1.4869126e-05 0)
(0.3351331 1.3971793e-05 0)
(0.33509426 1.3133841e-05 0)
(0.33505776 1.2350566e-05 0)
(0.33502344 1.1617644e-05 0)
(0.33499117 1.0931262e-05 0)
(0.3349608 1.0287858e-05 0)
(0.33493223 9.6843163e-06 0)
(0.33490534 9.1176974e-06 0)
(0.33488002 8.5854561e-06 0)
(0.33485619 8.085157e-06 0)
(0.33483374 7.6147043e-06 0)
(0.33481261 7.172049e-06 0)
(0.3347927 6.7554469e-06 0)
(0.33477396 6.3631607e-06 0)
(0.3347563 5.9937289e-06 0)
(0.33473967 5.645658e-06 0)
(0.33472401 5.3177109e-06 0)
(0.33470925 5.0085964e-06 0)
(0.33469536 4.7172614e-06 0)
(0.33468228 4.4425735e-06 0)
(0.33466996 4.1836288e-06 0)
(0.33465835 3.9394318e-06 0)
(0.33464743 3.7092046e-06 0)
(0.33463714 3.492061e-06 0)
(0.33462746 3.2873271e-06 0)
(0.33461835 3.0942155e-06 0)
(0.33460977 2.9121439e-06 0)
(0.3346017 2.7404035e-06 0)
(0.3345941 2.5784891e-06 0)
(0.33458696 2.4257667e-06 0)
(0.33458023 2.2818002e-06 0)
(0.33457391 2.1460149e-06 0)
(0.33456796 2.0180329e-06 0)
(0.33456237 1.8973376e-06 0)
(0.33455711 1.7836045e-06 0)
(0.33455217 1.6763614e-06 0)
(0.33454753 1.5753286e-06 0)
(0.33454316 1.4800788e-06 0)
(0.33453906 1.390374e-06 0)
(0.33453521 1.3058199e-06 0)
(0.3345316 1.2262133e-06 0)
(0.3345282 1.1511939e-06 0)
(0.33452501 1.080593e-06 0)
(0.33452202 1.0140726e-06 0)
(0.33451921 9.5149435e-07 0)
(0.33451658 8.9254329e-07 0)
(0.33451411 8.3711436e-07 0)
(0.33451179 7.8490183e-07 0)
(0.33450962 7.3583508e-07 0)
(0.33450758 6.8961425e-07 0)
(0.33450567 6.4621318e-07 0)
(0.33450388 6.0531636e-07 0)
(0.33450221 5.6695493e-07 0)
(0.33450064 5.3078065e-07 0)
(0.33449917 4.9691007e-07 0)
(0.3344978 4.6491891e-07 0)
(0.33449651 4.3504971e-07 0)
(0.33449531 4.0675216e-07 0)
(0.33449418 3.804624e-07 0)
(0.33449313 3.5541735e-07 0)
(0.33449215 3.323349e-07 0)
(0.33449123 3.1014762e-07 0)
(0.33449037 2.8995242e-07 0)
(0.33448957 2.7030649e-07 0)
(0.33448882 2.5268923e-07 0)
(0.33448812 2.3544404e-07 0)
(0.33448747 2.2000809e-07 0)
(0.33448686 2.0558407e-07 0)
(0.33448631 1.9190033e-07 0)
(0.33448574 1.8320868e-07 0)
(0.33448532 1.7371075e-07 0)
(0.33448465 1.9373036e-07 0)
(0.86285098 0.00011653661 0)
(0.86306243 0.0005390717 0)
(0.86275601 0.00079062089 0)
(0.86230484 0.00080871048 0)
(0.86189224 0.00070181789 0)
(0.86153868 0.00057893612 0)
(0.86121572 0.00048636369 0)
(0.86090505 0.00042352781 0)
(0.86060545 0.00037626441 0)
(0.86032235 0.00033515762 0)
(0.86005973 0.00029792889 0)
(0.85981806 0.00026541693 0)
(0.85959559 0.00023822415 0)
(0.85939006 0.00021582797 0)
(0.85919956 0.00019711212 0)
(0.85902263 0.00018103692 0)
(0.85885812 0.00016691485 0)
(0.85870497 0.00015435784 0)
(0.85856223 0.00014312836 0)
(0.85842898 0.00013303875 0)
(0.85830442 0.00012391987 0)
(0.85818786 0.00011562491 0)
(0.85807866 0.00010803586 0)
(0.85797628 0.00010106182 0)
(0.85788022 9.4631816e-05 0)
(0.85779003 8.8687803e-05 0)
(0.85770531 8.3180316e-05 0)
(0.85762569 7.8066447e-05 0)
(0.85755082 7.3308965e-05 0)
(0.85748039 6.8875542e-05 0)
(0.85741413 6.4738047e-05 0)
(0.85735176 6.0871726e-05 0)
(0.85729305 5.7254682e-05 0)
(0.85723777 5.3867351e-05 0)
(0.85718571 5.0692249e-05 0)
(0.85713667 4.7713612e-05 0)
(0.85709049 4.4917268e-05 0)
(0.85704698 4.229034e-05 0)
(0.85700599 3.9821186e-05 0)
(0.85696738 3.7499129e-05 0)
(0.85693099 3.5314468e-05 0)
(0.85689672 3.3258248e-05 0)
(0.85686443 3.1322302e-05 0)
(0.856834 2.9499028e-05 0)
(0.85680534 2.7781475e-05 0)
(0.85677834 2.6163137e-05 0)
(0.85675291 2.463805e-05 0)
(0.85672895 2.3200591e-05 0)
(0.85670639 2.1845598e-05 0)
(0.85668514 2.0568183e-05 0)
(0.85666514 1.9363856e-05 0)
(0.8566463 1.8228336e-05 0)
(0.85662856 1.7157689e-05 0)
(0.85661187 1.6148152e-05 0)
(0.85659615 1.5196275e-05 0)
(0.85658136 1.429873e-05 0)
(0.85656744 1.3452472e-05 0)
(0.85655435 1.2654559e-05 0)
(0.85654203 1.1902303e-05 0)
(0.85653044 1.1193088e-05 0)
(0.85651955 1.0524535e-05 0)
(0.8565093 9.8943171e-06 0)
(0.85649967 9.3003312e-06 0)
(0.85649061 8.7405012e-06 0)
(0.8564821 8.2129574e-06 0)
(0.85647411 7.7158484e-06 0)
(0.85646659 7.247522e-06 0)
(0.85645954 6.8063151e-06 0)
(0.85645291 6.3907611e-06 0)
(0.85644669 5.9993667e-06 0)
(0.85644085 5.6308436e-06 0)
(0.85643536 5.2838342e-06 0)
(0.85643022 4.957209e-06 0)
(0.85642539 4.6497259e-06 0)
(0.85642086 4.3604211e-06 0)
(0.85641662 4.0881276e-06 0)
(0.85641264 3.8320486e-06 0)
(0.85640891 3.5910544e-06 0)
(0.85640541 3.3645547e-06 0)
(0.85640213 3.151383e-06 0)
(0.85639906 2.9512085e-06 0)
(0.85639619 2.7627305e-06 0)
(0.8563935 2.5860003e-06 0)
(0.85639098 2.4194072e-06 0)
(0.85638863 2.263573e-06 0)
(0.85638643 2.1163124e-06 0)
(0.85638436 1.9791558e-06 0)
(0.85638244 1.8489031e-06 0)
(0.85638064 1.7285135e-06 0)
(0.85637896 1.6131101e-06 0)
(0.85637738 1.5079049e-06 0)
(0.85637592 1.4053476e-06 0)
(0.85637455 1.3140895e-06 0)
(0.85637326 1.222534e-06 0)
(0.85637209 1.1444416e-06 0)
(0.85637094 1.0625452e-06 0)
(0.85636998 9.9806592e-07 0)
(0.85636887 9.271936e-07 0)
(0.85636824 8.8195341e-07 0)
(0.85636691 8.4086989e-07 0)
(1.2408513 9.2856096e-05 0)
(1.2414501 0.00049603283 0)
(1.2414693 0.00080461409 0)
(1.2413343 0.00090882522 0)
(1.2412627 0.00086802386 0)
(1.2412623 0.00078010006 0)
(1.2412734 0.00070257569 0)
(1.2412576 0.00064643937 0)
(1.2412112 0.00060190351 0)
(1.241147 0.0005596645 0)
(1.2410767 0.00051726429 0)
(1.2410057 0.00047641062 0)
(1.2409352 0.00043909662 0)
(1.2408647 0.00040595305 0)
(1.2407945 0.00037651641 0)
(1.2407251 0.00035002405 0)
(1.2406573 0.00032589486 0)
(1.2405915 0.00030379833 0)
(1.2405281 0.00028353916 0)
(1.2404671 0.00026495247 0)
(1.2404086 0.00024786805 0)
(1.2403526 0.00023211905 0)
(1.2402991 0.00021755749 0)
(1.240248 0.00020405993 0)
(1.2401993 0.00019152384 0)
(1.240153 0.00017986164 0)
(1.240109 0.00016899623 0)
(1.2400672 0.00015885896 0)
(1.2400275 0.00014938861 0)
(1.2399899 0.00014053085 0)
(1.2399542 0.00013223732 0)
(1.2399204 0.00012446485 0)
(1.2398884 0.00011717461 0)
(1.2398581 0.00011033159 0)
(1.2398294 0.00010390401 0)
(1.2398023 9.7863062e-05 0)
(1.2397767 9.2182422e-05 0)
(1.2397524 8.6838112e-05 0)
(1.2397295 8.1808093e-05 0)
(1.2397079 7.707218e-05 0)
(1.2396874 7.2611713e-05 0)
(1.2396681 6.8409536e-05 0)
(1.2396499 6.4449707e-05 0)
(1.2396327 6.0717516e-05 0)
(1.2396165 5.7199228e-05 0)
(1.2396011 5.3882139e-05 0)
(1.2395867 5.0754337e-05 0)
(1.239573 4.7804773e-05 0)
(1.2395602 4.502305e-05 0)
(1.2395481 4.2399511e-05 0)
(1.2395366 3.9925036e-05 0)
(1.2395259 3.7591143e-05 0)
(1.2395157 3.5389796e-05 0)
(1.2395062 3.3313518e-05 0)
(1.2394971 3.135521e-05 0)
(1.2394887 2.9508258e-05 0)
(1.2394807 2.7766366e-05 0)
(1.2394731 2.6123678e-05 0)
(1.2394661 2.4574603e-05 0)
(1.2394594 2.3113939e-05 0)
(1.2394531 2.173671e-05 0)
(1.2394472 2.0438294e-05 0)
(1.2394417 1.9214262e-05 0)
(1.2394364 1.8060496e-05 0)
(1.2394315 1.6973046e-05 0)
(1.2394269 1.5948242e-05 0)
(1.2394226 1.4982569e-05 0)
(1.2394185 1.4072742e-05 0)
(1.2394147 1.3215632e-05 0)
(1.2394111 1.2408295e-05 0)
(1.2394077 1.1647958e-05 0)
(1.2394045 1.093196e-05 0)
(1.2394015 1.0257862e-05 0)
(1.2393987 9.6232336e-06 0)
(1.2393961 9.0259706e-06 0)
(1.2393936 8.4637979e-06 0)
(1.2393913 7.9349687e-06 0)
(1.2393891 7.4372683e-06 0)
(1.2393871 6.9693845e-06 0)
(1.2393852 6.5290047e-06 0)
(1.2393834 6.1153979e-06 0)
(1.2393817 5.7259051e-06 0)
(1.2393802 5.3606734e-06 0)
(1.2393787 5.0162578e-06 0)
(1.2393773 4.6942177e-06 0)
(1.239376 4.3895638e-06 0)
(1.2393748 4.1062589e-06 0)
(1.2393737 3.8364067e-06 0)
(1.2393727 3.5881592e-06 0)
(1.2393717 3.3482797e-06 0)
(1.2393707 3.1323731e-06 0)
(1.2393699 2.9174525e-06 0)
(1.2393691 2.7325057e-06 0)
(1.2393683 2.5368196e-06 0)
(1.2393676 2.383632e-06 0)
(1.239367 2.2003967e-06 0)
(1.2393664 2.0838935e-06 0)
(1.2393657 1.9060916e-06 0)
(1.2393654 1.8385607e-06 0)
(1.2393646 1.6648558e-06 0)
(1.4854538 5.8407272e-05 0)
(1.4863023 0.00033592988 0)
(1.4865229 0.00057184971 0)
(1.4865853 0.00067394515 0)
(1.4867484 0.00066684165 0)
(1.4870236 0.00061649146 0)
(1.4873273 0.00056806577 0)
(1.4875981 0.00053356669 0)
(1.4878221 0.00050709812 0)
(1.4880121 0.00048134169 0)
(1.4881827 0.00045388357 0)
(1.4883413 0.00042593906 0)
(1.4884889 0.00039933743 0)
(1.4886249 0.00037494276 0)
(1.4887493 0.00035267274 0)
(1.488863 0.00033209791 0)
(1.4889675 0.00031286931 0)
(1.489064 0.00029481556 0)
(1.4891533 0.00027786713 0)
(1.4892362 0.00026197133 0)
(1.489313 0.0002470596 0)
(1.4893844 0.00023305331 0)
(1.4894508 0.00021987799 0)
(1.4895126 0.00020747054 0)
(1.4895703 0.0001957783 0)
(1.4896241 0.00018475556 0)
(1.4896744 0.00017436052 0)
(1.4897214 0.00016455441 0)
(1.4897654 0.00015530107 0)
(1.4898066 0.00014656721 0)
(1.4898452 0.00013832194 0)
(1.4898814 0.00013053682 0)
(1.4899153 0.00012318517 0)
(1.4899472 0.00011624226 0)
(1.4899771 0.00010968473 0)
(1.4900052 0.00010349087 0)
(1.4900316 9.7640146e-05 0)
(1.4900564 9.2113448e-05 0)
(1.4900798 8.6892621e-05 0)
(1.4901017 8.1960798e-05 0)
(1.4901223 7.7301884e-05 0)
(1.4901418 7.2900936e-05 0)
(1.49016 6.8743648e-05 0)
(1.4901772 6.4816758e-05 0)
(1.4901933 6.1107523e-05 0)
(1.4902086 5.7604152e-05 0)
(1.4902229 5.4295275e-05 0)
(1.4902363 5.1170394e-05 0)
(1.490249 4.8219347e-05 0)
(1.4902609 4.5432778e-05 0)
(1.4902721 4.2801594e-05 0)
(1.4902827 4.0317449e-05 0)
(1.4902926 3.79722e-05 0)
(1.490302 3.5758398e-05 0)
(1.4903108 3.3668742e-05 0)
(1.490319 3.1696584e-05 0)
(1.4903268 2.9835378e-05 0)
(1.4903341 2.8079186e-05 0)
(1.490341 2.6422135e-05 0)
(1.4903475 2.4858925e-05 0)
(1.4903535 2.3384285e-05 0)
(1.4903593 2.1993484e-05 0)
(1.4903646 2.0681793e-05 0)
(1.4903697 1.9444984e-05 0)
(1.4903744 1.8278816e-05 0)
(1.4903789 1.7179513e-05 0)
(1.490383 1.6143273e-05 0)
(1.490387 1.5166715e-05 0)
(1.4903907 1.424644e-05 0)
(1.4903941 1.3379412e-05 0)
(1.4903974 1.2562605e-05 0)
(1.4904004 1.1793273e-05 0)
(1.4904033 1.1068749e-05 0)
(1.490406 1.0386513e-05 0)
(1.4904085 9.7442668e-06 0)
(1.4904108 9.1396294e-06 0)
(1.490413 8.5707197e-06 0)
(1.4904151 8.0351651e-06 0)
(1.4904171 7.5316139e-06 0)
(1.4904189 7.0574905e-06 0)
(1.4904206 6.6122058e-06 0)
(1.4904222 6.1926141e-06 0)
(1.4904237 5.799334e-06 0)
(1.4904251 5.4279979e-06 0)
(1.4904264 5.0812712e-06 0)
(1.4904276 4.7523902e-06 0)
(1.4904287 4.4476095e-06 0)
(1.4904298 4.1556527e-06 0)
(1.4904308 3.8891724e-06 0)
(1.4904317 3.6285892e-06 0)
(1.4904326 3.3979744e-06 0)
(1.4904334 3.1627666e-06 0)
(1.4904341 2.967224e-06 0)
(1.4904349 2.750392e-06 0)
(1.4904355 2.5916043e-06 0)
(1.4904362 2.3849464e-06 0)
(1.4904366 2.2684367e-06 0)
(1.4904374 2.0628813e-06 0)
(1.4904376 1.998378e-06 0)
(1.4904384 1.7847931e-06 0)
(1.6054125 1.982402e-05 0)
(1.6063841 0.00011762526 0)
(1.6066982 0.00020435351 0)
(1.6068482 0.00024517224 0)
(1.6071182 0.00024586899 0)
(1.6075258 0.00022942484 0)
(1.6079775 0.00021282702 0)
(1.6083986 0.00020118329 0)
(1.6087688 0.00019257832 0)
(1.6091003 0.00018421965 0)
(1.609409 0.00017507342 0)
(1.6097032 0.0001655385 0)
(1.6099836 0.00015632058 0)
(1.6102489 0.00014778698 0)
(1.6104984 0.00013993686 0)
(1.6107331 0.00013262174 0)
(1.6109542 0.0001257159 0)
(1.6111629 0.00011916095 0)
(1.6113602 0.00011293925 0)
(1.6115466 0.00010704074 0)
(1.6117227 0.0001014491 0)
(1.611889 9.6143238e-05 0)
(1.6120462 9.1102779e-05 0)
(1.6121947 8.6310957e-05 0)
(1.6123351 8.1754442e-05 0)
(1.6124677 7.7421948e-05 0)
(1.6125929 7.3303156e-05 0)
(1.6127113 6.9388249e-05 0)
(1.6128231 6.5667889e-05 0)
(1.6129288 6.2133221e-05 0)
(1.6130285 5.8775867e-05 0)
(1.6131228 5.5587868e-05 0)
(1.6132118 5.2561593e-05 0)
(1.6132958 4.9689715e-05 0)
(1.6133751 4.6965162e-05 0)
(1.61345 4.4381139e-05 0)
(1.6135207 4.1931089e-05 0)
(1.6135875 3.960871e-05 0)
(1.6136504 3.7407933e-05 0)
(1.6137099 3.532294e-05 0)
(1.613766 3.3348123e-05 0)
(1.6138189 3.1478117e-05 0)
(1.6138688 2.970776e-05 0)
(1.6139158 2.8032125e-05 0)
(1.6139602 2.6446479e-05 0)
(1.6140021 2.4946305e-05 0)
(1.6140415 2.3527272e-05 0)
(1.6140787 2.2185263e-05 0)
(1.6141138 2.0916324e-05 0)
(1.6141468 1.9716703e-05 0)
(1.6141779 1.8582803e-05 0)
(1.6142073 1.7511218e-05 0)
(1.6142349 1.6498685e-05 0)
(1.6142609 1.5542112e-05 0)
(1.6142854 1.4638541e-05 0)
(1.6143085 1.3785183e-05 0)
(1.6143302 1.2979363e-05 0)
(1.6143506 1.2218558e-05 0)
(1.6143699 1.1500352e-05 0)
(1.614388 1.0822476e-05 0)
(1.614405 1.0182753e-05 0)
(1.614421 9.579137e-06 0)
(1.6144361 9.0096663e-06 0)
(1.6144503 8.4725026e-06 0)
(1.6144636 7.9658857e-06 0)
(1.6144761 7.4881561e-06 0)
(1.6144879 7.0377338e-06 0)
(1.614499 6.6131268e-06 0)
(1.6145093 6.2129249e-06 0)
(1.6145191 5.8357732e-06 0)
(1.6145283 5.4804188e-06 0)
(1.6145369 5.1456298e-06 0)
(1.6145449 4.830311e-06 0)
(1.6145525 4.5333148e-06 0)
(1.6145596 4.2537095e-06 0)
(1.6145663 3.9904e-06 0)
(1.6145725 3.7426493e-06 0)
(1.6145784 3.50934e-06 0)
(1.6145839 3.28999e-06 0)
(1.6145891 3.0833596e-06 0)
(1.6145939 2.88935e-06 0)
(1.6145984 2.7063977e-06 0)
(1.6146026 2.5350236e-06 0)
(1.6146066 2.3730061e-06 0)
(1.6146103 2.2219332e-06 0)
(1.6146138 2.0783001e-06 0)
(1.614617 1.9455673e-06 0)
(1.6146201 1.8178606e-06 0)
(1.6146229 1.701956e-06 0)
(1.6146256 1.5876821e-06 0)
(1.614628 1.4876313e-06 0)
(1.6146304 1.3840608e-06 0)
(1.6146325 1.2995986e-06 0)
(1.6146347 1.2035903e-06 0)
(1.6146363 1.1355322e-06 0)
(1.6146384 1.0435703e-06 0)
(1.6146396 9.942285e-07 0)
(1.6146417 9.0227296e-07 0)
(1.6146424 8.7495169e-07 0)
(1.6146447 7.779159e-07 0)
(1.6054123 -1.9822822e-05 0)
(1.606384 -0.00011762135 0)
(1.6066981 -0.00020435319 0)
(1.6068481 -0.00024517646 0)
(1.6071181 -0.00024587293 0)
(1.6075258 -0.00022942133 0)
(1.6079774 -0.00021281416 0)
(1.6083985 -0.00020116304 0)
(1.6087688 -0.00019255446 0)
(1.6091002 -0.00018419414 0)
(1.609409 -0.00017504715 0)
(1.6097032 -0.00016551142 0)
(1.6099836 -0.00015629314 0)
(1.6102489 -0.00014775966 0)
(1.6104984 -0.00013991043 0)
(1.6107331 -0.00013259669 0)
(1.6109542 -0.00012569269 0)
(1.6111629 -0.00011913978 0)
(1.6113602 -0.00011292033 0)
(1.6115466 -0.00010702417 0)
(1.6117227 -0.00010143492 0)
(1.611889 -9.6131465e-05 0)
(1.6120462 -9.1093312e-05 0)
(1.6121947 -8.6303741e-05 0)
(1.6123351 -8.1749283e-05 0)
(1.6124677 -7.7418762e-05 0)
(1.612593 -7.3301693e-05 0)
(1.6127113 -6.9388413e-05 0)
(1.6128231 -6.5669388e-05 0)
(1.6129288 -6.2135965e-05 0)
(1.6130285 -5.877958e-05 0)
(1.6131228 -5.55925e-05 0)
(1.6132118 -5.2566892e-05 0)
(1.6132958 -4.9695677e-05 0)
(1.6133751 -4.6971559e-05 0)
(1.61345 -4.4388001e-05 0)
(1.6135207 -4.1938204e-05 0)
(1.6135875 -3.961615e-05 0)
(1.6136505 -3.7415505e-05 0)
(1.6137099 -3.5330731e-05 0)
(1.613766 -3.3355945e-05 0)
(1.6138189 -3.1486078e-05 0)
(1.6138688 -2.9715675e-05 0)
(1.6139158 -2.8040107e-05 0)
(1.6139602 -2.6454339e-05 0)
(1.614002 -2.495417e-05 0)
(1.6140415 -2.353496e-05 0)
(1.6140787 -2.2192902e-05 0)
(1.6141138 -2.0923733e-05 0)
(1.6141468 -1.972403e-05 0)
(1.6141779 -1.8589876e-05 0)
(1.6142072 -1.7518191e-05 0)
(1.6142349 -1.650539e-05 0)
(1.6142609 -1.554872e-05 0)
(1.6142854 -1.4644897e-05 0)
(1.6143085 -1.3791455e-05 0)
(1.6143302 -1.2985395e-05 0)
(1.6143506 -1.222453e-05 0)
(1.6143699 -1.1506112e-05 0)
(1.614388 -1.0828195e-05 0)
(1.614405 -1.018827e-05 0)
(1.614421 -9.5846257e-06 0)
(1.6144361 -9.0149644e-06 0)
(1.6144503 -8.4777721e-06 0)
(1.6144636 -7.9709535e-06 0)
(1.6144761 -7.493186e-06 0)
(1.6144879 -7.0425525e-06 0)
(1.6144989 -6.6178883e-06 0)
(1.6145093 -6.2174494e-06 0)
(1.6145191 -5.8402214e-06 0)
(1.6145282 -5.4846162e-06 0)
(1.6145368 -5.1497325e-06 0)
(1.6145449 -4.8341435e-06 0)
(1.6145525 -4.5370447e-06 0)
(1.6145596 -4.2571706e-06 0)
(1.6145663 -3.9937584e-06 0)
(1.6145725 -3.7457397e-06 0)
(1.6145784 -3.5123414e-06 0)
(1.6145839 -3.2927463e-06 0)
(1.6145891 -3.086048e-06 0)
(1.6145939 -2.8918135e-06 0)
(1.6145984 -2.7088254e-06 0)
(1.6146026 -2.5372648e-06 0)
(1.6146066 -2.3752474e-06 0)
(1.6146103 -2.2240199e-06 0)
(1.6146138 -2.0804306e-06 0)
(1.614617 -1.9475906e-06 0)
(1.6146201 -1.8199734e-06 0)
(1.6146229 -1.7040038e-06 0)
(1.6146256 -1.5898752e-06 0)
(1.614628 -1.4898349e-06 0)
(1.6146304 -1.3865089e-06 0)
(1.6146325 -1.3021955e-06 0)
(1.6146347 -1.2065257e-06 0)
(1.6146363 -1.1386972e-06 0)
(1.6146384 -1.0468829e-06 0)
(1.6146396 -9.977744e-07 0)
(1.6146417 -9.0578038e-07 0)
(1.6146424 -8.7916385e-07 0)
(1.6146447 -7.8333789e-07 0)
(1.4854538 -5.8407599e-05 0)
(1.4863023 -0.0003359381 0)
(1.4865229 -0.00057186594 0)
(1.4865853 -0.00067396492 0)
(1.4867484 -0.00066685829 0)
(1.4870236 -0.00061650091 0)
(1.4873273 -0.00056806696 0)
(1.4875981 -0.00053356136 0)
(1.4878221 -0.00050708806 0)
(1.4880121 -0.00048132838 0)
(1.4881827 -0.00045386759 0)
(1.4883413 -0.00042592104 0)
(1.488489 -0.00039931793 0)
(1.4886249 -0.0003749226 0)
(1.4887493 -0.0003526526 0)
(1.488863 -0.00033207842 0)
(1.4889675 -0.0003128509 0)
(1.489064 -0.00029479858 0)
(1.4891534 -0.00027785182 0)
(1.4892362 -0.00026195783 0)
(1.489313 -0.00024704803 0)
(1.4893844 -0.00023304366 0)
(1.4894508 -0.00021987027 0)
(1.4895127 -0.00020746463 0)
(1.4895703 -0.00019577415 0)
(1.4896241 -0.00018475298 0)
(1.4896744 -0.00017435943 0)
(1.4897214 -0.00016455458 0)
(1.4897654 -0.00015530243 0)
(1.4898066 -0.00014656954 0)
(1.4898452 -0.00013832517 0)
(1.4898814 -0.00013054073 0)
(1.4899154 -0.00012318973 0)
(1.4899472 -0.00011624726 0)
(1.4899771 -0.00010969018 0)
(1.4900052 -0.00010349659 0)
(1.4900317 -9.7646167e-05 0)
(1.4900565 -9.2119613e-05 0)
(1.4900798 -8.6898985e-05 0)
(1.4901017 -8.1967211e-05 0)
(1.4901224 -7.7308418e-05 0)
(1.4901418 -7.2907452e-05 0)
(1.49016 -6.8750224e-05 0)
(1.4901772 -6.482325e-05 0)
(1.4901934 -6.111402e-05 0)
(1.4902086 -5.7610518e-05 0)
(1.4902229 -5.4301601e-05 0)
(1.4902363 -5.117654e-05 0)
(1.490249 -4.8225418e-05 0)
(1.4902609 -4.5438645e-05 0)
(1.4902721 -4.2807367e-05 0)
(1.4902827 -4.0323001e-05 0)
(1.4902926 -3.7977654e-05 0)
(1.490302 -3.5763639e-05 0)
(1.4903107 -3.3673897e-05 0)
(1.490319 -3.1701537e-05 0)
(1.4903268 -2.9840262e-05 0)
(1.4903341 -2.8083893e-05 0)
(1.490341 -2.6426794e-05 0)
(1.4903474 -2.4863419e-05 0)
(1.4903535 -2.3388747e-05 0)
(1.4903592 -2.1997796e-05 0)
(1.4903646 -2.0686077e-05 0)
(1.4903696 -1.9449114e-05 0)
(1.4903744 -1.8282914e-05 0)
(1.4903788 -1.7183453e-05 0)
(1.490383 -1.6147168e-05 0)
(1.4903869 -1.5170431e-05 0)
(1.4903906 -1.4250093e-05 0)
(1.4903941 -1.3382874e-05 0)
(1.4903973 -1.2565988e-05 0)
(1.4904004 -1.1796445e-05 0)
(1.4904032 -1.107183e-05 0)
(1.4904059 -1.0389381e-05 0)
(1.4904084 -9.7470415e-06 0)
(1.4904108 -9.1421874e-06 0)
(1.490413 -8.5731905e-06 0)
(1.4904151 -8.0374354e-06 0)
(1.490417 -7.5338134e-06 0)
(1.4904188 -7.0595046e-06 0)
(1.4904205 -6.6141722e-06 0)
(1.4904221 -6.1944265e-06 0)
(1.4904236 -5.801129e-06 0)
(1.490425 -5.4296654e-06 0)
(1.4904263 -5.0829554e-06 0)
(1.4904275 -4.7539863e-06 0)
(1.4904287 -4.4492621e-06 0)
(1.4904297 -4.1572498e-06 0)
(1.4904307 -3.89087e-06 0)
(1.4904317 -3.6302803e-06 0)
(1.4904325 -3.3998308e-06 0)
(1.4904334 -3.1646825e-06 0)
(1.4904341 -2.9693939e-06 0)
(1.4904348 -2.752707e-06 0)
(1.4904354 -2.5941821e-06 0)
(1.4904361 -2.3876206e-06 0)
(1.4904365 -2.2712781e-06 0)
(1.4904373 -2.0656401e-06 0)
(1.4904375 -2.0015069e-06 0)
(1.4904383 -1.788374e-06 0)
(1.2408513 -9.2856162e-05 0)
(1.2414501 -0.00049602667 0)
(1.2414693 -0.00080460394 0)
(1.2413343 -0.00090881815 0)
(1.2412627 -0.00086802194 0)
(1.2412623 -0.00078010294 0)
(1.2412734 -0.00070258003 0)
(1.2412576 -0.00064644259 0)
(1.2412113 -0.00060190345 0)
(1.241147 -0.00055966101 0)
(1.2410767 -0.00051725757 0)
(1.2410058 -0.00047640161 0)
(1.2409352 -0.00043908585 0)
(1.2408648 -0.00040594125 0)
(1.2407946 -0.000376504 0)
(1.2407252 -0.00035001161 0)
(1.2406573 -0.00032588278 0)
(1.2405916 -0.00030378699 0)
(1.2405282 -0.00028352882 0)
(1.2404672 -0.0002649433 0)
(1.2404087 -0.00024786018 0)
(1.2403526 -0.00023211248 0)
(1.2402991 -0.00021755226 0)
(1.240248 -0.00020405594 0)
(1.2401994 -0.0001915211 0)
(1.2401531 -0.00017985997 0)
(1.2401091 -0.00016899562 0)
(1.2400673 -0.00015885918 0)
(1.2400276 -0.00014938967 0)
(1.2399899 -0.00014053253 0)
(1.2399543 -0.00013223964 0)
(1.2399205 -0.00012446757 0)
(1.2398885 -0.00011717778 0)
(1.2398582 -0.00011033499 0)
(1.2398295 -0.00010390772 0)
(1.2398024 -9.7866865e-05 0)
(1.2397767 -9.2186446e-05 0)
(1.2397525 -8.6842143e-05 0)
(1.2397296 -8.1812271e-05 0)
(1.2397079 -7.7076301e-05 0)
(1.2396875 -7.2615943e-05 0)
(1.2396681 -6.8413666e-05 0)
(1.2396499 -6.4453905e-05 0)
(1.2396327 -6.0721574e-05 0)
(1.2396165 -5.7203331e-05 0)
(1.2396011 -5.3886074e-05 0)
(1.2395867 -5.0758285e-05 0)
(1.239573 -4.7808525e-05 0)
(1.2395602 -4.5026805e-05 0)
(1.2395481 -4.2403058e-05 0)
(1.2395366 -3.9928572e-05 0)
(1.2395259 -3.7594462e-05 0)
(1.2395157 -3.5393113e-05 0)
(1.2395061 -3.3316629e-05 0)
(1.2394971 -3.1358323e-05 0)
(1.2394886 -2.9511173e-05 0)
(1.2394806 -2.7769308e-05 0)
(1.2394731 -2.6126441e-05 0)
(1.239466 -2.4577401e-05 0)
(1.2394594 -2.3116568e-05 0)
(1.2394531 -2.1739393e-05 0)
(1.2394472 -2.0440819e-05 0)
(1.2394416 -1.9216837e-05 0)
(1.2394364 -1.8062909e-05 0)
(1.2394315 -1.6975513e-05 0)
(1.2394269 -1.5950544e-05 0)
(1.2394225 -1.4984908e-05 0)
(1.2394185 -1.4074901e-05 0)
(1.2394146 -1.3217822e-05 0)
(1.239411 -1.2410295e-05 0)
(1.2394076 -1.1649971e-05 0)
(1.2394045 -1.093377e-05 0)
(1.2394015 -1.0259683e-05 0)
(1.2393987 -9.6248502e-06 0)
(1.239396 -9.0275906e-06 0)
(1.2393936 -8.4652119e-06 0)
(1.2393913 -7.9363992e-06 0)
(1.2393891 -7.4385063e-06 0)
(1.2393871 -6.9706447e-06 0)
(1.2393851 -6.530084e-06 0)
(1.2393834 -6.1165248e-06 0)
(1.2393817 -5.7268751e-06 0)
(1.2393801 -5.3617068e-06 0)
(1.2393786 -5.0171528e-06 0)
(1.2393773 -4.6952093e-06 0)
(1.239376 -4.3904448e-06 0)
(1.2393748 -4.1072595e-06 0)
(1.2393737 -3.8373178e-06 0)
(1.2393726 -3.589231e-06 0)
(1.2393716 -3.3492954e-06 0)
(1.2393707 -3.1335872e-06 0)
(1.2393698 -2.9186293e-06 0)
(1.239369 -2.7339075e-06 0)
(1.2393683 -2.5382092e-06 0)
(1.2393676 -2.3852082e-06 0)
(1.2393669 -2.2020637e-06 0)
(1.2393663 -2.0855611e-06 0)
(1.2393657 -1.9077254e-06 0)
(1.2393653 -1.8399996e-06 0)
(1.2393645 -1.6657754e-06 0)
(0.86285104 -0.00011653328 0)
(0.8630625 -0.0005390578 0)
(0.86275608 -0.00079060239 0)
(0.86230491 -0.00080869701 0)
(0.86189231 -0.00070181751 0)
(0.86153875 -0.00057894959 0)
(0.86121579 -0.00048638567 0)
(0.86090511 -0.00042355056 0)
(0.8606055 -0.00037628296 0)
(0.86032239 -0.00033517033 0)
(0.86005977 -0.00029793676 0)
(0.8598181 -0.00026542122 0)
(0.85959563 -0.00023822595 0)
(0.8593901 -0.00021582784 0)
(0.85919959 -0.00019711059 0)
(0.85902267 -0.00018103444 0)
(0.85885816 -0.00016691192 0)
(0.85870502 -0.00015435485 0)
(0.85856227 -0.00014312558 0)
(0.85842902 -0.00013303637 0)
(0.85830447 -0.00012391796 0)
(0.8581879 -0.00011562354 0)
(0.85807871 -0.00010803501 0)
(0.85797633 -0.00010106151 0)
(0.85788027 -9.4631963e-05 0)
(0.85779008 -8.8688415e-05 0)
(0.85770536 -8.318127e-05 0)
(0.85762573 -7.8067765e-05 0)
(0.85755086 -7.3310513e-05 0)
(0.85748043 -6.8877348e-05 0)
(0.85741416 -6.4739969e-05 0)
(0.8573518 -6.0873812e-05 0)
(0.85729308 -5.7256796e-05 0)
(0.8572378 -5.3869553e-05 0)
(0.85718574 -5.069441e-05 0)
(0.8571367 -4.7715821e-05 0)
(0.85709051 -4.4919403e-05 0)
(0.857047 -4.2292496e-05 0)
(0.85700601 -3.9823241e-05 0)
(0.85696739 -3.7501198e-05 0)
(0.85693101 -3.5316433e-05 0)
(0.85689673 -3.3260218e-05 0)
(0.85686443 -3.1324155e-05 0)
(0.85683401 -2.9500888e-05 0)
(0.85680534 -2.7783218e-05 0)
(0.85677834 -2.6164878e-05 0)
(0.85675291 -2.4639662e-05 0)
(0.85672895 -2.3202203e-05 0)
(0.85670639 -2.1847083e-05 0)
(0.85668514 -2.0569662e-05 0)
(0.85666513 -1.9365202e-05 0)
(0.85664629 -1.8229684e-05 0)
(0.85662855 -1.7158915e-05 0)
(0.85661185 -1.6149384e-05 0)
(0.85659613 -1.5197387e-05 0)
(0.85658134 -1.4299865e-05 0)
(0.85656742 -1.3453505e-05 0)
(0.85655433 -1.2655621e-05 0)
(0.85654201 -1.1903268e-05 0)
(0.85653042 -1.1194097e-05 0)
(0.85651952 -1.052546e-05 0)
(0.85650927 -9.8952864e-06 0)
(0.85649964 -9.3012132e-06 0)
(0.85649058 -8.7414316e-06 0)
(0.85648207 -8.2138042e-06 0)
(0.85647408 -7.7167349e-06 0)
(0.85646656 -7.2483123e-06 0)
(0.8564595 -6.8071418e-06 0)
(0.85645287 -6.3914903e-06 0)
(0.85644665 -6.0001205e-06 0)
(0.85644081 -5.6314868e-06 0)
(0.85643532 -5.2845007e-06 0)
(0.85643018 -4.9577674e-06 0)
(0.85642535 -4.6503016e-06 0)
(0.85642082 -4.3608832e-06 0)
(0.85641658 -4.0886139e-06 0)
(0.85641259 -3.8324328e-06 0)
(0.85640886 -3.5914657e-06 0)
(0.85640537 -3.3648671e-06 0)
(0.85640209 -3.1517372e-06 0)
(0.85639902 -2.9514825e-06 0)
(0.85639615 -2.7630545e-06 0)
(0.85639345 -2.5862518e-06 0)
(0.85639094 -2.4197261e-06 0)
(0.85638858 -2.2638404e-06 0)
(0.85638638 -2.1166565e-06 0)
(0.85638431 -1.9794578e-06 0)
(0.85638239 -1.849299e-06 0)
(0.85638059 -1.7288916e-06 0)
(0.85637891 -1.6135927e-06 0)
(0.85637733 -1.5083717e-06 0)
(0.85637587 -1.4059014e-06 0)
(0.8563745 -1.3145861e-06 0)
(0.85637321 -1.2230525e-06 0)
(0.85637204 -1.1449463e-06 0)
(0.85637089 -1.0631371e-06 0)
(0.85636993 -9.9850288e-07 0)
(0.85636882 -9.2775436e-07 0)
(0.85636818 -8.8179011e-07 0)
(0.85636686 -8.3983028e-07 0)
(0.33987928 -0.00010865061 0)
(0.33964787 -0.00033439297 0)
(0.33911585 -0.00038463166 0)
(0.33855511 -0.00030808391 0)
(0.33808385 -0.0002084849 0)
(0.33771302 -0.00013954862 0)
(0.33741578 -0.0001038783 0)
(0.33716571 -8.6025702e-05 0)
(0.33694752 -7.4025088e-05 0)
(0.33675456 -6.3592044e-05 0)
(0.33658364 -5.4611951e-05 0)
(0.33643194 -4.7630877e-05 0)
(0.33629638 -4.2556246e-05 0)
(0.33617401 -3.8812697e-05 0)
(0.33606249 -3.5814679e-05 0)
(0.33596013 -3.3205528e-05 0)
(0.33586575 -3.0843538e-05 0)
(0.33577847 -2.8693185e-05 0)
(0.33569755 -2.6741264e-05 0)
(0.33562235 -2.4966518e-05 0)
(0.33555233 -2.3342032e-05 0)
(0.33548701 -2.1844442e-05 0)
(0.33542599 -2.0457453e-05 0)
(0.33536892 -1.9170513e-05 0)
(0.3353155 -1.7975478e-05 0)
(0.33526544 -1.6865123e-05 0)
(0.33521851 -1.5832197e-05 0)
(0.33517447 -1.4870138e-05 0)
(0.33513312 -1.3972741e-05 0)
(0.33509428 -1.3134823e-05 0)
(0.33505777 -1.2351462e-05 0)
(0.33502345 -1.1618567e-05 0)
(0.33499118 -1.0932076e-05 0)
(0.33496081 -1.0288692e-05 0)
(0.33493224 -9.685036e-06 0)
(0.33490535 -9.1184442e-06 0)
(0.33488003 -8.5860838e-06 0)
(0.33485619 -8.0858142e-06 0)
(0.33483375 -7.6152472e-06 0)
(0.33481261 -7.1726351e-06 0)
(0.33479271 -6.7559184e-06 0)
(0.33477396 -6.3636784e-06 0)
(0.3347563 -5.9941377e-06 0)
(0.33473967 -5.6461237e-06 0)
(0.33472401 -5.318065e-06 0)
(0.33470925 -5.0090057e-06 0)
(0.33469536 -4.7175619e-06 0)
(0.33468228 -4.4429369e-06 0)
(0.33466995 -4.1838796e-06 0)
(0.33465835 -3.9397424e-06 0)
(0.33464743 -3.7094068e-06 0)
(0.33463714 -3.4923322e-06 0)
(0.33462746 -3.2874891e-06 0)
(0.33461834 -3.0944459e-06 0)
(0.33460976 -2.9122724e-06 0)
(0.33460169 -2.7406115e-06 0)
(0.33459409 -2.5785966e-06 0)
(0.33458695 -2.4259534e-06 0)
(0.33458022 -2.2818935e-06 0)
(0.3345739 -2.1461968e-06 0)
(0.33456795 -2.0181206e-06 0)
(0.33456236 -1.8975101e-06 0)
(0.3345571 -1.7836862e-06 0)
(0.33455216 -1.6765331e-06 0)
(0.33454752 -1.5754048e-06 0)
(0.33454315 -1.4802374e-06 0)
(0.33453905 -1.3904379e-06 0)
(0.3345352 -1.3059688e-06 0)
(0.33453158 -1.2262615e-06 0)
(0.33452819 -1.1513191e-06 0)
(0.334525 -1.0806188e-06 0)
(0.33452201 -1.0141795e-06 0)
(0.3345192 -9.5149818e-07 0)
(0.33451656 -8.9262284e-07 0)
(0.33451409 -8.3709536e-07 0)
(0.33451177 -7.84966e-07 0)
(0.3345096 -7.3580041e-07 0)
(0.33450756 -6.8966052e-07 0)
(0.33450566 -6.4616802e-07 0)
(0.33450387 -6.0536187e-07 0)
(0.33450219 -5.6691059e-07 0)
(0.33450062 -5.3082579e-07 0)
(0.33449915 -4.9687325e-07 0)
(0.33449778 -4.6498103e-07 0)
(0.33449649 -4.3503102e-07 0)
(0.33449529 -4.0683058e-07 0)
(0.33449416 -3.8046698e-07 0)
(0.33449311 -3.5552756e-07 0)
(0.33449213 -3.3237332e-07 0)
(0.33449121 -3.1028678e-07 0)
(0.33449035 -2.9000907e-07 0)
(0.33448955 -2.704377e-07 0)
(0.3344888 -2.5267785e-07 0)
(0.3344881 -2.354867e-07 0)
(0.33448746 -2.1998665e-07 0)
(0.33448684 -2.0557668e-07 0)
(0.33448629 -1.9183816e-07 0)
(0.33448573 -1.8318484e-07 0)
(0.3344853 -1.7310466e-07 0)
(0.33448463 -1.9279698e-07 0)
)
;

boundaryField
{
    top
    {
        type            fixedValue;
        value           uniform (0 0 0);
    }
    inlet
    {
        type            pressureNormalInletOutletVelocity;
        phi             phi;
        rho             rho;