/*--------------------------------*- C++ -*----------------------------------*\
| =========                 |                                                 |
| \\      /  F ield         | OpenFOAM: The Open Source CFD Toolbox           |
|  \\    /   O peration     | Version:  v1812                                 |
|   \\  /    A nd           | Web:      www.OpenFOAM.com                      |
|    \\/     M anipulation  |                                                 |
\*---------------------------------------------------------------------------*/
FoamFile
{
    version     2.0;
    format      ascii;
    class       volScalarField;
    location    "13";
    object      p;
}
// * * * * * * * * * * * * * * * * * * * * * * * * * * * * * * * * * * * * * //

dimensions      [0 2 -2 0 0 0 0];


internalField   nonuniform List<scalar> 
1000
(
1.6755988
1.5545209
1.4585404
1.3948843
1.3463748
1.3039027
1.2663675
1.2341958
1.2067954
1.1829578
1.1615635
1.1417997
1.1231225
1.105183
1.0877676
1.0707535
1.0540726
1.0376884
1.0215802
1.0057343
0.99013932
0.97478421
0.95965751
0.94474726
0.93004126
0.91552727
0.9011933
0.88702781
0.87301976
0.85915876
0.84543505
0.8318395
0.8183636
0.80499942
0.79173957
0.7785772
0.7655059
0.7525197
0.73961305
0.72678074
0.71401795
0.70132013
0.68868308
0.67610286
0.66357576
0.65109836
0.63866743
0.62627995
0.61393311
0.60162427
0.58935096
0.57711086
0.56490182
0.55272182
0.54056898
0.52844152
0.51633781
0.50425631
0.49219555
0.4801542
0.46813097
0.45612468
0.44413421
0.43215855
0.42019672
0.40824782
0.39631103
0.38438554
0.37247062
0.36056557
0.34866974
0.33678252
0.32490333
0.31303165
0.301167
0.28930892
0.277457
0.26561083
0.25377003
0.24193424
0.23010311
0.21827635
0.20645365
0.19463475
0.18281942
0.17100743
0.15919857
0.14739263
0.13558942
0.12378874
0.11199041
0.10019429
0.088400228
0.076608103
0.064817778
0.05302915
0.041242177
0.02945664
0.017672703
0.0058897225
1.5583791
1.50345
1.4424975
1.3909298
1.3476598
1.3086914
1.2731052
1.2413326
1.2133717
1.1885938
1.1661919
1.1454906
1.1260089
1.1074209
1.0895073
1.0721226
1.0551707
1.0385893
1.0223367
1.0063832
0.99070614
0.97528659
0.96010774
0.94515407
0.93041102
0.9158648
0.9015024
0.88731153
0.8732807
0.85939913
0.84565676
0.83204425
0.81855289
0.80517459
0.79190184
0.77872763
0.76564545
0.75264926
0.73973339
0.7268926
0.71412196
0.7014169
0.68877314
0.6761867
0.66365385
0.65117111
0.63873522
0.62634315
0.61399203
0.6016792
0.58940218
0.57715864
0.56494639
0.5527634
0.54060778
0.52847773
0.51637161
0.50428786
0.492225
0.48018169
0.46815662
0.45614862
0.44415657
0.43217942
0.4202162
0.40826602
0.39632803
0.38440142
0.37248545
0.36057942
0.34868267
0.33679458
0.32491459
0.31304217
0.30117682
0.28931811
0.27746558
0.26561885
0.25377752
0.24194123
0.23010964
0.21828243
0.20645933
0.19464006
0.18282438
0.17101207
0.15920291
0.1473967
0.13559321
0.12379228
0.1119937
0.10019735
0.088403085
0.076610775
0.064820281
0.053031462
0.041244343
0.029458527
0.017674387
0.0058905621
1.4975578
1.4713827
1.4329859
1.391853
1.3527677
1.3161769
1.2818793
1.2501617
1.2213056
1.1952045
1.1714506
1.1495605
1.1291107
1.1097698
1.0912897
1.0734886
1.0562368
1.0394412
1.0230351
1.00697
0.99120963
0.97572594
0.96049607
0.94550057
0.93072231
0.91614582
0.901757
0.88754283
0.87349129
0.85959122
0.8458323
0.83220492
0.81870018
0.80530982
0.79202616
0.77884208
0.76575094
0.7527466
0.73982331
0.72697574
0.7141989
0.70148817
0.68883921
0.67624799
0.66371075
0.65122397
0.63878435
0.62638881
0.6140345
0.60171872
0.58943895
0.57719287
0.56497826
0.5527931
0.54063545
0.52850354
0.51639568
0.5043103
0.49224593
0.48020119
0.46817481
0.45616557
0.44417237
0.43219417
0.42022998
0.40827889
0.39634005
0.38441265
0.37249594
0.36058919
0.34869177
0.33680306
0.3249225
0.31304955
0.30118374
0.28932458
0.27747165
0.26562453
0.25378282
0.24194616
0.23011421
0.21828668
0.20646329
0.19464376
0.18282787
0.17101536
0.159206
0.14739958
0.13559589
0.12379475
0.11199598
0.10019946
0.088405046
0.076612631
0.064822014
0.053033082
0.04124574
0.029459709
0.017675062
0.0058910207
1.4681493
1.4526512
1.4257813
1.3918574
1.3560564
1.3211051
1.2878032
1.2564501
1.2273194
1.2005279
1.1759404
1.1532482
1.1320964
1.1121676
1.0932094
1.0750297
1.057484
1.040463
1.0238844
1.0076864
0.99182237
0.97625662
0.96096066
0.94591099
0.93108755
0.91647283
0.90205119
0.88780856
0.87373211
0.85981009
0.84603172
0.83238702
0.8188668
0.80546255
0.79216639
0.77897103
0.76586969
0.75285609
0.73992437
0.72706912
0.71428527
0.70156813
0.6889133
0.67631669
0.6637745
0.65128315
0.63883933
0.62643991
0.61408201
0.6017629
0.58948006
0.57723113
0.56501389
0.55282628
0.54066637
0.52853236
0.51642254
0.50433534
0.49226927
0.48022295
0.46819509
0.45618448
0.44419001
0.43221063
0.42024535
0.40829325
0.39635346
0.38442517
0.37250761
0.36060008
0.34870192
0.33681252
0.32493132
0.3130578
0.30119146
0.28933181
0.27747841
0.26563084
0.25378869
0.24195163
0.2301193
0.21829143
0.20646772
0.19464792
0.18283177
0.17101903
0.15920943
0.14740278
0.13559885
0.1237975
0.11199852
0.10020185
0.088407243
0.076614712
0.064823931
0.053034917
0.041247206
0.029461062
0.01767587
0.0058920393
1.4554178
1.4434644
1.42123
1.3909425
1.3570813
1.3230857
1.2903882
1.2593826
1.2302852
1.2032733
1.1783463
1.1552967
1.1338152
1.1135975
1.094394
1.0760118
1.0583029
1.0411524
1.0244715
1.0081924
0.99226341
0.97664485
0.96130533
0.94621918
0.93136472
0.91672324
0.90227826
0.88801507
0.87392038
0.85998209
0.84618912
0.83253129
0.81899922
0.80558426
0.79227839
0.77907421
0.76596484
0.75294393
0.74000554
0.72714418
0.71435475
0.70163248
0.68897295
0.67637202
0.66382584
0.65133082
0.63888361
0.62648107
0.61412027
0.60179849
0.58951318
0.57726195
0.56504259
0.55285302
0.54069128
0.52855556
0.51644416
0.50435549
0.49228805
0.48024046
0.46821142
0.45619972
0.44420423
0.4322239
0.42025773
0.4083048
0.39636423
0.38443521
0.37251697
0.36060881
0.34871008
0.33682015
0.32493846
0.31306448
0.30119769
0.28933762
0.27748382
0.26563587
0.25379338
0.241956
0.2301234
0.21829528
0.20647133
0.19465131
0.18283492
0.17102195
0.15921213
0.14740529
0.13560118
0.1237997
0.11200061
0.10020384
0.088409052
0.076616434
0.064825484
0.053036322
0.041248279
0.029462213
0.01767672
0.0058930793
1.4554178
1.4434644
1.4212301
1.3909425
1.3570813
1.3230857
1.2903881
1.2593826
1.2302852
1.2032733
1.1783463
1.1552967
1.1338152
1.1135975
1.094394
1.0760117
1.0583028
1.0411524
1.0244715
1.0081924
0.99226341
0.97664486
0.96130534
0.94621918
0.93136472
0.91672324
0.90227826
0.88801506
0.87392037
0.85998209
0.84618912
0.83253129
0.81899923
0.80558426
0.79227839
0.77907421
0.76596484
0.75294392
0.74000553
0.72714418
0.71435475
0.70163248
0.68897295
0.67637203
0.66382585
0.65133083
0.63888361
0.62648106
0.61412026
0.60179848
0.58951317
0.57726195
0.5650426
0.55285303
0.54069129
0.52855557
0.51644417
0.50435548
0.49228803
0.48024044
0.4682114
0.45619972
0.44420424
0.43222392
0.42025776
0.40830482
0.39636423
0.3844352
0.37251695
0.36060879
0.34871006
0.33682015
0.32493847
0.3130645
0.30119771
0.28933764
0.27748382
0.26563585
0.25379335
0.24195597
0.23012338
0.21829528
0.20647136
0.19465135
0.18283496
0.17102197
0.15921212
0.14740526
0.13560114
0.12379967
0.11200061
0.10020386
0.088409084
0.076616494
0.064825518
0.053036275
0.041248209
0.029462194
0.017676738
0.0058930932
1.4681493
1.4526512
1.4257813
1.3918574
1.3560564
1.3211051
1.2878032
1.2564501
1.2273194
1.200528
1.1759404
1.1532482
1.1320964
1.1121676
1.0932094
1.0750297
1.057484
1.040463
1.0238844
1.0076864
0.99182238
0.97625663
0.96096067
0.94591099
0.93108755
0.91647282
0.90205118
0.88780855
0.8737321
0.85981009
0.84603172
0.83238702
0.81886681
0.80546256
0.7921664
0.77897103
0.76586969
0.75285608
0.73992436
0.72706911
0.71428527
0.70156813
0.68891331
0.67631671
0.66377451
0.65128316
0.63883933
0.6264399
0.61408199
0.60176288
0.58948005
0.57723113
0.5650139
0.5528263
0.5406664
0.52853238
0.51642255
0.50433533
0.49226925
0.48022292
0.46819506
0.45618448
0.44419003
0.43221066
0.42024539
0.40829328
0.39635347
0.38442515
0.37250757
0.36060003
0.34870188
0.33681252
0.32493135
0.31305786
0.30119151
0.28933185
0.27747841
0.2656308
0.25378863
0.24195156
0.23011926
0.21829144
0.20646777
0.194648
0.18283184
0.17101905
0.1592094
0.14740271
0.13559876
0.12379745
0.11199853
0.1002019
0.088407316
0.076614819
0.06482397
0.053034815
0.041247087
0.029461047
0.01767591
0.0058920608
1.4975578
1.4713827
1.4329859
1.391853
1.3527677
1.3161769
1.2818793
1.2501617
1.2213056
1.1952045
1.1714506
1.1495605
1.1291107
1.1097698
1.0912897
1.0734886
1.0562368
1.0394412
1.0230351
1.00697
0.99120963
0.97572594
0.96049608
0.94550058
0.93072231
0.91614582
0.90175699
0.88754282
0.87349128
0.85959122
0.8458323
0.83220492
0.81870018
0.80530982
0.79202617
0.77884208
0.76575094
0.7527466
0.7398233
0.72697573
0.71419889
0.70148817
0.68883921
0.676248
0.66371077
0.65122398
0.63878435
0.62638881
0.61403449
0.6017187
0.58943894
0.57719286
0.56497827
0.55279311
0.54063547
0.52850356
0.51639569
0.50431029
0.49224591
0.48020117
0.46817478
0.45616556
0.44417237
0.43219418
0.42023001
0.40827892
0.39634007
0.38441265
0.37249591
0.36058916
0.34869174
0.33680304
0.3249225
0.31304958
0.30118378
0.28932462
0.27747167
0.26562451
0.25378278
0.24194611
0.23011417
0.21828667
0.20646331
0.19464381
0.18282792
0.17101539
0.159206
0.14739955
0.13559584
0.12379471
0.11199597
0.10019948
0.088405094
0.076612693
0.064822025
0.053033035
0.041245704
0.029459702
0.017675064
0.0058910222
1.5583791
1.50345
1.4424975
1.3909298
1.3476598
1.3086915
1.2731052
1.2413326
1.2133717
1.1885938
1.1661919
1.1454906
1.1260089
1.1074209
1.0895073
1.0721226
1.0551707
1.0385893
1.0223367
1.0063832
0.99070613
0.97528659
0.96010774
0.94515408
0.93041103
0.91586481
0.9015024
0.88731153
0.8732807
0.85939912
0.84565675
0.83204424
0.81855289
0.8051746
0.79190184
0.77872764
0.76564546
0.75264926
0.73973339
0.72689259
0.71412195
0.70141689
0.68877314
0.6761867
0.66365386
0.65117112
0.63873524
0.62634315
0.61399203
0.6016792
0.58940217
0.57715862
0.56494638
0.5527634
0.54060779
0.52847775
0.51637163
0.50428787
0.492225
0.48018167
0.4681566
0.4561486
0.44415655
0.43217941
0.42021622
0.40826605
0.39632805
0.38440144
0.37248546
0.36057941
0.34868264
0.33679455
0.32491457
0.31304216
0.30117684
0.28931814
0.27746561
0.26561887
0.25377752
0.24194121
0.23010961
0.2182824
0.20645931
0.19464007
0.18282441
0.17101211
0.15920294
0.14739671
0.1355932
0.12379225
0.11199368
0.10019734
0.088403089
0.076610782
0.064820281
0.05303147
0.04124436
0.029458531
0.017674378
0.0058905578
1.6755988
1.5545209
1.4585404
1.3948843
1.3463748
1.3039027
1.2663675
1.2341958
1.2067954
1.1829578
1.1615635
1.1417997
1.1231225
1.105183
1.0877677
1.0707535
1.0540726
1.0376884
1.0215802
1.0057343
0.99013931
0.97478421
0.95965751
0.94474727
0.93004127
0.91552728
0.90119331
0.88702781
0.87301976
0.85915876
0.84543504
0.83183949
0.81836359
0.80499942
0.79173958
0.77857721
0.76550591
0.75251971
0.73961305
0.72678074
0.71401793
0.70132012
0.68868307
0.67610285
0.66357577
0.65109837
0.63866744
0.62627996
0.61393312
0.60162427
0.58935094
0.57711084
0.56490181
0.55272181
0.54056898
0.52844154
0.51633784
0.50425633
0.49219556
0.48015419
0.46813095
0.45612465
0.44413419
0.43215853
0.42019672
0.40824784
0.39631105
0.38438557
0.37247064
0.36056557
0.34866972
0.33678248
0.3249033
0.31303163
0.301167
0.28930895
0.27745703
0.26561086
0.25377004
0.24193423
0.23010309
0.21827631
0.20645362
0.19463474
0.18281943
0.17100746
0.15919861
0.14739266
0.13558943
0.12378873
0.11199039
0.10019426
0.08840021
0.076608087
0.064817778
0.053029177
0.041242204
0.029456648
0.017672701
0.0058897205
)
;

boundaryField
{
    top
    {
        type            zeroGradient;
    }
    inlet
    {
        type            zeroGradient;
    }
    outlet
    {
        type            fixedValue;
        value           uniform 0;
    }
    bottom
    {
        type            zeroGradient;
    }
    back
    {
        type            empty;
    }
    front
    {
        type            empty;
    }
}


// ************************************************************************* //
