/*--------------------------------*- C++ -*----------------------------------*\
| =========                 |                                                 |
| \\      /  F ield         | OpenFOAM: The Open Source CFD Toolbox           |
|  \\    /   O peration     | Version:  v1812                                 |
|   \\  /    A nd           | Web:      www.OpenFOAM.com                      |
|    \\/     M anipulation  |                                                 |
\*---------------------------------------------------------------------------*/
FoamFile
{
    version     2.0;
    format      ascii;
    class       volVectorField;
    location    "13";
    object      U;
}
// * * * * * * * * * * * * * * * * * * * * * * * * * * * * * * * * * * * * * //

dimensions      [0 1 -1 0 0 0 0];


internalField   nonuniform List<vector> 
1000
(
(0.91890839 0.035821913 0)
(0.86271384 0.062195638 0)
(0.7870597 0.062510091 0)
(0.69536033 0.054550396 0)
(0.61089745 0.044531652 0)
(0.54411592 0.034015971 0)
(0.49343012 0.024187538 0)
(0.45479413 0.016144228 0)
(0.42544582 0.010265785 0)
(0.40347313 0.0063041453 0)
(0.38715767 0.0037976303 0)
(0.3749622 0.0023103393 0)
(0.36566193 0.0014930158 0)
(0.35836273 0.0010851186 0)
(0.35244268 0.00090607206 0)
(0.347482 0.00084105112 0)
(0.34320347 0.00082372336 0)
(0.33942725 0.00081930981 0)
(0.33603793 0.00081185162 0)
(0.33296114 0.00079580128 0)
(0.33014778 0.00077081179 0)
(0.32756384 0.00073871007 0)
(0.3251842 0.0007018899 0)
(0.32298902 0.00066256613 0)
(0.32096172 0.00062249981 0)
(0.31908785 0.00058295732 0)
(0.31735449 0.00054477126 0)
(0.31574995 0.00050843363 0)
(0.3142636 0.00047419113 0)
(0.31288574 0.00044212427 0)
(0.31160755 0.0004122094 0)
(0.31042101 0.00038436177 0)
(0.30931883 0.00035846532 0)
(0.30829438 0.00033439064 0)
(0.30734165 0.00031200701 0)
(0.30645515 0.00029118768 0)
(0.30562991 0.00027181421 0)
(0.30486136 0.00025377645 0)
(0.30414535 0.00023697396 0)
(0.30347806 0.00022131444 0)
(0.302856 0.00020671397 0)
(0.30227596 0.00019309559 0)
(0.30173496 0.00018038885 0)
(0.30123029 0.00016852925 0)
(0.30075942 0.00015745746 0)
(0.30032002 0.00014711899 0)
(0.29990993 0.00013746386 0)
(0.29952715 0.00012844557 0)
(0.29916982 0.00012002158 0)
(0.29883623 0.00011215181 0)
(0.29852478 0.00010479936 0)
(0.29823396 9.7929711e-05 0)
(0.29796241 9.151049e-05 0)
(0.29770883 8.5511921e-05 0)
(0.29747201 7.9905879e-05 0)
(0.29725085 7.4666481e-05 0)
(0.29704429 6.9769857e-05 0)
(0.29685137 6.5193527e-05 0)
(0.29667119 6.0917045e-05 0)
(0.2965029 5.6920846e-05 0)
(0.29634571 5.3186788e-05 0)
(0.29619889 4.9697815e-05 0)
(0.29606176 4.6437211e-05 0)
(0.29593367 4.3390097e-05 0)
(0.29581401 4.054165e-05 0)
(0.29570224 3.7879119e-05 0)
(0.29559784 3.5390383e-05 0)
(0.29550031 3.3064583e-05 0)
(0.29540921 3.0891617e-05 0)
(0.29532412 2.8861838e-05 0)
(0.29524463 2.6965922e-05 0)
(0.29517039 2.5195057e-05 0)
(0.29510104 2.3540456e-05 0)
(0.29503625 2.1993873e-05 0)
(0.29497573 2.0548103e-05 0)
(0.2949192 1.9195968e-05 0)
(0.29486638 1.7932142e-05 0)
(0.29481705 1.6750826e-05 0)
(0.29477096 1.5648013e-05 0)
(0.29472791 1.4618243e-05 0)
(0.29468771 1.3658167e-05 0)
(0.29465016 1.2760783e-05 0)
(0.29461507 1.1924059e-05 0)
(0.29458231 1.1139107e-05 0)
(0.29455169 1.0407416e-05 0)
(0.29452309 9.7186466e-06 0)
(0.29449636 9.079707e-06 0)
(0.29447141 8.4768923e-06 0)
(0.29444808 7.922904e-06 0)
(0.29442632 7.3968912e-06 0)
(0.29440597 6.9208651e-06 0)
(0.29438699 6.4621229e-06 0)
(0.29436922 6.0514067e-06 0)
(0.29435262 5.6510574e-06 0)
(0.29433716 5.2999396e-06 0)
(0.29432249 4.9774287e-06 0)
(0.29430917 4.6879076e-06 0)
(0.29429568 4.5332897e-06 0)
(0.29428501 4.4025031e-06 0)
(0.29426874 5.0520194e-06 0)
(1.0016583 0.05381943 0)
(1.0359761 0.10128444 0)
(1.0597199 0.11073663 0)
(1.0628947 0.10592202 0)
(1.0515569 0.096228728 0)
(1.0340529 0.083934059 0)
(1.0142795 0.070327059 0)
(0.99360702 0.05698133 0)
(0.97292577 0.045107478 0)
(0.9531074 0.035236752 0)
(0.93479539 0.027401653 0)
(0.91829012 0.021387231 0)
(0.90362379 0.016884501 0)
(0.89068067 0.013569709 0)
(0.87928174 0.011147747 0)
(0.86923241 0.0093736563 0)
(0.86034423 0.0080569259 0)
(0.85244667 0.0070571262 0)
(0.84539241 0.0062752384 0)
(0.83905793 0.0056438297 0)
(0.83334126 0.0051180926 0)
(0.82815884 0.0046686738 0)
(0.82344212 0.0042764182 0)
(0.81913467 0.0039287388 0)
(0.81518962 0.0036172027 0)
(0.81156765 0.003335969 0)
(0.80823544 0.0030808023 0)
(0.8051644 0.0028484674 0)
(0.80232979 0.0026363683 0)
(0.79970999 0.0024423383 0)
(0.79728597 0.0022645195 0)
(0.79504086 0.002101291 0)
(0.79295963 0.0019512266 0)
(0.79102881 0.0018130642 0)
(0.78923627 0.0016856841 0)
(0.7875711 0.0015680923 0)
(0.78602338 0.0014594048 0)
(0.78458411 0.0013588344 0)
(0.78324511 0.0012656789 0)
(0.78199889 0.0011793106 0)
(0.7808386 0.0010991669 0)
(0.77975799 0.001024742 0)
(0.77875128 0.00095558019 0)
(0.77781318 0.0008912699 0)
(0.77693881 0.00083143828 0)
(0.77612368 0.00077574696 0)
(0.77536362 0.00072388812 0)
(0.7746548 0.00067558066 0)
(0.77399367 0.00063056719 0)
(0.77337693 0.00058861128 0)
(0.77280153 0.00054949502 0)
(0.77226464 0.00051301729 0)
(0.77176363 0.00047899275 0)
(0.77129607 0.00044725 0)
(0.77085967 0.00041763089 0)
(0.77045234 0.00038998935 0)
(0.77007212 0.00036419077 0)
(0.76971717 0.00034011068 0)
(0.7693858 0.00031763345 0)
(0.76907644 0.00029665157 0)
(0.7687876 0.00027706438 0)
(0.76851791 0.00025877712 0)
(0.7682661 0.00024170141 0)
(0.76803096 0.00022575476 0)
(0.76781139 0.00021086082 0)
(0.76760636 0.00019694915 0)
(0.76741488 0.00018395561 0)
(0.76723607 0.00017182094 0)
(0.76706909 0.00016048978 0)
(0.76691314 0.00014990976 0)
(0.76676751 0.00014003131 0)
(0.7666315 0.00013080588 0)
(0.76650447 0.00012218907 0)
(0.76638583 0.00011413764 0)
(0.76627502 0.00010661419 0)
(0.76617152 9.9582612e-05 0)
(0.76607485 9.3014245e-05 0)
(0.76598457 8.6878183e-05 0)
(0.76590024 8.1151912e-05 0)
(0.76582149 7.5804392e-05 0)
(0.76574793 7.0817366e-05 0)
(0.76567924 6.6155097e-05 0)
(0.76561505 6.1805866e-05 0)
(0.76555513 5.7729609e-05 0)
(0.76549911 5.3929151e-05 0)
(0.76544684 5.035878e-05 0)
(0.76539794 4.7045403e-05 0)
(0.76535237 4.3924595e-05 0)
(0.76530969 4.1052252e-05 0)
(0.76526996 3.8324939e-05 0)
(0.76523271 3.5846436e-05 0)
(0.76519804 3.3452653e-05 0)
(0.76516557 3.1318493e-05 0)
(0.76513518 2.9194421e-05 0)
(0.76510713 2.738103e-05 0)
(0.76507997 2.551854e-05 0)
(0.76505662 2.4060035e-05 0)
(0.76503058 2.2541728e-05 0)
(0.76501446 2.1592844e-05 0)
(0.76498349 2.0981588e-05 0)
(1.0014244 0.026824855 0)
(1.0291272 0.062791354 0)
(1.0654292 0.077736554 0)
(1.098962 0.080597201 0)
(1.1253149 0.07828517 0)
(1.145053 0.073153896 0)
(1.1594858 0.066111275 0)
(1.1694287 0.058162061 0)
(1.1755354 0.050296755 0)
(1.1785738 0.043150711 0)
(1.1793571 0.036972829 0)
(1.1785949 0.031771635 0)
(1.1768304 0.02745184 0)
(1.1744518 0.023886767 0)
(1.1717287 0.020947617 0)
(1.1688444 0.018515777 0)
(1.1659195 0.016488082 0)
(1.1630317 0.014779502 0)
(1.1602295 0.013322986 0)
(1.1575415 0.012067135 0)
(1.1549828 0.010973003 0)
(1.1525601 0.010011064 0)
(1.1502747 0.0091587478 0)
(1.1481246 0.0083986039 0)
(1.1461059 0.0077169489 0)
(1.1442134 0.0071028857 0)
(1.1424414 0.0065475893 0)
(1.1407838 0.0060437935 0)
(1.1392344 0.0055854254 0)
(1.1377869 0.0051673454 0)
(1.1364353 0.004785159 0)
(1.1351738 0.0044350787 0)
(1.1339968 0.004113819 0)
(1.1328987 0.0038185143 0)
(1.1318746 0.0035466532 0)
(1.1309195 0.003296026 0)
(1.1300289 0.0030646809 0)
(1.1291985 0.002850888 0)
(1.1284242 0.002653108 0)
(1.1277022 0.0024699675 0)
(1.1270291 0.0023002362 0)
(1.1264014 0.0021428091 0)
(1.1258161 0.001996691 0)
(1.1252702 0.0018609834 0)
(1.1247612 0.0017348729 0)
(1.1242865 0.0016176209 0)
(1.1238437 0.001508556 0)
(1.1234307 0.0014070653 0)
(1.1230455 0.0013125887 0)
(1.1226861 0.0012246123 0)
(1.1223509 0.001142664 0)
(1.1220381 0.0010663093 0)
(1.1217462 0.0009951479 0)
(1.1214739 0.00092881152 0)
(1.1212198 0.00086696023 0)
(1.1209827 0.00080928067 0)
(1.1207614 0.0007554839 0)
(1.1205548 0.00070530277 0)
(1.1203621 0.00065848964 0)
(1.1201821 0.00061481414 0)
(1.1200142 0.00057406152 0)
(1.1198574 0.00053603109 0)
(1.1197111 0.00050053599 0)
(1.1195745 0.00046740333 0)
(1.1194469 0.00043647295 0)
(1.1193278 0.00040759657 0)
(1.1192167 0.00038063788 0)
(1.1191129 0.00035547023 0)
(1.119016 0.00033197614 0)
(1.1189255 0.00031004374 0)
(1.118841 0.00028956872 0)
(1.1187621 0.00027045076 0)
(1.1186884 0.00025259781 0)
(1.1186197 0.00023592126 0)
(1.1185554 0.00022034476 0)
(1.1184954 0.00020579264 0)
(1.1184394 0.00019220475 0)
(1.1183871 0.00017951412 0)
(1.1183382 0.00016767198 0)
(1.1182926 0.00015661099 0)
(1.11825 0.00014629327 0)
(1.1182103 0.00013664524 0)
(1.1181731 0.00012764749 0)
(1.1181384 0.00011921551 0)
(1.1181059 0.00011136381 0)
(1.1180757 0.00010398701 0)
(1.1180473 9.7152658e-05 0)
(1.1180211 9.0700842e-05 0)
(1.1179962 8.4780761e-05 0)
(1.1179734 7.9123575e-05 0)
(1.1179516 7.4022943e-05 0)
(1.1179318 6.9012525e-05 0)
(1.1179128 6.467121e-05 0)
(1.1178955 6.0160871e-05 0)
(1.117879 5.6568228e-05 0)
(1.1178635 5.2403902e-05 0)
(1.11785 4.9724661e-05 0)
(1.1178349 4.5798916e-05 0)
(1.1178262 4.431976e-05 0)
(1.1178083 4.0561294e-05 0)
(1.0007347 0.011814722 0)
(1.0178472 0.030860928 0)
(1.0462163 0.041434441 0)
(1.0799018 0.045193568 0)
(1.1132664 0.045502348 0)
(1.143782 0.044080306 0)
(1.1708941 0.041439982 0)
(1.1945687 0.03797368 0)
(1.2148582 0.034195732 0)
(1.2319652 0.030536888 0)
(1.2462683 0.027222045 0)
(1.2582339 0.02431392 0)
(1.2683135 0.021797887 0)
(1.2768875 0.019633659 0)
(1.2842554 0.017773826 0)
(1.2906479 0.016169651 0)
(1.296243 0.01477559 0)
(1.3011791 0.013552298 0)
(1.3055645 0.012467864 0)
(1.3094838 0.011497467 0)
(1.3130042 0.010622162 0)
(1.3161792 0.0098275136 0)
(1.3190526 0.009102411 0)
(1.3216607 0.0084381763 0)
(1.3240343 0.0078279031 0)
(1.3261995 0.0072659735 0)
(1.3281786 0.0067477079 0)
(1.3299913 0.0062691162 0)
(1.3316544 0.0058267274 0)
(1.3331829 0.0054174737 0)
(1.3345896 0.0050386131 0)
(1.3358862 0.0046876747 0)
(1.3370827 0.0043624205 0)
(1.3381882 0.0040608153 0)
(1.3392108 0.0037810045 0)
(1.3401576 0.0035212945 0)
(1.3410349 0.0032801374 0)
(1.3418486 0.0030561163 0)
(1.3426038 0.0028479331 0)
(1.3433051 0.0026543974 0)
(1.3439569 0.0024744166 0)
(1.3445629 0.0023069872 0)
(1.3451267 0.0021511869 0)
(1.3456513 0.0020061676 0)
(1.3461398 0.0018711484 0)
(1.3465947 0.0017454095 0)
(1.3470185 0.0016282871 0)
(1.3474135 0.0015191683 0)
(1.3477816 0.0014174868 0)
(1.3481249 0.0013227189 0)
(1.3484449 0.0012343798 0)
(1.3487435 0.0011520203 0)
(1.349022 0.0010752242 0)
(1.3492818 0.0010036062 0)
(1.3495242 0.00093680896 0)
(1.3497505 0.00087450131 0)
(1.3499616 0.00081637618 0)
(1.3501587 0.00076214821 0)
(1.3503427 0.00071155226 0)
(1.3505145 0.00066434108 0)
(1.3506748 0.00062028404 0)
(1.3508245 0.00057916672 0)
(1.3509643 0.0005407897 0)
(1.3510948 0.00050496838 0)
(1.3512167 0.00047153122 0)
(1.3513305 0.00044031827 0)
(1.3514368 0.00041118093 0)
(1.3515361 0.00038397997 0)
(1.3516288 0.0003585866 0)
(1.3517153 0.0003348792 0)
(1.3517962 0.00031274517 0)
(1.3518717 0.00029207757 0)
(1.3519422 0.00027277929 0)
(1.3520081 0.00025475633 0)
(1.3520696 0.00023792749 0)
(1.3521271 0.00022220981 0)
(1.3521807 0.00020753708 0)
(1.3522309 0.00019383246 0)
(1.3522777 0.00018104269 0)
(1.3523215 0.00016909076 0)
(1.3523623 0.00015794005 0)
(1.3524005 0.00014750814 0)
(1.352436 0.00013778621 0)
(1.3524694 0.00012867428 0)
(1.3525004 0.00012020655 0)
(1.3525296 0.00011224198 0)
(1.3525565 0.00010488406 0)
(1.3525822 9.7904837e-05 0)
(1.3526054 9.1536713e-05 0)
(1.3526282 8.5388548e-05 0)
(1.352648 7.9912755e-05 0)
(1.3526684 7.4424924e-05 0)
(1.352685 6.982542e-05 0)
(1.3527036 6.4839537e-05 0)
(1.352717 6.1102789e-05 0)
(1.3527349 5.6422033e-05 0)
(1.3527447 5.3751627e-05 0)
(1.3527628 4.9150586e-05 0)
(1.3527683 4.7697985e-05 0)
(1.3527888 4.2942385e-05 0)
(1.0005903 0.0034629162 0)
(1.0136865 0.0093660194 0)
(1.0370283 0.013046804 0)
(1.0674202 0.014563259 0)
(1.1000315 0.014854523 0)
(1.1316428 0.014564992 0)
(1.1610745 0.013888341 0)
(1.1880674 0.012919248 0)
(1.2125205 0.011806508 0)
(1.2343939 0.010696426 0)
(1.2538077 0.0096727401 0)
(1.2710339 0.0087628196 0)
(1.286401 0.0079659716 0)
(1.3002112 0.0072722139 0)
(1.3127102 0.0066688093 0)
(1.3240903 0.006141927 0)
(1.3345036 0.0056780742 0)
(1.3440716 0.0052653226 0)
(1.3528927 0.0048939359 0)
(1.3610463 0.0045563957 0)
(1.3685975 0.0042470689 0)
(1.3756004 0.0039617747 0)
(1.3821012 0.0036973964 0)
(1.3881402 0.0034515816 0)
(1.3937533 0.0032225181 0)
(1.3989728 0.00300877 0)
(1.403828 0.0028091585 0)
(1.4083456 0.00262268 0)
(1.4125503 0.0024484504 0)
(1.4164646 0.0022856711 0)
(1.4201094 0.0021336074 0)
(1.423504 0.0019915758 0)
(1.426666 0.0018589357 0)
(1.4296121 0.0017350852 0)
(1.4323573 0.001619458 0)
(1.4349159 0.0015115212 0)
(1.4373007 0.0014107731 0)
(1.4395241 0.0013167427 0)
(1.441597 0.0012289874 0)
(1.4435301 0.001147092 0)
(1.4453328 0.0010706675 0)
(1.4470143 0.00099935018 0)
(1.4485827 0.0009327999 0)
(1.4500459 0.0008706985 0)
(1.451411 0.0008127491 0)
(1.4526846 0.00075867407 0)
(1.4538731 0.00070821369 0)
(1.4549822 0.00066112541 0)
(1.4560172 0.00061718257 0)
(1.4569831 0.00057617381 0)
(1.4578847 0.00053790202 0)
(1.4587262 0.00050218357 0)
(1.4595117 0.00046884748 0)
(1.460245 0.00043773368 0)
(1.4609295 0.00040869391 0)
(1.4615685 0.0003815899 0)
(1.4621651 0.00035629232 0)
(1.4627221 0.00033268001 0)
(1.4632422 0.00031063949 0)
(1.4637278 0.00029006444 0)
(1.4641812 0.0002708556 0)
(1.4646045 0.00025292133 0)
(1.4649998 0.00023617758 0)
(1.4653689 0.00022054516 0)
(1.4657136 0.00020595161 0)
(1.4660355 0.00019232864 0)
(1.4663361 0.00017961184 0)
(1.4666168 0.00016773963 0)
(1.466879 0.00015665447 0)
(1.4671238 0.00014630219 0)
(1.4673524 0.0001366338 0)
(1.467566 0.00012760282 0)
(1.4677654 0.00011916887 0)
(1.4679516 0.00011129251 0)
(1.4681256 0.00010394 0)
(1.468288 9.7075828e-05 0)
(1.4684397 9.0670743e-05 0)
(1.4685815 8.4688567e-05 0)
(1.4687138 7.9105323e-05 0)
(1.4688375 7.3883664e-05 0)
(1.4689529 6.9009188e-05 0)
(1.4690608 6.4444376e-05 0)
(1.4691614 6.0191096e-05 0)
(1.4692557 5.6204486e-05 0)
(1.4693433 5.2507877e-05 0)
(1.4694257 4.9030807e-05 0)
(1.4695019 4.5827257e-05 0)
(1.4695742 4.277811e-05 0)
(1.4696402 4.0007104e-05 0)
(1.4697038 3.7307855e-05 0)
(1.4697606 3.4916792e-05 0)
(1.4698172 3.2496078e-05 0)
(1.4698653 3.0506675e-05 0)
(1.4699166 2.8291893e-05 0)
(1.469956 2.669057e-05 0)
(1.4700045 2.4633921e-05 0)
(1.470034 2.3520195e-05 0)
(1.4700831 2.1435994e-05 0)
(1.4701001 2.0803196e-05 0)
(1.4701556 1.8641509e-05 0)
(1.0005903 -0.0034629166 0)
(1.0136865 -0.0093660212 0)
(1.0370283 -0.013046807 0)
(1.0674202 -0.014563261 0)
(1.1000315 -0.014854523 0)
(1.1316428 -0.014564989 0)
(1.1610745 -0.013888337 0)
(1.1880674 -0.012919245 0)
(1.2125205 -0.011806507 0)
(1.2343939 -0.010696427 0)
(1.2538077 -0.0096727422 0)
(1.2710339 -0.0087628223 0)
(1.286401 -0.0079659743 0)
(1.3002112 -0.0072722153 0)
(1.3127102 -0.0066688089 0)
(1.3240903 -0.006141925 0)
(1.3345036 -0.0056780713 0)
(1.3440716 -0.0052653195 0)
(1.3528927 -0.0048939336 0)
(1.3610463 -0.0045563949 0)
(1.3685975 -0.0042470696 0)
(1.3756004 -0.0039617765 0)
(1.3821012 -0.0036973991 0)
(1.3881402 -0.0034515844 0)
(1.3937533 -0.0032225202 0)
(1.3989728 -0.0030087708 0)
(1.403828 -0.002809158 0)
(1.4083456 -0.0026226781 0)
(1.4125503 -0.0024484478 0)
(1.4164646 -0.0022856687 0)
(1.4201094 -0.0021336059 0)
(1.423504 -0.0019915753 0)
(1.4266661 -0.0018589365 0)
(1.4296121 -0.0017350874 0)
(1.4323573 -0.0016194608 0)
(1.4349159 -0.0015115234 0)
(1.4373007 -0.0014107741 0)
(1.4395241 -0.001316742 0)
(1.441597 -0.0012289847 0)
(1.4435301 -0.0011470883 0)
(1.4453328 -0.0010706642 0)
(1.4470143 -0.00099934832 0)
(1.4485827 -0.00093279998 0)
(1.4500459 -0.00087070095 0)
(1.451411 -0.0008127531 0)
(1.4526846 -0.00075867786 0)
(1.4538731 -0.0007082158 0)
(1.4549822 -0.0006611248 0)
(1.4560172 -0.00061717911 0)
(1.4569831 -0.00057616857 0)
(1.4578847 -0.00053789665 0)
(1.4587262 -0.0005021796 0)
(1.4595117 -0.00046884598 0)
(1.460245 -0.00043773593 0)
(1.4609295 -0.00040869947 0)
(1.4615685 -0.00038159639 0)
(1.4621651 -0.00035629689 0)
(1.4627221 -0.00033268027 0)
(1.4632422 -0.00031063436 0)
(1.4637278 -0.0002900551 0)
(1.4641812 -0.00027084558 0)
(1.4646045 -0.00025291427 0)
(1.4649998 -0.00023617532 0)
(1.4653689 -0.00022054915 0)
(1.4657136 -0.00020596075 0)
(1.4660355 -0.00019233864 0)
(1.4663361 -0.00017961783 0)
(1.4666168 -0.00016773853 0)
(1.466879 -0.00015664578 0)
(1.4671238 -0.00014628834 0)
(1.4673524 -0.00013661951 0)
(1.467566 -0.0001275935 0)
(1.4677654 -0.00011916773 0)
(1.4679516 -0.00011130024 0)
(1.4681256 -0.00010395362 0)
(1.468288 -9.7089178e-05 0)
(1.4684397 -9.0677902e-05 0)
(1.4685815 -8.468594e-05 0)
(1.4687138 -7.9092341e-05 0)
(1.4688375 -7.3864764e-05 0)
(1.4689529 -6.8991846e-05 0)
(1.4690608 -6.443617e-05 0)
(1.4691614 -6.0195971e-05 0)
(1.4692557 -5.6220851e-05 0)
(1.4693433 -5.2528098e-05 0)
(1.4694257 -4.904546e-05 0)
(1.4695019 -4.5831043e-05 0)
(1.4695742 -4.2769283e-05 0)
(1.4696402 -3.9987664e-05 0)
(1.4697038 -3.7290328e-05 0)
(1.4697606 -3.4914335e-05 0)
(1.4698172 -3.250276e-05 0)
(1.4698653 -3.0522384e-05 0)
(1.4699167 -2.8329625e-05 0)
(1.4699561 -2.6722484e-05 0)
(1.4700045 -2.4620822e-05 0)
(1.470034 -2.3488122e-05 0)
(1.4700831 -2.1430374e-05 0)
(1.4701001 -2.0820112e-05 0)
(1.4701557 -1.8655898e-05 0)
(1.0007347 -0.011814723 0)
(1.0178472 -0.030860928 0)
(1.0462163 -0.041434441 0)
(1.0799018 -0.045193568 0)
(1.1132664 -0.045502349 0)
(1.143782 -0.044080307 0)
(1.1708941 -0.041439983 0)
(1.1945687 -0.037973679 0)
(1.2148582 -0.034195731 0)
(1.2319652 -0.030536887 0)
(1.2462683 -0.027222044 0)
(1.2582339 -0.024313919 0)
(1.2683135 -0.021797887 0)
(1.2768875 -0.019633659 0)
(1.2842554 -0.017773826 0)
(1.2906479 -0.016169652 0)
(1.296243 -0.01477559 0)
(1.3011791 -0.013552297 0)
(1.3055645 -0.012467863 0)
(1.3094838 -0.011497465 0)
(1.3130042 -0.010622161 0)
(1.3161792 -0.0098275131 0)
(1.3190526 -0.0091024114 0)
(1.3216607 -0.0084381776 0)
(1.3240343 -0.0078279049 0)
(1.3261995 -0.0072659753 0)
(1.3281786 -0.0067477092 0)
(1.3299913 -0.0062691166 0)
(1.3316544 -0.0058267268 0)
(1.3331829 -0.0054174723 0)
(1.3345896 -0.0050386112 0)
(1.3358862 -0.004687673 0)
(1.3370827 -0.0043624193 0)
(1.3381882 -0.0040608151 0)
(1.3392108 -0.0037810053 0)
(1.3401576 -0.003521296 0)
(1.3410349 -0.0032801391 0)
(1.3418486 -0.0030561175 0)
(1.3426038 -0.0028479334 0)
(1.3433051 -0.0026543966 0)
(1.3439569 -0.0024744149 0)
(1.3445629 -0.0023069852 0)
(1.3451267 -0.0021511852 0)
(1.3456513 -0.0020061667 0)
(1.3461398 -0.0018711486 0)
(1.3465947 -0.0017454106 0)
(1.3470185 -0.0016282887 0)
(1.3474135 -0.0015191697 0)
(1.3477816 -0.0014174875 0)
(1.3481249 -0.0013227183 0)
(1.3484449 -0.0012343779 0)
(1.3487435 -0.0011520175 0)
(1.349022 -0.0010752215 0)
(1.3492818 -0.0010036044 0)
(1.3495242 -0.00093680853 0)
(1.3497505 -0.00087450218 0)
(1.3499616 -0.00081637787 0)
(1.3501587 -0.00076214988 0)
(1.3503427 -0.00071155294 0)
(1.3505145 -0.00066434003 0)
(1.3506748 -0.00062028126 0)
(1.3508245 -0.00057916273 0)
(1.3509643 -0.00054078584 0)
(1.3510948 -0.00050496572 0)
(1.3512167 -0.00047153034 0)
(1.3513305 -0.00044031904 0)
(1.3514368 -0.00041118277 0)
(1.3515361 -0.0003839819 0)
(1.3516288 -0.00035858739 0)
(1.3517153 -0.00033487761 0)
(1.3517962 -0.00031274135 0)
(1.3518717 -0.0002920724 0)
(1.3519422 -0.00027277433 0)
(1.3520081 -0.00025475306 0)
(1.3520696 -0.0002379268 0)
(1.3521271 -0.00022221161 0)
(1.3521808 -0.00020754042 0)
(1.3522309 -0.00019383538 0)
(1.3522777 -0.00018104363 0)
(1.3523215 -0.00016908861 0)
(1.3523623 -0.00015793569 0)
(1.3524005 -0.00014750304 0)
(1.352436 -0.0001377822 0)
(1.3524695 -0.0001286726 0)
(1.3525004 -0.00012020773 0)
(1.3525297 -0.00011224557 0)
(1.3525565 -0.00010488899 0)
(1.3525822 -9.7909192e-05 0)
(1.3526054 -9.1540324e-05 0)
(1.3526282 -8.5391193e-05 0)
(1.352648 -7.991307e-05 0)
(1.3526684 -7.4425893e-05 0)
(1.3526849 -6.9830397e-05 0)
(1.3527037 -6.4843468e-05 0)
(1.352717 -6.110108e-05 0)
(1.3527349 -5.642586e-05 0)
(1.3527447 -5.3765659e-05 0)
(1.3527628 -4.9162856e-05 0)
(1.3527683 -4.7704659e-05 0)
(1.3527888 -4.2948983e-05 0)
(1.0014244 -0.026824855 0)
(1.0291272 -0.062791352 0)
(1.0654292 -0.077736552 0)
(1.098962 -0.0805972 0)
(1.1253149 -0.078285171 0)
(1.145053 -0.073153899 0)
(1.1594858 -0.066111278 0)
(1.1694287 -0.058162063 0)
(1.1755354 -0.050296755 0)
(1.1785738 -0.043150709 0)
(1.1793571 -0.036972826 0)
(1.1785949 -0.031771632 0)
(1.1768304 -0.027451839 0)
(1.1744518 -0.023886767 0)
(1.1717287 -0.020947619 0)
(1.1688444 -0.01851578 0)
(1.1659195 -0.016488085 0)
(1.1630317 -0.014779503 0)
(1.1602295 -0.013322986 0)
(1.1575415 -0.012067133 0)
(1.1549828 -0.010973001 0)
(1.1525601 -0.010011061 0)
(1.1502747 -0.0091587462 0)
(1.1481246 -0.0083986033 0)
(1.1461059 -0.0077169498 0)
(1.1442134 -0.0071028878 0)
(1.1424414 -0.0065475919 0)
(1.1407838 -0.0060437958 0)
(1.1392344 -0.0055854268 0)
(1.1377869 -0.0051673452 0)
(1.1364353 -0.0047851572 0)
(1.1351738 -0.004435076 0)
(1.1339968 -0.0041138164 0)
(1.1328987 -0.0038185123 0)
(1.1318746 -0.0035466523 0)
(1.1309195 -0.0032960267 0)
(1.1300289 -0.003064683 0)
(1.1291985 -0.0028508908 0)
(1.1284242 -0.0026531108 0)
(1.1277022 -0.0024699693 0)
(1.1270291 -0.002300236 0)
(1.1264014 -0.002142807 0)
(1.1258161 -0.0019966877 0)
(1.1252702 -0.0018609798 0)
(1.1247612 -0.0017348699 0)
(1.1242865 -0.0016176199 0)
(1.1238437 -0.0015085573 0)
(1.1234307 -0.0014070686 0)
(1.1230455 -0.0013125927 0)
(1.1226861 -0.0012246155 0)
(1.1223509 -0.001142665 0)
(1.1220381 -0.0010663076 0)
(1.1217462 -0.00099514416 0)
(1.1214739 -0.00092880637 0)
(1.1212198 -0.00086695512 0)
(1.1209827 -0.00080927755 0)
(1.1207614 -0.00075548403 0)
(1.1205548 -0.00070530618 0)
(1.1203621 -0.00065849519 0)
(1.1201821 -0.0006148198 0)
(1.1200142 -0.00057406448 0)
(1.1198574 -0.00053602962 0)
(1.1197111 -0.00050053062 0)
(1.1195745 -0.00046739529 0)
(1.1194469 -0.0004364645 0)
(1.1193278 -0.00040759099 0)
(1.1192167 -0.00038063771 0)
(1.1191129 -0.00035547542 0)
(1.119016 -0.0003319844 0)
(1.1189255 -0.00031005196 0)
(1.118841 -0.00028957321 0)
(1.1187621 -0.00027044887 0)
(1.1186885 -0.00025258984 0)
(1.1186197 -0.00023590965 0)
(1.1185554 -0.00022033349 0)
(1.1184954 -0.00020578639 0)
(1.1184394 -0.00019220587 0)
(1.1183871 -0.00017952207 0)
(1.1183383 -0.00016768387 0)
(1.1182927 -0.00015662234 0)
(1.11825 -0.00014629907 0)
(1.1182103 -0.00013664224 0)
(1.1181731 -0.00012763611 0)
(1.1181384 -0.00011920011 0)
(1.1181059 -0.00011135104 0)
(1.1180757 -0.00010398304 0)
(1.1180473 -9.715908e-05 0)
(1.1180211 -9.0716032e-05 0)
(1.1179962 -8.4800429e-05 0)
(1.1179734 -7.9138292e-05 0)
(1.1179516 -7.4025546e-05 0)
(1.1179318 -6.9007876e-05 0)
(1.1179128 -6.466231e-05 0)
(1.1178955 -6.0140113e-05 0)
(1.117879 -5.6552368e-05 0)
(1.1178635 -5.2421457e-05 0)
(1.11785 -4.9758726e-05 0)
(1.1178349 -4.5815412e-05 0)
(1.1178262 -4.4320357e-05 0)
(1.1178083 -4.0563626e-05 0)
(1.0016583 -0.05381943 0)
(1.0359761 -0.10128444 0)
(1.0597199 -0.11073663 0)
(1.0628947 -0.10592202 0)
(1.0515569 -0.096228728 0)
(1.0340529 -0.08393406 0)
(1.0142795 -0.070327062 0)
(0.99360703 -0.056981333 0)
(0.97292577 -0.045107479 0)
(0.9531074 -0.035236751 0)
(0.93479538 -0.027401651 0)
(0.91829012 -0.021387228 0)
(0.90362379 -0.016884499 0)
(0.89068067 -0.013569708 0)
(0.87928174 -0.011147748 0)
(0.86923242 -0.0093736583 0)
(0.86034423 -0.0080569283 0)
(0.85244667 -0.0070571282 0)
(0.84539241 -0.0062752394 0)
(0.83905793 -0.0056438293 0)
(0.83334126 -0.0051180911 0)
(0.82815884 -0.0046686718 0)
(0.82344212 -0.0042764163 0)
(0.81913467 -0.0039287376 0)
(0.81518961 -0.0036172026 0)
(0.81156765 -0.0033359701 0)
(0.80823544 -0.0030808043 0)
(0.8051644 -0.0028484696 0)
(0.80232979 -0.00263637 0)
(0.79970999 -0.0024423389 0)
(0.79728597 -0.0022645187 0)
(0.79504086 -0.0021012894 0)
(0.79295963 -0.0019512245 0)
(0.7910288 -0.0018130621 0)
(0.78923627 -0.0016856828 0)
(0.7875711 -0.0015680922 0)
(0.78602338 -0.001459406 0)
(0.78458412 -0.0013588366 0)
(0.78324511 -0.0012656814 0)
(0.78199889 -0.0011793126 0)
(0.78083861 -0.0010991675 0)
(0.77975799 -0.001024741 0)
(0.77875128 -0.00095557785 0)
(0.77781318 -0.00089126685 0)
(0.77693881 -0.00083143553 0)
(0.77612368 -0.00077574558 0)
(0.77536362 -0.00072388865 0)
(0.77465481 -0.00067558296 0)
(0.77399368 -0.00063057046 0)
(0.77337693 -0.00058861427 0)
(0.77280153 -0.00054949663 0)
(0.77226464 -0.000513017 0)
(0.77176363 -0.00047899042 0)
(0.77129607 -0.00044724611 0)
(0.77085967 -0.00041762653 0)
(0.77045234 -0.00038998622 0)
(0.77007212 -0.00036419016 0)
(0.76971717 -0.00034011293 0)
(0.76938581 -0.00031763798 0)
(0.76907644 -0.00029665667 0)
(0.7687876 -0.00027706786 0)
(0.76851792 -0.00025877751 0)
(0.7682661 -0.00024169829 0)
(0.76803096 -0.00022574881 0)
(0.76781139 -0.00021085389 0)
(0.76760636 -0.00019694403 0)
(0.76741489 -0.00018395446 0)
(0.76723608 -0.00017182418 0)
(0.7670691 -0.00016049637 0)
(0.76691316 -0.00014991716 0)
(0.76676752 -0.00014003654 0)
(0.7666315 -0.00013080663 0)
(0.76650447 -0.00012218451 0)
(0.76638583 -0.00011412908 0)
(0.76627502 -0.00010660482 0)
(0.76617153 -9.9576044e-05 0)
(0.76607486 -9.3013283e-05 0)
(0.76598459 -8.6883299e-05 0)
(0.76590026 -8.116168e-05 0)
(0.76582151 -7.5815039e-05 0)
(0.76574794 -7.0824343e-05 0)
(0.76567925 -6.615503e-05 0)
(0.76561505 -6.179827e-05 0)
(0.76555513 -5.7717226e-05 0)
(0.76549911 -5.3917859e-05 0)
(0.76544685 -5.0353412e-05 0)
(0.76539796 -4.7048418e-05 0)
(0.76535239 -4.3935433e-05 0)
(0.76530971 -4.1067442e-05 0)
(0.76526997 -3.8336762e-05 0)
(0.76523272 -3.5850072e-05 0)
(0.76519804 -3.345067e-05 0)
(0.76516557 -3.1308884e-05 0)
(0.76513518 -2.9176218e-05 0)
(0.76510713 -2.7371812e-05 0)
(0.76507997 -2.5529652e-05 0)
(0.76505662 -2.4075807e-05 0)
(0.76503058 -2.2550923e-05 0)
(0.76501445 -2.1597344e-05 0)
(0.76498347 -2.0984714e-05 0)
(0.91890839 -0.035821912 0)
(0.86271384 -0.062195638 0)
(0.7870597 -0.062510091 0)
(0.69536033 -0.054550396 0)
(0.61089745 -0.044531651 0)
(0.54411592 -0.034015971 0)
(0.49343012 -0.024187539 0)
(0.45479413 -0.016144229 0)
(0.42544582 -0.010265785 0)
(0.40347313 -0.0063041454 0)
(0.38715767 -0.0037976298 0)
(0.3749622 -0.0023103385 0)
(0.36566193 -0.001493015 0)
(0.35836272 -0.001085118 0)
(0.35244267 -0.00090607195 0)
(0.34748201 -0.00084105149 0)
(0.34320348 -0.00082372417 0)
(0.33942726 -0.00081931067 0)
(0.33603793 -0.00081185232 0)
(0.33296114 -0.00079580147 0)
(0.33014778 -0.00077081154 0)
(0.32756384 -0.00073870937 0)
(0.3251842 -0.00070188906 0)
(0.32298902 -0.0006625654 0)
(0.32096172 -0.00062249943 0)
(0.31908785 -0.00058295748 0)
(0.31735449 -0.00054477179 0)
(0.31574995 -0.00050843447 0)
(0.3142636 -0.0004741919 0)
(0.31288574 -0.00044212477 0)
(0.31160755 -0.00041220943 0)
(0.31042101 -0.00038436141 0)
(0.30931883 -0.00035846458 0)
(0.30829438 -0.00033438985 0)
(0.30734165 -0.0003120063 0)
(0.30645515 -0.00029118743 0)
(0.30562991 -0.00027181435 0)
(0.30486136 -0.00025377713 0)
(0.30414535 -0.00023697485 0)
(0.30347807 -0.00022131533 0)
(0.30285601 -0.00020671448 0)
(0.30227596 -0.00019309554 0)
(0.30173496 -0.00018038822 0)
(0.30123029 -0.0001685282 0)
(0.30075942 -0.00015745636 0)
(0.30032002 -0.00014711829 0)
(0.29990993 -0.00013746372 0)
(0.29952715 -0.00012844618 0)
(0.29916983 -0.00012002261 0)
(0.29883624 -0.000112153 0)
(0.29852478 -0.00010480029 0)
(0.29823397 -9.7929989e-05 0)
(0.29796241 -9.151004e-05 0)
(0.29770883 -8.5510675e-05 0)
(0.29747201 -7.9904288e-05 0)
(0.29725084 -7.4665158e-05 0)
(0.29704429 -6.9769224e-05 0)
(0.29685138 -6.5194007e-05 0)
(0.2966712 -6.0918443e-05 0)
(0.29650291 -5.692274e-05 0)
(0.29634572 -5.3188475e-05 0)
(0.2961989 -4.9698485e-05 0)
(0.29606176 -4.643672e-05 0)
(0.29593366 -4.3388226e-05 0)
(0.29581401 -4.053926e-05 0)
(0.29570224 -3.7877016e-05 0)
(0.29559784 -3.5389441e-05 0)
(0.29550032 -3.3065193e-05 0)
(0.29540922 -3.0893648e-05 0)
(0.29532413 -2.8864538e-05 0)
(0.29524464 -2.6968373e-05 0)
(0.2951704 -2.5196107e-05 0)
(0.29510104 -2.3539673e-05 0)
(0.29503625 -2.1991381e-05 0)
(0.29497573 -2.0544768e-05 0)
(0.29491919 -1.9193108e-05 0)
(0.29486638 -1.7930951e-05 0)
(0.29481705 -1.6751851e-05 0)
(0.29477097 -1.5651222e-05 0)
(0.29472793 -1.4622202e-05 0)
(0.29468772 -1.3661366e-05 0)
(0.29465016 -1.276169e-05 0)
(0.29461507 -1.1922178e-05 0)
(0.2945823 -1.1135209e-05 0)
(0.29455168 -1.0403175e-05 0)
(0.29452309 -9.7159284e-06 0)
(0.29449636 -9.0797667e-06 0)
(0.29447142 -8.4797846e-06 0)
(0.29444809 -7.9278135e-06 0)
(0.29442633 -7.4012036e-06 0)
(0.29440597 -6.9228589e-06 0)
(0.29438699 -6.4620701e-06 0)
(0.29436922 -6.0480632e-06 0)
(0.29435262 -5.6449164e-06 0)
(0.29433715 -5.2972631e-06 0)
(0.29432248 -4.9796617e-06 0)
(0.29430917 -4.6902954e-06 0)
(0.29429568 -4.5352292e-06 0)
(0.294285 -4.4051886e-06 0)
(0.29426874 -5.0538594e-06 0)
)
;

boundaryField
{
    top
    {
        type            fixedValue;
        value           uniform (0 0 0);
    }
    inlet
    {
        type            fixedValue;
        value           uniform (1 0 0);
    }
    outlet
    {
        type            zeroGradient;
    }
    bottom
    {
        type            fixedValue;
        value           uniform (0 0 0);
    }
    back
    {
        type            empty;
    }
    front
    {
        type            empty;
    }
}


// ************************************************************************* //
