/*--------------------------------*- C++ -*----------------------------------*\
| =========                 |                                                 |
| \\      /  F ield         | OpenFOAM: The Open Source CFD Toolbox           |
|  \\    /   O peration     | Version:  2112                                  |
|   \\  /    A nd           | Website:  www.openfoam.com                      |
|    \\/     M anipulation  |                                                 |
\*---------------------------------------------------------------------------*/
FoamFile
{
    version     2.0;
    format      ascii;
    arch        "LSB;label=32;scalar=64";
    class       volScalarField;
    location    "70";
    object      p;
}
// * * * * * * * * * * * * * * * * * * * * * * * * * * * * * * * * * * * * * //

dimensions      [0 2 -2 0 0 0 0];

internalField   nonuniform List<scalar> 
1000
(
1.6937316
1.5635813
1.4729269
1.4147613
1.365177
1.3206599
1.2823853
1.2498841
1.2219119
1.1973205
1.1751784
1.1547871
1.1356096
1.1172847
1.099583
1.0823624
1.0655356
1.0490488
1.0328675
1.016968
1.0013322
0.9859446
0.97079082
0.95585693
0.94112927
0.92659467
0.91224073
0.89805583
0.88402918
0.87015059
0.85641035
0.84279917
0.82930818
0.81592905
0.80265405
0.78947626
0.77638969
0.76338927
0.75047087
0.73763118
0.72486745
0.71217717
0.6995578
0.6870064
0.67451943
0.66209258
0.64972079
0.63739831
0.62511896
0.61287634
0.60066412
0.58847628
0.57630738
0.56415263
0.55200802
0.53987032
0.52773701
0.51560626
0.50347675
0.49134766
0.47921844
0.46708885
0.45495877
0.44282822
0.43069722
0.41856588
0.40643425
0.39430244
0.38217048
0.37003846
0.35790636
0.34577427
0.33364211
0.32151003
0.30937785
0.2972458
0.2851136
0.27298159
0.26084936
0.24871741
0.23658512
0.22445324
0.21232087
0.2001891
0.18805662
0.17592498
0.16379239
0.15166089
0.13952823
0.12739687
0.11526437
0.10313305
0.091001316
0.07886979
0.066740383
0.054608192
0.042484339
0.030350533
0.018232565
0.0060913297
1.5701838
1.5037665
1.4453442
1.4009702
1.3591256
1.3195168
1.2841403
1.2530825
1.2255943
1.2009242
1.1784269
1.1575526
1.137883
1.1191178
1.1010497
1.0835368
1.0664818
1.0498177
1.0334988
1.0174929
1.0017762
0.98632839
0.97112983
0.9561614
0.94140511
0.92684501
0.91246754
0.89826106
0.8842151
0.87031973
0.85656516
0.84294177
0.82944021
0.81605166
0.80276804
0.78958211
0.77648762
0.76347936
0.7505531
0.73770546
0.72493369
0.7122354
0.69960815
0.68704915
0.67455503
0.66212162
0.64974397
0.6374164
0.62513276
0.6128866
0.60067155
0.58848153
0.57631097
0.56415501
0.55200954
0.53987124
0.52773754
0.51560653
0.50347687
0.49134769
0.47921843
0.46708882
0.45495873
0.44282818
0.43069718
0.41856585
0.40643422
0.39430244
0.38217046
0.37003847
0.35790634
0.34577429
0.33364209
0.32151006
0.30937782
0.29724585
0.28511355
0.27298167
0.26084928
0.24871751
0.23658499
0.22445339
0.21232069
0.20018931
0.18805636
0.17592526
0.16379202
0.15166123
0.13952775
0.12739718
0.11526377
0.10313306
0.09100071
0.078868925
0.066740527
0.054606452
0.042491665
0.030358949
0.01829094
0.0061327321
1.50764
1.4791811
1.4411261
1.4042416
1.366952
1.3300199
1.2952976
1.2634839
1.2345336
1.2081897
1.1840965
1.1618579
1.1411026
1.121517
1.1028521
1.0849152
1.06756
1.0506786
1.0341971
1.0180681
1.0022603
0.98674838
0.97150647
0.95650752
0.94172606
0.92714127
0.91273796
0.8985053
0.88443455
0.87051716
0.85674387
0.84310477
0.82958986
0.81618958
0.80289525
0.78969933
0.77659539
0.76357817
0.75064342
0.73778777
0.72500847
0.71230306
0.69966909
0.68710373
0.67460357
0.66216444
0.64978135
0.63744866
0.6251602
0.6129096
0.60069049
0.58849683
0.57632306
0.56416435
0.55201656
0.53987636
0.52774115
0.51560897
0.50347844
0.49134862
0.47921892
0.46708903
0.45495876
0.44282813
0.43069707
0.41856575
0.40643411
0.39430236
0.38217038
0.37003843
0.35790628
0.34577429
0.33364205
0.32151009
0.30937778
0.2972459
0.28511349
0.27298174
0.26084919
0.24871762
0.23658486
0.22445355
0.21232048
0.20018954
0.18805603
0.17592556
0.1637915
0.15166158
0.13952686
0.12739742
0.11526211
0.10313263
0.090997251
0.078866285
0.066732984
0.054598267
0.042476884
0.030342387
0.018271153
0.0061139696
1.47856
1.4623843
1.4334566
1.4012127
1.3675289
1.3332948
1.3000462
1.2687572
1.239737
1.2129745
1.1882917
1.1654168
1.1440552
1.1239351
1.1048239
1.0865269
1.0688832
1.0517678
1.0350934
1.0188066
1.0028747
0.98727088
0.97196407
0.95691881
0.94210081
0.92748283
0.91304693
0.8987824
0.88468196
0.87073837
0.85694287
0.84328525
0.82975474
0.81634102
0.80303484
0.78982832
0.77671491
0.76368928
0.75074712
0.73788493
0.72509974
0.71238888
0.69974961
0.6871789
0.67467314
0.66222807
0.64983873
0.63749953
0.62520446
0.61294731
0.6007219
0.58852236
0.5763433
0.56417993
0.5520282
0.53988476
0.52774697
0.51561282
0.50348083
0.49134998
0.47921958
0.46708925
0.45495872
0.44282796
0.43069685
0.41856553
0.40643391
0.39430221
0.38217026
0.37003836
0.35790622
0.34577427
0.33364202
0.3215101
0.30937775
0.29724593
0.28511346
0.27298178
0.26084914
0.24871768
0.23658478
0.22445364
0.21232035
0.20018965
0.1880558
0.17592572
0.16379104
0.15166175
0.13952585
0.12739748
0.11525965
0.10313204
0.090990794
0.07886285
0.066714575
0.054582798
0.042418614
0.030275027
0.018081708
0.0059686139
1.4655533
1.4531762
1.4288396
1.3996095
1.3680979
1.3354124
1.303033
1.2720712
1.2430157
1.2159935
1.1909361
1.1676535
1.145904
1.1254456
1.106057
1.0875406
1.0697249
1.0524718
1.0356845
1.019305
1.0032998
0.9876414
0.9722958
0.95722252
0.94238181
0.92774248
0.91328487
0.89899851
0.88487719
0.87091468
0.85710271
0.84343099
0.82988839
0.81646416
0.80314877
0.78993412
0.7768136
0.7637818
0.7508343
0.7379674
0.72517793
0.71246295
0.69981948
0.68724429
0.67473366
0.66228329
0.64988827
0.63754315
0.62524208
0.61297903
0.60074802
0.58854333
0.57635967
0.56419235
0.55203732
0.53989122
0.52775135
0.51561564
0.50348251
0.49135088
0.47921996
0.46708933
0.45495862
0.44282778
0.43069666
0.41856536
0.40643376
0.3943021
0.38217017
0.37003831
0.35790618
0.34577425
0.33364201
0.3215101
0.30937775
0.29724594
0.28511346
0.2729818
0.26084913
0.2487177
0.23658476
0.22445366
0.21232031
0.20018968
0.18805571
0.17592575
0.1637908
0.15166178
0.1395252
0.12739746
0.11525782
0.10313167
0.090985454
0.078860525
0.066697818
0.054569729
0.042359803
0.030206923
0.017875108
0.0058091119
1.4655533
1.4531762
1.4288396
1.3996095
1.3680979
1.3354124
1.303033
1.2720712
1.2430157
1.2159935
1.1909361
1.1676535
1.145904
1.1254456
1.106057
1.0875406
1.0697249
1.0524718
1.0356845
1.019305
1.0032998
0.98764139
0.97229579
0.95722251
0.9423818
0.92774247
0.91328487
0.89899851
0.8848772
0.87091469
0.85710272
0.843431
0.8298884
0.81646418
0.80314878
0.78993414
0.77681362
0.76378182
0.75083431
0.73796742
0.72517795
0.71246297
0.6998195
0.68724432
0.67473369
0.66228333
0.64988831
0.63754319
0.62524211
0.61297906
0.60074805
0.58854336
0.5763597
0.56419238
0.55203734
0.53989124
0.52775137
0.51561566
0.50348253
0.4913509
0.47921999
0.46708935
0.45495864
0.4428278
0.43069667
0.41856537
0.40643378
0.39430211
0.38217019
0.37003832
0.3579062
0.34577426
0.33364201
0.32151011
0.30937776
0.29724594
0.28511346
0.2729818
0.26084914
0.24871771
0.23658477
0.22445367
0.21232031
0.20018968
0.18805571
0.17592575
0.1637908
0.15166178
0.1395252
0.12739745
0.11525782
0.10313167
0.090985456
0.078860527
0.066697822
0.05456973
0.042359803
0.030206922
0.017875106
0.0058091113
1.47856
1.4623843
1.4334566
1.4012127
1.3675289
1.3332948
1.3000462
1.2687572
1.2397371
1.2129745
1.1882917
1.1654168
1.1440552
1.123935
1.1048239
1.0865269
1.0688832
1.0517678
1.0350934
1.0188066
1.0028747
0.98727086
0.97196404
0.95691879
0.94210078
0.92748282
0.91304692
0.8987824
0.88468197
0.87073839
0.8569429
0.84328529
0.82975479
0.81634106
0.80303488
0.78982836
0.77671495
0.76368932
0.75074716
0.73788497
0.72509979
0.71238894
0.69974968
0.68717898
0.67467323
0.66222817
0.64983883
0.63749963
0.62520456
0.61294741
0.600722
0.58852246
0.57634338
0.56418001
0.55202828
0.53988484
0.52774705
0.51561289
0.50348089
0.49135004
0.47921964
0.46708931
0.45495878
0.44282801
0.4306969
0.41856558
0.40643396
0.39430225
0.3821703
0.37003839
0.35790625
0.3457743
0.33364204
0.32151012
0.30937777
0.29724594
0.28511348
0.27298179
0.26084916
0.24871769
0.23658479
0.22445365
0.21232036
0.20018966
0.18805581
0.17592572
0.16379104
0.15166175
0.13952585
0.12739747
0.11525965
0.10313204
0.090990802
0.078862861
0.066714587
0.054582806
0.042418614
0.030275022
0.018081704
0.0059686122
1.50764
1.4791811
1.4411261
1.4042416
1.366952
1.3300199
1.2952976
1.2634839
1.2345336
1.2081897
1.1840965
1.1618579
1.1411026
1.121517
1.1028521
1.0849152
1.0675599
1.0506786
1.0341971
1.0180681
1.0022603
0.98674834
0.97150644
0.95650749
0.94172603
0.92714125
0.91273795
0.89850531
0.88443458
0.8705172
0.85674392
0.84310483
0.82958992
0.81618964
0.80289531
0.78969938
0.77659544
0.76357822
0.75064348
0.73778784
0.72500854
0.71230315
0.69966919
0.68710386
0.67460371
0.66216458
0.6497815
0.63744881
0.62516036
0.61290975
0.60069063
0.58849696
0.57632319
0.56416447
0.55201667
0.53987647
0.52774125
0.51560907
0.50347853
0.49134872
0.47921901
0.46708912
0.45495885
0.44282821
0.43069715
0.41856582
0.40643417
0.39430242
0.38217044
0.37003848
0.35790633
0.34577433
0.33364209
0.32151012
0.3093778
0.29724592
0.28511351
0.27298176
0.26084921
0.24871764
0.23658487
0.22445357
0.21232049
0.20018955
0.18805604
0.17592557
0.1637915
0.15166157
0.13952686
0.12739741
0.11526211
0.10313264
0.090997265
0.078866305
0.066733005
0.05459828
0.042476886
0.030342381
0.018271147
0.0061139666
1.5701838
1.5037665
1.4453442
1.4009702
1.3591255
1.3195167
1.2841403
1.2530825
1.2255943
1.2009242
1.1784269
1.1575526
1.137883
1.1191178
1.1010497
1.0835368
1.0664818
1.0498177
1.0334987
1.0174928
1.0017762
0.98632834
0.97112978
0.95616136
0.94140508
0.926845
0.91246754
0.89826108
0.88421514
0.87031978
0.85656523
0.84294184
0.82944028
0.81605174
0.80276811
0.78958217
0.77648768
0.76347943
0.75055317
0.73770554
0.72493379
0.71223551
0.69960828
0.6870493
0.67455519
0.6621218
0.64974415
0.63741658
0.62513293
0.61288677
0.60067172
0.58848169
0.57631112
0.56415516
0.55200968
0.53987138
0.52773767
0.51560666
0.50347699
0.4913478
0.47921854
0.46708893
0.45495883
0.44282828
0.43069727
0.41856594
0.4064343
0.39430251
0.38217053
0.37003853
0.35790639
0.34577434
0.33364213
0.3215101
0.30937785
0.29724588
0.28511357
0.27298169
0.2608493
0.24871753
0.23658501
0.22445341
0.2123207
0.20018933
0.18805637
0.17592527
0.16379202
0.15166123
0.13952775
0.12739718
0.11526377
0.10313307
0.091000728
0.078868951
0.066740548
0.054606464
0.042491666
0.030358943
0.018290934
0.0061327297
1.6937316
1.5635813
1.4729269
1.4147613
1.365177
1.3206599
1.2823853
1.249884
1.2219119
1.1973206
1.1751784
1.1547871
1.1356097
1.1172847
1.099583
1.0823624
1.0655356
1.0490488
1.0328675
1.016968
1.0013322
0.98594455
0.97079077
0.95585688
0.94112923
0.92659465
0.91224072
0.89805585
0.88402922
0.87015064
0.85641041
0.84279924
0.82930826
0.81592912
0.80265411
0.78947633
0.77638976
0.76338933
0.75047095
0.73763127
0.72486754
0.71217728
0.69955793
0.68700655
0.6745196
0.66209276
0.64972097
0.6373985
0.62511915
0.61287652
0.60066429
0.58847645
0.57630754
0.56415278
0.55200817
0.53987046
0.52773714
0.51560638
0.50347688
0.49134777
0.47921856
0.46708896
0.45495888
0.44282832
0.43069731
0.41856597
0.40643433
0.39430252
0.38217055
0.37003853
0.35790641
0.34577432
0.33364216
0.32151007
0.30937789
0.29724583
0.28511363
0.27298162
0.26084938
0.24871743
0.23658514
0.22445326
0.21232089
0.20018911
0.18805663
0.17592498
0.16379239
0.15166089
0.13952823
0.12739687
0.11526437
0.10313306
0.091001334
0.078869808
0.066740396
0.0546082
0.042484342
0.030350531
0.018232564
0.0060913295
)
;

boundaryField
{
    top
    {
        type            zeroGradient;
    }
    inlet
    {
        type            zeroGradient;
    }
    outlet
    {
        type            fixedValue;
        value           uniform 0;
    }
    bottom
    {
        type            zeroGradient;
    }
    back
    {
        type            empty;
    }
    front
    {
        type            empty;
    }
}


// ************************************************************************* //
