/*--------------------------------*- C++ -*----------------------------------*\
| =========                 |                                                 |
| \\      /  F ield         | OpenFOAM: The Open Source CFD Toolbox           |
|  \\    /   O peration     | Version:  2112                                  |
|   \\  /    A nd           | Website:  www.openfoam.com                      |
|    \\/     M anipulation  |                                                 |
\*---------------------------------------------------------------------------*/
FoamFile
{
    version     2.0;
    format      ascii;
    arch        "LSB;label=32;scalar=64";
    class       surfaceScalarField;
    location    "70";
    object      phi;
}
// * * * * * * * * * * * * * * * * * * * * * * * * * * * * * * * * * * * * * //

dimensions      [0 3 -1 0 0 0 0];

oriented        oriented;

internalField   nonuniform List<scalar> 
1890
(
0.0092501688
0.00074983121
0.0082910044
0.00095916433
0.0073621548
0.00092884953
0.0065322491
0.00082990566
0.0058250503
0.00070719878
0.005247752
0.00057729864
0.0047933615
0.00045439105
0.0044450122
0.00034834977
0.0041822264
0.00026278578
0.0039852724
0.00019695321
0.0038371565
0.00014811451
0.0037243971
0.00011275804
0.003636759
8.763778e-05
0.0035668236
6.993665e-05
0.0035093823
5.7443598e-05
0.003460867
4.8517381e-05
0.0034188774
4.199046e-05
0.003381814
3.7062435e-05
0.0033486105
3.3201266e-05
0.0033185475
3.0060619e-05
0.0032911289
2.7417259e-05
0.0032660009
2.5128313e-05
0.0032428988
2.3103507e-05
0.0032216138
2.128693e-05
0.0032019713
1.9643954e-05
0.0031838204
1.8151545e-05
0.0031670282
1.6792039e-05
0.0031514775
1.554999e-05
0.0031370653
1.4411532e-05
0.0031236999
1.3364886e-05
0.0031112987
1.2401004e-05
0.003099785
1.1513722e-05
0.0030890858
1.069924e-05
0.0030791306
9.9550582e-06
0.0030698519
9.2785874e-06
0.0030611858
8.6657506e-06
0.0030530757
8.109868e-06
0.0030454743
7.6011411e-06
0.0030383473
7.1269264e-06
0.0030316746
6.6727648e-06
0.0030254507
6.2241296e-06
0.0030196826
5.7683058e-06
0.0030143865
5.2963498e-06
0.0030095823
4.8042536e-06
0.0030052886
4.2936316e-06
0.0030015173
3.771177e-06
0.0029982693
3.2477074e-06
0.0029955325
2.736303e-06
0.0029932815
2.2506172e-06
0.0029914781
1.8029417e-06
0.0029900748
1.4030237e-06
0.0029890174
1.0570575e-06
0.0029882496
7.6761188e-07
0.0029877158
5.3368017e-07
0.0029873643
3.5150747e-07
0.0029871491
2.1516082e-07
0.0029870314
1.1770333e-07
0.0029869798
5.1600159e-08
0.0029869699
9.8790388e-09
0.002986984
-1.4104308e-08
0.0029870094
-2.5478974e-08
0.0029870383
-2.8990048e-08
0.0029870655
-2.7409768e-08
0.0029870891
-2.3753485e-08
0.0029871077
-1.873714e-08
0.0029871219
-1.4388667e-08
0.0029871317
-9.8731476e-09
0.0029871386
-7.0779824e-09
0.0029871424
-3.9265702e-09
0.0029871452
-2.936801e-09
0.0029871459
-7.4188266e-10
0.002987147
-1.2163516e-09
0.0029871462
7.4647638e-10
0.0029871471
-9.1885686e-10
0.0029871456
1.5059381e-09
0.0029871469
-1.3670918e-09
0.0029871447
2.1649644e-09
0.0029871469
-2.2540079e-09
0.0029871438
3.0852476e-09
0.0029871473
-3.5343066e-09
0.0029871429
4.4959924e-09
0.0029871481
-5.293044e-09
0.0029871415
6.5902455e-09
0.0029871491
-7.6255294e-09
0.0029871396
9.5633775e-09
0.00298715
-1.0443357e-08
0.0029871364
1.3595328e-08
0.0029871494
-1.3036384e-08
0.0029871306
1.8798965e-08
0.0029871435
-1.295599e-08
0.0029871182
2.5222016e-08
0.0029871216
-3.376583e-09
0.0029870888
3.3040942e-08
0.0029870571
3.2032995e-08
0.0029870166
4.0696805e-08
0.0029868984
1.1820562e-07
0.002986887
1.0969194e-08
0.0029867032
1.8351769e-07
0.00298709
-3.8705011e-07
-3.3358075e-07
0.010379776
0.00037005496
0.010574967
0.00076397368
0.01062758
0.00087623599
0.01056664
0.00089084616
0.010429447
0.00084439176
0.010247194
0.00075955207
0.010042592
0.00065899275
0.009832619
0.00055832314
0.0096291843
0.00046622048
0.009439452
0.0003866851
0.0092669465
0.00032061937
0.0091125575
0.00026714631
0.0089756325
0.00022456262
0.0088546732
0.00019089656
0.008747845
0.00016427298
0.0086532856
0.00014307791
0.0085692703
0.00012600628
0.0084942829
0.00011204923
0.0084270317
0.00010045131
0.0083664344
9.0656646e-05
0.0083115927
8.2258302e-05
0.0082617631
7.4958116e-05
0.0082163296
6.8537759e-05
0.0081747798
6.2837766e-05
0.0081366837
5.7740772e-05
0.0081016776
5.3157925e-05
0.0080694508
4.9018769e-05
0.0080397351
4.5265277e-05
0.0080122969
4.1849363e-05
0.0079869292
3.8732328e-05
0.0079634457
3.5884522e-05
0.0079416755
3.3283948e-05
0.0079214612
3.091359e-05
0.0079026586
2.8757643e-05
0.0078851394
2.6797707e-05
0.0078687953
2.5009663e-05
0.0078535427
2.3362357e-05
0.0078393254
2.1818312e-05
0.0078261156
2.0336691e-05
0.0078139106
1.887773e-05
0.0078027269
1.7407918e-05
0.0077925907
1.5904572e-05
0.0077835281
1.4359076e-05
0.0077755545
1.277778e-05
0.0077686673
1.1180849e-05
0.0077628396
9.5987291e-06
0.0077580193
8.0677781e-06
0.0077541305
6.6248393e-06
0.0077510779
5.3029531e-06
0.0077487533
4.1273189e-06
0.0077470425
3.1136647e-06
0.0077458322
2.2671367e-06
0.0077450161
1.5836309e-06
0.0077444987
1.0509477e-06
0.0077441985
6.5170948e-07
0.0077440485
3.6509852e-07
0.0077439964
1.6980495e-07
0.007744003
4.4942136e-08
0.0077440405
-2.7677305e-08
0.0077440905
-6.409742e-08
0.0077441413
-7.634149e-08
0.0077441868
-7.4582172e-08
0.0077442241
-6.4790892e-08
0.0077442529
-5.2629742e-08
0.0077442736
-3.9550242e-08
0.007744288
-2.8832868e-08
0.007744297
-1.8965086e-08
0.0077443026
-1.2777661e-08
0.0077443053
-6.6795806e-09
0.0077443068
-4.5448645e-09
0.0077443068
-7.5524569e-10
0.007744307
-1.4751878e-09
0.0077443061
1.6770936e-09
0.0077443063
-1.1285836e-09
0.007744305
2.7613523e-09
0.0077443057
-2.0639028e-09
0.0077443041
3.7456767e-09
0.0077443055
-3.7138648e-09
0.0077443033
5.3049246e-09
0.0077443058
-6.0700263e-09
0.0077443024
7.9021573e-09
0.0077443066
-9.4349896e-09
0.0077443011
1.2053297e-08
0.0077443077
-1.4264744e-08
0.0077442988
1.8526754e-08
0.0077443093
-2.0974223e-08
0.0077442943
2.8557075e-08
0.0077443107
-2.9414735e-08
0.0077442852
4.4254444e-08
0.0077443095
-3.7250307e-08
0.007744265
6.9708876e-08
0.0077442969
-3.5328963e-08
0.0077442159
1.1417577e-07
0.0077442438
4.3684583e-09
0.0077440842
2.0035337e-07
0.007744048
1.5434815e-07
0.0077436803
3.7842819e-07
0.0077433033
5.6027765e-07
0.0077421688
7.4735041e-07
1.361949e-06
0.010194547
0.0001755078
0.010510297
0.00044822424
0.010823883
0.00056264931
0.011103867
0.0006108618
0.011333741
0.00061451863
0.011509103
0.00058418993
0.011633657
0.00053443848
0.011714989
0.00047699174
0.011761892
0.00041931797
0.011782798
0.00036577797
0.011784952
0.00031846546
0.011774171
0.0002779267
0.011754923
0.00024381034
0.01173049
0.00021532998
0.011703198
0.00019156597
0.011674643
0.00017163373
0.011645887
0.00015476252
0.011617614
0.00014032174
0.011590248
0.00012781635
0.011564038
0.0001168662
0.011539114
0.000107181
0.011515534
9.8538755e-05
0.011493303
9.0769719e-05
0.011472397
8.3744374e-05
0.011452775
7.7363102e-05
0.011434386
7.154711e-05
0.011417173
6.6231603e-05
0.011401076
6.1361965e-05
0.011386032
5.6892596e-05
0.011371978
5.2786884e-05
0.011358846
4.9016608e-05
0.01134657
4.5559733e-05
0.011335087
4.2396499e-05
0.01132434
3.9504663e-05
0.011314283
3.6855177e-05
0.011304883
3.4409636e-05
0.011296124
3.2120457e-05
0.011288009
2.993397e-05
0.011280549
2.7796028e-05
0.011273768
2.5658813e-05
0.011267689
2.3487576e-05
0.011262328
2.1265548e-05
0.01125769
1.8996354e-05
0.011253765
1.670298e-05
0.011250522
1.4424144e-05
0.011247912
1.2208171e-05
0.011245874
1.0106332e-05
0.011244332
8.1659241e-06
0.01124321
6.4251622e-06
0.011242428
4.9093137e-06
0.011241912
3.6296772e-06
0.011241595
2.5836921e-06
0.011241421
1.7574532e-06
0.011241344
1.1281736e-06
0.011241328
6.6805895e-07
0.011241346
3.4684764e-07
0.011241381
1.3516983e-07
0.01124142
5.6891749e-09
0.011241457
-6.4671426e-08
0.011241488
-9.5412079e-08
0.011241513
-1.0084898e-07
0.011241531
-9.2514953e-08
0.011241543
-7.7086564e-08
0.011241551
-6.0489739e-08
0.011241555
-4.4140508e-08
0.011241557
-3.1204703e-08
0.011241558
-1.9883126e-08
0.011241558
-1.2906921e-08
0.011241558
-6.3273982e-09
0.011241558
-4.113083e-09
0.011241557
-1.9444963e-10
0.011241557
-1.1355178e-09
0.011241556
2.146602e-09
0.011241556
-1.0528209e-09
0.011241556
3.1768947e-09
0.011241556
-2.2897298e-09
0.011241555
4.2792497e-09
0.011241556
-4.3307007e-09
0.011241555
6.2291508e-09
0.011241556
-7.3339416e-09
0.011241555
9.6747286e-09
0.011241557
-1.1909027e-08
0.011241554
1.5518527e-08
0.011241558
-1.9063272e-08
0.011241552
2.5288663e-08
0.011241561
-3.0209188e-08
0.011241548
4.1641174e-08
0.011241565
-4.6938426e-08
0.01124154
6.9256245e-08
0.011241573
-6.9689001e-08
0.011241526
1.1675809e-07
0.011241583
-9.2685633e-08
0.011241495
2.0169938e-07
0.011241587
-8.6669946e-08
0.01124142
3.6714532e-07
0.011241513
6.1262063e-08
0.01124114
7.51269e-07
0.011240926
7.7376279e-07
0.011239806
1.8677734e-06
3.3470869e-06
0.010101125
7.4383149e-05
0.010347883
0.00020146598
0.010645913
0.00026461958
0.010960847
0.00029592751
0.011269219
0.00030614638
0.011554366
0.00029904332
0.011807917
0.00028088743
0.012027601
0.00025730761
0.012214838
0.00023208153
0.012373019
0.00020759632
0.012506298
0.00018518639
0.012618823
0.00016540081
0.012714341
0.00014829228
0.012796029
0.00013364228
0.012866481
0.00012111492
0.012927764
0.00011035168
0.012981505
0.00010102238
0.013028978
9.2848227e-05
0.013071186
8.5606684e-05
0.013108926
7.9125604e-05
0.013142833
7.3273394e-05
0.013173423
6.7949515e-05
0.013201115
6.3077394e-05
0.013226262
5.8598901e-05
0.013249156
5.446946e-05
0.013270049
5.0653734e-05
0.013289158
4.7122346e-05
0.01330667
4.3850392e-05
0.013322745
4.081721e-05
0.013337525
3.8006629e-05
0.013351135
3.5406493e-05
0.013363688
3.3006953e-05
0.013375287
3.0797588e-05
0.013386027
2.876412e-05
0.013395997
2.6885735e-05
0.013405272
2.5133958e-05
0.013413919
2.3473683e-05
0.013421987
2.1866295e-05
0.013429508
2.0274404e-05
0.0134365
1.8667089e-05
0.013442963
1.7024591e-05
0.013448887
1.5341356e-05
0.013454257
1.3626865e-05
0.013459056
1.1904038e-05
0.013463274
1.0205731e-05
0.013466913
8.5698362e-06
0.013469985
7.0342525e-06
0.013472518
5.6320561e-06
0.013474555
4.3882664e-06
0.013476147
3.3175725e-06
0.013477352
2.4242785e-06
0.013478233
1.7027961e-06
0.013478851
1.1399668e-06
0.013479262
7.1691697e-07
0.013479518
4.1206034e-07
0.013479662
2.0273167e-07
0.01347973
6.7610223e-08
0.013479748
-1.2748095e-08
0.013479738
-5.4380526e-08
0.013479713
-7.0631534e-08
0.013479683
-7.107904e-08
0.013479654
-6.3334436e-08
0.013479629
-5.1661247e-08
0.013479608
-3.9823306e-08
0.013479593
-2.8576103e-08
0.013479581
-1.9876996e-08
0.013479574
-1.2409407e-08
0.013479569
-7.9102512e-09
0.013479566
-3.6916404e-09
0.013479564
-2.3774096e-09
0.013479564
1.1595401e-10
0.013479564
-6.3130187e-10
0.013479564
1.5232561e-09
0.013479564
-7.1898641e-10
0.013479565
2.17605e-09
0.013479564
-1.6495122e-09
0.013479565
2.9820679e-09
0.013479564
-3.159548e-09
0.013479566
4.4861047e-09
0.013479564
-5.4601925e-09
0.013479567
7.2187829e-09
0.013479564
-9.1290428e-09
0.013479567
1.1996934e-08
0.013479563
-1.51431e-08
0.013479569
2.0242979e-08
0.013479563
-2.4996537e-08
0.013479571
3.4432659e-08
0.013479564
-4.0701083e-08
0.013479575
5.8825545e-08
0.013479569
-6.4024193e-08
0.013479585
1.0082157e-07
0.013479585
-9.2848736e-08
0.013479613
1.7422152e-07
0.013479633
-1.0712784e-07
0.013479689
3.1157785e-07
0.013479764
-1.3965694e-08
0.013479888
6.2771628e-07
0.013480083
5.7791235e-07
0.013480345
1.6058918e-06
2.9618483e-06
0.010074383
-2.3790222e-12
0.010275849
4.3052218e-12
0.010540469
-5.4529084e-12
0.010836396
-2.1295935e-11
0.011142543
-2.3653819e-11
0.011441586
-4.1100998e-12
0.011722474
2.9803316e-11
0.011979781
6.4274423e-11
0.012211863
6.8776709e-11
0.012419459
4.4293604e-11
0.012604645
-5.4515661e-12
0.012770045
-5.4535234e-11
0.012918337
-6.7143307e-11
0.01305198
-4.7775505e-11
0.013173096
5.2385438e-12
0.013283448
5.8724139e-11
0.013384471
9.0296404e-11
0.013477319
1.049792e-10
0.013562924
9.9095916e-11
0.013642049
9.73093e-11
0.013715322
9.7052273e-11
0.013783271
9.179628e-11
0.013846349
7.6485044e-11
0.013904949
3.5226469e-11
0.013959419
-1.9504744e-11
0.014010072
-8.792851e-11
0.014057195
-1.5213583e-10
0.014101045
-2.1192355e-10
0.014141862
-2.607142e-10
0.014179869
-3.0508871e-10
0.014215276
-3.4245877e-10
0.014248283
-3.7715335e-10
0.014279081
-4.0438173e-10
0.014307846
-4.2520024e-10
0.014334732
-4.3592867e-10
0.014359866
-4.3876856e-10
0.01438334
-4.3235949e-10
0.014405207
-4.2333726e-10
0.014425482
-4.1007013e-10
0.01444415
-4.0223597e-10
0.014461175
-3.936498e-10
0.014476516
-3.9103788e-10
0.014490144
-3.8723984e-10
0.014502048
-3.8296202e-10
0.014512255
-3.7842051e-10
0.014520825
-3.6548507e-10
0.014527859
-3.5744191e-10
0.014533492
-3.3574834e-10
0.01453788
-3.2701295e-10
0.014541198
-3.0294031e-10
0.014543623
-2.996266e-10
0.014545326
-2.8119964e-10
0.014546466
-2.8694724e-10
0.014547184
-2.7612141e-10
0.014547596
-2.8843775e-10
0.014547799
-2.8196583e-10
0.014547867
-2.95323e-10
0.014547855
-2.8668535e-10
0.014547801
-2.9513353e-10
0.01454773
-2.8002442e-10
0.01454766
-2.8141889e-10
0.014547597
-2.5858332e-10
0.014547545
-2.5376191e-10
0.014547506
-2.2569553e-10
0.014547477
-2.1802124e-10
0.014547458
-1.8765876e-10
0.014547445
-1.7993181e-10
0.014547438
-1.5048231e-10
0.014547434
-1.4510307e-10
0.014547432
-1.1782488e-10
0.014547432
-1.1530484e-10
0.014547432
-9.1234794e-11
0.014547433
-9.2079573e-11
0.014547433
-7.0947638e-11
0.014547435
-7.4631652e-11
0.014547433
-5.6786189e-11
0.014547436
-6.3472091e-11
0.014547433
-4.8315743e-11
0.014547438
-5.7140011e-11
0.014547432
-4.4542857e-11
0.01454744
-5.4820638e-11
0.014547431
-4.282516e-11
0.014547443
-5.1758548e-11
0.014547428
-3.7889305e-11
0.014547448
-4.3496152e-11
0.014547423
-2.6738727e-11
0.014547457
-3.0889842e-11
0.014547417
-1.6089476e-11
0.014547475
-2.3998028e-11
0.014547411
-1.6246305e-11
0.014547512
-2.7959849e-11
0.014547419
-2.7681281e-11
0.014547594
-4.2913257e-11
0.014547487
-3.9176587e-11
0.014547799
-5.1973819e-11
0.014547785
-3.0872351e-11
0.014548412
-2.8472744e-11
0.01454899
-1.2724477e-11
0.014550596
-1.2573845e-11
-1.4860618e-11
0.010074383
-7.4383154e-05
0.010275849
-0.00020146597
0.010540469
-0.00026461959
0.010836396
-0.00029592756
0.011142543
-0.00030614643
0.011441586
-0.00029904332
0.011722474
-0.00028088737
0.011979781
-0.00025730748
0.012211863
-0.00023208139
0.012419459
-0.00020759623
0.012604645
-0.0001851864
0.012770045
-0.00016540091
0.012918337
-0.0001482924
0.01305198
-0.00013364236
0.013173096
-0.00012111492
0.013283448
-0.00011035159
0.013384471
-0.00010102223
0.013477319
-9.2848042e-05
0.013562924
-8.5606483e-05
0.013642049
-7.9125384e-05
0.013715322
-7.3273169e-05
0.013783271
-6.7949304e-05
0.013846349
-6.3077237e-05
0.013904949
-5.8598841e-05
0.013959418
-5.446952e-05
0.014010072
-5.0653924e-05
0.014057195
-4.712265e-05
0.014101045
-4.3850797e-05
0.014141862
-4.0817696e-05
0.014179869
-3.8007192e-05
0.014215276
-3.5407122e-05
0.014248283
-3.3007645e-05
0.014279081
-3.0798331e-05
0.014307845
-2.8764898e-05
0.014334732
-2.6886534e-05
0.014359866
-2.5134756e-05
0.01438334
-2.3474475e-05
0.014405207
-2.1867066e-05
0.014425481
-2.0275166e-05
0.014444149
-1.8667837e-05
0.014461174
-1.7025343e-05
0.014476516
-1.5342109e-05
0.014490143
-1.3627623e-05
0.014502048
-1.1904796e-05
0.014512254
-1.020648e-05
0.014520824
-8.5705713e-06
0.014527859
-7.0349575e-06
0.014533491
-5.632733e-06
0.01453788
-4.3889024e-06
0.014541198
-3.3181797e-06
0.014543623
-2.4248519e-06
0.014545326
-1.7033556e-06
0.014546466
-1.1405104e-06
0.014547183
-7.1746392e-07
0.014547596
-4.1260658e-07
0.014547799
-2.0329056e-07
0.014547867
-6.8171932e-08
0.014547854
1.2178122e-08
0.0145478
5.3816524e-08
0.01454773
7.0072509e-08
0.014547659
7.0540368e-08
0.014547596
6.2816098e-08
0.014547545
5.1176049e-08
0.014547506
3.9368656e-08
0.014547477
2.8161321e-08
0.014547458
1.9496831e-08
0.014547445
1.2069639e-08
0.014547438
7.6029322e-09
0.014547434
3.4208216e-09
0.014547432
2.1343858e-09
0.014547432
-3.2818615e-10
0.014547432
4.4048535e-10
0.014547433
-1.6895861e-09
0.014547433
5.6831581e-10
0.014547435
-2.3082635e-09
0.014547433
1.5268306e-09
0.014547436
-3.092187e-09
0.014547433
3.0540516e-09
0.014547438
-4.5840185e-09
0.014547432
5.362633e-09
0.01454744
-7.3119733e-09
0.014547431
9.0359343e-09
0.014547443
-1.2084281e-08
0.014547428
1.5060683e-08
0.014547448
-2.0314309e-08
0.014547423
2.4937118e-08
0.014547457
-3.4479985e-08
0.014547417
4.0664032e-08
0.014547475
-5.8859875e-08
0.014547411
6.398784e-08
0.014547512
-1.0087177e-07
0.014547419
9.278208e-08
0.014547594
-1.7430923e-07
0.014547487
1.0702328e-07
0.014547798
-3.1168036e-07
0.014547785
1.3869033e-08
0.014548412
-6.2776384e-07
0.01454899
-5.7792934e-07
0.014550596
-1.6059132e-06
-2.9618736e-06
0.010101125
-0.00017550781
0.010347883
-0.00044822423
0.010645913
-0.00056264932
0.010960847
-0.00061086184
0.011269219
-0.00061451867
0.011554366
-0.00058418993
0.011807917
-0.00053443842
0.012027601
-0.00047699162
0.012214838
-0.00041931783
0.012373019
-0.00036577786
0.012506298
-0.00031846543
0.012618823
-0.00027792677
0.012714341
-0.00024381047
0.012796029
-0.0002153301
0.012866481
-0.00019156604
0.012927764
-0.00017163371
0.012981504
-0.0001547624
0.013028978
-0.00014032155
0.013071186
-0.00012781609
0.013108926
-0.00011686591
0.013142833
-0.00010718072
0.013173423
-9.8538523e-05
0.013201115
-9.0769578e-05
0.013226261
-8.3744349e-05
0.013249155
-7.7363204e-05
0.013270049
-7.1547317e-05
0.013289158
-6.6231898e-05
0.013306669
-6.1362314e-05
0.013322744
-5.6892996e-05
0.013337524
-5.278732e-05
0.013351134
-4.9017092e-05
0.013363687
-4.5560256e-05
0.013375286
-4.239706e-05
0.013386026
-3.9505252e-05
0.013395995
-3.6855775e-05
0.013405271
-3.4410244e-05
0.013413918
-3.2121055e-05
0.013421985
-2.9934577e-05
0.013429507
-2.7796633e-05
0.013436498
-2.5659443e-05
0.013442961
-2.3488221e-05
0.013448885
-2.1266226e-05
0.013454255
-1.8997048e-05
0.013459054
-1.6703689e-05
0.013463272
-1.4424849e-05
0.013466911
-1.2208861e-05
0.013469983
-1.0106992e-05
0.013472517
-8.1665495e-06
0.013474554
-6.4257451e-06
0.013476146
-4.9098622e-06
0.013477351
-3.6301921e-06
0.013478232
-2.5841905e-06
0.01347885
-1.7579368e-06
0.013479261
-1.1286617e-06
0.013479517
-6.6854728e-07
0.013479661
-3.473518e-07
0.013479729
-1.3567554e-07
0.013479748
-6.2082511e-09
0.013479737
6.4160973e-08
0.013479713
9.4899894e-08
0.013479683
1.0036136e-07
0.013479654
9.2038738e-08
0.013479628
7.6647891e-08
0.013479608
6.0071165e-08
0.013479592
4.3766969e-08
0.013479581
3.0853911e-08
0.013479574
1.9577866e-08
0.013479569
1.2622044e-08
0.013479566
6.0851976e-09
0.013479564
3.8864769e-09
0.013479564
5.0963825e-12
0.013479563
9.5611203e-10
0.013479564
-2.2937553e-09
0.013479564
9.1019374e-10
0.013479565
-3.2929284e-09
0.013479564
2.1729239e-09
0.013479565
-4.3740615e-09
0.013479564
4.2303726e-09
0.013479566
-6.3122083e-09
0.013479564
7.2417913e-09
0.013479567
-9.751422e-09
0.013479564
1.1822901e-08
0.013479567
-1.5587166e-08
0.013479563
1.898901e-08
0.013479569
-2.533837e-08
0.013479563
3.0157845e-08
0.01347957
-4.1665091e-08
0.013479564
4.6908943e-08
0.013479575
-6.9267562e-08
0.013479569
6.9658709e-08
0.013479585
-1.1679388e-07
0.013479585
9.2611066e-08
0.013479612
-2.0179543e-07
0.013479633
8.6546388e-08
0.013479689
-3.6726044e-07
0.013479764
-6.1338214e-08
0.013479887
-7.5130817e-07
0.013480083
-7.7377692e-07
0.013480345
-1.8677832e-06
-3.3470998e-06
0.010194547
-0.00037005496
0.010510297
-0.00076397368
0.010823883
-0.00087623601
0.011103868
-0.0008908462
0.011333741
-0.00084439179
0.011509103
-0.00075955207
0.011633658
-0.00065899266
0.011714989
-0.00055832299
0.011761892
-0.00046622031
0.011782798
-0.00038668499
0.011784952
-0.00032061939
0.011774171
-0.00026714643
0.011754923
-0.00022456284
0.01173049
-0.00019089672
0.011703198
-0.00016427302
0.011674643
-0.00014307781
0.011645887
-0.00012600605
0.011617614
-0.00011204899
0.011590248
-0.00010045107
0.011564038
-9.0656461e-05
0.011539114
-8.2258161e-05
0.011515534
-7.495799e-05
0.011493302
-6.8537675e-05
0.011472396
-6.2837711e-05
0.011452774
-5.7740796e-05
0.011434385
-5.3158026e-05
0.011417172
-4.9018953e-05
0.011401075
-4.5265525e-05
0.011386032
-4.1849649e-05
0.011371977
-3.8732638e-05
0.011358844
-3.5884837e-05
0.011346569
-3.3284274e-05
0.011335086
-3.0913918e-05
0.011324338
-2.8757987e-05
0.011314281
-2.679806e-05
0.011304881
-2.5010031e-05
0.011296122
-2.3362744e-05
0.011288006
-2.1818715e-05
0.011280547
-2.0337125e-05
0.011273766
-1.8878182e-05
0.011267686
-1.7408408e-05
0.011262325
-1.590508e-05
0.011257688
-1.4359609e-05
0.011253763
-1.2778326e-05
0.011250519
-1.1181389e-05
0.01124791
-9.5992722e-06
0.011245871
-8.0682848e-06
0.01124433
-6.6253436e-06
0.011243208
-5.303404e-06
0.011242426
-4.1277721e-06
0.01124191
-3.1140669e-06
0.011241594
-2.2675526e-06
0.01124142
-1.5840085e-06
0.011241343
-1.051351e-06
0.011241327
-6.5208787e-07
0.011241345
-3.6550772e-07
0.01124138
-1.7019309e-07
0.011241419
-4.5358852e-08
0.011241456
2.7286098e-08
0.011241487
6.3685818e-08
0.011241512
7.5966284e-08
0.01124153
7.4194766e-08
0.011241542
6.4449568e-08
0.01124155
5.2282325e-08
0.011241555
3.9256237e-08
0.011241557
2.8534097e-08
0.011241558
1.8721555e-08
0.011241558
1.2528211e-08
0.011241558
6.4850841e-09
0.011241557
4.3407169e-09
0.011241557
6.0270898e-10
0.011241556
1.3094444e-09
0.011241556
-1.7941922e-09
0.011241556
9.9383882e-10
0.011241556
-2.8520103e-09
0.011241556
1.952017e-09
0.011241555
-3.8169483e-09
0.011241556
3.6173235e-09
0.011241555
-5.3650634e-09
0.011241556
5.9828329e-09
0.011241554
-7.9535261e-09
0.011241557
9.357255e-09
0.011241553
-1.2092862e-08
0.011241558
1.4203263e-08
0.011241552
-1.8544917e-08
0.011241561
2.0935585e-08
0.011241548
-2.8552776e-08
0.011241565
2.9394443e-08
0.01124154
-4.4244094e-08
0.011241572
3.722e-08
0.011241525
-6.9740107e-08
0.011241583
3.523979e-08
0.011241495
-1.1425342e-07
0.011241586
-4.4595863e-09
0.01124142
-2.0038483e-07
0.011241513
-1.5436046e-07
0.01124114
-3.7843101e-07
0.011240926
-5.6028097e-07
0.011239805
-7.4736288e-07
-1.3619767e-06
0.010379776
-0.00074983121
0.010574967
-0.00095916433
0.01062758
-0.00092884955
0.01056664
-0.0008299057
0.010429447
-0.0007071988
0.010247194
-0.00057729856
0.010042592
-0.00045439086
0.0098326191
-0.00034834951
0.0096291842
-0.00026278563
0.0094394517
-0.0001969533
0.0092669461
-0.00014811489
0.0091125572
-0.00011275856
0.0089756325
-8.7638105e-05
0.0088546735
-6.9936585e-05
0.0087478454
-5.7443074e-05
0.0086532861
-4.8516632e-05
0.0085692706
-4.1989882e-05
0.0084942832
-3.7062257e-05
0.0084270318
-3.3201593e-05
0.0083664345
-3.0061193e-05
0.0083115926
-2.7417772e-05
0.0082617629
-2.5128527e-05
0.0082163293
-2.3103323e-05
0.0081747793
-2.1286525e-05
0.0081366832
-1.9643502e-05
0.0081016771
-1.8151269e-05
0.0080694501
-1.6791999e-05
0.0080397344
-1.5550166e-05
0.008012296
-1.4411814e-05
0.0079869282
-1.336517e-05
0.0079634445
-1.2401223e-05
0.0079416742
-1.1513865e-05
0.0079214598
-1.0699343e-05
0.0079026572
-9.9551603e-06
0.0078851379
-9.2787315e-06
0.0078687938
-8.6659457e-06
0.007853541
-8.110105e-06
0.0078393235
-7.6014078e-06
0.0078261135
-7.1271793e-06
0.0078139084
-6.6730102e-06
0.0078027246
-6.2243304e-06
0.0077925884
-5.7684943e-06
0.0077835257
-5.2965168e-06
0.0077755522
-4.8044267e-06
0.007768665
-4.2938288e-06
0.0077628375
-3.7713879e-06
0.0077580173
-3.24797e-06
0.0077541287
-2.7365618e-06
0.0077510762
-2.2509258e-06
0.0077487518
-1.803216e-06
0.007747041
-1.4033295e-06
0.0077458309
-1.0573054e-06
0.0077450149
-7.6787832e-07
0.0077444976
-5.338846e-07
0.0077441974
-3.517304e-07
0.0077440476
-2.1533145e-07
0.0077439955
-1.1790192e-07
0.0077440022
-5.1759205e-08
0.0077440397
-1.0075336e-08
0.0077440898
1.3941721e-08
0.0077441406
2.5274815e-08
0.0077441862
2.8821661e-08
0.0077442235
2.7201494e-08
0.0077442524
2.3588533e-08
0.0077442731
1.85359e-08
0.0077442875
1.4238121e-08
0.0077442966
9.6899297e-09
0.0077443023
6.9509426e-09
0.007744305
3.7678923e-09
0.0077443066
2.8359389e-09
0.0077443066
6.0898272e-10
0.0077443069
1.1409577e-09
0.0077443059
-8.562573e-10
0.0077443062
8.6401562e-10
0.0077443049
-1.5975163e-09
0.0077443056
1.3278792e-09
0.007744304
-2.2436768e-09
0.0077443055
2.2245694e-09
0.0077443032
-3.1551009e-09
0.0077443058
3.5136192e-09
0.0077443024
-4.5555744e-09
0.0077443066
5.2861442e-09
0.0077443011
-6.6337618e-09
0.0077443078
7.6378026e-09
0.0077442988
-9.5935219e-09
0.0077443093
1.0465598e-08
0.0077442943
-1.3624674e-08
0.0077443107
1.3047056e-08
0.0077442851
-1.8856586e-08
0.0077443093
1.291244e-08
0.0077442647
-2.5329845e-08
0.0077442967
3.3433156e-09
0.0077442157
-3.3043318e-08
0.0077442437
-3.1906721e-08
0.0077440843
-4.0563342e-08
0.0077440481
-1.1811936e-07
0.0077436803
-1.1013106e-08
0.0077433032
-1.8362911e-07
0.0077421685
3.8693507e-07
3.3352694e-07
0.0092501688
0.0082910044
0.0073621549
0.0065322492
0.0058250506
0.0052477523
0.0047933617
0.0044450121
0.004182226
0.0039852717
0.0038371558
0.003724397
0.0036367596
0.0035668245
0.0035093832
0.0034608675
0.0034188774
0.0033818138
0.0033486103
0.0033185476
0.0032911292
0.0032660011
0.0032428988
0.0032216134
0.0032019707
0.0031838196
0.0031670274
0.0031514768
0.0031370646
0.0031236993
0.0031112981
0.0030997844
0.0030890852
0.0030791301
0.0030698513
0.0030611852
0.003053075
0.0030454735
0.0030383463
0.0030316735
0.0030254494
0.0030196812
0.0030143851
0.003009581
0.0030052874
0.0030015162
0.0029982683
0.0029955318
0.0029932809
0.0029914776
0.0029900743
0.002989017
0.0029882493
0.0029877155
0.002987364
0.0029871488
0.0029870311
0.0029869795
0.0029869697
0.0029869837
0.0029870091
0.002987038
0.0029870654
0.002987089
0.0029871076
0.0029871218
0.0029871316
0.0029871386
0.0029871424
0.0029871452
0.0029871459
0.0029871471
0.0029871463
0.0029871471
0.0029871456
0.0029871469
0.0029871448
0.0029871469
0.0029871439
0.0029871473
0.0029871429
0.0029871481
0.0029871416
0.0029871492
0.0029871397
0.0029871501
0.0029871365
0.0029871494
0.0029871305
0.0029871432
0.0029871179
0.0029871214
0.0029870888
0.0029870572
0.0029870168
0.0029868985
0.0029868871
0.0029867031
0.0029870899
)
;

boundaryField
{
    top
    {
        type            calculated;
        value           uniform 0;
    }
    inlet
    {
        type            calculated;
        value           nonuniform List<scalar> 10(-0.01 -0.01 -0.01 -0.01 -0.01 -0.01 -0.01 -0.01 -0.01 -0.01);
    }
    outlet
    {
        type            calculated;
        value           nonuniform List<scalar> 10(0.0029874235 0.0077404732 0.01123782 0.01348073 0.014553558 0.014553557 0.01348073 0.01123782 0.0077404729 0.0029874235);
    }
    bottom
    {
        type            calculated;
        value           uniform 0;
    }
    back
    {
        type            empty;
        value           nonuniform List<scalar> 0();
    }
    front
    {
        type            empty;
        value           nonuniform List<scalar> 0();
    }
}


// ************************************************************************* //
