/*--------------------------------*- C++ -*----------------------------------*\
| =========                 |                                                 |
| \\      /  F ield         | OpenFOAM: The Open Source CFD Toolbox           |
|  \\    /   O peration     | Version:  v1812                                 |
|   \\  /    A nd           | Web:      www.OpenFOAM.com                      |
|    \\/     M anipulation  |                                                 |
\*---------------------------------------------------------------------------*/
FoamFile
{
    version     2.0;
    format      ascii;
    class       surfaceScalarField;
    location    "19.7";
    object      phi;
}
// * * * * * * * * * * * * * * * * * * * * * * * * * * * * * * * * * * * * * //

dimensions      [0 3 -1 0 0 0 0];
oriented        oriented;


internalField   nonuniform List<scalar> 
1890
(
0.0093061958
0.00069380425
0.0082843931
0.0010218027
0.0073298986
0.00095449446
0.0064869553
0.00084294331
0.0057695845
0.00071737078
0.00518986
0.00057972443
0.004738168
0.00045169205
0.00439519
0.00034297802
0.0041390268
0.00025616318
0.003949107
0.00018991983
0.003807888
0.00014121897
0.0037013782
0.0001065098
0.003619058
8.2320219e-05
0.0035534117
6.5646243e-05
0.0034992845
5.4127248e-05
0.0034532444
4.6040037e-05
0.0034130502
4.0194282e-05
0.0033772574
3.5792748e-05
0.0033449386
3.2318757e-05
0.0033154894
2.9449282e-05
0.0032885008
2.6988583e-05
0.0032636805
2.4820307e-05
0.003240805
2.2875484e-05
0.0032196926
2.1112417e-05
0.0032001879
1.9504651e-05
0.0031821539
1.8034006e-05
0.0031654672
1.6686718e-05
0.0031500158
1.5451355e-05
0.0031356979
1.4317859e-05
0.0031224209
1.3277069e-05
0.0031101003
1.2320594e-05
0.0030986596
1.1440725e-05
0.0030880292
1.0630439e-05
0.0030781458
9.8833689e-06
0.003068952
9.1937714e-06
0.0030603955
8.5564918e-06
0.0030524286
7.9669097e-06
0.0030450077
7.4208932e-06
0.0030380929
6.9147388e-06
0.0030316478
6.4451178e-06
0.0030256388
6.0090527e-06
0.0030200349
5.6038449e-06
0.0030148079
5.2270742e-06
0.0030099313
4.8765398e-06
0.0030053811
4.5502503e-06
0.0030011347
4.2464014e-06
0.0029971713
3.9633354e-06
0.0029934717
3.6995563e-06
0.002990018
3.4536767e-06
0.0029867936
3.224418e-06
0.002983783
3.010617e-06
0.0029809718
2.8111744e-06
0.0029783468
2.6250931e-06
0.0029758954
2.4514427e-06
0.002973606
2.2893577e-06
0.0029714679
2.1380615e-06
0.0029694711
1.9968097e-06
0.0029676061
1.8649534e-06
0.0029658642
1.7418583e-06
0.0029642373
1.6269396e-06
0.0029627176
1.5196522e-06
0.0029612982
1.4194676e-06
0.0029599723
1.3259073e-06
0.0029587338
1.2385122e-06
0.002957577
1.1568623e-06
0.0029564964
1.0805851e-06
0.002955487
1.009325e-06
0.0029545442
9.4276816e-07
0.0029536635
8.8063427e-07
0.0029528409
8.2261846e-07
0.0029520724
7.6846708e-07
0.0029513546
7.178981e-07
0.002950684
6.7064954e-07
0.0029500575
6.2648572e-07
0.0029494724
5.8519234e-07
0.0029489258
5.4658036e-07
0.0029484152
5.1051244e-07
0.0029479383
4.7681376e-07
0.0029474929
4.4539907e-07
0.0029470768
4.1607765e-07
0.002946688
3.8875248e-07
0.0029463249
3.6320947e-07
0.0029459856
3.3935622e-07
0.0029456687
3.1698369e-07
0.0029453726
2.9608166e-07
0.0029450962
2.7642294e-07
0.0029448379
2.5821316e-07
0.0029445967
2.4105826e-07
0.0029443712
2.2532776e-07
0.0029441609
2.1041298e-07
0.0029439642
1.9684761e-07
0.0029437803
1.8377486e-07
0.0029436083
1.7211517e-07
0.002943448
1.6037791e-07
0.0029432978
1.5018618e-07
0.0029431574
1.4029292e-07
0.0029430254
1.3210897e-07
0.0029429003
1.2511262e-07
0.0029427808
1.1941448e-07
1.2577293e-07
0.010339525
0.00035427931
0.010570754
0.00079057333
0.010606301
0.00091894817
0.010547572
0.00090167133
0.010422317
0.0008426262
0.010244356
0.00075768557
0.010039421
0.00065662743
0.0098287427
0.00055365586
0.009625135
0.00045977083
0.0094353013
0.00037975353
0.0092624277
0.00031409258
0.0091075333
0.00026140425
0.008970154
0.00021969948
0.0088489024
0.00018689785
0.0087419716
0.00016105801
0.0086474927
0.00014051893
0.008563694
0.00012399295
0.0084890108
0.00011047599
0.0084221097
9.9219866e-05
0.0083618776
8.9681405e-05
0.0083073955
8.1470669e-05
0.0082579079
7.4307847e-05
0.0082127929
6.7990493e-05
0.0081715354
6.2369982e-05
0.008133705
5.7335005e-05
0.0080989388
5.2800173e-05
0.0080669273
4.8698255e-05
0.0080374037
4.4974949e-05
0.0080101362
4.1585385e-05
0.0079849214
3.8491845e-05
0.0079615798
3.5662154e-05
0.0079399519
3.3068611e-05
0.0079198952
3.0687171e-05
0.0079012817
2.8496847e-05
0.0078839962
2.6479237e-05
0.0078679346
2.4618137e-05
0.0078530023
2.2899236e-05
0.0078391133
2.1309839e-05
0.0078261894
1.9838655e-05
0.0078141589
1.8475607e-05
0.0078029563
1.7211662e-05
0.0077925214
1.6038723e-05
0.007782799
1.4949477e-05
0.0077737382
1.3937335e-05
0.0077652921
1.2996318e-05
0.0077574175
1.2120997e-05
0.0077500744
1.1306445e-05
0.0077432258
1.054814e-05
0.0077368375
9.8419646e-06
0.0077308778
9.1841289e-06
0.0077253173
8.5711417e-06
0.0077201287
7.9998113e-06
0.0077152866
7.4671643e-06
0.0077107676
6.9704824e-06
0.0077065497
6.5072467e-06
0.0077026126
6.0751305e-06
0.0076989374
5.6720094e-06
0.0076955064
5.295892e-06
0.0076923033
4.9449521e-06
0.0076893128
4.6174667e-06
0.0076865207
4.3118319e-06
0.0076839136
4.0265667e-06
0.0076814792
3.760263e-06
0.0076792061
3.5116425e-06
0.0076770834
3.2795041e-06
0.0076751012
3.0627428e-06
0.0076732502
2.8603537e-06
0.0076715215
2.6713912e-06
0.0076699072
2.4949739e-06
0.0076683996
2.330287e-06
0.0076669916
2.1765252e-06
0.0076656765
2.0329406e-06
0.0076644484
1.8988385e-06
0.0076633013
1.7735445e-06
0.0076622299
1.6564957e-06
0.0076612293
1.5471332e-06
0.0076602948
1.4450075e-06
0.007659422
1.3496373e-06
0.0076586068
1.2606477e-06
0.0076578453
1.1775483e-06
0.0076571341
1.1000367e-06
0.0076564698
1.027533e-06
0.0076558493
9.5989843e-07
0.0076552697
8.9649847e-07
0.0076547283
8.3743462e-07
0.0076542228
7.8189285e-07
0.0076537505
7.3046626e-07
0.0076533094
6.8214354e-07
0.0076528972
6.3760811e-07
0.0076525127
5.9496807e-07
0.0076521529
5.5670904e-07
0.0076518171
5.1953585e-07
0.0076515027
4.8640231e-07
0.0076512105
4.524517e-07
0.0076509355
4.2510567e-07
0.0076506807
3.9526001e-07
0.0076504386
3.7432507e-07
0.0076502165
3.4709607e-07
0.0076499999
3.3607241e-07
3.1077526e-07
0.010188704
0.00016557515
0.010530487
0.00044879097
0.010851453
0.00059798174
0.011124174
0.00062895021
0.011350581
0.00061621883
0.011524486
0.00058378053
0.01164633
0.00053478419
0.011724155
0.00047583049
0.011767999
0.00041592665
0.011786639
0.00036111399
0.011787114
0.0003136171
0.011775058
0.00027346024
0.011754861
0.00023989717
0.011729768
0.00021199029
0.011702054
0.00018877259
0.011673239
0.00016933387
0.011644339
0.00015289295
0.011616003
0.00013881182
0.011588629
0.00012659378
0.011562446
0.00011586444
0.011537572
0.00010634493
0.011514052
9.7826991e-05
0.01149189
9.0153352e-05
0.011471056
8.3203354e-05
0.011451509
7.68826e-05
0.011433193
7.111555e-05
0.011416051
6.5840286e-05
0.011400021
6.1004901e-05
0.011385042
5.6565064e-05
0.011371051
5.248233e-05
0.01135799
4.8723023e-05
0.011345801
4.5257384e-05
0.01133443
4.205899e-05
0.011323822
3.9104266e-05
0.011313929
3.6372112e-05
0.011304704
3.3843596e-05
0.011296101
3.1501681e-05
0.01128808
2.9331009e-05
0.011280601
2.7317694e-05
0.011273628
2.5449171e-05
0.011267125
2.3714047e-05
0.011261062
2.210195e-05
0.011255408
2.0603455e-05
0.011250135
1.9209947e-05
0.011245218
1.7913564e-05
0.011240632
1.6707108e-05
0.011236354
1.5583974e-05
0.011232365
1.4538106e-05
0.011228643
1.3563923e-05
0.01122517
1.2656291e-05
0.011221931
1.1810483e-05
0.011218909
1.1022107e-05
0.011216089
1.0287135e-05
0.011213457
9.6018227e-06
0.011211002
8.9627146e-06
0.01120871
8.3666242e-06
0.011206572
7.8105896e-06
0.011204576
7.2918758e-06
0.011202713
6.8079167e-06
0.011200974
6.3563429e-06
0.011199351
5.9349536e-06
0.011197836
5.5416742e-06
0.011196422
5.174613e-06
0.011195101
4.8319801e-06
0.011193868
4.5121413e-06
0.011192718
4.2135653e-06
0.011191643
3.934834e-06
0.01119064
3.6746282e-06
0.011189703
3.4317201e-06
0.011188829
3.2049289e-06
0.011188012
2.9931961e-06
0.01118725
2.7954702e-06
0.011186537
2.6108273e-06
0.011185873
2.4383752e-06
0.011185252
2.2773366e-06
0.011184672
2.1269255e-06
0.01118413
1.9865113e-06
0.011183625
1.8553659e-06
0.011183152
1.7329903e-06
0.011182711
1.6186429e-06
0.011182299
1.5119407e-06
0.011181915
1.4121223e-06
0.011181556
1.319066e-06
0.01118122
1.2318455e-06
0.011180907
1.1506906e-06
0.011180614
1.0745076e-06
0.011180341
1.0041029e-06
0.011180086
9.3727169e-07
0.011179847
8.76187e-07
0.011179624
8.1774407e-07
0.011179416
7.6532791e-07
0.011179222
7.1275861e-07
0.01117904
6.6810386e-07
0.011178872
6.2103258e-07
0.011178712
5.8531397e-07
0.011178566
5.4113786e-07
0.011178425
5.1516463e-07
0.0111783
4.7224159e-07
0.011178177
4.5903484e-07
4.1608521e-07
0.010097182
6.8393549e-05
0.010346961
0.0001990111
0.010662469
0.00028247385
0.010982753
0.00030866646
0.011290229
0.00030874339
0.011575251
0.00029875786
0.011829022
0.00028101344
0.012047865
0.00025698754
0.012233272
0.00023051981
0.01238924
0.00020514589
0.012520295
0.00018256234
0.012630755
0.00016299955
0.012724428
0.00014622489
0.012804515
0.0001319031
0.012873613
0.00011967425
0.012933772
0.0001091746
0.012986596
0.00010006906
0.013033332
9.2076357e-05
0.01307495
8.4975242e-05
0.013112216
7.8598601e-05
0.013145739
7.2822291e-05
0.013176012
6.7553928e-05
0.013203441
6.2723912e-05
0.013228366
5.8278882e-05
0.013251071
5.4176974e-05
0.013271802
5.038442e-05
0.01329077
4.6873155e-05
0.013308155
4.3619173e-05
0.013324119
4.0601452e-05
0.0133388
3.7801273e-05
0.013352321
3.5201746e-05
0.013364791
3.2787526e-05
0.013376306
3.0544588e-05
0.01338695
2.8460082e-05
0.0133968
2.6522212e-05
0.013405923
2.4720126e-05
0.013414381
2.3043834e-05
0.013422228
2.1484137e-05
0.013429513
2.0032553e-05
0.013436281
1.8681264e-05
0.013442572
1.7423053e-05
0.013448423
1.6251269e-05
0.013453866
1.5159754e-05
0.013458933
1.4142825e-05
0.013463652
1.3195219e-05
0.013468047
1.231207e-05
0.013472142
1.1488869e-05
0.013475959
1.0721435e-05
0.013479517
1.0005902e-05
0.013482834
9.3386784e-06
0.013485928
8.7164278e-06
0.013488814
8.1360637e-06
0.013491507
7.5946982e-06
0.013494019
7.0896693e-06
0.013496363
6.6185004e-06
0.013498551
6.1788899e-06
0.013500593
5.7686954e-06
0.013502499
5.3859168e-06
0.013504278
5.0287025e-06
0.013505939
4.6953221e-06
0.01350749
4.3841575e-06
0.013508938
4.0937221e-06
0.01351029
3.8226096e-06
0.013511552
3.5695311e-06
0.013512731
3.3332777e-06
0.013513832
3.112728e-06
0.01351486
2.9068369e-06
0.01351582
2.7146155e-06
0.013516716
2.5351537e-06
0.013517554
2.3675947e-06
0.013518336
2.2111244e-06
0.013519066
2.0650075e-06
0.013519749
1.9285665e-06
0.013520386
1.801144e-06
0.013520981
1.6821863e-06
0.013521537
1.5710927e-06
0.013522056
1.4673903e-06
0.01352254
1.3705198e-06
0.013522994
1.2801059e-06
0.013523417
1.1955938e-06
0.013523812
1.1167363e-06
0.013524181
1.0429382e-06
0.013524526
9.7418059e-07
0.013524848
9.0972085e-07
0.013525148
8.4992449e-07
0.013525429
7.9365746e-07
0.013525692
7.4159644e-07
0.013525937
6.9216721e-07
0.013526166
6.4740858e-07
0.01352638
6.0397159e-07
0.01352658
5.6506502e-07
0.013526767
5.2580214e-07
0.013526941
4.9377655e-07
0.013527104
4.5847074e-07
0.013527257
4.326078e-07
0.013527399
3.9887729e-07
0.013527533
3.8079302e-07
0.013527658
3.4706743e-07
0.013527779
3.3800785e-07
3.0564352e-07
0.010068394
-5.0929301e-12
0.010267405
-1.3180655e-11
0.010549879
-1.4262478e-11
0.010858545
-1.2281899e-11
0.011167288
-9.6301729e-12
0.011466046
-9.6199954e-12
0.01174706
-1.0417461e-11
0.012004047
-1.192267e-11
0.012234567
-1.3428063e-11
0.012439713
-1.5228069e-11
0.012622275
-1.5735184e-11
0.012785275
-1.4610981e-11
0.0129315
-1.3451708e-11
0.013063403
-1.1967692e-11
0.013183077
-1.069553e-11
0.013292252
-1.0037785e-11
0.013392321
-9.6137732e-12
0.013484397
-9.6192387e-12
0.013569373
-9.1959531e-12
0.013647971
-9.2168963e-12
0.013720793
-9.8171656e-12
0.013788347
-1.0631072e-11
0.013851071
-1.0584178e-11
0.01390935
-1.3039212e-11
0.013963527
-1.4646715e-11
0.014013912
-1.2075641e-11
0.014060785
-8.4458792e-12
0.014104404
-6.1277807e-12
0.014145005
-5.0749039e-12
0.014182807
-6.4264819e-12
0.014218009
-6.3555029e-12
0.014250796
-6.7364964e-12
0.014281341
-8.1751079e-12
0.014309801
-1.1645839e-11
0.014336323
-1.5206042e-11
0.014361043
-1.51622e-11
0.014384087
-9.9361217e-12
0.014405571
-3.57264e-12
0.014425604
1.0046009e-12
0.014444285
2.1406955e-12
0.014461708
-1.314874e-12
0.014477959
-7.4137278e-12
0.014493119
-1.1385495e-11
0.014507262
-1.3158578e-11
0.014520457
-1.2045915e-11
0.014532769
-8.9706682e-12
0.014544258
-6.751962e-12
0.014554979
-5.5345787e-12
0.014564985
-3.6012018e-12
0.014574324
8.4445497e-14
0.01458304
4.6383363e-12
0.014591177
2.6566249e-12
0.014598771
-6.3552488e-13
0.014605861
-8.169219e-12
0.014612479
-1.481251e-11
0.014618658
-1.5581279e-11
0.014624427
-9.6077975e-12
0.014629813
-2.7822445e-12
0.014634842
6.4663774e-12
0.014639537
1.3218553e-11
0.014643921
1.14348e-11
0.014648015
3.712708e-12
0.014651837
-6.2945155e-12
0.014655407
-1.7644898e-11
0.01465874
-2.4042119e-11
0.014661853
-1.9457355e-11
0.01466476
-8.1440799e-12
0.014667474
8.8438519e-12
0.01467001
2.8902326e-11
0.014672377
3.8903936e-11
0.014674588
3.7165094e-11
0.014676653
1.7876622e-11
0.014678582
-3.8308666e-12
0.014680383
-2.8019438e-11
0.014682065
-4.1109739e-11
0.014683637
-2.711624e-11
0.014685104
-2.644789e-12
0.014686474
2.6979202e-11
0.014687754
4.9561607e-11
0.01468895
5.0895478e-11
0.014690067
3.1340084e-11
0.014691109
2.1729259e-12
0.014692084
-3.8188725e-11
0.014692994
-4.7101053e-11
0.014693843
-1.8296439e-11
0.014694636
-1.0721419e-11
0.014695379
-1.1170593e-12
0.014696072
6.5492397e-11
0.014696718
1.2442414e-10
0.014697321
3.677118e-11
0.014697887
-7.0410803e-11
0.014698414
-7.2893414e-11
0.014698907
-8.8703362e-11
0.014699364
-8.9157156e-13
0.014699798
1.4752988e-10
0.014700197
1.2714035e-10
0.014700577
-3.9172864e-11
0.014700924
-1.2534395e-10
0.014701263
-9.3097841e-11
-6.0873299e-11
0.010068394
-6.8393558e-05
0.010267405
-0.00019901113
0.010549879
-0.00028247388
0.010858545
-0.00030866649
0.011167288
-0.00030874342
0.011466046
-0.00029875789
0.01174706
-0.00028101346
0.012004047
-0.00025698756
0.012234567
-0.00023051983
0.012439713
-0.00020514591
0.012622275
-0.00018256236
0.012785275
-0.00016299958
0.0129315
-0.00014622491
0.013063403
-0.00013190313
0.013183077
-0.00011967427
0.013292252
-0.00010917462
0.013392321
-0.00010006908
0.013484397
-9.2076369e-05
0.013569373
-8.4975255e-05
0.013647971
-7.8598618e-05
0.013720793
-7.2822309e-05
0.013788347
-6.7553943e-05
0.013851071
-6.2723931e-05
0.01390935
-5.8278907e-05
0.013963527
-5.4176999e-05
0.014013912
-5.0384443e-05
0.014060785
-4.6873171e-05
0.014104404
-4.3619183e-05
0.014145005
-4.0601462e-05
0.014182807
-3.7801283e-05
0.014218008
-3.520176e-05
0.014250796
-3.2787539e-05
0.014281341
-3.0544603e-05
0.014309801
-2.8460104e-05
0.014336323
-2.6522237e-05
0.014361043
-2.4720147e-05
0.014384087
-2.304385e-05
0.014405571
-2.1484145e-05
0.014425604
-2.0032554e-05
0.014444285
-1.8681262e-05
0.014461708
-1.742306e-05
0.014477959
-1.6251281e-05
0.014493119
-1.515977e-05
0.014507262
-1.4142842e-05
0.014520457
-1.3195238e-05
0.014532769
-1.2312088e-05
0.014544258
-1.1488884e-05
0.014554979
-1.0721449e-05
0.014564985
-1.0005909e-05
0.014574324
-9.3386785e-06
0.01458304
-8.7164286e-06
0.014591177
-8.1360601e-06
0.014598771
-7.594701e-06
0.014605861
-7.0896807e-06
0.014612479
-6.6185171e-06
0.014618658
-6.1789067e-06
0.014624427
-5.7687067e-06
0.014629813
-5.3859261e-06
0.014634842
-5.0287023e-06
0.014639537
-4.6953069e-06
0.014643921
-4.3841461e-06
0.014648015
-4.0937162e-06
0.014651837
-3.8226183e-06
0.014655407
-3.5695515e-06
0.01465874
-3.3333112e-06
0.014661853
-3.1127598e-06
0.01466476
-2.9068473e-06
0.014667474
-2.7146033e-06
0.01467001
-2.5351191e-06
0.014672377
-2.367535e-06
0.014674588
-2.2110799e-06
0.014676653
-2.0649843e-06
0.014678582
-1.9285741e-06
0.014680383
-1.8011834e-06
0.014682065
-1.6822278e-06
0.014683637
-1.5711163e-06
0.014685104
-1.4673821e-06
0.014686474
-1.3704863e-06
0.014687754
-1.2800611e-06
0.01468895
-1.1955381e-06
0.014690067
-1.1167e-06
0.014691109
-1.0429497e-06
0.014692084
-9.7421628e-07
0.014692994
-9.0976257e-07
0.014693843
-8.4994846e-07
0.014694636
-7.9367079e-07
0.014695379
-7.4159797e-07
0.014696072
-6.9210826e-07
0.014696718
-6.4727445e-07
0.014697321
-6.0384025e-07
0.014697887
-5.6525314e-07
0.014698414
-5.260731e-07
0.014698907
-4.9358054e-07
0.014699364
-4.5820931e-07
0.014699798
-4.3275184e-07
0.014700198
-3.990857e-07
0.014700577
-3.8081977e-07
0.014700924
-3.4704413e-07
0.014701263
-3.3804371e-07
-3.0571205e-07
0.010097182
-0.00016557515
0.010346961
-0.000448791
0.010662469
-0.00059798177
0.010982753
-0.00062895025
0.011290229
-0.00061621886
0.011575251
-0.00058378055
0.011829022
-0.0005347842
0.012047865
-0.0004758305
0.012233272
-0.00041592666
0.01238924
-0.000361114
0.012520295
-0.00031361712
0.012630755
-0.00027346026
0.012724428
-0.00023989719
0.012804515
-0.00021199031
0.012873613
-0.00018877261
0.012933772
-0.00016933388
0.012986596
-0.00015289296
0.013033332
-0.00013881183
0.01307495
-0.00012659379
0.013112216
-0.00011586445
0.013145739
-0.00010634494
0.013176012
-9.7827004e-05
0.013203441
-9.0153367e-05
0.013228366
-8.3203372e-05
0.013251071
-7.6882621e-05
0.013271802
-7.1115567e-05
0.01329077
-6.5840296e-05
0.013308155
-6.100491e-05
0.013324119
-5.6565071e-05
0.0133388
-5.248234e-05
0.013352321
-4.8723029e-05
0.013364791
-4.5257391e-05
0.013376305
-4.2059e-05
0.01338695
-3.9104278e-05
0.0133968
-3.6372129e-05
0.013405923
-3.3843615e-05
0.013414381
-3.1501699e-05
0.013422228
-2.9331018e-05
0.013429513
-2.73177e-05
0.013436281
-2.5449177e-05
0.013442572
-2.3714046e-05
0.013448422
-2.2101953e-05
0.013453866
-2.060346e-05
0.013458933
-1.9209957e-05
0.013463652
-1.7913578e-05
0.013468047
-1.6707124e-05
0.013472142
-1.5583993e-05
0.013475958
-1.453812e-05
0.013479516
-1.3563935e-05
0.013482834
-1.2656302e-05
0.013485928
-1.1810479e-05
0.013488814
-1.1022102e-05
0.013491507
-1.0287127e-05
0.013494019
-9.601819e-06
0.013496363
-8.9627218e-06
0.013498551
-8.3666426e-06
0.013500593
-7.8106199e-06
0.013502499
-7.2918958e-06
0.013504278
-6.8079267e-06
0.013505939
-6.3563442e-06
0.01350749
-5.9349361e-06
0.013508938
-5.5416559e-06
0.01351029
-5.1745987e-06
0.013511552
-4.8319836e-06
0.013512731
-4.5121532e-06
0.013513832
-4.2135822e-06
0.01351486
-3.9348549e-06
0.01351582
-3.6746378e-06
0.013516716
-3.4317114e-06
0.013517554
-3.2049156e-06
0.013518336
-2.9931634e-06
0.013519066
-2.7954396e-06
0.013519748
-2.6108094e-06
0.013520385
-2.4383713e-06
0.013520981
-2.2773481e-06
0.013521537
-2.1269526e-06
0.013522056
-1.9865449e-06
0.01352254
-1.8553894e-06
0.013522994
-1.7329841e-06
0.013523417
-1.618608e-06
0.013523812
-1.511893e-06
0.013524181
-1.4120809e-06
0.013524526
-1.3190451e-06
0.013524848
-1.2318482e-06
0.013525148
-1.1507682e-06
0.013525429
-1.0745734e-06
0.013525692
-1.0040556e-06
0.013525938
-9.3723549e-07
0.013526166
-8.7630633e-07
0.01352638
-8.1779007e-07
0.01352658
-7.6501688e-07
0.013526767
-7.1250088e-07
0.013526941
-6.6835893e-07
0.013527104
-6.2135373e-07
0.013527257
-5.8525469e-07
0.013527399
-5.4102575e-07
0.013527533
-5.1517479e-07
0.013527658
-4.722339e-07
0.013527779
-4.5901458e-07
-4.1607103e-07
0.010188704
-0.00035427932
0.010530487
-0.00079057335
0.010851453
-0.0009189482
0.011124174
-0.00090167137
0.011350581
-0.00084262623
0.011524486
-0.00075768559
0.01164633
-0.00065662744
0.011724155
-0.00055365586
0.011767999
-0.00045977083
0.011786639
-0.00037975354
0.011787114
-0.00031409259
0.011775058
-0.00026140427
0.011754861
-0.00021969949
0.011729768
-0.00018689787
0.011702054
-0.00016105802
0.011673239
-0.00014051894
0.011644339
-0.00012399295
0.011616003
-0.00011047599
0.011588629
-9.9219868e-05
0.011562446
-8.9681405e-05
0.011537572
-8.1470672e-05
0.011514052
-7.4307852e-05
0.011491889
-6.7990502e-05
0.011471056
-6.2369993e-05
0.011451509
-5.7335017e-05
0.011433193
-5.2800185e-05
0.011416051
-4.8698266e-05
0.011400021
-4.4974955e-05
0.011385041
-4.1585392e-05
0.011371051
-3.8491849e-05
0.01135799
-3.5662157e-05
0.011345801
-3.3068613e-05
0.011334429
-3.0687174e-05
0.011323822
-2.8496852e-05
0.011313929
-2.6479244e-05
0.011304704
-2.461815e-05
0.011296101
-2.2899251e-05
0.01128808
-2.1309854e-05
0.011280601
-1.9838667e-05
0.011273628
-1.8475613e-05
0.011267125
-1.7211665e-05
0.011261062
-1.6038718e-05
0.011255408
-1.4949473e-05
0.011250135
-1.3937334e-05
0.011245218
-1.2996323e-05
0.011240632
-1.2121012e-05
0.011236354
-1.130646e-05
0.011232364
-1.054816e-05
0.011228643
-9.8419818e-06
0.01122517
-9.1841392e-06
0.011221931
-8.571149e-06
0.011218909
-7.9998042e-06
0.011216089
-7.467152e-06
0.011213457
-6.9704667e-06
0.011211002
-6.5072366e-06
0.01120871
-6.0751407e-06
0.011206572
-5.6720319e-06
0.011204576
-5.2959257e-06
0.011202713
-4.9449799e-06
0.011200974
-4.617481e-06
0.011199351
-4.3118318e-06
0.011197836
-4.0265431e-06
0.011196421
-3.7602336e-06
0.011195101
-3.5116129e-06
0.011193868
-3.2794862e-06
0.011192718
-3.0627459e-06
0.011191643
-2.8603748e-06
0.01119064
-2.6714245e-06
0.011189703
-2.4950131e-06
0.011188829
-2.3303058e-06
0.011188012
-2.1765227e-06
0.011187249
-2.0329092e-06
0.011186537
-1.8987873e-06
0.011185872
-1.7734968e-06
0.011185252
-1.65647e-06
0.011184672
-1.547143e-06
0.01118413
-1.4450595e-06
0.011183625
-1.3497066e-06
0.011183152
-1.2607098e-06
0.011182711
-1.1775658e-06
0.011182299
-1.1000017e-06
0.011181915
-1.0274644e-06
0.011181556
-9.5981019e-07
0.01118122
-8.9644237e-07
0.011180907
-8.3743796e-07
0.011180614
-7.8196439e-07
0.011180341
-7.3056008e-07
0.011180086
-6.8219781e-07
0.011179847
-6.3766995e-07
0.011179624
-5.9502744e-07
0.011179416
-5.5653472e-07
0.011179223
-5.1916045e-07
0.01117904
-4.8630317e-07
0.011178872
-4.5280051e-07
0.011178712
-4.2541843e-07
0.011178566
-3.9518132e-07
0.011178425
-3.7415592e-07
0.0111783
-3.4705432e-07
0.011178177
-3.3599249e-07
-3.1069809e-07
0.010339525
-0.00069380425
0.010570754
-0.0010218027
0.010606301
-0.00095449448
0.010547572
-0.00084294333
0.010422317
-0.0007173708
0.010244356
-0.00057972444
0.010039421
-0.00045169205
0.0098287427
-0.00034297801
0.009625135
-0.00025616318
0.0094353013
-0.00018991983
0.0092624277
-0.00014121897
0.0091075332
-0.0001065098
0.008970154
-8.2320226e-05
0.0088489023
-6.5646249e-05
0.0087419716
-5.4127255e-05
0.0086474927
-4.6040044e-05
0.008563694
-4.0194286e-05
0.0084890108
-3.5792751e-05
0.0084221096
-3.2318757e-05
0.0083618775
-2.9449283e-05
0.0083073954
-2.698858e-05
0.0082579079
-2.4820304e-05
0.0082127929
-2.2875483e-05
0.0081715353
-2.1112419e-05
0.0081337049
-1.9504656e-05
0.0080989388
-1.8034017e-05
0.0080669272
-1.6686727e-05
0.0080374036
-1.5451365e-05
0.0080101361
-1.4317864e-05
0.0079849213
-1.3277073e-05
0.0079615798
-1.2320592e-05
0.0079399519
-1.144072e-05
0.0079198951
-1.0630433e-05
0.0079012816
-9.8833644e-06
0.0078839962
-9.1937718e-06
0.0078679345
-8.5564987e-06
0.0078530022
-7.9669235e-06
0.0078391132
-7.4209093e-06
0.0078261893
-6.9147517e-06
0.0078141588
-6.4451278e-06
0.0078029562
-6.0090526e-06
0.0077925213
-5.6038393e-06
0.0077827989
-5.2270627e-06
0.0077737381
-4.8765285e-06
0.0077652921
-4.5502456e-06
0.0077574175
-4.2464032e-06
0.0077500743
-3.9633493e-06
0.0077432258
-3.6995749e-06
0.0077368375
-3.4536961e-06
0.0077308778
-3.2244377e-06
0.0077253172
-3.0106242e-06
0.0077201286
-2.8111713e-06
0.0077152865
-2.6250777e-06
0.0077107675
-2.4514178e-06
0.0077065496
-2.2893385e-06
0.0077026125
-2.1380517e-06
0.0076989373
-1.9968256e-06
0.0076955064
-1.8649821e-06
0.0076923033
-1.741893e-06
0.0076893128
-1.6269703e-06
0.0076865206
-1.5196628e-06
0.0076839135
-1.4194571e-06
0.0076814791
-1.3258749e-06
0.007679206
-1.2384688e-06
0.0076770834
-1.156826e-06
0.0076751012
-1.0805665e-06
0.0076732502
-1.0093381e-06
0.0076715215
-9.4281294e-07
0.0076699072
-8.8068736e-07
0.0076683995
-8.2266954e-07
0.0076669915
-7.6848681e-07
0.0076656765
-7.1787586e-07
0.0076644483
-6.705965e-07
0.0076633012
-6.2641652e-07
0.0076622299
-5.8513903e-07
0.0076612294
-5.4656821e-07
0.0076602948
-5.1054606e-07
0.007659422
-4.7689407e-07
0.0076586068
-4.4548549e-07
0.0076578453
-4.1613725e-07
0.007657134
-3.8875553e-07
0.0076564697
-3.6314866e-07
0.0076558492
-3.3926429e-07
0.0076552697
-3.1687994e-07
0.0076547283
-2.9604356e-07
0.0076542229
-2.7645954e-07
0.0076537506
-2.5827232e-07
0.0076533094
-2.4117185e-07
0.0076528971
-2.2548422e-07
0.0076525126
-2.1041832e-07
0.0076521529
-1.9666762e-07
0.0076518172
-1.8361028e-07
0.0076515028
-1.7205795e-07
0.0076512105
-1.604067e-07
0.0076509355
-1.5028751e-07
0.0076506807
-1.4040428e-07
0.0076504385
-1.3208759e-07
0.0076502165
-1.2500225e-07
0.0076499999
-1.1933712e-07
-1.2571584e-07
0.0093061957
0.0082843931
0.0073298986
0.0064869553
0.0057695845
0.00518986
0.004738168
0.00439519
0.0041390268
0.003949107
0.003807888
0.0037013782
0.003619058
0.0035534117
0.0034992845
0.0034532444
0.0034130501
0.0033772574
0.0033449386
0.0033154893
0.0032885008
0.0032636805
0.003240805
0.0032196926
0.0032001879
0.0031821539
0.0031654672
0.0031500158
0.0031356979
0.0031224208
0.0031101003
0.0030986595
0.0030880291
0.0030781458
0.003068952
0.0030603955
0.0030524286
0.0030450076
0.0030380929
0.0030316478
0.0030256387
0.0030200349
0.0030148078
0.0030099313
0.0030053811
0.0030011347
0.0029971713
0.0029934717
0.002990018
0.0029867936
0.0029837829
0.0029809718
0.0029783467
0.0029758953
0.002973606
0.0029714679
0.0029694711
0.0029676061
0.0029658642
0.0029642372
0.0029627175
0.0029612981
0.0029599722
0.0029587338
0.002957577
0.0029564964
0.0029554871
0.0029545443
0.0029536635
0.0029528408
0.0029520723
0.0029513545
0.0029506839
0.0029500575
0.0029494724
0.0029489259
0.0029484153
0.0029479384
0.0029474928
0.0029470767
0.0029466879
0.0029463248
0.0029459856
0.0029456687
0.0029453727
0.0029450963
0.002944838
0.0029445965
0.0029443711
0.002944161
0.0029439642
0.0029437802
0.0029436083
0.0029434482
0.002943298
0.0029431574
0.0029430253
0.0029429003
0.0029427809
)
;

boundaryField
{
    top
    {
        type            calculated;
        value           uniform 0;
    }
    inlet
    {
        type            calculated;
        value           nonuniform List<scalar> 10(-0.01 -0.01 -0.01 -0.01 -0.01 -0.01 -0.01 -0.01 -0.01 -0.01);
    }
    outlet
    {
        type            calculated;
        value           nonuniform List<scalar> 10(0.002942655 0.0076498149 0.011178072 0.01352789 0.014701569 0.014701568 0.01352789 0.011178072 0.0076498149 0.0029426552);
    }
    bottom
    {
        type            calculated;
        value           uniform 0;
    }
    back
    {
        type            empty;
        value           nonuniform 0();
    }
    front
    {
        type            empty;
        value           nonuniform 0();
    }
}


// ************************************************************************* //
