/*--------------------------------*- C++ -*----------------------------------*\
| =========                 |                                                 |
| \\      /  F ield         | OpenFOAM: The Open Source CFD Toolbox           |
|  \\    /   O peration     | Version:  v1812                                 |
|   \\  /    A nd           | Web:      www.OpenFOAM.com                      |
|    \\/     M anipulation  |                                                 |
\*---------------------------------------------------------------------------*/
FoamFile
{
    version     2.0;
    format      ascii;
    class       volScalarField;
    location    "13.5";
    object      p;
}
// * * * * * * * * * * * * * * * * * * * * * * * * * * * * * * * * * * * * * //

dimensions      [0 2 -2 0 0 0 0];


internalField   nonuniform List<scalar> 
1000
(
1.6755988
1.5545209
1.4585404
1.3948843
1.3463748
1.3039027
1.2663675
1.2341957
1.2067954
1.1829578
1.1615635
1.1417997
1.1231225
1.105183
1.0877677
1.0707535
1.0540726
1.0376884
1.0215802
1.0057343
0.99013931
0.97478421
0.95965751
0.94474727
0.93004127
0.91552727
0.9011933
0.8870278
0.87301975
0.85915875
0.84543504
0.83183949
0.81836359
0.80499942
0.79173958
0.77857721
0.76550591
0.75251971
0.73961304
0.72678073
0.71401793
0.70132011
0.68868307
0.67610285
0.66357577
0.65109837
0.63866744
0.62627996
0.61393311
0.60162425
0.58935093
0.57711083
0.5649018
0.55272182
0.54056898
0.52844154
0.51633784
0.50425632
0.49219555
0.48015418
0.46813093
0.45612464
0.44413419
0.43215854
0.42019673
0.40824785
0.39631106
0.38438556
0.37247062
0.36056555
0.3486697
0.33678247
0.32490329
0.31303164
0.30116702
0.28930896
0.27745704
0.26561085
0.25377002
0.2419342
0.23010306
0.2182763
0.20645362
0.19463476
0.18281946
0.17100748
0.15919861
0.14739265
0.13558941
0.12378871
0.11199037
0.10019425
0.088400228
0.07660815
0.064817833
0.053029192
0.041242192
0.02945663
0.017672689
0.0058897187
1.5583791
1.50345
1.4424975
1.3909298
1.3476598
1.3086914
1.2731052
1.2413326
1.2133717
1.1885938
1.1661919
1.1454906
1.1260089
1.1074209
1.0895073
1.0721226
1.0551707
1.0385893
1.0223367
1.0063832
0.99070613
0.97528659
0.96010774
0.94515408
0.93041103
0.91586481
0.90150239
0.88731153
0.87328069
0.85939911
0.84565675
0.83204424
0.81855289
0.8051746
0.79190185
0.77872764
0.76564546
0.75264926
0.73973338
0.72689258
0.71412194
0.70141688
0.68877313
0.6761867
0.66365386
0.65117113
0.63873524
0.62634315
0.61399202
0.60167918
0.58940216
0.57715862
0.56494638
0.5527634
0.54060779
0.52847776
0.51637164
0.50428787
0.49222499
0.48018166
0.46815659
0.45614859
0.44415655
0.43217942
0.42021623
0.40826606
0.39632806
0.38440144
0.37248544
0.36057939
0.34868262
0.33679454
0.32491457
0.31304217
0.30117686
0.28931815
0.27746562
0.26561886
0.2537775
0.24194119
0.23010959
0.21828239
0.20645931
0.19464008
0.18282443
0.17101213
0.15920295
0.14739669
0.13559319
0.12379226
0.11199367
0.1001973
0.088403087
0.076610852
0.064820353
0.053031477
0.041244331
0.029458517
0.017674387
0.0058905652
1.4975578
1.4713827
1.4329859
1.391853
1.3527677
1.3161769
1.2818792
1.2501617
1.2213056
1.1952045
1.1714506
1.1495605
1.1291107
1.1097698
1.0912897
1.0734886
1.0562368
1.0394412
1.0230351
1.00697
0.99120963
0.97572594
0.96049607
0.94550058
0.93072231
0.91614582
0.90175699
0.88754282
0.87349127
0.85959121
0.84583229
0.83220492
0.81870018
0.80530982
0.79202617
0.77884208
0.76575094
0.75274659
0.7398233
0.72697572
0.71419889
0.70148816
0.68883921
0.676248
0.66371076
0.65122398
0.63878435
0.62638881
0.61403448
0.60171869
0.58943893
0.57719285
0.56497826
0.55279311
0.54063547
0.52850356
0.51639569
0.50431029
0.4922459
0.48020115
0.46817477
0.45616555
0.44417238
0.43219419
0.42023001
0.40827892
0.39634007
0.38441264
0.3724959
0.36058915
0.34869173
0.33680304
0.32492251
0.31304959
0.30118378
0.28932462
0.27747166
0.2656245
0.25378276
0.2419461
0.23011417
0.21828668
0.20646332
0.19464381
0.18282791
0.17101539
0.159206
0.14739953
0.13559583
0.12379476
0.11199601
0.10019943
0.088405046
0.07661275
0.064822093
0.053033007
0.041245665
0.029459739
0.017675113
0.0058910357
1.4681493
1.4526512
1.4257813
1.3918574
1.3560564
1.3211051
1.2878031
1.2564501
1.2273194
1.200528
1.1759404
1.1532482
1.1320964
1.1121676
1.0932094
1.0750297
1.057484
1.040463
1.0238844
1.0076864
0.99182237
0.97625663
0.96096066
0.94591098
0.93108755
0.91647282
0.90205118
0.88780854
0.8737321
0.85981009
0.84603172
0.83238702
0.8188668
0.80546255
0.79216639
0.77897102
0.76586968
0.75285607
0.73992435
0.72706911
0.71428527
0.70156813
0.68891331
0.67631671
0.66377451
0.65128315
0.63883932
0.62643989
0.61408198
0.60176288
0.58948005
0.57723113
0.56501391
0.5528263
0.54066639
0.52853237
0.51642253
0.50433531
0.49226923
0.48022292
0.46819507
0.45618449
0.44419004
0.43221067
0.42024538
0.40829326
0.39635344
0.38442512
0.37250755
0.36060003
0.3487019
0.33681254
0.32493138
0.31305786
0.3011915
0.28933182
0.27747837
0.26563077
0.25378862
0.24195158
0.2301193
0.21829148
0.2064678
0.19464799
0.1828318
0.17101901
0.15920936
0.14740269
0.13559878
0.12379752
0.11199861
0.10020192
0.088407285
0.076614756
0.064823914
0.053034822
0.04124716
0.029461107
0.017675924
0.0058920571
1.4554178
1.4434644
1.42123
1.3909425
1.3570813
1.3230857
1.2903881
1.2593826
1.2302852
1.2032733
1.1783463
1.1552967
1.1338152
1.1135975
1.0943939
1.0760117
1.0583028
1.0411524
1.0244715
1.0081924
0.99226342
0.97664486
0.96130534
0.94621917
0.93136471
0.91672322
0.90227825
0.88801506
0.87392037
0.85998209
0.84618912
0.8325313
0.81899923
0.80558426
0.79227839
0.7790742
0.76596483
0.75294391
0.74000552
0.72714418
0.71435475
0.70163249
0.68897296
0.67637203
0.66382584
0.65133081
0.63888359
0.62648104
0.61412025
0.60179848
0.58951318
0.57726197
0.56504262
0.55285304
0.54069129
0.52855555
0.51644413
0.50435545
0.49228801
0.48024044
0.46821142
0.45619974
0.44420427
0.43222394
0.42025775
0.40830479
0.39636419
0.38443515
0.37251692
0.36060879
0.34871009
0.3368202
0.32493853
0.31306453
0.3011977
0.28933759
0.27748375
0.26563579
0.25379332
0.24195599
0.23012344
0.21829536
0.20647141
0.19465136
0.18283492
0.17102188
0.15921204
0.14740524
0.13560114
0.12379969
0.11200074
0.10020403
0.088409039
0.076616285
0.064825449
0.053036376
0.041248284
0.0294622
0.017676735
0.0058930941
1.4554178
1.4434644
1.42123
1.3909425
1.3570813
1.3230857
1.2903881
1.2593826
1.2302852
1.2032733
1.1783463
1.1552967
1.1338152
1.1135975
1.0943939
1.0760117
1.0583028
1.0411524
1.0244715
1.0081924
0.99226342
0.97664486
0.96130533
0.94621917
0.93136471
0.91672322
0.90227825
0.88801506
0.87392037
0.85998209
0.84618912
0.8325313
0.81899923
0.80558426
0.79227839
0.77907419
0.76596483
0.75294391
0.74000552
0.72714418
0.71435475
0.70163249
0.68897296
0.67637203
0.66382584
0.65133081
0.63888359
0.62648104
0.61412025
0.60179848
0.58951318
0.57726197
0.56504262
0.55285304
0.54069129
0.52855555
0.51644413
0.50435545
0.49228802
0.48024044
0.46821142
0.45619974
0.44420427
0.43222393
0.42025775
0.40830479
0.39636419
0.38443515
0.37251692
0.36060879
0.34871009
0.3368202
0.32493852
0.31306452
0.30119769
0.28933758
0.27748375
0.2656358
0.25379334
0.241956
0.23012345
0.21829535
0.2064714
0.19465134
0.18283491
0.17102188
0.15921207
0.14740527
0.13560114
0.12379968
0.11200078
0.10020401
0.088408928
0.076616249
0.064825552
0.053036458
0.041248264
0.029462148
0.017676711
0.0058930936
1.4681493
1.4526512
1.4257813
1.3918574
1.3560564
1.3211051
1.2878032
1.2564501
1.2273194
1.200528
1.1759404
1.1532482
1.1320964
1.1121676
1.0932094
1.0750297
1.057484
1.040463
1.0238844
1.0076864
0.99182238
0.97625663
0.96096066
0.94591099
0.93108755
0.91647282
0.90205118
0.88780854
0.8737321
0.85981009
0.84603172
0.83238702
0.8188668
0.80546255
0.79216639
0.77897102
0.76586968
0.75285607
0.73992436
0.72706911
0.71428527
0.70156813
0.68891331
0.6763167
0.66377451
0.65128315
0.63883931
0.62643989
0.61408199
0.60176288
0.58948006
0.57723113
0.5650139
0.5528263
0.54066639
0.52853236
0.51642253
0.50433531
0.49226924
0.48022293
0.46819508
0.45618449
0.44419004
0.43221066
0.42024537
0.40829325
0.39635344
0.38442513
0.37250757
0.36060004
0.34870191
0.33681254
0.32493136
0.31305784
0.30119148
0.2893318
0.27747837
0.26563079
0.25378865
0.2419516
0.23011931
0.21829146
0.20646776
0.19464796
0.18283178
0.17101901
0.15920941
0.14740274
0.13559878
0.12379751
0.11199866
0.10020189
0.088407101
0.076614696
0.064824104
0.053034977
0.04124711
0.029461004
0.017675885
0.0058920577
1.4975578
1.4713827
1.4329859
1.391853
1.3527677
1.3161769
1.2818792
1.2501617
1.2213056
1.1952045
1.1714506
1.1495605
1.1291107
1.1097698
1.0912897
1.0734886
1.0562368
1.0394412
1.0230351
1.00697
0.99120963
0.97572594
0.96049607
0.94550058
0.93072231
0.91614582
0.90175699
0.88754282
0.87349127
0.85959121
0.84583229
0.83220492
0.81870018
0.80530982
0.79202616
0.77884208
0.76575094
0.75274659
0.7398233
0.72697572
0.71419889
0.70148816
0.68883921
0.676248
0.66371076
0.65122397
0.63878434
0.62638881
0.61403449
0.6017187
0.58943894
0.57719286
0.56497826
0.55279311
0.54063546
0.52850355
0.51639568
0.50431029
0.49224591
0.48020117
0.46817478
0.45616556
0.44417237
0.43219418
0.42023
0.40827891
0.39634006
0.38441264
0.37249591
0.36058917
0.34869175
0.33680305
0.3249225
0.31304957
0.30118376
0.2893246
0.27747165
0.26562451
0.25378279
0.24194613
0.23011419
0.21828667
0.20646329
0.19464379
0.18282789
0.17101538
0.15920602
0.14739956
0.13559584
0.12379479
0.11199603
0.10019938
0.088404962
0.076612748
0.064822158
0.053033057
0.041245669
0.029459705
0.017675082
0.0058910274
1.5583791
1.50345
1.4424975
1.3909298
1.3476598
1.3086914
1.2731052
1.2413326
1.2133717
1.1885938
1.1661919
1.1454906
1.1260089
1.1074209
1.0895073
1.0721226
1.0551707
1.0385893
1.0223367
1.0063832
0.99070613
0.97528659
0.96010774
0.94515408
0.93041102
0.9158648
0.90150239
0.88731153
0.87328069
0.85939911
0.84565675
0.83204424
0.81855289
0.80517459
0.79190184
0.77872763
0.76564546
0.75264926
0.73973339
0.72689258
0.71412194
0.70141688
0.68877313
0.6761867
0.66365386
0.65117112
0.63873523
0.62634315
0.61399202
0.60167919
0.58940217
0.57715862
0.56494638
0.5527634
0.54060778
0.52847775
0.51637163
0.50428786
0.492225
0.48018167
0.4681566
0.4561486
0.44415655
0.43217941
0.42021621
0.40826604
0.39632805
0.38440143
0.37248545
0.3605794
0.34868264
0.33679455
0.32491457
0.31304216
0.30117684
0.28931813
0.27746561
0.26561886
0.25377752
0.24194121
0.2301096
0.2182824
0.20645931
0.19464006
0.18282441
0.17101211
0.15920294
0.1473967
0.13559321
0.12379228
0.11199367
0.10019728
0.088403083
0.076610861
0.064820338
0.053031448
0.041244329
0.029458539
0.017674399
0.0058905652
1.6755988
1.5545209
1.4585404
1.3948843
1.3463748
1.3039027
1.2663675
1.2341958
1.2067954
1.1829578
1.1615635
1.1417997
1.1231225
1.105183
1.0877677
1.0707535
1.0540726
1.0376884
1.0215802
1.0057343
0.99013931
0.97478421
0.95965751
0.94474727
0.93004126
0.91552727
0.9011933
0.8870278
0.87301975
0.85915875
0.84543504
0.83183949
0.81836359
0.80499941
0.79173958
0.77857721
0.76550591
0.75251971
0.73961304
0.72678073
0.71401793
0.70132012
0.68868307
0.67610285
0.66357576
0.65109837
0.63866743
0.62627996
0.61393311
0.60162426
0.58935094
0.57711084
0.5649018
0.55272181
0.54056898
0.52844153
0.51633783
0.50425632
0.49219555
0.48015418
0.46813094
0.45612465
0.44413419
0.43215854
0.42019672
0.40824784
0.39631105
0.38438556
0.37247062
0.36056556
0.34866972
0.33678248
0.3249033
0.31303164
0.301167
0.28930895
0.27745703
0.26561085
0.25377003
0.24193422
0.23010308
0.21827631
0.20645362
0.19463475
0.18281944
0.17100746
0.1591986
0.14739265
0.13558943
0.12378873
0.11199037
0.10019426
0.088400248
0.076608139
0.064817788
0.053029156
0.041242194
0.029456656
0.017672711
0.0058897249
)
;

boundaryField
{
    top
    {
        type            zeroGradient;
    }
    inlet
    {
        type            zeroGradient;
    }
    outlet
    {
        type            fixedValue;
        value           uniform 0;
    }
    bottom
    {
        type            zeroGradient;
    }
    back
    {
        type            empty;
    }
    front
    {
        type            empty;
    }
}


// ************************************************************************* //
