/*--------------------------------*- C++ -*----------------------------------*\
| =========                 |                                                 |
| \\      /  F ield         | OpenFOAM: The Open Source CFD Toolbox           |
|  \\    /   O peration     | Version:  v1812                                 |
|   \\  /    A nd           | Web:      www.OpenFOAM.com                      |
|    \\/     M anipulation  |                                                 |
\*---------------------------------------------------------------------------*/
FoamFile
{
    version     2.0;
    format      ascii;
    class       surfaceScalarField;
    location    "8.6";
    object      phi;
}
// * * * * * * * * * * * * * * * * * * * * * * * * * * * * * * * * * * * * * //

dimensions      [0 3 -1 0 0 0 0];
oriented        oriented;


internalField   nonuniform List<scalar> 
1890
(
0.0093061957
0.00069380425
0.0082843931
0.0010218027
0.0073298986
0.00095449449
0.0064869553
0.00084294334
0.0057695845
0.0007173708
0.00518986
0.00057972444
0.004738168
0.00045169204
0.00439519
0.00034297801
0.0041390268
0.00025616318
0.003949107
0.00018991983
0.003807888
0.00014121897
0.0037013782
0.0001065098
0.003619058
8.2320221e-05
0.0035534117
6.5646245e-05
0.0034992845
5.4127256e-05
0.0034532444
4.604005e-05
0.0034130501
4.0194293e-05
0.0033772574
3.5792756e-05
0.0033449386
3.2318757e-05
0.0033154893
2.9449277e-05
0.0032885008
2.6988572e-05
0.0032636805
2.4820298e-05
0.003240805
2.2875481e-05
0.0032196926
2.1112422e-05
0.0032001879
1.9504664e-05
0.0031821539
1.8034028e-05
0.0031654671
1.6686737e-05
0.0031500158
1.5451371e-05
0.0031356979
1.4317864e-05
0.0031224208
1.3277068e-05
0.0031101003
1.2320584e-05
0.0030986595
1.1440713e-05
0.0030880291
1.0630431e-05
0.0030781457
9.8833682e-06
0.0030689519
9.1937824e-06
0.0030603954
8.5565139e-06
0.0030524285
7.9669403e-06
0.0030450076
7.4209242e-06
0.0030380928
6.9147615e-06
0.0030316477
6.4451318e-06
0.0030256386
6.0090529e-06
0.0030200348
5.6038399e-06
0.0030148077
5.2270685e-06
0.0030099312
4.8765441e-06
0.0030053809
4.5502749e-06
0.0030011344
4.2464478e-06
0.002997171
3.9634096e-06
0.0029934714
3.699648e-06
0.0029900176
3.4537774e-06
0.0029867931
3.2245246e-06
0.0029837824
3.0107171e-06
0.0029809711
2.8112725e-06
0.0029783459
2.6251895e-06
0.0029758944
2.4515402e-06
0.0029736049
2.289463e-06
0.0029714667
2.138157e-06
0.0029694699
1.9968771e-06
0.002967605
1.8649281e-06
0.0029658633
1.7416614e-06
0.0029642369
1.6264696e-06
0.0029627181
1.5187824e-06
0.0029613
1.4180636e-06
0.0029599762
1.3238078e-06
0.0029587406
1.235538e-06
0.0029575878
1.1528067e-06
0.0029565127
1.0751931e-06
0.0029555104
1.0023071e-06
0.0029545767
9.337851e-07
0.0029537074
8.6929416e-07
0.0029528989
8.0852704e-07
0.0029521477
7.5120487e-07
0.0029514507
6.9707192e-07
0.0029508048
6.459003e-07
0.0029502073
5.9748391e-07
0.0029496557
5.5164741e-07
0.0029491475
5.0823721e-07
0.0029486804
4.6713183e-07
0.0029482523
4.2822899e-07
0.0029478609
3.9145203e-07
0.0029475042
3.5673569e-07
0.0029471801
3.2403003e-07
0.0029468868
2.9328551e-07
0.0029466223
2.6446423e-07
0.0029463848
2.3751958e-07
0.0029461724
2.1242365e-07
0.0029459833
1.8912883e-07
0.0029458158
1.6761931e-07
0.0029456681
1.4783343e-07
0.0029455383
1.2976718e-07
0.002945425
1.1331071e-07
0.0029453265
9.8485511e-08
0.0029452413
8.5085392e-08
0.0029451681
7.3219439e-08
0.0029451055
6.2515669e-08
0.0029450523
5.3307018e-08
0.0029450074
4.491638e-08
0.0029449693
3.812607e-08
0.0029449376
3.1675109e-08
0.0029449103
2.7207777e-08
2.253583e-08
0.010339525
0.00035427932
0.010570754
0.00079057335
0.010606301
0.00091894821
0.010547572
0.00090167137
0.010422317
0.00084262624
0.010244356
0.00075768559
0.010039421
0.00065662744
0.0098287427
0.00055365586
0.009625135
0.00045977083
0.0094353013
0.00037975354
0.0092624277
0.00031409258
0.0091075332
0.00026140426
0.008970154
0.00021969949
0.0088489023
0.00018689787
0.0087419716
0.00016105803
0.0086474927
0.00014051895
0.008563694
0.00012399297
0.0084890108
0.000110476
0.0084221096
9.9219866e-05
0.0083618775
8.9681396e-05
0.0083073954
8.147066e-05
0.0082579079
7.4307842e-05
0.0082127929
6.7990499e-05
0.0081715353
6.237e-05
0.0081337049
5.7335031e-05
0.0080989387
5.2800204e-05
0.0080669272
4.8698285e-05
0.0080374036
4.4974968e-05
0.0080101361
4.1585396e-05
0.0079849213
3.8491845e-05
0.0079615797
3.566215e-05
0.0079399518
3.3068607e-05
0.0079198951
3.0687173e-05
0.0079012816
2.8496862e-05
0.0078839961
2.6479267e-05
0.0078679344
2.4618182e-05
0.0078530021
2.2899287e-05
0.0078391131
2.1309889e-05
0.0078261892
1.9838696e-05
0.0078141587
1.8475634e-05
0.0078029561
1.7211681e-05
0.0077925212
1.6038736e-05
0.0077827987
1.49495e-05
0.0077737379
1.3937375e-05
0.0077652918
1.2996385e-05
0.0077574171
1.21211e-05
0.007750074
1.1306574e-05
0.0077432253
1.0548291e-05
0.007736837
9.8421192e-06
0.0077308773
9.1842705e-06
0.0077253167
8.571263e-06
0.0077201281
7.9998897e-06
0.0077152861
7.4671914e-06
0.0077107672
6.9704324e-06
0.0077065495
6.5070785e-06
0.0077026129
6.0747791e-06
0.0076989385
5.6713496e-06
0.0076955086
5.2947571e-06
0.0076923072
4.9431059e-06
0.0076893191
4.6146248e-06
0.0076865302
4.3076564e-06
0.0076839276
4.0206469e-06
0.0076814992
3.7521372e-06
0.007679234
3.5007588e-06
0.0076771216
3.2652265e-06
0.0076751524
3.0443412e-06
0.0076733178
2.8369828e-06
0.0076716095
2.6421154e-06
0.00767002
2.458781e-06
0.0076685424
2.2861031e-06
0.0076671704
2.1232803e-06
0.0076658978
1.9695895e-06
0.0076647193
1.8243782e-06
0.0076636297
1.6870726e-06
0.0076626241
1.557167e-06
0.0076616982
1.4342333e-06
0.0076608474
1.3179081e-06
0.0076600678
1.2078951e-06
0.0076593554
1.1039529e-06
0.0076587062
1.0058847e-06
0.0076581167
9.135314e-07
0.0076575831
8.2675245e-07
0.0076571021
7.4543255e-07
0.0076566701
6.6944993e-07
0.0076562838
5.9871494e-07
0.0076559399
5.3309418e-07
0.0076556351
4.7252422e-07
0.0076553661
4.1681551e-07
0.00765513
3.6594419e-07
0.0076549237
3.195822e-07
0.0076547443
2.7780901e-07
0.0076545893
2.4001137e-07
0.0076544559
2.0658427e-07
0.0076543421
1.763258e-07
0.0076542449
1.5048096e-07
0.0076541633
1.2650998e-07
0.0076540937
1.0780017e-07
0.0076540368
8.8497292e-08
0.0076539865
7.7537214e-08
5.9442082e-08
0.010188704
0.00016557515
0.010530487
0.000448791
0.010851453
0.00059798177
0.011124174
0.00062895025
0.011350581
0.00061621887
0.011524486
0.00058378055
0.01164633
0.0005347842
0.011724155
0.00047583049
0.011767999
0.00041592665
0.011786639
0.000361114
0.011787114
0.00031361712
0.011775058
0.00027346026
0.011754861
0.00023989719
0.011729768
0.00021199032
0.011702054
0.00018877261
0.011673239
0.00016933388
0.011644339
0.00015289296
0.011616003
0.00013881183
0.011588629
0.00012659379
0.011562446
0.00011586444
0.011537572
0.00010634494
0.011514052
9.7827004e-05
0.011491889
9.0153371e-05
0.011471056
8.3203378e-05
0.011451509
7.6882628e-05
0.011433193
7.1115576e-05
0.011416051
6.5840307e-05
0.011400021
6.100492e-05
0.011385042
5.6565078e-05
0.011371051
5.2482344e-05
0.01135799
4.8723035e-05
0.011345801
4.52574e-05
0.011334429
4.2059013e-05
0.011323822
3.9104299e-05
0.011313929
3.6372157e-05
0.011304704
3.3843648e-05
0.011296101
3.1501735e-05
0.01128808
2.9331057e-05
0.011280601
2.7317738e-05
0.011273627
2.5449214e-05
0.011267125
2.3714087e-05
0.011261062
2.2101999e-05
0.011255408
2.0603515e-05
0.011250135
1.9210026e-05
0.011245218
1.7913665e-05
0.011240632
1.6707229e-05
0.011236354
1.5584113e-05
0.011232364
1.4538252e-05
0.011228642
1.3564068e-05
0.01122517
1.2656424e-05
0.011221931
1.1810578e-05
0.011218909
1.1022155e-05
0.011216089
1.0287103e-05
0.011213457
9.6016721e-06
0.011211002
8.9623814e-06
0.011208711
8.3659992e-06
0.011206573
7.8095198e-06
0.011204577
7.2901438e-06
0.011202715
6.8052602e-06
0.011200977
6.35243e-06
0.011199356
5.9293715e-06
0.011197842
5.5339469e-06
0.01119643
5.1641513e-06
0.011195113
4.8181042e-06
0.011193884
4.4940432e-06
0.011192738
4.1903187e-06
0.01119167
3.9053925e-06
0.011190674
3.6378333e-06
0.011189746
3.3863176e-06
0.011188883
3.1496247e-06
0.01118808
2.9266381e-06
0.011187333
2.71634e-06
0.011186639
2.517815e-06
0.011185996
2.3302431e-06
0.0111854
2.1529064e-06
0.011184849
1.9851772e-06
0.011184341
1.8265261e-06
0.011183872
1.6765018e-06
0.011183442
1.5347378e-06
0.011183047
1.4009228e-06
0.011182685
1.2748119e-06
0.011182356
1.1561827e-06
0.011182056
1.0448691e-06
0.011181785
9.4068652e-07
0.01118154
8.4352188e-07
0.01118132
7.5317864e-07
0.011181123
6.6959528e-07
0.011180947
5.9248818e-07
0.011180792
5.2188678e-07
0.011180654
4.5727557e-07
0.011180533
3.9892797e-07
0.011180427
3.4579638e-07
0.011180334
2.9884419e-07
0.011180255
2.5580667e-07
0.011180186
2.1946021e-07
0.011180128
1.8465177e-07
0.011180077
1.5866284e-07
0.011180036
1.2944435e-07
0.011179999
1.1501322e-07
8.7969753e-08
0.010097182
6.8393556e-05
0.010346961
0.00019901112
0.010662469
0.00028247387
0.010982753
0.00030866649
0.011290229
0.00030874342
0.011575251
0.00029875788
0.011829022
0.00028101346
0.012047865
0.00025698755
0.012233272
0.00023051982
0.01238924
0.0002051459
0.012520295
0.00018256236
0.012630755
0.00016299958
0.012724428
0.00014622491
0.012804515
0.00013190313
0.012873613
0.00011967426
0.012933772
0.00010917461
0.012986596
0.00010006907
0.013033332
9.2076364e-05
0.01307495
8.4975254e-05
0.013112216
7.8598618e-05
0.013145739
7.2822311e-05
0.013176012
6.7553948e-05
0.013203441
6.2723935e-05
0.013228366
5.8278906e-05
0.013251071
5.4176997e-05
0.013271802
5.0384441e-05
0.01329077
4.6873173e-05
0.013308155
4.361919e-05
0.013324119
4.0601473e-05
0.0133388
3.7801297e-05
0.013352321
3.5201774e-05
0.013364791
3.2787557e-05
0.013376305
3.0544624e-05
0.01338695
2.8460126e-05
0.0133968
2.652226e-05
0.013405923
2.4720175e-05
0.013414381
2.3043882e-05
0.013422228
2.1484183e-05
0.013429513
2.0032599e-05
0.013436281
1.8681314e-05
0.013442572
1.7423114e-05
0.013448422
1.6251339e-05
0.013453866
1.5159836e-05
0.013458933
1.4142918e-05
0.013463652
1.3195322e-05
0.013468047
1.231218e-05
0.013472142
1.1488983e-05
0.013475958
1.0721554e-05
0.013479517
1.000602e-05
0.013482834
9.338787e-06
0.013485928
8.7165198e-06
0.013488814
8.1361182e-06
0.013491507
7.5947011e-06
0.013494019
7.0895867e-06
0.013496363
6.6182787e-06
0.01349855
6.1784506e-06
0.013500592
5.7679324e-06
0.013502497
5.3846983e-06
0.013504276
5.0268544e-06
0.013505936
4.6926282e-06
0.013507485
4.3803605e-06
0.01350893
4.0884935e-06
0.013510279
3.8155658e-06
0.013511536
3.5602057e-06
0.013512709
3.3211259e-06
0.013513803
3.0971226e-06
0.013514821
2.8870674e-06
0.013515769
2.6899135e-06
0.01351665
2.5046838e-06
0.01351747
2.3304795e-06
0.01351823
2.1664694e-06
0.013518934
2.011898e-06
0.013519586
1.8660757e-06
0.013520188
1.7283895e-06
0.013520742
1.5982883e-06
0.013521252
1.4752991e-06
0.01352172
1.3590035e-06
0.013522147
1.249055e-06
0.013522537
1.1451533e-06
0.013522891
1.0470527e-06
0.013523211
9.5454684e-07
0.0135235
8.6745852e-07
0.013523759
7.8564833e-07
0.01352399
7.0897344e-07
0.013524197
6.3734535e-07
0.013524379
5.7061415e-07
0.01352454
5.0874764e-07
0.013524681
4.515173e-07
0.013524804
3.9899691e-07
0.013524911
3.5074145e-07
0.013525002
3.0709182e-07
0.013525081
2.6709016e-07
0.013525148
2.317845e-07
0.013525205
1.9902454e-07
0.013525253
1.7163404e-07
0.013525293
1.4468957e-07
0.013525326
1.2520818e-07
0.013525354
1.020218e-07
0.013525377
9.1473087e-08
7.0324841e-08
0.010068394
5.4689943e-13
0.010267405
4.6851475e-13
0.010549879
1.7731834e-13
0.010858545
-1.8138635e-13
0.011167288
-4.232272e-13
0.011466046
-4.6573136e-13
0.01174706
-2.2005371e-13
0.012004047
3.1317322e-13
0.012234567
9.3313412e-13
0.012439713
1.5522251e-12
0.012622275
1.8914586e-12
0.012785275
1.8843042e-12
0.0129315
1.5325034e-12
0.013063403
9.5853377e-13
0.013183077
5.2807598e-13
0.013292252
4.0137233e-13
0.013392321
8.7738747e-13
0.013484397
1.9631499e-12
0.013569373
3.4362739e-12
0.013647971
5.1444535e-12
0.013720794
6.5952008e-12
0.013788347
7.6982479e-12
0.013851071
8.2869286e-12
0.01390935
8.4291407e-12
0.013963527
8.5309208e-12
0.014013912
8.7732091e-12
0.014060785
9.7401285e-12
0.014104404
1.1586341e-11
0.014145006
1.4357821e-11
0.014182807
1.795315e-11
0.014218009
2.17257e-11
0.014250796
2.5420961e-11
0.014281341
2.8475211e-11
0.014309801
3.0883375e-11
0.014336323
3.2874836e-11
0.014361043
3.4707157e-11
0.014384087
3.7094377e-11
0.014405571
4.0225322e-11
0.014425604
4.4408648e-11
0.014444285
4.9606407e-11
0.014461708
5.5260974e-11
0.014477959
6.1135127e-11
0.014493119
6.6301721e-11
0.014507262
7.0554253e-11
0.014520457
7.3591041e-11
0.014532769
7.5564487e-11
0.014544258
7.7014486e-11
0.01455498
7.828778e-11
0.014564986
7.9697713e-11
0.014574324
8.121773e-11
0.014583041
8.2081722e-11
0.014591177
8.1867698e-11
0.014598771
7.9364467e-11
0.014605861
7.4272785e-11
0.014612479
6.6254963e-11
0.014618657
5.537057e-11
0.014624425
4.2232561e-11
0.01462981
2.7226596e-11
0.014634837
1.0914235e-11
0.014639529
-9.0215059e-12
0.01464391
-3.0537258e-11
0.014647998
-5.5128724e-11
0.014651814
-8.2890878e-11
0.014655374
-1.1445725e-10
0.014658696
-1.4789751e-10
0.014661793
-1.8346213e-10
0.01466468
-2.1721806e-10
0.01466737
-2.4945412e-10
0.014669875
-2.7694384e-10
0.014672206
-3.0144634e-10
0.014674373
-3.2149518e-10
0.014676385
-3.4006311e-10
0.014678251
-3.5477061e-10
0.01467998
-3.6842399e-10
0.014681579
-3.7518989e-10
0.014683054
-3.7720244e-10
0.014684414
-3.6778829e-10
0.014685663
-3.5038492e-10
0.014686809
-3.2179171e-10
0.014687856
-2.8685505e-10
0.014688811
-2.4584998e-10
0.014689679
-2.0371113e-10
0.014690464
-1.6029964e-10
0.014691173
-1.1966923e-10
0.014691811
-7.754752e-11
0.014692381
-3.81199e-11
0.01469289
5.6194557e-12
0.014693342
4.7765209e-11
0.014693741
9.0778445e-11
0.014694091
1.3111494e-10
0.014694398
1.6896544e-10
0.014694665
2.0041604e-10
0.014694897
2.2838119e-10
0.014695095
2.4817378e-10
0.014695267
2.6669231e-10
0.014695411
2.755886e-10
0.014695536
2.8581562e-10
0.014695638
2.853091e-10
0.014695729
2.8642322e-10
2.8174322e-10
0.010068394
-6.8393555e-05
0.010267405
-0.00019901112
0.010549879
-0.00028247387
0.010858545
-0.00030866649
0.011167288
-0.00030874342
0.011466046
-0.00029875788
0.01174706
-0.00028101346
0.012004047
-0.00025698755
0.012234567
-0.00023051982
0.012439713
-0.00020514589
0.012622275
-0.00018256236
0.012785275
-0.00016299957
0.0129315
-0.00014622491
0.013063403
-0.00013190312
0.013183077
-0.00011967426
0.013292252
-0.00010917461
0.013392321
-0.00010006907
0.013484397
-9.2076361e-05
0.013569373
-8.4975248e-05
0.013647971
-7.8598608e-05
0.013720794
-7.2822298e-05
0.013788347
-6.7553933e-05
0.013851071
-6.2723919e-05
0.01390935
-5.8278891e-05
0.013963527
-5.4176981e-05
0.014013912
-5.0384425e-05
0.014060785
-4.6873155e-05
0.014104404
-4.3619168e-05
0.014145006
-4.0601446e-05
0.014182807
-3.7801263e-05
0.014218009
-3.5201733e-05
0.014250796
-3.2787509e-05
0.014281341
-3.0544571e-05
0.014309801
-2.8460068e-05
0.014336323
-2.6522199e-05
0.014361043
-2.472011e-05
0.014384087
-2.3043813e-05
0.014405571
-2.1484108e-05
0.014425604
-2.0032517e-05
0.014444285
-1.8681222e-05
0.014461708
-1.7423012e-05
0.014477959
-1.6251226e-05
0.014493119
-1.5159714e-05
0.014507262
-1.4142788e-05
0.014520457
-1.3195187e-05
0.014532769
-1.2312042e-05
0.014544258
-1.1488843e-05
0.01455498
-1.0721412e-05
0.014564986
-1.0005875e-05
0.014574324
-9.3386402e-06
0.014583041
-8.7163716e-06
0.014591177
-8.135971e-06
0.014598772
-7.5945591e-06
0.014605861
-7.089455e-06
0.014612479
-6.6181628e-06
0.014618658
-6.1783554e-06
0.014624426
-5.7678619e-06
0.01462981
-5.3846558e-06
0.014634837
-5.0268432e-06
0.01463953
-4.6926528e-06
0.01464391
-4.3804246e-06
0.014647999
-4.0886024e-06
0.014651814
-3.8157258e-06
0.014655375
-3.5604231e-06
0.014658696
-3.3214047e-06
0.014661793
-3.0974649e-06
0.01466468
-2.8874704e-06
0.01466737
-2.6903725e-06
0.014669875
-2.5051909e-06
0.014672206
-2.331028e-06
0.014674373
-2.1670527e-06
0.014676385
-2.0125124e-06
0.014678251
-1.8667164e-06
0.01467998
-1.7290527e-06
0.014681578
-1.5989635e-06
0.014683054
-1.4759749e-06
0.014684413
-1.3596609e-06
0.014685663
-1.2496772e-06
0.014686808
-1.1457215e-06
0.014687856
-1.0475551e-06
0.01468881
-9.5497437e-07
0.014689678
-8.6780953e-07
0.014690464
-7.8592241e-07
0.014691173
-7.0917417e-07
0.01469181
-6.3747213e-07
0.014692381
-5.7066848e-07
0.014692889
-5.087253e-07
0.014693341
-4.5141936e-07
0.01469374
-3.9882209e-07
0.014694091
-3.5049513e-07
0.014694398
-3.0677856e-07
0.014694664
-2.6672196e-07
0.014694896
-2.3136745e-07
0.014695095
-1.9857343e-07
0.014695266
-1.7115043e-07
0.014695411
-1.4419173e-07
0.014695536
-1.2469016e-07
0.014695638
-1.0151251e-07
0.014695729
-9.095095e-08
-6.9818885e-08
0.010097182
-0.00016557515
0.010346961
-0.000448791
0.010662469
-0.00059798177
0.010982753
-0.00062895025
0.011290229
-0.00061621887
0.011575251
-0.00058378055
0.011829022
-0.0005347842
0.012047865
-0.00047583049
0.012233272
-0.00041592665
0.01238924
-0.00036111399
0.012520295
-0.00031361711
0.012630755
-0.00027346026
0.012724428
-0.00023989719
0.012804515
-0.00021199032
0.012873613
-0.00018877261
0.012933772
-0.00016933388
0.012986596
-0.00015289296
0.013033332
-0.00013881182
0.01307495
-0.00012659378
0.013112216
-0.00011586444
0.013145739
-0.00010634493
0.013176012
-9.7826992e-05
0.013203441
-9.0153358e-05
0.013228366
-8.3203366e-05
0.013251071
-7.6882617e-05
0.013271802
-7.1115565e-05
0.01329077
-6.5840293e-05
0.013308155
-6.1004903e-05
0.013324119
-5.6565056e-05
0.0133388
-5.2482316e-05
0.013352321
-4.8723001e-05
0.013364791
-4.5257361e-05
0.013376306
-4.205897e-05
0.01338695
-3.9104254e-05
0.0133968
-3.637211e-05
0.013405923
-3.3843599e-05
0.013414381
-3.1501683e-05
0.013422228
-2.9331001e-05
0.013429513
-2.7317675e-05
0.013436281
-2.5449143e-05
0.013442572
-2.3714007e-05
0.013448423
-2.2101911e-05
0.013453866
-2.060342e-05
0.013458933
-1.9209927e-05
0.013463652
-1.7913564e-05
0.013468047
-1.6707127e-05
0.013472142
-1.5584012e-05
0.013475959
-1.453815e-05
0.013479517
-1.3563965e-05
0.013482835
-1.2656319e-05
0.013485929
-1.1810473e-05
0.013488815
-1.1022052e-05
0.013491507
-1.0287006e-05
0.013494019
-9.6015853e-06
0.013496363
-8.9623098e-06
0.013498551
-8.3659464e-06
0.013500593
-7.809489e-06
0.013502498
-7.2901364e-06
0.013504277
-6.805278e-06
0.013505936
-6.3524753e-06
0.013507485
-5.9294475e-06
0.013508931
-5.5340576e-06
0.013510279
-5.1643026e-06
0.013511537
-4.818299e-06
0.01351271
-4.4942866e-06
0.013513803
-4.1906077e-06
0.013514821
-3.9057265e-06
0.013515769
-3.6382035e-06
0.013516651
-3.3867196e-06
0.01351747
-3.1500496e-06
0.01351823
-2.9270843e-06
0.013518934
-2.7168018e-06
0.013519586
-2.5182954e-06
0.013520187
-2.3307332e-06
0.013520742
-2.1534058e-06
0.013521251
-1.9856681e-06
0.013521719
-1.8270007e-06
0.013522146
-1.6769389e-06
0.013522535
-1.5351289e-06
0.013522889
-1.4012553e-06
0.013523209
-1.2750859e-06
0.013523498
-1.1563961e-06
0.013523757
-1.0450295e-06
0.013523988
-9.4079359e-07
0.013524194
-8.4358187e-07
0.013524377
-7.5318676e-07
0.013524538
-6.6955148e-07
0.013524679
-5.9238859e-07
0.013524802
-5.2173099e-07
0.013524909
-4.5706814e-07
0.013525
-3.9867307e-07
0.013525079
-3.4550672e-07
0.013525146
-2.9852454e-07
0.013525203
-2.5547073e-07
0.013525251
-2.1910662e-07
0.013525291
-1.8429303e-07
0.013525325
-1.5829401e-07
0.013525352
-1.2908118e-07
0.013525376
-1.1464446e-07
-8.7613241e-08
0.010188704
-0.00035427932
0.010530487
-0.00079057335
0.010851453
-0.00091894821
0.011124174
-0.00090167137
0.011350581
-0.00084262624
0.011524486
-0.00075768559
0.01164633
-0.00065662744
0.011724155
-0.00055365586
0.011767999
-0.00045977083
0.011786639
-0.00037975353
0.011787114
-0.00031409258
0.011775058
-0.00026140426
0.011754861
-0.00021969949
0.011729768
-0.00018689787
0.011702054
-0.00016105803
0.011673239
-0.00014051895
0.011644339
-0.00012399297
0.011616003
-0.000110476
0.011588629
-9.921986e-05
0.011562446
-8.9681389e-05
0.011537572
-8.1470652e-05
0.011514052
-7.4307835e-05
0.011491889
-6.7990492e-05
0.011471056
-6.2369994e-05
0.011451509
-5.7335026e-05
0.011433193
-5.2800198e-05
0.011416051
-4.8698276e-05
0.011400021
-4.4974956e-05
0.011385042
-4.1585381e-05
0.011371051
-3.8491825e-05
0.01135799
-3.5662127e-05
0.011345801
-3.3068582e-05
0.01133443
-3.0687148e-05
0.011323822
-2.8496838e-05
0.011313929
-2.6479242e-05
0.011304704
-2.4618156e-05
0.011296101
-2.2899259e-05
0.01128808
-2.1309856e-05
0.011280601
-1.9838659e-05
0.011273628
-1.8475591e-05
0.011267125
-1.7211633e-05
0.011261062
-1.6038684e-05
0.011255408
-1.4949446e-05
0.011250136
-1.3937321e-05
0.011245218
-1.2996333e-05
0.011240632
-1.2121049e-05
0.011236355
-1.1306523e-05
0.011232365
-1.0548239e-05
0.011228643
-9.8420663e-06
0.011225171
-9.1842166e-06
0.011221932
-8.5712096e-06
0.011218909
-7.9998397e-06
0.011216089
-7.4671482e-06
0.011213458
-6.9703992e-06
0.011211003
-6.5070575e-06
0.011208712
-6.0747714e-06
0.011206574
-5.6713554e-06
0.011204578
-5.294776e-06
0.011202716
-4.9431384e-06
0.011200978
-4.6146727e-06
0.011199357
-4.3077229e-06
0.011197843
-4.0207356e-06
0.011196431
-3.752252e-06
0.011195114
-3.5009013e-06
0.011193885
-3.2653971e-06
0.011192739
-3.0445356e-06
0.01119167
-2.8371969e-06
0.011190674
-2.6423426e-06
0.011189747
-2.4590181e-06
0.011188883
-2.286347e-06
0.011188079
-2.1235325e-06
0.011187332
-1.9698502e-06
0.011186639
-1.8246495e-06
0.011185995
-1.6873498e-06
0.011185399
-1.5574452e-06
0.011184848
-1.4345001e-06
0.011184339
-1.3181541e-06
0.01118387
-1.2081089e-06
0.011183439
-1.1041311e-06
0.011183044
-1.006026e-06
0.011182683
-9.1364114e-07
0.011182353
-8.268347e-07
0.011182053
-7.4549265e-07
0.011181782
-6.694871e-07
0.011181537
-5.9872779e-07
0.011181317
-5.3307718e-07
0.01118112
-4.7247399e-07
0.011180945
-4.1673121e-07
0.011180789
-3.6582846e-07
0.011180651
-3.1944224e-07
0.01118053
-2.7765131e-07
0.011180424
-2.3984389e-07
0.011180332
-2.0641014e-07
0.011180253
-1.7614827e-07
0.011180184
-1.5029769e-07
0.011180126
-1.263219e-07
0.011180075
-1.076125e-07
0.011180035
-8.8308279e-08
0.011179997
-7.7354394e-08
-5.9260149e-08
0.010339525
-0.00069380425
0.010570754
-0.0010218027
0.010606301
-0.00095449449
0.010547572
-0.00084294334
0.010422317
-0.0007173708
0.010244356
-0.00057972444
0.010039421
-0.00045169204
0.0098287427
-0.000342978
0.009625135
-0.00025616317
0.0094353013
-0.00018991983
0.0092624277
-0.00014121897
0.0091075332
-0.0001065098
0.008970154
-8.2320223e-05
0.0088489023
-6.5646247e-05
0.0087419716
-5.4127255e-05
0.0086474927
-4.6040047e-05
0.008563694
-4.019429e-05
0.0084890108
-3.5792751e-05
0.0084221097
-3.2318753e-05
0.0083618775
-2.9449275e-05
0.0083073954
-2.6988572e-05
0.0082579079
-2.4820299e-05
0.0082127929
-2.2875482e-05
0.0081715353
-2.1112423e-05
0.0081337049
-1.9504663e-05
0.0080989388
-1.8034024e-05
0.0080669273
-1.6686731e-05
0.0080374037
-1.5451363e-05
0.0080101362
-1.4317855e-05
0.0079849214
-1.327706e-05
0.0079615798
-1.2320578e-05
0.0079399519
-1.1440709e-05
0.0079198952
-1.0630428e-05
0.0079012817
-9.8833656e-06
0.0078839962
-9.1937778e-06
0.0078679346
-8.5565063e-06
0.0078530023
-7.9669288e-06
0.0078391134
-7.4209093e-06
0.0078261895
-6.9147445e-06
0.007814159
-6.4451145e-06
0.0078029564
-6.0090375e-06
0.0077925215
-5.6038271e-06
0.0077827991
-5.2270584e-06
0.0077737383
-4.8765358e-06
0.0077652922
-4.5502662e-06
0.0077574176
-4.2464372e-06
0.0077500745
-3.9633955e-06
0.0077432259
-3.6996306e-06
0.0077368376
-3.4537581e-06
0.0077308779
-3.2245058e-06
0.0077253174
-3.0107018e-06
0.0077201288
-2.8112628e-06
0.0077152868
-2.6251864e-06
0.007710768
-2.4515428e-06
0.0077065503
-2.2894688e-06
0.0077026137
-2.1381638e-06
0.0076989393
-1.9968824e-06
0.0076955094
-1.8649323e-06
0.007692308
-1.7416665e-06
0.0076893198
-1.6264795e-06
0.0076865309
-1.518801e-06
0.0076839282
-1.4180942e-06
0.0076814997
-1.3238495e-06
0.0076792344
-1.2355893e-06
0.0076771218
-1.1528607e-06
0.0076751525
-1.0752465e-06
0.0076733177
-1.0023542e-06
0.0076716092
-9.3382794e-07
0.0076700196
-8.6933448e-07
0.0076685418
-8.0857287e-07
0.0076671695
-7.5125946e-07
0.0076658967
-6.9714033e-07
0.007664718
-6.4597558e-07
0.0076636282
-5.9756268e-07
0.0076626225
-5.5171453e-07
0.0076616963
-5.0828922e-07
0.0076608454
-4.6716076e-07
0.0076600657
-4.2824206e-07
0.0076593531
-3.9145494e-07
0.0076587038
-3.567413e-07
0.0076581142
-3.2404272e-07
0.0076575806
-2.9330861e-07
0.0076570995
-2.6448759e-07
0.0076566675
-2.3753597e-07
0.0076562813
-2.1241881e-07
0.0076559374
-1.8910059e-07
0.0076556327
-1.6756845e-07
0.0076553638
-1.477703e-07
0.0076551278
-1.2970451e-07
0.0076549216
-1.1325701e-07
0.0076547424
-9.8445596e-08
0.0076545875
-8.5053605e-08
0.0076544542
-7.3189673e-08
0.0076543406
-6.2476282e-08
0.0076542436
-5.3257774e-08
0.0076541622
-4.4858778e-08
0.0076540927
-3.8072316e-08
0.007654036
-3.1626423e-08
0.0076539857
-2.7160327e-08
-2.2479623e-08
0.0093061957
0.0082843931
0.0073298986
0.0064869553
0.0057695845
0.00518986
0.004738168
0.00439519
0.0041390268
0.003949107
0.003807888
0.0037013782
0.003619058
0.0035534117
0.0034992845
0.0034532444
0.0034130501
0.0033772574
0.0033449386
0.0033154894
0.0032885008
0.0032636805
0.003240805
0.0032196926
0.0032001879
0.0031821539
0.0031654672
0.0031500158
0.003135698
0.0031224209
0.0031101003
0.0030986596
0.0030880291
0.0030781458
0.003068952
0.0030603955
0.0030524286
0.0030450077
0.003038093
0.0030316478
0.0030256388
0.003020035
0.0030148079
0.0030099313
0.0030053811
0.0030011346
0.0029971713
0.0029934716
0.0029900179
0.0029867934
0.0029837827
0.0029809714
0.0029783462
0.0029758946
0.0029736052
0.002971467
0.0029694701
0.0029676052
0.0029658636
0.0029642371
0.0029627183
0.0029613001
0.0029599763
0.0029587407
0.0029575878
0.0029565126
0.0029555103
0.0029545765
0.0029537072
0.0029528986
0.0029521473
0.0029514501
0.0029508041
0.0029502066
0.0029496549
0.0029491467
0.0029486796
0.0029482514
0.00294786
0.0029475033
0.0029471792
0.0029468859
0.0029466214
0.0029463838
0.0029461715
0.0029459825
0.002945815
0.0029456673
0.0029455376
0.0029454243
0.0029453258
0.0029452408
0.0029451676
0.0029451051
0.0029450519
0.002945007
0.002944969
0.0029449373
0.0029449102
)
;

boundaryField
{
    top
    {
        type            calculated;
        value           uniform 0;
    }
    inlet
    {
        type            calculated;
        value           nonuniform List<scalar> 10(-0.01 -0.01 -0.01 -0.01 -0.01 -0.01 -0.01 -0.01 -0.01 -0.01);
    }
    outlet
    {
        type            calculated;
        value           nonuniform List<scalar> 10(0.0029448878 0.0076539496 0.01117997 0.013525395 0.014695799 0.014695799 0.013525394 0.011179969 0.007653949 0.0029448877);
    }
    bottom
    {
        type            calculated;
        value           uniform 0;
    }
    back
    {
        type            empty;
        value           nonuniform 0();
    }
    front
    {
        type            empty;
        value           nonuniform 0();
    }
}


// ************************************************************************* //
