/*--------------------------------*- C++ -*----------------------------------*\
| =========                 |                                                 |
| \\      /  F ield         | OpenFOAM: The Open Source CFD Toolbox           |
|  \\    /   O peration     | Version:  v1812                                 |
|   \\  /    A nd           | Web:      www.OpenFOAM.com                      |
|    \\/     M anipulation  |                                                 |
\*---------------------------------------------------------------------------*/
FoamFile
{
    version     2.0;
    format      ascii;
    class       volScalarField;
    location    "3";
    object      p;
}
// * * * * * * * * * * * * * * * * * * * * * * * * * * * * * * * * * * * * * //

dimensions      [0 2 -2 0 0 0 0];


internalField   nonuniform List<scalar> 
1000
(
1.7068998
1.5858219
1.4898414
1.4261853
1.3776758
1.335204
1.2976692
1.2654986
1.2381004
1.2142663
1.1928771
1.1731208
1.1544554
1.1365337
1.1191445
1.1021677
1.0855394
1.069228
1.0532185
1.0375034
1.0220777
1.0069363
0.99207292
0.97747832
0.96314057
0.94904478
0.93517335
0.92150638
0.9080224
0.8946991
0.88151406
0.86844559
0.85547337
0.84257896
0.82974615
0.81696103
0.80421205
0.79148985
0.77878707
0.76609804
0.75341852
0.74074543
0.72807658
0.71541045
0.70274602
0.69008263
0.67741984
0.6647574
0.65209514
0.63943298
0.62677087
0.61410878
0.60144669
0.5887846
0.57612252
0.56346043
0.55079835
0.53813626
0.52547417
0.51281209
0.50015
0.48748791
0.47482583
0.46216374
0.44950166
0.43683957
0.42417749
0.4115154
0.39885332
0.38619123
0.37352915
0.36086706
0.34820498
0.33554289
0.32288081
0.31021873
0.29755664
0.28489456
0.27223247
0.25957039
0.24690831
0.23424622
0.22158414
0.20892206
0.19625997
0.18359789
0.1709358
0.15827372
0.14561164
0.13294955
0.12028747
0.10762539
0.094963315
0.082301243
0.069639169
0.056977113
0.044315076
0.031653152
0.018991359
0.0063300703
1.5896802
1.5347511
1.4737987
1.4222311
1.3789611
1.3399931
1.3044072
1.2726352
1.2446756
1.2199004
1.197503
1.1768078
1.1573352
1.1387612
1.1208694
1.1035165
1.0866099
1.0700917
1.0539258
1.0380893
1.0225661
1.0073437
0.99241088
0.97775597
0.9633656
0.94922413
0.93531348
0.92161343
0.90810208
0.89475663
0.88155415
0.86847238
0.85549037
0.84258904
0.82975154
0.81696342
0.80421265
0.7914895
0.77878629
0.76609715
0.75341769
0.74074474
0.72807604
0.71541006
0.70274575
0.69008245
0.67741973
0.66475733
0.6520951
0.63943296
0.62677086
0.61410877
0.60144669
0.5887846
0.57612252
0.56346043
0.55079835
0.53813626
0.52547417
0.51281209
0.50015
0.48748791
0.47482583
0.46216374
0.44950166
0.43683957
0.42417749
0.4115154
0.39885332
0.38619123
0.37352915
0.36086706
0.34820498
0.33554289
0.32288081
0.31021873
0.29755664
0.28489456
0.27223247
0.25957039
0.2469083
0.23424622
0.22158414
0.20892205
0.19625997
0.18359789
0.1709358
0.15827372
0.14561163
0.13294956
0.12028747
0.10762539
0.094963304
0.082301227
0.069639127
0.056977041
0.04431492
0.031652914
0.018990956
0.0063297417
1.528859
1.5026839
1.4642872
1.4231545
1.3840696
1.3474791
1.313182
1.2814653
1.2526105
1.2265118
1.2027625
1.1808799
1.1604399
1.1411127
1.1226538
1.1048851
1.0876791
1.0709457
1.0546236
1.0386712
1.0230596
1.0077667
0.99277488
0.97806862
0.96363258
0.94945003
0.93550231
0.92176896
0.90822811
0.894857
0.88163265
0.86853262
0.85553568
0.84262243
0.82977563
0.81698043
0.80422439
0.79149742
0.7787915
0.76610049
0.75341978
0.740746
0.72807678
0.71541047
0.70274597
0.69008256
0.67741978
0.66475735
0.6520951
0.63943296
0.62677085
0.61410876
0.60144668
0.5887846
0.57612252
0.56346043
0.55079835
0.53813626
0.52547417
0.51281209
0.50015
0.48748791
0.47482583
0.46216374
0.44950166
0.43683957
0.42417749
0.4115154
0.39885332
0.38619123
0.37352915
0.36086706
0.34820498
0.33554289
0.32288081
0.31021873
0.29755664
0.28489456
0.27223247
0.25957039
0.2469083
0.23424622
0.22158414
0.20892205
0.19625997
0.18359789
0.1709358
0.15827372
0.14561163
0.13294955
0.12028745
0.10762537
0.094963259
0.082301155
0.069638985
0.056976811
0.044314527
0.031652355
0.018990265
0.0063292735
1.4994505
1.4839525
1.4570828
1.4231592
1.3873586
1.3524078
1.3191064
1.2877545
1.2586255
1.2318369
1.2072552
1.1845728
1.1634337
1.1435204
1.1245847
1.1064403
1.0889449
1.0719908
1.0554996
1.0394171
1.0237043
1.0083308
0.99327188
0.97850752
0.96401955
0.94978956
0.93579783
0.92202339
0.90844436
0.8950382
0.8817822
0.86865408
0.8556327
0.8426986
0.8298344
0.81702497
0.80425754
0.79152164
0.77880887
0.76611272
0.75342822
0.74075171
0.72808057
0.71541294
0.70274754
0.69008353
0.67742037
0.66475769
0.6520953
0.63943307
0.62677091
0.61410879
0.60144669
0.5887846
0.57612252
0.56346043
0.55079834
0.53813626
0.52547417
0.51281209
0.50015
0.48748791
0.47482583
0.46216374
0.44950166
0.43683957
0.42417749
0.4115154
0.39885332
0.38619123
0.37352915
0.36086706
0.34820498
0.33554289
0.32288081
0.31021873
0.29755664
0.28489456
0.27223247
0.25957039
0.2469083
0.23424623
0.22158414
0.20892206
0.19625997
0.18359789
0.1709358
0.15827371
0.14561162
0.13294954
0.12028743
0.10762534
0.094963198
0.082301059
0.069638804
0.056976526
0.044314095
0.03165179
0.018989659
0.006328903
1.486719
1.4747658
1.4525316
1.4222444
1.3883837
1.3543886
1.3216916
1.2906873
1.261592
1.2345834
1.2096631
1.186625
1.1651579
1.1449568
1.1257766
1.1074316
1.0897766
1.0726968
1.0561065
1.0399457
1.0241706
1.0087463
0.99364449
0.97884223
0.96431978
0.95005769
0.93603554
0.92223201
0.9086252
0.89519278
0.88191234
0.86876187
0.85572046
0.8427688
0.82988951
0.81706744
0.80428965
0.79154545
0.77882618
0.76612505
0.75343682
0.7407576
0.72808451
0.71541551
0.70274919
0.69008456
0.67742099
0.66475806
0.65209552
0.63943318
0.62677097
0.61410882
0.60144671
0.58878461
0.57612252
0.56346043
0.55079834
0.53813626
0.52547417
0.51281209
0.50015
0.48748791
0.47482583
0.46216374
0.44950166
0.43683957
0.42417749
0.4115154
0.39885332
0.38619123
0.37352915
0.36086706
0.34820498
0.33554289
0.32288082
0.31021872
0.29755665
0.28489456
0.27223247
0.25957039
0.2469083
0.23424623
0.22158413
0.20892206
0.19625997
0.18359789
0.17093579
0.15827371
0.14561162
0.13294953
0.12028742
0.10762532
0.094963154
0.082300992
0.069638684
0.056976341
0.044313834
0.031651464
0.018989332
0.0063287171
1.486719
1.4747658
1.4525316
1.4222444
1.3883837
1.3543886
1.3216916
1.2906873
1.261592
1.2345834
1.2096631
1.186625
1.1651579
1.1449568
1.1257766
1.1074316
1.0897766
1.0726968
1.0561065
1.0399457
1.0241706
1.0087463
0.99364449
0.97884222
0.96431977
0.95005768
0.93603553
0.92223201
0.90862519
0.89519278
0.88191234
0.86876187
0.85572046
0.84276879
0.82988951
0.81706743
0.80428965
0.79154544
0.77882617
0.76612504
0.75343682
0.74075759
0.7280845
0.71541551
0.70274918
0.69008455
0.67742099
0.66475806
0.65209551
0.63943318
0.62677097
0.61410882
0.60144671
0.58878461
0.57612252
0.56346043
0.55079834
0.53813626
0.52547417
0.51281208
0.50015
0.48748791
0.47482583
0.46216374
0.44950166
0.43683957
0.42417749
0.4115154
0.39885332
0.38619123
0.37352915
0.36086706
0.34820498
0.33554289
0.32288082
0.31021872
0.29755665
0.28489456
0.27223247
0.25957039
0.2469083
0.23424623
0.22158413
0.20892206
0.19625996
0.18359788
0.17093579
0.15827371
0.14561161
0.13294952
0.12028742
0.10762532
0.094963155
0.082300993
0.069638685
0.056976342
0.044313835
0.031651467
0.018989337
0.0063287186
1.4994505
1.4839525
1.4570828
1.4231592
1.3873586
1.3524078
1.3191064
1.2877545
1.2586255
1.2318369
1.2072552
1.1845728
1.1634337
1.1435204
1.1245848
1.1064403
1.088945
1.0719908
1.0554996
1.0394171
1.0237043
1.0083308
0.99327188
0.97850752
0.96401955
0.94978955
0.93579782
0.92202338
0.90844435
0.8950382
0.88178219
0.86865407
0.85563269
0.84269859
0.82983438
0.81702495
0.80425752
0.79152162
0.77880885
0.76611269
0.75342819
0.74075169
0.72808055
0.71541291
0.70274752
0.69008351
0.67742035
0.66475768
0.65209529
0.63943306
0.6267709
0.61410879
0.60144669
0.5887846
0.57612251
0.56346043
0.55079834
0.53813626
0.52547417
0.51281209
0.50015
0.48748791
0.47482583
0.46216374
0.44950166
0.43683957
0.42417749
0.4115154
0.39885332
0.38619123
0.37352915
0.36086706
0.34820498
0.33554289
0.32288081
0.31021873
0.29755664
0.28489456
0.27223247
0.25957039
0.2469083
0.23424622
0.22158413
0.20892205
0.19625997
0.18359788
0.17093579
0.15827371
0.14561161
0.13294953
0.12028743
0.10762534
0.0949632
0.082301063
0.069638806
0.056976527
0.044314099
0.031651799
0.018989668
0.0063289061
1.528859
1.5026839
1.4642872
1.4231545
1.3840695
1.3474791
1.313182
1.2814653
1.2526105
1.2265118
1.2027626
1.1808799
1.16044
1.1411128
1.1226538
1.1048851
1.0876791
1.0709458
1.0546236
1.0386713
1.0230596
1.0077667
0.99277488
0.97806862
0.96363258
0.94945002
0.9355023
0.92176896
0.90822811
0.894857
0.88163265
0.86853261
0.85553566
0.84262241
0.8297756
0.81698039
0.80422436
0.79149738
0.77879146
0.76610045
0.75341974
0.74074596
0.72807675
0.71541044
0.70274594
0.69008253
0.67741975
0.66475733
0.65209509
0.63943294
0.62677084
0.61410875
0.60144667
0.58878459
0.57612251
0.56346043
0.55079834
0.53813626
0.52547417
0.51281209
0.50015
0.48748791
0.47482583
0.46216374
0.44950166
0.43683957
0.42417749
0.4115154
0.39885332
0.38619123
0.37352915
0.36086706
0.34820498
0.33554289
0.32288081
0.31021873
0.29755664
0.28489456
0.27223247
0.25957039
0.2469083
0.23424622
0.22158414
0.20892205
0.19625997
0.18359788
0.1709358
0.15827371
0.14561162
0.13294954
0.12028745
0.10762537
0.094963264
0.082301162
0.069638989
0.056976813
0.044314531
0.031652366
0.018990276
0.0063292771
1.5896801
1.5347511
1.4737986
1.422231
1.3789611
1.339993
1.3044072
1.2726352
1.2446756
1.2199004
1.197503
1.1768078
1.1573352
1.1387612
1.1208694
1.1035166
1.08661
1.0700917
1.0539258
1.0380893
1.0225661
1.0073437
0.99241089
0.97775597
0.9633656
0.94922413
0.93531348
0.92161343
0.90810209
0.89475663
0.88155415
0.86847237
0.85549035
0.84258901
0.8297515
0.81696338
0.80421261
0.79148945
0.77878624
0.7660971
0.75341764
0.74074469
0.728076
0.71541002
0.70274572
0.69008242
0.6774197
0.66475731
0.65209508
0.63943295
0.62677085
0.61410876
0.60144668
0.5887846
0.57612251
0.56346043
0.55079834
0.53813626
0.52547417
0.51281209
0.50015
0.48748791
0.47482583
0.46216374
0.44950166
0.43683957
0.42417749
0.4115154
0.39885332
0.38619123
0.37352915
0.36086706
0.34820498
0.33554289
0.32288081
0.31021873
0.29755664
0.28489456
0.27223247
0.25957039
0.2469083
0.23424622
0.22158414
0.20892205
0.19625997
0.18359788
0.1709358
0.15827371
0.14561163
0.13294955
0.12028746
0.10762539
0.094963311
0.082301236
0.069639132
0.056977043
0.044314925
0.031652927
0.018990968
0.0063297459
1.7068998
1.5858219
1.4898414
1.4261853
1.3776758
1.335204
1.2976692
1.2654986
1.2381004
1.2142663
1.1928771
1.1731209
1.1544555
1.1365337
1.1191446
1.1021677
1.0855394
1.069228
1.0532186
1.0375034
1.0220777
1.0069364
0.99207293
0.97747832
0.96314057
0.94904478
0.93517334
0.92150638
0.9080224
0.89469909
0.88151405
0.86844557
0.85547334
0.84257893
0.82974611
0.81696098
0.804212
0.7914898
0.77878702
0.76609798
0.75341847
0.74074538
0.72807653
0.71541041
0.70274599
0.6900826
0.67741982
0.66475738
0.65209513
0.63943297
0.62677086
0.61410877
0.60144668
0.5887846
0.57612251
0.56346043
0.55079834
0.53813626
0.52547417
0.51281209
0.50015
0.48748791
0.47482583
0.46216374
0.44950166
0.43683957
0.42417749
0.4115154
0.39885332
0.38619123
0.37352915
0.36086706
0.34820498
0.33554289
0.32288081
0.31021873
0.29755664
0.28489456
0.27223247
0.25957039
0.2469083
0.23424622
0.22158414
0.20892205
0.19625997
0.18359788
0.1709358
0.15827371
0.14561163
0.13294955
0.12028747
0.1076254
0.094963321
0.08230125
0.069639171
0.056977115
0.044315086
0.03165317
0.018991373
0.0063300747
)
;

boundaryField
{
    top
    {
        type            zeroGradient;
    }
    inlet
    {
        type            zeroGradient;
    }
    outlet
    {
        type            fixedValue;
        value           uniform 0;
    }
    bottom
    {
        type            zeroGradient;
    }
    back
    {
        type            empty;
    }
    front
    {
        type            empty;
    }
}


// ************************************************************************* //
