/*--------------------------------*- C++ -*----------------------------------*\
| =========                 |                                                 |
| \\      /  F ield         | OpenFOAM: The Open Source CFD Toolbox           |
|  \\    /   O peration     | Version:  v1812                                 |
|   \\  /    A nd           | Web:      www.OpenFOAM.com                      |
|    \\/     M anipulation  |                                                 |
\*---------------------------------------------------------------------------*/
FoamFile
{
    version     2.0;
    format      ascii;
    class       surfaceScalarField;
    location    "3";
    object      phi;
}
// * * * * * * * * * * * * * * * * * * * * * * * * * * * * * * * * * * * * * //

dimensions      [0 3 -1 0 0 0 0];
oriented        oriented;


internalField   nonuniform List<scalar> 
1890
(
0.0093061957
0.00069380426
0.0082843938
0.0010218019
0.0073299014
0.00095449245
0.0064869642
0.0008429372
0.005769607
0.00071735725
0.0051899015
0.00057970551
0.0047382383
0.00045166323
0.004395304
0.0003429344
0.0041392004
0.00025610364
0.0039493606
0.00018983996
0.0038082557
0.0001411051
0.0037019151
0.00010634082
0.0036198419
8.2073561e-05
0.0035545417
6.530056e-05
0.0035008841
5.3657989e-05
0.0034554761
4.5408475e-05
0.0034161325
3.9344025e-05
0.0033814755
3.4657437e-05
0.003350648
3.082782e-05
0.0033231213
2.7526935e-05
0.0032985681
2.4553338e-05
0.0032767756
2.1792571e-05
0.0032575857
1.9189737e-05
0.0032408582
1.6727419e-05
0.0032264495
1.4408609e-05
0.0032142026
1.2246727e-05
0.0032039434
1.0259124e-05
0.0031954811
8.4622417e-06
0.0031886135
6.8674572e-06
0.003183134
5.4793966e-06
0.003178838
4.2958496e-06
0.0031755302
3.3075786e-06
0.0031730302
2.4997722e-06
0.0031711763
1.8535472e-06
0.0031698281
1.3477629e-06
0.0031688672
9.6049423e-07
0.0031681963
6.7052607e-07
0.0031677377
4.582206e-07
0.0031674311
3.0631446e-07
0.0031672307
2.0009451e-07
0.0031671029
1.2758561e-07
0.0031670234
7.9265551e-08
0.0031669754
4.7892818e-08
0.0031669473
2.8046591e-08
0.0031669314
1.5862622e-08
0.0031669227
8.5991241e-09
0.0031669183
4.4338948e-09
0.0031669162
2.1284628e-09
0.0031669153
9.3118167e-10
0.0031669149
3.3610287e-10
0.0031669149
7.925603e-11
0.0031669149
-1.6602665e-11
0.003166915
-3.3189708e-11
0.003166915
-3.2326231e-11
0.0031669151
-1.130859e-11
0.0031669151
-2.9837204e-12
0.0031669151
1.2796319e-11
0.0031669151
9.4783733e-12
0.0031669151
2.250819e-11
0.0031669151
9.4332812e-12
0.0031669151
2.4955795e-11
0.0031669151
2.8441061e-12
0.003166915
2.5971761e-11
0.003166915
-6.7955142e-12
0.003166915
2.8867103e-11
0.003166915
-1.5678069e-11
0.003166915
3.0360122e-11
0.003166915
-1.9799886e-11
0.003166915
2.6885106e-11
0.003166915
-1.3791605e-11
0.003166915
1.100964e-11
0.003166915
7.3521389e-12
0.003166915
-1.8232149e-11
0.003166915
4.0103456e-11
0.003166915
-5.3004908e-11
0.003166915
6.9055903e-11
0.003166915
-7.013264e-11
0.003166915
6.7978727e-11
0.003166915
-4.7544047e-11
0.003166915
2.685479e-11
0.003166915
6.7397766e-12
0.003166915
-2.859386e-11
0.003166915
6.2448988e-11
0.003166915
-6.1981614e-11
0.0031669149
7.945658e-11
0.003166915
-4.7739043e-11
0.0031669149
8.1670503e-11
0.0031669149
-1.9123117e-11
0.0031669148
1.3173025e-10
0.0031669148
3.0640189e-11
0.0031669145
2.7070882e-10
0.0031669143
1.9958123e-10
0.0031669137
5.8671978e-10
0.003166913
7.8057007e-10
0.0031669115
1.656272e-09
0.0031669088
2.8099258e-09
0.0031669035
5.2527112e-09
0.0031668942
9.0298652e-09
0.0031668783
1.5612314e-08
2.2850575e-08
0.010339525
0.00035427912
0.010570755
0.00079057177
0.010606305
0.00091894309
0.010547579
0.0009016628
0.010422327
0.00084260926
0.010244377
0.00075765509
0.010039463
0.00065657815
0.0098288188
0.00055357819
0.0096252702
0.0004596522
0.0094355299
0.00037958032
0.0092627952
0.00031384004
0.0091081109
0.00026102525
0.0089710539
0.00021913084
0.0088502832
0.00018607146
0.0087440372
0.00015990423
0.0086505103
0.00013893568
0.0085680312
0.00012182338
0.0084951539
0.00010753494
0.0084306749
9.5307006e-05
0.0083736211
8.4580761e-05
0.0083232219
7.4952452e-05
0.0082788661
6.6148133e-05
0.0082400541
5.800149e-05
0.0082063556
5.0425585e-05
0.0081773775
4.3386456e-05
0.0081527396
3.6884455e-05
0.0081320589
3.0939616e-05
0.0081149431
2.5577865e-05
0.0081009912
2.0819223e-05
0.0080898002
1.6670259e-05
0.0080809749
1.312101e-05
0.0080741374
1.0144859e-05
0.0080689365
7.7004062e-06
0.0080650548
5.7349141e-06
0.0080622138
4.1883937e-06
0.0080601759
2.9980422e-06
0.008058744
2.1020425e-06
0.0080577591
1.4427098e-06
0.0080570966
9.6853747e-07
0.008056661
6.3542238e-07
0.0080563815
4.069112e-07
0.0080562066
2.5396417e-07
0.0080561002
1.5416835e-07
0.0080560374
9.0784561e-08
0.0080560016
5.1650546e-08
0.0080559819
2.8228405e-08
0.0080559717
1.4682093e-08
0.0080559667
7.1621874e-09
0.0080559645
3.1832202e-09
0.0080559637
1.2017116e-09
0.0080559635
2.9837465e-10
0.0080559635
-1.9263131e-11
0.0080559636
-1.1789041e-10
0.0080559637
-1.1006748e-10
0.0080559638
-6.3943045e-11
0.0080559638
-2.699587e-11
0.0080559638
1.2657297e-11
0.0080559638
2.2323885e-11
0.0080559638
4.6225619e-11
0.0080559638
3.0064777e-11
0.0080559638
5.5370978e-11
0.0080559638
1.7366391e-11
0.0080559638
5.7955373e-11
0.0080559638
-1.6891772e-12
0.0080559637
6.0204407e-11
0.0080559637
-1.8524598e-11
0.0080559637
5.8317681e-11
0.0080559637
-2.2578188e-11
0.0080559637
4.1559585e-11
0.0080559637
-2.2230708e-12
0.0080559637
-1.3412766e-12
0.0080559637
4.9148621e-11
0.0080559637
-6.8987169e-11
0.0080559636
1.1704511e-10
0.0080559637
-1.3277903e-10
0.0080559636
1.5705979e-10
0.0080559637
-1.3753249e-10
0.0080559636
1.1358148e-10
0.0080559636
-4.3831658e-11
0.0080559637
-1.808099e-11
0.0080559636
1.0908947e-10
0.0080559637
-1.5346167e-10
0.0080559636
2.0781819e-10
0.0080559637
-1.7332649e-10
0.0080559636
1.7829973e-10
0.0080559636
-7.0041109e-11
0.0080559636
1.1513931e-10
0.0080559635
3.2507527e-11
0.0080559635
1.9616789e-10
0.0080559634
1.1692704e-10
0.0080559632
4.8257909e-10
0.0080559629
4.3604985e-10
0.0080559624
1.0734858e-09
0.0080559617
1.5659815e-09
0.0080559606
2.8877903e-09
0.0080559585
5.1143828e-09
0.0080559552
8.5215795e-09
0.0080559495
1.4443103e-08
0.0080559441
2.0629675e-08
2.8694785e-08
0.010188704
0.0001655748
0.010530486
0.00044878984
0.010851452
0.0005979774
0.011124172
0.00062894258
0.011350576
0.00061620532
0.011524477
0.00058375409
0.011646316
0.00053473939
0.011724135
0.00047575906
0.011767975
0.00041581196
0.011786618
0.00036093775
0.011787101
0.00031335696
0.011775055
0.00027307125
0.011754877
0.00023930867
0.011729824
0.00021112472
0.01170218
0.0001875483
0.011673482
0.00016763374
0.011644762
0.00015054384
0.011616695
0.00013560216
0.01158971
0.00012229272
0.01156407
0.00011022072
0.011539938
9.9083793e-05
0.011517419
8.8667179e-05
0.011496582
7.8838758e-05
0.011477475
6.9532335e-05
0.011460132
6.0729038e-05
0.011444571
5.2444996e-05
0.01143079
4.472078e-05
0.01141876
3.7608613e-05
0.01140842
3.1158608e-05
0.011399682
2.5408187e-05
0.011392428
2.0375686e-05
0.011386515
1.6057392e-05
0.011381788
1.242745e-05
0.011378083
9.4402081e-06
0.011375236
7.0346434e-06
0.011373094
5.1397239e-06
0.011371516
3.6800478e-06
0.011370378
2.5807559e-06
0.011369575
1.7715886e-06
0.01136902
1.1895844e-06
0.011368647
7.8068982e-07
0.0113684
5.001959e-07
0.011368242
3.1245634e-07
0.011368143
1.8994334e-07
0.011368082
1.1209199e-07
0.011368047
6.3985576e-08
0.011368026
3.5153517e-08
0.011368015
1.8443927e-08
0.011368009
9.123697e-09
0.011368006
4.1639413e-09
0.011368005
1.6748855e-09
0.011368004
5.3248292e-10
0.011368004
5.5060777e-11
0.011368004
-8.7166852e-11
0.011368004
-8.5417668e-11
0.011368004
-5.3239293e-11
0.011368004
1.0355752e-12
0.011368004
1.8773521e-11
0.011368004
5.9004609e-11
0.011368004
4.1637383e-11
0.011368004
7.9700938e-11
0.011368004
3.1418302e-11
0.011368004
8.3839784e-11
0.011368004
1.0121295e-11
0.011368004
8.2747657e-11
0.011368004
-7.5321666e-12
0.011368004
7.1638356e-11
0.011368004
-5.9258215e-12
0.011368004
3.9150826e-11
0.011368004
2.8643025e-11
0.011368004
-2.6010039e-11
0.011368004
9.714291e-11
0.011368004
-1.1050452e-10
0.011368004
1.6997533e-10
0.011368004
-1.6713293e-10
0.011368004
1.8185279e-10
0.011368004
-1.2562613e-10
0.011368004
7.452447e-11
0.011368004
4.1343637e-11
0.011368004
-1.2598809e-10
0.011368004
2.410707e-10
0.011368004
-2.6858353e-10
0.011368004
3.0083765e-10
0.011368004
-2.0485565e-10
0.011368004
1.6953232e-10
0.011368004
8.3668493e-12
0.011368004
3.1225163e-11
0.011368004
1.4824536e-10
0.011368004
1.3933885e-10
0.011368004
1.8919544e-10
0.011368004
5.0013621e-10
0.011368004
4.8801469e-10
0.011368004
1.10525e-09
0.011368004
1.7297057e-09
0.011368004
2.8517071e-09
0.011368004
5.25199e-09
0.011368005
7.9036e-09
0.011368006
1.3057637e-08
0.011368009
1.7155539e-08
2.3179696e-08
0.010097181
6.8393334e-05
0.010346961
0.00019901049
0.010662466
0.00028247186
0.010982746
0.00030866238
0.011290216
0.00030873616
0.011575226
0.00029874343
0.011828977
0.00028098846
0.012047789
0.00025694747
0.012233147
0.00023045368
0.012389043
0.00020504169
0.012519992
0.00018240736
0.012630295
0.00016276886
0.012723728
0.00014587558
0.012803467
0.00013138552
0.01287208
0.00011893566
0.012931572
0.00010814219
0.01298348
9.8636106e-05
0.013028972
9.0109962e-05
0.013068936
8.2329006e-05
0.013104044
7.5112375e-05
0.01313481
6.8318283e-05
0.013161632
6.1844874e-05
0.013184839
5.5631573e-05
0.013204719
4.9651939e-05
0.013221544
4.3904811e-05
0.01323558
3.8408846e-05
0.013247102
3.3198626e-05
0.013256393
2.8317938e-05
0.013263739
2.3811866e-05
0.013269428
1.9719544e-05
0.013273735
1.6069303e-05
0.013276917
1.2875445e-05
0.013279207
1.0136837e-05
0.01328081
7.8372396e-06
0.013281898
5.9472412e-06
0.01328261
4.4274463e-06
0.013283058
3.2320549e-06
0.013283326
2.3126142e-06
0.013283476
1.6211544e-06
0.013283553
1.1128278e-06
0.013283586
7.4757666e-07
0.013283595
4.911425e-07
0.013283592
3.1528018e-07
0.013283584
1.9753448e-07
0.013283576
1.2061736e-07
0.013283568
7.1639157e-08
0.013283562
4.1280759e-08
0.013283558
2.2991276e-08
0.013283555
1.2317206e-08
0.013283553
6.2998789e-09
0.013283551
3.0469422e-09
0.013283551
1.3720837e-09
0.01328355
5.6315858e-10
0.01328355
2.0436323e-10
0.01328355
7.465356e-11
0.01328355
3.4958401e-11
0.01328355
4.6077029e-11
0.01328355
4.5961197e-11
0.01328355
7.2458869e-11
0.01328355
5.6599347e-11
0.01328355
8.3787986e-11
0.01328355
4.7105724e-11
0.01328355
8.3430674e-11
0.01328355
2.9960898e-11
0.01328355
7.6083511e-11
0.01328355
1.6408487e-11
0.01328355
6.1201546e-11
0.01328355
1.7902798e-11
0.01328355
2.9854439e-11
0.01328355
4.3600206e-11
0.01328355
-2.1775238e-11
0.01328355
8.9490841e-11
0.01328355
-7.9283294e-11
0.01328355
1.294057e-10
0.01328355
-1.0475602e-10
0.01328355
1.1638806e-10
0.01328355
-5.2858814e-11
0.01328355
1.680121e-11
0.01328355
8.3459427e-11
0.01328355
-1.3045443e-10
0.01328355
2.1325948e-10
0.01328355
-2.0085447e-10
0.01328355
2.1386939e-10
0.01328355
-1.0421583e-10
0.01328355
7.8454413e-11
0.01328355
8.2038709e-11
0.01328355
-2.3002458e-11
0.01328355
1.6278886e-10
0.01328355
9.8720493e-11
0.01328355
1.490135e-10
0.01328355
3.7064768e-10
0.01328355
3.3446928e-10
0.01328355
7.2333637e-10
0.013283551
1.1489694e-09
0.013283552
1.7335775e-09
0.013283554
3.2335266e-09
0.013283558
4.6083296e-09
0.013283563
7.4009725e-09
0.013283571
9.4000319e-09
1.2560852e-08
0.010068393
5.0933411e-11
0.010267403
2.0799281e-10
0.010549875
3.2948135e-10
0.010858537
4.0445587e-10
0.011167273
4.5067168e-10
0.011466015
4.7776383e-10
0.011747003
4.8375675e-10
0.01200395
4.6115577e-10
0.012234403
4.2005727e-10
0.012439444
3.5972887e-10
0.012621851
2.9517189e-10
0.01278462
2.0237734e-10
0.012930496
1.038849e-10
0.013061881
-2.4075116e-12
0.013180817
-1.1611702e-10
0.013288959
-2.2771388e-10
0.013387596
-3.2286705e-10
0.013477707
-4.3522834e-10
0.013560036
-5.2364067e-10
0.013635149
-6.028387e-10
0.013703468
-6.3944439e-10
0.013765313
-6.5305839e-10
0.013820945
-6.3474029e-10
0.013870598
-5.985862e-10
0.013914503
-5.4709329e-10
0.013952912
-4.8792861e-10
0.013986111
-4.376366e-10
0.01401443
-4.0061653e-10
0.014038242
-3.9070428e-10
0.014057962
-3.9806037e-10
0.014074032
-4.2856471e-10
0.014086908
-4.6493125e-10
0.014097045
-5.1050435e-10
0.014104883
-5.433273e-10
0.01411083
-5.7011181e-10
0.014115258
-5.6819108e-10
0.014118491
-5.5528574e-10
0.014120804
-5.1031845e-10
0.014122425
-4.6184148e-10
0.014123539
-3.8649197e-10
0.014124287
-3.2037894e-10
0.014124778
-2.368255e-10
0.014125094
-1.7479314e-10
0.014125291
-1.0194699e-10
0.014125412
-5.6337775e-11
0.014125484
-4.9024374e-12
0.014125525
2.4564081e-11
0.014125548
5.6267885e-11
0.014125561
6.6927433e-11
0.014125567
8.952353e-11
0.01412557
8.8989631e-11
0.014125571
1.0487291e-10
0.014125572
9.6108095e-11
0.014125572
1.0686244e-10
0.014125572
9.5224589e-11
0.014125572
1.0285034e-10
0.014125572
8.819914e-11
0.014125572
9.2975852e-11
0.014125572
7.6920534e-11
0.014125572
8.0380212e-11
0.014125572
6.3505034e-11
0.014125572
6.666718e-11
0.014125572
5.0590934e-11
0.014125572
5.4165536e-11
0.014125572
3.860533e-11
0.014125572
4.3115052e-11
0.014125572
2.9289973e-11
0.014125572
3.4122673e-11
0.014125572
2.1584933e-11
0.014125572
2.7201103e-11
0.014125572
1.6103699e-11
0.014125572
2.1628739e-11
0.014125572
1.2259654e-11
0.014125572
1.7998764e-11
0.014125572
1.0047568e-11
0.014125572
1.6289757e-11
0.014125572
8.7787285e-12
0.014125572
1.6095001e-11
0.014125572
9.1302469e-12
0.014125572
1.7620686e-11
0.014125572
1.1414607e-11
0.014125572
2.0569384e-11
0.014125572
1.5808008e-11
0.014125572
2.7889949e-11
0.014125572
2.4278459e-11
0.014125572
3.9197078e-11
0.014125572
3.7332968e-11
0.014125572
5.7923755e-11
0.014125572
6.1363088e-11
0.014125572
8.5903654e-11
0.014125572
8.0831265e-11
0.014125573
9.1632219e-11
0.014125573
7.0084159e-11
0.014125574
7.2415897e-11
0.014125576
5.517369e-11
0.01412558
6.5478521e-11
0.014125584
6.3373043e-11
0.014125591
5.0004029e-11
0.0141256
1.2116694e-11
1.8571025e-11
0.010068393
-6.8393238e-05
0.010267403
-0.0001990101
0.010549875
-0.00028247124
0.010858537
-0.00030866162
0.011167273
-0.00030873532
0.011466016
-0.00029874254
0.011747003
-0.00028098757
0.01200395
-0.00025694661
0.012234403
-0.0002304529
0.012439445
-0.00020504101
0.012621852
-0.0001824068
0.01278462
-0.00016276845
0.012930495
-0.00014587534
0.013061881
-0.00013138546
0.013180817
-0.00011893577
0.013288959
-0.00010814247
0.013387596
-9.8636563e-05
0.013477706
-9.0110585e-05
0.013560035
-8.2329798e-05
0.013635148
-7.5113274e-05
0.013703467
-6.8319278e-05
0.013765313
-6.1845881e-05
0.013820945
-5.5632596e-05
0.013870597
-4.9652902e-05
0.013914502
-4.3905733e-05
0.013952911
-3.8409685e-05
0.013986111
-3.3199423e-05
0.014014429
-2.8318699e-05
0.014038241
-2.381264e-05
0.014057961
-1.972036e-05
0.014074031
-1.6070181e-05
0.014086907
-1.287641e-05
0.014097044
-1.0137868e-05
0.014104882
-7.8383406e-06
0.01411083
-5.9483563e-06
0.014115258
-4.4285627e-06
0.01411849
-3.2331054e-06
0.014120803
-2.3135893e-06
0.014122425
-1.6219983e-06
0.014123538
-1.1135482e-06
0.014124286
-7.4814026e-07
0.014124777
-4.9157618e-07
0.014125093
-3.155699e-07
0.014125291
-1.9772058e-07
0.014125411
-1.2069488e-07
0.014125483
-7.1651039e-08
0.014125525
-4.1219812e-08
0.014125548
-2.2900294e-08
0.01412556
-1.218435e-08
0.014125566
-6.1546593e-09
0.014125569
-2.8761953e-09
0.014125571
-1.2015566e-09
0.014125571
-3.8131783e-10
0.014125571
-3.1280991e-11
0.014125572
1.0649556e-10
0.014125572
1.306857e-10
0.014125572
1.2330108e-10
0.014125572
1.0229558e-10
0.014125572
7.7369742e-11
0.014125572
6.9536625e-11
0.014125572
4.1639301e-11
0.014125572
5.519422e-11
0.014125572
1.8940565e-11
0.014125572
5.0775488e-11
0.014125572
3.7151923e-12
0.014125572
4.5521563e-11
0.014125572
2.746943e-12
0.014125572
2.830256e-11
0.014125572
1.9430403e-11
0.014125572
-8.1767774e-12
0.014125572
6.1789011e-11
0.014125572
-6.4871312e-11
0.014125572
1.1302489e-10
0.014125572
-1.1102031e-10
0.014125572
1.3524665e-10
0.014125572
-1.0040406e-10
0.014125572
8.022874e-11
0.014125572
9.754749e-13
0.014125572
-5.6316552e-11
0.014125572
1.5151014e-10
0.014125572
-1.7978997e-10
0.014125572
2.2518683e-10
0.014125572
-1.707918e-10
0.014125572
1.4207982e-10
0.014125572
-2.0448825e-11
0.014125572
-2.1160311e-11
0.014125572
1.064369e-10
0.014125572
-7.053844e-11
0.014125572
2.5438019e-11
0.014125572
2.5434777e-12
0.014125572
-2.1015519e-10
0.014125573
-1.7848915e-10
0.014125573
-5.7948896e-10
0.014125574
-1.0337549e-09
0.014125576
-1.6150228e-09
0.01412558
-3.1104773e-09
0.014125584
-4.493883e-09
0.014125591
-7.3290216e-09
0.0141256
-9.3355934e-09
-1.2509592e-08
0.010097181
-0.00016557472
0.010346961
-0.00044878952
0.010662466
-0.0005979769
0.010982747
-0.00062894197
0.011290216
-0.00061620465
0.011575226
-0.00058375339
0.011828977
-0.00053473869
0.012047789
-0.0004757584
0.012233147
-0.00041581135
0.012389043
-0.00036093721
0.012519993
-0.00031335651
0.012630295
-0.00027307087
0.012723728
-0.00023930839
0.012803467
-0.00021112452
0.01287208
-0.00018754821
0.012931571
-0.00016763372
0.012983479
-0.00015054392
0.013028971
-0.00013560232
0.013068935
-0.00012229298
0.013104043
-0.00011022107
0.013134808
-9.9084213e-05
0.01316163
-8.8667674e-05
0.013184837
-7.8839282e-05
0.013204718
-6.9532923e-05
0.013221542
-6.0729638e-05
0.013235578
-5.2445655e-05
0.0132471
-4.4721463e-05
0.013256391
-3.7609365e-05
0.013263738
-3.1159417e-05
0.013269427
-2.5409077e-05
0.013273733
-2.0376648e-05
0.013276915
-1.6058417e-05
0.013279206
-1.2428522e-05
0.013280809
-9.4412881e-06
0.013281896
-7.0357079e-06
0.013282608
-5.1407267e-06
0.013283056
-3.6809681e-06
0.013283324
-2.5815605e-06
0.013283474
-1.7722685e-06
0.013283551
-1.190131e-06
0.013283584
-7.8110819e-07
0.013283593
-5.0049827e-07
0.01328359
-3.1265337e-07
0.013283583
-1.9005747e-07
0.013283574
-1.1213527e-07
0.013283567
-6.3983613e-08
0.013283561
-3.5110724e-08
0.013283556
-1.8377666e-08
0.013283553
-9.0384141e-09
0.013283551
-4.0677182e-09
0.01328355
-1.5652111e-09
0.01328355
-4.1826726e-10
0.013283549
5.9207059e-11
0.013283549
1.9787494e-10
0.013283549
2.0202945e-10
0.013283549
1.6086393e-10
0.013283549
1.095965e-10
0.013283549
7.8806849e-11
0.013283549
3.8151679e-11
0.013283549
4.1171894e-11
0.013283549
1.4821789e-12
0.013283549
3.5669239e-11
0.013283549
-1.8193553e-11
0.013283549
4.1942116e-11
0.013283549
-3.1237756e-11
0.013283549
4.7076776e-11
0.013283549
-3.1398062e-11
0.013283549
3.4985498e-11
0.013283549
-7.7860016e-12
0.013283549
-6.4338656e-12
0.013283549
5.0830514e-11
0.013283549
-8.1308894e-11
0.013283549
1.3156484e-10
0.01328355
-1.5680695e-10
0.013283549
1.8557934e-10
0.01328355
-1.701579e-10
0.013283549
1.4385392e-10
0.01328355
-6.1755275e-11
0.013283549
-2.1277098e-11
0.013283549
1.4186184e-10
0.01328355
-2.1609281e-10
0.013283549
2.9021662e-10
0.01328355
-2.6996938e-10
0.013283549
2.3636406e-10
0.01328355
-1.2482618e-10
0.01328355
4.0145437e-11
0.01328355
3.7581501e-11
0.01328355
-7.771413e-11
0.01328355
-4.2460854e-11
0.01328355
-7.7485751e-11
0.01328355
-3.7945773e-10
0.01328355
-3.7256244e-10
0.01328355
-1.0055945e-09
0.013283551
-1.6518863e-09
0.013283552
-2.7836644e-09
0.013283555
-5.1810576e-09
0.013283558
-7.8064504e-09
0.013283563
-1.295806e-08
0.013283571
-1.7104059e-08
-2.3127623e-08
0.010188704
-0.00035427907
0.010530486
-0.00079057157
0.010851452
-0.00091894278
0.011124172
-0.00090166242
0.011350576
-0.00084260884
0.011524477
-0.00075765467
0.011646316
-0.00065657774
0.011724135
-0.0005535778
0.011767976
-0.00045965184
0.011786618
-0.00037958001
0.011787101
-0.00031383974
0.011775055
-0.00026102496
0.011754877
-0.00021913057
0.011729824
-0.00018607121
0.01170218
-0.00015990399
0.011673482
-0.00013893546
0.011644761
-0.00012182316
0.011616694
-0.00010753477
0.011589708
-9.5306861e-05
0.011564068
-8.4580715e-05
0.011539937
-7.4952455e-05
0.011517417
-6.6148251e-05
0.01149658
-5.8001662e-05
0.011477473
-5.0425863e-05
0.01146013
-4.3386798e-05
0.011444569
-3.6884891e-05
0.011430788
-3.0940129e-05
0.011418757
-2.5578462e-05
0.011408418
-2.0819907e-05
0.01139968
-1.6671011e-05
0.011392425
-1.3121842e-05
0.011386513
-1.0145721e-05
0.011381786
-7.7013071e-06
0.01137808
-5.7357875e-06
0.011375234
-4.1892482e-06
0.011373092
-2.9988123e-06
0.011371514
-2.1027446e-06
0.011370375
-1.4432952e-06
0.011369572
-9.6903287e-07
0.011369018
-6.3579871e-07
0.011368644
-4.0720823e-07
0.011368398
-2.5416485e-07
0.01136824
-1.5431589e-07
0.011368141
-9.0859295e-08
0.01136808
-5.1699531e-08
0.011368045
-2.8236276e-08
0.011368024
-1.4685849e-08
0.011368013
-7.1399936e-09
0.011368008
-3.1564078e-09
0.011368005
-1.1635732e-09
0.011368004
-2.6441515e-10
0.011368003
6.9346846e-11
0.011368003
1.5939716e-10
0.011368003
1.6358768e-10
0.011368003
1.0735771e-10
0.011368004
7.9436374e-11
0.011368004
3.0970722e-11
0.011368004
2.6901602e-11
0.011368004
-9.0201163e-12
0.011368004
1.275757e-11
0.011368004
-2.5485104e-11
0.011368004
1.9043088e-11
0.011368004
-3.6067696e-11
0.011368004
3.1233024e-11
0.011368004
-4.4579436e-11
0.011368004
4.256717e-11
0.011368004
-4.8327744e-11
0.011368004
4.1898054e-11
0.011368004
-3.4994417e-11
0.011368004
1.8051174e-11
0.011368004
6.3061621e-12
0.011368004
-3.7015569e-11
0.011368004
7.2212189e-11
0.011368004
-1.0339766e-10
0.011368004
1.3294282e-10
0.011368004
-1.4293138e-10
0.011368004
1.3911119e-10
0.011368004
-9.8212434e-11
0.011368004
4.7949146e-11
0.011368004
3.2768637e-11
0.011368004
-1.0067808e-10
0.011368004
1.7573306e-10
0.011368004
-1.9704611e-10
0.011368004
2.0080004e-10
0.011368004
-1.5761834e-10
0.011368004
1.0812089e-10
0.011368004
-8.2805728e-11
0.011368004
1.6485619e-11
0.011368004
-1.467655e-10
0.011368004
-5.2173646e-11
0.011368004
-4.2593701e-10
0.011368004
-3.6824464e-10
0.011368004
-1.0270002e-09
0.011368004
-1.5351665e-09
0.011368004
-2.8608075e-09
0.011368004
-5.0573854e-09
0.011368005
-8.457475e-09
0.011368006
-1.4410778e-08
0.011368009
-2.0620625e-08
-2.8682006e-08
0.010339525
-0.00069380426
0.010570755
-0.0010218018
0.010606305
-0.00095449235
0.010547579
-0.00084293707
0.010422327
-0.00071735711
0.010244378
-0.00057970537
0.010039463
-0.00045166309
0.0098288193
-0.00034293426
0.0096252707
-0.0002561035
0.0094355303
-0.00018983982
0.0092627953
-0.00014110494
0.0091081109
-0.00010634064
0.0089710536
-8.2073334e-05
0.0088502828
-6.5300302e-05
0.0087440367
-5.3657699e-05
0.0086505097
-4.5408158e-05
0.0085680306
-3.9343703e-05
0.0084951533
-3.4657111e-05
0.0084306741
-3.0827562e-05
0.0083736203
-2.7526717e-05
0.0083232209
-2.4553238e-05
0.008278865
-2.1792509e-05
0.0082400528
-1.9189779e-05
0.0082063541
-1.6727473e-05
0.0081773757
-1.4408733e-05
0.0081527375
-1.2246856e-05
0.0081320566
-1.0259296e-05
0.0081149407
-8.4624317e-06
0.0081009886
-6.8676795e-06
0.0080897975
-5.4796677e-06
0.0080809722
-4.29615e-06
0.0080741347
-3.307939e-06
0.0080689339
-2.5001432e-06
0.0080650522
-1.8539614e-06
0.0080622113
-1.3481578e-06
0.0080601735
-9.6089991e-07
0.0080587417
-6.7088254e-07
0.008057757
-4.5855891e-07
0.0080570946
-3.0658678e-07
0.0080566591
-2.0033455e-07
0.0080563797
-1.2776122e-07
0.0080562049
-7.9411504e-08
0.0080560987
-4.7985936e-08
0.008056036
-2.8119968e-08
0.0080560003
-1.5899678e-08
0.0080559808
-8.6295314e-09
0.0080559707
-4.4415229e-09
0.0080559658
-2.1353386e-09
0.0080559637
-9.2172668e-10
0.0080559629
-3.3186487e-10
0.0080559628
-6.3344916e-11
0.0080559629
2.4303568e-11
0.0080559631
5.2708088e-11
0.0080559633
4.1406229e-11
0.0080559634
2.9720727e-11
0.0080559635
1.4187025e-11
0.0080559636
3.5821183e-12
0.0080559636
-1.2912372e-12
0.0080559637
-6.7900679e-12
0.0080559637
-3.4225737e-12
0.0080559637
-1.1234422e-11
0.0080559637
1.1258995e-12
0.0080559637
-1.4437267e-11
0.0080559637
7.5972759e-12
0.0080559637
-1.7986982e-11
0.0080559637
1.4114352e-11
0.0080559637
-2.0921078e-11
0.0080559637
1.7164059e-11
0.0080559637
-1.7989033e-11
0.0080559637
1.0213562e-11
0.0080559638
-3.9670164e-12
0.0080559637
-8.9131696e-12
0.0080559638
2.4035723e-11
0.0080559637
-4.3255052e-11
0.0080559638
6.0166627e-11
0.0080559637
-7.2418248e-11
0.0080559638
7.9136588e-11
0.0080559637
-7.1395504e-11
0.0080559637
5.7159906e-11
0.0080559638
-2.7866304e-11
0.0080559637
1.0254211e-12
0.0080559638
3.1161726e-11
0.0080559637
-5.0808906e-11
0.0080559638
6.4526009e-11
0.0080559637
-6.4153134e-11
0.0080559638
5.5873938e-11
0.0080559638
-6.4996932e-11
0.0080559638
2.8561018e-11
0.0080559637
-1.1798657e-10
0.0080559636
-2.4708183e-11
0.0080559634
-2.5926873e-10
0.0080559632
-1.9016366e-10
0.0080559626
-5.64594e-10
0.0080559619
-7.4957222e-10
0.0080559609
-1.6049448e-09
0.0080559588
-2.7721402e-09
0.0080559555
-5.2521002e-09
0.0080559498
-9.0700011e-09
0.0080559445
-1.5668947e-08
-2.2870027e-08
0.0093061957
0.0082843938
0.0073299014
0.0064869643
0.0057696071
0.0051899016
0.0047382384
0.0043953041
0.0041392005
0.0039493606
0.0038082556
0.003701915
0.0036198417
0.0035545415
0.003500884
0.003455476
0.0034161325
0.0033814755
0.003350648
0.0033231212
0.0032985679
0.0032767751
0.0032575852
0.0032408574
0.0032264486
0.0032142016
0.0032039423
0.00319548
0.0031886125
0.003183133
0.003178837
0.0031755293
0.0031730293
0.0031711754
0.0031698273
0.0031688665
0.0031681956
0.003167737
0.0031674304
0.0031672301
0.0031671023
0.0031670229
0.0031669749
0.0031669469
0.003166931
0.0031669224
0.003166918
0.0031669159
0.0031669151
0.0031669148
0.0031669147
0.0031669148
0.0031669149
0.003166915
0.003166915
0.003166915
0.003166915
0.0031669151
0.0031669151
0.0031669151
0.0031669151
0.0031669151
0.003166915
0.0031669151
0.003166915
0.0031669151
0.003166915
0.0031669151
0.003166915
0.0031669151
0.003166915
0.003166915
0.0031669151
0.003166915
0.0031669151
0.003166915
0.0031669151
0.003166915
0.0031669151
0.003166915
0.003166915
0.0031669151
0.003166915
0.0031669151
0.003166915
0.0031669151
0.003166915
0.0031669151
0.0031669149
0.0031669149
0.0031669146
0.0031669143
0.0031669138
0.0031669131
0.0031669116
0.0031669089
0.0031669035
0.0031668942
0.0031668785
)
;

boundaryField
{
    top
    {
        type            calculated;
        value           uniform 0;
    }
    inlet
    {
        type            calculated;
        value           nonuniform List<scalar> 10(-0.01 -0.01 -0.01 -0.01 -0.01 -0.01 -0.01 -0.01 -0.01 -0.01);
    }
    outlet
    {
        type            calculated;
        value           nonuniform List<scalar> 10(0.0031668554 0.0080559382 0.011368014 0.013283581 0.014125613 0.014125613 0.013283581 0.011368015 0.0080559386 0.0031668556);
    }
    bottom
    {
        type            calculated;
        value           uniform 0;
    }
    back
    {
        type            empty;
        value           nonuniform 0();
    }
    front
    {
        type            empty;
        value           nonuniform 0();
    }
}


// ************************************************************************* //
