/*--------------------------------*- C++ -*----------------------------------*\
| =========                 |                                                 |
| \\      /  F ield         | OpenFOAM: The Open Source CFD Toolbox           |
|  \\    /   O peration     | Version:  v1812                                 |
|   \\  /    A nd           | Web:      www.OpenFOAM.com                      |
|    \\/     M anipulation  |                                                 |
\*---------------------------------------------------------------------------*/
FoamFile
{
    version     2.0;
    format      ascii;
    class       volVectorField;
    location    "3";
    object      U;
}
// * * * * * * * * * * * * * * * * * * * * * * * * * * * * * * * * * * * * * //

dimensions      [0 1 -1 0 0 0 0];


internalField   nonuniform List<vector> 
1000
(
(0.9189084 0.035821918 0)
(0.86271383 0.062195575 0)
(0.78705981 0.06251004 0)
(0.69536055 0.054550087 0)
(0.61089854 0.044530912 0)
(0.54411833 0.034014774 0)
(0.49343485 0.024184831 0)
(0.45480275 0.016139335 0)
(0.42545931 0.010259616 0)
(0.40349261 0.0062965952 0)
(0.38718592 0.0037860131 0)
(0.37500403 0.0022919074 0)
(0.36572394 0.001467132 0)
(0.35845339 0.001051993 0)
(0.35257282 0.00086481312 0)
(0.34766576 0.0007896742 0)
(0.3434599 0.00076031111 0)
(0.33978156 0.00074246866 0)
(0.3365222 0.00072010935 0)
(0.33361488 0.00068712107 0)
(0.33101854 0.00064289891 0)
(0.32870735 0.00058969111 0)
(0.32666353 0.00053071654 0)
(0.32487262 0.00046908242 0)
(0.32332066 0.00040740793 0)
(0.32199273 0.00034783227 0)
(0.32087227 0.00029202212 0)
(0.31994094 0.00024114994 0)
(0.31917901 0.00019589953 0)
(0.31856594 0.00015653104 0)
(0.31808107 0.00012297286 0)
(0.31770436 9.493966e-05 0)
(0.31741699 7.1996506e-05 0)
(0.31720184 5.3601291e-05 0)
(0.31704383 3.9157966e-05 0)
(0.31693006 2.8053419e-05 0)
(0.31684978 1.9698479e-05 0)
(0.31679431 1.3546541e-05 0)
(0.31675679 9.1170775e-06 0)
(0.31673198 5.9978785e-06 0)
(0.31671594 3.8531904e-06 0)
(0.31670585 2.4126872e-06 0)
(0.31669965 1.4700284e-06 0)
(0.31669596 8.6847089e-07 0)
(0.31669383 4.9624202e-07 0)
(0.31669265 2.7207271e-07 0)
(0.31669202 1.4234246e-07 0)
(0.31669171 6.9554788e-08 0)
(0.31669156 3.1261221e-08 0)
(0.31669151 1.1651087e-08 0)
(0.31669149 3.2268056e-09 0)
(0.31669149 5.2601989e-11 0)
(0.3166915 -4.9270963e-10 0)
(0.3166915 -7.1677266e-10 0)
(0.31669151 -2.6271316e-11 0)
(0.31669151 -5.7721927e-11 0)
(0.31669151 6.6964147e-10 0)
(0.31669151 3.7246964e-10 0)
(0.31669151 9.0820468e-10 0)
(0.31669151 2.7677418e-10 0)
(0.31669151 9.518395e-10 0)
(0.31669151 -4.6267899e-11 0)
(0.3166915 9.8705616e-10 0)
(0.31669151 -3.9700384e-10 0)
(0.3166915 1.1490456e-09 0)
(0.31669151 -7.7886221e-10 0)
(0.3166915 1.2891345e-09 0)
(0.31669151 -1.0299756e-09 0)
(0.31669149 1.3036913e-09 0)
(0.31669151 -9.426496e-10 0)
(0.31669149 8.7146335e-10 0)
(0.31669152 -2.8022931e-10 0)
(0.31669148 -1.115223e-10 0)
(0.31669152 9.6948954e-10 0)
(0.31669148 -1.5548275e-09 0)
(0.31669153 2.3361885e-09 0)
(0.31669147 -2.6916783e-09 0)
(0.31669153 3.0484808e-09 0)
(0.31669147 -2.7225963e-09 0)
(0.31669153 2.4597421e-09 0)
(0.31669147 -1.2472859e-09 0)
(0.31669153 7.1304101e-10 0)
(0.31669146 5.300745e-10 0)
(0.31669154 -4.7761979e-10 0)
(0.31669146 2.1926138e-09 0)
(0.31669154 -9.5043056e-10 0)
(0.31669145 4.2544621e-09 0)
(0.31669154 -6.3475606e-10 0)
(0.31669144 9.3904295e-09 0)
(0.31669152 1.9768235e-09 0)
(0.31669142 1.9940662e-08 0)
(0.31669149 1.5383395e-08 0)
(0.31669135 4.5462511e-08 0)
(0.31669141 6.2512274e-08 0)
(0.31669115 1.3148874e-07 0)
(0.31669114 2.1795881e-07 0)
(0.31669051 4.0569606e-07 0)
(0.31669017 6.7118535e-07 0)
(0.31668818 1.127923e-06 0)
(0.31668677 1.5482834e-06 0)
(1.0016584 0.053819427 0)
(1.0359761 0.10128436 0)
(1.0597199 0.11073636 0)
(1.0628945 0.10592146 0)
(1.051557 0.09622749 0)
(1.0340537 0.083931749 0)
(1.0142815 0.070323292 0)
(0.99361178 0.056975148 0)
(0.97293534 0.045097852 0)
(0.95312371 0.035223375 0)
(0.93482136 0.027383633 0)
(0.91833192 0.021361076 0)
(0.90369165 0.016844807 0)
(0.89078804 0.01351129 0)
(0.87944551 0.011064904 0)
(0.86947504 0.0092572161 0)
(0.86069749 0.0078936117 0)
(0.85295365 0.0068317982 0)
(0.84610836 0.0059726193 0)
(0.84005135 0.0052483306 0)
(0.83469539 0.004613837 0)
(0.82997202 0.0040412573 0)
(0.82582628 0.0035153809 0)
(0.82221215 0.0030292499 0)
(0.81908883 0.0025806681 0)
(0.81641801 0.0021700131 0)
(0.81416178 0.001798796 0)
(0.81228143 0.0014685254 0)
(0.81073724 0.0011798799 0)
(0.80948887 0.00093232022 0)
(0.80849628 0.00072408197 0)
(0.80772069 0.00055239232 0)
(0.80712554 0.0004137205 0)
(0.80667732 0.00030404461 0)
(0.80634622 0.00021913397 0)
(0.80610645 0.00015480346 0)
(0.80593633 0.00010712473 0)
(0.80581815 7.2565764e-05 0)
(0.80573782 4.8079388e-05 0)
(0.80568444 3.1125617e-05 0)
(0.8056498 1.9663148e-05 0)
(0.80562787 1.2100022e-05 0)
(0.80561435 7.2370714e-06 0)
(0.80560626 4.1929972e-06 0)
(0.80560157 2.3431328e-06 0)
(0.80559896 1.253941e-06 0)
(0.80559756 6.3667012e-07 0)
(0.80559685 3.0080023e-07 0)
(0.80559652 1.2798718e-07 0)
(0.80559639 4.4700207e-08 0)
(0.80559635 9.3472626e-09 0)
(0.80559635 -4.276024e-09 0)
(0.80559636 -6.4317936e-09 0)
(0.80559637 -5.0679919e-09 0)
(0.80559638 -1.8822047e-09 0)
(0.80559638 -2.0562212e-10 0)
(0.80559638 2.1055113e-09 0)
(0.80559639 1.9695001e-09 0)
(0.80559638 3.5288422e-09 0)
(0.80559639 1.8890017e-09 0)
(0.80559638 3.81009e-09 0)
(0.80559638 7.5786517e-10 0)
(0.80559637 3.9239518e-09 0)
(0.80559639 -6.6936394e-10 0)
(0.80559636 4.2675514e-09 0)
(0.80559639 -2.0095422e-09 0)
(0.80559634 4.4511713e-09 0)
(0.80559641 -2.6195721e-09 0)
(0.80559632 3.7948369e-09 0)
(0.80559642 -1.6299416e-09 0)
(0.8055963 1.2781986e-09 0)
(0.80559644 1.6877991e-09 0)
(0.80559629 -3.364995e-09 0)
(0.80559645 6.8893684e-09 0)
(0.80559627 -8.8250297e-09 0)
(0.80559646 1.1467191e-08 0)
(0.80559627 -1.1637329e-08 0)
(0.80559646 1.142567e-08 0)
(0.80559627 -8.0595213e-09 0)
(0.80559646 4.5448268e-09 0)
(0.80559627 1.8897994e-09 0)
(0.80559646 -6.051332e-09 0)
(0.80559627 1.1967204e-08 0)
(0.80559646 -1.2598022e-08 0)
(0.80559626 1.636841e-08 0)
(0.80559646 -1.0865652e-08 0)
(0.80559626 1.5664684e-08 0)
(0.80559646 -3.669995e-09 0)
(0.80559625 1.9996797e-08 0)
(0.80559645 7.1098264e-09 0)
(0.8055962 3.9149841e-08 0)
(0.80559646 3.4386519e-08 0)
(0.80559608 8.9048473e-08 0)
(0.80559647 1.2200824e-07 0)
(0.80559579 2.4604803e-07 0)
(0.80559642 4.1517597e-07 0)
(0.80559503 7.3003923e-07 0)
(0.80559604 1.2337758e-06 0)
(0.80559261 1.8780797e-06 0)
(0.80559524 2.8533102e-06 0)
(1.0014245 0.026824826 0)
(1.0291271 0.062791276 0)
(1.0654289 0.077736185 0)
(1.0989615 0.080596455 0)
(1.1253137 0.078283718 0)
(1.1450514 0.073151077 0)
(1.1594838 0.066106748 0)
(1.1694261 0.058155133 0)
(1.1755326 0.050285691 0)
(1.1785713 0.04313391 0)
(1.179354 0.036948846 0)
(1.1785905 0.031736503 0)
(1.1768264 0.027398104 0)
(1.1744519 0.023806031 0)
(1.1717355 0.020831363 0)
(1.1688594 0.018351967 0)
(1.1659469 0.016258522 0)
(1.1630806 0.014461252 0)
(1.160312 0.012890739 0)
(1.1576713 0.011493356 0)
(1.1551769 0.01022752 0)
(1.1528411 0.0090629396 0)
(1.1506719 0.0079801333 0)
(1.1486743 0.0069684469 0)
(1.1468519 0.006023557 0)
(1.1452068 0.0051455564 0)
(1.1437399 0.0043374082 0)
(1.1424499 0.0036032889 0)
(1.1413324 0.0029469528 0)
(1.14038 0.0023705487 0)
(1.1395822 0.0018740132 0)
(1.138926 0.0014549021 0)
(1.1383964 0.0011085521 0)
(1.1379773 0.00082848899 0)
(1.1376523 0.00060699144 0)
(1.1374053 0.0004357108 0)
(1.1372216 0.00030624908 0)
(1.1370877 0.00021063129 0)
(1.1369923 0.00014164644 0)
(1.1369258 9.3048759e-05 0)
(1.1368805 5.9637175e-05 0)
(1.1368503 3.7233975e-05 0)
(1.1368307 2.2598057e-05 0)
(1.1368183 1.3293755e-05 0)
(1.1368106 7.5486804e-06 0)
(1.1368061 4.1115064e-06 0)
(1.1368034 2.1272425e-06 0)
(1.1368019 1.0276672e-06 0)
(1.1368011 4.4851944e-07 0)
(1.1368007 1.6289799e-07 0)
(1.1368005 3.5119124e-08 0)
(1.1368004 -1.3960044e-08 0)
(1.1368004 -2.4448676e-08 0)
(1.1368004 -2.1033694e-08 0)
(1.1368004 -1.2826925e-08 0)
(1.1368004 -6.2165979e-09 0)
(1.1368004 5.5579456e-11 0)
(1.1368004 2.0121357e-09 0)
(1.1368004 5.6586981e-09 0)
(1.1368004 3.806128e-09 0)
(1.1368004 7.2501101e-09 0)
(1.1368004 2.4737446e-09 0)
(1.1368004 7.5862786e-09 0)
(1.1368005 1.8001604e-10 0)
(1.1368004 7.6740076e-09 0)
(1.1368005 -1.7250862e-09 0)
(1.1368004 7.0558838e-09 0)
(1.1368005 -1.870481e-09 0)
(1.1368003 4.3992634e-09 0)
(1.1368005 1.2002811e-09 0)
(1.1368003 -1.576505e-09 0)
(1.1368006 8.0357059e-09 0)
(1.1368002 -1.0285344e-08 0)
(1.1368006 1.6300616e-08 0)
(1.1368002 -1.7524141e-08 0)
(1.1368006 1.9765095e-08 0)
(1.1368003 -1.589332e-08 0)
(1.1368006 1.1418658e-08 0)
(1.1368003 -1.0190337e-09 0)
(1.1368005 -8.2025891e-09 0)
(1.1368003 2.0425803e-08 0)
(1.1368005 -2.5988513e-08 0)
(1.1368003 3.1505292e-08 0)
(1.1368005 -2.478065e-08 0)
(1.1368003 2.1604431e-08 0)
(1.1368005 -5.0036601e-09 0)
(1.1368003 7.0339544e-09 0)
(1.1368005 1.1202844e-08 0)
(1.1368002 1.438593e-08 0)
(1.1368006 1.6626324e-08 0)
(1.1368002 4.8374144e-08 0)
(1.1368007 4.4037306e-08 0)
(1.1368 1.0706803e-07 0)
(1.1368009 1.598469e-07 0)
(1.1367997 2.7453073e-07 0)
(1.1368012 5.0703159e-07 0)
(1.1367993 7.9019075e-07 0)
(1.1368017 1.3594292e-06 0)
(1.1367977 1.8770493e-06 0)
(1.136803 2.7283115e-06 0)
(1.0007347 0.01181469 0)
(1.0178471 0.03086087 0)
(1.046216 0.041434182 0)
(1.079901 0.045192974 0)
(1.1132646 0.045501214 0)
(1.1437791 0.04407811 0)
(1.1708899 0.041436392 0)
(1.194562 0.037968237 0)
(1.2148478 0.034187064 0)
(1.23195 0.030523268 0)
(1.2462444 0.02720167 0)
(1.2581943 0.024283134 0)
(1.2682522 0.021750268 0)
(1.2767992 0.019561864 0)
(1.2841297 0.017670583 0)
(1.290466 0.016025205 0)
(1.2959807 0.014575029 0)
(1.3008094 0.013276321 0)
(1.3050539 0.012094911 0)
(1.3087877 0.011004059 0)
(1.3120662 0.0099822654 0)
(1.3149337 0.0090134567 0)
(1.3174263 0.0080876205 0)
(1.3195739 0.0072000897 0)
(1.3214029 0.0063501818 0)
(1.3229391 0.0055402386 0)
(1.3242097 0.0047749568 0)
(1.3252426 0.0040604415 0)
(1.3260664 0.0034030142 0)
(1.32671 0.0028081146 0)
(1.3272016 0.002279534 0)
(1.3275683 0.0018189533 0)
(1.3278349 0.0014257634 0)
(1.3280233 0.0010971478 0)
(1.3281525 0.00082840378 0)
(1.328238 0.00061342786 0)
(1.3282925 0.00044526951 0)
(1.3283255 0.00031667466 0)
(1.3283444 0.0002205529 0)
(1.3283543 0.00015033904 0)
(1.3283587 0.0001002289 0)
(1.3283601 6.5299629e-05 0)
(1.32836 4.1529825e-05 0)
(1.3283592 2.5747511e-05 0)
(1.3283582 1.5532212e-05 0)
(1.3283573 9.0936684e-06 0)
(1.3283566 5.1489151e-06 0)
(1.328356 2.8045558e-06 0)
(1.3283556 1.4584187e-06 0)
(1.3283554 7.1460849e-07 0)
(1.3283552 3.229491e-07 0)
(1.3283551 1.2925281e-07 0)
(1.328355 4.1843339e-08 0)
(1.328355 6.5330861e-09 0)
(1.328355 -3.0775739e-09 0)
(1.328355 -3.9742521e-09 0)
(1.328355 5.9693895e-11 0)
(1.328355 1.6937702e-09 0)
(1.328355 5.9708058e-09 0)
(1.328355 4.5446838e-09 0)
(1.3283549 8.5167954e-09 0)
(1.328355 3.9262307e-09 0)
(1.3283549 9.0481748e-09 0)
(1.328355 1.9624517e-09 0)
(1.3283549 8.6363615e-09 0)
(1.3283551 3.7784631e-10 0)
(1.3283549 7.0211704e-09 0)
(1.3283551 9.0677676e-10 0)
(1.3283548 3.117711e-09 0)
(1.3283551 4.7054515e-09 0)
(1.3283548 -3.7360198e-09 0)
(1.3283552 1.1528053e-08 0)
(1.3283547 -1.1799819e-08 0)
(1.3283552 1.7535281e-08 0)
(1.3283547 -1.5575427e-08 0)
(1.3283552 1.601435e-08 0)
(1.3283548 -8.3708463e-09 0)
(1.3283551 2.2473237e-09 0)
(1.3283549 1.016823e-08 0)
(1.328355 -1.8087888e-08 0)
(1.3283549 2.8496307e-08 0)
(1.328355 -2.8312923e-08 0)
(1.3283549 2.8533589e-08 0)
(1.328355 -1.5204075e-08 0)
(1.3283549 9.331892e-09 0)
(1.3283551 8.5263806e-09 0)
(1.3283548 -3.5498379e-09 0)
(1.3283551 1.7938791e-08 0)
(1.3283548 1.1889336e-08 0)
(1.3283552 1.4106424e-08 0)
(1.3283546 4.5137865e-08 0)
(1.3283554 3.7909119e-08 0)
(1.3283545 8.5690544e-08 0)
(1.3283557 1.4042145e-07 0)
(1.3283543 2.1264215e-07 0)
(1.3283563 4.1204827e-07 0)
(1.3283541 6.0549566e-07 0)
(1.3283573 1.0144788e-06 0)
(1.3283533 1.3448343e-06 0)
(1.3283598 1.8621264e-06 0)
(1.0005903 0.0034629061 0)
(1.0136863 0.0093660116 0)
(1.0370279 0.013046738 0)
(1.0674194 0.014563062 0)
(1.1000295 0.014854122 0)
(1.1316394 0.014564204 0)
(1.1610695 0.013887021 0)
(1.1880592 0.012917215 0)
(1.2125072 0.011803268 0)
(1.2343739 0.010691273 0)
(1.2537753 0.009664837 0)
(1.2709794 0.0087506508 0)
(1.286315 0.0079470524 0)
(1.3000849 0.007243749 0)
(1.3125273 0.006628028 0)
(1.3238218 0.0060850949 0)
(1.3341111 0.0055994507 0)
(1.3435104 0.0051574531 0)
(1.3521067 0.0047485484 0)
(1.3599614 0.0043645813 0)
(1.3671193 0.0039989741 0)
(1.3736165 0.003646816 0)
(1.3794823 0.0033051858 0)
(1.3847406 0.0029729463 0)
(1.3894128 0.0026502859 0)
(1.3935217 0.0023384256 0)
(1.3970939 0.0020394692 0)
(1.4001603 0.001756131 0)
(1.4027561 0.0014913367 0)
(1.4049208 0.0012478128 0)
(1.4066976 0.00102777 0)
(1.4081319 0.0008326773 0)
(1.4092697 0.00066312605 0)
(1.4101562 0.00051879777 0)
(1.4108343 0.00039852676 0)
(1.4113431 0.00030045338 0)
(1.4117175 0.0002222161 0)
(1.4119875 0.00016117141 0)
(1.4121784 0.00011458971 0)
(1.4123105 7.9832851e-05 0)
(1.4124 5.4475066e-05 0)
(1.4124593 3.6390258e-05 0)
(1.4124977 2.3782662e-05 0)
(1.4125219 1.5195736e-05 0)
(1.4125369 9.4823258e-06 0)
(1.4125459 5.772677e-06 0)
(1.4125511 3.4222872e-06 0)
(1.4125541 1.9727138e-06 0)
(1.4125557 1.10222e-06 0)
(1.4125565 5.9588262e-07 0)
(1.4125569 3.1031642e-07 0)
(1.4125571 1.5601774e-07 0)
(1.4125572 7.52072e-08 0)
(1.4125572 3.6135531e-08 0)
(1.4125572 1.8176714e-08 0)
(1.4125572 1.0950129e-08 0)
(1.4125572 8.4493766e-09 0)
(1.4125572 7.5521861e-09 0)
(1.4125572 7.9063217e-09 0)
(1.4125572 7.0514004e-09 0)
(1.4125572 7.8232242e-09 0)
(1.4125572 5.9183465e-09 0)
(1.4125571 7.2255728e-09 0)
(1.4125572 4.4220949e-09 0)
(1.4125571 6.2042136e-09 0)
(1.4125573 3.1720208e-09 0)
(1.4125571 4.7309938e-09 0)
(1.4125574 3.0256436e-09 0)
(1.412557 2.367969e-09 0)
(1.4125574 4.3061871e-09 0)
(1.4125569 -9.5069598e-10 0)
(1.4125574 6.7300574e-09 0)
(1.4125569 -4.3132427e-09 0)
(1.4125574 8.366236e-09 0)
(1.412557 -5.1942266e-09 0)
(1.4125574 6.5630901e-09 0)
(1.412557 -1.2147335e-09 0)
(1.4125573 -2.47204e-11 0)
(1.4125571 6.8584037e-09 0)
(1.4125572 -8.0647735e-09 0)
(1.4125572 1.3421381e-08 0)
(1.4125572 -1.0088183e-08 0)
(1.4125571 1.1263515e-08 0)
(1.4125573 -2.2074268e-09 0)
(1.4125571 2.6750042e-09 0)
(1.4125573 8.1427553e-09 0)
(1.412557 -8.2304807e-10 0)
(1.4125574 1.1382994e-08 0)
(1.412557 8.9335681e-09 0)
(1.4125575 9.6102053e-09 0)
(1.4125568 2.3614332e-08 0)
(1.4125577 2.0231299e-08 0)
(1.4125567 3.6755707e-08 0)
(1.4125581 6.0209138e-08 0)
(1.4125566 8.3507558e-08 0)
(1.4125589 1.6055953e-07 0)
(1.4125565 2.2935937e-07 0)
(1.4125601 3.7233424e-07 0)
(1.412556 4.8332842e-07 0)
(1.412563 6.5254084e-07 0)
(1.0005903 -0.0034628962 0)
(1.0136863 -0.0093659712 0)
(1.0370279 -0.013046673 0)
(1.0674194 -0.014562982 0)
(1.1000295 -0.014854033 0)
(1.1316394 -0.014564109 0)
(1.1610695 -0.013886925 0)
(1.1880592 -0.012917123 0)
(1.2125072 -0.011803184 0)
(1.2343739 -0.0106912 0)
(1.2537753 -0.0096647768 0)
(1.2709794 -0.0087506077 0)
(1.286315 -0.0079470285 0)
(1.3000849 -0.0072437478 0)
(1.3125272 -0.0066280464 0)
(1.3238218 -0.0060851336 0)
(1.334111 -0.0055995084 0)
(1.3435103 -0.0051575314 0)
(1.3521067 -0.0047486454 0)
(1.3599613 -0.0043646928 0)
(1.3671192 -0.0039990955 0)
(1.3736164 -0.0036469402 0)
(1.3794822 -0.0033053095 0)
(1.3847405 -0.0029730634 0)
(1.3894127 -0.0026503954 0)
(1.3935216 -0.0023385242 0)
(1.3970938 -0.0020395592 0)
(1.4001602 -0.0017562141 0)
(1.402756 -0.0014914176 0)
(1.4049207 -0.0012478952 0)
(1.4066975 -0.0010278573 0)
(1.4081318 -0.00083277187 0)
(1.4092696 -0.00066322809 0)
(1.4101562 -0.00051890676 0)
(1.4108342 -0.00039863948 0)
(1.411343 -0.00030056677 0)
(1.4117174 -0.00022232556 0)
(1.4119875 -0.00016127339 0)
(1.4121783 -0.00011468071 0)
(1.4123104 -7.9910608e-05 0)
(1.4123999 -5.453836e-05 0)
(1.4124592 -3.6438676e-05 0)
(1.4124976 -2.381724e-05 0)
(1.4125219 -1.521742e-05 0)
(1.4125368 -9.4934765e-06 0)
(1.4125458 -5.7745862e-06 0)
(1.412551 -3.4176857e-06 0)
(1.412554 -1.962496e-06 0)
(1.4125556 -1.088463e-06 0)
(1.4125564 -5.7904757e-07 0)
(1.4125568 -2.9185335e-07 0)
(1.412557 -1.3600352e-07 0)
(1.4125571 -5.5224052e-08 0)
(1.4125572 -1.5726412e-08 0)
(1.4125571 1.6811952e-09 0)
(1.4125572 8.6811328e-09 0)
(1.4125571 9.9661993e-09 0)
(1.4125572 1.0168555e-08 0)
(1.4125571 8.2960424e-09 0)
(1.4125572 8.210315e-09 0)
(1.4125571 5.7029927e-09 0)
(1.4125572 6.6471959e-09 0)
(1.4125571 3.7287042e-09 0)
(1.4125572 5.6753238e-09 0)
(1.4125571 2.3377457e-09 0)
(1.4125573 4.6978543e-09 0)
(1.412557 1.849354e-09 0)
(1.4125573 3.0963737e-09 0)
(1.412557 2.5822172e-09 0)
(1.4125574 4.0801617e-10 0)
(1.4125569 4.7482163e-09 0)
(1.4125574 -2.9830339e-09 0)
(1.4125569 7.2274053e-09 0)
(1.4125574 -5.339646e-09 0)
(1.4125569 7.6138636e-09 0)
(1.4125574 -3.8828597e-09 0)
(1.412557 3.3686905e-09 0)
(1.4125573 2.612446e-09 0)
(1.4125571 -4.5323681e-09 0)
(1.4125572 1.0972005e-08 0)
(1.4125571 -1.0690081e-08 0)
(1.4125572 1.3610119e-08 0)
(1.4125571 -7.5749376e-09 0)
(1.4125573 6.94058e-09 0)
(1.4125571 2.6140789e-09 0)
(1.4125573 -1.2797301e-09 0)
(1.412557 8.9905113e-09 0)
(1.4125574 -9.0792114e-10 0)
(1.4125569 3.4832654e-09 0)
(1.4125575 5.4907897e-09 0)
(1.4125568 -7.2449643e-09 0)
(1.4125577 -3.5372547e-09 0)
(1.4125567 -2.2043935e-08 0)
(1.4125581 -4.6997625e-08 0)
(1.4125566 -7.1480032e-08 0)
(1.4125589 -1.4729496e-07 0)
(1.4125565 -2.1639615e-07 0)
(1.4125601 -3.6274417e-07 0)
(1.412556 -4.7920246e-07 0)
(1.412563 -6.4828406e-07 0)
(1.0007347 -0.011814681 0)
(1.0178471 -0.030860834 0)
(1.046216 -0.041434125 0)
(1.079901 -0.045192905 0)
(1.1132647 -0.045501136 0)
(1.1437791 -0.044078029 0)
(1.17089 -0.041436311 0)
(1.194562 -0.037968159 0)
(1.2148479 -0.034186993 0)
(1.23195 -0.030523206 0)
(1.2462444 -0.027201618 0)
(1.2581943 -0.024283093 0)
(1.2682522 -0.021750241 0)
(1.2767992 -0.01956185 0)
(1.2841297 -0.017670584 0)
(1.2904659 -0.016025218 0)
(1.2959806 -0.014575056 0)
(1.3008093 -0.013276361 0)
(1.3050538 -0.012094965 0)
(1.3087876 -0.011004125 0)
(1.312066 -0.0099823386 0)
(1.3149335 -0.0090135347 0)
(1.3174261 -0.0080877001 0)
(1.3195738 -0.0072001693 0)
(1.3214027 -0.0063502592 0)
(1.3229389 -0.0055403142 0)
(1.3242095 -0.0047750309 0)
(1.3252425 -0.004060517 0)
(1.3260663 -0.0034030932 0)
(1.3267098 -0.0028082 0)
(1.3272015 -0.0022796268 0)
(1.3275682 -0.0018190542 0)
(1.3278347 -0.0014258708 0)
(1.3280231 -0.0010972596 0)
(1.3281523 -0.00082851608 0)
(1.3282378 -0.00061353728 0)
(1.3282923 -0.00044537159 0)
(1.3283254 -0.00031676683 0)
(1.3283442 -0.00022063198 0)
(1.3283541 -0.00015040467 0)
(1.3283585 -0.0001002798 0)
(1.3283599 -6.5337562e-05 0)
(1.3283598 -4.1554989e-05 0)
(1.328359 -2.5762948e-05 0)
(1.328358 -1.5538485e-05 0)
(1.3283571 -9.0941916e-06 0)
(1.3283564 -5.1438434e-06 0)
(1.3283559 -2.7968967e-06 0)
(1.3283555 -1.4474305e-06 0)
(1.3283552 -7.0263168e-07 0)
(1.3283551 -3.0920652e-07 0)
(1.328355 -1.154495e-07 0)
(1.3283549 -2.652243e-08 0)
(1.3283549 8.2780507e-09 0)
(1.3283549 1.8551488e-08 0)
(1.3283549 1.8286902e-08 0)
(1.3283549 1.4353246e-08 0)
(1.3283549 1.119095e-08 0)
(1.3283549 6.7561901e-09 0)
(1.3283549 6.4237518e-09 0)
(1.3283549 2.151054e-09 0)
(1.328355 4.9759936e-09 0)
(1.3283549 -3.6417011e-10 0)
(1.328355 5.0101304e-09 0)
(1.3283549 -1.7892039e-09 0)
(1.328355 4.8981646e-09 0)
(1.3283548 -1.670691e-09 0)
(1.3283551 3.021123e-09 0)
(1.3283548 1.0386688e-09 0)
(1.3283551 -1.8244311e-09 0)
(1.3283547 7.0822336e-09 0)
(1.3283552 -9.3159284e-09 0)
(1.3283547 1.4494553e-08 0)
(1.3283552 -1.5762691e-08 0)
(1.3283547 1.7967419e-08 0)
(1.3283551 -1.4489758e-08 0)
(1.3283548 1.063e-08 0)
(1.3283551 -7.48754e-10 0)
(1.3283548 -7.7122505e-09 0)
(1.328355 1.9867483e-08 0)
(1.3283549 -2.5675138e-08 0)
(1.328355 3.0829515e-08 0)
(1.3283549 -2.47578e-08 0)
(1.328355 1.8828674e-08 0)
(1.3283549 -4.1449933e-09 0)
(1.3283551 -3.1228838e-09 0)
(1.3283548 1.0978613e-08 0)
(1.3283551 -9.653789e-09 0)
(1.3283547 -6.788851e-10 0)
(1.3283552 -2.0966211e-09 0)
(1.3283546 -3.0964732e-08 0)
(1.3283554 -2.4825196e-08 0)
(1.3283545 -7.3518675e-08 0)
(1.3283557 -1.3077229e-07 0)
(1.3283543 -2.0340506e-07 0)
(1.3283564 -4.0228344e-07 0)
(1.3283541 -5.9501479e-07 0)
(1.3283573 -1.0060152e-06 0)
(1.3283533 -1.3390848e-06 0)
(1.3283598 -1.8562491e-06 0)
(1.0014245 -0.02682482 0)
(1.0291271 -0.06279125 0)
(1.0654289 -0.077736144 0)
(1.0989615 -0.080596405 0)
(1.1253138 -0.078283664 0)
(1.1450515 -0.073151021 0)
(1.1594839 -0.066106692 0)
(1.1694261 -0.05815508 0)
(1.1755326 -0.050285643 0)
(1.1785713 -0.043133868 0)
(1.1793541 -0.03694881 0)
(1.1785906 -0.03173647 0)
(1.1768264 -0.027398076 0)
(1.1744519 -0.023806008 0)
(1.1717355 -0.020831346 0)
(1.1688593 -0.018351955 0)
(1.1659468 -0.016258515 0)
(1.1630805 -0.014461251 0)
(1.1603118 -0.012890744 0)
(1.1576711 -0.01149337 0)
(1.1551768 -0.010227539 0)
(1.1528409 -0.0090629666 0)
(1.1506717 -0.007980164 0)
(1.1486742 -0.0069684846 0)
(1.1468517 -0.0060235986 0)
(1.1452066 -0.0051456053 0)
(1.1437397 -0.0043374634 0)
(1.1424497 -0.0036033529 0)
(1.1413322 -0.0029470261 0)
(1.1403797 -0.0023706313 0)
(1.1395819 -0.0018741053 0)
(1.1389257 -0.0014550007 0)
(1.1383962 -0.001108656 0)
(1.1379771 -0.00082859264 0)
(1.137652 -0.00060709301 0)
(1.1374051 -0.00043580471 0)
(1.1372213 -0.00030633417 0)
(1.1370874 -0.00021070377 0)
(1.136992 -0.00014170678 0)
(1.1369255 -9.3095588e-05 0)
(1.1368802 -5.9672555e-05 0)
(1.1368501 -3.7258351e-05 0)
(1.1368305 -2.2614095e-05 0)
(1.1368181 -1.330255e-05 0)
(1.1368104 -7.5528041e-06 0)
(1.1368059 -4.1117699e-06 0)
(1.1368032 -2.1252634e-06 0)
(1.1368017 -1.0235804e-06 0)
(1.136801 -4.4356964e-07 0)
(1.1368006 -1.5668312e-07 0)
(1.1368004 -2.8561273e-08 0)
(1.1368003 2.1112117e-08 0)
(1.1368003 3.185301e-08 0)
(1.1368003 2.8944521e-08 0)
(1.1368003 2.0410244e-08 0)
(1.1368004 1.3962082e-08 0)
(1.1368004 7.0600127e-09 0)
(1.1368004 4.9859994e-09 0)
(1.1368004 5.9835665e-10 0)
(1.1368004 2.2054351e-09 0)
(1.1368004 -2.0242488e-09 0)
(1.1368004 2.4727313e-09 0)
(1.1368004 -3.4722528e-09 0)
(1.1368004 3.6450304e-09 0)
(1.1368004 -4.5586928e-09 0)
(1.1368005 4.6860963e-09 0)
(1.1368003 -4.7235542e-09 0)
(1.1368005 4.1086387e-09 0)
(1.1368003 -2.6709936e-09 0)
(1.1368005 5.711397e-10 0)
(1.1368003 2.8455224e-09 0)
(1.1368006 -6.6153441e-09 0)
(1.1368002 1.133939e-08 0)
(1.1368006 -1.5131798e-08 0)
(1.1368002 1.8460714e-08 0)
(1.1368006 -1.8624554e-08 0)
(1.1368003 1.6898033e-08 0)
(1.1368005 -1.0106168e-08 0)
(1.1368003 2.1702993e-09 0)
(1.1368005 9.8368915e-09 0)
(1.1368003 -1.8872194e-08 0)
(1.1368005 2.8076425e-08 0)
(1.1368003 -2.9245555e-08 0)
(1.1368005 2.778827e-08 0)
(1.1368003 -1.8269948e-08 0)
(1.1368005 9.3591163e-09 0)
(1.1368003 -2.0898658e-09 0)
(1.1368005 -4.9017541e-09 0)
(1.1368003 -7.1128038e-09 0)
(1.1368006 -7.7710655e-09 0)
(1.1368002 -3.9468462e-08 0)
(1.1368007 -3.5158026e-08 0)
(1.1368 -9.9522134e-08 0)
(1.1368009 -1.5431152e-07 0)
(1.1367998 -2.6997456e-07 0)
(1.1368012 -5.0166945e-07 0)
(1.1367993 -7.8329933e-07 0)
(1.1368017 -1.3531168e-06 0)
(1.1367978 -1.873511e-06 0)
(1.136803 -2.7244494e-06 0)
(1.0016584 -0.053819425 0)
(1.0359761 -0.10128435 0)
(1.0597199 -0.11073634 0)
(1.0628945 -0.10592144 0)
(1.0515571 -0.096227464 0)
(1.0340537 -0.083931723 0)
(1.0142815 -0.070323267 0)
(0.99361183 -0.056975123 0)
(0.97293539 -0.045097829 0)
(0.95312375 -0.035223354 0)
(0.93482138 -0.027383611 0)
(0.91833193 -0.021361054 0)
(0.90369164 -0.016844782 0)
(0.890788 -0.013511263 0)
(0.87944547 -0.011064876 0)
(0.86947498 -0.0092571857 0)
(0.86069744 -0.0078935801 0)
(0.85295358 -0.0068317667 0)
(0.84610829 -0.0059725921 0)
(0.84005127 -0.0052483091 0)
(0.83469532 -0.0046138245 0)
(0.82997191 -0.0040412526 0)
(0.82582617 -0.0035153854 0)
(0.82221201 -0.0030292616 0)
(0.81908867 -0.002580688 0)
(0.81641782 -0.0021700397 0)
(0.81416156 -0.00179883 0)
(0.81228119 -0.0014685661 0)
(0.81073698 -0.0011799272 0)
(0.80948861 -0.00093237376 0)
(0.80849601 -0.00072414069 0)
(0.80772043 -0.00055245539 0)
(0.80712527 -0.00041378534 0)
(0.80667706 -0.00030410979 0)
(0.80634596 -0.0002191965 0)
(0.80610621 -0.00015486202 0)
(0.80593609 -0.00010717693 0)
(0.80581793 -7.2611147e-05 0)
(0.80573761 -4.8116812e-05 0)
(0.80568425 -3.1155741e-05 0)
(0.80564961 -1.9686108e-05 0)
(0.8056277 -1.2117091e-05 0)
(0.80561419 -7.2488768e-06 0)
(0.80560612 -4.2009726e-06 0)
(0.80560144 -2.3479814e-06 0)
(0.80559884 -1.2565409e-06 0)
(0.80559745 -6.3729096e-07 0)
(0.80559676 -3.0012812e-07 0)
(0.80559644 -1.2671166e-07 0)
(0.80559632 -4.2986519e-08 0)
(0.80559628 -7.1025987e-09 0)
(0.80559629 6.6886925e-09 0)
(0.8055963 8.8234167e-09 0)
(0.80559632 7.4197161e-09 0)
(0.80559634 4.2912452e-09 0)
(0.80559635 2.5340645e-09 0)
(0.80559635 2.6148358e-10 0)
(0.80559637 1.9178286e-10 0)
(0.80559636 -1.5156565e-09 0)
(0.80559637 -1.1045736e-10 0)
(0.80559636 -2.1592181e-09 0)
(0.80559638 5.9592068e-10 0)
(0.80559636 -2.7313566e-09 0)
(0.80559639 1.6902526e-09 0)
(0.80559635 -3.3210034e-09 0)
(0.8055964 2.7749889e-09 0)
(0.80559634 -3.7932935e-09 0)
(0.80559641 3.1742015e-09 0)
(0.80559633 -3.2613517e-09 0)
(0.80559643 2.0539965e-09 0)
(0.80559631 -9.3113517e-10 0)
(0.80559645 -1.4089711e-09 0)
(0.80559629 3.7645597e-09 0)
(0.80559646 -6.5753726e-09 0)
(0.80559628 9.2049909e-09 0)
(0.80559647 -1.1078204e-08 0)
(0.80559628 1.2149993e-08 0)
(0.80559647 -1.0891969e-08 0)
(0.80559628 8.7223858e-09 0)
(0.80559647 -3.7220362e-09 0)
(0.80559628 -8.2709038e-10 0)
(0.80559647 7.036613e-09 0)
(0.80559628 -1.0762908e-08 0)
(0.80559648 1.4066245e-08 0)
(0.80559627 -1.4473233e-08 0)
(0.80559648 1.3062771e-08 0)
(0.80559627 -1.2944546e-08 0)
(0.80559648 6.6020743e-09 0)
(0.80559627 -1.6952033e-08 0)
(0.80559648 -4.0939675e-09 0)
(0.80559623 -3.6216313e-08 0)
(0.80559649 -3.1352611e-08 0)
(0.8055961 -8.6198611e-08 0)
(0.80559649 -1.1954574e-07 0)
(0.80559581 -2.4256095e-07 0)
(0.80559645 -4.1028704e-07 0)
(0.80559506 -7.2604978e-07 0)
(0.80559607 -1.2338274e-06 0)
(0.80559264 -1.8812377e-06 0)
(0.80559528 -2.854663e-06 0)
(0.9189084 -0.035821918 0)
(0.86271383 -0.062195574 0)
(0.78705981 -0.062510036 0)
(0.69536055 -0.054550081 0)
(0.61089855 -0.044530906 0)
(0.54411835 -0.034014767 0)
(0.49343486 -0.024184825 0)
(0.45480276 -0.016139329 0)
(0.42545932 -0.01025961 0)
(0.40349261 -0.0062965894 0)
(0.38718592 -0.0037860053 0)
(0.37500402 -0.0022918976 0)
(0.36572392 -0.001467119 0)
(0.35845337 -0.0010519771 0)
(0.35257281 -0.00086479401 0)
(0.34766575 -0.00078965223 0)
(0.34345989 -0.00076028865 0)
(0.33978156 -0.00074244633 0)
(0.33652219 -0.00072009163 0)
(0.33361487 -0.0006871066 0)
(0.33101852 -0.00064289182 0)
(0.32870732 -0.00058968728 0)
(0.32666348 -0.00053071885 0)
(0.32487255 -0.0004690862 0)
(0.32332058 -0.00040741556 0)
(0.32199264 -0.00034784061 0)
(0.32087216 -0.00029203264 0)
(0.31994083 -0.00024116132 0)
(0.3191789 -0.0001959121 0)
(0.31856583 -0.00015654533 0)
(0.31808097 -0.00012298802 0)
(0.31770427 -9.4957095e-05 0)
(0.3174169 -7.2014052e-05 0)
(0.31720175 -5.362059e-05 0)
(0.31704375 -3.9176205e-05 0)
(0.31692998 -2.8072177e-05 0)
(0.31684971 -1.9714958e-05 0)
(0.31679423 -1.3562366e-05 0)
(0.31675672 -9.1299176e-06 0)
(0.31673191 -6.0094048e-06 0)
(0.31671589 -3.8616785e-06 0)
(0.31670579 -2.419918e-06 0)
(0.3166996 -1.4747002e-06 0)
(0.31669591 -8.7220688e-07 0)
(0.31669379 -4.980137e-07 0)
(0.31669261 -2.7363254e-07 0)
(0.31669199 -1.4268147e-07 0)
(0.31669168 -7.014492e-08 0)
(0.31669154 -3.0940682e-08 0)
(0.31669149 -1.1895116e-08 0)
(0.31669148 -2.7359375e-09 0)
(0.31669148 1.1036802e-12 0)
(0.31669149 1.1727412e-09 0)
(0.31669149 8.047632e-10 0)
(0.3166915 7.2823526e-10 0)
(0.3166915 1.1908982e-10 0)
(0.3166915 1.3290096e-10 0)
(0.31669151 -2.9479469e-10 0)
(0.31669151 -3.062634e-10 0)
(0.31669151 -3.4321668e-10 0)
(0.31669151 -4.6744725e-10 0)
(0.31669151 -1.6963565e-10 0)
(0.3166915 -6.199307e-10 0)
(0.31669151 2.1706008e-10 0)
(0.3166915 -7.7694691e-10 0)
(0.31669151 5.6439034e-10 0)
(0.3166915 -9.7321717e-10 0)
(0.31669151 8.2315296e-10 0)
(0.31669149 -9.72606e-10 0)
(0.31669152 6.9477299e-10 0)
(0.31669149 -5.5431849e-10 0)
(0.31669152 -3.6753174e-11 0)
(0.31669148 5.1353894e-10 0)
(0.31669153 -1.173682e-09 0)
(0.31669148 1.8708127e-09 0)
(0.31669153 -2.5078721e-09 0)
(0.31669148 3.0704071e-09 0)
(0.31669153 -3.1675081e-09 0)
(0.31669148 3.151162e-09 0)
(0.31669153 -2.5399637e-09 0)
(0.31669147 1.9006889e-09 0)
(0.31669154 -7.9859232e-10 0)
(0.31669147 -7.7319173e-12 0)
(0.31669154 6.0382029e-10 0)
(0.31669147 -1.3898743e-09 0)
(0.31669155 1.220531e-09 0)
(0.31669146 -3.314379e-09 0)
(0.31669155 8.4154647e-10 0)
(0.31669146 -8.7579298e-09 0)
(0.31669153 -2.3551379e-09 0)
(0.31669143 -1.9612059e-08 0)
(0.3166915 -1.5574631e-08 0)
(0.31669136 -4.4963593e-08 0)
(0.31669142 -6.130967e-08 0)
(0.31669117 -1.2849656e-07 0)
(0.31669116 -2.1528197e-07 0)
(0.31669051 -4.0566762e-07 0)
(0.31669017 -6.7400126e-07 0)
(0.31668818 -1.1314657e-06 0)
(0.31668679 -1.5497976e-06 0)
)
;

boundaryField
{
    top
    {
        type            fixedValue;
        value           uniform (0 0 0);
    }
    inlet
    {
        type            fixedValue;
        value           uniform (1 0 0);
    }
    outlet
    {
        type            zeroGradient;
    }
    bottom
    {
        type            fixedValue;
        value           uniform (0 0 0);
    }
    back
    {
        type            empty;
    }
    front
    {
        type            empty;
    }
}


// ************************************************************************* //
