/*--------------------------------*- C++ -*----------------------------------*\
| =========                 |                                                 |
| \\      /  F ield         | OpenFOAM: The Open Source CFD Toolbox           |
|  \\    /   O peration     | Version:  v1812                                 |
|   \\  /    A nd           | Web:      www.OpenFOAM.com                      |
|    \\/     M anipulation  |                                                 |
\*---------------------------------------------------------------------------*/
FoamFile
{
    version     2.0;
    format      ascii;
    class       volScalarField;
    location    "7.5";
    object      p;
}
// * * * * * * * * * * * * * * * * * * * * * * * * * * * * * * * * * * * * * //

dimensions      [0 2 -2 0 0 0 0];


internalField   nonuniform List<scalar> 
1000
(
1.6753863
1.5543084
1.4583279
1.3946718
1.3461623
1.3036903
1.266155
1.2339833
1.2065829
1.1827453
1.161351
1.1415872
1.1229101
1.1049705
1.0875552
1.070541
1.0538601
1.0374759
1.0213677
1.0055218
0.98992683
0.97457173
0.95944505
0.94453482
0.92982883
0.91531484
0.90098087
0.88681536
0.87280729
0.85894627
0.84522254
0.83162699
0.8181511
0.80478694
0.79152713
0.77836478
0.76529349
0.75230728
0.7394006
0.72656827
0.71380544
0.70110761
0.68847056
0.67589035
0.66336331
0.65088598
0.63845514
0.62606778
0.61372109
0.60141246
0.58913945
0.57689978
0.56469135
0.55251219
0.54036047
0.52823449
0.51613265
0.50405348
0.49199559
0.47995771
0.46793866
0.45593732
0.44395266
0.4319837
0.42002952
0.40808923
0.39616199
0.38424698
0.37234342
0.36045056
0.34856768
0.33669408
0.32482908
0.312972
0.30112217
0.28927896
0.27744171
0.26560984
0.25378279
0.24196004
0.23014114
0.21832567
0.20651323
0.19470341
0.18289585
0.17109016
0.15928603
0.14748317
0.13568138
0.12388049
0.11208041
0.10028102
0.088482223
0.076683904
0.064885931
0.053088191
0.041290604
0.029493138
0.017695784
0.0058985479
1.5581666
1.5032375
1.4422851
1.3907173
1.3474473
1.308479
1.2728927
1.2411201
1.2131592
1.1883813
1.1659795
1.1452781
1.1257965
1.1072084
1.0892949
1.0719101
1.0549583
1.0383769
1.0221242
1.0061707
0.99049365
0.97507412
0.95989528
0.94494163
0.93019859
0.91565238
0.90128996
0.88709909
0.87306823
0.85918664
0.84544426
0.83183174
0.8183404
0.80496212
0.79168939
0.7785152
0.76543304
0.75243684
0.73952095
0.72668012
0.71390945
0.70120437
0.68856061
0.67597419
0.66344138
0.6509587
0.63852289
0.62613091
0.61377992
0.60146727
0.58919051
0.57694734
0.56473563
0.55255339
0.54039877
0.52827006
0.51616565
0.50408404
0.49202386
0.47998381
0.46796268
0.45595938
0.44397285
0.43200212
0.42004625
0.40810437
0.39617563
0.38425921
0.37235434
0.36046025
0.34857622
0.33670156
0.32483558
0.31297762
0.301127
0.28928308
0.27744521
0.26561278
0.25378524
0.24196207
0.2301428
0.21832701
0.20651428
0.19470424
0.1828965
0.17109068
0.15928644
0.1474835
0.13568164
0.12388069
0.11208054
0.1002811
0.088482268
0.076683924
0.064885941
0.053088204
0.041290619
0.02949315
0.017695787
0.0058985372
1.4973454
1.4711703
1.4327734
1.3916405
1.3525552
1.3159645
1.2816668
1.2499492
1.2210932
1.1949921
1.1712381
1.1493481
1.1288983
1.1095574
1.0910772
1.0732762
1.0560243
1.0392287
1.0228226
1.0067575
0.99099715
0.97551347
0.96028361
0.94528812
0.93050987
0.91593339
0.90154456
0.88733038
0.87327882
0.85937874
0.8456198
0.83199242
0.81848769
0.80509734
0.7918137
0.77862964
0.76553852
0.75253418
0.73961087
0.72676328
0.71398641
0.70127566
0.68862669
0.67603548
0.66349827
0.65101153
0.63857198
0.62617655
0.61382236
0.60150676
0.58922726
0.57698153
0.56476745
0.55258299
0.54042632
0.52829568
0.51618946
0.50410616
0.49204439
0.48000284
0.46798031
0.45597567
0.44398787
0.43201594
0.42005894
0.40811598
0.39618622
0.38426883
0.37236304
0.36046809
0.34858325
0.33670783
0.32484114
0.31298251
0.30113129
0.28928682
0.27744846
0.2656156
0.25378766
0.24196413
0.23014453
0.21832844
0.20651545
0.19470519
0.18289726
0.1710913
0.15928696
0.14748394
0.135682
0.12388098
0.11208077
0.10028126
0.088482364
0.076683979
0.064885974
0.053088231
0.041290645
0.02949317
0.017695791
0.0058985289
1.4679368
1.4524388
1.4255688
1.3916449
1.355844
1.3208926
1.2875907
1.2562377
1.227107
1.2003155
1.1757279
1.1530357
1.1318839
1.1119552
1.092997
1.0748173
1.0572715
1.0402505
1.0236719
1.0074739
0.99160989
0.97604415
0.96074819
0.94569853
0.93087511
0.91626039
0.90183875
0.88759611
0.87351965
0.85959762
0.84581923
0.83217452
0.8186543
0.80525006
0.79195392
0.77875858
0.76565726
0.75264366
0.73971194
0.72685667
0.7140728
0.70135563
0.68870079
0.67610418
0.66356201
0.65107072
0.63862697
0.62622766
0.61386991
0.60155101
0.58926846
0.57701991
0.56480322
0.55261635
0.54045743
0.52832472
0.51621658
0.5041315
0.49206807
0.48002497
0.46800099
0.455995
0.44400594
0.4320328
0.42007467
0.40813063
0.39619985
0.38428148
0.37237475
0.3604789
0.3485932
0.33671695
0.32484946
0.31299008
0.30113814
0.28929299
0.27745399
0.26562054
0.25379204
0.24196799
0.2301479
0.21833136
0.20651796
0.19470733
0.18289908
0.17109284
0.15928826
0.14748504
0.13568293
0.12388176
0.1120814
0.10028175
0.088482743
0.076684264
0.064886189
0.053088399
0.041290777
0.029493274
0.017695856
0.0058985685
1.4552053
1.443252
1.4210176
1.39073
1.3568688
1.3228733
1.2901757
1.2591701
1.2300727
1.2030609
1.1781338
1.1550842
1.1336027
1.1133851
1.0941815
1.0757993
1.0580904
1.0409399
1.024259
1.0079799
0.99205093
0.97643237
0.96109286
0.94600672
0.93115227
0.9165108
0.90206583
0.88780263
0.87370793
0.85976962
0.84597663
0.83231879
0.81878672
0.80537177
0.79206592
0.77886176
0.76575241
0.7527315
0.73979311
0.72693174
0.71414228
0.70141999
0.68876044
0.67615951
0.66361336
0.6511184
0.63867127
0.62626886
0.61390823
0.60158668
0.58930168
0.57705088
0.56483209
0.55264329
0.54048259
0.52834822
0.51623856
0.50415207
0.49208734
0.48004303
0.46801793
0.45601089
0.44402085
0.4320468
0.42008779
0.40814293
0.39621136
0.38429224
0.37238479
0.36048824
0.34860186
0.33672495
0.32485684
0.31299684
0.30114432
0.28929861
0.27745908
0.26562512
0.25379614
0.24197163
0.23015112
0.21833417
0.2065204
0.19470943
0.18290088
0.17109438
0.15928958
0.14748616
0.13568388
0.12388254
0.11208204
0.10028227
0.088483148
0.076684579
0.064886432
0.05308859
0.041290926
0.029493392
0.017695934
0.0058986229
1.4552053
1.443252
1.4210176
1.39073
1.3568688
1.3228733
1.2901757
1.2591701
1.2300727
1.2030609
1.1781338
1.1550842
1.1336027
1.1133851
1.0941815
1.0757993
1.0580904
1.0409399
1.024259
1.0079799
0.99205093
0.97643237
0.96109286
0.94600672
0.93115227
0.9165108
0.90206583
0.88780263
0.87370793
0.85976962
0.84597663
0.83231879
0.81878672
0.80537176
0.79206592
0.77886176
0.76575241
0.7527315
0.73979311
0.72693174
0.71414228
0.70141999
0.68876043
0.67615951
0.66361336
0.65111839
0.63867127
0.62626886
0.61390823
0.60158669
0.58930168
0.57705088
0.56483209
0.55264329
0.54048259
0.52834823
0.51623856
0.50415207
0.49208734
0.48004303
0.46801793
0.4560109
0.44402085
0.4320468
0.42008779
0.40814294
0.39621136
0.38429224
0.37238479
0.36048824
0.34860185
0.33672494
0.32485683
0.31299684
0.30114432
0.28929861
0.27745909
0.26562512
0.25379614
0.24197163
0.23015111
0.21833416
0.20652039
0.19470942
0.18290088
0.17109438
0.15928958
0.14748617
0.13568388
0.12388255
0.11208204
0.10028227
0.088483143
0.076684573
0.064886428
0.053088588
0.041290925
0.029493393
0.017695935
0.0058986227
1.4679368
1.4524388
1.4255688
1.3916449
1.355844
1.3208926
1.2875907
1.2562376
1.227107
1.2003155
1.1757279
1.1530357
1.1318839
1.1119552
1.092997
1.0748173
1.0572715
1.0402505
1.0236719
1.0074739
0.99160989
0.97604414
0.96074819
0.94569853
0.93087511
0.91626039
0.90183876
0.88759612
0.87351965
0.85959762
0.84581922
0.83217451
0.81865429
0.80525005
0.79195392
0.77875858
0.76565726
0.75264366
0.73971195
0.72685667
0.7140728
0.70135563
0.68870078
0.67610418
0.66356201
0.65107071
0.63862697
0.62622767
0.61386992
0.60155102
0.58926847
0.57701993
0.56480323
0.55261636
0.54045744
0.52832472
0.51621658
0.5041315
0.49206807
0.48002497
0.468001
0.455995
0.44400594
0.43203281
0.42007468
0.40813065
0.39619985
0.38428149
0.37237475
0.36047888
0.34859317
0.33671692
0.32484943
0.31299006
0.30113813
0.289293
0.27745401
0.26562055
0.25379205
0.24196798
0.23014788
0.21833133
0.20651793
0.19470731
0.18289907
0.17109285
0.15928829
0.14748507
0.13568295
0.12388177
0.11208139
0.10028174
0.088482727
0.076684248
0.064886177
0.053088392
0.041290774
0.029493275
0.017695858
0.0058985688
1.4973454
1.4711703
1.4327734
1.3916405
1.3525552
1.3159645
1.2816668
1.2499492
1.2210932
1.1949921
1.1712381
1.1493481
1.1288983
1.1095574
1.0910772
1.0732762
1.0560243
1.0392287
1.0228226
1.0067575
0.99099714
0.97551346
0.9602836
0.94528812
0.93050987
0.9159334
0.90154457
0.88733039
0.87327883
0.85937874
0.84561979
0.8319924
0.81848767
0.80509733
0.79181369
0.77862964
0.76553853
0.75253419
0.73961089
0.72676329
0.71398642
0.70127565
0.68862668
0.67603547
0.66349826
0.65101152
0.63857198
0.62617656
0.61382238
0.60150678
0.58922728
0.57698156
0.56476746
0.55258301
0.54042633
0.52829568
0.51618946
0.50410617
0.49204439
0.48000284
0.46798031
0.45597567
0.44398788
0.43201595
0.42005896
0.408116
0.39618623
0.38426884
0.37236303
0.36046806
0.34858321
0.33670778
0.3248411
0.31298249
0.3011313
0.28928684
0.27744849
0.26561562
0.25378766
0.2419641
0.23014448
0.21832838
0.2065154
0.19470516
0.18289726
0.17109133
0.159287
0.14748398
0.13568203
0.12388099
0.11208076
0.10028124
0.088482337
0.076683955
0.064885957
0.053088222
0.041290642
0.029493173
0.017695795
0.0058985307
1.5581666
1.5032375
1.4422851
1.3907173
1.3474473
1.308479
1.2728927
1.2411201
1.2131592
1.1883813
1.1659795
1.1452781
1.1257965
1.1072084
1.0892949
1.0719101
1.0549583
1.0383769
1.0221242
1.0061707
0.99049364
0.97507411
0.95989527
0.94494163
0.9301986
0.91565239
0.90128998
0.8870991
0.87306823
0.85918663
0.84544424
0.83183172
0.81834038
0.80496211
0.79168939
0.77851521
0.76543305
0.75243686
0.73952097
0.72668014
0.71390946
0.70120437
0.6885606
0.67597417
0.66344137
0.65095869
0.63852289
0.62613092
0.61377994
0.6014673
0.58919054
0.57694736
0.56473565
0.5525534
0.54039878
0.52827007
0.51616565
0.50408405
0.49202386
0.4799838
0.46796268
0.45595938
0.44397286
0.43200213
0.42004627
0.40810439
0.39617565
0.38425921
0.37235431
0.3604602
0.34857616
0.3367015
0.32483554
0.3129776
0.30112702
0.28928311
0.27744524
0.26561281
0.25378524
0.24196203
0.23014274
0.21832694
0.20651423
0.19470422
0.18289651
0.17109071
0.15928649
0.14748354
0.13568166
0.12388069
0.11208053
0.10028108
0.088482243
0.076683903
0.064885925
0.053088192
0.041290613
0.029493152
0.017695793
0.0058985408
1.6753863
1.5543084
1.4583279
1.3946718
1.3461623
1.3036903
1.266155
1.2339833
1.2065829
1.1827453
1.161351
1.1415872
1.1229101
1.1049705
1.0875552
1.070541
1.0538601
1.0374759
1.0213677
1.0055218
0.98992682
0.97457173
0.95944505
0.94453483
0.92982884
0.91531485
0.90098088
0.88681536
0.87280729
0.85894626
0.84522253
0.83162698
0.81815109
0.80478694
0.79152713
0.77836479
0.7652935
0.7523073
0.73940062
0.72656828
0.71380544
0.7011076
0.68847055
0.67589034
0.6633633
0.65088597
0.63845514
0.62606779
0.61372111
0.60141248
0.58913947
0.5768998
0.56469137
0.55251221
0.54036049
0.5282345
0.51613265
0.50405347
0.49199558
0.47995771
0.46793866
0.45593732
0.44395267
0.43198372
0.42002954
0.40808925
0.39616199
0.38424696
0.37234339
0.36045051
0.34856763
0.33669403
0.32482905
0.31297199
0.30112219
0.28927899
0.27744174
0.26560984
0.25378276
0.24195999
0.23014109
0.21832562
0.2065132
0.19470341
0.18289587
0.17109019
0.15928606
0.14748319
0.13568139
0.12388049
0.1120804
0.10028101
0.088482217
0.076683891
0.06488591
0.053088167
0.041290587
0.029493134
0.017695791
0.0058985527
)
;

boundaryField
{
    top
    {
        type            zeroGradient;
    }
    inlet
    {
        type            zeroGradient;
    }
    outlet
    {
        type            fixedValue;
        value           uniform 0;
    }
    bottom
    {
        type            zeroGradient;
    }
    back
    {
        type            empty;
    }
    front
    {
        type            empty;
    }
}


// ************************************************************************* //
