/*--------------------------------*- C++ -*----------------------------------*\
| =========                 |                                                 |
| \\      /  F ield         | OpenFOAM: The Open Source CFD Toolbox           |
|  \\    /   O peration     | Version:  v1812                                 |
|   \\  /    A nd           | Web:      www.OpenFOAM.com                      |
|    \\/     M anipulation  |                                                 |
\*---------------------------------------------------------------------------*/
FoamFile
{
    version     2.0;
    format      ascii;
    class       surfaceScalarField;
    location    "108";
    object      phi;
}
// * * * * * * * * * * * * * * * * * * * * * * * * * * * * * * * * * * * * * //

dimensions      [0 3 -1 0 0 0 0];
oriented        oriented;


internalField   nonuniform List<scalar> 
1890
(
0.0092501688
0.00074983119
0.0082910045
0.00095916431
0.007362155
0.00092884952
0.0065322493
0.00082990566
0.0058250505
0.00070719881
0.0052477519
0.00057729867
0.0047933609
0.00045439096
0.0044450116
0.00034834934
0.0041822267
0.00026278481
0.0039852748
0.00019695192
0.0038371609
0.0001481139
0.0037244018
0.00011275913
0.0036367612
8.764061e-05
0.0035668213
6.9939795e-05
0.0035093759
5.7445398e-05
0.0034608583
4.851766e-05
0.0034188679
4.1990441e-05
0.003381805
3.7062983e-05
0.0033486035
3.3201434e-05
0.0033185452
3.0058344e-05
0.0032911334
2.7411652e-05
0.0032660123
2.512101e-05
0.0032429144
2.3097876e-05
0.0032216287
2.1285785e-05
0.0032019811
1.9647714e-05
0.003183823
1.8158231e-05
0.0031670243
1.6798765e-05
0.0031514694
1.5554844e-05
0.0031370547
1.4414582e-05
0.0031236867
1.336784e-05
0.0031112808
1.2405776e-05
0.0030997603
1.1520557e-05
0.0030890552
1.0705153e-05
0.0030791021
9.9532111e-06
0.0030698432
9.2589812e-06
0.003061226
8.6172781e-06
0.0030532025
8.0234661e-06
0.003045729
7.4734166e-06
0.0030387655
6.9634552e-06
0.0030322752
6.4902927e-06
0.0030262242
6.0509627e-06
0.0030205814
5.6427741e-06
0.0030153182
5.2632787e-06
0.003010408
4.9102493e-06
0.0030058263
4.5816617e-06
0.0030015507
4.2756743e-06
0.00299756
3.9906082e-06
0.0029938351
3.7249273e-06
0.0029903579
3.477227e-06
0.0029871116
3.246221e-06
0.0029840809
3.0307534e-06
0.0029812512
2.8297747e-06
0.0029786089
2.6423819e-06
0.0029761412
2.46775e-06
0.0029738362
2.3051993e-06
0.0029716823
2.154044e-06
0.0029696688
2.013698e-06
0.0029677855
1.8834316e-06
0.0029660231
1.7625514e-06
0.0029643731
1.6500898e-06
0.0029628281
1.5451062e-06
0.0029613818
1.4463276e-06
0.0029600291
1.3526224e-06
0.0029587664
1.2625706e-06
0.0029575912
1.1751464e-06
0.0029565019
1.0891098e-06
0.0029554978
1.0039473e-06
0.0029545787
9.1889984e-07
0.0029537442
8.3427987e-07
0.0029529942
7.4988242e-07
0.0029523272
6.6691546e-07
0.0029517416
5.8547571e-07
0.0029512341
5.0749812e-07
0.0029508011
4.3287449e-07
0.002950437
3.6402262e-07
0.0029501369
3.0002919e-07
0.0029498931
2.4368585e-07
0.0029497002
1.9272042e-07
0.0029495496
1.5048664e-07
0.0029494365
1.1288513e-07
0.0029493519
8.4374313e-08
0.0029492931
5.8567077e-08
0.002949251
4.1887591e-08
0.0029492256
2.508911e-08
0.0029492077
1.7647267e-08
0.0029492008
6.709749e-09
0.0029491947
5.9351886e-09
0.0029491964
-1.894893e-09
0.0029491944
1.8310041e-09
0.0029491989
-4.5965951e-09
0.0029491971
1.7428962e-09
0.0029492001
-3.1292019e-09
0.0029491966
3.4017134e-09
0.0029491926
3.5575793e-09
0.0029491872
5.2736186e-09
0.0029491681
1.9023232e-08
0.0029491678
5.9627709e-10
0.0029491374
3.0786353e-08
0.0029492053
-6.7692421e-08
-5.8445543e-08
0.010379776
0.00037005492
0.010574967
0.00076397368
0.01062758
0.00087623601
0.01056664
0.00089084618
0.010429447
0.00084439178
0.010247193
0.00075955213
0.010042592
0.00065899279
0.009832618
0.00055832291
0.0096291833
0.00046621955
0.0094394518
0.00038668342
0.0092669477
0.00032061796
0.0091125601
0.00026714681
0.008975635
0.00022456565
0.0088546743
0.00019090046
0.0087478446
0.00016427514
0.0086532848
0.00014307745
0.0085692703
0.00012600496
0.0084942839
0.00011204939
0.0084270324
0.00010045301
0.0083664333
9.0657436e-05
0.0083115892
8.2255704e-05
0.0082617579
7.4952168e-05
0.0082163246
6.8531197e-05
0.0081747766
6.2833836e-05
0.0081366834
5.7740983e-05
0.0081016802
5.3161526e-05
0.0080694549
4.9024125e-05
0.0080397381
4.52716e-05
0.0080122954
4.1857139e-05
0.0079869214
3.8741748e-05
0.0079634347
3.5892496e-05
0.007941674
3.3281247e-05
0.0079214955
3.0883707e-05
0.0079027701
2.8678708e-05
0.0078853814
2.6647676e-05
0.0078692245
2.4774243e-05
0.007854204
2.3043953e-05
0.0078402333
2.1444014e-05
0.0078272337
1.9963075e-05
0.0078151329
1.8591021e-05
0.0078038651
1.7318795e-05
0.0077933696
1.6138248e-05
0.0077835909
1.5042021e-05
0.0077744777
1.4023451e-05
0.0077659829
1.3076493e-05
0.0077580629
1.219565e-05
0.0077506776
1.1375917e-05
0.0077437898
1.0612731e-05
0.0077373651
9.901953e-06
0.0077313714
9.2398317e-06
0.0077257792
8.6230119e-06
0.0077205605
8.0484862e-06
0.0077156893
7.5135967e-06
0.0077111412
7.0159101e-06
0.0077068933
6.5532054e-06
0.0077029242
6.1232293e-06
0.0076992143
5.7237246e-06
0.0076957457
5.352085e-06
0.0076925028
5.0055577e-06
0.0076894721
4.6808452e-06
0.0076866426
4.3746254e-06
0.0076840058
4.0830967e-06
0.0076815556
3.8029007e-06
0.0076792876
3.5304854e-06
0.0076771992
3.2634334e-06
0.0076752888
2.9993901e-06
0.0076735549
2.7377982e-06
0.0076719955
2.4780685e-06
0.0076706079
2.2218579e-06
0.0076693875
1.9701335e-06
0.007668328
1.7263785e-06
0.0076674212
1.492138e-06
0.0076666568
1.2718556e-06
0.0076660233
1.0662898e-06
0.0076655072
8.8003297e-07
0.0076650954
7.1177541e-07
0.007664773
5.6599599e-07
0.0076645272
4.3839036e-07
0.0076643437
3.3386794e-07
0.007664212
2.4449839e-07
0.0076641193
1.7697181e-07
0.0076640586
1.1905878e-07
0.0076640191
8.1271039e-08
0.0076639982
4.591282e-08
0.0076639857
2.9982514e-08
0.0076639841
8.2431457e-09
0.0076639824
7.5173931e-09
0.0076639886
-8.1849921e-09
0.0076639885
1.8338758e-09
0.0076639972
-1.3328536e-08
0.0076639937
5.2476498e-09
0.0076640026
-1.2106824e-08
0.0076639915
1.4432643e-08
0.0076639982
-3.1973839e-09
0.0076639724
3.0854478e-08
0.0076639671
2.4356635e-08
0.0076639056
6.2293522e-08
0.0076638415
9.5016707e-08
0.0076636491
1.2480139e-07
2.3023084e-07
0.010194547
0.00017550777
0.010510297
0.00044822425
0.010823883
0.00056264936
0.011103868
0.00061086184
0.011333741
0.0006145186
0.011509103
0.00058418988
0.011633657
0.0005344385
0.011714988
0.00047699172
0.011761891
0.00041931749
0.011782797
0.00036577672
0.011784951
0.00031846407
0.011774171
0.00027792662
0.011754925
0.00024381241
0.011730492
0.0002153331
0.011703199
0.00019156787
0.011674643
0.00017163335
0.011645887
0.00015476124
0.011617615
0.00014032178
0.011590249
0.00012781819
0.011564039
0.0001168679
0.011539115
0.00010718015
0.011515532
9.8534742e-05
0.011493299
9.0764246e-05
0.011472393
8.3739932e-05
0.011452773
7.7361199e-05
0.011434386
7.1547855e-05
0.011417176
6.6234582e-05
0.01140108
6.1367052e-05
0.011386038
5.6899243e-05
0.011371988
5.2791594e-05
0.011358871
4.900972e-05
0.011346629
4.5523456e-05
0.011335207
4.2306128e-05
0.011324551
3.9333983e-05
0.011314613
3.6585759e-05
0.011305345
3.4042364e-05
0.011296702
3.1686627e-05
0.011288643
2.9503089e-05
0.011281129
2.7477807e-05
0.011274121
2.5598172e-05
0.011267587
2.3852746e-05
0.011261495
2.2231121e-05
0.011255813
2.0723805e-05
0.011250514
1.932212e-05
0.011245573
1.8018129e-05
0.011240964
1.6804561e-05
0.011236665
1.5674764e-05
0.011232655
1.4622649e-05
0.011228914
1.3642689e-05
0.011225424
1.2729862e-05
0.011222167
1.187967e-05
0.011219128
1.1088033e-05
0.01121629
1.0351287e-05
0.01121364
9.6659628e-06
0.011211165
9.0287629e-06
0.011208852
8.4362217e-06
0.011206691
7.8847473e-06
0.011204673
7.3702384e-06
0.01120279
6.8883506e-06
0.011201037
6.4341552e-06
0.011199408
6.002762e-06
0.011197903
5.5889977e-06
0.011196517
5.1884153e-06
0.011195251
4.7967949e-06
0.011194103
4.4114872e-06
0.011193071
4.0303961e-06
0.011192156
3.6536517e-06
0.011191352
3.2816925e-06
0.011190656
2.9174767e-06
0.011190063
2.5632892e-06
0.011189565
2.2240124e-06
0.011189155
1.9022253e-06
0.011188824
1.6034054e-06
0.011188561
1.3286289e-06
0.011188358
1.0829573e-06
0.011188206
8.6450452e-07
0.011188094
6.7779206e-07
0.011188015
5.1705955e-07
0.011187962
3.8726876e-07
0.011187928
2.7816658e-07
0.011187908
1.9718509e-07
0.011187898
1.2865152e-07
0.011187894
8.5488062e-08
0.011187895
4.4590159e-08
0.011187897
2.8580001e-08
0.011187902
2.958012e-09
0.011187903
6.0867454e-09
0.01118791
-1.4814869e-08
0.011187908
3.3125615e-09
0.011187916
-2.1445846e-08
0.01118791
1.1769736e-08
0.011187921
-2.3481738e-08
0.011187907
2.896343e-08
0.011187923
-1.9677657e-08
0.011187894
5.9816645e-08
0.01118791
8.0383355e-09
0.011187845
1.2753534e-07
0.011187808
1.3252838e-07
0.011187612
3.2103342e-07
5.7828054e-07
0.010101125
7.4383135e-05
0.010347883
0.00020146599
0.010645913
0.00026461962
0.010960847
0.00029592755
0.011269219
0.00030614635
0.011554366
0.00029904322
0.011807917
0.00028088739
0.012027601
0.00025730764
0.012214837
0.00023208139
0.012373018
0.00020759574
0.012506297
0.00018518556
0.012618823
0.00016540055
0.012714342
0.0001482932
0.012796031
0.00013364393
0.012866483
0.00012111608
0.012927765
0.00011035161
0.012981504
0.00010102172
0.013028978
9.2848218e-05
0.013071188
8.5607708e-05
0.013108929
7.9126713e-05
0.013142836
7.3273197e-05
0.013173423
6.7947514e-05
0.013201113
6.307432e-05
0.013226257
5.8595993e-05
0.013249151
5.4467602e-05
0.013270046
5.0653217e-05
0.013289157
4.7123271e-05
0.013306671
4.3852755e-05
0.013322751
4.0819996e-05
0.013337536
3.8005867e-05
0.013351153
3.5393264e-05
0.013363709
3.2966743e-05
0.013375303
3.0712244e-05
0.01338602
2.8616893e-05
0.013395937
2.6668852e-05
0.013405122
2.4857222e-05
0.013413637
2.3171963e-05
0.013421536
2.160384e-05
0.01342887
2.0144352e-05
0.013435682
1.8785664e-05
0.013442014
1.752055e-05
0.013447903
1.6342327e-05
0.013453382
1.5244813e-05
0.013458482
1.4222283e-05
0.013463231
1.3269436e-05
0.013467654
1.2381367e-05
0.013471775
1.1553549e-05
0.013475616
1.078181e-05
0.013479196
1.0062341e-05
0.013482535
9.3916615e-06
0.013485648
8.7666344e-06
0.013488551
8.1843814e-06
0.01349126
7.6422695e-06
0.013493788
7.1377536e-06
0.013496149
6.6683341e-06
0.013498354
6.2313426e-06
0.013500415
5.8239467e-06
0.013502342
5.4429441e-06
0.013504145
5.0849342e-06
0.013505833
4.7461658e-06
0.013507413
4.4229695e-06
0.013508891
4.111604e-06
0.01351027
3.8089639e-06
0.013511555
3.5122479e-06
0.013512746
3.2198952e-06
0.013513846
2.9308276e-06
0.013514854
2.6456084e-06
0.01351577
2.3650198e-06
0.013516596
2.0915896e-06
0.013517332
1.827293e-06
0.01351798
1.57581e-06
0.013518544
1.3390947e-06
0.013519026
1.12097e-06
0.013519433
9.2208857e-07
0.01351977
7.4575492e-07
0.013520044
5.9035542e-07
0.013520263
4.5873329e-07
0.013520434
3.4643707e-07
0.013520564
2.5673582e-07
0.013520661
1.8188951e-07
0.013520731
1.2727084e-07
0.013520778
8.1006548e-08
0.013520811
5.3071713e-08
0.01352083
2.5551992e-08
0.013520842
1.6662854e-08
0.013520846
-1.3291656e-09
0.013520848
3.5700234e-09
0.013520846
-1.2877807e-08
0.013520846
3.78986e-09
0.013520843
-1.804561e-08
0.013520842
1.1910854e-08
0.01352084
-2.1468354e-08
0.013520843
2.6753542e-08
0.013520845
-2.2081665e-08
0.013520852
5.2431894e-08
0.013520865
-4.5168748e-09
0.013520884
1.0864319e-07
0.013520917
1.0003764e-07
0.013520956
2.8133445e-07
5.2121755e-07
0.010074383
1.3455767e-12
0.010275849
6.4262197e-13
0.010540469
1.1781152e-13
0.010836396
-3.0486925e-13
0.011142543
-5.4787272e-13
0.011441586
-6.6556052e-13
0.011722473
-6.3769457e-13
0.011979781
-5.0636949e-13
0.012211862
-3.7445181e-13
0.012419458
-2.2384528e-13
0.012604644
-2.9165233e-13
0.012770044
-4.3040772e-13
0.012918337
-6.770279e-13
0.013051981
-9.1187679e-13
0.013173097
-6.7890141e-13
0.013283449
-3.6975189e-14
0.013384471
1.257346e-12
0.013477319
3.0758571e-12
0.013562927
4.2218352e-12
0.013642053
4.6756721e-12
0.013715326
3.4122269e-12
0.013783274
1.264516e-12
0.013846348
-1.5414185e-14
0.013904944
-1.4456886e-14
0.013959412
2.6561064e-12
0.014010065
6.2536554e-12
0.014057188
9.2274916e-12
0.014101041
1.1034562e-11
0.014141861
1.0683776e-11
0.014179867
1.0365422e-11
0.01421526
1.0714667e-11
0.014248227
1.2698905e-11
0.014278939
1.6503026e-11
0.014307556
2.1158682e-11
0.014334225
2.6408665e-11
0.014359082
3.1966957e-11
0.014382254
3.7444789e-11
0.014403858
4.3608974e-11
0.014424002
4.9449538e-11
0.014442788
5.5906831e-11
0.014460308
6.1534593e-11
0.01447665
6.7215498e-11
0.014491895
7.1594927e-11
0.014506117
7.5226582e-11
0.014519387
7.6979822e-11
0.014531768
7.5882358e-11
0.014543322
7.1641335e-11
0.014554103
6.0948192e-11
0.014564166
4.5664924e-11
0.014573557
1.9600711e-11
0.014582324
-1.1853164e-11
0.014590508
-5.7710848e-11
0.014598151
-1.0827281e-10
0.014605289
-1.73382e-10
0.014611957
-2.3983613e-10
0.014618189
-3.1647537e-10
0.014624013
-3.8972928e-10
0.014629457
-4.6476394e-10
0.014634542
-5.3165536e-10
0.014639289
-5.8997973e-10
0.014643712
-6.3771266e-10
0.014647825
-6.6889755e-10
0.014651634
-6.912292e-10
0.014655147
-6.9319112e-10
0.014658368
-6.9056394e-10
0.014661299
-6.6862064e-10
0.014663946
-6.4791721e-10
0.014666311
-6.126892e-10
0.014668403
-5.8275758e-10
0.014670231
-5.4330531e-10
0.014671808
-5.1042932e-10
0.014673147
-4.7253265e-10
0.014674269
-4.3999816e-10
0.014675191
-4.0416728e-10
0.014675937
-3.7105437e-10
0.014676528
-3.350498e-10
0.014676987
-3.000468e-10
0.014677334
-2.6135322e-10
0.014677591
-2.2376645e-10
0.014677773
-1.8206621e-10
0.014677901
-1.4399868e-10
0.014677982
-1.0187808e-10
0.014678035
-6.7731875e-11
0.014678061
-3.0527729e-11
0.014678077
-5.8848894e-12
0.014678076
2.2582804e-11
0.014678079
3.5683831e-11
0.014678067
5.7028925e-11
0.01467807
6.2318249e-11
0.014678052
8.3978733e-11
0.014678064
8.6246846e-11
0.014678043
1.1359964e-10
0.014678069
1.1544246e-10
0.014678047
1.5121686e-10
0.014678099
1.4986948e-10
0.014678095
1.6499308e-10
0.014678203
1.5888595e-10
0.014678303
1.0621716e-10
0.014678584
6.5971054e-11
5.3155237e-11
0.010074383
-7.4383133e-05
0.010275849
-0.00020146599
0.010540469
-0.00026461962
0.010836396
-0.00029592755
0.011142543
-0.00030614635
0.011441586
-0.00029904323
0.011722473
-0.00028088739
0.011979781
-0.00025730764
0.012211862
-0.00023208139
0.012419458
-0.00020759574
0.012604644
-0.00018518556
0.012770044
-0.00016540055
0.012918337
-0.0001482932
0.013051981
-0.00013364393
0.013173097
-0.00012111608
0.013283449
-0.00011035161
0.013384471
-0.00010102172
0.013477319
-9.2848213e-05
0.013562927
-8.5607701e-05
0.013642053
-7.9126705e-05
0.013715326
-7.3273191e-05
0.013783274
-6.794751e-05
0.013846348
-6.3074318e-05
0.013904944
-5.8595991e-05
0.013959412
-5.4467598e-05
0.014010065
-5.0653208e-05
0.014057189
-4.7123258e-05
0.014101041
-4.3852738e-05
0.014141861
-4.0819977e-05
0.014179867
-3.8005845e-05
0.01421526
-3.5393242e-05
0.014248227
-3.2966717e-05
0.014278939
-3.0712213e-05
0.014307556
-2.8616856e-05
0.014334225
-2.6668807e-05
0.014359082
-2.4857166e-05
0.014382254
-2.3171896e-05
0.014403858
-2.160376e-05
0.014424002
-2.014426e-05
0.014442788
-1.8785561e-05
0.014460308
-1.7520436e-05
0.014476651
-1.6342203e-05
0.014491895
-1.524468e-05
0.014506118
-1.422214e-05
0.014519387
-1.3269289e-05
0.014531768
-1.2381217e-05
0.014543322
-1.1553404e-05
0.014554103
-1.0781679e-05
0.014564166
-1.0062236e-05
0.014573557
-9.3915991e-06
0.014582324
-8.7666299e-06
0.014590508
-8.1844559e-06
0.01459815
-7.6424397e-06
0.014605288
-7.1380406e-06
0.014611957
-6.6687486e-06
0.014618188
-6.2318986e-06
0.014624013
-5.8246435e-06
0.014629456
-5.443783e-06
0.014634541
-5.0859003e-06
0.014639288
-4.747246e-06
0.014643711
-4.4241376e-06
0.014647824
-4.1128381e-06
0.014651633
-3.8102347e-06
0.014655146
-3.513532e-06
0.014658367
-3.2211675e-06
0.014661298
-2.9320704e-06
0.014663944
-2.6468064e-06
0.01466631
-2.3661651e-06
0.014668402
-2.0926757e-06
0.01467023
-1.8283193e-06
0.014671806
-1.5767753e-06
0.014673146
-1.3400023e-06
0.014674267
-1.1218195e-06
0.01467519
-9.2288217e-07
0.014675936
-7.4648927e-07
0.014676527
-5.9103063e-07
0.014676986
-4.593434e-07
0.014677333
-3.4698029e-07
0.01467759
-2.5720529e-07
0.014677772
-1.8228503e-07
0.0146779
-1.2758739e-07
0.014677981
-8.1248723e-08
0.014678034
-5.3238027e-08
0.01467806
-2.5655466e-08
0.014678077
-1.6704035e-08
0.014678075
1.3298608e-09
0.014678079
-3.5239139e-09
0.014678066
1.2945618e-08
0.01467807
-3.6848294e-09
0.014678052
1.8164422e-08
0.014678064
-1.1750722e-08
0.014678042
2.1642863e-08
0.014678069
-2.6527181e-08
0.014678047
2.2315354e-08
0.014678099
-5.214749e-08
0.014678094
4.7939892e-09
0.014678203
-1.0841225e-07
0.014678303
-9.9851305e-08
0.014678584
-2.8123884e-07
-5.2114764e-07
0.010101125
-0.00017550777
0.010347883
-0.00044822425
0.010645913
-0.00056264936
0.010960847
-0.00061086184
0.011269219
-0.00061451861
0.011554366
-0.00058418988
0.011807917
-0.0005344385
0.012027601
-0.00047699172
0.012214837
-0.00041931749
0.012373018
-0.00036577672
0.012506297
-0.00031846407
0.012618823
-0.00027792662
0.012714342
-0.00024381241
0.012796031
-0.0002153331
0.012866483
-0.00019156787
0.012927765
-0.00017163335
0.012981504
-0.00015476124
0.013028978
-0.00014032178
0.013071188
-0.00012781818
0.013108929
-0.0001168679
0.013142836
-0.00010718014
0.013173423
-9.8534732e-05
0.013201113
-9.076424e-05
0.013226257
-8.373993e-05
0.013249151
-7.7361201e-05
0.013270046
-7.1547856e-05
0.013289157
-6.6234578e-05
0.013306671
-6.1367042e-05
0.013322751
-5.6899226e-05
0.013337536
-5.2791574e-05
0.013351153
-4.9009699e-05
0.013363709
-4.5523435e-05
0.013375303
-4.2306106e-05
0.01338602
-3.9333957e-05
0.013395937
-3.6585728e-05
0.013405123
-3.4042325e-05
0.013413637
-3.1686579e-05
0.013421536
-2.9503031e-05
0.01342887
-2.747774e-05
0.013435682
-2.5598096e-05
0.013442015
-2.3852661e-05
0.013447904
-2.2231027e-05
0.013453383
-2.0723701e-05
0.013458482
-1.9322004e-05
0.013463231
-1.8018004e-05
0.013467654
-1.6804426e-05
0.013471776
-1.5674623e-05
0.013475616
-1.4622508e-05
0.013479197
-1.3642558e-05
0.013482535
-1.2729751e-05
0.013485648
-1.1879596e-05
0.013488551
-1.1088011e-05
0.01349126
-1.0351337e-05
0.013493788
-9.6660992e-06
0.013496148
-9.0290045e-06
0.013498353
-8.4365761e-06
0.013500413
-7.8852233e-06
0.01350234
-7.3708328e-06
0.013504144
-6.8890578e-06
0.013505831
-6.4349606e-06
0.013507411
-6.003647e-06
0.013508888
-5.5899418e-06
0.013510267
-5.1893939e-06
0.013511552
-4.7977906e-06
0.013512743
-4.4124768e-06
0.013513842
-4.0313721e-06
0.01351485
-3.6545967e-06
0.013515767
-3.2826119e-06
0.013516593
-2.9183575e-06
0.013517329
-2.5641464e-06
0.013517977
-2.2248329e-06
0.01351854
-1.9030292e-06
0.013519023
-1.6041733e-06
0.013519429
-1.3293824e-06
0.013519766
-1.0836677e-06
0.013520041
-8.6519442e-07
0.01352026
-6.7842351e-07
0.013520431
-5.1765835e-07
0.013520561
-3.8779135e-07
0.013520658
-2.7864497e-07
0.013520728
-1.9757415e-07
0.013520776
-1.2899184e-07
0.013520808
-8.5737136e-08
0.013520827
-4.4797489e-08
0.013520839
-2.8706441e-08
0.013520844
-3.0592012e-09
0.013520847
-6.1234858e-09
0.013520845
1.4786728e-08
0.013520845
-3.285522e-09
0.013520841
2.1476538e-08
0.013520841
-1.1681221e-08
0.01352084
2.3580032e-08
0.013520842
-2.8811889e-08
0.013520844
1.9838182e-08
0.013520852
-5.9653081e-08
0.013520865
-7.8997358e-09
0.013520884
-1.274496e-07
0.013520916
-1.3249118e-07
0.013520956
-3.2101843e-07
-5.782786e-07
0.010194547
-0.00037005492
0.010510297
-0.00076397368
0.010823883
-0.00087623601
0.011103868
-0.00089084618
0.011333741
-0.00084439178
0.011509103
-0.00075955213
0.011633657
-0.00065899279
0.011714988
-0.00055832291
0.011761891
-0.00046621955
0.011782797
-0.00038668342
0.011784951
-0.00032061796
0.011774171
-0.00026714681
0.011754925
-0.00022456565
0.011730492
-0.00019090046
0.011703199
-0.00016427514
0.011674643
-0.00014307745
0.011645887
-0.00012600496
0.011617615
-0.00011204939
0.011590249
-0.00010045301
0.011564039
-9.0657431e-05
0.011539115
-8.2255694e-05
0.011515532
-7.4952156e-05
0.011493299
-6.8531189e-05
0.011472393
-6.2833833e-05
0.011452773
-5.7740986e-05
0.011434386
-5.316153e-05
0.011417176
-4.9024126e-05
0.01140108
-4.5271597e-05
0.011386038
-4.185713e-05
0.011371988
-3.8741738e-05
0.011358871
-3.5892487e-05
0.011346629
-3.3281237e-05
0.011335207
-3.0883696e-05
0.011324551
-2.8678692e-05
0.011314613
-2.6647656e-05
0.011305345
-2.4774219e-05
0.011296703
-2.3043926e-05
0.011288644
-2.1443985e-05
0.011281129
-1.9963044e-05
0.011274122
-1.8590987e-05
0.011267588
-1.7318756e-05
0.011261495
-1.61382e-05
0.011255813
-1.5041963e-05
0.011250515
-1.402338e-05
0.011245573
-1.307641e-05
0.011240964
-1.2195552e-05
0.011236665
-1.1375807e-05
0.011232655
-1.0612607e-05
0.011228915
-9.9018235e-06
0.011225424
-9.239697e-06
0.011222168
-8.6228884e-06
0.011219128
-8.0483773e-06
0.01121629
-7.5135251e-06
0.01121364
-7.0158826e-06
0.011211164
-6.5532433e-06
0.011208851
-6.1233404e-06
0.011206689
-5.7239164e-06
0.011204671
-5.3523671e-06
0.011202788
-5.0059152e-06
0.011201034
-4.6812916e-06
0.011199406
-4.3751205e-06
0.011197899
-4.0836615e-06
0.011196514
-3.8034779e-06
0.011195247
-3.5311057e-06
0.011194099
-3.264037e-06
0.011193067
-3.0000143e-06
0.011192151
-2.7383943e-06
0.011191348
-2.4786724e-06
0.011190652
-2.2224416e-06
0.011190058
-1.9707211e-06
0.011189561
-1.7269639e-06
0.01118915
-1.4927245e-06
0.011188819
-1.2724544e-06
0.011188557
-1.0668825e-06
0.011188354
-8.8064138e-07
0.011188201
-7.1236297e-07
0.011188089
-5.6658899e-07
0.011188011
-4.3894386e-07
0.011187957
-3.3440949e-07
0.011187924
-2.4498355e-07
0.011187904
-1.7742713e-07
0.011187894
-1.1944867e-07
0.01118789
-8.1621606e-08
0.011187892
-4.6199449e-08
0.011187893
-3.0230717e-08
0.011187899
-8.438905e-09
0.011187901
-7.6833354e-09
0.011187907
8.0590066e-09
0.011187906
-1.9354336e-09
0.011187915
1.3263807e-08
0.011187908
-5.2836396e-09
0.01118792
1.2122099e-08
0.011187905
-1.439595e-08
0.011187922
3.2756487e-09
0.011187893
-3.0851515e-08
0.01118791
-2.4380202e-08
0.011187845
-6.2366694e-08
0.011187807
-9.5039057e-08
0.011187611
-1.2483577e-07
-2.3023628e-07
0.010379776
-0.00074983119
0.010574967
-0.00095916431
0.01062758
-0.00092884952
0.01056664
-0.00082990566
0.010429447
-0.00070719881
0.010247193
-0.00057729867
0.010042592
-0.00045439096
0.009832618
-0.00034834934
0.0096291833
-0.00026278481
0.0094394518
-0.00019695192
0.0092669477
-0.0001481139
0.0091125601
-0.00011275913
0.008975635
-8.7640611e-05
0.0088546743
-6.9939796e-05
0.0087478446
-5.7445399e-05
0.0086532848
-4.851766e-05
0.0085692703
-4.1990442e-05
0.008494284
-3.7062984e-05
0.0084270324
-3.3201436e-05
0.0083664333
-3.0058345e-05
0.0083115891
-2.7411651e-05
0.0082617579
-2.5121007e-05
0.0082163246
-2.3097869e-05
0.0081747766
-2.1285776e-05
0.0081366834
-1.9647703e-05
0.0081016802
-1.815822e-05
0.0080694549
-1.6798759e-05
0.0080397381
-1.5554848e-05
0.0080122955
-1.4414597e-05
0.0079869215
-1.3367863e-05
0.0079634347
-1.2405796e-05
0.007941674
-1.1520564e-05
0.0079214955
-1.0705141e-05
0.0079027701
-9.9531846e-06
0.0078853815
-9.2589481e-06
0.0078692246
-8.6172509e-06
0.0078542041
-8.0234533e-06
0.0078402335
-7.4734183e-06
0.0078272338
-6.9634671e-06
0.0078151331
-6.490305e-06
0.0078038653
-6.0509682e-06
0.0077933699
-5.6427672e-06
0.0077835912
-5.2632599e-06
0.0077744781
-4.9102189e-06
0.0077659833
-4.5816246e-06
0.0077580634
-4.2756287e-06
0.0077506781
-3.9905578e-06
0.0077437903
-3.7248677e-06
0.0077373655
-3.4771601e-06
0.0077313719
-3.2461461e-06
0.0077257796
-3.0306684e-06
0.0077205608
-2.8296887e-06
0.0077156894
-2.6422886e-06
0.0077111411
-2.4676717e-06
0.007706893
-2.3051243e-06
0.0077029236
-2.154001e-06
0.0076992134
-2.0136715e-06
0.0076957445
-1.8834478e-06
0.0076925013
-1.7626005e-06
0.0076894703
-1.6501826e-06
0.0076866406
-1.545243e-06
0.0076840035
-1.4464938e-06
0.007681553
-1.3528347e-06
0.0076792848
-1.2627916e-06
0.0076771962
-1.1754081e-06
0.0076752856
-1.0893598e-06
0.0076735514
-1.0042251e-06
0.0076719919
-9.1915494e-07
0.0076706041
-8.3455146e-07
0.0076693836
-7.5013577e-07
0.0076683239
-6.6717653e-07
0.007667417
-5.8573234e-07
0.0076666525
-5.0775732e-07
0.0076660189
-4.33147e-07
0.0076655028
-3.6429377e-07
0.0076650909
-3.0032523e-07
0.0076647686
-2.4397418e-07
0.0076645228
-1.9303555e-07
0.0076643394
-1.5078518e-07
0.0076642078
-1.132031e-07
0.0076641152
-8.4665261e-08
0.0076640547
-5.8866081e-08
0.0076640154
-4.2150244e-08
0.0076639947
-2.5350106e-08
0.0076639824
-1.7866828e-08
0.007663981
-6.9231076e-09
0.0076639796
-6.1074485e-09
0.0076639861
1.7285963e-09
0.0076639863
-1.9599875e-09
0.0076639953
4.4750865e-09
0.007663992
-1.8193535e-09
0.0076640012
3.0577777e-09
0.0076639902
-3.4422388e-09
0.0076639969
-3.6681321e-09
0.0076639712
-5.3728241e-09
0.0076639658
-1.9123393e-08
0.0076639044
-6.1724195e-10
0.0076638405
-3.0694952e-08
0.0076636483
6.780963e-08
5.8484842e-08
0.0092501688
0.0082910045
0.007362155
0.0065322493
0.0058250505
0.0052477519
0.0047933609
0.0044450116
0.0041822267
0.0039852748
0.0038371609
0.0037244018
0.0036367612
0.0035668214
0.003509376
0.0034608583
0.0034188679
0.0033818049
0.0033486035
0.0033185451
0.0032911334
0.0032660123
0.0032429145
0.0032216288
0.0032019812
0.003183823
0.0031670243
0.0031514693
0.0031370546
0.0031236867
0.0031112809
0.0030997603
0.0030890553
0.0030791022
0.0030698433
0.003061226
0.0030532025
0.0030457291
0.0030387656
0.0030322752
0.0030262243
0.0030205815
0.0030153183
0.0030104081
0.0030058265
0.0030015508
0.0029975602
0.0029938353
0.002990358
0.0029871118
0.0029840811
0.0029812513
0.0029786089
0.0029761412
0.0029738361
0.0029716821
0.0029696685
0.0029677852
0.0029660227
0.0029643726
0.0029628275
0.002961381
0.0029600283
0.0029587655
0.0029575901
0.0029565007
0.0029554965
0.0029545773
0.0029537428
0.0029529927
0.0029523256
0.00295174
0.0029512324
0.0029507994
0.0029504353
0.0029501351
0.0029498913
0.0029496984
0.0029495478
0.0029494347
0.0029493501
0.0029492914
0.0029492493
0.002949224
0.0029492062
0.0029491994
0.0029491934
0.0029491953
0.0029491935
0.0029491981
0.0029491963
0.0029491994
0.0029491957
0.0029491918
0.0029491863
0.0029491674
0.0029491672
0.0029491369
0.0029492048
)
;

boundaryField
{
    top
    {
        type            calculated;
        value           uniform 0;
    }
    inlet
    {
        type            calculated;
        value           nonuniform List<scalar> 10(-0.01 -0.01 -0.01 -0.01 -0.01 -0.01 -0.01 -0.01 -0.01 -0.01);
    }
    outlet
    {
        type            calculated;
        value           nonuniform List<scalar> 10(0.0029492637 0.0076633605 0.011187264 0.013521014 0.014679106 0.014679106 0.013521013 0.011187263 0.0076633597 0.0029492633);
    }
    bottom
    {
        type            calculated;
        value           uniform 0;
    }
    back
    {
        type            empty;
        value           nonuniform 0();
    }
    front
    {
        type            empty;
        value           nonuniform 0();
    }
}


// ************************************************************************* //
