/*--------------------------------*- C++ -*----------------------------------*\
| =========                 |                                                 |
| \\      /  F ield         | OpenFOAM: The Open Source CFD Toolbox           |
|  \\    /   O peration     | Version:  v1812                                 |
|   \\  /    A nd           | Web:      www.OpenFOAM.com                      |
|    \\/     M anipulation  |                                                 |
\*---------------------------------------------------------------------------*/
FoamFile
{
    version     2.0;
    format      ascii;
    class       surfaceScalarField;
    location    "18";
    object      phi;
}
// * * * * * * * * * * * * * * * * * * * * * * * * * * * * * * * * * * * * * //

dimensions      [0 3 -1 0 0 0 0];
oriented        oriented;


internalField   nonuniform List<scalar> 
1890
(
0.0093061958
0.00069380425
0.0082843931
0.0010218027
0.0073298986
0.00095449446
0.0064869553
0.00084294331
0.0057695845
0.00071737078
0.00518986
0.00057972443
0.004738168
0.00045169205
0.00439519
0.00034297802
0.0041390268
0.00025616318
0.003949107
0.00018991983
0.003807888
0.00014121897
0.0037013782
0.0001065098
0.003619058
8.2320219e-05
0.0035534117
6.5646243e-05
0.0034992845
5.4127248e-05
0.0034532444
4.6040037e-05
0.0034130502
4.0194282e-05
0.0033772574
3.5792748e-05
0.0033449386
3.2318757e-05
0.0033154894
2.9449282e-05
0.0032885008
2.6988583e-05
0.0032636805
2.4820307e-05
0.003240805
2.2875484e-05
0.0032196926
2.1112417e-05
0.0032001879
1.9504651e-05
0.0031821539
1.8034006e-05
0.0031654672
1.6686718e-05
0.0031500158
1.5451355e-05
0.0031356979
1.4317859e-05
0.0031224209
1.3277069e-05
0.0031101003
1.2320594e-05
0.0030986596
1.1440725e-05
0.0030880292
1.063044e-05
0.0030781458
9.8833695e-06
0.003068952
9.1937719e-06
0.0030603955
8.5564923e-06
0.0030524286
7.9669103e-06
0.0030450077
7.4208941e-06
0.0030380929
6.9147402e-06
0.0030316478
6.4451197e-06
0.0030256387
6.009055e-06
0.0030200349
5.6038475e-06
0.0030148078
5.2270771e-06
0.0030099313
4.876543e-06
0.0030053811
4.5502535e-06
0.0030011346
4.2464046e-06
0.0029971713
3.9633384e-06
0.0029934717
3.699559e-06
0.002990018
3.4536791e-06
0.0029867936
3.2244201e-06
0.002983783
3.0106189e-06
0.0029809718
2.8111763e-06
0.0029783467
2.6250951e-06
0.0029758953
2.4514448e-06
0.002973606
2.2893598e-06
0.0029714679
2.1380634e-06
0.0029694711
1.9968114e-06
0.0029676061
1.8649547e-06
0.0029658642
1.7418591e-06
0.0029642372
1.62694e-06
0.0029627176
1.5196523e-06
0.0029612982
1.4194673e-06
0.0029599723
1.3259069e-06
0.0029587338
1.2385118e-06
0.002957577
1.1568619e-06
0.0029564964
1.0805848e-06
0.002955487
1.0093249e-06
0.0029545442
9.4276811e-07
0.0029536635
8.8063421e-07
0.0029528409
8.2261829e-07
0.0029520724
7.6846674e-07
0.0029513546
7.1789759e-07
0.002950684
6.7064891e-07
0.0029500575
6.2648507e-07
0.0029494724
5.8519178e-07
0.0029489258
5.4657994e-07
0.0029484152
5.1051215e-07
0.0029479383
4.7681358e-07
0.0029474929
4.4539896e-07
0.0029470768
4.1607763e-07
0.002946688
3.8875257e-07
0.0029463249
3.632095e-07
0.0029459856
3.3935604e-07
0.0029456687
3.169834e-07
0.0029453726
2.9608137e-07
0.0029450962
2.7642257e-07
0.0029448379
2.5821282e-07
0.0029445967
2.4105833e-07
0.0029443712
2.253282e-07
0.0029441609
2.1041322e-07
0.0029439642
1.9684753e-07
0.0029437803
1.8377495e-07
0.0029436083
1.7211536e-07
0.002943448
1.6037767e-07
0.0029432978
1.5018554e-07
0.0029431574
1.4029292e-07
0.0029430254
1.321096e-07
0.0029429003
1.2511276e-07
0.0029427808
1.1941461e-07
1.2577329e-07
0.010339525
0.00035427931
0.010570754
0.00079057333
0.010606301
0.00091894817
0.010547572
0.00090167133
0.010422317
0.0008426262
0.010244356
0.00075768557
0.010039421
0.00065662743
0.0098287427
0.00055365586
0.009625135
0.00045977083
0.0094353013
0.00037975353
0.0092624277
0.00031409258
0.0091075333
0.00026140425
0.008970154
0.00021969948
0.0088489024
0.00018689785
0.0087419716
0.00016105801
0.0086474927
0.00014051893
0.008563694
0.00012399295
0.0084890108
0.00011047599
0.0084221097
9.9219866e-05
0.0083618776
8.9681404e-05
0.0083073955
8.1470668e-05
0.0082579079
7.4307847e-05
0.0082127929
6.7990494e-05
0.0081715354
6.2369982e-05
0.008133705
5.7335005e-05
0.0080989388
5.2800173e-05
0.0080669273
4.8698256e-05
0.0080374037
4.4974949e-05
0.0080101362
4.1585385e-05
0.0079849214
3.8491845e-05
0.0079615798
3.5662153e-05
0.0079399519
3.3068611e-05
0.0079198952
3.0687172e-05
0.0079012817
2.8496849e-05
0.0078839962
2.6479239e-05
0.0078679346
2.4618138e-05
0.0078530023
2.2899236e-05
0.0078391133
2.1309838e-05
0.0078261894
1.9838655e-05
0.0078141589
1.8475608e-05
0.0078029563
1.7211664e-05
0.0077925214
1.6038726e-05
0.007782799
1.4949481e-05
0.0077737382
1.393734e-05
0.0077652921
1.2996323e-05
0.0077574175
1.2121004e-05
0.0077500744
1.1306452e-05
0.0077432258
1.0548147e-05
0.0077368375
9.8419711e-06
0.0077308778
9.1841344e-06
0.0077253173
8.571146e-06
0.0077201287
7.9998147e-06
0.0077152866
7.4671676e-06
0.0077107675
6.970486e-06
0.0077065496
6.507251e-06
0.0077026125
6.0751356e-06
0.0076989373
5.6720148e-06
0.0076955064
5.2958972e-06
0.0076923033
4.9449566e-06
0.0076893128
4.6174702e-06
0.0076865206
4.3118342e-06
0.0076839135
4.0265678e-06
0.0076814792
3.7602631e-06
0.007679206
3.5116418e-06
0.0076770834
3.279503e-06
0.0076751012
3.0627415e-06
0.0076732501
2.8603528e-06
0.0076715215
2.6713908e-06
0.0076699072
2.4949741e-06
0.0076683995
2.3302876e-06
0.0076669915
2.1765258e-06
0.0076656765
2.0329407e-06
0.0076644483
1.8988378e-06
0.0076633012
1.7735431e-06
0.0076622299
1.6564939e-06
0.0076612293
1.5471315e-06
0.0076602948
1.445006e-06
0.007659422
1.3496362e-06
0.0076586068
1.2606468e-06
0.0076578453
1.1775475e-06
0.0076571341
1.1000367e-06
0.0076564698
1.0275341e-06
0.0076558492
9.5989933e-07
0.0076552697
8.9649844e-07
0.0076547283
8.3743449e-07
0.0076542228
7.8189235e-07
0.0076537505
7.3046401e-07
0.0076533094
6.821408e-07
0.0076528972
6.3760815e-07
0.0076525127
5.9497014e-07
0.0076521528
5.5670933e-07
0.0076518171
5.1953516e-07
0.0076515027
4.8640398e-07
0.0076512105
4.5245432e-07
0.0076509355
4.2510391e-07
0.0076506807
3.9525578e-07
0.0076504386
3.7432576e-07
0.0076502165
3.4709777e-07
0.0076499999
3.3607132e-07
3.1077526e-07
0.010188704
0.00016557515
0.010530487
0.00044879097
0.010851453
0.00059798174
0.011124174
0.00062895021
0.011350581
0.00061621883
0.011524486
0.00058378053
0.01164633
0.00053478419
0.011724155
0.00047583049
0.011767999
0.00041592665
0.011786639
0.00036111399
0.011787114
0.0003136171
0.011775058
0.00027346024
0.011754861
0.00023989717
0.011729768
0.00021199029
0.011702054
0.00018877259
0.011673239
0.00016933387
0.011644339
0.00015289295
0.011616003
0.00013881182
0.011588629
0.00012659379
0.011562446
0.00011586444
0.011537572
0.00010634493
0.011514052
9.782699e-05
0.01149189
9.0153352e-05
0.011471056
8.3203355e-05
0.011451509
7.68826e-05
0.011433193
7.111555e-05
0.011416051
6.5840286e-05
0.011400021
6.1004902e-05
0.011385042
5.6565064e-05
0.011371051
5.248233e-05
0.01135799
4.8723021e-05
0.011345801
4.5257381e-05
0.01133443
4.2058989e-05
0.011323822
3.9104268e-05
0.011313929
3.6372116e-05
0.011304704
3.38436e-05
0.011296101
3.1501684e-05
0.01128808
2.9331008e-05
0.011280601
2.7317691e-05
0.011273628
2.5449168e-05
0.011267125
2.3714045e-05
0.011261062
2.210195e-05
0.011255408
2.0603456e-05
0.011250135
1.920995e-05
0.011245218
1.7913568e-05
0.011240632
1.6707115e-05
0.011236354
1.5583982e-05
0.011232365
1.4538117e-05
0.011228643
1.3563935e-05
0.01122517
1.2656302e-05
0.011221931
1.1810492e-05
0.011218909
1.1022112e-05
0.011216089
1.0287139e-05
0.011213457
9.6018254e-06
0.011211002
8.962718e-06
0.01120871
8.3666297e-06
0.011206572
7.8105975e-06
0.011204576
7.2918855e-06
0.011202713
6.8079269e-06
0.011200974
6.3563526e-06
0.011199351
5.9349619e-06
0.011197836
5.5416804e-06
0.011196421
5.1746167e-06
0.011195101
4.8319814e-06
0.011193868
4.5121406e-06
0.011192718
4.213563e-06
0.011191643
3.9348309e-06
0.01119064
3.6746255e-06
0.011189703
3.4317187e-06
0.011188829
3.2049295e-06
0.011188012
2.9931983e-06
0.011187249
2.7954729e-06
0.011186537
2.6108292e-06
0.011185873
2.4383753e-06
0.011185252
2.2773347e-06
0.011184672
2.1269223e-06
0.01118413
1.9865078e-06
0.011183625
1.8553629e-06
0.011183152
1.732988e-06
0.011182711
1.6186397e-06
0.011182299
1.5119372e-06
0.011181915
1.4121226e-06
0.011181556
1.3190698e-06
0.01118122
1.2318477e-06
0.011180907
1.1506919e-06
0.011180614
1.0745109e-06
0.011180341
1.0041028e-06
0.011180086
9.3726262e-07
0.011179847
8.7617847e-07
0.011179625
8.1774682e-07
0.011179416
7.6533252e-07
0.011179222
7.1275477e-07
0.01117904
6.6810164e-07
0.011178872
6.2104347e-07
0.011178712
5.853228e-07
0.011178566
5.4112667e-07
0.011178425
5.1515603e-07
0.0111783
4.7224773e-07
0.011178177
4.5903486e-07
4.1608239e-07
0.010097182
6.8393549e-05
0.010346961
0.0001990111
0.010662469
0.00028247385
0.010982753
0.00030866646
0.011290229
0.00030874339
0.011575251
0.00029875786
0.011829022
0.00028101344
0.012047865
0.00025698754
0.012233272
0.00023051981
0.01238924
0.00020514589
0.012520295
0.00018256234
0.012630755
0.00016299955
0.012724428
0.00014622489
0.012804515
0.0001319031
0.012873613
0.00011967425
0.012933772
0.0001091746
0.012986596
0.00010006906
0.013033332
9.2076358e-05
0.01307495
8.4975244e-05
0.013112216
7.8598602e-05
0.013145739
7.282229e-05
0.013176012
6.7553926e-05
0.013203441
6.2723911e-05
0.013228366
5.8278883e-05
0.013251071
5.4176975e-05
0.013271802
5.0384421e-05
0.01329077
4.6873154e-05
0.013308155
4.3619173e-05
0.013324119
4.0601454e-05
0.0133388
3.7801275e-05
0.013352321
3.5201745e-05
0.013364791
3.2787521e-05
0.013376306
3.0544583e-05
0.01338695
2.8460081e-05
0.0133968
2.6522216e-05
0.013405923
2.4720133e-05
0.013414381
2.304384e-05
0.013422228
2.1484138e-05
0.013429513
2.0032551e-05
0.013436281
1.8681258e-05
0.013442572
1.7423048e-05
0.013448423
1.6251266e-05
0.013453866
1.5159752e-05
0.013458933
1.4142824e-05
0.013463652
1.3195219e-05
0.013468047
1.2312072e-05
0.013472142
1.1488875e-05
0.013475959
1.0721445e-05
0.013479517
1.0005917e-05
0.013482834
9.3386949e-06
0.013485928
8.7164427e-06
0.013488814
8.1360742e-06
0.013491507
7.5947037e-06
0.013494019
7.089671e-06
0.013496363
6.6185008e-06
0.013498551
6.178892e-06
0.013500593
5.7687016e-06
0.013502499
5.3859274e-06
0.013504278
5.0287161e-06
0.013505939
4.6953368e-06
0.01350749
4.3841719e-06
0.013508938
4.0937349e-06
0.01351029
3.8226193e-06
0.013511552
3.5695372e-06
0.013512731
3.3332802e-06
0.013513832
3.1127269e-06
0.01351486
2.9068328e-06
0.01351582
2.71461e-06
0.013516716
2.535149e-06
0.013517554
2.3675927e-06
0.013518336
2.2111262e-06
0.013519066
2.0650123e-06
0.013519748
1.9285719e-06
0.013520386
1.8011478e-06
0.013520981
1.6821868e-06
0.013521537
1.5710899e-06
0.013522056
1.4673853e-06
0.013522541
1.370515e-06
0.013522994
1.2801028e-06
0.013523417
1.195589e-06
0.013523812
1.1167272e-06
0.013524181
1.042933e-06
0.013524526
9.741851e-07
0.013524848
9.0972603e-07
0.013525148
8.4992659e-07
0.01352543
7.936659e-07
0.013525692
7.4160638e-07
0.013525937
6.9215808e-07
0.013526166
6.4738623e-07
0.01352638
6.0396748e-07
0.01352658
5.6507625e-07
0.013526766
5.2579795e-07
0.013526941
4.9376218e-07
0.013527104
4.5848286e-07
0.013527257
4.3263798e-07
0.013527398
3.9887041e-07
0.013527533
3.8076793e-07
0.013527659
3.4707392e-07
0.01352778
3.3801483e-07
3.0563859e-07
0.010068394
-5.0939279e-12
0.010267405
-1.3177246e-11
0.010549879
-1.4256915e-11
0.010858545
-1.2290722e-11
0.011167288
-9.6541271e-12
0.011466046
-9.6204964e-12
0.01174706
-1.0359702e-11
0.012004047
-1.1847762e-11
0.012234567
-1.3450833e-11
0.012439713
-1.5420307e-11
0.012622275
-1.5965007e-11
0.012785275
-1.454013e-11
0.0129315
-1.2900296e-11
0.013063403
-1.137732e-11
0.013183077
-1.0982998e-11
0.013292252
-1.1366564e-11
0.013392321
-1.0650163e-11
0.013484397
-8.7715011e-12
0.013569373
-6.9876574e-12
0.013647971
-7.8833684e-12
0.013720793
-1.0917912e-11
0.013788347
-1.3066517e-11
0.013851071
-1.1846466e-11
0.01390935
-1.2159315e-11
0.013963527
-1.3017917e-11
0.014013912
-1.1622939e-11
0.014060785
-9.282619e-12
0.014104404
-6.3479749e-12
0.014145005
-3.2526626e-12
0.014182807
-3.8963994e-12
0.014218008
-6.4787392e-12
0.014250796
-1.113904e-11
0.014281341
-1.4087209e-11
0.014309801
-1.4406252e-11
0.014336323
-1.2167004e-11
0.014361043
-7.7513346e-12
0.014384087
-2.5165149e-12
0.014405571
-2.1968643e-13
0.014425604
-5.1087055e-13
0.014444285
-3.2036769e-12
0.014461708
-6.9289306e-12
0.014477959
-1.1668941e-11
0.014493119
-1.4328872e-11
0.014507262
-1.5546825e-11
0.014520457
-1.4076798e-11
0.014532769
-9.7575605e-12
0.014544258
-4.419674e-12
0.014554979
1.9477486e-12
0.014564985
9.8502945e-12
0.014574324
1.8451591e-11
0.01458304
2.1865389e-11
0.014591177
1.4911871e-11
0.014598771
5.2639817e-12
0.014605861
-6.4910371e-12
0.014612479
-1.5636808e-11
0.014618658
-1.5671867e-11
0.014624427
-6.1130125e-12
0.014629813
7.1537905e-12
0.014634842
2.1935979e-11
0.014639537
2.9188683e-11
0.014643921
2.7632633e-11
0.014648015
1.7794105e-11
0.014651837
6.0620968e-12
0.014655407
-8.4562295e-12
0.01465874
-1.9117126e-11
0.014661853
-1.869565e-11
0.01466476
-1.1287743e-11
0.014667474
7.369062e-13
0.01467001
2.2201951e-11
0.014672377
3.5114769e-11
0.014674588
3.7697586e-11
0.014676653
2.2150961e-11
0.014678582
2.9287002e-12
0.014680383
-2.2210533e-11
0.014682065
-3.8866547e-11
0.014683637
-2.8832988e-11
0.014685104
-6.3467931e-12
0.014686474
2.0895255e-11
0.014687755
4.5996167e-11
0.01468895
4.5970602e-11
0.014690066
2.0674276e-11
0.014691109
-8.1018744e-12
0.014692084
-3.3675907e-11
0.014692993
-4.0870533e-11
0.014693842
-1.6805744e-11
0.014694637
-1.8550835e-12
0.01469538
1.5263716e-11
0.014696071
5.7237838e-11
0.014696717
9.4039464e-11
0.014697322
3.2418786e-11
0.014697888
-5.1607009e-11
0.014698412
-7.5379893e-11
0.014698906
-1.0990862e-10
0.014699366
5.4203175e-12
0.014699799
1.9164045e-10
0.014700196
1.2266722e-10
0.014700577
-7.5821274e-11
0.014700925
-1.1723045e-10
0.014701263
-8.1180664e-11
-6.5990073e-11
0.010068394
-6.8393558e-05
0.010267405
-0.00019901113
0.010549879
-0.00028247388
0.010858545
-0.00030866649
0.011167288
-0.00030874342
0.011466046
-0.00029875789
0.01174706
-0.00028101346
0.012004047
-0.00025698756
0.012234567
-0.00023051983
0.012439713
-0.00020514591
0.012622275
-0.00018256236
0.012785275
-0.00016299958
0.0129315
-0.00014622491
0.013063403
-0.00013190313
0.013183077
-0.00011967427
0.013292252
-0.00010917462
0.013392321
-0.00010006908
0.013484397
-9.2076368e-05
0.013569373
-8.4975254e-05
0.013647971
-7.8598617e-05
0.013720793
-7.282231e-05
0.013788347
-6.7553944e-05
0.013851071
-6.2723932e-05
0.01390935
-5.8278906e-05
0.013963527
-5.4176998e-05
0.014013912
-5.0384442e-05
0.014060785
-4.6873172e-05
0.014104404
-4.3619183e-05
0.014145005
-4.0601461e-05
0.014182807
-3.7801281e-05
0.014218008
-3.520176e-05
0.014250796
-3.2787543e-05
0.014281341
-3.0544607e-05
0.014309801
-2.8460106e-05
0.014336323
-2.6522234e-05
0.014361043
-2.4720142e-05
0.014384087
-2.3043845e-05
0.014405571
-2.1484143e-05
0.014425604
-2.0032556e-05
0.014444285
-1.8681266e-05
0.014461708
-1.7423065e-05
0.014477959
-1.6251284e-05
0.014493119
-1.5159772e-05
0.014507262
-1.4142845e-05
0.014520457
-1.319524e-05
0.014532769
-1.2312089e-05
0.014544258
-1.1488881e-05
0.014554979
-1.0721442e-05
0.014564985
-1.0005898e-05
0.014574324
-9.3386651e-06
0.01458304
-8.716416e-06
0.014591177
-8.136051e-06
0.014598771
-7.5946963e-06
0.014605861
-7.0896794e-06
0.014612479
-6.6185173e-06
0.014618658
-6.1789057e-06
0.014624427
-5.7687022e-06
0.014629813
-5.3859173e-06
0.014634842
-5.0286904e-06
0.014639537
-4.6952936e-06
0.014643921
-4.3841326e-06
0.014648015
-4.0937038e-06
0.014651837
-3.8226083e-06
0.014655407
-3.5695447e-06
0.01465874
-3.3333076e-06
0.014661853
-3.1127599e-06
0.01466476
-2.9068508e-06
0.014667475
-2.7146086e-06
0.01467001
-2.5351239e-06
0.014672377
-2.3675374e-06
0.014674588
-2.2110789e-06
0.014676653
-2.0649804e-06
0.014678582
-1.928569e-06
0.014680383
-1.8011795e-06
0.014682065
-1.6822267e-06
0.014683637
-1.5711184e-06
0.014685104
-1.4673863e-06
0.014686474
-1.3704906e-06
0.014687755
-1.2800644e-06
0.01468895
-1.1955434e-06
0.014690066
-1.1167093e-06
0.014691109
-1.0429555e-06
0.014692084
-9.7421285e-07
0.014692993
-9.0975799e-07
0.014693842
-8.4994581e-07
0.014694637
-7.9366152e-07
0.01469538
-7.4158772e-07
0.014696071
-6.9211647e-07
0.014696717
-6.4729492e-07
0.014697322
-6.0384417e-07
0.014697888
-5.6524446e-07
0.014698413
-5.2607905e-07
0.014698906
-4.9359336e-07
0.014699366
-4.5819733e-07
0.014699799
-4.3272542e-07
0.014700196
-3.9909216e-07
0.014700577
-3.8084028e-07
0.014700925
-3.4703521e-07
0.014701263
-3.3803736e-07
-3.0571809e-07
0.010097182
-0.00016557515
0.010346961
-0.000448791
0.010662469
-0.00059798177
0.010982753
-0.00062895025
0.011290229
-0.00061621886
0.011575251
-0.00058378055
0.011829022
-0.0005347842
0.012047865
-0.0004758305
0.012233272
-0.00041592666
0.01238924
-0.000361114
0.012520295
-0.00031361712
0.012630755
-0.00027346026
0.012724428
-0.00023989719
0.012804515
-0.00021199031
0.012873613
-0.00018877261
0.012933772
-0.00016933388
0.012986596
-0.00015289296
0.013033332
-0.00013881183
0.01307495
-0.00012659379
0.013112216
-0.00011586445
0.013145739
-0.00010634494
0.013176012
-9.7827005e-05
0.013203441
-9.0153367e-05
0.013228366
-8.3203372e-05
0.013251071
-7.6882621e-05
0.013271802
-7.1115567e-05
0.01329077
-6.5840296e-05
0.013308155
-6.1004909e-05
0.013324119
-5.656507e-05
0.0133388
-5.248234e-05
0.013352321
-4.872303e-05
0.013364791
-4.5257393e-05
0.013376305
-4.2059002e-05
0.01338695
-3.9104278e-05
0.0133968
-3.6372127e-05
0.013405923
-3.3843613e-05
0.013414381
-3.1501697e-05
0.013422228
-2.9331019e-05
0.013429513
-2.7317702e-05
0.013436281
-2.5449179e-05
0.013442572
-2.3714048e-05
0.013448422
-2.2101955e-05
0.013453866
-2.0603462e-05
0.013458933
-1.9209958e-05
0.013463652
-1.7913578e-05
0.013468047
-1.6707123e-05
0.013472142
-1.5583989e-05
0.013475958
-1.4538114e-05
0.013479516
-1.3563927e-05
0.013482834
-1.2656294e-05
0.013485928
-1.1810473e-05
0.013488814
-1.1022097e-05
0.013491507
-1.0287125e-05
0.013494019
-9.6018174e-06
0.013496363
-8.96272e-06
0.013498551
-8.3666392e-06
0.013500593
-7.8106142e-06
0.013502499
-7.2918882e-06
0.013504278
-6.8079181e-06
0.013505939
-6.3563356e-06
0.01350749
-5.9349282e-06
0.013508938
-5.5416493e-06
0.01351029
-5.1745941e-06
0.013511552
-4.8319811e-06
0.013512731
-4.5121527e-06
0.013513832
-4.2135837e-06
0.01351486
-3.9348576e-06
0.01351582
-3.6746406e-06
0.013516716
-3.4317133e-06
0.013517554
-3.2049158e-06
0.013518336
-2.993162e-06
0.013519066
-2.7954373e-06
0.013519748
-2.6108075e-06
0.013520386
-2.4383706e-06
0.013520981
-2.2773492e-06
0.013521537
-2.1269551e-06
0.013522056
-1.9865481e-06
0.013522541
-1.8553924e-06
0.013522994
-1.732987e-06
0.013523417
-1.6186119e-06
0.013523812
-1.511897e-06
0.013524181
-1.4120813e-06
0.013524526
-1.319042e-06
0.013524848
-1.2318457e-06
0.013525148
-1.1507659e-06
0.01352543
-1.0745691e-06
0.013525692
-1.0040552e-06
0.013525937
-9.3724366e-07
0.013526166
-8.7631406e-07
0.01352638
-8.1778858e-07
0.01352658
-7.6501487e-07
0.013526766
-7.1250537e-07
0.013526941
-6.6835973e-07
0.013527104
-6.2134378e-07
0.013527257
-5.852477e-07
0.013527398
-5.4103412e-07
0.013527533
-5.1517961e-07
0.013527658
-4.7222722e-07
0.013527779
-4.5901632e-07
-4.1607532e-07
0.010188704
-0.00035427932
0.010530487
-0.00079057335
0.010851453
-0.0009189482
0.011124174
-0.00090167137
0.011350581
-0.00084262623
0.011524486
-0.00075768559
0.01164633
-0.00065662744
0.011724155
-0.00055365586
0.011767999
-0.00045977083
0.011786639
-0.00037975354
0.011787114
-0.00031409259
0.011775058
-0.00026140427
0.011754861
-0.00021969949
0.011729768
-0.00018689787
0.011702054
-0.00016105802
0.011673239
-0.00014051894
0.011644339
-0.00012399295
0.011616003
-0.00011047599
0.011588629
-9.9219868e-05
0.011562446
-8.9681405e-05
0.011537572
-8.1470672e-05
0.011514052
-7.4307852e-05
0.011491889
-6.7990501e-05
0.011471056
-6.2369993e-05
0.011451509
-5.7335017e-05
0.011433193
-5.2800185e-05
0.011416051
-4.8698266e-05
0.011400021
-4.4974955e-05
0.011385041
-4.1585392e-05
0.011371051
-3.8491849e-05
0.01135799
-3.5662158e-05
0.011345801
-3.3068613e-05
0.011334429
-3.0687173e-05
0.011323822
-2.8496851e-05
0.011313929
-2.6479244e-05
0.011304704
-2.461815e-05
0.011296101
-2.2899251e-05
0.01128808
-2.1309855e-05
0.011280601
-1.9838668e-05
0.011273628
-1.8475613e-05
0.011267125
-1.7211665e-05
0.011261062
-1.6038718e-05
0.011255408
-1.4949473e-05
0.011250135
-1.3937333e-05
0.011245218
-1.2996321e-05
0.011240632
-1.2121009e-05
0.011236354
-1.1306457e-05
0.011232364
-1.0548156e-05
0.011228643
-9.8419778e-06
0.01122517
-9.1841357e-06
0.011221931
-8.5711462e-06
0.011218909
-7.999802e-06
0.011216089
-7.46715e-06
0.011213457
-6.9704645e-06
0.011211002
-6.5072338e-06
0.01120871
-6.0751371e-06
0.011206572
-5.6720278e-06
0.011204576
-5.2959213e-06
0.011202713
-4.9449758e-06
0.011200974
-4.6174775e-06
0.011199351
-4.3118291e-06
0.011197836
-4.0265413e-06
0.011196421
-3.7602328e-06
0.011195101
-3.511613e-06
0.011193868
-3.279487e-06
0.011192718
-3.0627471e-06
0.011191643
-2.860376e-06
0.01119064
-2.6714253e-06
0.011189703
-2.4950133e-06
0.011188829
-2.3303055e-06
0.011188012
-2.1765223e-06
0.011187249
-2.032909e-06
0.011186537
-1.8987876e-06
0.011185873
-1.7734977e-06
0.011185252
-1.6564715e-06
0.011184672
-1.5471447e-06
0.01118413
-1.4450611e-06
0.011183625
-1.3497081e-06
0.011183152
-1.2607111e-06
0.011182711
-1.1775669e-06
0.011182299
-1.1000019e-06
0.011181915
-1.0274634e-06
0.011181556
-9.5980902e-07
0.01118122
-8.9644176e-07
0.011180907
-8.3743747e-07
0.011180614
-7.8196462e-07
0.011180341
-7.3056226e-07
0.011180086
-6.8220056e-07
0.011179847
-6.3767053e-07
0.011179624
-5.9502649e-07
0.011179416
-5.5653494e-07
0.011179222
-5.1916066e-07
0.01117904
-4.8630112e-07
0.011178872
-4.5279819e-07
0.011178712
-4.2541931e-07
0.011178566
-3.9518382e-07
0.011178425
-3.7415517e-07
0.0111783
-3.4705368e-07
0.011178177
-3.3599484e-07
-3.106987e-07
0.010339525
-0.00069380425
0.010570754
-0.0010218027
0.010606301
-0.00095449448
0.010547572
-0.00084294333
0.010422317
-0.0007173708
0.010244356
-0.00057972444
0.010039421
-0.00045169205
0.0098287427
-0.00034297801
0.009625135
-0.00025616318
0.0094353013
-0.00018991983
0.0092624277
-0.00014121897
0.0091075332
-0.0001065098
0.008970154
-8.2320226e-05
0.0088489023
-6.5646249e-05
0.0087419716
-5.4127255e-05
0.0086474927
-4.6040044e-05
0.008563694
-4.0194286e-05
0.0084890108
-3.5792751e-05
0.0084221096
-3.2318757e-05
0.0083618775
-2.9449283e-05
0.0083073954
-2.698858e-05
0.0082579079
-2.4820304e-05
0.0082127929
-2.2875483e-05
0.0081715353
-2.1112419e-05
0.0081337049
-1.9504656e-05
0.0080989388
-1.8034017e-05
0.0080669272
-1.6686727e-05
0.0080374036
-1.5451365e-05
0.0080101361
-1.4317864e-05
0.0079849213
-1.3277073e-05
0.0079615798
-1.2320592e-05
0.0079399519
-1.144072e-05
0.0079198951
-1.0630433e-05
0.0079012816
-9.8833643e-06
0.0078839962
-9.1937718e-06
0.0078679345
-8.5564988e-06
0.0078530022
-7.9669237e-06
0.0078391132
-7.4209095e-06
0.0078261893
-6.9147518e-06
0.0078141588
-6.4451277e-06
0.0078029562
-6.0090522e-06
0.0077925213
-5.6038387e-06
0.0077827989
-5.2270619e-06
0.0077737381
-4.8765274e-06
0.0077652921
-4.5502443e-06
0.0077574175
-4.2464017e-06
0.0077500744
-3.9633477e-06
0.0077432258
-3.6995733e-06
0.0077368375
-3.4536946e-06
0.0077308778
-3.2244364e-06
0.0077253173
-3.0106229e-06
0.0077201286
-2.8111701e-06
0.0077152865
-2.6250763e-06
0.0077107675
-2.4514164e-06
0.0077065496
-2.2893369e-06
0.0077026125
-2.1380501e-06
0.0076989373
-1.9968241e-06
0.0076955064
-1.8649808e-06
0.0076923033
-1.7418921e-06
0.0076893128
-1.6269696e-06
0.0076865206
-1.5196625e-06
0.0076839135
-1.419457e-06
0.0076814792
-1.3258751e-06
0.007679206
-1.2384691e-06
0.0076770834
-1.1568264e-06
0.0076751012
-1.0805669e-06
0.0076732502
-1.0093383e-06
0.0076715216
-9.4281309e-07
0.0076699072
-8.8068745e-07
0.0076683996
-8.2266966e-07
0.0076669915
-7.6848703e-07
0.0076656765
-7.1787624e-07
0.0076644483
-6.7059701e-07
0.0076633012
-6.2641712e-07
0.0076622299
-5.8513964e-07
0.0076612294
-5.4656876e-07
0.0076602949
-5.105465e-07
0.007659422
-4.7689438e-07
0.0076586068
-4.4548566e-07
0.0076578453
-4.1613723e-07
0.0076571341
-3.8875533e-07
0.0076564698
-3.6314845e-07
0.0076558492
-3.3926427e-07
0.0076552697
-3.1688009e-07
0.0076547283
-2.9604384e-07
0.0076542229
-2.7646003e-07
0.0076537506
-2.5827284e-07
0.0076533094
-2.41172e-07
0.0076528971
-2.25484e-07
0.0076525126
-2.1041812e-07
0.0076521529
-1.9666751e-07
0.0076518172
-1.8360994e-07
0.0076515028
-1.7205761e-07
0.0076512105
-1.6040679e-07
0.0076509355
-1.5028793e-07
0.0076506807
-1.4040444e-07
0.0076504385
-1.3208743e-07
0.0076502165
-1.2500251e-07
0.0076499999
-1.1933722e-07
-1.2571541e-07
0.0093061957
0.0082843931
0.0073298986
0.0064869553
0.0057695845
0.00518986
0.004738168
0.00439519
0.0041390268
0.003949107
0.003807888
0.0037013782
0.003619058
0.0035534117
0.0034992845
0.0034532444
0.0034130501
0.0033772574
0.0033449386
0.0033154893
0.0032885008
0.0032636805
0.003240805
0.0032196926
0.0032001879
0.0031821539
0.0031654672
0.0031500158
0.0031356979
0.0031224208
0.0031101003
0.0030986595
0.0030880291
0.0030781458
0.003068952
0.0030603955
0.0030524286
0.0030450076
0.0030380929
0.0030316478
0.0030256387
0.0030200349
0.0030148078
0.0030099313
0.0030053811
0.0030011347
0.0029971713
0.0029934717
0.002990018
0.0029867936
0.0029837829
0.0029809718
0.0029783467
0.0029758953
0.002973606
0.002971468
0.0029694711
0.0029676061
0.0029658642
0.0029642372
0.0029627175
0.0029612981
0.0029599722
0.0029587338
0.002957577
0.0029564965
0.0029554871
0.0029545443
0.0029536635
0.0029528408
0.0029520723
0.0029513545
0.0029506839
0.0029500575
0.0029494724
0.0029489259
0.0029484153
0.0029479384
0.0029474928
0.0029470767
0.0029466879
0.0029463248
0.0029459856
0.0029456687
0.0029453727
0.0029450963
0.002944838
0.0029445965
0.0029443711
0.002944161
0.0029439642
0.0029437802
0.0029436083
0.0029434482
0.002943298
0.0029431574
0.0029430253
0.0029429003
0.0029427809
)
;

boundaryField
{
    top
    {
        type            calculated;
        value           uniform 0;
    }
    inlet
    {
        type            calculated;
        value           nonuniform List<scalar> 10(-0.01 -0.01 -0.01 -0.01 -0.01 -0.01 -0.01 -0.01 -0.01 -0.01);
    }
    outlet
    {
        type            calculated;
        value           nonuniform List<scalar> 10(0.002942655 0.0076498149 0.011178072 0.01352789 0.014701569 0.014701569 0.01352789 0.011178072 0.0076498149 0.0029426552);
    }
    bottom
    {
        type            calculated;
        value           uniform 0;
    }
    back
    {
        type            empty;
        value           nonuniform 0();
    }
    front
    {
        type            empty;
        value           nonuniform 0();
    }
}


// ************************************************************************* //
