/*--------------------------------*- C++ -*----------------------------------*\
| =========                 |                                                 |
| \\      /  F ield         | OpenFOAM: The Open Source CFD Toolbox           |
|  \\    /   O peration     | Version:  v1812                                 |
|   \\  /    A nd           | Web:      www.OpenFOAM.com                      |
|    \\/     M anipulation  |                                                 |
\*---------------------------------------------------------------------------*/
FoamFile
{
    version     2.0;
    format      ascii;
    class       volScalarField;
    location    "115";
    object      T;
}
// * * * * * * * * * * * * * * * * * * * * * * * * * * * * * * * * * * * * * //

dimensions      [0 0 0 1 0 0 0];


internalField   nonuniform List<scalar> 
10000
(
1.46051
1.46051
1.46051
1.46051
1.46051
1.46051
1.46051
1.46051
1.46051
1.46051
1.38171
1.3817
1.3817
1.38169
1.38169
1.38169
1.38169
1.38169
1.38169
1.3817
1.30341
1.3034
1.3034
1.30339
1.30339
1.30339
1.30339
1.30339
1.3034
1.3034
1.22597
1.22595
1.22594
1.22594
1.22594
1.22593
1.22594
1.22594
1.22594
1.22595
1.14969
1.14968
1.14966
1.14966
1.14965
1.14965
1.14965
1.14966
1.14967
1.14967
1.0749
1.07488
1.07487
1.07486
1.07485
1.07485
1.07485
1.07486
1.07487
1.07488
1.00187
1.00185
1.00184
1.00183
1.00182
1.00182
1.00182
1.00183
1.00184
1.00185
0.930884
0.930861
0.930846
0.930835
0.930829
0.930828
0.930831
0.930838
0.930849
0.930863
0.862178
0.862153
0.862136
0.862124
0.862118
0.862116
0.86212
0.862128
0.86214
0.862155
0.795966
0.79594
0.795922
0.795909
0.795902
0.7959
0.795904
0.795912
0.795925
0.795942
0.732435
0.732407
0.732388
0.732375
0.732367
0.732365
0.732368
0.732377
0.732391
0.732408
0.67174
0.67171
0.67169
0.671676
0.671667
0.671664
0.671667
0.671676
0.671691
0.671709
0.614002
0.613972
0.613951
0.613935
0.613926
0.613922
0.613924
0.613933
0.613947
0.613966
0.559316
0.559285
0.559262
0.559246
0.559234
0.559229
0.55923
0.559238
0.559252
0.55927
0.50774
0.507709
0.507685
0.507666
0.507653
0.507646
0.507645
0.507651
0.507663
0.507682
0.459307
0.459274
0.459249
0.459228
0.459211
0.459201
0.459197
0.4592
0.459211
0.459229
0.414016
0.413983
0.413955
0.41393
0.41391
0.413895
0.413887
0.413886
0.413894
0.41391
0.371844
0.371809
0.371778
0.371749
0.371722
0.371701
0.371686
0.37168
0.371684
0.371698
0.332739
0.332703
0.332667
0.332631
0.332597
0.332566
0.332542
0.332528
0.332525
0.332535
0.296631
0.296592
0.29655
0.296504
0.296457
0.296414
0.296376
0.29635
0.296339
0.296344
0.263426
0.263383
0.263332
0.263273
0.26321
0.263147
0.263091
0.263048
0.263023
0.263021
0.233017
0.232969
0.232906
0.232828
0.232742
0.232653
0.232569
0.232501
0.232457
0.232443
0.205283
0.205227
0.205147
0.205044
0.204926
0.204799
0.204677
0.204573
0.2045
0.20447
0.180092
0.180026
0.179923
0.179787
0.179624
0.179446
0.179268
0.17911
0.178994
0.178938
0.157306
0.157226
0.157095
0.156915
0.156693
0.156442
0.156184
0.155946
0.155763
0.155668
0.136784
0.136687
0.13652
0.136283
0.135984
0.135636
0.135263
0.134905
0.134615
0.134454
0.118383
0.118267
0.118056
0.11775
0.117353
0.116875
0.116341
0.1158
0.115334
0.115056
0.101964
0.101825
0.101566
0.10118
0.100665
0.100021
0.0992661
0.0984491
0.0976834
0.0971768
0.0873877
0.0872265
0.0869171
0.0864469
0.0858005
0.0849609
0.0839186
0.0826953
0.0814064
0.0804001
0.0745216
0.0743402
0.0739847
0.073435
0.0726604
0.0716167
0.0702443
0.0684752
0.0662894
0.0640295
1.46051
1.46051
1.46051
1.4605
1.4605
1.4605
1.4605
1.4605
1.46051
1.46051
1.3817
1.38169
1.38169
1.38169
1.38169
1.38169
1.38169
1.38169
1.38169
1.38169
1.3034
1.30339
1.30339
1.30338
1.30338
1.30338
1.30338
1.30338
1.30339
1.30339
1.22595
1.22594
1.22593
1.22593
1.22592
1.22592
1.22592
1.22593
1.22593
1.22594
1.14968
1.14966
1.14965
1.14964
1.14964
1.14964
1.14964
1.14964
1.14965
1.14966
1.07488
1.07486
1.07485
1.07484
1.07484
1.07483
1.07484
1.07484
1.07485
1.07486
1.00185
1.00183
1.00182
1.00181
1.0018
1.0018
1.0018
1.00181
1.00182
1.00184
0.930862
0.93084
0.930825
0.930814
0.930808
0.930807
0.93081
0.930818
0.930831
0.930848
0.862153
0.86213
0.862113
0.862102
0.862095
0.862094
0.862097
0.862106
0.86212
0.862139
0.79594
0.795915
0.795897
0.795885
0.795878
0.795876
0.79588
0.795889
0.795904
0.795925
0.732408
0.732381
0.732363
0.732349
0.732342
0.73234
0.732343
0.732353
0.732369
0.732391
0.671711
0.671684
0.671664
0.671649
0.671641
0.671638
0.671642
0.671651
0.671668
0.671691
0.613974
0.613945
0.613924
0.613909
0.613899
0.613896
0.613898
0.613908
0.613924
0.613947
0.559287
0.559257
0.559235
0.559218
0.559207
0.559202
0.559204
0.559212
0.559228
0.559252
0.507711
0.507681
0.507658
0.507639
0.507626
0.507619
0.507618
0.507625
0.50764
0.507663
0.459277
0.459246
0.459221
0.459201
0.459184
0.459174
0.459171
0.459175
0.459188
0.45921
0.413987
0.413955
0.413928
0.413904
0.413884
0.413869
0.413861
0.413861
0.413871
0.413892
0.371816
0.371782
0.371752
0.371723
0.371697
0.371675
0.371661
0.371656
0.371661
0.37168
0.332712
0.332677
0.332642
0.332606
0.332571
0.332541
0.332517
0.332504
0.332503
0.332518
0.296605
0.296567
0.296525
0.29648
0.296433
0.29639
0.296353
0.296327
0.296318
0.296327
0.263401
0.263359
0.263309
0.26325
0.263187
0.263125
0.263069
0.263026
0.263003
0.263005
0.232994
0.232946
0.232883
0.232806
0.23272
0.232631
0.232548
0.232481
0.232438
0.232429
0.205261
0.205206
0.205126
0.205024
0.204905
0.204779
0.204657
0.204553
0.204482
0.204456
0.180071
0.180006
0.179904
0.179768
0.179605
0.179427
0.179249
0.179092
0.178977
0.178926
0.157287
0.157208
0.157077
0.156897
0.156675
0.156425
0.156167
0.15593
0.155748
0.155657
0.136766
0.13667
0.136503
0.136266
0.135967
0.135619
0.135247
0.13489
0.134601
0.134443
0.118367
0.118251
0.118041
0.117735
0.117338
0.11686
0.116327
0.115786
0.115321
0.115046
0.101949
0.101811
0.101552
0.101167
0.100651
0.100008
0.0992532
0.0984367
0.0976721
0.0971683
0.0873741
0.0872137
0.0869046
0.0864346
0.0857884
0.0849491
0.0839072
0.0826844
0.0813965
0.0803927
0.0745094
0.0743286
0.0739735
0.073424
0.0726496
0.0716062
0.0702342
0.0684657
0.0662808
0.064023
1.46051
1.46051
1.4605
1.4605
1.4605
1.4605
1.4605
1.4605
1.4605
1.46051
1.3817
1.38169
1.38169
1.38168
1.38168
1.38168
1.38168
1.38168
1.38169
1.38169
1.3034
1.30339
1.30338
1.30338
1.30337
1.30337
1.30338
1.30338
1.30338
1.30339
1.22594
1.22593
1.22592
1.22592
1.22592
1.22591
1.22592
1.22592
1.22593
1.22594
1.14966
1.14965
1.14964
1.14963
1.14963
1.14963
1.14963
1.14964
1.14964
1.14966
1.07487
1.07485
1.07484
1.07483
1.07482
1.07482
1.07483
1.07483
1.07484
1.07486
1.00184
1.00182
1.0018
1.00179
1.00179
1.00179
1.00179
1.0018
1.00181
1.00183
0.930846
0.930825
0.93081
0.9308
0.930794
0.930793
0.930797
0.930805
0.930819
0.930837
0.862137
0.862113
0.862097
0.862086
0.86208
0.862079
0.862083
0.862092
0.862107
0.862127
0.795923
0.795898
0.79588
0.795868
0.795862
0.79586
0.795865
0.795875
0.79589
0.795913
0.73239
0.732364
0.732345
0.732332
0.732325
0.732323
0.732327
0.732338
0.732354
0.732378
0.671692
0.671665
0.671646
0.671632
0.671624
0.671621
0.671625
0.671636
0.671653
0.671677
0.613954
0.613926
0.613906
0.613891
0.613881
0.613878
0.613881
0.613891
0.613909
0.613934
0.559267
0.559238
0.559217
0.5592
0.559189
0.559185
0.559187
0.559196
0.559213
0.559238
0.507692
0.507662
0.507639
0.507621
0.507608
0.507601
0.507601
0.507609
0.507624
0.50765
0.459258
0.459228
0.459203
0.459182
0.459167
0.459157
0.459154
0.459159
0.459173
0.459197
0.413968
0.413937
0.41391
0.413886
0.413866
0.413852
0.413844
0.413845
0.413856
0.413879
0.371797
0.371764
0.371734
0.371705
0.371679
0.371659
0.371645
0.37164
0.371647
0.371667
0.332694
0.33266
0.332625
0.332589
0.332555
0.332525
0.332502
0.332489
0.332489
0.332506
0.296587
0.29655
0.296509
0.296464
0.296417
0.296374
0.296338
0.296313
0.296304
0.296315
0.263385
0.263343
0.263293
0.263235
0.263172
0.26311
0.263054
0.263012
0.26299
0.262994
0.232978
0.232931
0.232869
0.232792
0.232705
0.232617
0.232534
0.232468
0.232426
0.232418
0.205246
0.205191
0.205112
0.20501
0.204892
0.204766
0.204644
0.204541
0.204471
0.204446
0.180057
0.179992
0.179891
0.179755
0.179592
0.179415
0.179237
0.17908
0.178966
0.178916
0.157274
0.157196
0.157065
0.156885
0.156663
0.156414
0.156156
0.155919
0.155738
0.155648
0.136754
0.136659
0.136492
0.136256
0.135957
0.135609
0.135237
0.13488
0.134592
0.134435
0.118356
0.118241
0.118031
0.117725
0.117328
0.116851
0.116318
0.115778
0.115314
0.115039
0.101939
0.101801
0.101543
0.101158
0.100643
0.0999995
0.099245
0.098429
0.0976651
0.0971621
0.0873653
0.0872051
0.0868963
0.0864265
0.0857805
0.0849415
0.0838999
0.0826776
0.0813903
0.0803873
0.0745015
0.074321
0.0739661
0.0734168
0.0726426
0.0715995
0.0702278
0.0684597
0.0662754
0.0640183
1.46051
1.4605
1.4605
1.4605
1.4605
1.4605
1.4605
1.4605
1.4605
1.4605
1.38169
1.38169
1.38168
1.38168
1.38168
1.38168
1.38168
1.38168
1.38168
1.38169
1.30339
1.30338
1.30338
1.30337
1.30337
1.30337
1.30337
1.30337
1.30338
1.30338
1.22594
1.22593
1.22592
1.22591
1.22591
1.22591
1.22591
1.22592
1.22592
1.22593
1.14966
1.14964
1.14963
1.14963
1.14962
1.14962
1.14962
1.14963
1.14964
1.14965
1.07486
1.07484
1.07483
1.07482
1.07482
1.07482
1.07482
1.07483
1.07484
1.07485
1.00183
1.00181
1.00179
1.00179
1.00178
1.00178
1.00178
1.00179
1.0018
1.00182
0.930836
0.930815
0.9308
0.93079
0.930785
0.930784
0.930788
0.930797
0.930811
0.93083
0.862126
0.862103
0.862087
0.862076
0.86207
0.862069
0.862074
0.862083
0.862099
0.86212
0.795911
0.795887
0.795869
0.795858
0.795851
0.79585
0.795855
0.795865
0.795882
0.795905
0.732378
0.732352
0.732334
0.732321
0.732314
0.732312
0.732317
0.732328
0.732345
0.732369
0.67168
0.671653
0.671634
0.67162
0.671612
0.67161
0.671615
0.671626
0.671644
0.671669
0.613942
0.613914
0.613894
0.613879
0.61387
0.613867
0.613871
0.613881
0.613899
0.613925
0.559254
0.559226
0.559204
0.559188
0.559178
0.559174
0.559176
0.559186
0.559203
0.559229
0.507679
0.507649
0.507627
0.507609
0.507596
0.50759
0.507591
0.507599
0.507615
0.507641
0.459246
0.459215
0.459191
0.459171
0.459155
0.459146
0.459143
0.459149
0.459163
0.459188
0.413956
0.413925
0.413898
0.413875
0.413855
0.413841
0.413834
0.413836
0.413847
0.413871
0.371785
0.371753
0.371723
0.371694
0.371669
0.371648
0.371635
0.371631
0.371638
0.371659
0.332683
0.332648
0.332614
0.332578
0.332545
0.332515
0.332492
0.33248
0.332481
0.332498
0.296576
0.296539
0.296498
0.296453
0.296407
0.296364
0.296328
0.296304
0.296296
0.296308
0.263374
0.263333
0.263283
0.263225
0.263162
0.263101
0.263046
0.263004
0.262983
0.262987
0.232968
0.232921
0.232859
0.232782
0.232697
0.232608
0.232526
0.23246
0.232419
0.232412
0.205237
0.205182
0.205103
0.205001
0.204883
0.204758
0.204637
0.204534
0.204464
0.20444
0.180049
0.179984
0.179882
0.179747
0.179585
0.179407
0.17923
0.179074
0.17896
0.178911
0.157266
0.157188
0.157057
0.156877
0.156656
0.156407
0.15615
0.155913
0.155732
0.155643
0.136747
0.136652
0.136485
0.136249
0.13595
0.135603
0.135231
0.134875
0.134587
0.134431
0.118349
0.118234
0.118024
0.117719
0.117322
0.116845
0.116312
0.115773
0.115309
0.115035
0.101933
0.101795
0.101537
0.101152
0.100637
0.0999944
0.0992402
0.0984246
0.0976611
0.0971584
0.0873598
0.0871998
0.0868911
0.0864215
0.0857758
0.084937
0.0838957
0.0826737
0.0813868
0.0803841
0.0744966
0.0743162
0.0739614
0.0734123
0.0726384
0.0715955
0.070224
0.0684562
0.0662724
0.0640155
1.46051
1.4605
1.4605
1.4605
1.4605
1.4605
1.4605
1.4605
1.4605
1.4605
1.38169
1.38169
1.38168
1.38168
1.38168
1.38168
1.38168
1.38168
1.38168
1.38169
1.30339
1.30338
1.30337
1.30337
1.30337
1.30337
1.30337
1.30337
1.30338
1.30338
1.22594
1.22592
1.22592
1.22591
1.22591
1.22591
1.22591
1.22591
1.22592
1.22593
1.14965
1.14964
1.14963
1.14962
1.14962
1.14962
1.14962
1.14963
1.14964
1.14965
1.07485
1.07484
1.07482
1.07482
1.07481
1.07481
1.07482
1.07482
1.07483
1.07485
1.00182
1.0018
1.00179
1.00178
1.00178
1.00178
1.00178
1.00179
1.0018
1.00182
0.930831
0.93081
0.930795
0.930785
0.93078
0.93078
0.930784
0.930794
0.930808
0.930827
0.86212
0.862097
0.862081
0.862071
0.862065
0.862065
0.862069
0.86208
0.862095
0.862117
0.795905
0.795881
0.795864
0.795852
0.795846
0.795846
0.795851
0.795861
0.795878
0.795901
0.732371
0.732346
0.732328
0.732315
0.732309
0.732308
0.732313
0.732324
0.732342
0.732366
0.671674
0.671647
0.671628
0.671615
0.671607
0.671606
0.67161
0.671622
0.67164
0.671666
0.613935
0.613908
0.613888
0.613873
0.613865
0.613862
0.613866
0.613877
0.613896
0.613922
0.559248
0.55922
0.559199
0.559183
0.559173
0.559169
0.559172
0.559182
0.5592
0.559226
0.507673
0.507644
0.507621
0.507604
0.507592
0.507585
0.507586
0.507595
0.507612
0.507638
0.45924
0.45921
0.459185
0.459166
0.45915
0.459141
0.459139
0.459145
0.45916
0.459186
0.41395
0.413919
0.413893
0.413869
0.41385
0.413837
0.41383
0.413832
0.413844
0.413868
0.37178
0.371747
0.371718
0.371689
0.371664
0.371644
0.371631
0.371627
0.371635
0.371657
0.332677
0.332643
0.332609
0.332574
0.33254
0.332511
0.332489
0.332477
0.332478
0.332496
0.296571
0.296534
0.296493
0.296449
0.296403
0.296361
0.296325
0.296301
0.296294
0.296306
0.263369
0.263328
0.263279
0.263221
0.263159
0.263097
0.263043
0.263002
0.262981
0.262985
0.232964
0.232917
0.232855
0.232779
0.232693
0.232605
0.232523
0.232457
0.232417
0.23241
0.205233
0.205178
0.205099
0.204998
0.20488
0.204755
0.204634
0.204532
0.204462
0.204438
0.180045
0.17998
0.179879
0.179744
0.179582
0.179405
0.179228
0.179072
0.178959
0.178909
0.157262
0.157184
0.157054
0.156874
0.156653
0.156404
0.156148
0.155911
0.155731
0.155642
0.136744
0.136649
0.136482
0.136246
0.135948
0.135601
0.13523
0.134873
0.134586
0.13443
0.118346
0.118231
0.118022
0.117717
0.11732
0.116843
0.116311
0.115771
0.115308
0.115034
0.10193
0.101793
0.101535
0.10115
0.100635
0.0999928
0.0992388
0.0984234
0.0976602
0.0971577
0.0873575
0.0871976
0.0868891
0.0864197
0.0857741
0.0849355
0.0838944
0.0826727
0.081386
0.0803834
0.0744946
0.0743143
0.0739597
0.0734107
0.0726369
0.0715942
0.070223
0.0684554
0.0662717
0.0640149
1.46051
1.4605
1.4605
1.4605
1.4605
1.4605
1.4605
1.4605
1.4605
1.4605
1.38169
1.38169
1.38168
1.38168
1.38168
1.38168
1.38168
1.38168
1.38168
1.38169
1.30339
1.30338
1.30337
1.30337
1.30337
1.30337
1.30337
1.30337
1.30338
1.30338
1.22593
1.22592
1.22592
1.22591
1.22591
1.22591
1.22591
1.22591
1.22592
1.22593
1.14965
1.14964
1.14963
1.14962
1.14962
1.14962
1.14962
1.14963
1.14964
1.14965
1.07485
1.07483
1.07482
1.07482
1.07481
1.07481
1.07482
1.07482
1.07483
1.07485
1.00182
1.0018
1.00179
1.00178
1.00178
1.00178
1.00178
1.00179
1.0018
1.00182
0.93083
0.930809
0.930795
0.930785
0.93078
0.93078
0.930785
0.930795
0.930809
0.930828
0.862119
0.862097
0.862081
0.862071
0.862066
0.862065
0.86207
0.862081
0.862097
0.862118
0.795905
0.79588
0.795864
0.795853
0.795847
0.795847
0.795852
0.795863
0.79588
0.795903
0.732371
0.732346
0.732328
0.732316
0.73231
0.732309
0.732314
0.732326
0.732344
0.732369
0.671673
0.671647
0.671628
0.671615
0.671608
0.671607
0.671612
0.671624
0.671642
0.671668
0.613935
0.613908
0.613888
0.613874
0.613866
0.613864
0.613868
0.61388
0.613898
0.613925
0.559248
0.55922
0.559199
0.559184
0.559174
0.559171
0.559174
0.559184
0.559203
0.559229
0.507673
0.507644
0.507622
0.507605
0.507593
0.507587
0.507589
0.507598
0.507615
0.507641
0.45924
0.45921
0.459186
0.459167
0.459152
0.459143
0.459142
0.459148
0.459163
0.459189
0.413951
0.41392
0.413894
0.413871
0.413852
0.413839
0.413833
0.413835
0.413848
0.413871
0.37178
0.371748
0.371719
0.371691
0.371666
0.371646
0.371634
0.37163
0.371639
0.37166
0.332678
0.332644
0.33261
0.332575
0.332542
0.332513
0.332491
0.33248
0.332482
0.332499
0.296572
0.296535
0.296495
0.296451
0.296405
0.296363
0.296328
0.296304
0.296297
0.296309
0.26337
0.263329
0.26328
0.263222
0.263161
0.263099
0.263045
0.263005
0.262984
0.262988
0.232964
0.232918
0.232856
0.23278
0.232695
0.232607
0.232526
0.23246
0.23242
0.232413
0.205233
0.205179
0.205101
0.204999
0.204882
0.204757
0.204637
0.204535
0.204465
0.204442
0.180046
0.179981
0.17988
0.179745
0.179584
0.179407
0.17923
0.179075
0.178962
0.178913
0.157263
0.157185
0.157055
0.156876
0.156655
0.156406
0.15615
0.155914
0.155734
0.155645
0.136745
0.13665
0.136483
0.136248
0.135949
0.135603
0.135232
0.134876
0.134588
0.134433
0.118347
0.118232
0.118023
0.117718
0.117322
0.116845
0.116313
0.115774
0.115311
0.115037
0.101931
0.101794
0.101536
0.101151
0.100637
0.0999946
0.0992408
0.0984256
0.0976625
0.0971601
0.0873584
0.0871986
0.0868902
0.086421
0.0857756
0.0849372
0.0838963
0.0826747
0.081388
0.0803856
0.0744954
0.0743152
0.0739607
0.0734119
0.0726383
0.0715957
0.0702246
0.0684571
0.0662735
0.0640167
1.46051
1.4605
1.4605
1.4605
1.4605
1.4605
1.4605
1.4605
1.4605
1.4605
1.38169
1.38169
1.38168
1.38168
1.38168
1.38168
1.38168
1.38168
1.38168
1.38169
1.30339
1.30338
1.30338
1.30337
1.30337
1.30337
1.30337
1.30337
1.30338
1.30339
1.22594
1.22592
1.22592
1.22591
1.22591
1.22591
1.22591
1.22592
1.22592
1.22593
1.14965
1.14964
1.14963
1.14962
1.14962
1.14962
1.14962
1.14963
1.14964
1.14965
1.07485
1.07484
1.07483
1.07482
1.07482
1.07482
1.07482
1.07483
1.07484
1.07485
1.00182
1.00181
1.00179
1.00179
1.00178
1.00178
1.00179
1.00179
1.00181
1.00182
0.930834
0.930813
0.930799
0.93079
0.930785
0.930786
0.930791
0.9308
0.930815
0.930834
0.862124
0.862101
0.862086
0.862076
0.862071
0.862071
0.862077
0.862087
0.862103
0.862125
0.795909
0.795885
0.795869
0.795858
0.795853
0.795853
0.795859
0.79587
0.795887
0.795911
0.732376
0.732351
0.732334
0.732322
0.732316
0.732316
0.732322
0.732334
0.732352
0.732377
0.671679
0.671653
0.671635
0.671622
0.671615
0.671615
0.67162
0.671632
0.671651
0.671677
0.613941
0.613914
0.613895
0.613881
0.613874
0.613872
0.613877
0.613888
0.613907
0.613934
0.559254
0.559226
0.559206
0.559191
0.559182
0.559179
0.559183
0.559193
0.559212
0.559239
0.507679
0.507651
0.507629
0.507612
0.507601
0.507596
0.507597
0.507607
0.507624
0.507651
0.459246
0.459217
0.459194
0.459175
0.45916
0.459152
0.459151
0.459157
0.459173
0.459199
0.413957
0.413927
0.413901
0.413879
0.41386
0.413847
0.413842
0.413844
0.413857
0.413881
0.371787
0.371755
0.371726
0.371699
0.371674
0.371655
0.371643
0.37164
0.371648
0.37167
0.332684
0.332651
0.332617
0.332583
0.33255
0.332522
0.3325
0.332489
0.332491
0.332509
0.296578
0.296542
0.296502
0.296458
0.296413
0.296371
0.296337
0.296313
0.296306
0.296319
0.263376
0.263336
0.263287
0.26323
0.263168
0.263108
0.263054
0.263013
0.262993
0.262997
0.23297
0.232924
0.232863
0.232787
0.232703
0.232615
0.232534
0.232469
0.232429
0.232422
0.205239
0.205185
0.205107
0.205006
0.204889
0.204765
0.204645
0.204543
0.204474
0.20445
0.180051
0.179987
0.179886
0.179752
0.17959
0.179414
0.179238
0.179082
0.17897
0.178921
0.157269
0.157191
0.157061
0.156882
0.156662
0.156413
0.156157
0.155921
0.155741
0.155652
0.13675
0.136655
0.136489
0.136253
0.135955
0.135609
0.135238
0.134882
0.134595
0.13444
0.118352
0.118237
0.118028
0.117724
0.117327
0.116851
0.116319
0.11578
0.115317
0.115043
0.101935
0.101798
0.101541
0.101156
0.100642
0.0999999
0.0992463
0.0984312
0.0976682
0.0971658
0.0873623
0.0872027
0.0868946
0.0864256
0.0857804
0.0849421
0.0839012
0.0826797
0.0813931
0.0803907
0.074499
0.074319
0.0739647
0.0734161
0.0726426
0.0716001
0.0702291
0.0684616
0.0662779
0.0640211
1.46051
1.4605
1.4605
1.4605
1.4605
1.4605
1.4605
1.4605
1.4605
1.46051
1.38169
1.38169
1.38168
1.38168
1.38168
1.38168
1.38168
1.38168
1.38169
1.38169
1.30339
1.30338
1.30338
1.30337
1.30337
1.30337
1.30337
1.30338
1.30338
1.30339
1.22594
1.22593
1.22592
1.22592
1.22591
1.22591
1.22592
1.22592
1.22593
1.22594
1.14966
1.14965
1.14964
1.14963
1.14963
1.14963
1.14963
1.14964
1.14965
1.14966
1.07486
1.07484
1.07483
1.07483
1.07482
1.07482
1.07483
1.07483
1.07485
1.07486
1.00183
1.00181
1.0018
1.00179
1.00179
1.00179
1.00179
1.0018
1.00182
1.00183
0.930841
0.930821
0.930808
0.930799
0.930795
0.930796
0.930801
0.930811
0.930825
0.930845
0.862132
0.862111
0.862096
0.862087
0.862082
0.862082
0.862088
0.862099
0.862115
0.862137
0.795919
0.795896
0.79588
0.79587
0.795865
0.795865
0.795871
0.795883
0.7959
0.795924
0.732387
0.732362
0.732346
0.732335
0.732329
0.732329
0.732335
0.732347
0.732366
0.732391
0.67169
0.671665
0.671647
0.671635
0.671629
0.671628
0.671634
0.671646
0.671665
0.671691
0.613953
0.613926
0.613908
0.613895
0.613888
0.613886
0.613891
0.613903
0.613922
0.613949
0.559266
0.559239
0.55922
0.559205
0.559197
0.559194
0.559198
0.559209
0.559228
0.559255
0.507692
0.507664
0.507643
0.507627
0.507616
0.507611
0.507613
0.507622
0.50764
0.507667
0.459259
0.45923
0.459207
0.459189
0.459175
0.459167
0.459166
0.459173
0.459189
0.459215
0.41397
0.41394
0.413915
0.413893
0.413875
0.413863
0.413857
0.41386
0.413873
0.413897
0.371799
0.371768
0.37174
0.371713
0.371689
0.37167
0.371658
0.371655
0.371664
0.371686
0.332697
0.332663
0.332631
0.332597
0.332565
0.332536
0.332515
0.332504
0.332507
0.332525
0.29659
0.296554
0.296515
0.296472
0.296428
0.296386
0.296351
0.296328
0.296322
0.296334
0.263388
0.263348
0.2633
0.263243
0.263182
0.263122
0.263068
0.263028
0.263008
0.263012
0.232981
0.232936
0.232875
0.2328
0.232716
0.232629
0.232548
0.232483
0.232443
0.232436
0.20525
0.205197
0.205119
0.205019
0.204902
0.204778
0.204658
0.204556
0.204487
0.204464
0.180061
0.179998
0.179898
0.179763
0.179602
0.179426
0.17925
0.179095
0.178982
0.178933
0.157278
0.157201
0.157072
0.156893
0.156673
0.156425
0.156169
0.155933
0.155753
0.155664
0.136758
0.136664
0.136499
0.136264
0.135966
0.13562
0.135249
0.134893
0.134606
0.134451
0.11836
0.118246
0.118037
0.117733
0.117337
0.116861
0.116329
0.11579
0.115327
0.115054
0.101943
0.101806
0.101549
0.101165
0.100651
0.100009
0.0992554
0.0984403
0.0976774
0.0971751
0.0873692
0.08721
0.0869022
0.0864335
0.0857884
0.0849502
0.0839094
0.0826879
0.0814013
0.0803988
0.0745053
0.0743256
0.0739716
0.0734232
0.0726499
0.0716074
0.0702364
0.0684688
0.066285
0.064028
1.46051
1.46051
1.4605
1.4605
1.4605
1.4605
1.4605
1.4605
1.46051
1.46051
1.3817
1.38169
1.38169
1.38168
1.38168
1.38168
1.38168
1.38169
1.38169
1.38169
1.3034
1.30339
1.30338
1.30338
1.30338
1.30338
1.30338
1.30338
1.30339
1.30339
1.22594
1.22593
1.22593
1.22592
1.22592
1.22592
1.22592
1.22593
1.22594
1.22594
1.14967
1.14965
1.14964
1.14964
1.14964
1.14964
1.14964
1.14965
1.14966
1.14967
1.07487
1.07485
1.07484
1.07484
1.07483
1.07483
1.07484
1.07485
1.07486
1.07487
1.00184
1.00182
1.00181
1.00181
1.0018
1.0018
1.00181
1.00182
1.00183
1.00185
0.930853
0.930834
0.930822
0.930814
0.93081
0.93081
0.930816
0.930826
0.930841
0.930861
0.862145
0.862125
0.862111
0.862102
0.862098
0.862099
0.862105
0.862116
0.862132
0.862154
0.795933
0.795911
0.795897
0.795887
0.795882
0.795883
0.795889
0.795901
0.795919
0.795943
0.732402
0.732379
0.732363
0.732353
0.732348
0.732348
0.732354
0.732367
0.732385
0.732411
0.671706
0.671682
0.671666
0.671655
0.671649
0.671648
0.671654
0.671667
0.671686
0.671713
0.613969
0.613945
0.613927
0.613915
0.613908
0.613907
0.613912
0.613925
0.613944
0.613971
0.559283
0.559258
0.55924
0.559226
0.559218
0.559215
0.559219
0.559231
0.55925
0.559277
0.507709
0.507683
0.507663
0.507648
0.507637
0.507633
0.507635
0.507645
0.507663
0.50769
0.459276
0.459249
0.459228
0.45921
0.459197
0.459189
0.459188
0.459196
0.459212
0.459238
0.413987
0.413959
0.413936
0.413914
0.413897
0.413885
0.413879
0.413883
0.413896
0.413921
0.371816
0.371787
0.37176
0.371734
0.371711
0.371692
0.37168
0.371678
0.371687
0.371709
0.332714
0.332682
0.332651
0.332618
0.332586
0.332558
0.332537
0.332526
0.332529
0.332547
0.296607
0.296573
0.296534
0.296492
0.296448
0.296407
0.296372
0.29635
0.296343
0.296356
0.263404
0.263366
0.263318
0.263263
0.263202
0.263142
0.263088
0.263048
0.263028
0.263033
0.232997
0.232953
0.232893
0.232819
0.232735
0.232648
0.232567
0.232502
0.232463
0.232456
0.205265
0.205213
0.205136
0.205036
0.20492
0.204796
0.204676
0.204575
0.204506
0.204483
0.180075
0.180013
0.179914
0.17978
0.179619
0.179443
0.179268
0.179112
0.179
0.178951
0.157291
0.157215
0.157087
0.156909
0.156689
0.156441
0.156185
0.15595
0.15577
0.155681
0.136771
0.136678
0.136513
0.136278
0.135981
0.135635
0.135264
0.134908
0.134622
0.134466
0.118372
0.118258
0.11805
0.117746
0.117351
0.116874
0.116343
0.115804
0.115341
0.115068
0.101953
0.101818
0.101561
0.101177
0.100664
0.100022
0.0992681
0.098453
0.0976901
0.097188
0.0873788
0.0872204
0.0869131
0.0864447
0.0857998
0.0849617
0.0839209
0.0826993
0.0814127
0.0804102
0.074514
0.074335
0.0739815
0.0734334
0.0726602
0.0716177
0.0702466
0.0684789
0.0662949
0.0640377
1.46051
1.46051
1.46051
1.4605
1.4605
1.4605
1.4605
1.46051
1.46051
1.46051
1.3817
1.38169
1.38169
1.38169
1.38169
1.38169
1.38169
1.38169
1.38169
1.3817
1.3034
1.30339
1.30339
1.30339
1.30338
1.30338
1.30339
1.30339
1.30339
1.3034
1.22595
1.22594
1.22594
1.22593
1.22593
1.22593
1.22593
1.22594
1.22594
1.22595
1.14967
1.14966
1.14966
1.14965
1.14965
1.14965
1.14965
1.14966
1.14967
1.14968
1.07488
1.07487
1.07486
1.07485
1.07485
1.07485
1.07485
1.07486
1.07487
1.07489
1.00185
1.00184
1.00183
1.00182
1.00182
1.00182
1.00182
1.00183
1.00185
1.00187
0.930867
0.930852
0.930841
0.930833
0.930829
0.93083
0.930835
0.930846
0.930861
0.930881
0.862161
0.862144
0.862132
0.862124
0.86212
0.862121
0.862127
0.862138
0.862155
0.862177
0.79595
0.795933
0.795919
0.79591
0.795906
0.795907
0.795913
0.795925
0.795943
0.795967
0.73242
0.732402
0.732387
0.732378
0.732373
0.732373
0.73238
0.732392
0.732411
0.732437
0.671725
0.671706
0.671691
0.671681
0.671675
0.671675
0.671681
0.671694
0.671713
0.67174
0.613989
0.61397
0.613954
0.613942
0.613936
0.613935
0.61394
0.613952
0.613972
0.614
0.559304
0.559284
0.559267
0.559254
0.559246
0.559244
0.559248
0.559259
0.559279
0.559307
0.50773
0.507709
0.507691
0.507676
0.507666
0.507662
0.507664
0.507674
0.507692
0.50772
0.459297
0.459275
0.459256
0.459239
0.459226
0.459218
0.459217
0.459225
0.459241
0.459268
0.414008
0.413985
0.413963
0.413943
0.413925
0.413913
0.413908
0.413912
0.413926
0.413951
0.371837
0.371813
0.371787
0.371762
0.371739
0.37172
0.371709
0.371706
0.371716
0.371739
0.332734
0.332708
0.332677
0.332645
0.332614
0.332586
0.332565
0.332554
0.332557
0.332576
0.296626
0.296597
0.296561
0.296519
0.296475
0.296434
0.2964
0.296377
0.296371
0.296384
0.263423
0.263389
0.263344
0.263288
0.263228
0.263168
0.263115
0.263075
0.263055
0.263061
0.233015
0.232976
0.232917
0.232843
0.23276
0.232673
0.232592
0.232528
0.232488
0.232483
0.205282
0.205234
0.205159
0.20506
0.204943
0.20482
0.2047
0.204599
0.20453
0.204508
0.180092
0.180033
0.179935
0.179802
0.179642
0.179466
0.17929
0.179135
0.179023
0.178975
0.157307
0.157234
0.157107
0.156929
0.15671
0.156462
0.156206
0.155971
0.155791
0.155703
0.136785
0.136696
0.136532
0.136297
0.136
0.135654
0.135284
0.134928
0.134641
0.134487
0.118385
0.118275
0.118068
0.117764
0.117369
0.116892
0.116361
0.115822
0.115359
0.115087
0.101966
0.101833
0.101577
0.101194
0.10068
0.100038
0.0992845
0.0984694
0.0977066
0.0972048
0.08739
0.0872343
0.0869278
0.0864596
0.0858147
0.0849765
0.0839357
0.082714
0.0814273
0.0804251
0.0745242
0.0743476
0.0739948
0.0734468
0.0726736
0.0716311
0.0702598
0.0684919
0.0663077
0.0640505
0.0632346
0.063038
0.0626477
0.0620369
0.0611617
0.0599517
0.0582897
0.0559607
0.0524953
0.046598
0.0533973
0.0531933
0.0527852
0.0521434
0.0512193
0.0499351
0.0481653
0.0457018
0.0421905
0.0370669
0.0448809
0.0446782
0.0442716
0.0436332
0.0427182
0.0414582
0.0397532
0.0374617
0.0344042
0.0304267
0.0375571
0.0373638
0.0369767
0.0363721
0.0355143
0.0343519
0.0328176
0.0308321
0.0283236
0.0252825
0.0312992
0.0311219
0.0307677
0.0302191
0.0294504
0.0284275
0.0271107
0.025462
0.0234615
0.0211373
0.0259843
0.025827
0.0255145
0.0250347
0.0243714
0.0235047
0.0224147
0.0210873
0.0195244
0.0177568
0.0214952
0.02136
0.0210929
0.0206868
0.020133
0.0194225
0.0185486
0.017511
0.0163207
0.0150023
0.0177225
0.0176095
0.0173878
0.0170541
0.0166057
0.0160411
0.0153629
0.0145805
0.0137111
0.0127763
0.0145662
0.0144742
0.014295
0.0140283
0.0136752
0.0132401
0.0127322
0.012169
0.0115782
0.0109956
0.0119362
0.011863
0.0117216
0.0115136
0.0112428
0.0109169
0.0105493
0.0101637
0.0098016
0.00954506
0.0632237
0.0630277
0.0626377
0.0620271
0.0611522
0.0599425
0.0582809
0.0559525
0.0524879
0.0465916
0.0533876
0.0531842
0.0527763
0.0521347
0.0512109
0.049927
0.0481577
0.0456947
0.042184
0.0370611
0.0448724
0.0446701
0.0442638
0.0436257
0.0427109
0.0414512
0.0397465
0.0374555
0.0343985
0.0304216
0.0375496
0.0373568
0.0369698
0.0363655
0.0355078
0.0343457
0.0328117
0.0308266
0.0283186
0.025278
0.0312927
0.0311157
0.0307617
0.0302133
0.0294448
0.0284221
0.0271056
0.0254572
0.023457
0.0211332
0.0259786
0.0258217
0.0255093
0.0250297
0.0243665
0.0235
0.0224103
0.0210831
0.0195205
0.0177532
0.0214902
0.0213553
0.0210884
0.0206824
0.0201288
0.0194184
0.0185447
0.0175073
0.0163173
0.014999
0.0177182
0.0176055
0.0173839
0.0170504
0.016602
0.0160375
0.0153595
0.0145773
0.013708
0.0127734
0.0145626
0.0144708
0.0142917
0.014025
0.0136721
0.013237
0.0127293
0.0121662
0.0115755
0.0109931
0.0119331
0.01186
0.0117188
0.0115108
0.0112401
0.0109142
0.0105467
0.0101612
0.00979925
0.0095429
0.0632167
0.0630209
0.0626311
0.0620207
0.061146
0.0599365
0.0582752
0.0559472
0.0524832
0.0465876
0.0533814
0.0531781
0.0527705
0.0521291
0.0512055
0.0499218
0.0481527
0.0456901
0.0421799
0.0370575
0.0448669
0.0446648
0.0442587
0.0436207
0.0427061
0.0414466
0.0397422
0.0374515
0.0343949
0.0304184
0.0375448
0.0373521
0.0369653
0.0363611
0.0355037
0.0343417
0.032808
0.0308231
0.0283154
0.0252751
0.0312885
0.0311116
0.0307578
0.0302096
0.0294411
0.0284186
0.0271024
0.0254542
0.0234542
0.0211306
0.0259749
0.0258181
0.0255059
0.0250264
0.0243634
0.023497
0.0224074
0.0210804
0.019518
0.0177509
0.0214871
0.0213522
0.0210854
0.0206796
0.0201261
0.0194158
0.0185422
0.017505
0.0163151
0.014997
0.0177155
0.0176029
0.0173814
0.0170479
0.0165996
0.0160352
0.0153574
0.0145752
0.0137061
0.0127716
0.0145602
0.0144685
0.0142895
0.0140229
0.01367
0.0132351
0.0127274
0.0121644
0.0115738
0.0109915
0.011931
0.0118581
0.0117169
0.011509
0.0112384
0.0109125
0.0105451
0.0101597