/*--------------------------------*- C++ -*----------------------------------*\
| =========                 |                                                 |
| \\      /  F ield         | OpenFOAM: The Open Source CFD Toolbox           |
|  \\    /   O peration     | Version:  2112                                  |
|   \\  /    A nd           | Website:  www.openfoam.com                      |
|    \\/     M anipulation  |                                                 |
\*---------------------------------------------------------------------------*/
FoamFile
{
    version     2.0;
    format      ascii;
    arch        "LSB;label=32;scalar=64";
    class       volVectorField;
    location    "30";
    object      U;
}
// * * * * * * * * * * * * * * * * * * * * * * * * * * * * * * * * * * * * * //

dimensions      [0 1 -1 0 0 0 0];

internalField   nonuniform List<vector> 
1000
(
(0.92240992 0.034484268 0)
(0.87135539 0.05846794 0)
(0.78828855 0.056182376 0)
(0.69410428 0.04571021 0)
(0.61411779 0.03438338 0)
(0.5502046 0.024217638 0)
(0.4993834 0.016132123 0)
(0.45972934 0.010457624 0)
(0.4293881 0.0068020501 0)
(0.40642563 0.0044473218 0)
(0.38917059 0.0028051991 0)
(0.37621937 0.0016188092 0)
(0.36640122 0.0008118475 0)
(0.35869627 0.00035047777 0)
(0.35232859 0.00017609161 0)
(0.34681792 0.0001977534 0)
(0.34194452 0.00031592493 0)
(0.33766185 0.00044772025 0)
(0.33400226 0.00054019296 0)
(0.3310047 0.00057117415 0)
(0.32867407 0.00054233551 0)
(0.32696888 0.00046941166 0)
(0.32580794 0.000373076 0)
(0.32508654 0.00027235286 0)
(0.32469406 0.00018108144 0)
(0.32452825 0.00010699411 0)
(0.32450404 5.2508867e-05 0)
(0.32455698 1.6321363e-05 0)
(0.32464256 -4.9107245e-06 0)
(0.32473315 -1.5194826e-05 0)
(0.32481388 -1.8294569e-05 0)
(0.32487862 -1.7259229e-05 0)
(0.32492661 -1.4284837e-05 0)
(0.32495983 -1.078077e-05 0)
(0.32498139 -7.533077e-06 0)
(0.32499442 -4.8911788e-06 0)
(0.32500167 -2.9325515e-06 0)
(0.32500524 -1.5901692e-06 0)
(0.32500663 -7.3731027e-07 0)
(0.32500686 -2.3945899e-07 0)
(0.32500655 2.0885762e-08 0)
(0.32500606 1.3408883e-07 0)
(0.32500556 1.6424376e-07 0)
(0.32500513 1.5281691e-07 0)
(0.32500481 1.2499339e-07 0)
(0.32500458 9.4209136e-08 0)
(0.32500442 6.6989153e-08 0)
(0.32500432 4.5408565e-08 0)
(0.32500426 2.9676871e-08 0)
(0.32500423 1.8774737e-08 0)
(0.32500421 1.1664829e-08 0)
(0.3250042 7.145348e-09 0)
(0.3250042 4.490718e-09 0)
(0.3250042 2.9223529e-09 0)
(0.3250042 2.1228691e-09 0)
(0.3250042 1.604651e-09 0)
(0.3250042 1.4842428e-09 0)
(0.3250042 1.1693434e-09 0)
(0.3250042 1.4892604e-09 0)
(0.32500421 6.1798098e-10 0)
(0.3250042 2.1549716e-09 0)
(0.32500421 -1.1238759e-09 0)
(0.3250042 5.1062754e-09 0)
(0.32500422 -7.2695902e-09 0)
(0.32500418 1.5921781e-08 0)
(0.32500426 -2.7695279e-08 0)
(0.3250041 5.1368513e-08 0)
(0.32500439 -8.9946374e-08 0)
(0.32500389 1.5459043e-07 0)
(0.32500474 -2.5851486e-07 0)
(0.32500333 4.1709923e-07 0)
(0.32500558 -6.5210554e-07 0)
(0.32500212 9.7890162e-07 0)
(0.32500724 -1.4058701e-06 0)
(0.32499999 1.9239216e-06 0)
(0.32500973 -2.4727449e-06 0)
(0.32499741 2.9706581e-06 0)
(0.32501189 -3.2383654e-06 0)
(0.32499636 3.1248003e-06 0)
(0.32501097 -2.4255287e-06 0)
(0.32499972 1.1630032e-06 0)
(0.32500503 5.7428636e-07 0)
(0.32500679 -2.111112e-06 0)
(0.32499864 3.0632529e-06 0)
(0.32500858 -2.1030291e-06 0)
(0.3250023 6.3016678e-08 0)
(0.32499689 4.2661039e-06 0)
(0.32501366 -6.2881427e-06 0)
(0.32498524 9.1426023e-06 0)
(0.32500603 -3.7332459e-06 0)
(0.32499216 4.7031724e-06 0)
(0.32497063 7.0242085e-06 0)
(0.32498506 7.2484644e-06 0)
(0.32492548 1.205503e-05 0)
(0.32493525 1.8319256e-05 0)
(0.32478239 4.1155235e-05 0)
(0.32491207 -3.4389615e-05 0)
(0.32447798 5.2636325e-05 0)
(0.32495341 -0.0003468072 0)
(0.32497141 -0.00043963531 0)
(1.0032623 0.05481413 0)
(1.0472536 0.10088382 0)
(1.0662762 0.11134624 0)
(1.0628473 0.10886827 0)
(1.0509711 0.099616338 0)
(1.0345321 0.086550828 0)
(1.0150037 0.072408048 0)
(0.99420484 0.059182365 0)
(0.97350622 0.047810621 0)
(0.95369058 0.038409192 0)
(0.93524813 0.030729098 0)
(0.91844523 0.02454167 0)
(0.90333753 0.019676378 0)
(0.88982201 0.015963987 0)
(0.87776501 0.013181503 0)
(0.86710402 0.011060606 0)
(0.85786374 0.0093419212 0)
(0.85010552 0.0078294003 0)
(0.84385946 0.0064155227 0)
(0.83907834 0.005073615 0)
(0.83562733 0.0038295267 0)
(0.83330335 0.0027285921 0)
(0.83186905 0.0018096319 0)
(0.83108738 0.0010909638 0)
(0.83074753 0.00056770961 0)
(0.83067943 0.00021658799 0)
(0.83075763 3.8531547e-06 0)
(0.8308976 -0.00010696324 0)
(0.83104808 -0.00014932771 0)
(0.8311822 -0.00015050618 0)
(0.83128923 -0.00013055132 0)
(0.831368 -0.00010278863 0)
(0.83142215 -7.5085213e-05 0)
(0.83145706 -5.1353204e-05 0)
(0.8314781 -3.2931595e-05 0)
(0.83148982 -1.96879e-05 0)
(0.83149567 -1.0791558e-05 0)
(0.83149808 -5.205737e-06 0)
(0.83149866 -1.9520986e-06 0)
(0.83149838 -2.3222358e-07 0)
(0.83149778 5.4907982e-07 0)
(0.83149715 7.9962547e-07 0)
(0.83149661 7.8252194e-07 0)
(0.8314962 6.5255906e-07 0)
(0.8314959 4.9572931e-07 0)
(0.83149571 3.5144456e-07 0)
(0.83149558 2.3599347e-07 0)
(0.83149551 1.5005697e-07 0)
(0.83149547 9.0851076e-08 0)
(0.83149545 5.1312557e-08 0)
(0.83149544 2.700625e-08 0)
(0.83149544 1.202353e-08 0)
(0.83149544 4.1395408e-09 0)
(0.83149545 -4.0170776e-10 0)
(0.83149545 -1.929341e-09 0)
(0.83149546 -2.9208921e-09 0)
(0.83149546 -2.3576106e-09 0)
(0.83149547 -2.6987155e-09 0)
(0.83149547 -1.1543143e-09 0)
(0.83149548 -2.7761923e-09 0)
(0.83149547 1.2899394e-09 0)
(0.83149549 -5.7869604e-09 0)
(0.83149546 8.3807281e-09 0)
(0.83149553 -1.8825053e-08 0)
(0.8314954 3.2564041e-08 0)
(0.83149566 -6.3904862e-08 0)
(0.83149518 1.1161408e-07 0)
(0.83149604 -2.0353586e-07 0)
(0.83149455 3.4502331e-07 0)
(0.83149709 -5.8919433e-07 0)
(0.83149287 9.5225715e-07 0)
(0.83149967 -1.5167697e-06 0)
(0.83148909 2.3005762e-06 0)
(0.83150494 -3.3808677e-06 0)
(0.83148216 4.7204642e-06 0)
(0.83151342 -6.2727606e-06 0)
(0.83147277 7.8244363e-06 0)
(0.83152241 -9.0372207e-06 0)
(0.83146625 9.4816626e-06 0)
(0.83152388 -8.5831146e-06 0)
(0.8314721 6.1831581e-06 0)
(0.83150962 -2.0850895e-06 0)
(0.83149268 -2.3076085e-06 0)
(0.83148767 6.4569301e-06 0)
(0.83150689 -6.4349814e-06 0)
(0.83148811 3.9686555e-06 0)
(0.83148615 6.8136288e-06 0)
(0.83151859 -1.3672036e-05 0)
(0.83145596 2.9097416e-05 0)
(0.83151526 -2.0609015e-05 0)
(0.83148509 3.4681521e-05 0)
(0.83143291 3.8342742e-06 0)
(0.83153748 4.542246e-05 0)
(0.83132746 3.4297612e-05 0)
(0.83154409 0.00011432647 0)
(0.83103395 0.0001171448 0)
(0.83167521 0.00018755029 0)
(0.82998192 0.00036772141 0)
(0.83180307 0.00021931009 0)
(0.82798615 0.00034946074 0)
(1.0001531 0.028827125 0)
(1.0315135 0.059271003 0)
(1.0676442 0.070852178 0)
(1.0976447 0.07515879 0)
(1.1227736 0.074280474 0)
(1.1431963 0.06947913 0)
(1.1586404 0.062742946 0)
(1.1693716 0.055647716 0)
(1.1758619 0.048995066 0)
(1.1788054 0.043028628 0)
(1.1791674 0.037748208 0)
(1.1779246 0.033124042 0)
(1.1757981 0.029122081 0)
(1.1732032 0.025656271 0)
(1.1703742 0.022571888 0)
(1.167499 0.019688573 0)
(1.1647705 0.016867853 0)
(1.1623654 0.014058727 0)
(1.1604036 0.011300903 0)
(1.1589264 0.0086935802 0)
(1.1579039 0.0063509523 0)
(1.1572592 0.0043640279 0)
(1.1568968 0.002779295 0)
(1.1567252 0.0015952371 0)
(1.1566692 0.00077168388 0)
(1.1566741 0.00024505144 0)
(1.1567043 -5.6371557e-05 0)
(1.1567397 -0.00020060956 0)
(1.1567703 -0.00024486409 0)
(1.156793 -0.00023268202 0)
(1.1568077 -0.0001942432 0)
(1.1568162 -0.00014844998 0)
(1.1568204 -0.00010569882 0)
(1.1568218 -7.0598595e-05 0)
(1.1568218 -4.4223374e-05 0)
(1.1568212 -2.5779848e-05 0)
(1.1568204 -1.3704277e-05 0)
(1.1568197 -6.3146908e-06 0)
(1.1568191 -2.1311134e-06 0)
(1.1568187 9.2854638e-10 0)
(1.1568184 9.1207353e-07 0)
(1.1568183 1.1546645e-06 0)
(1.1568182 1.0747509e-06 0)
(1.1568182 8.6995961e-07 0)
(1.1568181 6.4601305e-07 0)
(1.1568181 4.4872294e-07 0)
(1.1568181 2.9489409e-07 0)
(1.1568181 1.8269338e-07 0)
(1.1568182 1.0658284e-07 0)
(1.1568182 5.6571386e-08 0)
(1.1568182 2.62862e-08 0)
(1.1568182 8.0379011e-09 0)
(1.1568182 -1.2848049e-09 0)
(1.1568182 -6.3724707e-09 0)
(1.1568182 -7.7679075e-09 0)
(1.1568182 -8.4620758e-09 0)
(1.1568182 -7.3209449e-09 0)
(1.1568182 -7.2802853e-09 0)
(1.1568182 -5.0380933e-09 0)
(1.1568182 -6.5723186e-09 0)
(1.1568182 -1.4735153e-09 0)
(1.1568182 -9.4693946e-09 0)
(1.1568182 7.1465386e-09 0)
(1.1568183 -2.39998e-08 0)
(1.1568181 3.4772053e-08 0)
(1.1568185 -7.4638235e-08 0)
(1.1568178 1.2296719e-07 0)
(1.1568191 -2.2963491e-07 0)
(1.1568168 3.7965551e-07 0)
(1.1568207 -6.5184164e-07 0)
(1.1568142 1.039311e-06 0)
(1.1568246 -1.6552633e-06 0)
(1.1568085 2.4905897e-06 0)
(1.1568326 -3.6577627e-06 0)
(1.156798 5.0901562e-06 0)
(1.1568457 -6.78205e-06 0)
(1.156783 8.4960816e-06 0)
(1.156861 -9.9439362e-06 0)
(1.1567701 1.069376e-05 0)
(1.1568682 -1.021281e-05 0)
(1.1567717 8.3748651e-06 0)
(1.1568561 -4.9156798e-06 0)
(1.1567927 1.3479066e-06 0)
(1.1568318 2.1622445e-06 0)
(1.1568111 -1.1159894e-06 0)
(1.1568294 -1.9037429e-06 0)
(1.1567922 1.5146269e-05 0)
(1.1568648 -2.415119e-05 0)
(1.1567553 4.8027721e-05 0)
(1.1568814 -4.5675167e-05 0)
(1.1567704 7.9501133e-05 0)
(1.1568356 -4.5129874e-05 0)
(1.1568173 0.00012993532 0)
(1.1567901 -3.1605786e-05 0)
(1.156841 0.00026524023 0)
(1.1566407 6.4440933e-05 0)
(1.1570065 0.00052743903 0)
(1.1559474 0.00054985106 0)
(1.1571808 0.0012048546 0)
(1.1544992 0.0021179329 0)
(0.99974667 0.012347943 0)
(1.0184269 0.030135518 0)
(1.0483119 0.039339893 0)
(1.0798407 0.044131749 0)
(1.1111827 0.045675122 0)
(1.141601 0.044664742 0)
(1.1697797 0.042154348 0)
(1.1944862 0.038974407 0)
(1.2150123 0.035601784 0)
(1.2314787 0.032295388 0)
(1.2447621 0.02920365 0)
(1.2559746 0.02641396 0)
(1.2659417 0.023940762 0)
(1.2750261 0.021707492 0)
(1.2832572 0.019571057 0)
(1.2905401 0.017386456 0)
(1.2967932 0.015071978 0)
(1.3019941 0.01263925 0)
(1.3061761 0.010180356 0)
(1.3094136 0.0078278578 0)
(1.3118105 0.0057103914 0)
(1.3134914 0.0039204594 0)
(1.3145922 0.0025006002 0)
(1.315249 0.0014457283 0)
(1.3155874 0.00071540228 0)
(1.3157146 0.00024944353 0)
(1.315715 -1.7881103e-05 0)
(1.31565 -0.00014759998 0)
(1.3155604 -0.00019022851 0)
(1.3154706 -0.00018376463 0)
(1.315393 -0.00015429851 0)
(1.315332 -0.00011805798 0)
(1.3152874 -8.3929316e-05 0)
(1.3152569 -5.585566e-05 0)
(1.3152373 -3.4785871e-05 0)
(1.3152256 -2.0099041e-05 0)
(1.315219 -1.0529983e-05 0)
(1.3152158 -4.7152978e-06 0)
(1.3152145 -1.4574248e-06 0)
(1.3152143 1.7389452e-07 0)
(1.3152145 8.4530344e-07 0)
(1.3152149 9.9713449e-07 0)
(1.3152154 9.0385229e-07 0)
(1.3152157 7.202211e-07 0)
(1.315216 5.284125e-07 0)
(1.3152162 3.6255444e-07 0)
(1.3152163 2.348189e-07 0)
(1.3152164 1.4224829e-07 0)
(1.3152165 7.9982923e-08 0)
(1.3152165 3.919405e-08 0)
(1.3152165 1.4833999e-08 0)
(1.3152165 2.1178793e-10 0)
(1.3152165 -6.9449815e-09 0)
(1.3152165 -1.0794593e-08 0)
(1.3152165 -1.1463941e-08 0)
(1.3152165 -1.170821e-08 0)
(1.3152165 -1.0337491e-08 0)
(1.3152165 -9.9949927e-09 0)
(1.3152165 -7.8260496e-09 0)
(1.3152166 -8.6935378e-09 0)
(1.3152165 -4.5534819e-09 0)
(1.3152166 -1.025138e-08 0)
(1.3152165 2.0361958e-09 0)
(1.3152166 -2.0391802e-08 0)
(1.3152164 2.1705992e-08 0)
(1.3152169 -5.624916e-08 0)
(1.315216 8.3210582e-08 0)
(1.3152176 -1.6473087e-07 0)
(1.3152148 2.6040206e-07 0)
(1.3152195 -4.5647106e-07 0)
(1.3152118 7.1210828e-07 0)
(1.3152241 -1.1431998e-06 0)
(1.3152051 1.7013828e-06 0)
(1.3152335 -2.5102611e-06 0)
(1.3151926 3.4818495e-06 0)
(1.3152491 -4.6738802e-06 0)
(1.3151747 5.8951444e-06 0)
(1.3152678 -7.0358182e-06 0)
(1.3151577 7.7981543e-06 0)
(1.3152798 -7.9155248e-06 0)
(1.3151538 7.3097603e-06 0)
(1.3152742 -5.8027689e-06 0)
(1.3151675 4.4231155e-06 0)
(1.3152588 -3.0131286e-06 0)
(1.3151762 4.8682927e-06 0)
(1.3152683 -7.6079477e-06 0)
(1.3151447 1.8302386e-05 0)
(1.3153234 -2.5762237e-05 0)
(1.3150829 4.7367967e-05 0)
(1.3153892 -4.9971613e-05 0)
(1.3150348 8.6348139e-05 0)
(1.3154621 -6.686953e-05 0)
(1.3149584 0.00014859287 0)
(1.3156513 -6.9076639e-05 0)
(1.314795 0.00028103395 0)
(1.3159826 1.9095093e-05 0)
(1.3147195 0.00056137475 0)
(1.3164087 0.00053702501 0)
(1.3148131 0.0013473865 0)
(1.3170019 0.0024360789 0)
(0.99996201 0.003591166 0)
(1.0139189 0.0095235153 0)
(1.0387767 0.012747929 0)
(1.0675178 0.014345347 0)
(1.0979618 0.014884371 0)
(1.1293077 0.01465557 0)
(1.160027 0.013973118 0)
(1.1883392 0.013065559 0)
(1.2130224 0.012067546 0)
(1.2339176 0.011069316 0)
(1.2518514 0.01013609 0)
(1.2680079 0.0093067525 0)
(1.2832662 0.0085829947 0)
(1.2979317 0.0079253516 0)
(1.3118527 0.0072686278 0)
(1.3246776 0.0065517117 0)
(1.3360594 0.0057445039 0)
(1.3457609 0.0048581996 0)
(1.3536859 0.0039374158 0)
(1.359872 0.0030420134 0)
(1.3644664 0.0022283841 0)
(1.3676914 0.0015366751 0)
(1.3698081 0.000985865 0)
(1.3710821 0.0005753102 0)
(1.3717566 0.00029002735 0)
(1.3720356 0.00010707439 0)
(1.3720772 1.2050567e-06 0)
(1.3719948 -5.1090664e-05 0)
(1.3718626 -6.9315047e-05 0)
(1.3717249 -6.8170867e-05 0)
(1.3716041 -5.7786577e-05 0)
(1.3715087 -4.4491988e-05 0)
(1.3714391 -3.1784501e-05 0)
(1.3713916 -2.1245605e-05 0)
(1.3713612 -1.3292545e-05 0)
(1.3713431 -7.7242017e-06 0)
(1.3713333 -4.0819945e-06 0)
(1.3713285 -1.8591094e-06 0)
(1.3713267 -6.0744704e-07 0)
(1.3713265 2.4548866e-08 0)
(1.371327 2.8860143e-07 0)
(1.3713277 3.5297991e-07 0)
(1.3713284 3.2171517e-07 0)
(1.3713289 2.5499014e-07 0)
(1.3713294 1.8375932e-07 0)
(1.3713297 1.2219525e-07 0)
(1.3713299 7.4420013e-08 0)
(1.37133 4.0257292e-08 0)
(1.3713301 1.716379e-08 0)
(1.3713302 2.6284044e-09 0)
(1.3713302 -6.0326545e-09 0)
(1.3713302 -1.0590845e-08 0)
(1.3713302 -1.2711045e-08 0)
(1.3713302 -1.3185476e-08 0)
(1.3713302 -1.2853961e-08 0)
(1.3713302 -1.200096e-08 0)
(1.3713302 -1.0984269e-08 0)
(1.3713302 -1.001112e-08 0)
(1.3713302 -8.8197843e-09 0)
(1.3713303 -8.4369604e-09 0)
(1.3713302 -6.7540095e-09 0)
(1.3713303 -8.3234517e-09 0)
(1.3713302 -3.9822959e-09 0)
(1.3713303 -1.1730892e-08 0)
(1.3713301 2.8531769e-09 0)
(1.3713306 -2.4747139e-08 0)
(1.3713296 2.3803595e-08 0)
(1.3713314 -6.3705955e-08 0)
(1.3713283 8.4676402e-08 0)
(1.3713334 -1.6710988e-07 0)
(1.3713251 2.4112365e-07 0)
(1.3713383 -4.0872124e-07 0)
(1.371318 5.8610048e-07 0)
(1.3713483 -8.9009243e-07 0)
(1.3713048 1.2134366e-06 0)
(1.3713648 -1.6618978e-06 0)
(1.3712857 2.0854166e-06 0)
(1.3713849 -2.5435855e-06 0)
(1.371267 2.8415449e-06 0)
(1.3713991 -2.9937972e-06 0)
(1.3712603 2.869392e-06 0)
(1.3713974 -2.5068766e-06 0)
(1.3712687 2.1581174e-06 0)
(1.3713892 -1.8323727e-06 0)
(1.3712682 2.6429225e-06 0)
(1.371411 -3.7574087e-06 0)
(1.3712222 7.8466854e-06 0)
(1.3714863 -1.0815929e-05 0)
(1.3711354 1.9402117e-05 0)
(1.3715931 -2.1092053e-05 0)
(1.3710353 3.6015192e-05 0)
(1.3717559 -2.9609209e-05 0)
(1.3708581 6.2089357e-05 0)
(1.3721247 -3.1406448e-05 0)
(1.3705367 0.00011493896 0)
(1.372811 5.9534211e-06 0)
(1.3702793 0.00023050951 0)
(1.3740062 0.00022550833 0)
(1.3703377 0.00056029525 0)
(1.3758907 0.0010186024 0)
(0.99996201 -0.0035911445 0)
(1.0139189 -0.0095235741 0)
(1.0387766 -0.0127481 0)
(1.0675178 -0.01434557 0)
(1.0979618 -0.014884566 0)
(1.1293077 -0.014655711 0)
(1.160027 -0.013973242 0)
(1.1883392 -0.013065724 0)
(1.2130224 -0.012067781 0)
(1.2339176 -0.011069609 0)
(1.2518514 -0.010136397 0)
(1.2680079 -0.0093070335 0)
(1.2832662 -0.0085832314 0)
(1.2979316 -0.0079255537 0)
(1.3118527 -0.0072688205 0)
(1.3246775 -0.0065519205 0)
(1.3360593 -0.0057447417 0)
(1.3457609 -0.0048584621 0)
(1.3536858 -0.0039376858 0)
(1.359872 -0.0030422668 0)
(1.3644663 -0.0022286002 0)
(1.3676913 -0.0015368393 0)
(1.369808 -0.00098597459 0)
(1.3710821 -0.0005753698 0)
(1.3717565 -0.00029005065 0)
(1.3720355 -0.00010707566 0)
(1.3720772 -1.200914e-06 0)
(1.3719948 5.1089193e-05 0)
(1.3718626 6.9298403e-05 0)
(1.3717249 6.8137002e-05 0)
(1.3716041 5.7734443e-05 0)
(1.3715088 4.4426345e-05 0)
(1.3714392 3.1708411e-05 0)
(1.3713916 2.1165574e-05 0)
(1.3713613 1.3211081e-05 0)
(1.3713432 7.6460337e-06 0)
(1.3713333 4.0070439e-06 0)
(1.3713285 1.7898255e-06 0)
(1.3713267 5.4175322e-07 0)
(1.3713265 -8.5381199e-08 0)
(1.371327 -3.4732756e-07 0)
(1.3713277 -4.0825541e-07 0)
(1.3713284 -3.7601559e-07 0)
(1.371329 -3.0648339e-07 0)
(1.3713294 -2.3453276e-07 0)
(1.3713297 -1.6999357e-07 0)
(1.3713299 -1.2111106e-07 0)
(1.3713301 -8.35167e-08 0)
(1.3713302 -5.8935593e-08 0)
(1.3713302 -4.0641342e-08 0)
(1.3713302 -3.0268446e-08 0)
(1.3713303 -2.1873553e-08 0)
(1.3713303 -1.8106799e-08 0)
(1.3713303 -1.3914832e-08 0)
(1.3713303 -1.2759376e-08 0)
(1.3713303 -1.0150221e-08 0)
(1.3713303 -1.0024346e-08 0)
(1.3713303 -7.9263266e-09 0)
(1.3713303 -8.4007707e-09 0)
(1.3713303 -6.2661086e-09 0)
(1.3713302 -7.8842431e-09 0)
(1.3713303 -4.4954102e-09 0)
(1.3713302 -9.4757785e-09 0)
(1.3713303 -6.7348061e-10 0)
(1.3713301 -1.6713205e-08 0)
(1.3713306 1.1156657e-08 0)
(1.3713296 -3.9608065e-08 0)
(1.3713314 4.7428321e-08 0)
(1.3713283 -1.0388989e-07 0)
(1.3713334 1.4685845e-07 0)
(1.3713251 -2.6465342e-07 0)
(1.3713383 3.8400144e-07 0)
(1.371318 -6.1401365e-07 0)
(1.3713483 8.6125979e-07 0)
(1.3713047 -1.2450965e-06 0)
(1.3713648 1.6295297e-06 0)
(1.3712857 -2.1206773e-06 0)
(1.3713849 2.5073586e-06 0)
(1.371267 -2.880967e-06 0)
(1.3713991 2.9533905e-06 0)
(1.3712603 -2.912219e-06 0)
(1.3713974 2.4650976e-06 0)
(1.3712687 -2.1988773e-06 0)
(1.3713892 1.7968963e-06 0)
(1.3712682 -2.6734874e-06 0)
(1.371411 3.7344842e-06 0)
(1.3712222 -7.8651374e-06 0)
(1.3714863 1.0802094e-05 0)
(1.3711354 -1.9416353e-05 0)
(1.3715931 2.1078618e-05 0)
(1.3710353 -3.6030205e-05 0)
(1.3717559 2.9598792e-05 0)
(1.3708581 -6.2094849e-05 0)
(1.3721247 3.141194e-05 0)
(1.3705367 -0.00011492522 0)
(1.372811 -5.9346007e-06 0)
(1.3702792 -0.00023048539 0)
(1.3740062 -0.00022548818 0)
(1.3703376 -0.0005602723 0)
(1.3758907 -0.0010185791 0)
(0.99974668 -0.012347913 0)
(1.0184269 -0.030135542 0)
(1.0483118 -0.039340014 0)
(1.0798406 -0.044131922 0)
(1.1111826 -0.045675284 0)
(1.1416009 -0.04466487 0)
(1.1697797 -0.042154469 0)
(1.1944862 -0.03897456 0)
(1.2150123 -0.035601993 0)
(1.2314787 -0.03229564 0)
(1.2447621 -0.029203915 0)
(1.2559746 -0.026414208 0)
(1.2659416 -0.023940979 0)
(1.2750261 -0.021707682 0)
(1.2832572 -0.019571239 0)
(1.29054 -0.017386647 0)
(1.2967931 -0.01507219 0)
(1.301994 -0.012639479 0)
(1.306176 -0.01018059 0)
(1.3094135 -0.0078280791 0)
(1.3118104 -0.005710582 0)
(1.3134913 -0.0039206075 0)
(1.3145921 -0.0025007019 0)
(1.3152489 -0.0014457883 0)
(1.3155873 -0.00071543035 0)
(1.3157145 -0.00024945347 0)
(1.3157149 1.7876588e-05 0)
(1.31565 0.00014758942 0)
(1.3155605 0.00019020551 0)
(1.3154707 0.00018372548 0)
(1.3153931 0.00015424456 0)
(1.3153321 0.00011799141 0)
(1.3152875 8.3855282e-05 0)
(1.315257 5.5777662e-05 0)
(1.3152374 3.4708597e-05 0)
(1.3152257 2.0024136e-05 0)
(1.3152191 1.045994e-05 0)
(1.3152159 4.6495326e-06 0)
(1.3152146 1.3967442e-06 0)
(1.3152144 -2.3124055e-07 0)
(1.3152146 -8.9893435e-07 0)
(1.3152151 -1.0488088e-06 0)
(1.3152155 -9.5286752e-07 0)
(1.3152158 -7.6794896e-07 0)
(1.3152161 -5.7369507e-07 0)
(1.3152163 -4.0643197e-07 0)
(1.3152164 -2.7594014e-07 0)
(1.3152165 -1.8161789e-07 0)
(1.3152165 -1.1625502e-07 0)
(1.3152166 -7.3445066e-08 0)
(1.3152166 -4.5840586e-08 0)
(1.3152166 -2.9189468e-08 0)
(1.3152166 -1.8863075e-08 0)
(1.3152166 -1.31194e-08 0)
(1.3152166 -9.4993797e-09 0)
(1.3152166 -7.6635297e-09 0)
(1.3152166 -6.4361362e-09 0)
(1.3152166 -5.5791063e-09 0)
(1.3152166 -5.6315993e-09 0)
(1.3152166 -4.1347499e-09 0)
(1.3152166 -6.7808044e-09 0)
(1.3152166 -1.0895749e-09 0)
(1.3152165 -1.2551899e-08 0)
(1.3152167 9.1912912e-09 0)
(1.3152164 -3.2723885e-08 0)
(1.3152169 4.3954729e-08 0)
(1.315216 -9.5899772e-08 0)
(1.3152176 1.5018947e-07 0)
(1.3152148 -2.7587255e-07 0)
(1.3152195 4.3868147e-07 0)
(1.3152118 -7.3125955e-07 0)
(1.3152241 1.1213901e-06 0)
(1.315205 -1.724753e-06 0)
(1.3152335 2.4842347e-06 0)
(1.3151926 -3.5092595e-06 0)
(1.315249 4.6440837e-06 0)
(1.3151746 -5.9259188e-06 0)
(1.3152678 7.00307e-06 0)
(1.3151576 -7.831428e-06 0)
(1.3152798 7.880818e-06 0)
(1.3151538 -7.3441093e-06 0)
(1.3152742 5.7684431e-06 0)
(1.3151675 -4.4550112e-06 0)
(1.3152587 2.9836937e-06 0)
(1.3151761 -4.8929695e-06 0)
(1.3152682 7.5872707e-06 0)
(1.3151446 -1.8318217e-05 0)
(1.3153233 2.5749196e-05 0)
(1.3150828 -4.7378508e-05 0)
(1.3153892 4.9961876e-05 0)
(1.3150348 -8.6356636e-05 0)
(1.3154621 6.6863062e-05 0)
(1.3149583 -0.00014859573 0)
(1.3156513 6.9080006e-05 0)
(1.3147949 -0.00028102388 0)
(1.3159826 -1.9079716e-05 0)
(1.3147195 -0.00056135258 0)
(1.3164086 -0.000537004 0)
(1.3148131 -0.0013473637 0)
(1.3170019 -0.0024360564 0)
(1.0001531 -0.028827081 0)
(1.0315135 -0.059270987 0)
(1.0676441 -0.070852237 0)
(1.0976446 -0.0751589 0)
(1.1227735 -0.074280598 0)
(1.1431962 -0.069479248 0)
(1.1586403 -0.062743065 0)
(1.1693716 -0.055647849 0)
(1.1758619 -0.048995221 0)
(1.1788054 -0.0430288 0)
(1.1791674 -0.037748387 0)
(1.1779245 -0.033124215 0)
(1.175798 -0.029122244 0)
(1.1732031 -0.025656424 0)
(1.1703741 -0.022572036 0)
(1.1674988 -0.019688725 0)
(1.1647703 -0.016868013 0)
(1.1623653 -0.014058895 0)
(1.1604034 -0.011301072 0)
(1.1589262 -0.0086937418 0)
(1.1579038 -0.0063510948 0)
(1.157259 -0.0043641449 0)
(1.1568967 -0.0027793812 0)
(1.1567251 -0.0015952959 0)
(1.1566691 -0.00077171927 0)
(1.156674 -0.00024507374 0)
(1.1567043 5.6355084e-05 0)
(1.1567397 0.00020058931 0)
(1.1567704 0.00024483656 0)
(1.1567931 0.00023264292 0)
(1.1568079 0.00019419453 0)
(1.1568164 0.00014839191 0)
(1.1568205 0.00010563646 0)
(1.156822 7.053314e-05 0)
(1.156822 4.4159797e-05 0)
(1.1568214 2.5717893e-05 0)
(1.1568206 1.3647497e-05 0)
(1.1568198 6.2609538e-06 0)
(1.1568193 2.0827873e-06 0)
(1.1568189 -4.7025154e-08 0)
(1.1568186 -9.5375084e-07 0)
(1.1568184 -1.1952761e-06 0)
(1.1568184 -1.1118244e-06 0)
(1.1568183 -9.0662566e-07 0)
(1.1568183 -6.793406e-07 0)
(1.1568183 -4.8166264e-07 0)
(1.1568183 -3.2436461e-07 0)
(1.1568183 -2.1162283e-07 0)
(1.1568183 -1.3181496e-07 0)
(1.1568183 -8.1127211e-08 0)
(1.1568183 -4.7131496e-08 0)
(1.1568183 -2.8290204e-08 0)
(1.1568183 -1.5351088e-08 0)
(1.1568183 -9.8395246e-09 0)
(1.1568183 -5.1117687e-09 0)
(1.1568183 -4.3186391e-09 0)
(1.1568183 -2.456523e-09 0)
(1.1568183 -2.7678036e-09 0)
(1.1568182 -2.5035197e-09 0)
(1.1568182 -1.7601164e-09 0)
(1.1568182 -4.859942e-09 0)
(1.1568183 1.8302967e-09 0)
(1.1568182 -1.3330244e-08 0)
(1.1568183 1.6006586e-08 0)
(1.1568181 -4.1659664e-08 0)
(1.1568185 6.5624865e-08 0)
(1.1568178 -1.3116162e-07 0)
(1.1568191 2.1904687e-07 0)
(1.1568168 -3.8963847e-07 0)
(1.1568207 6.3922872e-07 0)
(1.1568142 -1.0517446e-06 0)
(1.1568246 1.6397487e-06 0)
(1.1568085 -2.5063829e-06 0)
(1.1568325 3.6385254e-06 0)
(1.1567979 -5.109808e-06 0)
(1.1568457 6.7591167e-06 0)
(1.1567829 -8.5187378e-06 0)
(1.1568609 9.9189847e-06 0)
(1.15677 -1.0717307e-05 0)
(1.1568681 1.0188232e-05 0)
(1.1567716 -8.3968332e-06 0)
(1.1568561 4.8936804e-06 0)
(1.1567927 -1.3666171e-06 0)
(1.1568317 -2.1808356e-06 0)
(1.156811 1.100703e-06 0)
(1.1568293 1.8884793e-06 0)
(1.1567921 -1.5158216e-05 0)
(1.1568647 2.4139993e-05 0)
(1.1567552 -4.8034768e-05 0)
(1.1568813 4.5669804e-05 0)
(1.1567704 -7.9502719e-05 0)
(1.1568355 4.512849e-05 0)
(1.1568172 -0.00012993505 0)
(1.15679 3.1606187e-05 0)
(1.1568409 -0.00026523652 0)
(1.1566407 -6.4431446e-05 0)
(1.1570064 -0.00052742292 0)
(1.1559474 -0.00054983237 0)
(1.1571807 -0.0012048343 0)
(1.1544992 -0.0021179133 0)
(1.0032623 -0.054814113 0)
(1.0472536 -0.10088382 0)
(1.0662761 -0.11134629 0)
(1.0628472 -0.10886834 0)
(1.0509709 -0.099616416 0)
(1.034532 -0.086550909 0)
(1.0150036 -0.072408129 0)
(0.9942048 -0.059182444 0)
(0.97350618 -0.0478107 0)
(0.95369052 -0.038409271 0)
(0.93524805 -0.030729181 0)
(0.91844513 -0.024541757 0)
(0.90333743 -0.01967647 0)
(0.88982191 -0.015964082 0)
(0.87776491 -0.013181598 0)
(0.86710391 -0.011060699 0)
(0.85786361 -0.0093420131 0)
(0.85010537 -0.007829491 0)
(0.84385929 -0.0064156122 0)
(0.83907817 -0.0050737023 0)
(0.83562716 -0.0038296089 0)
(0.83330319 -0.0027286656 0)
(0.83186893 -0.0018096937 0)
(0.83108729 -0.0010910123 0)
(0.83074748 -0.00056774552 0)
(0.83067944 -0.0002166137 0)
(0.83075768 -3.8727288e-06 0)
(0.83089769 0.00010694609 0)
(0.8310482 0.00014930921 0)
(0.83118234 0.00015048449 0)
(0.83128939 0.0001305251 0)
(0.83136817 0.00010275866 0)
(0.83142232 7.505213e-05 0)
(0.83145723 5.1318988e-05 0)
(0.83147826 3.2897224e-05 0)
(0.83148998 1.9655083e-05 0)
(0.83149582 1.0760634e-05 0)
(0.83149824 5.1775481e-06 0)
(0.83149881 1.9262351e-06 0)
(0.83149853 2.0896162e-07 0)
(0.83149793 -5.7041818e-07 0)
(0.83149729 -8.1894353e-07 0)
(0.83149675 -8.0046124e-07 0)
(0.83149633 -6.6890073e-07 0)
(0.83149603 -5.1091655e-07 0)
(0.83149582 -3.6518087e-07 0)
(0.83149569 -2.4864363e-07 0)
(0.83149561 -1.6126845e-07 0)
(0.83149556 -1.0094513e-07 0)
(0.83149553 -6.0003517e-08 0)
(0.83149552 -3.467529e-08 0)
(0.83149551 -1.8407302e-08 0)
(0.8314955 -9.6250226e-09 0)
(0.8314955 -3.9916764e-09 0)
(0.8314955 -1.8080646e-09 0)
(0.8314955 3.3878402e-11 0)
(0.83149549 -9.9934599e-11 0)
(0.83149549 8.0676658e-10 0)
(0.83149549 -6.2594339e-10 0)
(0.83149549 1.2536437e-09 0)
(0.83149548 -2.9666714e-09 0)
(0.8314955 4.0781823e-09 0)
(0.83149546 -1.0520736e-08 0)
(0.83149553 1.6452313e-08 0)
(0.83149539 -3.5478173e-08 0)
(0.83149565 6.0681042e-08 0)
(0.83149517 -1.1544672e-07 0)
(0.83149602 1.9938484e-07 0)
(0.83149453 -3.4978133e-07 0)
(0.83149707 5.8403715e-07 0)
(0.83149284 -9.582366e-07 0)
(0.83149964 1.5100903e-06 0)
(0.83148906 -2.3084335e-06 0)
(0.83150491 3.3719496e-06 0)
(0.83148212 -4.7307997e-06 0)
(0.83151339 6.2614069e-06 0)
(0.83147273 -7.836806e-06 0)
(0.83152236 9.0245196e-06 0)
(0.8314662 -9.4943939e-06 0)
(0.83152382 8.5713363e-06 0)
(0.83147204 -6.1935908e-06 0)
(0.83150955 2.0766014e-06 0)
(0.83149261 2.3006086e-06 0)
(0.83148761 -6.4630184e-06 0)
(0.83150683 6.428501e-06 0)
(0.83148805 -3.9761264e-06 0)
(0.83148608 -6.8223023e-06 0)
(0.83151852 1.3663845e-05 0)
(0.8314559 -2.9103502e-05 0)
(0.8315152 2.0607017e-05 0)
(0.83148504 -3.4679894e-05 0)
(0.83143287 -3.8310352e-06 0)
(0.83153744 -4.542106e-05 0)
(0.83132742 -3.4299345e-05 0)
(0.83154406 -0.00011432997 0)
(0.83103392 -0.00011714372 0)
(0.83167519 -0.00018754468 0)
(0.82998192 -0.000367709 0)
(0.83180308 -0.00021929453 0)
(0.82798616 -0.00034944594 0)
(0.92240992 -0.034484269 0)
(0.87135539 -0.058467948 0)
(0.78828852 -0.056182386 0)
(0.69410422 -0.045710224 0)
(0.61411773 -0.034383401 0)
(0.55020458 -0.024217669 0)
(0.49938341 -0.016132151 0)
(0.45972939 -0.010457642 0)
(0.42938815 -0.0068020545 0)
(0.40642567 -0.0044473206 0)
(0.38917061 -0.0028052023 0)
(0.37621937 -0.0016188258 0)
(0.36640121 -0.00081187623 0)
(0.35869624 -0.00035051264 0)
(0.35232854 -0.0001761233 0)
(0.34681786 -0.00019777603 0)
(0.34194444 -0.00031593764 0)
(0.33766176 -0.0004477255 0)
(0.33400217 -0.00054019691 0)
(0.33100461 -0.00057117947 0)
(0.32867399 -0.00054234567 0)
(0.3269688 -0.00046942403 0)
(0.32580786 -0.00037308996 0)
(0.32508647 -0.00027236394 0)
(0.324694 -0.00018108918 0)
(0.3245282 -0.00010699626 0)
(0.324504 -5.250704e-05 0)
(0.32455696 -1.6315646e-05 0)
(0.32464255 4.9179093e-06 0)
(0.32473315 1.5202898e-05 0)
(0.32481388 1.8301691e-05 0)
(0.32487863 1.7265502e-05 0)
(0.32492662 1.4289305e-05 0)
(0.32495985 1.0784266e-05 0)
(0.3249814 7.5350405e-06 0)
(0.32499443 4.8928108e-06 0)
(0.32500168 2.9332244e-06 0)
(0.32500525 1.5911655e-06 0)
(0.32500664 7.3772171e-07 0)
(0.32500688 2.4057961e-07 0)
(0.32500657 -2.021383e-08 0)
(0.32500607 -1.3255182e-07 0)
(0.32500557 -1.6316379e-07 0)
(0.32500515 -1.5082503e-07 0)
(0.32500483 -1.2348943e-07 0)
(0.3250046 -9.1785022e-08 0)
(0.32500444 -6.5091854e-08 0)
(0.32500434 -4.2598939e-08 0)
(0.32500427 -2.7426162e-08 0)
(0.32500424 -1.5642865e-08 0)
(0.32500422 -9.1477922e-09 0)
(0.32500421 -3.7975196e-09 0)
(0.3250042 -1.8164486e-09 0)
(0.3250042 5.1491037e-10 0)
(0.3250042 5.6671684e-10 0)
(0.3250042 1.7733121e-09 0)
(0.3250042 1.0824387e-09 0)
(0.3250042 2.0023813e-09 0)
(0.3250042 8.0265789e-10 0)
(0.3250042 2.2069661e-09 0)
(0.3250042 -2.4947768e-10 0)
(0.3250042 3.5333187e-09 0)
(0.32500419 -3.6215441e-09 0)
(0.32500422 9.3107252e-09 0)
(0.32500417 -1.4751258e-08 0)
(0.32500426 2.951587e-08 0)
(0.3250041 -5.038212e-08 0)
(0.32500439 9.1614074e-08 0)
(0.32500388 -1.537885e-07 0)
(0.32500473 2.5985504e-07 0)
(0.32500332 -4.1680572e-07 0)
(0.32500557 6.5266371e-07 0)
(0.32500211 -9.7954288e-07 0)
(0.32500723 1.4054867e-06 0)
(0.32499998 -1.9252663e-06 0)
(0.32500972 2.4721638e-06 0)
(0.32499739 -2.9716903e-06 0)
(0.32501188 3.2385634e-06 0)
(0.32499634 -3.1248611e-06 0)
(0.32501095 2.4267673e-06 0)
(0.32499971 -1.1620368e-06 0)
(0.32500502 -5.7210761e-07 0)
(0.32500678 2.1127735e-06 0)
(0.32499863 -3.0609865e-06 0)
(0.32500857 2.103819e-06 0)
(0.32500228 -6.2547684e-08 0)
(0.32499686 -4.2674763e-06 0)
(0.32501364 6.2874549e-06 0)
(0.32498522 -9.1428863e-06 0)
(0.32500601 3.7360006e-06 0)
(0.32499215 -4.6990408e-06 0)
(0.32497063 -7.0189769e-06 0)
(0.32498504 -7.246098e-06 0)
(0.32492546 -1.2054826e-05 0)
(0.32493523 -1.8321516e-05 0)
(0.32478237 -4.1155347e-05 0)
(0.32491205 3.4391333e-05 0)
(0.32447797 -5.2631871e-05 0)
(0.32495341 0.0003468133 0)
(0.32497141 0.00043964024 0)
)
;

boundaryField
{
    top
    {
        type            fixedValue;
        value           uniform (0 0 0);
    }
    inlet
    {
        type            fixedValue;
        value           uniform (1 0 0);
    }
    outlet
    {
        type            zeroGradient;
    }
    bottom
    {
        type            fixedValue;
        value           uniform (0 0 0);
    }
    back
    {
        type            empty;
    }
    front
    {
        type            empty;
    }
}


// ************************************************************************* //
