/*--------------------------------*- C++ -*----------------------------------*\
| =========                 |                                                 |
| \\      /  F ield         | OpenFOAM: The Open Source CFD Toolbox           |
|  \\    /   O peration     | Version:  v1812                                 |
|   \\  /    A nd           | Web:      www.OpenFOAM.com                      |
|    \\/     M anipulation  |                                                 |
\*---------------------------------------------------------------------------*/
FoamFile
{
    version     2.0;
    format      ascii;
    class       volScalarField;
    location    "40";
    object      T;
}
// * * * * * * * * * * * * * * * * * * * * * * * * * * * * * * * * * * * * * //

dimensions      [0 0 0 1 0 0 0];


internalField   nonuniform List<scalar> 
10000
(
1.43293
1.43293
1.43293
1.43293
1.43293
1.43293
1.43293
1.43293
1.43293
1.43293
1.29962
1.29962
1.29962
1.29962
1.29962
1.29962
1.29962
1.29962
1.29962
1.29962
1.16882
1.16882
1.16882
1.16882
1.16882
1.16882
1.16882
1.16882
1.16882
1.16882
1.04208
1.04208
1.04208
1.04208
1.04208
1.04208
1.04208
1.04208
1.04208
1.04208
0.920814
0.920814
0.920814
0.920813
0.920813
0.920813
0.920813
0.920813
0.920813
0.920813
0.806243
0.806243
0.806243
0.806242
0.806242
0.806242
0.806242
0.806242
0.806242
0.806242
0.699349
0.69935
0.699349
0.699348
0.699348
0.699348
0.699348
0.699348
0.699349
0.699349
0.600864
0.600864
0.600864
0.600863
0.600863
0.600863
0.600863
0.600863
0.600864
0.600863
0.511257
0.511258
0.511257
0.511256
0.511256
0.511256
0.511256
0.511256
0.511257
0.511257
0.430743
0.430743
0.430742
0.430742
0.430742
0.430742
0.430742
0.430742
0.430743
0.430743
0.359297
0.359298
0.359297
0.359296
0.359296
0.359296
0.359296
0.359297
0.359297
0.359297
0.296684
0.296684
0.296684
0.296683
0.296683
0.296683
0.296683
0.296684
0.296684
0.296684
0.242489
0.24249
0.242489
0.242488
0.242488
0.242488
0.242489
0.242489
0.24249
0.24249
0.196159
0.196159
0.196159
0.196158
0.196158
0.196158
0.196159
0.196159
0.19616
0.19616
0.157039
0.157039
0.157038
0.157038
0.157038
0.157038
0.157038
0.157039
0.157039
0.157039
0.124411
0.124411
0.12441
0.12441
0.12441
0.12441
0.12441
0.124411
0.124411
0.124411
0.097529
0.0975292
0.0975288
0.0975285
0.0975284
0.0975285
0.0975288
0.0975291
0.0975295
0.0975295
0.0756512
0.0756513
0.0756509
0.0756507
0.0756506
0.0756507
0.0756509
0.0756512
0.0756516
0.0756516
0.058061
0.0580611
0.0580608
0.0580606
0.0580606
0.0580606
0.0580608
0.058061
0.0580613
0.0580613
0.0440888
0.0440888
0.0440886
0.0440884
0.0440883
0.0440883
0.0440884
0.0440886
0.0440888
0.0440888
0.0331234
0.0331234
0.0331232
0.033123
0.0331229
0.0331228
0.0331229
0.033123
0.0331231
0.0331231
0.0246206
0.0246206
0.0246203
0.0246201
0.0246199
0.0246198
0.0246197
0.0246196
0.0246197
0.0246196
0.0181056
0.0181056
0.0181053
0.018105
0.0181047
0.0181044
0.0181041
0.0181038
0.0181036
0.0181034
0.0131728
0.0131727
0.0131723
0.0131719
0.0131714
0.0131708
0.0131701
0.0131695
0.013169
0.0131686
0.00948171
0.00948155
0.00948111
0.00948048
0.00947963
0.00947856
0.0094773
0.00947598
0.00947483
0.0094741
0.00675211
0.00675186
0.00675125
0.00675031
0.00674896
0.00674715
0.00674489
0.00674237
0.00674005
0.00673853
0.00475697
0.00475661
0.00475576
0.00475439
0.00475232
0.00474938
0.00474548
0.00474083
0.00473617
0.00473296
0.00331551
0.00331501
0.00331388
0.00331195
0.00330891
0.00330435
0.00329788
0.00328948
0.00328015
0.00327299
0.00228604
0.00228541
0.00228396
0.00228141
0.00227721
0.00227054
0.00226036
0.00224571
0.00222703
0.00220977
0.00155925
0.00155849
0.00155676
0.00155362
0.00154826
0.00153932
0.00152459
0.00150078
0.00146426
0.0014184
1.43293
1.43293
1.43293
1.43293
1.43293
1.43293
1.43293
1.43293
1.43293
1.43293
1.29962
1.29962
1.29962
1.29962
1.29962
1.29962
1.29962
1.29962
1.29962
1.29962
1.16882
1.16882
1.16882
1.16882
1.16882
1.16882
1.16882
1.16882
1.16882
1.16882
1.04208
1.04208
1.04208
1.04208
1.04208
1.04208
1.04208
1.04208
1.04208
1.04208
0.920814
0.920814
0.920814
0.920813
0.920813
0.920813
0.920813
0.920813
0.920813
0.920813
0.806243
0.806243
0.806243
0.806242
0.806242
0.806242
0.806242
0.806242
0.806243
0.806242
0.69935
0.69935
0.699349
0.699348
0.699348
0.699348
0.699348
0.699348
0.699349
0.699349
0.600864
0.600864
0.600863
0.600863
0.600863
0.600862
0.600863
0.600863
0.600864
0.600864
0.511258
0.511257
0.511257
0.511256
0.511256
0.511256
0.511256
0.511256
0.511257
0.511257
0.430743
0.430743
0.430742
0.430742
0.430742
0.430742
0.430742
0.430742
0.430743
0.430743
0.359298
0.359297
0.359297
0.359296
0.359296
0.359296
0.359296
0.359297
0.359298
0.359297
0.296684
0.296684
0.296683
0.296683
0.296683
0.296683
0.296683
0.296684
0.296684
0.296684
0.24249
0.242489
0.242489
0.242488
0.242488
0.242488
0.242489
0.242489
0.24249
0.24249
0.196159
0.196159
0.196159
0.196158
0.196158
0.196158
0.196159
0.196159
0.19616
0.19616
0.157039
0.157039
0.157038
0.157038
0.157038
0.157038
0.157038
0.157039
0.157039
0.157039
0.124411
0.124411
0.12441
0.12441
0.12441
0.12441
0.12441
0.124411
0.124411
0.124411
0.0975292
0.0975291
0.0975287
0.0975284
0.0975283
0.0975284
0.0975287
0.0975291
0.0975297
0.0975297
0.0756513
0.0756512
0.0756508
0.0756506
0.0756505
0.0756506
0.0756509
0.0756512
0.0756517
0.0756517
0.0580611
0.0580611
0.0580608
0.0580606
0.0580605
0.0580606
0.0580607
0.0580611
0.0580614
0.0580615
0.0440889
0.0440888
0.0440885
0.0440883
0.0440883
0.0440883
0.0440884
0.0440886
0.0440889
0.0440889
0.0331235
0.0331234
0.0331231
0.033123
0.0331229
0.0331228
0.0331228
0.033123
0.0331232
0.0331232
0.0246206
0.0246206
0.0246203
0.0246201
0.0246199
0.0246198
0.0246197
0.0246196
0.0246197
0.0246196
0.0181057
0.0181056
0.0181053
0.018105
0.0181047
0.0181044
0.0181041
0.0181038
0.0181037
0.0181035
0.0131728
0.0131727
0.0131723
0.0131719
0.0131714
0.0131708
0.0131701
0.0131695
0.013169
0.0131686
0.00948173
0.00948153
0.00948109
0.00948046
0.00947961
0.00947854
0.00947728
0.00947598
0.00947486
0.00947413
0.00675212
0.00675185
0.00675123
0.00675029
0.00674894
0.00674713
0.00674488
0.00674238
0.00674007
0.00673856
0.00475698
0.0047566
0.00475575
0.00475437
0.0047523
0.00474937
0.00474547
0.00474083
0.00473619
0.00473298
0.00331551
0.003315
0.00331387
0.00331194
0.0033089
0.00330434
0.00329788
0.00328948
0.00328016
0.003273
0.00228605
0.0022854
0.00228395
0.0022814
0.0022772
0.00227054
0.00226036
0.00224571
0.00222704
0.00220977
0.00155925
0.00155848
0.00155675
0.00155361
0.00154826
0.00153932
0.00152459
0.00150078
0.00146427
0.0014184
1.43293
1.43293
1.43293
1.43293
1.43293
1.43293
1.43293
1.43293
1.43293
1.43293
1.29962
1.29962
1.29962
1.29962
1.29962
1.29962
1.29962
1.29962
1.29962
1.29962
1.16882
1.16882
1.16882
1.16882
1.16882
1.16882
1.16882
1.16882
1.16882
1.16882
1.04208
1.04208
1.04208
1.04208
1.04208
1.04208
1.04208
1.04208
1.04208
1.04208
0.920814
0.920814
0.920813
0.920812
0.920812
0.920812
0.920812
0.920812
0.920813
0.920813
0.806243
0.806243
0.806242
0.806241
0.806241
0.806241
0.806241
0.806241
0.806242
0.806242
0.699349
0.699349
0.699348
0.699347
0.699347
0.699347
0.699347
0.699348
0.699348
0.699349
0.600864
0.600863
0.600862
0.600862
0.600862
0.600862
0.600862
0.600862
0.600863
0.600863
0.511257
0.511257
0.511256
0.511255
0.511255
0.511255
0.511255
0.511256
0.511257
0.511257
0.430742
0.430742
0.430741
0.430741
0.430741
0.430741
0.430741
0.430742
0.430743
0.430743
0.359297
0.359297
0.359296
0.359295
0.359295
0.359295
0.359295
0.359296
0.359297
0.359297
0.296684
0.296683
0.296683
0.296682
0.296682
0.296682
0.296682
0.296683
0.296684
0.296684
0.242489
0.242489
0.242488
0.242487
0.242487
0.242487
0.242488
0.242489
0.242489
0.24249
0.196159
0.196159
0.196158
0.196158
0.196157
0.196158
0.196158
0.196159
0.196159
0.19616
0.157038
0.157038
0.157038
0.157037
0.157037
0.157037
0.157038
0.157038
0.157039
0.157039
0.12441
0.12441
0.12441
0.124409
0.124409
0.124409
0.12441
0.12441
0.124411
0.124411
0.0975288
0.0975287
0.0975282
0.097528
0.0975279
0.097528
0.0975283
0.0975288
0.0975295
0.0975296
0.0756509
0.0756508
0.0756504
0.0756502
0.0756502
0.0756503
0.0756506
0.075651
0.0756516
0.0756517
0.0580608
0.0580608
0.0580604
0.0580602
0.0580602
0.0580603
0.0580605
0.0580608
0.0580613
0.0580614
0.0440886
0.0440885
0.0440883
0.0440881
0.044088
0.044088
0.0440882
0.0440885
0.0440889
0.0440889
0.0331233
0.0331232
0.0331229
0.0331228
0.0331227
0.0331226
0.0331227
0.0331228
0.0331231
0.0331231
0.0246205
0.0246204
0.0246201
0.0246199
0.0246197
0.0246196
0.0246195
0.0246195
0.0246197
0.0246196
0.0181055
0.0181054
0.0181052
0.0181049
0.0181046
0.0181042
0.018104
0.0181037
0.0181036
0.0181035
0.0131727
0.0131726
0.0131722
0.0131718
0.0131713
0.0131707
0.01317
0.0131694
0.013169
0.0131686
0.00948166
0.00948146
0.00948101
0.00948038
0.00947954
0.00947847
0.00947723
0.00947593
0.00947484
0.00947413
0.00675207
0.00675179
0.00675118
0.00675023
0.00674889
0.00674708
0.00674484
0.00674234
0.00674006
0.00673856
0.00475694
0.00475656
0.00475571
0.00475433
0.00475226
0.00474933
0.00474544
0.0047408
0.00473618
0.00473298
0.00331549
0.00331497
0.00331384
0.00331191
0.00330887
0.00330431
0.00329785
0.00328946
0.00328016
0.003273
0.00228603
0.00228538
0.00228393
0.00228138
0.00227718
0.00227052
0.00226034
0.0022457
0.00222703
0.00220977
0.00155923
0.00155847
0.00155673
0.0015536
0.00154824
0.0015393
0.00152458
0.00150077
0.00146426
0.0014184
1.43293
1.43293
1.43293
1.43293
1.43293
1.43293
1.43293
1.43293
1.43293
1.43293
1.29962
1.29962
1.29962
1.29962
1.29962
1.29962
1.29962
1.29962
1.29962
1.29962
1.16882
1.16882
1.16882
1.16882
1.16882
1.16882
1.16882
1.16882
1.16882
1.16882
1.04208
1.04208
1.04208
1.04208
1.04208
1.04208
1.04208
1.04208
1.04208
1.04208
0.920813
0.920813
0.920812
0.920812
0.920811
0.920811
0.920811
0.920812
0.920813
0.920813
0.806242
0.806242
0.806241
0.80624
0.80624
0.80624
0.80624
0.806241
0.806242
0.806242
0.699348
0.699348
0.699347
0.699347
0.699346
0.699346
0.699347
0.699347
0.699348
0.699348
0.600863
0.600863
0.600862
0.600861
0.600861
0.600861
0.600861
0.600862
0.600863
0.600863
0.511256
0.511256
0.511255
0.511254
0.511254
0.511254
0.511255
0.511255
0.511256
0.511257
0.430742
0.430742
0.430741
0.43074
0.43074
0.43074
0.430741
0.430741
0.430742
0.430743
0.359296
0.359296
0.359295
0.359295
0.359294
0.359295
0.359295
0.359296
0.359297
0.359297
0.296683
0.296683
0.296682
0.296682
0.296681
0.296682
0.296682
0.296683
0.296684
0.296684
0.242488
0.242488
0.242487
0.242487
0.242487
0.242487
0.242488
0.242488
0.242489
0.24249
0.196158
0.196158
0.196158
0.196157
0.196157
0.196157
0.196158
0.196158
0.196159
0.19616
0.157038
0.157038
0.157037
0.157037
0.157037
0.157037
0.157038
0.157038
0.157039
0.157039
0.12441
0.12441
0.124409
0.124409
0.124409
0.124409
0.12441
0.12441
0.124411
0.124411
0.0975285
0.0975284
0.097528
0.0975277
0.0975277
0.0975278
0.0975282
0.0975287
0.0975295
0.0975296
0.0756507
0.0756506
0.0756502
0.07565
0.07565
0.0756501
0.0756504
0.0756509
0.0756515
0.0756517
0.0580607
0.0580606
0.0580603
0.0580601
0.05806
0.0580601
0.0580604
0.0580608
0.0580613
0.0580614
0.0440885
0.0440884
0.0440881
0.044088
0.0440879
0.0440879
0.0440881
0.0440884
0.0440888
0.0440889
0.0331232
0.0331231
0.0331228
0.0331227
0.0331226
0.0331225
0.0331226
0.0331228
0.0331231
0.0331232
0.0246204
0.0246203
0.0246201
0.0246199
0.0246197
0.0246196
0.0246195
0.0246195
0.0246197
0.0246196
0.0181055
0.0181054
0.0181051
0.0181048
0.0181045
0.0181042
0.0181039
0.0181037
0.0181036
0.0181035
0.0131727
0.0131725
0.0131722
0.0131718
0.0131712
0.0131707
0.01317
0.0131694
0.013169
0.0131686
0.00948162
0.00948142
0.00948098
0.00948035
0.00947951
0.00947845
0.00947721
0.00947593
0.00947485
0.00947414
0.00675205
0.00675177
0.00675115
0.00675021
0.00674887
0.00674707
0.00674483
0.00674234
0.00674006
0.00673857
0.00475692
0.00475654
0.00475569
0.00475432
0.00475225
0.00474932
0.00474543
0.0047408
0.00473618
0.00473299
0.00331547
0.00331496
0.00331383
0.0033119
0.00330886
0.00330431
0.00329785
0.00328946
0.00328016
0.00327301
0.00228602
0.00228537
0.00228392
0.00228137
0.00227717
0.00227051
0.00226034
0.0022457
0.00222704
0.00220978
0.00155923
0.00155846
0.00155673
0.00155359
0.00154824
0.0015393
0.00152457
0.00150077
0.00146427
0.00141841
1.43293
1.43293
1.43293
1.43293
1.43293
1.43293
1.43293
1.43293
1.43293
1.43293
1.29962
1.29962
1.29962
1.29962
1.29962
1.29962
1.29962
1.29962
1.29962
1.29962
1.16882
1.16882
1.16882
1.16882
1.16882
1.16882
1.16882
1.16882
1.16882
1.16882
1.04208
1.04208
1.04208
1.04208
1.04208
1.04208
1.04208
1.04208
1.04208
1.04208
0.920813
0.920813
0.920812
0.920811
0.920811
0.920811
0.920811
0.920812
0.920812
0.920813
0.806242
0.806242
0.806241
0.80624
0.80624
0.80624
0.80624
0.806241
0.806242
0.806242
0.699348
0.699348
0.699347
0.699346
0.699346
0.699346
0.699346
0.699347
0.699348
0.699348
0.600863
0.600863
0.600862
0.600861
0.600861
0.600861
0.600861
0.600862
0.600863
0.600863
0.511256
0.511256
0.511255
0.511254
0.511254
0.511254
0.511254
0.511255
0.511256
0.511257
0.430742
0.430742
0.430741
0.43074
0.43074
0.43074
0.43074
0.430741
0.430742
0.430743
0.359296
0.359296
0.359295
0.359294
0.359294
0.359294
0.359295
0.359296
0.359297
0.359297
0.296683
0.296683
0.296682
0.296681
0.296681
0.296681
0.296682
0.296683
0.296684
0.296684
0.242488
0.242488
0.242487
0.242487
0.242487
0.242487
0.242487
0.242488
0.242489
0.24249
0.196158
0.196158
0.196157
0.196157
0.196157
0.196157
0.196158
0.196158
0.196159
0.19616
0.157038
0.157038
0.157037
0.157037
0.157037
0.157037
0.157038
0.157038
0.157039
0.157039
0.12441
0.12441
0.124409
0.124409
0.124409
0.124409
0.12441
0.12441
0.124411
0.124411
0.0975285
0.0975284
0.0975279
0.0975277
0.0975277
0.0975278
0.0975282
0.0975288
0.0975296
0.0975297
0.0756507
0.0756506
0.0756502
0.07565
0.07565
0.0756501
0.0756505
0.075651
0.0756516
0.0756518
0.0580607
0.0580606
0.0580603
0.0580601
0.0580601
0.0580602
0.0580604
0.0580608
0.0580614
0.0580615
0.0440885
0.0440884
0.0440881
0.044088
0.0440879
0.044088
0.0440882
0.0440885
0.0440889
0.044089
0.0331232
0.0331231
0.0331228
0.0331227
0.0331226
0.0331226
0.0331227
0.0331229
0.0331232
0.0331232
0.0246204
0.0246203
0.0246201
0.0246199
0.0246197
0.0246196
0.0246195
0.0246196
0.0246197
0.0246197
0.0181055
0.0181054
0.0181051
0.0181048
0.0181045
0.0181042
0.018104
0.0181038
0.0181037
0.0181036
0.0131727
0.0131725
0.0131722
0.0131718
0.0131713
0.0131707
0.01317
0.0131694
0.013169
0.0131687
0.00948163
0.00948143
0.00948099
0.00948036
0.00947953
0.00947847
0.00947723
0.00947596
0.00947489
0.00947419
0.00675205
0.00675177
0.00675116
0.00675022
0.00674888
0.00674708
0.00674485
0.00674237
0.00674009
0.0067386
0.00475693
0.00475654
0.0047557
0.00475433
0.00475226
0.00474933
0.00474545
0.00474082
0.00473621
0.00473302
0.00331548
0.00331497
0.00331383
0.00331191
0.00330887
0.00330432
0.00329786
0.00328948
0.00328018
0.00327303
0.00228602
0.00228538
0.00228393
0.00228138
0.00227718
0.00227052
0.00226035
0.00224571
0.00222705
0.0022098
0.00155923
0.00155847
0.00155673
0.0015536
0.00154824
0.00153931
0.00152458
0.00150078
0.00146428
0.00141842
1.43293
1.43293
1.43293
1.43293
1.43293
1.43293
1.43293
1.43293
1.43293
1.43293
1.29962
1.29962
1.29962
1.29962
1.29962
1.29962
1.29962
1.29962
1.29962
1.29962
1.16882
1.16882
1.16882
1.16882
1.16882
1.16882
1.16882
1.16882
1.16882
1.16882
1.04208
1.04208
1.04208
1.04208
1.04208
1.04208
1.04208
1.04208
1.04208
1.04208
0.920813
0.920813
0.920812
0.920811
0.920811
0.920811
0.920811
0.920812
0.920813
0.920813
0.806242
0.806242
0.806241
0.80624
0.80624
0.80624
0.80624
0.806241
0.806242
0.806242
0.699348
0.699348
0.699347
0.699346
0.699346
0.699346
0.699347
0.699347
0.699348
0.699349
0.600863
0.600862
0.600862
0.600861
0.600861
0.600861
0.600861
0.600862
0.600863
0.600863
0.511256
0.511256
0.511255
0.511254
0.511254
0.511254
0.511255
0.511255
0.511257
0.511257
0.430742
0.430742
0.430741
0.43074
0.43074
0.43074
0.430741
0.430742
0.430743
0.430743
0.359296
0.359296
0.359295
0.359295
0.359294
0.359295
0.359295
0.359296
0.359297
0.359298
0.296683
0.296683
0.296682
0.296682
0.296681
0.296682
0.296682
0.296683
0.296684
0.296685
0.242488
0.242488
0.242487
0.242487
0.242487
0.242487
0.242488
0.242489
0.24249
0.24249
0.196158
0.196158
0.196158
0.196157
0.196157
0.196157
0.196158
0.196159
0.19616
0.19616
0.157038
0.157038
0.157037
0.157037
0.157037
0.157037
0.157038
0.157039
0.15704
0.15704
0.12441
0.12441
0.124409
0.124409
0.124409
0.124409
0.12441
0.12441
0.124411
0.124412
0.0975286
0.0975285
0.0975281
0.0975278
0.0975278
0.097528
0.0975284
0.097529
0.0975298
0.09753
0.0756508
0.0756507
0.0756503
0.0756502
0.0756502
0.0756503
0.0756507
0.0756512
0.0756519
0.075652
0.0580607
0.0580607
0.0580604
0.0580602
0.0580602
0.0580603
0.0580606
0.058061
0.0580616
0.0580618
0.0440886
0.0440885
0.0440882
0.0440881
0.044088
0.0440881
0.0440883
0.0440887
0.0440891
0.0440892
0.0331232
0.0331232
0.0331229
0.0331228
0.0331227
0.0331227
0.0331228
0.033123
0.0331233
0.0331234
0.0246205
0.0246204
0.0246201
0.02462
0.0246198
0.0246197
0.0246196
0.0246197
0.0246199
0.0246199
0.0181055
0.0181054
0.0181052
0.0181049
0.0181046
0.0181043
0.0181041
0.0181039
0.0181038
0.0181037
0.0131727
0.0131726
0.0131722
0.0131718
0.0131713
0.0131708
0.0131701
0.0131695
0.0131691
0.0131688
0.00948167
0.00948147
0.00948103
0.00948041
0.00947958
0.00947853
0.0094773
0.00947603
0.00947496
0.00947426
0.00675208
0.00675181
0.0067512
0.00675026
0.00674893
0.00674713
0.0067449
0.00674242
0.00674015
0.00673866
0.00475695
0.00475657
0.00475573
0.00475436
0.0047523
0.00474937
0.00474549
0.00474087
0.00473625
0.00473306
0.0033155
0.00331499
0.00331386
0.00331194
0.0033089
0.00330435
0.0032979
0.00328951
0.00328022
0.00327306
0.00228604
0.00228539
0.00228395
0.0022814
0.0022772
0.00227055
0.00226038
0.00224574
0.00222708
0.00220982
0.00155924
0.00155848
0.00155675
0.00155361
0.00154826
0.00153932
0.0015246
0.0015008
0.00146429
0.00141843
1.43293
1.43293
1.43293
1.43293
1.43293
1.43293
1.43293
1.43293
1.43293
1.43293
1.29962
1.29962
1.29962
1.29962
1.29962
1.29962
1.29962
1.29962
1.29962
1.29962
1.16882
1.16882
1.16882
1.16882
1.16882
1.16882
1.16882
1.16882
1.16882
1.16882
1.04208
1.04208
1.04208
1.04208
1.04208
1.04208
1.04208
1.04208
1.04208
1.04208
0.920813
0.920813
0.920812
0.920811
0.920811
0.920811
0.920812
0.920812
0.920813
0.920813
0.806242
0.806242
0.806241
0.80624
0.80624
0.80624
0.806241
0.806241
0.806242
0.806242
0.699348
0.699348
0.699347
0.699347
0.699346
0.699347
0.699347
0.699348
0.699349
0.699349
0.600863
0.600863
0.600862
0.600861
0.600861
0.600861
0.600862
0.600863
0.600864
0.600864
0.511256
0.511256
0.511255
0.511255
0.511254
0.511255
0.511255
0.511256
0.511257
0.511257
0.430742
0.430742
0.430741
0.430741
0.43074
0.430741
0.430741
0.430742
0.430743
0.430744
0.359296
0.359296
0.359295
0.359295
0.359295
0.359295
0.359296
0.359297
0.359298
0.359298
0.296683
0.296683
0.296682
0.296682
0.296682
0.296682
0.296683
0.296684
0.296685
0.296685
0.242489
0.242489
0.242488
0.242488
0.242487
0.242488
0.242488
0.242489
0.24249
0.242491
0.196159
0.196159
0.196158
0.196158
0.196158
0.196158
0.196158
0.196159
0.19616
0.196161
0.157038
0.157038
0.157038
0.157038
0.157038
0.157038
0.157038
0.157039
0.15704
0.15704
0.12441
0.12441
0.12441
0.12441
0.12441
0.12441
0.12441
0.124411
0.124412
0.124412
0.0975288
0.0975288
0.0975284
0.0975282
0.0975282
0.0975284
0.0975289
0.0975295
0.0975302
0.0975304
0.075651
0.075651
0.0756506
0.0756505
0.0756505
0.0756507
0.075651
0.0756516
0.0756522
0.0756524
0.0580609
0.0580609
0.0580606
0.0580605
0.0580605
0.0580607
0.0580609
0.0580614
0.0580619
0.0580621
0.0440887
0.0440887
0.0440884
0.0440883
0.0440883
0.0440884
0.0440886
0.0440889
0.0440894
0.0440895
0.0331234
0.0331233
0.0331231
0.033123
0.0331229
0.0331229
0.033123
0.0331233
0.0331236
0.0331236
0.0246206
0.0246205
0.0246203
0.0246201
0.02462
0.0246199
0.0246198
0.0246199
0.0246201
0.02462
0.0181056
0.0181056
0.0181053
0.018105
0.0181048
0.0181045
0.0181042
0.018104
0.018104
0.0181038
0.0131728
0.0131727
0.0131723
0.0131719
0.0131715
0.0131709
0.0131703
0.0131697
0.0131692
0.0131689
0.00948174
0.00948155
0.00948112
0.00948051
0.00947968
0.00947863
0.00947741
0.00947613
0.00947506
0.00947436
0.00675214
0.00675187
0.00675127
0.00675034
0.00674901
0.00674722
0.00674498
0.0067425
0.00674023
0.00673874
0.004757
0.00475662
0.00475578
0.00475442
0.00475236
0.00474943
0.00474556
0.00474093
0.00473631
0.00473312
0.00331554
0.00331503
0.0033139
0.00331198
0.00330895
0.0033044
0.00329794
0.00328956
0.00328026
0.00327311
0.00228607
0.00228542
0.00228398
0.00228143
0.00227724
0.00227058
0.00226041
0.00224577
0.00222711
0.00220986
0.00155926
0.0015585
0.00155677
0.00155364
0.00154829
0.00153935
0.00152463
0.00150083
0.00146432
0.00141846
1.43293
1.43293
1.43293
1.43293
1.43293
1.43293
1.43293
1.43293
1.43293
1.43293
1.29962
1.29962
1.29962
1.29962
1.29962
1.29962
1.29962
1.29962
1.29962
1.29962
1.16882
1.16882
1.16882
1.16882
1.16882
1.16882
1.16882
1.16882
1.16882
1.16882
1.04208
1.04208
1.04208
1.04208
1.04208
1.04208
1.04208
1.04208
1.04208
1.04208
0.920813
0.920813
0.920812
0.920812
0.920812
0.920812
0.920812
0.920813
0.920813
0.920814
0.806242
0.806242
0.806241
0.806241
0.806241
0.806241
0.806241
0.806242
0.806243
0.806243
0.699348
0.699348
0.699348
0.699347
0.699347
0.699347
0.699348
0.699348
0.699349
0.69935
0.600863
0.600863
0.600862
0.600862
0.600862
0.600862
0.600863
0.600863
0.600865
0.600865
0.511256
0.511256
0.511256
0.511255
0.511255
0.511255
0.511256
0.511257
0.511258
0.511258
0.430742
0.430742
0.430742
0.430741
0.430741
0.430742
0.430742
0.430743
0.430744
0.430744
0.359297
0.359297
0.359296
0.359296
0.359296
0.359296
0.359297
0.359298
0.359299
0.359299
0.296684
0.296684
0.296683
0.296683
0.296683
0.296683
0.296684
0.296685
0.296686
0.296686
0.242489
0.242489
0.242489
0.242488
0.242488
0.242489
0.242489
0.24249
0.242491
0.242491
0.196159
0.196159
0.196159
0.196158
0.196158
0.196159
0.196159
0.19616
0.196161
0.196161
0.157039
0.157039
0.157038
0.157038
0.157038
0.157039
0.157039
0.15704
0.157041
0.157041
0.124411
0.124411
0.12441
0.12441
0.12441
0.12441
0.124411
0.124412
0.124412
0.124413
0.0975292
0.0975292
0.0975289
0.0975288
0.0975288
0.0975291
0.0975295
0.0975301
0.0975308
0.097531
0.0756513
0.0756513
0.0756511
0.075651
0.075651
0.0756512
0.0756516
0.0756521
0.0756528
0.0756529
0.0580612
0.0580612
0.058061
0.0580609
0.058061
0.0580611
0.0580614
0.0580618
0.0580624
0.0580625
0.044089
0.044089
0.0440888
0.0440887
0.0440887
0.0440888
0.044089
0.0440893
0.0440898
0.0440899
0.0331236
0.0331236
0.0331234
0.0331233
0.0331232
0.0331233
0.0331234
0.0331236
0.0331239
0.0331239
0.0246208
0.0246207
0.0246205
0.0246204
0.0246203
0.0246202
0.0246201
0.0246202
0.0246203
0.0246203
0.0181058
0.0181057
0.0181055
0.0181053
0.018105
0.0181047
0.0181044
0.0181042
0.0181042
0.018104
0.0131729
0.0131728
0.0131725
0.0131721
0.0131716
0.0131711
0.0131704
0.0131698
0.0131694
0.0131691
0.00948184
0.00948167
0.00948125
0.00948065
0.00947983
0.00947878
0.00947755
0.00947628
0.0094752
0.00947449
0.00675222
0.00675196
0.00675137
0.00675045
0.00674912
0.00674733
0.0067451
0.00674262
0.00674034
0.00673885
0.00475706
0.00475669
0.00475586
0.0047545
0.00475245
0.00474952
0.00474565
0.00474102
0.0047364
0.0047332
0.00331558
0.00331508
0.00331396
0.00331204
0.00330902
0.00330446
0.00329801
0.00328962
0.00328033
0.00327317
0.0022861
0.00228546
0.00228402
0.00228148
0.00227729
0.00227063
0.00226046
0.00224582
0.00222716
0.0022099
0.00155929
0.00155853
0.0015568
0.00155367
0.00154832
0.00153939
0.00152466
0.00150086
0.00146435
0.00141849
1.43293
1.43293
1.43293
1.43293
1.43293
1.43293
1.43293
1.43293
1.43293
1.43293
1.29962
1.29962
1.29962
1.29962
1.29962
1.29962
1.29962
1.29962
1.29962
1.29962
1.16882
1.16882
1.16882
1.16882
1.16882
1.16882
1.16882
1.16882
1.16882
1.16882
1.04208
1.04208
1.04208
1.04208
1.04208
1.04208
1.04208
1.04208
1.04208
1.04208
0.920813
0.920813
0.920813
0.920813
0.920812
0.920813
0.920813
0.920813
0.920814
0.920814
0.806242
0.806243
0.806242
0.806242
0.806242
0.806242
0.806242
0.806243
0.806244
0.806244
0.699349
0.699349
0.699348
0.699348
0.699348
0.699348
0.699349
0.699349
0.69935
0.69935
0.600864
0.600864
0.600863
0.600863
0.600863
0.600863
0.600864
0.600865
0.600865
0.600866
0.511257
0.511257
0.511257
0.511256
0.511256
0.511257
0.511257
0.511258
0.511259
0.511259
0.430743
0.430743
0.430743
0.430742
0.430742
0.430743
0.430743
0.430744
0.430745
0.430745
0.359297
0.359298
0.359297
0.359297
0.359297
0.359297
0.359298
0.359299
0.3593
0.3593
0.296684
0.296684
0.296684
0.296684
0.296684
0.296684
0.296685
0.296686
0.296687
0.296687
0.24249
0.24249
0.242489
0.242489
0.242489
0.24249
0.24249
0.242491
0.242492
0.242492
0.19616
0.19616
0.196159
0.196159
0.196159
0.19616
0.19616
0.196161
0.196162
0.196162
0.157039
0.157039
0.157039
0.157039
0.157039
0.15704
0.15704
0.157041
0.157042
0.157042
0.124411
0.124411
0.124411
0.124411
0.124411
0.124411
0.124412
0.124412
0.124413
0.124413
0.0975296
0.0975297
0.0975296
0.0975295
0.0975296
0.0975298
0.0975303
0.0975308
0.0975315
0.0975316
0.0756517
0.0756518
0.0756517
0.0756516
0.0756517
0.0756519
0.0756523
0.0756528
0.0756534
0.0756534
0.0580616
0.0580617
0.0580615
0.0580615
0.0580615
0.0580617
0.058062
0.0580624
0.0580629
0.058063
0.0440893
0.0440893
0.0440892
0.0440892
0.0440892
0.0440893
0.0440895
0.0440898
0.0440902
0.0440903
0.0331238
0.0331239
0.0331238
0.0331237
0.0331237
0.0331237
0.0331238
0.033124
0.0331243
0.0331243
0.024621
0.024621
0.0246209
0.0246207
0.0246206
0.0246205
0.0246205
0.0246205
0.0246206
0.0246206
0.018106
0.0181059
0.0181058
0.0181055
0.0181053
0.018105
0.0181047
0.0181045
0.0181044
0.0181043
0.0131731
0.013173
0.0131727
0.0131723
0.0131719
0.0131713
0.0131707
0.0131701
0.0131696
0.0131693
0.00948195
0.0094818
0.00948141
0.00948082
0.00948001
0.00947896
0.00947773
0.00947645
0.00947537
0.00947464
0.00675231
0.00675207
0.00675149
0.00675058
0.00674926
0.00674747
0.00674524
0.00674275
0.00674047
0.00673896
0.00475713
0.00475677
0.00475596
0.00475461
0.00475256
0.00474963
0.00474575
0.00474112
0.0047365
0.00473329
0.00331563
0.00331515
0.00331403
0.00331212
0.0033091
0.00330455
0.0032981
0.0032897
0.0032804
0.00327324
0.00228614
0.00228551
0.00228408
0.00228154
0.00227735
0.0022707
0.00226053
0.00224588
0.00222722
0.00220995
0.00155932
0.00155857
0.00155685
0.00155372
0.00154837
0.00153943
0.00152471
0.00150091
0.00146439
0.00141852
1.43293
1.43293
1.43293
1.43293
1.43293
1.43293
1.43293
1.43293
1.43293
1.43293
1.29962
1.29962
1.29962
1.29962
1.29962
1.29962
1.29962
1.29962
1.29962
1.29962
1.16882
1.16882
1.16882
1.16882
1.16882
1.16882
1.16882
1.16882
1.16882
1.16882
1.04208
1.04208
1.04208
1.04208
1.04208
1.04208
1.04208
1.04208
1.04208
1.04208
0.920813
0.920813
0.920813
0.920813
0.920813
0.920813
0.920813
0.920814
0.920814
0.920814
0.806242
0.806242
0.806242
0.806242
0.806242
0.806242
0.806242
0.806243
0.806244
0.806243
0.699349
0.699349
0.699349
0.699348
0.699348
0.699349
0.699349
0.69935
0.69935
0.69935
0.600863
0.600864
0.600863
0.600863
0.600863
0.600863
0.600864
0.600865
0.600866
0.600865
0.511257
0.511257
0.511257
0.511257
0.511257
0.511257
0.511257
0.511258
0.511259
0.511259
0.430743
0.430743
0.430743
0.430743
0.430743
0.430743
0.430744
0.430744
0.430745
0.430745
0.359297
0.359297
0.359297
0.359297
0.359297
0.359298
0.359298
0.359299
0.3593
0.3593
0.296684
0.296684
0.296684
0.296684
0.296684
0.296685
0.296685
0.296686
0.296687
0.296686
0.24249
0.24249
0.24249
0.24249
0.24249
0.24249
0.242491
0.242491
0.242492
0.242492
0.19616
0.19616
0.19616
0.19616
0.19616
0.19616
0.196161
0.196161
0.196162
0.196162
0.157039
0.157039
0.157039
0.157039
0.157039
0.15704
0.15704
0.157041
0.157042
0.157041
0.124411
0.124411
0.124411
0.124411
0.124411
0.124412
0.124412
0.124413
0.124413
0.124413
0.0975296
0.0975297
0.0975297
0.0975297
0.0975298
0.09753
0.0975304
0.097531
0.0975316
0.0975314
0.0756517
0.0756518
0.0756518
0.0756518
0.0756519
0.0756521
0.0756524
0.0756529
0.0756534
0.0756532
0.0580616
0.0580617
0.0580616
0.0580616
0.0580617
0.0580619
0.0580622
0.0580625
0.058063
0.0580628
0.0440893
0.0440894
0.0440893
0.0440893
0.0440893
0.0440894
0.0440896
0.0440899
0.0440903
0.0440901
0.0331239
0.0331239
0.0331239
0.0331238
0.0331238
0.0331238
0.0331239
0.0331241
0.0331243
0.0331242
0.024621
0.024621
0.0246209
0.0246208
0.0246207
0.0246206
0.0246206
0.0246206
0.0246207
0.0246205
0.018106
0.018106
0.0181058
0.0181056
0.0181053
0.0181051
0.0181048
0.0181046
0.0181045
0.0181042
0.0131731
0.013173
0.0131728
0.0131724
0.0131719
0.0131714
0.0131707
0.0131701
0.0131696
0.0131692
0.00948197
0.00948182
0.00948145
0.00948087
0.00948006
0.00947902
0.00947779
0.0094765
0.00947539
0.00947459
0.00675232
0.00675208
0.00675153
0.00675062
0.0067493
0.00674752
0.00674528
0.00674279
0.00674049
0.00673892
0.00475714
0.00475679
0.00475598
0.00475464
0.00475259
0.00474967
0.00474579
0.00474115
0.00473651
0.00473327
0.00331565
0.00331516
0.00331405
0.00331215
0.00330912
0.00330457
0.00329812
0.00328973
0.00328041
0.00327322
0.00228615
0.00228552
0.0022841
0.00228156
0.00227737
0.00227072
0.00226054
0.0022459
0.00222723
0.00220994
0.00155933
0.00155858
0.00155686
0.00155373
0.00154838
0.00153945
0.00152472
0.00150092
0.0014644
0.00141852
0.00105201
0.00105118
0.00104926
0.00104573
0.00103957
0.00102894
0.00101041
0.000977193
0.000913772
0.000777328
0.000702083
0.000701232
0.000699281
0.000695684
0.000689404
0.000678589
0.000659934
0.000627461
0.00057035
0.000470643
0.00046346
0.000462659
0.000460831
0.000457494
0.000451753
0.000442102
0.000426081
0.000399864
0.000358116
0.000295633
0.000302623
0.000301919
0.000300331
0.000297474
0.000292674
0.000284864
0.000272474
0.000253417
0.000225467
0.00018765
0.000195469
0.000194889
0.000193594
0.000191308
0.000187567
0.000181685
0.000172754
0.000159739
0.000141818
0.000119117
0.000124904
0.00012445
0.000123452
0.000121722
0.000118964
0.000114768
0.000108643
0.000100108
8.89071e-05
7.5331e-05
7.89653e-05
7.86276e-05
7.78926e-05
7.66432e-05
7.47e-05
7.18323e-05
6.77883e-05
6.2362e-05
5.55039e-05
4.74507e-05
4.93983e-05