/*--------------------------------*- C++ -*----------------------------------*\
| =========                 |                                                 |
| \\      /  F ield         | OpenFOAM: The Open Source CFD Toolbox           |
|  \\    /   O peration     | Version:  v1812                                 |
|   \\  /    A nd           | Web:      www.OpenFOAM.com                      |
|    \\/     M anipulation  |                                                 |
\*---------------------------------------------------------------------------*/
FoamFile
{
    version     2.0;
    format      ascii;
    class       volVectorField;
    location    "7";
    object      U;
}
// * * * * * * * * * * * * * * * * * * * * * * * * * * * * * * * * * * * * * //

dimensions      [0 1 -1 0 0 0 0];


internalField   nonuniform List<vector> 
1000
(
(0.91890839 0.035821913 0)
(0.86271384 0.062195638 0)
(0.7870597 0.06251009 0)
(0.69536033 0.054550395 0)
(0.61089745 0.044531651 0)
(0.54411592 0.034015971 0)
(0.49343012 0.024187539 0)
(0.45479413 0.016144229 0)
(0.42544582 0.010265786 0)
(0.40347313 0.0063041453 0)
(0.38715766 0.0037976295 0)
(0.3749622 0.0023103383 0)
(0.36566192 0.001493015 0)
(0.35836272 0.0010851184 0)
(0.35244267 0.00090607253 0)
(0.347482 0.00084105198 0)
(0.34320348 0.00082372437 0)
(0.33942726 0.00081931057 0)
(0.33603793 0.00081185207 0)
(0.33296114 0.00079580127 0)
(0.33014778 0.00077081155 0)
(0.32756384 0.00073870971 0)
(0.32518419 0.00070188976 0)
(0.32298901 0.00066256637 0)
(0.32096171 0.00062250055 0)
(0.31908784 0.00058295866 0)
(0.31735448 0.00054477302 0)
(0.31574994 0.00050843583 0)
(0.31426359 0.00047419362 0)
(0.31288573 0.0004421272 0)
(0.31160753 0.00041221299 0)
(0.31042099 0.00038436658 0)
(0.30931879 0.0003584719 0)
(0.30829433 0.00033439985 0)
(0.30734159 0.00031201945 0)
(0.30645508 0.00029120416 0)
(0.30562981 0.00027183507 0)
(0.30486125 0.00025380206 0)
(0.30414521 0.00023700404 0)
(0.3034779 0.00022134831 0)
(0.30285581 0.00020674996 0)
(0.30227574 0.00019313091 0)
(0.30173475 0.00018041913 0)
(0.3012301 0.00016854779 0)
(0.30075931 0.00015745471 0)
(0.30032007 0.00014708164 0)
(0.29991026 0.00013737403 0)
(0.29952794 0.00012828034 0)
(0.29917131 0.00011975225 0)
(0.29883872 0.00011174404 0)
(0.29852867 0.00010421311 0)
(0.29823979 9.7119306e-05 0)
(0.29797081 9.0425861e-05 0)
(0.29772057 8.4098614e-05 0)
(0.29748804 7.8107205e-05 0)
(0.29727225 7.2424092e-05 0)
(0.29707231 6.7025945e-05 0)
(0.29688742 6.189238e-05 0)
(0.29671682 5.7007351e-05 0)
(0.2965598 5.2357591e-05 0)
(0.2964157 4.7933907e-05 0)
(0.29628387 4.372932e-05 0)
(0.29616369 3.9740151e-05 0)
(0.29605456 3.5964073e-05 0)
(0.29595587 3.2400985e-05 0)
(0.29586703 2.9051042e-05 0)
(0.29578744 2.5915373e-05 0)
(0.29571649 2.299442e-05 0)
(0.2956536 2.0288466e-05 0)
(0.29559815 1.779634e-05 0)
(0.29554955 1.5515802e-05 0)
(0.29550722 1.3442848e-05 0)
(0.29547058 1.1571888e-05 0)
(0.29543908 9.8955448e-06 0)
(0.29541216 8.4048153e-06 0)
(0.29538933 7.0893503e-06 0)
(0.2953701 5.9375772e-06 0)
(0.29535401 4.9372596e-06 0)
(0.29534066 4.0754834e-06 0)
(0.29532966 3.339495e-06 0)
(0.29532065 2.7161977e-06 0)
(0.29531333 2.1931776e-06 0)
(0.29530743 1.7579184e-06 0)
(0.29530271 1.3989311e-06 0)
(0.29529896 1.1050262e-06 0)
(0.29529601 8.6629356e-07 0)
(0.29529371 6.7364232e-07 0)
(0.29529193 5.1948997e-07 0)
(0.29529057 3.9721938e-07 0)
(0.29528953 3.0139517e-07 0)
(0.29528873 2.2733783e-07 0)
(0.29528814 1.7083826e-07 0)
(0.29528768 1.2862152e-07 0)
(0.29528734 9.7133955e-08 0)
(0.29528709 7.5044185e-08 0)
(0.29528691 5.9722626e-08 0)
(0.29528676 5.2409089e-08 0)
(0.29528666 5.2280292e-08 0)
(0.29528651 6.6644259e-08 0)
(0.29528641 8.2112736e-08 0)
(1.0016583 0.05381943 0)
(1.0359761 0.10128444 0)
(1.0597199 0.11073663 0)
(1.0628947 0.10592202 0)
(1.0515569 0.096228728 0)
(1.0340529 0.083934061 0)
(1.0142795 0.070327063 0)
(0.99360703 0.056981333 0)
(0.97292577 0.045107479 0)
(0.9531074 0.03523675 0)
(0.93479538 0.02740165 0)
(0.91829012 0.021387228 0)
(0.90362379 0.016884499 0)
(0.89068067 0.013569709 0)
(0.87928174 0.011147749 0)
(0.86923241 0.0093736597 0)
(0.86034423 0.008056929 0)
(0.85244667 0.0070571282 0)
(0.84539241 0.006275239 0)
(0.83905792 0.005643829 0)
(0.83334126 0.0051180914 0)
(0.82815883 0.0046686729 0)
(0.82344211 0.0042764183 0)
(0.81913466 0.0039287404 0)
(0.8151896 0.0036172059 0)
(0.81156764 0.0033359735 0)
(0.80823542 0.0030808075 0)
(0.80516438 0.0028484728 0)
(0.80232977 0.0026363734 0)
(0.79970997 0.002442343 0)
(0.79728595 0.002264524 0)
(0.79504083 0.0021012963 0)
(0.7929596 0.0019512335 0)
(0.79102877 0.0018130732 0)
(0.78923624 0.0016856954 0)
(0.78757107 0.0015681049 0)
(0.78602336 0.0014594163 0)
(0.78458412 0.0013588403 0)
(0.78324515 0.0012656721 0)
(0.781999 0.0011792803 0)
(0.78083882 0.0010990975 0)
(0.77975838 0.0010246111 0)
(0.77875193 0.00095535657 0)
(0.77781421 0.00089091034 0)
(0.7769404 0.00083088443 0)
(0.77612607 0.0007749217 0)
(0.77536713 0.0007226921 0)
(0.77465986 0.00067388943 0)
(0.77400081 0.00062822922 0)
(0.77338685 0.00058544686 0)
(0.77281509 0.00054529696 0)
(0.7722829 0.00050755236 0)
(0.77178788 0.0004720046 0)
(0.77132782 0.00043846373 0)
(0.77090072 0.00040675923 0)
(0.77050474 0.00037673988 0)
(0.77013818 0.00034827467 0)
(0.76979949 0.00032125235 0)
(0.76948722 0.00029558157 0)
(0.76920002 0.00027118959 0)
(0.76893661 0.00024802151 0)
(0.76869577 0.00022603798 0)
(0.76847633 0.00020521336 0)
(0.76827713 0.0001855327 0)
(0.76809705 0.00016698931 0)
(0.76793496 0.00014958127 0)
(0.76778976 0.00013330899 0)
(0.76766034 0.00011817201 0)
(0.7675456 0.00010416694 0)
(0.76744443 9.1284957e-05 0)
(0.76735574 7.9510625e-05 0)
(0.76727847 6.8820382e-05 0)
(0.76721156 5.918244e-05 0)
(0.767154 5.0556374e-05 0)
(0.76710481 4.289399e-05 0)
(0.76706306 3.6140027e-05 0)
(0.76702787 3.023383e-05 0)
(0.76699843 2.5110462e-05 0)
(0.76697396 2.0702834e-05 0)
(0.76695379 1.6942653e-05 0)
(0.76693728 1.3762395e-05 0)
(0.76692386 1.1095659e-05 0)
(0.76691303 8.8789622e-06 0)
(0.76690437 7.0517482e-06 0)
(0.76689749 5.5582822e-06 0)
(0.76689207 4.3470435e-06 0)
(0.76688784 3.3730026e-06 0)
(0.76688456 2.5956646e-06 0)
(0.76688204 1.9817099e-06 0)
(0.76688012 1.500803e-06 0)
(0.76687866 1.1293535e-06 0)
(0.76687756 8.4436952e-07 0)
(0.76687673 6.2964335e-07 0)
(0.76687613 4.6773859e-07 0)
(0.76687565 3.4943968e-07 0)
(0.76687535 2.632306e-07 0)
(0.76687506 2.0680778e-07 0)
(0.76687494 1.7454493e-07 0)
(0.76687468 1.7080374e-07 0)
(0.76687471 1.8599399e-07 0)
(1.0014244 0.026824855 0)
(1.0291272 0.062791352 0)
(1.0654292 0.077736553 0)
(1.098962 0.0805972 0)
(1.1253149 0.078285171 0)
(1.145053 0.0731539 0)
(1.1594858 0.066111278 0)
(1.1694287 0.058162063 0)
(1.1755354 0.050296754 0)
(1.1785738 0.043150708 0)
(1.1793571 0.036972825 0)
(1.1785949 0.031771632 0)
(1.1768304 0.02745184 0)
(1.1744518 0.023886769 0)
(1.1717287 0.020947621 0)
(1.1688444 0.018515782 0)
(1.1659195 0.016488086 0)
(1.1630317 0.014779504 0)
(1.1602295 0.013322986 0)
(1.1575415 0.012067134 0)
(1.1549828 0.010973002 0)
(1.1525601 0.010011064 0)
(1.1502747 0.0091587495 0)
(1.1481246 0.0083986077 0)
(1.1461059 0.0077169549 0)
(1.1442134 0.0071028933 0)
(1.1424414 0.0065475976 0)
(1.1407838 0.0060438017 0)
(1.1392343 0.005585433 0)
(1.1377869 0.0051673523 0)
(1.1364353 0.0047851657 0)
(1.1351738 0.0044350862 0)
(1.1339967 0.0041138282 0)
(1.1328987 0.0038185253 0)
(1.1318746 0.0035466652 0)
(1.1309195 0.0032960364 0)
(1.1300289 0.0030646847 0)
(1.1291985 0.0028508766 0)
(1.1284242 0.0026530688 0)
(1.1277023 0.0024698815 0)
(1.1270292 0.0023000766 0)
(1.1264016 0.0021425382 0)
(1.1258164 0.0019962559 0)
(1.1252708 0.0018603112 0)
(1.124762 0.0017338648 0)
(1.1242876 0.0016161468 0)
(1.1238453 0.0015064475 0)
(1.123433 0.0014041109 0)
(1.1230485 0.0013085285 0)
(1.1226902 0.0012191359 0)
(1.1223563 0.0011354083 0)
(1.1220452 0.0010568604 0)
(1.1217555 0.00098304375 0)
(1.1214859 0.000913548 0)
(1.1212351 0.00084800024 0)
(1.1210021 0.00078606654 0)
(1.1207857 0.00072745177 0)
(1.120585 0.00067190078 0)
(1.1203992 0.00061919744 0)
(1.1202275 0.00056916448 0)
(1.1200691 0.00052166096 0)
(1.1199233 0.00047658018 0)
(1.1197895 0.00043384544 0)
(1.119667 0.00039340597 0)
(1.1195553 0.00035523144 0)
(1.1194538 0.0003193065 0)
(1.1193619 0.00028562499 0)
(1.1192791 0.00025418414 0)
(1.1192048 0.00022497949 0)
(1.1191385 0.00019799972 0)
(1.1190796 0.00017322329 0)
(1.1190275 0.00015061479 0)
(1.1189819 0.00013012376 0)
(1.118942 0.00011168296 0)
(1.1189075 9.5209497e-05 0)
(1.1188777 8.0605171e-05 0)
(1.1188522 6.7759445e-05 0)
(1.1188306 5.6550817e-05 0)
(1.1188123 4.685117e-05 0)
(1.118797 3.8527075e-05 0)
(1.1187843 3.1444654e-05 0)
(1.1187738 2.5469932e-05 0)
(1.1187652 2.0473748e-05 0)
(1.1187582 1.6331139e-05 0)
(1.1187526 1.2926302e-05 0)
(1.1187481 1.0150689e-05 0)
(1.1187445 7.9081605e-06 0)
(1.1187417 6.1109024e-06 0)
(1.1187395 4.6847346e-06 0)
(1.1187378 3.5623895e-06 0)
(1.1187365 2.6893111e-06 0)
(1.1187355 2.0154964e-06 0)
(1.1187347 1.5020599e-06 0)
(1.1187342 1.1134492e-06 0)
(1.1187337 8.2373994e-07 0)
(1.1187335 6.1011459e-07 0)
(1.1187332 4.5916384e-07 0)
(1.1187331 3.5568036e-07 0)
(1.1187328 3.0325028e-07 0)
(1.118733 2.6270892e-07 0)
(1.0007347 0.011814722 0)
(1.0178472 0.030860927 0)
(1.0462163 0.041434441 0)
(1.0799018 0.04519357 0)
(1.1132664 0.045502351 0)
(1.143782 0.044080308 0)
(1.1708941 0.041439982 0)
(1.1945687 0.037973678 0)
(1.2148582 0.034195729 0)
(1.2319652 0.030536887 0)
(1.2462683 0.027222045 0)
(1.2582339 0.024313921 0)
(1.2683135 0.021797889 0)
(1.2768875 0.019633661 0)
(1.2842554 0.017773827 0)
(1.2906479 0.016169653 0)
(1.296243 0.014775591 0)
(1.3011791 0.013552299 0)
(1.3055645 0.012467865 0)
(1.3094838 0.011497468 0)
(1.3130042 0.010622164 0)
(1.3161792 0.0098275164 0)
(1.3190526 0.0091024149 0)
(1.3216607 0.0084381814 0)
(1.3240343 0.0078279093 0)
(1.3261995 0.0072659807 0)
(1.3281786 0.0067477157 0)
(1.3299913 0.0062691245 0)
(1.3316544 0.0058267362 0)
(1.3331828 0.0054174831 0)
(1.3345896 0.0050386235 0)
(1.3358861 0.0046876864 0)
(1.3370827 0.0043624336 0)
(1.3381882 0.0040608297 0)
(1.3392108 0.0037810192 0)
(1.3401575 0.0035213073 0)
(1.3410349 0.0032801437 0)
(1.3418485 0.0030561089 0)
(1.3426037 0.002847901 0)
(1.343305 0.0026543246 0)
(1.3439568 0.00247428 0)
(1.3445627 0.0023067541 0)
(1.3451263 0.0021508112 0)
(1.3456507 0.0020055854 0)
(1.3461389 0.0018702732 0)
(1.3465934 0.0017441274 0)
(1.3470166 0.0016264511 0)
(1.3474107 0.0015165935 0)
(1.3477776 0.0014139452 0)
(1.3481193 0.0013179358 0)
(1.3484372 0.0012280313 0)
(1.348733 0.0011437328 0)
(1.3490079 0.0010645757 0)
(1.3492632 0.00099012991 0)
(1.3495001 0.00091999985 0)
(1.3497194 0.00085382637 0)
(1.3499222 0.00079128595 0)
(1.3501093 0.00073209354 0)
(1.3502816 0.00067600075 0)
(1.3504396 0.00062279798 0)
(1.3505843 0.00057231111 0)
(1.3507161 0.00052440216 0)
(1.3508358 0.00047896418 0)
(1.3509441 0.00043592014 0)
(1.3510415 0.00039521621 0)
(1.3511288 0.00035681919 0)
(1.3512065 0.00032070894 0)
(1.3512754 0.00028687496 0)
(1.351336 0.00025530907 0)
(1.351389 0.00022600197 0)
(1.3514351 0.00019893734 0)
(1.3514749 0.00017408916 0)
(1.351509 0.00015141829 0)
(1.351538 0.00013087096 0)
(1.3515625 0.00011237768 0)
(1.3515831 9.5853502e-05 0)
(1.3516001 8.1199822e-05 0)
(1.3516142 6.8305088e-05 0)
(1.3516258 5.7048665e-05 0)
(1.3516351 4.7301672e-05 0)
(1.3516426 3.893216e-05 0)
(1.3516486 3.1804986e-05 0)
(1.3516533 2.5787966e-05 0)
(1.351657 2.075031e-05 0)
(1.3516599 1.6569445e-05 0)
(1.3516621 1.3127977e-05 0)
(1.3516638 1.0320454e-05 0)
(1.3516651 8.0487218e-06 0)
(1.351666 6.2280664e-06 0)
(1.3516667 4.7809798e-06 0)
(1.3516672 3.6428911e-06 0)
(1.3516676 2.7549615e-06 0)
(1.3516678 2.0702273e-06 0)
(1.3516681 1.5456055e-06 0)
(1.3516681 1.1499266e-06 0)
(1.3516683 8.5139159e-07 0)
(1.3516683 6.3740169e-07 0)
(1.3516685 4.7522126e-07 0)
(1.3516683 3.8660682e-07 0)
(1.3516687 2.9181089e-07 0)
(1.0005903 0.0034629159 0)
(1.0136865 0.0093660197 0)
(1.0370283 0.013046806 0)
(1.0674202 0.014563261 0)
(1.1000315 0.014854525 0)
(1.1316428 0.014564991 0)
(1.1610745 0.013888338 0)
(1.1880674 0.012919245 0)
(1.2125205 0.011806506 0)
(1.2343939 0.010696427 0)
(1.2538077 0.0096727426 0)
(1.2710339 0.0087628227 0)
(1.286401 0.0079659745 0)
(1.3002112 0.0072722156 0)
(1.3127102 0.0066688096 0)
(1.3240903 0.0061419264 0)
(1.3345036 0.0056780735 0)
(1.3440716 0.0052653225 0)
(1.3528927 0.004893937 0)
(1.3610463 0.0045563983 0)
(1.3685975 0.0042470728 0)
(1.3756004 0.0039617796 0)
(1.3821012 0.003697402 0)
(1.3881402 0.0034515876 0)
(1.3937533 0.0032225243 0)
(1.3989728 0.0030087762 0)
(1.403828 0.002809165 0)
(1.4083456 0.0026226871 0)
(1.4125503 0.0024484585 0)
(1.4164646 0.0022856808 0)
(1.4201094 0.002133619 0)
(1.423504 0.0019915892 0)
(1.426666 0.0018589509 0)
(1.4296121 0.0017351019 0)
(1.4323573 0.0016194754 0)
(1.4349158 0.0015115379 0)
(1.4373007 0.0014107871 0)
(1.439524 0.001316751 0)
(1.4415969 0.0012289857 0)
(1.4435299 0.0011470744 0)
(1.4453325 0.0010706254 0)
(1.4470137 0.00099927072 0)
(1.4485819 0.00093266472 0)
(1.4500446 0.00087048208 0)
(1.451409 0.00081241667 0)
(1.4526817 0.00075817985 0)
(1.4538689 0.00070749946 0)
(1.4549762 0.00066011831 0)
(1.4560088 0.00061579381 0)
(1.4569715 0.00057429645 0)
(1.4578688 0.00053540977 0)
(1.4587048 0.00049892989 0)
(1.4594832 0.00046466575 0)
(1.4602075 0.00043243888 0)
(1.4608808 0.00040208415 0)
(1.4615061 0.00037344987 0)
(1.462086 0.00034639855 0)
(1.4626231 0.00032080715 0)
(1.4631194 0.00029656751 0)
(1.4635772 0.00027358646 0)
(1.4639985 0.00025178548 0)
(1.4643851 0.00023110044 0)
(1.4647388 0.00021148043 0)
(1.4650613 0.00019288696 0)
(1.4653543 0.00017529192 0)
(1.4656194 0.00015867629 0)
(1.4658583 0.00014302754 0)
(1.4660726 0.00012833809 0)
(1.4662638 0.00011460246 0)
(1.4664336 0.00010181581 0)
(1.4665835 8.9971321e-05 0)
(1.4667152 7.9059268e-05 0)
(1.4668301 6.9065054e-05 0)
(1.4669298 5.9968628e-05 0)
(1.4670157 5.1744272e-05 0)
(1.4670893 4.4359981e-05 0)
(1.4671519 3.777779e-05 0)
(1.4672048 3.1954424e-05 0)
(1.4672491 2.6842024e-05 0)
(1.4672861 2.2389082e-05 0)
(1.4673166 1.8541727e-05 0)
(1.4673417 1.5244495e-05 0)
(1.4673621 1.2442091e-05 0)
(1.4673786 1.0079656e-05 0)
(1.4673918 8.1048657e-06 0)
(1.4674024 6.467661e-06 0)
(1.4674107 5.1220477e-06 0)
(1.4674173 4.025357e-06 0)
(1.4674223 3.1396492e-06 0)
(1.4674263 2.4303924e-06 0)
(1.4674292 1.8680088e-06 0)
(1.4674316 1.4255814e-06 0)
(1.4674332 1.0814886e-06 0)
(1.4674346 8.1530808e-07 0)
(1.4674354 6.1291214e-07 0)
(1.4674362 4.5771222e-07 0)
(1.4674366 3.4563562e-07 0)
(1.4674372 2.5667398e-07 0)
(1.4674372 2.0726565e-07 0)
(1.4674378 1.507046e-07 0)
(1.0005903 -0.0034629159 0)
(1.0136865 -0.0093660197 0)
(1.0370283 -0.013046806 0)
(1.0674202 -0.014563261 0)
(1.1000315 -0.014854525 0)
(1.1316428 -0.014564991 0)
(1.1610745 -0.013888338 0)
(1.1880674 -0.012919245 0)
(1.2125205 -0.011806506 0)
(1.2343939 -0.010696426 0)
(1.2538077 -0.0096727416 0)
(1.2710339 -0.0087628215 0)
(1.286401 -0.0079659731 0)
(1.3002112 -0.007272214 0)
(1.3127102 -0.0066688078 0)
(1.3240903 -0.0061419242 0)
(1.3345036 -0.0056780708 0)
(1.3440716 -0.0052653191 0)
(1.3528927 -0.0048939328 0)
(1.3610463 -0.0045563931 0)
(1.3685975 -0.0042470666 0)
(1.3756004 -0.0039617723 0)
(1.3821012 -0.0036973936 0)
(1.3881402 -0.0034515781 0)
(1.3937533 -0.0032225136 0)
(1.3989728 -0.0030087643 0)
(1.403828 -0.0028091516 0)
(1.4083456 -0.0026226719 0)
(1.4125503 -0.0024484412 0)
(1.4164646 -0.0022856611 0)
(1.4201095 -0.0021335966 0)
(1.423504 -0.001991564 0)
(1.4266661 -0.0018589229 0)
(1.4296121 -0.0017350712 0)
(1.4323573 -0.0016194422 0)
(1.4349158 -0.0015115023 0)
(1.4373007 -0.0014107496 0)
(1.439524 -0.0013167119 0)
(1.4415969 -0.0012289453 0)
(1.4435299 -0.0011470331 0)
(1.4453325 -0.0010705836 0)
(1.4470138 -0.00099922937 0)
(1.4485819 -0.00093262469 0)
(1.4500446 -0.0008704446 0)
(1.4514091 -0.00081238316 0)
(1.4526818 -0.00075815204 0)
(1.453869 -0.00070747897 0)
(1.4549762 -0.00066010716 0)
(1.4560088 -0.00061579317 0)
(1.4569715 -0.00057430788 0)
(1.4578688 -0.00053543408 0)
(1.4587048 -0.00049896836 0)
(1.4594832 -0.00046471833 0)
(1.4602075 -0.00043250617 0)
(1.4608809 -0.0004021651 0)
(1.4615061 -0.00037354427 0)
(1.4620861 -0.00034650435 0)
(1.4626231 -0.00032092337 0)
(1.4631194 -0.00029669127 0)
(1.4635772 -0.00027371613 0)
(1.4639985 -0.00025191765 0)
(1.464385 -0.00023123325 0)
(1.4647387 -0.0002116104 0)
(1.4650612 -0.00019301228 0)
(1.4653542 -0.00017540937 0)
(1.4656193 -0.00015878437 0)
(1.4658582 -0.00014312356 0)
(1.4660724 -0.00012842088 0)
(1.4662637 -0.00011467016 0)
(1.4664334 -0.00010186791 0)
(1.4665834 -9.0007384e-05 0)
(1.466715 -7.9079807e-05 0)
(1.46683 -6.9071149e-05 0)
(1.4669296 -5.9962116e-05 0)
(1.4670156 -5.1726914e-05 0)
(1.4670892 -4.4333105e-05 0)
(1.4671518 -3.7743027e-05 0)
(1.4672047 -3.1912481e-05 0)
(1.467249 -2.6794319e-05 0)
(1.467286 -2.2335973e-05 0)
(1.4673165 -1.8485056e-05 0)
(1.4673416 -1.5184851e-05 0)
(1.467362 -1.238196e-05 0)
(1.4673785 -1.0019881e-05 0)
(1.4673918 -8.0477586e-06 0)
(1.4674023 -6.4133054e-06 0)
(1.4674107 -5.0716096e-06 0)
(1.4674172 -3.9778271e-06 0)
(1.4674223 -3.095405e-06 0)
(1.4674262 -2.3881201e-06 0)
(1.4674292 -1.828112e-06 0)
(1.4674315 -1.3871091e-06 0)
(1.4674332 -1.0449156e-06 0)
(1.4674345 -7.7960251e-07 0)
(1.4674354 -5.7895943e-07 0)
(1.4674362 -4.2492056e-07 0)
(1.4674366 -3.1532346e-07 0)
(1.4674372 -2.288149e-07 0)
(1.4674372 -1.820688e-07 0)
(1.4674378 -1.2559661e-07 0)
(1.0007347 -0.011814722 0)
(1.0178472 -0.030860927 0)
(1.0462163 -0.041434441 0)
(1.0799018 -0.04519357 0)
(1.1132664 -0.045502351 0)
(1.143782 -0.044080308 0)
(1.1708941 -0.041439982 0)
(1.1945687 -0.037973677 0)
(1.2148582 -0.034195729 0)
(1.2319652 -0.030536886 0)
(1.2462683 -0.027222044 0)
(1.2582339 -0.02431392 0)
(1.2683135 -0.021797888 0)
(1.2768875 -0.019633659 0)
(1.2842554 -0.017773826 0)
(1.2906479 -0.016169651 0)
(1.296243 -0.014775589 0)
(1.3011791 -0.013552296 0)
(1.3055645 -0.012467861 0)
(1.3094838 -0.011497463 0)
(1.3130042 -0.010622159 0)
(1.3161792 -0.0098275099 0)
(1.3190526 -0.0091024075 0)
(1.3216607 -0.0084381732 0)
(1.3240343 -0.0078279001 0)
(1.3261995 -0.0072659704 0)
(1.3281786 -0.0067477041 0)
(1.3299913 -0.0062691114 0)
(1.3316545 -0.0058267212 0)
(1.3331829 -0.0054174662 0)
(1.3345896 -0.0050386042 0)
(1.3358862 -0.0046876649 0)
(1.3370827 -0.0043624098 0)
(1.3381883 -0.0040608038 0)
(1.3392108 -0.0037809914 0)
(1.3401576 -0.0035212778 0)
(1.3410349 -0.003280113 0)
(1.3418486 -0.0030560771 0)
(1.3426038 -0.0028478685 0)
(1.3433051 -0.0026542917 0)
(1.3439569 -0.0024742473 0)
(1.3445628 -0.0023067221 0)
(1.3451264 -0.0021507808 0)
(1.3456509 -0.0020055575 0)
(1.346139 -0.0018702491 0)
(1.3465935 -0.0017441082 0)
(1.3470167 -0.0016264383 0)
(1.3474108 -0.0015165881 0)
(1.3477778 -0.0014139488 0)
(1.3481194 -0.0013179494 0)
(1.3484374 -0.0012280558 0)
(1.3487332 -0.0011437685 0)
(1.3490081 -0.0010646229 0)
(1.3492634 -0.00099018809 0)
(1.3495002 -0.00092006896 0)
(1.3497195 -0.00085390502 0)
(1.3499223 -0.00079137353 0)
(1.3501094 -0.00073218804 0)
(1.3502816 -0.00067610104 0)
(1.3504396 -0.00062290159 0)
(1.3505842 -0.00057241663 0)
(1.350716 -0.00052450702 0)
(1.3508357 -0.00047906695 0)
(1.3509439 -0.00043601839 0)
(1.3510413 -0.00039530867 0)
(1.3511286 -0.00035690378 0)
(1.3512063 -0.00032078453 0)
(1.3512751 -0.0002869399 0)
(1.3513357 -0.00025536255 0)
(1.3513887 -0.00022604322 0)
(1.3514348 -0.00019896639 0)
(1.3514746 -0.00017410651 0)
(1.3515087 -0.00015142478 0)
(1.3515377 -0.00013086758 0)
(1.3515622 -0.00011236563 0)
(1.3515827 -9.583421e-05 0)
(1.3515998 -8.1173993e-05 0)
(1.3516139 -6.8273754e-05 0)
(1.3516255 -5.7012069e-05 0)
(1.3516348 -4.7261e-05 0)
(1.3516424 -3.8887801e-05 0)
(1.3516484 -3.1758754e-05 0)
(1.3516531 -2.5740708e-05 0)
(1.3516568 -2.0704121e-05 0)
(1.3516597 -1.6524882e-05 0)
(1.3516619 -1.3086366e-05 0)
(1.3516636 -1.0281296e-05 0)
(1.3516649 -8.0124982e-06 0)
(1.3516659 -6.1934948e-06 0)
(1.3516666 -4.7485258e-06 0)
(1.3516671 -3.6113507e-06 0)
(1.3516676 -2.7252748e-06 0)
(1.3516678 -2.0413444e-06 0)
(1.351668 -1.518185e-06 0)
(1.3516681 -1.1234246e-06 0)
(1.3516683 -8.2611371e-07 0)
(1.3516683 -6.1357828e-07 0)
(1.3516685 -4.5321113e-07 0)
(1.3516683 -3.6563082e-07 0)
(1.3516687 -2.7181929e-07 0)
(1.0014244 -0.026824855 0)
(1.0291272 -0.062791352 0)
(1.0654292 -0.077736553 0)
(1.098962 -0.0805972 0)
(1.1253149 -0.078285171 0)
(1.145053 -0.073153899 0)
(1.1594858 -0.066111278 0)
(1.1694287 -0.058162063 0)
(1.1755354 -0.050296754 0)
(1.1785738 -0.043150708 0)
(1.1793571 -0.036972825 0)
(1.1785949 -0.031771632 0)
(1.1768304 -0.027451839 0)
(1.1744518 -0.023886768 0)
(1.1717287 -0.02094762 0)
(1.1688444 -0.01851578 0)
(1.1659195 -0.016488084 0)
(1.1630317 -0.014779501 0)
(1.1602295 -0.013322983 0)
(1.1575415 -0.01206713 0)
(1.1549828 -0.010972998 0)
(1.1525601 -0.010011059 0)
(1.1502747 -0.0091587442 0)
(1.1481246 -0.0083986019 0)
(1.1461059 -0.0077169484 0)
(1.1442135 -0.0071028861 0)
(1.1424415 -0.0065475895 0)
(1.1407838 -0.0060437925 0)
(1.1392344 -0.0055854226 0)
(1.1377869 -0.0051673405 0)
(1.1364354 -0.0047851525 0)
(1.1351739 -0.0044350716 0)
(1.1339968 -0.0041138123 0)
(1.1328988 -0.0038185083 0)
(1.1318747 -0.0035466472 0)
(1.1309196 -0.0032960178 0)
(1.130029 -0.0030646657 0)
(1.1291986 -0.0028508574 0)
(1.1284244 -0.0026530496 0)
(1.1277025 -0.0024698627 0)
(1.1270294 -0.0023000585 0)
(1.1264018 -0.0021425212 0)
(1.1258166 -0.0019962407 0)
(1.125271 -0.0018602984 0)
(1.1247622 -0.0017338553 0)
(1.1242878 -0.0016161413 0)
(1.1238455 -0.001506447 0)
(1.1234332 -0.001404116 0)
(1.1230487 -0.0013085402 0)
(1.1226904 -0.0012191542 0)
(1.1223565 -0.0011354339 0)
(1.1220454 -0.0010568927 0)
(1.1217557 -0.00098308332 0)
(1.1214861 -0.00091359373 0)
(1.1212352 -0.00084805232 0)
(1.1210021 -0.00078612342 0)
(1.1207857 -0.00072751346 0)
(1.120585 -0.00067196528 0)
(1.1203991 -0.0006192646 0)
(1.1202274 -0.00056923208 0)
(1.1200689 -0.00052172888 0)
(1.1199231 -0.00047664623 0)
(1.1197892 -0.00043390955 0)
(1.1196667 -0.00039346612 0)
(1.119555 -0.00035528766 0)
(1.1194534 -0.00031935698 0)
(1.1193615 -0.00028566971 0)
(1.1192787 -0.00025422167 0)
(1.1192043 -0.00022500987 0)
(1.119138 -0.00019802234 0)
(1.1190791 -0.00017323855 0)
(1.1190271 -0.00015062305 0)
(1.1189814 -0.00013012571 0)
(1.1189415 -0.00011167957 0)
(1.118907 -9.5201458e-05 0)
(1.1188772 -8.0593371e-05 0)
(1.1188518 -6.7743851e-05 0)
(1.1188302 -5.6532151e-05 0)
(1.1188119 -4.6829066e-05 0)
(1.1187967 -3.8502775e-05 0)
(1.118784 -3.1417958e-05 0)
(1.1187735 -2.544286e-05 0)
(1.1187649 -2.0446334e-05 0)
(1.118758 -1.6305375e-05 0)
(1.1187524 -1.2901645e-05 0)
(1.1187479 -1.0128362e-05 0)
(1.1187443 -7.88683e-06 0)
(1.1187416 -6.0913717e-06 0)
(1.1187394 -4.6653221e-06 0)
(1.1187377 -3.5443557e-06 0)
(1.1187364 -2.6712924e-06 0)
(1.1187354 -1.999147e-06 0)
(1.1187347 -1.4860844e-06 0)
(1.1187341 -1.0989486e-06 0)
(1.1187337 -8.0962523e-07 0)
(1.1187334 -5.9636995e-07 0)
(1.1187331 -4.4575891e-07 0)
(1.1187331 -3.4287109e-07 0)
(1.1187328 -2.8941497e-07 0)
(1.118733 -2.5001804e-07 0)
(1.0016583 -0.05381943 0)
(1.0359761 -0.10128444 0)
(1.0597199 -0.11073663 0)
(1.0628947 -0.10592202 0)
(1.0515569 -0.096228728 0)
(1.0340529 -0.083934061 0)
(1.0142795 -0.070327062 0)
(0.99360703 -0.056981333 0)
(0.97292577 -0.045107479 0)
(0.9531074 -0.03523675 0)
(0.93479538 -0.02740165 0)
(0.91829012 -0.021387227 0)
(0.90362379 -0.016884499 0)
(0.89068067 -0.013569709 0)
(0.87928174 -0.011147749 0)
(0.86923242 -0.0093736588 0)
(0.86034424 -0.0080569279 0)
(0.85244667 -0.0070571269 0)
(0.84539242 -0.0062752374 0)
(0.83905793 -0.0056438272 0)
(0.83334127 -0.0051180894 0)
(0.82815884 -0.0046686707 0)
(0.82344213 -0.0042764159 0)
(0.81913468 -0.0039287378 0)
(0.81518962 -0.0036172029 0)
(0.81156766 -0.0033359701 0)
(0.80823545 -0.0030808037 0)
(0.80516441 -0.0028484685 0)
(0.80232981 -0.0026363685 0)
(0.79971001 -0.0024423377 0)
(0.797286 -0.0022645183 0)
(0.79504089 -0.0021012902 0)
(0.79295966 -0.0019512272 0)
(0.79102884 -0.0018130667 0)
(0.78923632 -0.0016856888 0)
(0.78757116 -0.0015680984 0)
(0.78602345 -0.0014594098 0)
(0.78458422 -0.0013588339 0)
(0.78324527 -0.001265666 0)
(0.78199912 -0.0011792747 0)
(0.78083895 -0.0010990924 0)
(0.77975852 -0.001024607 0)
(0.77875207 -0.0009553535 0)
(0.77781436 -0.00089090867 0)
(0.77694055 -0.00083088428 0)
(0.77612621 -0.00077492342 0)
(0.77536727 -0.00072269566 0)
(0.77465999 -0.00067389519 0)
(0.77400093 -0.00062823697 0)
(0.77338695 -0.00058545695 0)
(0.77281517 -0.00054530899 0)
(0.77228296 -0.00050756669 0)
(0.77178791 -0.00047202068 0)
(0.77132783 -0.00043848184 0)
(0.77090069 -0.00040677861 0)
(0.77050467 -0.00037676077 0)
(0.77013807 -0.0003482962 0)
(0.76979935 -0.00032127465 0)
(0.76948704 -0.00029560372 0)
(0.76919981 -0.00027121185 0)
(0.76893636 -0.00024804306 0)
(0.76869549 -0.00022605905 0)
(0.76847601 -0.00020523324 0)
(0.76827679 -0.00018555163 0)
(0.76809668 -0.00016700659 0)
(0.76793458 -0.00014959693 0)
(0.76778937 -0.0001333224 0)
(0.76765994 -0.00011818313 0)
(0.76754519 -0.00010417549 0)
(0.76744402 -9.1291049e-05 0)
(0.76735534 -7.9514522e-05 0)
(0.76727807 -6.8822407e-05 0)
(0.76721118 -5.918311e-05 0)
(0.76715362 -5.0555762e-05 0)
(0.76710445 -4.2892316e-05 0)
(0.76706272 -3.6136827e-05 0)
(0.76702756 -3.0229153e-05 0)
(0.76699814 -2.5103878e-05 0)
(0.7669737 -2.0694998e-05 0)
(0.76695355 -1.69336e-05 0)
(0.76693706 -1.3753434e-05 0)
(0.76692365 -1.1086968e-05 0)
(0.76691285 -8.8715612e-06 0)
(0.7669042 -7.044993e-06 0)
(0.76689735 -5.5523078e-06 0)
(0.76689194 -4.3407076e-06 0)
(0.76688773 -3.3664615e-06 0)
(0.76688447 -2.5882123e-06 0)
(0.76688197 -1.9743606e-06 0)
(0.76688006 -1.4935128e-06 0)
(0.76687861 -1.1234532e-06 0)
(0.76687752 -8.3930588e-07 0)
(0.7668767 -6.2613368e-07 0)
(0.7668761 -4.6437373e-07 0)
(0.76687564 -3.4621632e-07 0)
(0.76687534 -2.5879239e-07 0)
(0.76687506 -2.0246886e-07 0)
(0.76687494 -1.6912075e-07 0)
(0.76687468 -1.6321293e-07 0)
(0.76687472 -1.7959124e-07 0)
(0.91890839 -0.035821913 0)
(0.86271384 -0.062195638 0)
(0.7870597 -0.06251009 0)
(0.69536033 -0.054550395 0)
(0.61089745 -0.044531651 0)
(0.54411592 -0.034015971 0)
(0.49343012 -0.024187539 0)
(0.45479413 -0.016144229 0)
(0.42544582 -0.010265785 0)
(0.40347313 -0.0063041452 0)
(0.38715766 -0.0037976294 0)
(0.3749622 -0.0023103382 0)
(0.36566192 -0.0014930149 0)
(0.35836272 -0.0010851182 0)
(0.35244268 -0.00090607232 0)
(0.34748201 -0.00084105171 0)
(0.34320348 -0.00082372403 0)
(0.33942726 -0.00081931018 0)
(0.33603793 -0.00081185166 0)
(0.33296114 -0.00079580084 0)
(0.33014779 -0.00077081114 0)
(0.32756385 -0.00073870931 0)
(0.3251842 -0.00070188935 0)
(0.32298902 -0.00066256593 0)
(0.32096172 -0.00062250004 0)
(0.31908785 -0.00058295807 0)
(0.31735449 -0.00054477231 0)
(0.31574996 -0.00050843504 0)
(0.31426361 -0.00047419277 0)
(0.31288575 -0.00044212634 0)
(0.31160756 -0.00041221218 0)
(0.31042101 -0.00038436585 0)
(0.30931882 -0.00035847129 0)
(0.30829437 -0.00033439933 0)
(0.30734162 -0.000312019 0)
(0.30645511 -0.00029120376 0)
(0.30562985 -0.00027183466 0)
(0.30486129 -0.00025380166 0)
(0.30414525 -0.00023700361 0)
(0.30347794 -0.00022134791 0)
(0.30285586 -0.0002067496 0)
(0.30227579 -0.00019313064 0)
(0.3017348 -0.00018041893 0)
(0.30123015 -0.0001685477 0)
(0.30075936 -0.00015745459 0)
(0.30032012 -0.00014708154 0)
(0.2999103 -0.00013737371 0)
(0.29952797 -0.00012827996 0)
(0.29917134 -0.00011975148 0)
(0.29883874 -0.00011174322 0)
(0.29852869 -0.00010421187 0)
(0.29823979 -9.7118153e-05 0)
(0.2979708 -9.0424311e-05 0)
(0.29772056 -8.4097306e-05 0)
(0.29748801 -7.8105568e-05 0)
(0.29727221 -7.242286e-05 0)
(0.29707226 -6.7024372e-05 0)
(0.29688735 -6.1891266e-05 0)
(0.29671674 -5.7005937e-05 0)
(0.29655971 -5.235677e-05 0)
(0.29641559 -4.7932876e-05 0)
(0.29628375 -4.3728968e-05 0)
(0.29616357 -3.9739726e-05 0)
(0.29605443 -3.5964385e-05 0)
(0.29595573 -3.2401241e-05 0)
(0.29586689 -2.9051813e-05 0)
(0.29578729 -2.5915962e-05 0)
(0.29571635 -2.2995225e-05 0)
(0.29565345 -2.0289064e-05 0)
(0.295598 -1.7797029e-05 0)
(0.29554941 -1.5516531e-05 0)
(0.29550709 -1.3443782e-05 0)
(0.29547045 -1.1573122e-05 0)
(0.29543895 -9.8968778e-06 0)
(0.29541204 -8.4062084e-06 0)
(0.29538922 -7.0902402e-06 0)
(0.29536999 -5.9380732e-06 0)
(0.29535392 -4.9368135e-06 0)
(0.29534058 -4.0747574e-06 0)
(0.29532958 -3.3381651e-06 0)
(0.29532058 -2.7154457e-06 0)
(0.29531327 -2.1925737e-06 0)
(0.29530738 -1.7583318e-06 0)
(0.29530267 -1.3993188e-06 0)
(0.29529892 -1.1057583e-06 0)
(0.29529598 -8.6607503e-07 0)
(0.29529369 -6.7302493e-07 0)
(0.29529191 -5.1761718e-07 0)
(0.29529055 -3.9547359e-07 0)
(0.29528952 -2.9933235e-07 0)
(0.29528873 -2.2650865e-07 0)
(0.29528813 -1.7037507e-07 0)
(0.29528768 -1.29614e-07 0)
(0.29528734 -9.7816621e-08 0)
(0.29528709 -7.5769458e-08 0)
(0.29528691 -5.9583598e-08 0)
(0.29528676 -5.2083959e-08 0)
(0.29528666 -5.0273844e-08 0)
(0.29528652 -6.3609232e-08 0)
(0.29528642 -8.016438e-08 0)
)
;

boundaryField
{
    top
    {
        type            fixedValue;
        value           uniform (0 0 0);
    }
    inlet
    {
        type            fixedValue;
        value           uniform (1 0 0);
    }
    outlet
    {
        type            zeroGradient;
    }
    bottom
    {
        type            fixedValue;
        value           uniform (0 0 0);
    }
    back
    {
        type            empty;
    }
    front
    {
        type            empty;
    }
}


// ************************************************************************* //
