/*--------------------------------*- C++ -*----------------------------------*\
| =========                 |                                                 |
| \\      /  F ield         | OpenFOAM: The Open Source CFD Toolbox           |
|  \\    /   O peration     | Version:  v1812                                 |
|   \\  /    A nd           | Web:      www.OpenFOAM.com                      |
|    \\/     M anipulation  |                                                 |
\*---------------------------------------------------------------------------*/
FoamFile
{
    version     2.0;
    format      ascii;
    class       volScalarField;
    location    "100";
    object      T;
}
// * * * * * * * * * * * * * * * * * * * * * * * * * * * * * * * * * * * * * //

dimensions      [0 0 0 1 0 0 0];


internalField   nonuniform List<scalar> 
10000
(
1.45765
1.45764
1.45764
1.45764
1.45764
1.45764
1.45764
1.45764
1.45764
1.45764
1.37315
1.37315
1.37314
1.37314
1.37314
1.37314
1.37314
1.37314
1.37314
1.37315
1.28929
1.28928
1.28928
1.28928
1.28927
1.28927
1.28927
1.28928
1.28928
1.28928
1.20647
1.20646
1.20645
1.20645
1.20645
1.20645
1.20645
1.20645
1.20646
1.20646
1.1251
1.12508
1.12507
1.12507
1.12507
1.12507
1.12507
1.12507
1.12508
1.12508
1.04554
1.04552
1.04551
1.04551
1.04551
1.04551
1.04551
1.04551
1.04551
1.04552
0.96814
0.968121
0.968112
0.968109
0.968108
0.968107
0.968108
0.96811
0.968116
0.968126
0.893227
0.893206
0.893197
0.893193
0.893192
0.893191
0.893192
0.893194
0.8932
0.893212
0.821079
0.821057
0.821047
0.821043
0.821041
0.82104
0.821041
0.821044
0.82105
0.821063
0.751942
0.751917
0.751907
0.751902
0.7519
0.7519
0.7519
0.751903
0.75191
0.751924
0.686019
0.685993
0.685982
0.685977
0.685975
0.685974
0.685974
0.685977
0.685985
0.685999
0.623474
0.623448
0.623437
0.623431
0.623429
0.623427
0.623427
0.62343
0.623437
0.623452
0.564431
0.564404
0.564392
0.564386
0.564383
0.564381
0.56438
0.564382
0.56439
0.564405
0.508969
0.508942
0.508929
0.508922
0.508918
0.508915
0.508914
0.508915
0.508922
0.508938
0.45713
0.457102
0.457089
0.457081
0.457075
0.457071
0.457068
0.457069
0.457075
0.45709
0.408916
0.408888
0.408874
0.408864
0.408857
0.408851
0.408846
0.408845
0.40885
0.408864
0.364295
0.364267
0.364251
0.36424
0.36423
0.364221
0.364213
0.364209
0.364212
0.364226
0.323202
0.323173
0.323156
0.323141
0.323127
0.323114
0.323102
0.323095
0.323095
0.323107
0.285542
0.285513
0.285493
0.285474
0.285454
0.285435
0.285418
0.285405
0.285401
0.285411
0.251197
0.251167
0.251142
0.251117
0.25109
0.251062
0.251036
0.251016
0.251006
0.251012
0.220026
0.219993
0.219963
0.219929
0.219891
0.219851
0.219812
0.219781
0.219762
0.219763
0.191871
0.191835
0.191797
0.191751
0.191697
0.191639
0.191583
0.191535
0.191503
0.191496
0.166561
0.166522
0.166472
0.166409
0.166333
0.166251
0.166168
0.166095
0.166044
0.166026
0.143919
0.143873
0.143808
0.143722
0.143617
0.143499
0.143378
0.143269
0.143188
0.143152
0.123759
0.123705
0.12362
0.123504
0.123359
0.123191
0.123015
0.12285
0.122722
0.122658
0.105897
0.105832
0.105723
0.105568
0.105369
0.105134
0.104878
0.104628
0.104425
0.104313
0.0901502
0.0900713
0.089933
0.0897305
0.0894635
0.0891373
0.0887677
0.0883885
0.0880587
0.087862
0.07634
0.0762463
0.0760747
0.0758172
0.075468
0.0750253
0.0744982
0.0739204
0.0733731
0.0730089
0.0642956
0.0641869
0.0639808
0.0636647
0.0632239
0.0626428
0.0619103
0.0610382
0.0601073
0.0593733
0.0538539
0.0537317
0.0534942
0.0531231
0.052593
0.0518676
0.0508984
0.0496289
0.0480362
0.0463666
1.45764
1.45764
1.45764
1.45764
1.45764
1.45764
1.45764
1.45764
1.45764
1.45764
1.37315
1.37314
1.37314
1.37314
1.37314
1.37314
1.37314
1.37314
1.37314
1.37314
1.28928
1.28927
1.28927
1.28927
1.28927
1.28927
1.28927
1.28927
1.28927
1.28927
1.20646
1.20645
1.20644
1.20644
1.20644
1.20644
1.20644
1.20644
1.20645
1.20645
1.12508
1.12507
1.12506
1.12506
1.12506
1.12506
1.12506
1.12506
1.12506
1.12507
1.04552
1.0455
1.0455
1.04549
1.04549
1.04549
1.04549
1.04549
1.0455
1.04551
0.968121
0.968103
0.968095
0.968091
0.96809
0.96809
0.968091
0.968093
0.9681
0.968114
0.893206
0.893186
0.893178
0.893174
0.893172
0.893172
0.893173
0.893176
0.893183
0.893199
0.821057
0.821035
0.821026
0.821022
0.82102
0.82102
0.821021
0.821024
0.821032
0.821049
0.751918
0.751895
0.751885
0.751881
0.751879
0.751878
0.751879
0.751882
0.751891
0.75191
0.685994
0.68597
0.68596
0.685955
0.685952
0.685952
0.685952
0.685955
0.685964
0.685984
0.623449
0.623424
0.623413
0.623408
0.623405
0.623404
0.623404
0.623407
0.623416
0.623437
0.564405
0.56438
0.564368
0.564362
0.564359
0.564357
0.564356
0.564359
0.564368
0.56439
0.508943
0.508917
0.508905
0.508899
0.508894
0.508891
0.50889
0.508892
0.508901
0.508922
0.457104
0.457078
0.457065
0.457057
0.457052
0.457047
0.457045
0.457046
0.457054
0.457075
0.40889
0.408864
0.40885
0.408841
0.408834
0.408827
0.408823
0.408822
0.408829
0.408849
0.36427
0.364244
0.364228
0.364217
0.364207
0.364198
0.36419
0.364187
0.364192
0.364211
0.323177
0.323151
0.323134
0.323119
0.323105
0.323092
0.323081
0.323074
0.323076
0.323093
0.285519
0.285492
0.285471
0.285453
0.285433
0.285414
0.285397
0.285384
0.285382
0.285397
0.251175
0.251146
0.251122
0.251097
0.25107
0.251042
0.251016
0.250996
0.250988
0.250999
0.220005
0.219974
0.219944
0.21991
0.219872
0.219832
0.219793
0.219762
0.219745
0.219751
0.191851
0.191817
0.191779
0.191733
0.191679
0.191621
0.191565
0.191517
0.191487
0.191485
0.166543
0.166505
0.166455
0.166392
0.166317
0.166234
0.166152
0.166079
0.16603
0.166015
0.143902
0.143857
0.143793
0.143707
0.143602
0.143484
0.143363
0.143254
0.143174
0.143142
0.123744
0.12369
0.123606
0.12349
0.123345
0.123177
0.123001
0.122837
0.12271
0.122649
0.105883
0.105819
0.10571
0.105555
0.105356
0.105121
0.104865
0.104616
0.104414
0.104305
0.0901376
0.0900595
0.0899214
0.0897191
0.0894522
0.0891261
0.0887567
0.0883777
0.0880489
0.0878552
0.0763286
0.0762358
0.0760644
0.075807
0.0754579
0.0750153
0.0744885
0.073911
0.0733645
0.073003
0.0642855
0.0641775
0.0639717
0.0636557
0.0632151
0.062634
0.0619018
0.06103
0.0601
0.0593683
0.053845
0.0537234
0.0534861
0.0531152
0.0525852
0.05186
0.0508911
0.049622
0.04803
0.0463623
1.45764
1.45764
1.45764
1.45764
1.45764
1.45764
1.45764
1.45764
1.45764
1.45764
1.37314
1.37314
1.37314
1.37314
1.37313
1.37313
1.37313
1.37314
1.37314
1.37314
1.28928
1.28927
1.28926
1.28926
1.28926
1.28926
1.28926
1.28926
1.28927
1.28927
1.20645
1.20644
1.20644
1.20644
1.20644
1.20644
1.20644
1.20644
1.20644
1.20645
1.12507
1.12506
1.12506
1.12505
1.12505
1.12505
1.12505
1.12505
1.12506
1.12507
1.04551
1.0455
1.04549
1.04549
1.04548
1.04548
1.04548
1.04549
1.04549
1.04551
0.968113
0.968095
0.968087
0.968084
0.968083
0.968083
0.968083
0.968086
0.968093
0.968109
0.893197
0.893178
0.893169
0.893166
0.893164
0.893164
0.893165
0.893168
0.893176
0.893193
0.821047
0.821026
0.821017
0.821013
0.821011
0.821011
0.821012
0.821015
0.821024
0.821043
0.751908
0.751885
0.751876
0.751871
0.751869
0.751869
0.75187
0.751873
0.751883
0.751903
0.685983
0.68596
0.68595
0.685945
0.685943
0.685942
0.685942
0.685946
0.685956
0.685977
0.623438
0.623414
0.623403
0.623398
0.623395
0.623394
0.623394
0.623398
0.623408
0.62343
0.564394
0.564369
0.564358
0.564352
0.564349
0.564347
0.564347
0.56435
0.56436
0.564382
0.508932
0.508907
0.508895
0.508888
0.508884
0.508881
0.50888
0.508882
0.508892
0.508915
0.457093
0.457068
0.457055
0.457047
0.457042
0.457037
0.457035
0.457036
0.457045
0.457068
0.408879
0.408854
0.40884
0.408831
0.408824
0.408818
0.408813
0.408813
0.40882
0.408842
0.364259
0.364234
0.364219
0.364207
0.364197
0.364188
0.364181
0.364178
0.364184
0.364204
0.323167
0.323141
0.323124
0.32311
0.323096
0.323083
0.323071
0.323065
0.323068
0.323086
0.285509
0.285482
0.285462
0.285444
0.285424
0.285405
0.285388
0.285376
0.285375
0.285391
0.251166
0.251137
0.251113
0.251088
0.251061
0.251033
0.251008
0.250988
0.250981
0.250993
0.219996
0.219966
0.219936
0.219902
0.219864
0.219824
0.219786
0.219755
0.219739
0.219745
0.191843
0.191809
0.191771
0.191725
0.191672
0.191614
0.191558
0.19151
0.191481
0.191479
0.166536
0.166497
0.166448
0.166385
0.16631
0.166227
0.166145
0.166073
0.166024
0.16601
0.143895
0.14385
0.143786
0.1437
0.143595
0.143477
0.143357
0.143248
0.143169
0.143138
0.123738
0.123684
0.1236
0.123484
0.123339
0.123171
0.122996
0.122831
0.122705
0.122645
0.105878
0.105813
0.105705
0.10555
0.105351
0.105116
0.10486
0.104611
0.104409
0.104302
0.0901323
0.0900544
0.0899165
0.0897142
0.0894474
0.0891214
0.088752
0.0883733
0.088045
0.087852
0.0763239
0.0762312
0.07606
0.0758027
0.0754536
0.0750111
0.0744844
0.0739071
0.0733611
0.0730002
0.0642813
0.0641735
0.0639678
0.0636519
0.0632113
0.0626304
0.0618982
0.0610267
0.060097
0.0593659
0.0538413
0.0537199
0.0534827
0.0531119
0.0525819
0.0518568
0.050888
0.0496191
0.0480275
0.0463603
1.45764
1.45764
1.45764
1.45764
1.45764
1.45764
1.45764
1.45764
1.45764
1.45764
1.37314
1.37314
1.37314
1.37313
1.37313
1.37313
1.37313
1.37313
1.37314
1.37314
1.28928
1.28927
1.28926
1.28926
1.28926
1.28926
1.28926
1.28926
1.28927
1.28927
1.20645
1.20644
1.20644
1.20643
1.20643
1.20643
1.20643
1.20644
1.20644
1.20645
1.12507
1.12506
1.12505
1.12505
1.12505
1.12505
1.12505
1.12505
1.12506
1.12507
1.04551
1.04549
1.04549
1.04548
1.04548
1.04548
1.04548
1.04548
1.04549
1.0455
0.968109
0.968092
0.968084
0.968081
0.96808
0.96808
0.96808
0.968083
0.968091
0.968106
0.893194
0.893174
0.893166
0.893162
0.893161
0.893161
0.893162
0.893165
0.893173
0.893191
0.821043
0.821023
0.821013
0.821009
0.821008
0.821008
0.821008
0.821012
0.821021
0.82104
0.751904
0.751881
0.751872
0.751867
0.751866
0.751865
0.751866
0.75187
0.751879
0.7519
0.685979
0.685956
0.685946
0.685941
0.685939
0.685938
0.685939
0.685942
0.685953
0.685974
0.623434
0.62341
0.623399
0.623394
0.623391
0.62339
0.62339
0.623394
0.623404
0.623427
0.56439
0.564365
0.564354
0.564348
0.564345
0.564343
0.564343
0.564346
0.564356
0.564379
0.508927
0.508903
0.508891
0.508884
0.50888
0.508877
0.508876
0.508879
0.508889
0.508912
0.457088
0.457063
0.457051
0.457043
0.457038
0.457033
0.457031
0.457032
0.457042
0.457065
0.408875
0.40885
0.408836
0.408827
0.40882
0.408814
0.408809
0.408809
0.408817
0.408839
0.364255
0.36423
0.364215
0.364203
0.364193
0.364184
0.364177
0.364174
0.364181
0.364202
0.323163
0.323137
0.32312
0.323106
0.323092
0.323079
0.323068
0.323061
0.323065
0.323084
0.285505
0.285478
0.285459
0.28544
0.285421
0.285402
0.285384
0.285373
0.285372
0.285388
0.251162
0.251134
0.25111
0.251085
0.251058
0.25103
0.251004
0.250985
0.250978
0.25099
0.219992
0.219962
0.219932
0.219899
0.219861
0.219821
0.219782
0.219752
0.219736
0.219743
0.19184
0.191806
0.191768
0.191722
0.191669
0.191611
0.191555
0.191507
0.191478
0.191477
0.166533
0.166494
0.166445
0.166382
0.166307
0.166225
0.166142
0.16607
0.166022
0.166008
0.143892
0.143848
0.143784
0.143698
0.143593
0.143475
0.143354
0.143246
0.143167
0.143136
0.123735
0.123682
0.123598
0.123482
0.123336
0.123169
0.122993
0.122829
0.122703
0.122644
0.105875
0.105811
0.105702
0.105548
0.105349
0.105114
0.104858
0.104609
0.104408
0.1043
0.0901302
0.0900524
0.0899145
0.0897123
0.0894455
0.0891195
0.0887502
0.0883716
0.0880434
0.0878506
0.076322
0.0762294
0.0760582
0.0758009
0.0754519
0.0750095
0.0744827
0.0739056
0.0733598
0.0729991
0.0642797
0.0641719
0.0639662
0.0636503
0.0632098
0.0626289
0.0618968
0.0610254
0.0600958
0.0593649
0.0538398
0.0537184
0.0534813
0.0531105
0.0525806
0.0518555
0.0508868
0.049618
0.0480265
0.0463594
1.45764
1.45764
1.45764
1.45764
1.45764
1.45764
1.45764
1.45764
1.45764
1.45764
1.37314
1.37314
1.37313
1.37313
1.37313
1.37313
1.37313
1.37313
1.37314
1.37314
1.28927
1.28927
1.28926
1.28926
1.28926
1.28926
1.28926
1.28926
1.28926
1.28927
1.20645
1.20644
1.20644
1.20643
1.20643
1.20643
1.20643
1.20644
1.20644
1.20645
1.12507
1.12506
1.12505
1.12505
1.12505
1.12505
1.12505
1.12505
1.12506
1.12507
1.04551
1.04549
1.04548
1.04548
1.04548
1.04548
1.04548
1.04548
1.04549
1.0455
0.968108
0.968091
0.968083
0.96808
0.968079
0.968079
0.968079
0.968082
0.96809
0.968106
0.893192
0.893173
0.893165
0.893161
0.89316
0.89316
0.89316
0.893164
0.893172
0.89319
0.821042
0.821021
0.821012
0.821008
0.821007
0.821006
0.821007
0.821011
0.82102
0.82104
0.751902
0.75188
0.751871
0.751866
0.751864
0.751864
0.751865
0.751868
0.751878
0.751899
0.685978
0.685955
0.685944
0.68594
0.685938
0.685937
0.685937
0.685941
0.685952
0.685974
0.623432
0.623409
0.623398
0.623393
0.62339
0.623389
0.623389
0.623393
0.623403
0.623426
0.564388
0.564364
0.564352
0.564347
0.564344
0.564342
0.564341
0.564345
0.564355
0.564378
0.508926
0.508901
0.508889
0.508883
0.508879
0.508876
0.508875
0.508877
0.508888
0.508911
0.457087
0.457062
0.457049
0.457042
0.457036
0.457032
0.45703
0.457031
0.457041
0.457064
0.408874
0.408848
0.408835
0.408826
0.408819
0.408812
0.408808
0.408808
0.408816
0.408838
0.364254
0.364228
0.364213
0.364202
0.364192
0.364183
0.364176
0.364173
0.36418
0.364201
0.323162
0.323136
0.323119
0.323105
0.323091
0.323078
0.323067
0.32306
0.323064
0.323083
0.285504
0.285477
0.285457
0.285439
0.28542
0.2854
0.285383
0.285372
0.285371
0.285387
0.251161
0.251132
0.251109
0.251084
0.251057
0.251029
0.251003
0.250984
0.250977
0.25099
0.219991
0.219961
0.219931
0.219898
0.21986
0.21982
0.219781
0.219751
0.219735
0.219742
0.191838
0.191805
0.191767
0.191721
0.191668
0.19161
0.191554
0.191507
0.191478
0.191477
0.166532
0.166493
0.166444
0.166381
0.166306
0.166224
0.166141
0.16607
0.166021
0.166008
0.143892
0.143847
0.143783
0.143697
0.143592
0.143474
0.143354
0.143245
0.143166
0.143135
0.123734
0.123681
0.123597
0.123481
0.123336
0.123168
0.122993
0.122829
0.122703
0.122643
0.105874
0.10581
0.105702
0.105547
0.105348
0.105113
0.104858
0.104609
0.104407
0.1043
0.0901295
0.0900518
0.0899139
0.0897117
0.0894449
0.0891189
0.0887497
0.0883711
0.088043
0.0878503
0.0763214
0.0762288
0.0760576
0.0758004
0.0754514
0.075009
0.0744823
0.0739052
0.0733594
0.0729988
0.0642791
0.0641714
0.0639657
0.0636499
0.0632093
0.0626285
0.0618964
0.061025
0.0600955
0.0593646
0.0538393
0.053718
0.0534809
0.0531101
0.0525802
0.0518552
0.0508864
0.0496177
0.0480262
0.0463592
1.45764
1.45764
1.45764
1.45764
1.45764
1.45764
1.45764
1.45764
1.45764
1.45764
1.37314
1.37314
1.37313
1.37313
1.37313
1.37313
1.37313
1.37313
1.37314
1.37314
1.28927
1.28927
1.28926
1.28926
1.28926
1.28926
1.28926
1.28926
1.28926
1.28927
1.20645
1.20644
1.20644
1.20643
1.20643
1.20643
1.20643
1.20644
1.20644
1.20645
1.12507
1.12506
1.12505
1.12505
1.12505
1.12505
1.12505
1.12505
1.12506
1.12507
1.04551
1.04549
1.04548
1.04548
1.04548
1.04548
1.04548
1.04548
1.04549
1.0455
0.968108
0.968091
0.968083
0.96808
0.968079
0.968079
0.96808
0.968083
0.96809
0.968106
0.893192
0.893173
0.893165
0.893161
0.89316
0.89316
0.893161
0.893164
0.893173
0.89319
0.821042
0.821021
0.821012
0.821008
0.821007
0.821006
0.821007
0.821011
0.82102
0.82104
0.751902
0.75188
0.751871
0.751866
0.751864
0.751864
0.751865
0.751869
0.751879
0.751899
0.685978
0.685955
0.685945
0.68594
0.685938
0.685937
0.685938
0.685941
0.685952
0.685974
0.623432
0.623409
0.623398
0.623393
0.62339
0.623389
0.623389
0.623393
0.623404
0.623426
0.564388
0.564364
0.564353
0.564347
0.564344
0.564342
0.564342
0.564345
0.564355
0.564379
0.508926
0.508901
0.508889
0.508883
0.508879
0.508876
0.508875
0.508878
0.508888
0.508911
0.457087
0.457062
0.457049
0.457042
0.457036
0.457032
0.45703
0.457031
0.457041
0.457064
0.408874
0.408849
0.408835
0.408826
0.408819
0.408813
0.408808
0.408808
0.408816
0.408839
0.364254
0.364228
0.364213
0.364202
0.364192
0.364183
0.364176
0.364174
0.36418
0.364201
0.323162
0.323136
0.323119
0.323105
0.323091
0.323078
0.323067
0.323061
0.323064
0.323083
0.285504
0.285477
0.285458
0.285439
0.28542
0.285401
0.285384
0.285372
0.285371
0.285388
0.251161
0.251133
0.251109
0.251084
0.251057
0.251029
0.251004
0.250984
0.250977
0.25099
0.219991
0.219961
0.219931
0.219898
0.21986
0.21982
0.219782
0.219751
0.219735
0.219742
0.191839
0.191805
0.191767
0.191721
0.191668
0.19161
0.191554
0.191507
0.191478
0.191477
0.166532
0.166494
0.166444
0.166382
0.166306
0.166224
0.166141
0.16607
0.166021
0.166008
0.143892
0.143847
0.143783
0.143697
0.143592
0.143474
0.143354
0.143245
0.143167
0.143136
0.123734
0.123681
0.123597
0.123481
0.123336
0.123169
0.122993
0.122829
0.122703
0.122644
0.105874
0.10581
0.105702
0.105547
0.105348
0.105113
0.104858
0.104609
0.104407
0.1043
0.0901296
0.0900518
0.089914
0.0897118
0.089445
0.0891191
0.0887498
0.0883713
0.0880432
0.0878505
0.0763215
0.0762289
0.0760577
0.0758005
0.0754515
0.0750091
0.0744824
0.0739054
0.0733596
0.072999
0.0642792
0.0641715
0.0639658
0.06365
0.0632095
0.0626286
0.0618966
0.0610251
0.0600957
0.0593648
0.0538394
0.0537181
0.0534809
0.0531102
0.0525803
0.0518553
0.0508866
0.0496178
0.0480263
0.0463593
1.45764
1.45764
1.45764
1.45764
1.45764
1.45764
1.45764
1.45764
1.45764
1.45764
1.37314
1.37314
1.37313
1.37313
1.37313
1.37313
1.37313
1.37313
1.37314
1.37314
1.28927
1.28927
1.28926
1.28926
1.28926
1.28926
1.28926
1.28926
1.28927
1.28927
1.20645
1.20644
1.20644
1.20643
1.20643
1.20643
1.20643
1.20644
1.20644
1.20645
1.12507
1.12506
1.12505
1.12505
1.12505
1.12505
1.12505
1.12505
1.12506
1.12507
1.04551
1.04549
1.04549
1.04548
1.04548
1.04548
1.04548
1.04549
1.04549
1.04551
0.968109
0.968092
0.968084
0.968081
0.96808
0.96808
0.968081
0.968084
0.968091
0.968107
0.893193
0.893174
0.893166
0.893162
0.893161
0.893161
0.893162
0.893165
0.893174
0.893191
0.821043
0.821022
0.821014
0.82101
0.821008
0.821008
0.821009
0.821013
0.821022
0.821041
0.751903
0.751881
0.751872
0.751868
0.751866
0.751865
0.751866
0.75187
0.75188
0.751901
0.685979
0.685956
0.685946
0.685941
0.685939
0.685939
0.685939
0.685943
0.685954
0.685976
0.623433
0.62341
0.623399
0.623394
0.623392
0.623391
0.623391
0.623395
0.623405
0.623428
0.564389
0.564365
0.564354
0.564349
0.564345
0.564343
0.564343
0.564347
0.564357
0.564381
0.508927
0.508903
0.508891
0.508885
0.508881
0.508878
0.508877
0.508879
0.50889
0.508913
0.457088
0.457063
0.457051
0.457044
0.457038
0.457034
0.457032
0.457033
0.457043
0.457066
0.408875
0.40885
0.408837
0.408828
0.408821
0.408814
0.40881
0.40881
0.408818
0.408841
0.364255
0.36423
0.364215
0.364204
0.364194
0.364185
0.364178
0.364175
0.364182
0.364203
0.323163
0.323137
0.323121
0.323107
0.323093
0.32308
0.323069
0.323062
0.323066
0.323085
0.285505
0.285479
0.285459
0.285441
0.285421
0.285402
0.285385
0.285374
0.285373
0.285389
0.251162
0.251134
0.25111
0.251085
0.251059
0.251031
0.251005
0.250986
0.250979
0.250992
0.219993
0.219962
0.219933
0.219899
0.219861
0.219821
0.219783
0.219753
0.219737
0.219744
0.19184
0.191806
0.191769
0.191723
0.191669
0.191612
0.191556
0.191508
0.19148
0.191478
0.166533
0.166495
0.166446
0.166383
0.166308
0.166225
0.166143
0.166071
0.166023
0.16601
0.143893
0.143848
0.143784
0.143698
0.143593
0.143475
0.143355
0.143247
0.143168
0.143137
0.123735
0.123682
0.123598
0.123482
0.123337
0.12317
0.122994
0.12283
0.122704
0.122645
0.105875
0.105811
0.105703
0.105548
0.105349
0.105114
0.104859
0.10461
0.104408
0.104301
0.0901303
0.0900527
0.0899149
0.0897128
0.089446
0.0891201
0.0887508
0.0883723
0.0880442
0.0878515
0.0763222
0.0762297
0.0760586
0.0758014
0.0754524
0.07501
0.0744833
0.0739063
0.0733605
0.0729999
0.0642798
0.0641722
0.0639666
0.0636507
0.0632103
0.0626294
0.0618974
0.0610259
0.0600965
0.0593656
0.05384
0.0537187
0.0534816
0.0531109
0.052581
0.051856
0.0508873
0.0496185
0.048027
0.04636
1.45764
1.45764
1.45764
1.45764
1.45764
1.45764
1.45764
1.45764
1.45764
1.45764
1.37314
1.37314
1.37314
1.37313
1.37313
1.37313
1.37313
1.37314
1.37314
1.37314
1.28928
1.28927
1.28926
1.28926
1.28926
1.28926
1.28926
1.28926
1.28927
1.28927
1.20645
1.20644
1.20644
1.20644
1.20644
1.20644
1.20644
1.20644
1.20644
1.20645
1.12507
1.12506
1.12505
1.12505
1.12505
1.12505
1.12505
1.12505
1.12506
1.12507
1.04551
1.04549
1.04549
1.04549
1.04548
1.04548
1.04549
1.04549
1.04549
1.04551
0.968111
0.968094
0.968087
0.968084
0.968083
0.968083
0.968084
0.968087
0.968095
0.96811
0.893196
0.893177
0.893169
0.893166
0.893165
0.893165
0.893166
0.893169
0.893178
0.893195
0.821046
0.821026
0.821017
0.821014
0.821012
0.821012
0.821013
0.821017
0.821026
0.821046
0.751907
0.751885
0.751876
0.751872
0.75187
0.75187
0.751871
0.751875
0.751885
0.751906
0.685982
0.68596
0.68595
0.685946
0.685944
0.685943
0.685944
0.685948
0.685958
0.68598
0.623437
0.623414
0.623404
0.623399
0.623397
0.623395
0.623396
0.6234
0.62341
0.623433
0.564393
0.56437
0.564359
0.564353
0.56435
0.564348
0.564348
0.564352
0.564362
0.564386
0.508931
0.508907
0.508896
0.50889
0.508886
0.508883
0.508882
0.508885
0.508895
0.508918
0.457092
0.457068
0.457056
0.457049
0.457043
0.457039
0.457037
0.457038
0.457048
0.457071
0.408879
0.408854
0.408841
0.408833
0.408826
0.408819
0.408815
0.408815
0.408823
0.408846
0.364259
0.364234
0.36422
0.364209
0.364199
0.36419
0.364183
0.364181
0.364187
0.364208
0.323167
0.323142
0.323125
0.323111
0.323098
0.323085
0.323074
0.323067
0.323071
0.32309
0.285509
0.285483
0.285464
0.285445
0.285426
0.285407
0.28539
0.285379
0.285378
0.285394
0.251165
0.251138
0.251115
0.25109
0.251063
0.251035
0.25101
0.250991
0.250984
0.250996
0.219996
0.219966
0.219937
0.219904
0.219866
0.219826
0.219788
0.219757
0.219742
0.219749
0.191843
0.19181
0.191773
0.191727
0.191673
0.191616
0.19156
0.191513
0.191484
0.191483
0.166536
0.166498
0.166449
0.166387
0.166312
0.166229
0.166147
0.166075
0.166027
0.166014
0.143895
0.143851
0.143787
0.143702
0.143597
0.143479
0.143359
0.14325
0.143172
0.143141
0.123738
0.123685
0.123601
0.123486
0.12334
0.123173
0.122997
0.122833
0.122708
0.122648
0.105878
0.105814
0.105706
0.105551
0.105352
0.105117
0.104862
0.104613
0.104412
0.104304
0.0901325
0.0900551
0.0899176
0.0897155
0.0894488
0.0891228
0.0887536
0.0883751
0.088047
0.0878544
0.0763242
0.0762319
0.076061
0.0758038
0.0754549
0.0750125
0.0744858
0.0739088
0.073363
0.0730025
0.0642816
0.0641741
0.0639687
0.063653
0.0632125
0.0626316
0.0618996
0.0610281
0.0600987
0.0593678
0.0538416
0.0537205
0.0534835
0.0531129
0.052583
0.051858
0.0508892
0.0496204
0.0480289
0.0463618
1.45764
1.45764
1.45764
1.45764
1.45764
1.45764
1.45764
1.45764
1.45764
1.45764
1.37314
1.37314
1.37314
1.37314
1.37314
1.37314
1.37314
1.37314
1.37314
1.37314
1.28928
1.28927
1.28927
1.28927
1.28927
1.28927
1.28927
1.28927
1.28927
1.28928
1.20646
1.20645
1.20644
1.20644
1.20644
1.20644
1.20644
1.20644
1.20645
1.20645
1.12508
1.12506
1.12506
1.12506
1.12506
1.12506
1.12506
1.12506
1.12507
1.12508
1.04551
1.0455
1.04549
1.04549
1.04549
1.04549
1.04549
1.04549
1.0455
1.04551
0.968117
0.968101
0.968094
0.968092
0.968091
0.968091
0.968092
0.968095
0.968103
0.968118
0.893202
0.893185
0.893178
0.893175
0.893173
0.893173
0.893174
0.893178
0.893187
0.893204
0.821053
0.821034
0.821026
0.821023
0.821022
0.821022
0.821023
0.821026
0.821036
0.821056
0.751914
0.751894
0.751886
0.751882
0.751881
0.75188
0.751881
0.751885
0.751895
0.751916
0.68599
0.68597
0.685961
0.685957
0.685955
0.685954
0.685955
0.685959
0.68597
0.685992
0.623446
0.623424
0.623415
0.62341
0.623408
0.623407
0.623407
0.623411
0.623422
0.623445
0.564402
0.56438
0.56437
0.564365
0.564362
0.56436
0.56436
0.564364
0.564374
0.564398
0.50894
0.508918
0.508907
0.508902
0.508898
0.508895
0.508894
0.508897
0.508907
0.508931
0.457101
0.457079
0.457067
0.457061
0.457055
0.457051
0.457049
0.457051
0.45706
0.457084
0.408888
0.408865
0.408853
0.408845
0.408838
0.408832
0.408827
0.408827
0.408836
0.408859
0.364268
0.364245
0.364231
0.364221
0.364211
0.364202
0.364195
0.364193
0.364199
0.364221
0.323176
0.323152
0.323136
0.323123
0.323109
0.323096
0.323085
0.323079
0.323083
0.323102
0.285517
0.285493
0.285474
0.285456
0.285437
0.285418
0.285401
0.28539
0.285389
0.285406
0.251174
0.251148
0.251125
0.251101
0.251074
0.251046
0.251021
0.251002
0.250995
0.251008
0.220004
0.219975
0.219947
0.219914
0.219876
0.219836
0.219798
0.219768
0.219752
0.219759
0.19185
0.191819
0.191782
0.191736
0.191683
0.191626
0.191569
0.191522
0.191494
0.191493
0.166543
0.166506
0.166458
0.166396
0.166321
0.166238
0.166156
0.166084
0.166036
0.166023
0.143902
0.143859
0.143796
0.14371
0.143605
0.143488
0.143367
0.143259
0.14318
0.14315
0.123744
0.123692
0.123609
0.123493
0.123348
0.123181
0.123005
0.122841
0.122716
0.122656
0.105883
0.10582
0.105713
0.105558
0.10536
0.105125
0.104869
0.104621
0.104419
0.104312
0.0901375
0.090061
0.0899239
0.089722
0.0894553
0.0891294
0.0887602
0.0883816
0.0880536
0.0878612
0.0763287
0.0762372
0.0760667
0.0758097
0.0754608
0.0750184
0.0744917
0.0739146
0.0733689
0.0730085
0.0642857
0.0641789
0.0639738
0.0636582
0.0632178
0.0626369
0.0619048
0.0610333
0.0601039
0.0593731
0.0538452
0.0537247
0.0534881
0.0531175
0.0525877
0.0518626
0.0508938
0.0496249
0.0480334
0.0463663
1.45764
1.45764
1.45764
1.45764
1.45764
1.45764
1.45764
1.45764
1.45764
1.45764
1.37315
1.37314
1.37314
1.37314
1.37314
1.37314
1.37314
1.37314
1.37314
1.37314
1.28928
1.28927
1.28927
1.28927
1.28927
1.28927
1.28927
1.28927
1.28928
1.28928
1.20646
1.20645
1.20645
1.20645
1.20645
1.20645
1.20645
1.20645
1.20645
1.20646
1.12508
1.12507
1.12507
1.12507
1.12507
1.12507
1.12507
1.12507
1.12508
1.12509
1.04552
1.04551
1.04551
1.04551
1.0455
1.0455
1.04551
1.04551
1.04551
1.04553
0.968127
0.968115
0.96811
0.968107
0.968106
0.968106
0.968107
0.968111
0.968118
0.968135
0.893214
0.893201
0.893195
0.893192
0.893191
0.893191
0.893192
0.893196
0.893205
0.893223
0.821066
0.821052
0.821045
0.821042
0.821041
0.821041
0.821042
0.821046
0.821056
0.821076
0.751928
0.751914
0.751906
0.751903
0.751902
0.751901
0.751902
0.751906
0.751917
0.751939
0.686005
0.68599
0.685983
0.685979
0.685977
0.685976
0.685977
0.685981
0.685992
0.686015
0.623461
0.623446
0.623438
0.623433
0.623431
0.62343
0.623431
0.623434
0.623446
0.62347
0.564418
0.564402
0.564393
0.564389
0.564386
0.564384
0.564384
0.564388
0.564399
0.564423
0.508956
0.50894
0.508931
0.508926
0.508922
0.508919
0.508918
0.508921
0.508932
0.508957
0.457118
0.457101
0.457091
0.457085
0.45708
0.457076
0.457074
0.457075
0.457085
0.45711
0.408904
0.408888
0.408877
0.408869
0.408862
0.408856
0.408852
0.408852
0.408861
0.408884
0.364284
0.364267
0.364255
0.364245
0.364235
0.364226
0.364219
0.364217
0.364224
0.364246
0.323192
0.323174
0.323159
0.323146
0.323133
0.32312
0.323109
0.323103
0.323107
0.323127
0.285533
0.285514
0.285497
0.285479
0.28546
0.285441
0.285424
0.285413
0.285413
0.28543
0.251189
0.251168
0.251146
0.251122
0.251096
0.251068
0.251043
0.251024
0.251017
0.251031
0.220018
0.219995
0.219967
0.219935
0.219897
0.219857
0.219819
0.219789
0.219773
0.219782
0.191864
0.191837
0.191801
0.191756
0.191703
0.191645
0.191589
0.191542
0.191514
0.191514
0.166555
0.166523
0.166476
0.166414
0.166339
0.166257
0.166175
0.166103
0.166055
0.166043
0.143914
0.143875
0.143813
0.143727
0.143623
0.143505
0.143384
0.143276
0.143198
0.143168
0.123755
0.123707
0.123625
0.123509
0.123364
0.123197
0.123021
0.122857
0.122732
0.122673
0.105893
0.105834
0.105727
0.105573
0.105374
0.105139
0.104884
0.104635
0.104434
0.104327
0.0901468
0.0900734
0.0899369
0.0897352
0.0894686
0.0891426
0.0887733
0.0883948
0.0880669
0.0878749
0.0763371
0.0762484
0.0760785
0.0758217
0.0754728
0.0750303
0.0745035
0.0739264
0.0733808
0.0730207
0.0642932
0.0641889
0.0639844
0.0636689
0.0632284
0.0626475
0.0619153
0.0610438
0.0601143
0.0593838
0.0538519
0.0537336
0.0534975
0.053127
0.0525972
0.051872
0.050903
0.049634
0.0480423
0.0463753
0.0448594
0.0447273
0.0444663
0.0440536
0.0434543
0.0426127
0.0414374
0.0397615
0.0372223
0.0328228
0.0371638
0.0370273
0.0367548
0.0363222
0.035691
0.0348009
0.0335552
0.0317936
0.0292445
0.0254755
0.0306254
0.0304905
0.0302202
0.0297919
0.0291704
0.0283032
0.0271132
0.0254922
0.0233026
0.0204268
0.025109
0.0249813
0.0247254
0.0243226
0.0237446
0.0229519
0.0218928
0.0205066
0.0187379
0.0165791
0.0204866
0.0203703
0.0201381
0.0197756
0.0192626
0.0185725
0.0176748
0.0165399
0.015152
0.013532
0.0166386
0.0165363
0.0163333
0.0160193
0.0155813
0.0150034
0.0142698
0.0133691
0.012302
0.0110913
0.0134547
0.0133677
0.0131959
0.0129329
0.0125713
0.0121032
0.0115226
0.0108283
0.0100276
0.00913879
0.0108355
0.0107636
0.0106224
0.0104087
0.0101192
0.00975168
0.00930679
0.00878995
0.00821272
0.00759091
0.00869204
0.0086341
0.00852131
0.0083524
0.00812716
0.00784733
0.00751818
0.00715055
0.00676263
0.00637859
0.00694638
0.00690083
0.0068129
0.00668275
0.00651208
0.00630501
0.00606967
0.00582088
0.00558546
0.00541666
0.0448516
0.0447201
0.0444593
0.0440467
0.0434475
0.0426061
0.0414311
0.0397557
0.037217
0.0328185
0.037157
0.037021
0.0367487
0.0363162
0.0356852
0.0347953
0.0335498
0.0317886
0.02924
0.0254716
0.0306196
0.030485
0.0302149
0.0297867
0.0291654
0.0282984
0.0271087
0.025488
0.0232988
0.0204234
0.025104
0.0249766
0.0247209
0.0243182
0.0237403
0.0229478
0.021889
0.020503
0.0187346
0.0165761
0.0204823
0.0203663
0.0201342
0.0197719
0.0192589
0.018569
0.0176715
0.0165368
0.0151492
0.0135295
0.0166349
0.0165329
0.01633
0.0160161
0.0155782
0.0150004
0.0142669
0.0133664
0.0122995
0.0110891
0.0134516
0.0133648
0.0131931
0.0129302
0.0125687
0.0121007
0.0115202
0.010826
0.0100255
0.00913683
0.0108329
0.0107611
0.0106201
0.0104064
0.010117
0.00974954
0.00930475
0.008788
0.00821087
0.00758918
0.00868983
0.00863206
0.00851933
0.00835047
0.00812529
0.00784552
0.00751644
0.00714888
0.00676104
0.00637708
0.00694454
0.00689912
0.00681125
0.00668113
0.0065105
0.00630348
0.00606819
0.00581946
0.00558411
0.00541542
0.0448483
0.044717
0.0444563
0.0440438
0.0434447
0.0426034
0.0414285
0.0397532
0.0372148
0.0328166
0.0371542
0.0370183
0.0367461
0.0363137
0.0356828
0.034793
0.0335476
0.0317865
0.0292381
0.02547
0.0306171
0.0304827
0.0302127
0.0297846
0.0291633
0.0282964
0.0271067
0.0254862
0.0232972
0.020422
0.0251019
0.0249746
0.024719
0.0243163
0.0237385
0.0229461
0.0218873
0.0205014
0.0187332
0.0165749
0.0204805
0.0203646
0.0201326
0.0197703
0.0192574
0.0185675
0.0176701
0.0165355
0.015148
0.0135284
0.0166334
0.0165315
0.0163286
0.0160148
0.0155769
0.0149991
0.0142658
0.0133653
0.0122985
0.0110882