/*--------------------------------*- C++ -*----------------------------------*\
| =========                 |                                                 |
| \\      /  F ield         | OpenFOAM: The Open Source CFD Toolbox           |
|  \\    /   O peration     | Version:  2112                                  |
|   \\  /    A nd           | Website:  www.openfoam.com                      |
|    \\/     M anipulation  |                                                 |
\*---------------------------------------------------------------------------*/
FoamFile
{
    version     2.0;
    format      ascii;
    arch        "LSB;label=32;scalar=64";
    class       volScalarField;
    location    "65";
    object      T;
}
// * * * * * * * * * * * * * * * * * * * * * * * * * * * * * * * * * * * * * //

dimensions      [0 0 0 1 0 0 0];

internalField   nonuniform List<scalar> 
10000
(
1.44743
1.44743
1.44743
1.44743
1.44743
1.44743
1.44743
1.44743
1.44743
1.44743
1.34271
1.34271
1.34271
1.34271
1.34271
1.34271
1.34271
1.34271
1.34271
1.34271
1.23919
1.23919
1.23919
1.23919
1.23919
1.23919
1.23919
1.23919
1.23919
1.23919
1.13765
1.13766
1.13765
1.13765
1.13765
1.13765
1.13765
1.13765
1.13765
1.13765
1.03883
1.03883
1.03883
1.03883
1.03883
1.03883
1.03883
1.03883
1.03883
1.03883
0.943395
0.943395
0.943394
0.943394
0.943394
0.943394
0.943394
0.943394
0.943394
0.943394
0.851931
0.851931
0.851931
0.85193
0.85193
0.85193
0.85193
0.85193
0.85193
0.85193
0.764952
0.764953
0.764952
0.764952
0.764951
0.764951
0.764951
0.764952
0.764952
0.764952
0.682875
0.682875
0.682875
0.682874
0.682874
0.682874
0.682874
0.682874
0.682874
0.682874
0.606018
0.606018
0.606017
0.606017
0.606017
0.606017
0.606017
0.606017
0.606017
0.606017
0.534602
0.534602
0.534601
0.534601
0.534601
0.534601
0.534601
0.534601
0.534601
0.534601
0.468751
0.468751
0.46875
0.46875
0.46875
0.468749
0.468749
0.46875
0.46875
0.46875
0.408496
0.408496
0.408496
0.408495
0.408495
0.408495
0.408495
0.408495
0.408495
0.408495
0.353785
0.353785
0.353785
0.353784
0.353784
0.353784
0.353783
0.353784
0.353784
0.353784
0.304487
0.304487
0.304486
0.304486
0.304485
0.304485
0.304485
0.304485
0.304485
0.304485
0.260406
0.260406
0.260405
0.260404
0.260403
0.260403
0.260402
0.260402
0.260402
0.260402
0.221289
0.221289
0.221288
0.221287
0.221286
0.221285
0.221284
0.221284
0.221284
0.221283
0.186842
0.186842
0.186841
0.18684
0.186838
0.186837
0.186835
0.186835
0.186834
0.186833
0.156738
0.156738
0.156736
0.156734
0.156732
0.15673
0.156728
0.156726
0.156725
0.156724
0.130628
0.130628
0.130625
0.130623
0.130619
0.130616
0.130613
0.13061
0.130608
0.130607
0.108154
0.108153
0.10815
0.108146
0.108141
0.108135
0.10813
0.108126
0.108122
0.10812
0.0889541
0.0889521
0.0889478
0.0889418
0.0889345
0.0889263
0.088918
0.0889106
0.088905
0.0889018
0.0726748
0.0726718
0.0726657
0.0726569
0.0726459
0.0726334
0.0726204
0.0726085
0.0725992
0.072594
0.0589747
0.0589705
0.0589617
0.058949
0.0589326
0.0589136
0.0588934
0.0588743
0.0588591
0.0588504
0.047531
0.047525
0.0475128
0.0474945
0.0474707
0.047442
0.0474107
0.04738
0.0473547
0.0473401
0.038043
0.0380348
0.038018
0.0379924
0.0379581
0.0379156
0.0378673
0.0378179
0.0377753
0.0377498
0.0302347
0.0302239
0.0302015
0.0301667
0.0301185
0.0300567
0.0299829
0.0299032
0.0298301
0.0297835
0.0238569
0.0238431
0.0238142
0.0237684
0.0237031
0.0236155
0.0235051
0.0233768
0.0232481
0.0231574
0.018687
0.0186701
0.0186344
0.0185768
0.0184919
0.018373
0.0182133
0.0180102
0.0177793
0.0175861
0.0145285
0.0145089
0.0144672
0.0143985
0.0142946
0.0141429
0.0139254
0.0136189
0.0132057
0.0127431
1.44743
1.44743
1.44743
1.44743
1.44743
1.44743
1.44743
1.44743
1.44743
1.44743
1.34271
1.34271
1.34271
1.34271
1.34271
1.34271
1.34271
1.34271
1.34271
1.34271
1.23919
1.23919
1.23919
1.23919
1.23919
1.23919
1.23919
1.23919
1.23919
1.23919
1.13766
1.13766
1.13765
1.13765
1.13765
1.13765
1.13765
1.13765
1.13765
1.13765
1.03883
1.03883
1.03883
1.03883
1.03883
1.03883
1.03883
1.03883
1.03883
1.03883
0.943395
0.943395
0.943394
0.943394
0.943394
0.943394
0.943394
0.943394
0.943394
0.943394
0.851931
0.851931
0.851931
0.85193
0.85193
0.85193
0.85193
0.85193
0.851931
0.85193
0.764953
0.764953
0.764952
0.764952
0.764951
0.764951
0.764951
0.764952
0.764952
0.764952
0.682875
0.682875
0.682875
0.682874
0.682874
0.682874
0.682874
0.682874
0.682874
0.682874
0.606018
0.606018
0.606017
0.606017
0.606017
0.606017
0.606017
0.606017
0.606017
0.606017
0.534602
0.534602
0.534601
0.534601
0.534601
0.5346
0.534601
0.534601
0.534601
0.534601
0.468751
0.468751
0.46875
0.46875
0.468749
0.468749
0.468749
0.46875
0.46875
0.46875
0.408497
0.408496
0.408496
0.408495
0.408495
0.408495
0.408495
0.408495
0.408495
0.408495
0.353785
0.353785
0.353785
0.353784
0.353784
0.353783
0.353783
0.353784
0.353784
0.353784
0.304487
0.304487
0.304486
0.304486
0.304485
0.304485
0.304485
0.304485
0.304485
0.304485
0.260406
0.260405
0.260405
0.260404
0.260403
0.260403
0.260402
0.260402
0.260402
0.260402
0.221289
0.221289
0.221288
0.221287
0.221286
0.221285
0.221284
0.221284
0.221284
0.221283
0.186842
0.186842
0.186841
0.186839
0.186838
0.186837
0.186835
0.186835
0.186834
0.186834
0.156738
0.156738
0.156736
0.156734
0.156732
0.15673
0.156728
0.156726
0.156725
0.156724
0.130628
0.130628
0.130625
0.130623
0.130619
0.130616
0.130613
0.13061
0.130608
0.130607
0.108154
0.108153
0.10815
0.108145
0.108141
0.108135
0.10813
0.108126
0.108122
0.10812
0.0889542
0.0889521
0.0889478
0.0889418
0.0889344
0.0889263
0.088918
0.0889106
0.0889051
0.0889019
0.0726748
0.0726718
0.0726656
0.0726568
0.0726458
0.0726333
0.0726204
0.0726085
0.0725993
0.0725941
0.0589748
0.0589704
0.0589617
0.0589489
0.0589326
0.0589136
0.0588934
0.0588743
0.0588592
0.0588505
0.0475311
0.047525
0.0475127
0.0474945
0.0474706
0.047442
0.0474107
0.04738
0.0473548
0.0473402
0.038043
0.0380347
0.0380179
0.0379924
0.0379581
0.0379156
0.0378673
0.0378179
0.0377754
0.0377498
0.0302348
0.0302239
0.0302014
0.0301666
0.0301185
0.0300567
0.0299829
0.0299032
0.0298301
0.0297835
0.023857
0.0238431
0.0238142
0.0237684
0.023703
0.0236155
0.0235051
0.0233768
0.0232481
0.0231574
0.018687
0.01867
0.0186344
0.0185768
0.0184919
0.018373
0.0182133
0.0180102
0.0177793
0.0175861
0.0145285
0.0145089
0.0144672
0.0143985
0.0142946
0.0141429
0.0139253
0.0136188
0.0132057
0.0127431
1.44743
1.44743
1.44743
1.44743
1.44743
1.44743
1.44743
1.44743
1.44743
1.44743
1.34271
1.34271
1.34271
1.34271
1.34271
1.34271
1.34271
1.34271
1.34271
1.34271
1.23919
1.23919
1.23919
1.23919
1.23919
1.23919
1.23919
1.23919
1.23919
1.23919
1.13765
1.13765
1.13765
1.13765
1.13765
1.13765
1.13765
1.13765
1.13765
1.13765
1.03883
1.03883
1.03883
1.03883
1.03883
1.03883
1.03883
1.03883
1.03883
1.03883
0.943394
0.943394
0.943394
0.943393
0.943393
0.943393
0.943393
0.943393
0.943394
0.943394
0.851931
0.851931
0.85193
0.85193
0.85193
0.85193
0.85193
0.85193
0.85193
0.85193
0.764952
0.764952
0.764951
0.764951
0.764951
0.764951
0.764951
0.764951
0.764952
0.764952
0.682875
0.682875
0.682874
0.682873
0.682873
0.682873
0.682873
0.682874
0.682874
0.682874
0.606017
0.606017
0.606017
0.606016
0.606016
0.606016
0.606016
0.606017
0.606017
0.606017
0.534601
0.534601
0.534601
0.5346
0.5346
0.5346
0.5346
0.5346
0.534601
0.534601
0.46875
0.46875
0.46875
0.468749
0.468749
0.468749
0.468749
0.468749
0.46875
0.46875
0.408496
0.408496
0.408495
0.408495
0.408494
0.408494
0.408494
0.408495
0.408495
0.408495
0.353785
0.353785
0.353784
0.353783
0.353783
0.353783
0.353783
0.353783
0.353784
0.353784
0.304487
0.304487
0.304486
0.304485
0.304485
0.304484
0.304484
0.304484
0.304485
0.304485
0.260405
0.260405
0.260404
0.260403
0.260403
0.260402
0.260402
0.260402
0.260402
0.260402
0.221289
0.221288
0.221287
0.221286
0.221285
0.221285
0.221284
0.221284
0.221284
0.221283
0.186842
0.186842
0.18684
0.186839
0.186838
0.186836
0.186835
0.186834
0.186834
0.186833
0.156738
0.156737
0.156736
0.156734
0.156732
0.15673
0.156728
0.156726
0.156725
0.156724
0.130628
0.130627
0.130625
0.130622
0.130619
0.130616
0.130612
0.13061
0.130608
0.130607
0.108154
0.108152
0.108149
0.108145
0.10814
0.108135
0.10813
0.108125
0.108122
0.10812
0.0889539
0.0889518
0.0889475
0.0889415
0.0889342
0.088926
0.0889178
0.0889104
0.088905
0.0889018
0.0726746
0.0726716
0.0726654
0.0726566
0.0726456
0.0726331
0.0726202
0.0726083
0.0725992
0.0725941
0.0589746
0.0589702
0.0589615
0.0589487
0.0589324
0.0589134
0.0588932
0.0588742
0.0588591
0.0588505
0.0475309
0.0475248
0.0475126
0.0474943
0.0474705
0.0474419
0.0474105
0.0473799
0.0473547
0.0473401
0.0380429
0.0380346
0.0380178
0.0379922
0.0379579
0.0379155
0.0378672
0.0378178
0.0377753
0.0377498
0.0302347
0.0302238
0.0302013
0.0301665
0.0301184
0.0300566
0.0299828
0.0299031
0.0298301
0.0297835
0.0238569
0.023843
0.0238141
0.0237683
0.0237029
0.0236154
0.023505
0.0233767
0.0232481
0.0231574
0.0186869
0.01867
0.0186343
0.0185767
0.0184918
0.0183729
0.0182132
0.0180101
0.0177793
0.0175861
0.0145285
0.0145088
0.0144671
0.0143985
0.0142945
0.0141428
0.0139253
0.0136188
0.0132057
0.0127431
1.44743
1.44743
1.44743
1.44743
1.44743
1.44743
1.44743
1.44743
1.44743
1.44743
1.34271
1.34271
1.34271
1.34271
1.34271
1.34271
1.34271
1.34271
1.34271
1.34271
1.23919
1.23919
1.23919
1.23919
1.23919
1.23919
1.23919
1.23919
1.23919
1.23919
1.13765
1.13765
1.13765
1.13765
1.13765
1.13765
1.13765
1.13765
1.13765
1.13765
1.03883
1.03883
1.03883
1.03883
1.03883
1.03883
1.03883
1.03883
1.03883
1.03883
0.943394
0.943394
0.943393
0.943393
0.943393
0.943393
0.943393
0.943393
0.943394
0.943394
0.85193
0.85193
0.85193
0.851929
0.851929
0.851929
0.851929
0.85193
0.85193
0.85193
0.764952
0.764952
0.764951
0.764951
0.76495
0.76495
0.764951
0.764951
0.764951
0.764952
0.682874
0.682874
0.682874
0.682873
0.682873
0.682873
0.682873
0.682873
0.682874
0.682874
0.606017
0.606017
0.606016
0.606016
0.606016
0.606016
0.606016
0.606016
0.606017
0.606017
0.534601
0.534601
0.5346
0.5346
0.5346
0.5346
0.5346
0.5346
0.534601
0.534601
0.46875
0.46875
0.468749
0.468749
0.468748
0.468748
0.468749
0.468749
0.46875
0.46875
0.408496
0.408495
0.408495
0.408494
0.408494
0.408494
0.408494
0.408494
0.408495
0.408495
0.353785
0.353784
0.353784
0.353783
0.353783
0.353783
0.353783
0.353783
0.353783
0.353784
0.304486
0.304486
0.304485
0.304485
0.304484
0.304484
0.304484
0.304484
0.304485
0.304485
0.260405
0.260405
0.260404
0.260403
0.260402
0.260402
0.260402
0.260402
0.260402
0.260402
0.221288
0.221288
0.221287
0.221286
0.221285
0.221284
0.221284
0.221283
0.221283
0.221283
0.186842
0.186841
0.18684
0.186839
0.186837
0.186836
0.186835
0.186834
0.186834
0.186833
0.156738
0.156737
0.156735
0.156734
0.156731
0.156729
0.156727
0.156726
0.156725
0.156724
0.130628
0.130627
0.130625
0.130622
0.130619
0.130615
0.130612
0.13061
0.130608
0.130607
0.108154
0.108152
0.108149
0.108145
0.10814
0.108135
0.10813
0.108125
0.108122
0.10812
0.0889538
0.0889517
0.0889473
0.0889413
0.088934
0.0889259
0.0889177
0.0889104
0.0889049
0.0889018
0.0726745
0.0726714
0.0726653
0.0726565
0.0726455
0.072633
0.0726201
0.0726083
0.0725992
0.0725941
0.0589745
0.0589701
0.0589614
0.0589486
0.0589323
0.0589133
0.0588932
0.0588741
0.058859
0.0588505
0.0475308
0.0475247
0.0475125
0.0474942
0.0474704
0.0474418
0.0474105
0.0473798
0.0473547
0.0473401
0.0380428
0.0380345
0.0380177
0.0379922
0.0379579
0.0379154
0.0378671
0.0378177
0.0377753
0.0377498
0.0302346
0.0302237
0.0302012
0.0301665
0.0301183
0.0300565
0.0299828
0.0299031
0.02983
0.0297835
0.0238568
0.0238429
0.023814
0.0237682
0.0237029
0.0236154
0.023505
0.0233767
0.0232481
0.0231574
0.0186869
0.0186699
0.0186343
0.0185766
0.0184918
0.0183729
0.0182132
0.0180101
0.0177793
0.0175861
0.0145284
0.0145088
0.0144671
0.0143984
0.0142945
0.0141428
0.0139253
0.0136188
0.0132057
0.0127431
1.44743
1.44743
1.44743
1.44743
1.44743
1.44743
1.44743
1.44743
1.44743
1.44743
1.34271
1.34271
1.34271
1.34271
1.34271
1.34271
1.34271
1.34271
1.34271
1.34271
1.23919
1.23919
1.23919
1.23919
1.23919
1.23919
1.23919
1.23919
1.23919
1.23919
1.13765
1.13765
1.13765
1.13765
1.13765
1.13765
1.13765
1.13765
1.13765
1.13765
1.03883
1.03883
1.03883
1.03883
1.03883
1.03883
1.03883
1.03883
1.03883
1.03883
0.943394
0.943394
0.943393
0.943393
0.943393
0.943393
0.943393
0.943393
0.943394
0.943394
0.85193
0.85193
0.85193
0.851929
0.851929
0.851929
0.851929
0.85193
0.85193
0.85193
0.764952
0.764951
0.764951
0.76495
0.76495
0.76495
0.76495
0.764951
0.764951
0.764951
0.682874
0.682874
0.682873
0.682873
0.682873
0.682873
0.682873
0.682873
0.682874
0.682874
0.606017
0.606017
0.606016
0.606016
0.606016
0.606016
0.606016
0.606016
0.606017
0.606017
0.534601
0.534601
0.5346
0.5346
0.534599
0.534599
0.5346
0.5346
0.534601
0.534601
0.46875
0.46875
0.468749
0.468749
0.468748
0.468748
0.468748
0.468749
0.46875
0.46875
0.408495
0.408495
0.408495
0.408494
0.408494
0.408494
0.408494
0.408494
0.408495
0.408495
0.353784
0.353784
0.353783
0.353783
0.353783
0.353783
0.353783
0.353783
0.353783
0.353784
0.304486
0.304486
0.304485
0.304485
0.304484
0.304484
0.304484
0.304484
0.304485
0.304485
0.260405
0.260405
0.260404
0.260403
0.260402
0.260402
0.260402
0.260402
0.260402
0.260402
0.221288
0.221288
0.221287
0.221286
0.221285
0.221284
0.221284
0.221283
0.221284
0.221283
0.186842
0.186841
0.18684
0.186839
0.186837
0.186836
0.186835
0.186834
0.186834
0.186833
0.156738
0.156737
0.156735
0.156733
0.156731
0.156729
0.156727
0.156726
0.156725
0.156724
0.130628
0.130627
0.130625
0.130622
0.130619
0.130615
0.130612
0.13061
0.130608
0.130607
0.108153
0.108152
0.108149
0.108145
0.10814
0.108135
0.10813
0.108125
0.108122
0.10812
0.0889537
0.0889516
0.0889473
0.0889413
0.088934
0.0889259
0.0889177
0.0889104
0.088905
0.0889019
0.0726744
0.0726714
0.0726652
0.0726565
0.0726455
0.072633
0.0726201
0.0726083
0.0725992
0.0725941
0.0589744
0.0589701
0.0589613
0.0589486
0.0589323
0.0589133
0.0588932
0.0588742
0.0588591
0.0588505
0.0475308
0.0475247
0.0475124
0.0474942
0.0474704
0.0474418
0.0474105
0.0473799
0.0473548
0.0473402
0.0380428
0.0380345
0.0380177
0.0379922
0.0379579
0.0379154
0.0378671
0.0378178
0.0377753
0.0377499
0.0302346
0.0302237
0.0302012
0.0301664
0.0301183
0.0300565
0.0299828
0.0299031
0.0298301
0.0297835
0.0238568
0.0238429
0.023814
0.0237682
0.0237029
0.0236154
0.023505
0.0233767
0.0232481
0.0231575
0.0186869
0.0186699
0.0186343
0.0185766
0.0184918
0.0183729
0.0182132
0.0180101
0.0177793
0.0175861
0.0145284
0.0145088
0.0144671
0.0143984
0.0142945
0.0141428
0.0139253
0.0136188
0.0132057
0.0127431
1.44743
1.44743
1.44743
1.44743
1.44743
1.44743
1.44743
1.44743
1.44743
1.44743
1.34271
1.34271
1.34271
1.34271
1.34271
1.34271
1.34271
1.34271
1.34271
1.34271
1.23919
1.23919
1.23919
1.23919
1.23919
1.23919
1.23919
1.23919
1.23919
1.23919
1.13765
1.13765
1.13765
1.13765
1.13765
1.13765
1.13765
1.13765
1.13765
1.13765
1.03883
1.03883
1.03883
1.03883
1.03883
1.03883
1.03883
1.03883
1.03883
1.03883
0.943394
0.943394
0.943393
0.943393
0.943393
0.943393
0.943393
0.943393
0.943394
0.943394
0.85193
0.85193
0.85193
0.851929
0.851929
0.851929
0.851929
0.85193
0.85193
0.85193
0.764951
0.764951
0.764951
0.76495
0.76495
0.76495
0.76495
0.764951
0.764951
0.764952
0.682874
0.682874
0.682873
0.682873
0.682873
0.682873
0.682873
0.682873
0.682874
0.682874
0.606017
0.606017
0.606016
0.606016
0.606016
0.606016
0.606016
0.606016
0.606017
0.606017
0.534601
0.534601
0.5346
0.5346
0.534599
0.534599
0.5346
0.5346
0.534601
0.534601
0.46875
0.46875
0.468749
0.468749
0.468748
0.468748
0.468749
0.468749
0.46875
0.46875
0.408495
0.408495
0.408495
0.408494
0.408494
0.408494
0.408494
0.408495
0.408495
0.408495
0.353784
0.353784
0.353784
0.353783
0.353783
0.353783
0.353783
0.353783
0.353784
0.353784
0.304486
0.304486
0.304485
0.304485
0.304484
0.304484
0.304484
0.304484
0.304485
0.304485
0.260405
0.260405
0.260404
0.260403
0.260402
0.260402
0.260402
0.260402
0.260402
0.260402
0.221288
0.221288
0.221287
0.221286
0.221285
0.221284
0.221284
0.221284
0.221284
0.221284
0.186842
0.186841
0.18684
0.186839
0.186837
0.186836
0.186835
0.186834
0.186834
0.186834
0.156738
0.156737
0.156735
0.156734
0.156732
0.156729
0.156727
0.156726
0.156725
0.156725
0.130628
0.130627
0.130625
0.130622
0.130619
0.130616
0.130612
0.13061
0.130608
0.130607
0.108154
0.108152
0.108149
0.108145
0.10814
0.108135
0.10813
0.108125
0.108122
0.10812
0.0889538
0.0889517
0.0889474
0.0889414
0.0889341
0.088926
0.0889178
0.0889105
0.0889051
0.088902
0.0726745
0.0726714
0.0726653
0.0726565
0.0726456
0.0726331
0.0726202
0.0726084
0.0725994
0.0725942
0.0589745
0.0589701
0.0589614
0.0589487
0.0589324
0.0589134
0.0588933
0.0588743
0.0588592
0.0588506
0.0475308
0.0475248
0.0475125
0.0474943
0.0474704
0.0474419
0.0474106
0.04738
0.0473549
0.0473403
0.0380428
0.0380345
0.0380177
0.0379922
0.0379579
0.0379155
0.0378672
0.0378179
0.0377754
0.03775
0.0302346
0.0302237
0.0302013
0.0301665
0.0301184
0.0300566
0.0299829
0.0299032
0.0298302
0.0297836
0.0238568
0.023843
0.0238141
0.0237683
0.0237029
0.0236154
0.0235051
0.0233768
0.0232482
0.0231575
0.0186869
0.0186699
0.0186343
0.0185767
0.0184918
0.018373
0.0182132
0.0180102
0.0177793
0.0175862
0.0145285
0.0145088
0.0144671
0.0143985
0.0142945
0.0141428
0.0139253
0.0136189
0.0132058
0.0127432
1.44743
1.44743
1.44743
1.44743
1.44743
1.44743
1.44743
1.44743
1.44743
1.44743
1.34271
1.34271
1.34271
1.34271
1.34271
1.34271
1.34271
1.34271
1.34271
1.34271
1.23919
1.23919
1.23919
1.23919
1.23919
1.23919
1.23919
1.23919
1.23919
1.23919
1.13765
1.13765
1.13765
1.13765
1.13765
1.13765
1.13765
1.13765
1.13765
1.13765
1.03883
1.03883
1.03883
1.03883
1.03883
1.03883
1.03883
1.03883
1.03883
1.03883
0.943394
0.943394
0.943393
0.943393
0.943393
0.943393
0.943393
0.943393
0.943394
0.943394
0.85193
0.85193
0.85193
0.851929
0.851929
0.851929
0.851929
0.85193
0.85193
0.85193
0.764952
0.764951
0.764951
0.764951
0.76495
0.764951
0.764951
0.764951
0.764952
0.764952
0.682874
0.682874
0.682873
0.682873
0.682873
0.682873
0.682873
0.682874
0.682874
0.682874
0.606017
0.606017
0.606016
0.606016
0.606016
0.606016
0.606016
0.606017
0.606017
0.606017
0.534601
0.534601
0.5346
0.5346
0.5346
0.5346
0.5346
0.534601
0.534601
0.534601
0.46875
0.46875
0.468749
0.468749
0.468749
0.468749
0.468749
0.468749
0.46875
0.46875
0.408496
0.408496
0.408495
0.408495
0.408494
0.408494
0.408494
0.408495
0.408496
0.408496
0.353785
0.353784
0.353784
0.353783
0.353783
0.353783
0.353783
0.353783
0.353784
0.353784
0.304486
0.304486
0.304486
0.304485
0.304485
0.304484
0.304484
0.304485
0.304485
0.304485
0.260405
0.260405
0.260404
0.260403
0.260403
0.260402
0.260402
0.260402
0.260402
0.260402
0.221289
0.221288
0.221287
0.221286
0.221286
0.221285
0.221284
0.221284
0.221284
0.221284
0.186842
0.186841
0.18684
0.186839
0.186838
0.186836
0.186835
0.186835
0.186834
0.186834
0.156738
0.156737
0.156736
0.156734
0.156732
0.15673
0.156728
0.156726
0.156725
0.156725
0.130628
0.130627
0.130625
0.130622
0.130619
0.130616
0.130613
0.13061
0.130608
0.130607
0.108154
0.108152
0.108149
0.108145
0.10814
0.108135
0.10813
0.108126
0.108122
0.108121
0.0889539
0.0889518
0.0889475
0.0889416
0.0889343
0.0889262
0.088918
0.0889108
0.0889053
0.0889022
0.0726746
0.0726716
0.0726654
0.0726567
0.0726458
0.0726333
0.0726204
0.0726086
0.0725996
0.0725944
0.0589746
0.0589703
0.0589615
0.0589488
0.0589325
0.0589136
0.0588935
0.0588745
0.0588594
0.0588508
0.0475309
0.0475249
0.0475126
0.0474944
0.0474706
0.047442
0.0474107
0.0473801
0.047355
0.0473405
0.0380429
0.0380346
0.0380178
0.0379923
0.0379581
0.0379156
0.0378674
0.037818
0.0377756
0.0377501
0.0302347
0.0302238
0.0302014
0.0301666
0.0301185
0.0300567
0.029983
0.0299033
0.0298303
0.0297837
0.0238569
0.023843
0.0238141
0.0237684
0.023703
0.0236155
0.0235052
0.0233769
0.0232483
0.0231576
0.0186869
0.01867
0.0186344
0.0185768
0.0184919
0.018373
0.0182133
0.0180103
0.0177794
0.0175862
0.0145285
0.0145089
0.0144672
0.0143985
0.0142946
0.0141429
0.0139254
0.0136189
0.0132058
0.0127432
1.44743
1.44743
1.44743
1.44743
1.44743
1.44743
1.44743
1.44743
1.44743
1.44743
1.34271
1.34271
1.34271
1.34271
1.34271
1.34271
1.34271
1.34271
1.34271
1.34271
1.23919
1.23919
1.23919
1.23919
1.23919
1.23919
1.23919
1.23919
1.23919
1.23919
1.13765
1.13765
1.13765
1.13765
1.13765
1.13765
1.13765
1.13765
1.13765
1.13765
1.03883
1.03883
1.03883
1.03883
1.03883
1.03883
1.03883
1.03883
1.03883
1.03883
0.943394
0.943394
0.943393
0.943393
0.943393
0.943393
0.943393
0.943394
0.943394
0.943394
0.85193
0.85193
0.85193
0.85193
0.85193
0.85193
0.85193
0.85193
0.851931
0.851931
0.764952
0.764952
0.764951
0.764951
0.764951
0.764951
0.764951
0.764952
0.764952
0.764952
0.682874
0.682874
0.682874
0.682873
0.682873
0.682873
0.682874
0.682874
0.682875
0.682875
0.606017
0.606017
0.606017
0.606016
0.606016
0.606016
0.606017
0.606017
0.606018
0.606018
0.534601
0.534601
0.534601
0.5346
0.5346
0.5346
0.534601
0.534601
0.534602
0.534602
0.46875
0.46875
0.46875
0.468749
0.468749
0.468749
0.468749
0.46875
0.468751
0.468751
0.408496
0.408496
0.408495
0.408495
0.408495
0.408495
0.408495
0.408495
0.408496
0.408496
0.353785
0.353785
0.353784
0.353784
0.353784
0.353783
0.353784
0.353784
0.353785
0.353785
0.304487
0.304487
0.304486
0.304486
0.304485
0.304485
0.304485
0.304485
0.304486
0.304486
0.260405
0.260405
0.260404
0.260404
0.260403
0.260403
0.260403
0.260403
0.260403
0.260403
0.221289
0.221289
0.221288
0.221287
0.221286
0.221285
0.221285
0.221284
0.221285
0.221284
0.186842
0.186842
0.186841
0.186839
0.186838
0.186837
0.186836
0.186835
0.186835
0.186834
0.156738
0.156737
0.156736
0.156734
0.156732
0.15673
0.156728
0.156727
0.156726
0.156725
0.130628
0.130627
0.130625
0.130623
0.13062
0.130616
0.130613
0.13061
0.130609
0.130608
0.108154
0.108152
0.10815
0.108146
0.108141
0.108136
0.10813
0.108126
0.108123
0.108121
0.0889541
0.0889521
0.0889478
0.0889419
0.0889346
0.0889265
0.0889184
0.0889111
0.0889057
0.0889026
0.0726748
0.0726718
0.0726657
0.072657
0.0726461
0.0726336
0.0726208
0.0726089
0.0725999
0.0725947
0.0589748
0.0589705
0.0589618
0.0589491
0.0589328
0.0589139
0.0588937
0.0588747
0.0588597
0.0588511
0.0475311
0.047525
0.0475128
0.0474947
0.0474708
0.0474423
0.047411
0.0473804
0.0473553
0.0473407
0.038043
0.0380348
0.038018
0.0379925
0.0379583
0.0379158
0.0378676
0.0378182
0.0377758
0.0377503
0.0302348
0.0302239
0.0302015
0.0301668
0.0301187
0.0300569
0.0299832
0.0299035
0.0298305
0.0297839
0.023857
0.0238431
0.0238143
0.0237685
0.0237032
0.0236157
0.0235053
0.023377
0.0232485
0.0231578
0.018687
0.0186701
0.0186345
0.0185769
0.018492
0.0183732
0.0182134
0.0180104
0.0177795
0.0175864
0.0145286
0.0145089
0.0144673
0.0143986
0.0142947
0.014143
0.0139255
0.013619
0.0132059
0.0127433
1.44743
1.44743
1.44743
1.44743
1.44743
1.44743
1.44743
1.44743
1.44743
1.44743
1.34271
1.34271
1.34271
1.34271
1.34271
1.34271
1.34271
1.34271
1.34271
1.34271
1.23919
1.23919
1.23919
1.23919
1.23919
1.23919
1.23919
1.23919
1.23919
1.23919
1.13765
1.13765
1.13765
1.13765
1.13765
1.13765
1.13765
1.13765
1.13765
1.13765
1.03883
1.03883
1.03883
1.03883
1.03883
1.03883
1.03883
1.03883
1.03883
1.03883
0.943394
0.943394
0.943394
0.943394
0.943394
0.943394
0.943394
0.943394
0.943394
0.943394
0.85193
0.851931
0.85193
0.85193
0.85193
0.85193
0.85193
0.851931
0.851931
0.851931
0.764952
0.764952
0.764952
0.764951
0.764951
0.764951
0.764952
0.764952
0.764953
0.764953
0.682874
0.682875
0.682874
0.682874
0.682874
0.682874
0.682874
0.682875
0.682875
0.682875
0.606017
0.606018
0.606017
0.606017
0.606017
0.606017
0.606017
0.606018
0.606018
0.606018
0.534601
0.534602
0.534601
0.534601
0.534601
0.534601
0.534601
0.534602
0.534602
0.534602
0.46875
0.468751
0.46875
0.46875
0.46875
0.46875
0.46875
0.468751
0.468751
0.468751
0.408496
0.408496
0.408496
0.408496
0.408496
0.408496
0.408496
0.408496
0.408497
0.408497
0.353785
0.353785
0.353785
0.353784
0.353784
0.353784
0.353784
0.353785
0.353785
0.353785
0.304487
0.304487
0.304487
0.304486
0.304486
0.304486
0.304486
0.304486
0.304486
0.304486
0.260406
0.260406
0.260405
0.260404
0.260404
0.260404
0.260403
0.260403
0.260404
0.260403
0.221289
0.221289
0.221288
0.221287
0.221287
0.221286
0.221285
0.221285
0.221285
0.221285
0.186842
0.186842
0.186841
0.18684
0.186839
0.186838
0.186836
0.186836
0.186835
0.186835
0.156738
0.156738
0.156737
0.156735
0.156733
0.156731
0.156729
0.156727
0.156726
0.156726
0.130629
0.130628
0.130626
0.130623
0.13062
0.130617
0.130614
0.130611
0.130609
0.130608
0.108154
0.108153
0.10815
0.108146
0.108141
0.108136
0.108131
0.108126
0.108123
0.108121
0.0889543
0.0889524
0.0889482
0.0889423
0.0889351
0.088927
0.0889188
0.0889115
0.0889061
0.0889029
0.072675
0.0726721
0.072666
0.0726574
0.0726464
0.072634
0.0726211
0.0726093
0.0726002
0.072595
0.0589749
0.0589707
0.0589621
0.0589494
0.0589332
0.0589142
0.0588941
0.0588751
0.05886
0.0588514
0.0475312
0.0475253
0.0475131
0.0474949
0.0474711
0.0474426
0.0474113
0.0473807
0.0473555
0.0473409
0.0380432
0.038035
0.0380183
0.0379928
0.0379585
0.0379161
0.0378678
0.0378185
0.037776
0.0377505
0.0302349
0.0302241
0.0302017
0.030167
0.0301189
0.0300571
0.0299834
0.0299037
0.0298307
0.0297841
0.0238571
0.0238433
0.0238144
0.0237687
0.0237034
0.0236159
0.0235055
0.0233772
0.0232486
0.0231579
0.0186871
0.0186702
0.0186346
0.018577
0.0184922
0.0183733
0.0182136
0.0180106
0.0177797
0.0175865
0.0145286
0.014509
0.0144674
0.0143988
0.0142949
0.0141431
0.0139256
0.0136192
0.0132061
0.0127434
1.44743
1.44743
1.44743
1.44743
1.44743
1.44743
1.44743
1.44743
1.44743
1.44743
1.34271
1.34271
1.34271
1.34271
1.34271
1.34271
1.34271
1.34271
1.34271
1.34271
1.23919
1.23919
1.23919
1.23919
1.23919
1.23919
1.23919
1.23919
1.23919
1.23919
1.13765
1.13765
1.13765
1.13765
1.13765
1.13765
1.13765
1.13765
1.13765
1.13765
1.03883
1.03883
1.03883
1.03883
1.03883
1.03883
1.03883
1.03883
1.03883
1.03883
0.943394
0.943394
0.943394
0.943394
0.943394
0.943394
0.943394
0.943394
0.943395
0.943394
0.85193
0.851931
0.85193
0.85193
0.85193
0.85193
0.85193
0.851931
0.851931
0.851931
0.764952
0.764952
0.764952
0.764952
0.764952
0.764952
0.764952
0.764952
0.764953
0.764953
0.682874
0.682875
0.682874
0.682874
0.682874
0.682874
0.682874
0.682875
0.682875
0.682875
0.606017
0.606017
0.606017
0.606017
0.606017
0.606017
0.606017
0.606018
0.606018
0.606018
0.534601
0.534601
0.534601
0.534601
0.534601
0.534601
0.534601
0.534602
0.534602
0.534602
0.46875
0.46875
0.46875
0.46875
0.46875
0.46875
0.46875
0.468751
0.468751
0.468751
0.408496
0.408496
0.408496
0.408496
0.408496
0.408496
0.408496
0.408496
0.408497
0.408497
0.353785
0.353785
0.353785
0.353785
0.353784
0.353784
0.353785
0.353785
0.353785
0.353785
0.304487
0.304487
0.304487
0.304486
0.304486
0.304486
0.304486
0.304486
0.304486
0.304486
0.260406
0.260406
0.260405
0.260405
0.260404
0.260404
0.260403
0.260403
0.260404
0.260403
0.221289
0.221289
0.221288
0.221288
0.221287
0.221286
0.221286
0.221285
0.221285
0.221285
0.186842
0.186842
0.186841
0.18684
0.186839
0.186838
0.186837
0.186836
0.186835
0.186835
0.156738
0.156738
0.156737
0.156735
0.156733
0.156731
0.156729
0.156727
0.156726
0.156726
0.130629
0.130628
0.130626
0.130623
0.13062
0.130617
0.130614
0.130611
0.130609
0.130608
0.108154
0.108153
0.10815
0.108146
0.108141
0.108136
0.108131
0.108127
0.108123
0.108121
0.0889543
0.0889524
0.0889483
0.0889424
0.0889352
0.0889271
0.0889189
0.0889116
0.0889061
0.0889028
0.072675
0.0726721
0.0726661
0.0726574
0.0726465
0.0726341
0.0726212
0.0726094
0.0726003
0.0725949
0.0589749
0.0589707
0.0589621
0.0589495
0.0589332
0.0589143
0.0588942
0.0588751
0.05886
0.0588513
0.0475312
0.0475253
0.0475131
0.047495
0.0474712
0.0474427
0.0474114
0.0473807
0.0473556
0.0473408
0.0380432
0.038035
0.0380183
0.0379929
0.0379586
0.0379162
0.0378679
0.0378185
0.037776
0.0377504
0.0302349
0.0302241
0.0302018
0.030167
0.030119
0.0300572
0.0299835
0.0299038
0.0298307
0.029784
0.0238571
0.0238433
0.0238145
0.0237688
0.0237034
0.0236159
0.0235056
0.0233773
0.0232487
0.0231579
0.0186871
0.0186702
0.0186347
0.0185771
0.0184922
0.0183734
0.0182137
0.0180106
0.0177797
0.0175864
0.0145287
0.0145091
0.0144674
0.0143988
0.0142949
0.0141432
0.0139257
0.0136192
0.0132061
0.0127434
0.0112104
0.0111888
0.0111429
0.0110663
0.0109483
0.0107711
0.0105045
0.010093
0.00941563
0.00814521
0.0085845
0.00856225
0.00851464
0.00843517
0.00831238
0.00812759
0.00785012
0.00742848
0.00677467
0.0057487
0.00652399
0.00650226
0.00645593
0.00637897
0.00626112
0.00608644
0.00583106
0.00546066
0.00493094
0.00420296
0.00492091
0.00490081
0.00485819
0.00478807
0.00468235
0.00452921
0.00431276
0.00401368
0.00361371
0.00310846
0.00368438
0.00366665
0.00362933
0.00356867
0.00347885
0.00335196
0.00317845
0.00294863
0.00265645
0.00230643
0.00273863
0.00272364
0.00269233
0.00264211
0.0025691
0.00246843
0.00233484
0.00216403
0.00195497
0.00171304
0.00202127
0.00200907
0.00198377
0.00194372
0.00188654
0.00180947
0.00170998
0.00158658
0.00144015
0.00127499
0.00148153
0.00147192
0.00145216
0.00142126
0.00137792
0.00132081
0.00124903
0.00116269
0.00106353
0.000954988
0.00107862
0.00107128
0.00105629
0.00103316
0.00100129
0.000960275
0.00091023
0.000852318
0.000789224
0.000725174
0.000780123
0.000774665
0.00076361
0.000746766
0.000723985
0.00069539
0.000661701
0.000624743
0.000588371
0.000560727
0.0112104
0.0111888
0.0111429
0.0110663
0.0109483
0.0107711
0.0105045
0.0100929
0.00941564
0.00814522
0.00858451
0.00856224
0.00851463
0.00843516
0.00831237
0.00812758
0.00785011
0.00742847
0.00677467
0.0057487
0.006524
0.00650226
0.00645593
0.00637896
0.00626111
0.00608644
0.00583105
0.00546066
0.00493094
0.00420296
0.00492092
0.00490081
0.00485818
0.00478806
0.00468234
0.00452921
0.00431275
0.00401368
0.00361371
0.00310846
0.00368438
0.00366665
0.00362932
0.00356867
0.00347885
0.00335196
0.00317845
0.00294863
0.00265645
0.00230643
0.00273863
0.00272364
0.00269233
0.00264211
0.0025691
0.00246843
0.00233484
0.00216403
0.00195497
0.00171304
0.00202127
0.00200906
0.00198377
0.00194372
0.00188653
0.00180947
0.00170997
0.00158658
0.00144015
0.00127499
0.00148154
0.00147192
0.00145216
0.00142126
0.00137792
0.00132081
0.00124902
0.00116269
0.00106353
0.000954987
0.00107862
0.00107128
0.00105629
0.00103316
0.00100129