/*--------------------------------*- C++ -*----------------------------------*\
| =========                 |                                                 |
| \\      /  F ield         | OpenFOAM: The Open Source CFD Toolbox           |
|  \\    /   O peration     | Version:  v1812                                 |
|   \\  /    A nd           | Web:      www.OpenFOAM.com                      |
|    \\/     M anipulation  |                                                 |
\*---------------------------------------------------------------------------*/
FoamFile
{
    version     2.0;
    format      ascii;
    class       volScalarField;
    location    "75";
    object      T;
}
// * * * * * * * * * * * * * * * * * * * * * * * * * * * * * * * * * * * * * //

dimensions      [0 0 0 1 0 0 0];


internalField   nonuniform List<scalar> 
10000
(
1.45107
1.45107
1.45107
1.45107
1.45107
1.45107
1.45107
1.45107
1.45107
1.45107
1.35355
1.35355
1.35355
1.35355
1.35355
1.35355
1.35355
1.35355
1.35355
1.35355
1.257
1.257
1.257
1.257
1.257
1.257
1.257
1.257
1.257
1.257
1.16205
1.16205
1.16205
1.16205
1.16205
1.16205
1.16205
1.16205
1.16205
1.16205
1.06931
1.06931
1.06931
1.06931
1.06931
1.06931
1.06931
1.06931
1.06931
1.06931
0.979317
0.979317
0.979317
0.979316
0.979316
0.979316
0.979316
0.979316
0.979316
0.979316
0.892583
0.892583
0.892582
0.892582
0.892582
0.892582
0.892582
0.892582
0.892582
0.892582
0.809544
0.809544
0.809544
0.809543
0.809543
0.809543
0.809543
0.809543
0.809543
0.809543
0.730574
0.730574
0.730574
0.730573
0.730573
0.730573
0.730573
0.730573
0.730573
0.730573
0.655973
0.655973
0.655973
0.655972
0.655972
0.655972
0.655972
0.655972
0.655972
0.655972
0.585969
0.58597
0.585969
0.585969
0.585968
0.585968
0.585968
0.585968
0.585968
0.585968
0.520717
0.520717
0.520716
0.520715
0.520715
0.520715
0.520715
0.520715
0.520715
0.520715
0.460296
0.460296
0.460296
0.460295
0.460295
0.460294
0.460294
0.460294
0.460294
0.460294
0.404723
0.404723
0.404722
0.404721
0.40472
0.40472
0.404719
0.404719
0.404719
0.404718
0.353945
0.353945
0.353944
0.353943
0.353942
0.353941
0.35394
0.35394
0.35394
0.353939
0.307858
0.307858
0.307857
0.307855
0.307854
0.307852
0.307851
0.30785
0.307849
0.307849
0.266304
0.266304
0.266302
0.2663
0.266298
0.266296
0.266294
0.266292
0.266291
0.26629
0.229085
0.229084
0.229082
0.229079
0.229076
0.229072
0.229069
0.229066
0.229065
0.229063
0.195968
0.195966
0.195963
0.195959
0.195954
0.195949
0.195944
0.19594
0.195937
0.195935
0.166693
0.166691
0.166687
0.166681
0.166673
0.166665
0.166658
0.166651
0.166646
0.166644
0.140985
0.140982
0.140976
0.140967
0.140956
0.140944
0.140933
0.140923
0.140915
0.140911
0.118556
0.118552
0.118542
0.118529
0.118514
0.118496
0.118478
0.118463
0.118451
0.118444
0.0991144
0.0991079
0.099095
0.0990764
0.0990532
0.0990271
0.0990003
0.0989758
0.0989569
0.0989465
0.0823712
0.0823621
0.0823439
0.0823174
0.0822838
0.0822451
0.0822046
0.0821666
0.0821366
0.0821198
0.0680447
0.0680322
0.068007
0.0679699
0.0679217
0.0678649
0.0678036
0.0677444
0.0676963
0.0676688
0.055865
0.0558482
0.0558141
0.055763
0.0556952
0.0556127
0.0555205
0.0554278
0.0553492
0.0553026
0.0455774
0.0455555
0.0455107
0.045442
0.0453486
0.0452309
0.0450934
0.0449475
0.0448162
0.0447336
0.0369453
0.0369176
0.0368604
0.0367712
0.0366463
0.0364825
0.0362806
0.0360513
0.0358261
0.03567
0.0297509
0.0297173
0.0296475
0.0295362
0.0293758
0.0291565
0.0288692
0.0285132
0.0281181
0.0277944
0.0237967
0.023758
0.0236766
0.0235448
0.0233498
0.0230724
0.0226858
0.0221565
0.0214625
0.0207045
1.45107
1.45107
1.45107
1.45107
1.45107
1.45107
1.45107
1.45107
1.45107
1.45107
1.35355
1.35355
1.35355
1.35355
1.35355
1.35355
1.35355
1.35355
1.35355
1.35355
1.257
1.257
1.257
1.257
1.257
1.257
1.257
1.257
1.257
1.257
1.16205
1.16205
1.16205
1.16205
1.16205
1.16205
1.16205
1.16205
1.16205
1.16205
1.06931
1.06931
1.06931
1.06931
1.06931
1.06931
1.06931
1.06931
1.06931
1.06931
0.979317
0.979317
0.979316
0.979316
0.979316
0.979316
0.979316
0.979316
0.979316
0.979316
0.892583
0.892583
0.892582
0.892582
0.892582
0.892582
0.892582
0.892582
0.892582
0.892582
0.809544
0.809544
0.809544
0.809543
0.809543
0.809543
0.809543
0.809543
0.809543
0.809543
0.730574
0.730574
0.730573
0.730573
0.730573
0.730573
0.730573
0.730573
0.730573
0.730573
0.655973
0.655973
0.655973
0.655972
0.655972
0.655972
0.655972
0.655972
0.655972
0.655972
0.58597
0.58597
0.585969
0.585968
0.585968
0.585968
0.585968
0.585968
0.585968
0.585968
0.520717
0.520717
0.520716
0.520715
0.520715
0.520715
0.520715
0.520715
0.520715
0.520715
0.460297
0.460296
0.460296
0.460295
0.460294
0.460294
0.460294
0.460294
0.460294
0.460294
0.404723
0.404723
0.404722
0.404721
0.40472
0.40472
0.404719
0.404719
0.404719
0.404719
0.353946
0.353945
0.353944
0.353943
0.353942
0.353941
0.35394
0.35394
0.35394
0.353939
0.307858
0.307858
0.307857
0.307855
0.307854
0.307852
0.307851
0.30785
0.30785
0.307849
0.266305
0.266304
0.266302
0.2663
0.266298
0.266296
0.266294
0.266292
0.266291
0.26629
0.229085
0.229084
0.229082
0.229079
0.229076
0.229072
0.229069
0.229067
0.229065
0.229064
0.195968
0.195966
0.195963
0.195959
0.195954
0.195949
0.195944
0.19594
0.195937
0.195935
0.166693
0.166691
0.166687
0.16668
0.166673
0.166665
0.166658
0.166651
0.166647
0.166644
0.140985
0.140982
0.140976
0.140967
0.140956
0.140944
0.140933
0.140923
0.140915
0.140911
0.118556
0.118551
0.118542
0.118529
0.118514
0.118496
0.118478
0.118463
0.118451
0.118444
0.0991144
0.0991079
0.0990949
0.0990763
0.0990532
0.0990271
0.0990003
0.0989758
0.098957
0.0989466
0.0823712
0.0823621
0.0823438
0.0823174
0.0822838
0.0822451
0.0822046
0.0821666
0.0821367
0.0821199
0.0680447
0.0680322
0.068007
0.0679698
0.0679217
0.0678649
0.0678036
0.0677445
0.0676964
0.0676689
0.055865
0.0558482
0.0558141
0.0557629
0.0556952
0.0556127
0.0555205
0.0554278
0.0553493
0.0553027
0.0455775
0.0455555
0.0455106
0.045442
0.0453485
0.0452309
0.0450933
0.0449475
0.0448162
0.0447337
0.0369453
0.0369175
0.0368604
0.0367712
0.0366462
0.0364825
0.0362806
0.0360513
0.0358261
0.0356701
0.0297509
0.0297173
0.0296474
0.0295362
0.0293758
0.0291564
0.0288691
0.0285132
0.0281181
0.0277944
0.0237967
0.0237579
0.0236765
0.0235448
0.0233498
0.0230724
0.0226858
0.0221565
0.0214625
0.0207045
1.45107
1.45107
1.45107
1.45107
1.45107
1.45107
1.45107
1.45107
1.45107
1.45107
1.35355
1.35355
1.35355
1.35355
1.35355
1.35355
1.35355
1.35355
1.35355
1.35355
1.257
1.257
1.257
1.257
1.257
1.257
1.257
1.257
1.257
1.257
1.16205
1.16205
1.16205
1.16205
1.16205
1.16205
1.16205
1.16205
1.16205
1.16205
1.06931
1.06931
1.06931
1.06931
1.06931
1.06931
1.06931
1.06931
1.06931
1.06931
0.979317
0.979316
0.979316
0.979316
0.979316
0.979316
0.979316
0.979316
0.979316
0.979316
0.892582
0.892582
0.892582
0.892581
0.892581
0.892581
0.892581
0.892581
0.892582
0.892582
0.809544
0.809544
0.809543
0.809543
0.809543
0.809543
0.809543
0.809543
0.809543
0.809543
0.730574
0.730574
0.730573
0.730573
0.730572
0.730572
0.730572
0.730572
0.730573
0.730573
0.655973
0.655973
0.655972
0.655972
0.655971
0.655971
0.655971
0.655972
0.655972
0.655972
0.585969
0.585969
0.585968
0.585968
0.585968
0.585967
0.585967
0.585968
0.585968
0.585968
0.520716
0.520716
0.520715
0.520715
0.520714
0.520714
0.520714
0.520714
0.520715
0.520715
0.460296
0.460296
0.460295
0.460294
0.460294
0.460294
0.460293
0.460293
0.460294
0.460294
0.404722
0.404722
0.404721
0.40472
0.40472
0.404719
0.404719
0.404718
0.404719
0.404718
0.353945
0.353945
0.353944
0.353943
0.353942
0.353941
0.35394
0.35394
0.35394
0.353939
0.307858
0.307858
0.307856
0.307855
0.307853
0.307852
0.307851
0.30785
0.307849
0.307849
0.266304
0.266303
0.266302
0.2663
0.266297
0.266295
0.266293
0.266292
0.266291
0.26629
0.229085
0.229084
0.229081
0.229079
0.229075
0.229072
0.229069
0.229066
0.229065
0.229063
0.195967
0.195966
0.195963
0.195958
0.195954
0.195948
0.195944
0.195939
0.195937
0.195935
0.166693
0.166691
0.166686
0.16668
0.166673
0.166665
0.166658
0.166651
0.166646
0.166644
0.140985
0.140982
0.140975
0.140966
0.140956
0.140944
0.140932
0.140922
0.140915
0.140911
0.118556
0.118551
0.118542
0.118529
0.118513
0.118496
0.118478
0.118462
0.118451
0.118444
0.0991142
0.0991077
0.0990947
0.0990761
0.0990529
0.0990268
0.0990001
0.0989757
0.0989569
0.0989465
0.082371
0.0823619
0.0823436
0.0823171
0.0822836
0.0822449
0.0822044
0.0821664
0.0821366
0.0821199
0.0680445
0.068032
0.0680068
0.0679696
0.0679215
0.0678647
0.0678034
0.0677443
0.0676963
0.0676688
0.0558649
0.055848
0.0558139
0.0557628
0.055695
0.0556126
0.0555204
0.0554277
0.0553492
0.0553026
0.0455774
0.0455553
0.0455105
0.0454418
0.0453484
0.0452307
0.0450932
0.0449474
0.0448162
0.0447337
0.0369452
0.0369174
0.0368603
0.0367711
0.0366461
0.0364824
0.0362805
0.0360512
0.0358261
0.03567
0.0297508
0.0297172
0.0296473
0.0295361
0.0293757
0.0291563
0.0288691
0.0285131
0.0281181
0.0277944
0.0237967
0.0237579
0.0236765
0.0235447
0.0233497
0.0230724
0.0226858
0.0221565
0.0214625
0.0207045
1.45107
1.45107
1.45107
1.45107
1.45107
1.45107
1.45107
1.45107
1.45107
1.45107
1.35355
1.35355
1.35355
1.35355
1.35355
1.35355
1.35355
1.35355
1.35355
1.35355
1.257
1.257
1.257
1.257
1.257
1.257
1.257
1.257
1.257
1.257
1.16205
1.16205
1.16205
1.16205
1.16205
1.16205
1.16205
1.16205
1.16205
1.16205
1.06931
1.06931
1.06931
1.06931
1.06931
1.06931
1.06931
1.06931
1.06931
1.06931
0.979316
0.979316
0.979316
0.979315
0.979315
0.979315
0.979315
0.979316
0.979316
0.979316
0.892582
0.892582
0.892581
0.892581
0.892581
0.892581
0.892581
0.892581
0.892582
0.892582
0.809543
0.809543
0.809543
0.809543
0.809542
0.809542
0.809542
0.809543
0.809543
0.809543
0.730573
0.730573
0.730573
0.730572
0.730572
0.730572
0.730572
0.730572
0.730573
0.730573
0.655973
0.655972
0.655972
0.655971
0.655971
0.655971
0.655971
0.655971
0.655972
0.655972
0.585969
0.585969
0.585968
0.585968
0.585967
0.585967
0.585967
0.585967
0.585968
0.585968
0.520716
0.520716
0.520715
0.520715
0.520714
0.520714
0.520714
0.520714
0.520714
0.520714
0.460296
0.460296
0.460295
0.460294
0.460294
0.460293
0.460293
0.460293
0.460293
0.460293
0.404722
0.404722
0.404721
0.40472
0.404719
0.404719
0.404718
0.404718
0.404718
0.404718
0.353945
0.353945
0.353943
0.353942
0.353941
0.35394
0.35394
0.353939
0.353939
0.353939
0.307858
0.307857
0.307856
0.307854
0.307853
0.307852
0.30785
0.30785
0.307849
0.307849
0.266304
0.266303
0.266301
0.266299
0.266297
0.266295
0.266293
0.266292
0.266291
0.26629
0.229085
0.229084
0.229081
0.229078
0.229075
0.229072
0.229069
0.229066
0.229064
0.229063
0.195967
0.195966
0.195962
0.195958
0.195953
0.195948
0.195943
0.195939
0.195936
0.195935
0.166693
0.166691
0.166686
0.16668
0.166673
0.166665
0.166657
0.166651
0.166646
0.166644
0.140985
0.140982
0.140975
0.140966
0.140955
0.140944
0.140932
0.140922
0.140915
0.140911
0.118556
0.118551
0.118542
0.118529
0.118513
0.118496
0.118478
0.118462
0.118451
0.118444
0.0991141
0.0991075
0.0990945
0.0990759
0.0990528
0.0990267
0.099
0.0989756
0.0989569
0.0989465
0.0823709
0.0823617
0.0823435
0.082317
0.0822835
0.0822448
0.0822043
0.0821664
0.0821366
0.0821199
0.0680444
0.0680318
0.0680067
0.0679695
0.0679214
0.0678646
0.0678034
0.0677443
0.0676963
0.0676688
0.0558648
0.0558479
0.0558138
0.0557627
0.0556949
0.0556125
0.0555203
0.0554277
0.0553492
0.0553026
0.0455773
0.0455553
0.0455104
0.0454418
0.0453483
0.0452307
0.0450932
0.0449474
0.0448161
0.0447337
0.0369451
0.0369174
0.0368602
0.036771
0.036646
0.0364823
0.0362805
0.0360512
0.0358261
0.03567
0.0297508
0.0297172
0.0296473
0.029536
0.0293756
0.0291563
0.028869
0.0285131
0.0281181
0.0277944
0.0237966
0.0237578
0.0236764
0.0235446
0.0233497
0.0230723
0.0226857
0.0221564
0.0214625
0.0207045
1.45107
1.45107
1.45107
1.45107
1.45107
1.45107
1.45107
1.45107
1.45107
1.45107
1.35355
1.35355
1.35355
1.35355
1.35355
1.35355
1.35355
1.35355
1.35355
1.35355
1.257
1.257
1.257
1.257
1.257
1.257
1.257
1.257
1.257
1.257
1.16205
1.16205
1.16205
1.16205
1.16205
1.16205
1.16205
1.16205
1.16205
1.16205
1.06931
1.06931
1.06931
1.06931
1.06931
1.06931
1.06931
1.06931
1.06931
1.06931
0.979316
0.979316
0.979316
0.979315
0.979315
0.979315
0.979315
0.979315
0.979316
0.979316
0.892582
0.892582
0.892581
0.892581
0.892581
0.892581
0.892581
0.892581
0.892582
0.892582
0.809543
0.809543
0.809543
0.809542
0.809542
0.809542
0.809542
0.809543
0.809543
0.809543
0.730573
0.730573
0.730572
0.730572
0.730572
0.730572
0.730572
0.730572
0.730573
0.730573
0.655972
0.655972
0.655972
0.655971
0.655971
0.655971
0.655971
0.655971
0.655972
0.655972
0.585969
0.585968
0.585968
0.585967
0.585967
0.585967
0.585967
0.585967
0.585968
0.585968
0.520716
0.520716
0.520715
0.520714
0.520714
0.520714
0.520714
0.520714
0.520714
0.520714
0.460296
0.460295
0.460295
0.460294
0.460293
0.460293
0.460293
0.460293
0.460293
0.460293
0.404722
0.404722
0.404721
0.40472
0.404719
0.404719
0.404718
0.404718
0.404718
0.404718
0.353945
0.353944
0.353943
0.353942
0.353941
0.35394
0.35394
0.353939
0.353939
0.353939
0.307858
0.307857
0.307856
0.307854
0.307853
0.307851
0.30785
0.30785
0.307849
0.307849
0.266304
0.266303
0.266301
0.266299
0.266297
0.266295
0.266293
0.266292
0.266291
0.26629
0.229084
0.229083
0.229081
0.229078
0.229075
0.229072
0.229069
0.229066
0.229064
0.229063
0.195967
0.195965
0.195962
0.195958
0.195953
0.195948
0.195943
0.195939
0.195937
0.195935
0.166693
0.16669
0.166686
0.16668
0.166673
0.166665
0.166657
0.166651
0.166646
0.166644
0.140985
0.140981
0.140975
0.140966
0.140955
0.140944
0.140932
0.140922
0.140915
0.140911
0.118556
0.118551
0.118542
0.118529
0.118513
0.118496
0.118478
0.118462
0.118451
0.118444
0.099114
0.0991075
0.0990945
0.0990759
0.0990528
0.0990267
0.099
0.0989756
0.0989569
0.0989465
0.0823709
0.0823617
0.0823435
0.082317
0.0822834
0.0822448
0.0822043
0.0821664
0.0821366
0.0821199
0.0680444
0.0680318
0.0680066
0.0679695
0.0679214
0.0678646
0.0678034
0.0677443
0.0676963
0.0676689
0.0558647
0.0558479
0.0558138
0.0557627
0.0556949
0.0556125
0.0555203
0.0554277
0.0553492
0.0553027
0.0455773
0.0455552
0.0455104
0.0454417
0.0453483
0.0452307
0.0450932
0.0449474
0.0448162
0.0447337
0.0369451
0.0369173
0.0368602
0.036771
0.036646
0.0364823
0.0362805
0.0360512
0.0358261
0.0356701
0.0297507
0.0297171
0.0296473
0.029536
0.0293756
0.0291563
0.028869
0.0285131
0.0281181
0.0277944
0.0237966
0.0237578
0.0236764
0.0235446
0.0233497
0.0230723
0.0226857
0.0221565
0.0214625
0.0207045
1.45107
1.45107
1.45107
1.45107
1.45107
1.45107
1.45107
1.45107
1.45107
1.45107
1.35355
1.35355
1.35355
1.35355
1.35355
1.35355
1.35355
1.35355
1.35355
1.35355
1.257
1.257
1.257
1.257
1.257
1.257
1.257
1.257
1.257
1.257
1.16205
1.16205
1.16205
1.16205
1.16205
1.16205
1.16205
1.16205
1.16205
1.16205
1.06931
1.06931
1.06931
1.06931
1.06931
1.06931
1.06931
1.06931
1.06931
1.06931
0.979316
0.979316
0.979316
0.979315
0.979315
0.979315
0.979315
0.979315
0.979316
0.979316
0.892582
0.892582
0.892581
0.892581
0.892581
0.892581
0.892581
0.892581
0.892582
0.892582
0.809543
0.809543
0.809543
0.809542
0.809542
0.809542
0.809542
0.809543
0.809543
0.809543
0.730573
0.730573
0.730572
0.730572
0.730572
0.730572
0.730572
0.730572
0.730573
0.730573
0.655972
0.655972
0.655972
0.655971
0.655971
0.655971
0.655971
0.655971
0.655972
0.655972
0.585969
0.585968
0.585968
0.585967
0.585967
0.585967
0.585967
0.585967
0.585968
0.585968
0.520716
0.520716
0.520715
0.520714
0.520714
0.520714
0.520714
0.520714
0.520715
0.520715
0.460296
0.460295
0.460295
0.460294
0.460294
0.460293
0.460293
0.460293
0.460294
0.460294
0.404722
0.404722
0.404721
0.40472
0.404719
0.404719
0.404718
0.404718
0.404719
0.404719
0.353945
0.353944
0.353943
0.353942
0.353941
0.35394
0.35394
0.35394
0.35394
0.353939
0.307858
0.307857
0.307856
0.307854
0.307853
0.307852
0.30785
0.30785
0.307849
0.307849
0.266304
0.266303
0.266301
0.266299
0.266297
0.266295
0.266293
0.266292
0.266291
0.26629
0.229084
0.229083
0.229081
0.229078
0.229075
0.229072
0.229069
0.229066
0.229065
0.229064
0.195967
0.195966
0.195962
0.195958
0.195953
0.195948
0.195943
0.195939
0.195937
0.195935
0.166693
0.16669
0.166686
0.16668
0.166673
0.166665
0.166658
0.166651
0.166647
0.166644
0.140985
0.140982
0.140975
0.140966
0.140956
0.140944
0.140932
0.140922
0.140915
0.140911
0.118556
0.118551
0.118542
0.118529
0.118513
0.118496
0.118478
0.118463
0.118451
0.118444
0.0991141
0.0991075
0.0990945
0.099076
0.0990528
0.0990268
0.0990001
0.0989757
0.098957
0.0989467
0.0823709
0.0823617
0.0823435
0.0823171
0.0822835
0.0822449
0.0822044
0.0821665
0.0821367
0.08212
0.0680444
0.0680319
0.0680067
0.0679695
0.0679215
0.0678647
0.0678035
0.0677444
0.0676964
0.067669
0.0558648
0.0558479
0.0558139
0.0557627
0.055695
0.0556125
0.0555204
0.0554278
0.0553493
0.0553028
0.0455773
0.0455553
0.0455104
0.0454418
0.0453484
0.0452307
0.0450932
0.0449475
0.0448163
0.0447338
0.0369451
0.0369174
0.0368603
0.036771
0.0366461
0.0364824
0.0362806
0.0360513
0.0358262
0.0356702
0.0297508
0.0297172
0.0296473
0.0295361
0.0293756
0.0291564
0.0288691
0.0285132
0.0281181
0.0277945
0.0237966
0.0237578
0.0236764
0.0235447
0.0233497
0.0230724
0.0226858
0.0221565
0.0214626
0.0207046
1.45107
1.45107
1.45107
1.45107
1.45107
1.45107
1.45107
1.45107
1.45107
1.45107
1.35355
1.35355
1.35355
1.35355
1.35355
1.35355
1.35355
1.35355
1.35355
1.35355
1.257
1.257
1.257
1.257
1.257
1.257
1.257
1.257
1.257
1.257
1.16205
1.16205
1.16205
1.16205
1.16205
1.16205
1.16205
1.16205
1.16205
1.16205
1.06931
1.06931
1.06931
1.06931
1.06931
1.06931
1.06931
1.06931
1.06931
1.06931
0.979316
0.979316
0.979316
0.979315
0.979315
0.979315
0.979315
0.979316
0.979316
0.979316
0.892582
0.892582
0.892581
0.892581
0.892581
0.892581
0.892581
0.892581
0.892582
0.892582
0.809543
0.809543
0.809543
0.809542
0.809542
0.809542
0.809542
0.809543
0.809543
0.809543
0.730573
0.730573
0.730573
0.730572
0.730572
0.730572
0.730572
0.730572
0.730573
0.730573
0.655972
0.655972
0.655972
0.655971
0.655971
0.655971
0.655971
0.655972
0.655972
0.655972
0.585969
0.585969
0.585968
0.585968
0.585967
0.585967
0.585967
0.585968
0.585968
0.585968
0.520716
0.520716
0.520715
0.520715
0.520714
0.520714
0.520714
0.520714
0.520715
0.520715
0.460296
0.460296
0.460295
0.460294
0.460294
0.460293
0.460293
0.460294
0.460294
0.460294
0.404722
0.404722
0.404721
0.40472
0.40472
0.404719
0.404719
0.404719
0.404719
0.404719
0.353945
0.353945
0.353944
0.353943
0.353942
0.353941
0.35394
0.35394
0.35394
0.35394
0.307858
0.307857
0.307856
0.307855
0.307853
0.307852
0.307851
0.30785
0.30785
0.307849
0.266304
0.266303
0.266302
0.2663
0.266297
0.266295
0.266293
0.266292
0.266291
0.266291
0.229085
0.229084
0.229081
0.229079
0.229075
0.229072
0.229069
0.229066
0.229065
0.229064
0.195967
0.195966
0.195963
0.195958
0.195954
0.195949
0.195944
0.19594
0.195937
0.195935
0.166693
0.166691
0.166686
0.16668
0.166673
0.166665
0.166658
0.166651
0.166647
0.166644
0.140985
0.140982
0.140975
0.140966
0.140956
0.140944
0.140933
0.140923
0.140915
0.140911
0.118556
0.118551
0.118542
0.118529
0.118513
0.118496
0.118478
0.118463
0.118451
0.118444
0.0991142
0.0991076
0.0990947
0.0990761
0.099053
0.099027
0.0990003
0.0989759
0.0989573
0.0989469
0.082371
0.0823619
0.0823437
0.0823172
0.0822837
0.0822451
0.0822046
0.0821667
0.0821369
0.0821202
0.0680445
0.068032
0.0680068
0.0679697
0.0679216
0.0678649
0.0678036
0.0677446
0.0676966
0.0676691
0.0558649
0.055848
0.055814
0.0557629
0.0556951
0.0556127
0.0555205
0.0554279
0.0553495
0.0553029
0.0455774
0.0455554
0.0455105
0.0454419
0.0453485
0.0452309
0.0450934
0.0449476
0.0448164
0.0447339
0.0369452
0.0369175
0.0368604
0.0367711
0.0366462
0.0364825
0.0362807
0.0360514
0.0358263
0.0356703
0.0297508
0.0297172
0.0296474
0.0295362
0.0293757
0.0291565
0.0288692
0.0285133
0.0281182
0.0277946
0.0237967
0.0237579
0.0236765
0.0235448
0.0233498
0.0230725
0.0226859
0.0221566
0.0214626
0.0207047
1.45107
1.45107
1.45107
1.45107
1.45107
1.45107
1.45107
1.45107
1.45107
1.45107
1.35355
1.35355
1.35355
1.35355
1.35355
1.35355
1.35355
1.35355
1.35355
1.35355
1.257
1.257
1.257
1.257
1.257
1.257
1.257
1.257
1.257
1.257
1.16205
1.16205
1.16205
1.16205
1.16205
1.16205
1.16205
1.16205
1.16205
1.16205
1.06931
1.06931
1.06931
1.06931
1.06931
1.06931
1.06931
1.06931
1.06931
1.06931
0.979316
0.979316
0.979316
0.979316
0.979315
0.979315
0.979316
0.979316
0.979316
0.979316
0.892582
0.892582
0.892582
0.892581
0.892581
0.892581
0.892581
0.892582
0.892582
0.892582
0.809543
0.809543
0.809543
0.809543
0.809543
0.809543
0.809543
0.809543
0.809544
0.809544
0.730573
0.730573
0.730573
0.730573
0.730572
0.730572
0.730573
0.730573
0.730573
0.730573
0.655973
0.655973
0.655972
0.655972
0.655972
0.655972
0.655972
0.655972
0.655973
0.655973
0.585969
0.585969
0.585968
0.585968
0.585968
0.585968
0.585968
0.585968
0.585969
0.585969
0.520716
0.520716
0.520715
0.520715
0.520715
0.520715
0.520715
0.520715
0.520715
0.520715
0.460296
0.460296
0.460295
0.460295
0.460294
0.460294
0.460294
0.460294
0.460294
0.460294
0.404722
0.404722
0.404721
0.404721
0.40472
0.404719
0.404719
0.404719
0.404719
0.404719
0.353945
0.353945
0.353944
0.353943
0.353942
0.353941
0.353941
0.35394
0.35394
0.35394
0.307858
0.307858
0.307856
0.307855
0.307854
0.307852
0.307851
0.30785
0.30785
0.30785
0.266304
0.266303
0.266302
0.2663
0.266298
0.266296
0.266294
0.266292
0.266292
0.266291
0.229085
0.229084
0.229082
0.229079
0.229076
0.229072
0.229069
0.229067
0.229065
0.229064
0.195967
0.195966
0.195963
0.195959
0.195954
0.195949
0.195944
0.19594
0.195937
0.195936
0.166693
0.166691
0.166686
0.16668
0.166673
0.166666
0.166658
0.166652
0.166647
0.166645
0.140985
0.140982
0.140976
0.140967
0.140956
0.140944
0.140933
0.140923
0.140916
0.140911
0.118556
0.118551
0.118542
0.118529
0.118514
0.118496
0.118479
0.118463
0.118451
0.118445
0.0991143
0.0991079
0.0990949
0.0990764
0.0990533
0.0990273
0.0990006
0.0989762
0.0989575
0.0989472
0.0823712
0.0823621
0.0823439
0.0823175
0.082284
0.0822453
0.0822048
0.082167
0.0821372
0.0821205
0.0680447
0.0680321
0.068007
0.0679699
0.0679219
0.0678651
0.0678039
0.0677448
0.0676968
0.0676694
0.055865
0.0558482
0.0558142
0.0557631
0.0556953
0.0556129
0.0555208
0.0554282
0.0553497
0.0553031
0.0455775
0.0455555
0.0455107
0.0454421
0.0453487
0.0452311
0.0450936
0.0449478
0.0448166
0.0447341
0.0369453
0.0369176
0.0368605
0.0367713
0.0366464
0.0364827
0.0362809
0.0360516
0.0358264
0.0356704
0.0297509
0.0297174
0.0296475
0.0295363
0.0293759
0.0291566
0.0288693
0.0285134
0.0281184
0.0277947
0.0237968
0.023758
0.0236766
0.0235449
0.0233499
0.0230726
0.022686
0.0221567
0.0214628
0.0207048
1.45107
1.45107
1.45107
1.45107
1.45107
1.45107
1.45107
1.45107
1.45107
1.45107
1.35355
1.35355
1.35355
1.35355
1.35355
1.35355
1.35355
1.35355
1.35355
1.35355
1.257
1.257
1.257
1.257
1.257
1.257
1.257
1.257
1.257
1.257
1.16205
1.16205
1.16205
1.16205
1.16205
1.16205
1.16205
1.16205
1.16205
1.16205
1.06931
1.06931
1.06931
1.06931
1.06931
1.06931
1.06931
1.06931
1.06931
1.06931
0.979316
0.979316
0.979316
0.979316
0.979316
0.979316
0.979316
0.979316
0.979317
0.979317
0.892582
0.892582
0.892582
0.892582
0.892582
0.892582
0.892582
0.892582
0.892582
0.892582
0.809544
0.809544
0.809543
0.809543
0.809543
0.809543
0.809543
0.809544
0.809544
0.809544
0.730573
0.730574
0.730573
0.730573
0.730573
0.730573
0.730573
0.730573
0.730574
0.730574
0.655973
0.655973
0.655973
0.655972
0.655972
0.655972
0.655972
0.655973
0.655973
0.655973
0.585969
0.585969
0.585969
0.585969
0.585968
0.585968
0.585968
0.585969
0.585969
0.585969
0.520716
0.520716
0.520716
0.520716
0.520715
0.520715
0.520715
0.520715
0.520716
0.520716
0.460296
0.460296
0.460296
0.460295
0.460295
0.460295
0.460294
0.460295
0.460295
0.460295
0.404722
0.404722
0.404722
0.404721
0.404721
0.40472
0.40472
0.40472
0.40472
0.40472
0.353945
0.353945
0.353944
0.353944
0.353943
0.353942
0.353941
0.353941
0.353941
0.353941
0.307858
0.307858
0.307857
0.307856
0.307854
0.307853
0.307852
0.307851
0.307851
0.30785
0.266304
0.266304
0.266302
0.266301
0.266298
0.266296
0.266294
0.266293
0.266292
0.266291
0.229085
0.229084
0.229082
0.229079
0.229076
0.229073
0.22907
0.229067
0.229066
0.229065
0.195968
0.195966
0.195963
0.195959
0.195954
0.195949
0.195945
0.195941
0.195938
0.195936
0.166693
0.166691
0.166687
0.166681
0.166674
0.166666
0.166659
0.166652
0.166648
0.166645
0.140985
0.140982
0.140976
0.140967
0.140957
0.140945
0.140933
0.140923
0.140916
0.140912
0.118556
0.118552
0.118543
0.11853
0.118514
0.118497
0.118479
0.118463
0.118452
0.118445
0.0991145
0.0991081
0.0990953
0.0990768
0.0990537
0.0990277
0.099001
0.0989766
0.0989579
0.0989475
0.0823713
0.0823623
0.0823442
0.0823178
0.0822843
0.0822457
0.0822052
0.0821673
0.0821375
0.0821208
0.0680448
0.0680324
0.0680073
0.0679702
0.0679222
0.0678655
0.0678042
0.0677451
0.0676971
0.0676696
0.0558651
0.0558484
0.0558144
0.0557633
0.0556956
0.0556132
0.0555211
0.0554284
0.0553499
0.0553034
0.0455776
0.0455557
0.0455109
0.0454423
0.0453489
0.0452313
0.0450938
0.0449481
0.0448168
0.0447343
0.0369454
0.0369177
0.0368607
0.0367715
0.0366466
0.0364829
0.0362811
0.0360518
0.0358266
0.0356706
0.029751
0.0297175
0.0296477
0.0295365
0.0293761
0.0291568
0.0288695
0.0285136
0.0281186
0.0277948
0.0237969
0.0237581
0.0236768
0.023545
0.0233501
0.0230727
0.0226862
0.0221569
0.0214629
0.0207049
1.45107
1.45107
1.45107
1.45107
1.45107
1.45107
1.45107
1.45107
1.45107
1.45107
1.35355
1.35355
1.35355
1.35355
1.35355
1.35355
1.35355
1.35355
1.35355
1.35355
1.257
1.257
1.257
1.257
1.257
1.257
1.257
1.257
1.257
1.257
1.16205
1.16205
1.16205
1.16205
1.16205
1.16205
1.16205
1.16205
1.16205
1.16205
1.06931
1.06931
1.06931
1.06931
1.06931
1.06931
1.06931
1.06931
1.06931
1.06931
0.979316
0.979316
0.979316
0.979316
0.979316
0.979316
0.979316
0.979316
0.979317
0.979316
0.892582
0.892582
0.892582
0.892582
0.892582
0.892582
0.892582
0.892582
0.892582
0.892582
0.809544
0.809544
0.809543
0.809543
0.809543
0.809543
0.809543
0.809544
0.809544
0.809544
0.730573
0.730573
0.730573
0.730573
0.730573
0.730573
0.730573
0.730573
0.730574
0.730574
0.655973
0.655973
0.655973
0.655972
0.655972
0.655972
0.655972
0.655973
0.655973
0.655973
0.585969
0.585969
0.585969
0.585969
0.585968
0.585968
0.585969
0.585969
0.585969
0.585969
0.520716
0.520716
0.520716
0.520716
0.520715
0.520715
0.520715
0.520716
0.520716
0.520716
0.460296
0.460296
0.460296
0.460295
0.460295
0.460295
0.460295
0.460295
0.460295
0.460295
0.404722
0.404722
0.404722
0.404721
0.404721
0.40472
0.40472
0.40472
0.40472
0.40472
0.353945
0.353945
0.353945
0.353944
0.353943
0.353942
0.353941
0.353941
0.353941
0.35394
0.307858
0.307858
0.307857
0.307856
0.307854
0.307853
0.307852
0.307851
0.307851
0.30785
0.266304
0.266304
0.266302
0.266301
0.266299
0.266296
0.266295
0.266293
0.266292
0.266291
0.229085
0.229084
0.229082
0.22908
0.229076
0.229073
0.22907
0.229068
0.229066
0.229065
0.195968
0.195966
0.195963
0.195959
0.195955
0.19595
0.195945
0.195941
0.195938
0.195936
0.166693
0.166691
0.166687
0.166681
0.166674
0.166666
0.166659
0.166652
0.166648
0.166645
0.140985
0.140982
0.140976
0.140967
0.140957
0.140945
0.140934
0.140924
0.140916
0.140912
0.118556
0.118552
0.118543
0.11853
0.118514
0.118497
0.118479
0.118464
0.118452
0.118445
0.0991145
0.0991081
0.0990953
0.0990769
0.0990538
0.0990278
0.0990011
0.0989767
0.0989579
0.0989474
0.0823713
0.0823623
0.0823442
0.0823179
0.0822844
0.0822458
0.0822053
0.0821674
0.0821375
0.0821206
0.0680448
0.0680324
0.0680074
0.0679703
0.0679223
0.0678655
0.0678043
0.0677452
0.0676972
0.0676695
0.0558652
0.0558484
0.0558145
0.0557634
0.0556957
0.0556133
0.0555211
0.0554285
0.05535
0.0553033
0.0455776
0.0455557
0.045511
0.0454424
0.045349
0.0452314
0.0450939
0.0449481
0.0448168
0.0447342
0.0369454
0.0369177
0.0368607
0.0367716
0.0366466
0.0364829
0.0362811
0.0360518
0.0358267
0.0356705
0.029751
0.0297175
0.0296477
0.0295365
0.0293761
0.0291568
0.0288696
0.0285137
0.0281186
0.0277948
0.0237969
0.0237581
0.0236768
0.0235451
0.0233501
0.0230728
0.0226862
0.0221569
0.0214629
0.0207049
0.0189049
0.0188624
0.0187727
0.0186259
0.018405
0.018082
0.0176104
0.0169047
0.01578
0.0137334
0.0149165
0.0148724
0.0147791
0.0146262
0.0143952
0.0140566
0.0135623
0.0128321
0.0117301
0.0100403
0.01169
0.0116467
0.0115552
0.0114057
0.0111818
0.0108579
0.0103963
0.00974326
0.00883019
0.00759759
0.0091006
0.00906002
0.00897487
0.00883699
0.0086332
0.00834453
0.00794571
0.00740652
0.00669891
0.00581734
0.0070388
0.00700253
0.00692688
0.00680571
0.00662953
0.00638561
0.00605879
0.00563405
0.00510256
0.00447267
0.00540982
0.00537866
0.00531414
0.00521199
0.00506594
0.0048682
0.00461056
0.00428659
0.0038954
0.00344654
0.00413246
0.00410663
0.00405352
0.00397043
0.0038536
0.00369877
0.00350216
0.00326199
0.0029804
0.00266505
0.00313805
0.00311731
0.00307497
0.00300951
0.00291899
0.00280154
0.00265622
0.00248394
0.00228841
0.00207592
0.00236928
0.0023531
0.00232031
0.00227023
0.00220213
0.00211577
0.00201199
0.00189366
0.00176645
0.00163871
0.00177888
0.00176659
0.00174186
0.00170455
0.00165471
0.00159303
0.00152145
0.00144412
0.00136922
0.00131361
0.018905
0.0188624
0.0187727
0.0186259
0.018405
0.018082
0.0176104
0.0169047
0.01578
0.0137334
0.0149165
0.0148724
0.0147791
0.0146262
0.0143952
0.0140566
0.0135622
0.0128321
0.0117301
0.0100403
0.01169
0.0116466
0.0115551
0.0114057
0.0111818
0.0108579
0.0103963
0.00974325
0.00883019
0.00759759
0.00910061
0.00906002
0.00897486
0.00883698
0.00863319
0.00834452
0.0079457
0.00740652
0.00669891
0.00581734
0.00703881
0.00700252
0.00692687
0.00680571
0.00662953
0.00638561
0.00605879
0.00563405
0.00510255
0.00447267
0.00540983
0.00537866
0.00531413
0.00521198
0.00506593
0.00486819
0.00461055
0.00428659
0.0038954
0.00344654
0.00413246
0.00410662
0.00405351
0.00397043
0.0038536
0.00369876
0.00350215
0.00326199
0.0029804
0.00266505
0.00313805
0.00311731
0.00307497
0.00300951
0.00291899
0.00280154
0.00265622
0.00248394
0.00228841
0.00207592
0.00236928
0.0023531
0.00232031
0.00227023
0.00220213
0.00211576
0.00201199
0.00189366
0.00176645
0.00163871
0.00177888
0.00176659
0.00174186
0.00170455
0.00165471
0.00159303
0.00152145
0.00144412
0.00136922
0.00131361
0.0189049
0.0188624
0.0187726
0.0186258
0.0184049
0.0180819
0.0176103
0.0169046
0.0157799