/*--------------------------------*- C++ -*----------------------------------*\
| =========                 |                                                 |
| \\      /  F ield         | OpenFOAM: The Open Source CFD Toolbox           |
|  \\    /   O peration     | Version:  v1812                                 |
|   \\  /    A nd           | Web:      www.OpenFOAM.com                      |
|    \\/     M anipulation  |                                                 |
\*---------------------------------------------------------------------------*/
FoamFile
{
    version     2.0;
    format      ascii;
    class       volVectorField;
    location    "70";
    object      U;
}
// * * * * * * * * * * * * * * * * * * * * * * * * * * * * * * * * * * * * * //

dimensions      [0 1 -1 0 0 0 0];


internalField   nonuniform List<vector> 
1000
(
(0.92241904 0.034487138 0)
(0.87132478 0.058494326 0)
(0.78815632 0.056214867 0)
(0.69388546 0.045746925 0)
(0.61395329 0.034511072 0)
(0.55015835 0.024456425 0)
(0.49940118 0.01627996 0)
(0.45984787 0.010228079 0)
(0.42978249 0.0061009006 0)
(0.40723166 0.0034637222 0)
(0.39031167 0.0018587106 0)
(0.37749525 0.00095403457 0)
(0.36763673 0.00049354704 0)
(0.35987483 0.00029255395 0)
(0.35358861 0.00022989814 0)
(0.34834797 0.00023201576 0)
(0.3438621 0.0002580382 0)
(0.33993682 0.00028810152 0)
(0.33644291 0.00031422307 0)
(0.3332937 0.00033368394 0)
(0.3304299 0.00034530922 0)
(0.32780984 0.00034839048 0)
(0.3254033 0.00034305045 0)
(0.32318737 0.0003306839 0)
(0.32114368 0.00031372965 0)
(0.31925656 0.00029487312 0)
(0.31751213 0.00027622406 0)
(0.31589789 0.00025889968 0)
(0.3144027 0.00024310532 0)
(0.31301668 0.00022851183 0)
(0.31173109 0.00021466797 0)
(0.31053792 0.00020127575 0)
(0.30942963 0.00018828806 0)
(0.30839887 0.00017587433 0)
(0.3074384 0.00016432229 0)
(0.30654131 0.00015392918 0)
(0.30570123 0.00014491003 0)
(0.30491281 0.00013733455 0)
(0.30417209 0.0001310971 0)
(0.30347672 0.00012591806 0)
(0.30282609 0.00012138112 0)
(0.30222108 0.00011699048 0)
(0.30166368 0.00011225182 0)
(0.30115645 0.0001067433 0)
(0.3007018 0.00010018567 0)
(0.30030147 9.2472283e-05 0)
(0.29995601 8.3684494e-05 0)
(0.2996645 7.40599e-05 0)
(0.29942448 6.395596e-05 0)
(0.2992321 5.3782475e-05 0)
(0.29908238 4.3952882e-05 0)
(0.29896961 3.4824196e-05 0)
(0.29888779 2.6673112e-05 0)
(0.29883098 1.9667605e-05 0)
(0.29879363 1.3878762e-05 0)
(0.29877083 9.279172e-06 0)
(0.29875841 5.7800062e-06 0)
(0.29875301 3.2341921e-06 0)
(0.29875203 1.4861121e-06 0)
(0.29875358 3.5641324e-07 0)
(0.2987563 -2.9706165e-07 0)
(0.29875938 -6.3099514e-07 0)
(0.29876227 -7.317973e-07 0)
(0.29876478 -7.1882634e-07 0)
(0.29876673 -6.1278313e-07 0)
(0.29876824 -5.0904531e-07 0)
(0.29876924 -3.6759924e-07 0)
(0.29876999 -2.8578911e-07 0)
(0.29877035 -1.665401e-07 0)
(0.29877068 -1.3917015e-07 0)
(0.2987707 -4.2415862e-08 0)
(0.29877088 -7.0489801e-08 0)
(0.29877072 2.496269e-08 0)
(0.2987709 -5.5589993e-08 0)
(0.29877062 6.4989871e-08 0)
(0.2987709 -7.3275463e-08 0)
(0.29877051 1.006327e-07 0)
(0.29877094 -1.1254678e-07 0)
(0.29877037 1.4700028e-07 0)
(0.29877103 -1.7133138e-07 0)
(0.29877022 2.1430032e-07 0)
(0.29877117 -2.5208218e-07 0)
(0.29877002 3.1039021e-07 0)
(0.29877134 -3.5624705e-07 0)
(0.29876978 4.4094066e-07 0)
(0.29877148 -4.7376889e-07 0)
(0.29876948 6.0653488e-07 0)
(0.29877143 -5.5958612e-07 0)
(0.29876915 7.9593438e-07 0)
(0.29877069 -4.7711711e-07 0)
(0.29876875 9.7581044e-07 0)
(0.29876802 1.2615422e-07 0)
(0.29876799 1.0646776e-06 0)
(0.29876047 2.0165391e-06 0)
(0.29876571 6.478934e-07 0)
(0.29874202 5.9193221e-06 0)
(0.29876003 -3.9500171e-06 0)
(0.29871206 4.4671401e-06 0)
(0.29876374 -3.9244507e-05 0)
(0.29877424 -4.7791183e-05 0)
(1.003271 0.054817095 0)
(1.0472129 0.10100034 0)
(1.066112 0.11153422 0)
(1.0625934 0.10907372 0)
(1.0508095 0.099917531 0)
(1.0345 0.087034616 0)
(1.014893 0.072925785 0)
(0.99382464 0.059366958 0)
(0.97290675 0.047360653 0)
(0.95311357 0.037328721 0)
(0.93493771 0.029286148 0)
(0.91857704 0.023049925 0)
(0.90402653 0.018327081 0)
(0.89116446 0.014800752 0)
(0.87981354 0.012181145 0)
(0.86978269 0.010227212 0)
(0.86089011 0.0087518581 0)
(0.85297331 0.0076178876 0)
(0.84589167 0.0067285668 0)
(0.83952573 0.0060162413 0)
(0.83377543 0.0054324216 0)
(0.82855824 0.004941391 0)
(0.82380688 0.0045171573 0)
(0.81946651 0.0041420581 0)
(0.8154917 0.003805328 0)
(0.81184387 0.0035010257 0)
(0.80848958 0.0032257478 0)
(0.80539964 0.0029768602 0)
(0.80254856 0.0027516495 0)
(0.79991408 0.0025472782 0)
(0.79747655 0.0023611352 0)
(0.79521827 0.0021911692 0)
(0.79312299 0.0020359815 0)
(0.79117561 0.0018946463 0)
(0.78936231 0.0017663685 0)
(0.78767098 0.0016501128 0)
(0.78609175 0.0015443392 0)
(0.78461746 0.0014469067 0)
(0.78324399 0.0013551791 0)
(0.78197013 0.0012662895 0)
(0.78079706 0.0011775165 0)
(0.77972758 0.0010866642 0)
(0.77876494 0.00099239323 0)
(0.77791183 0.00089439609 0)
(0.77716924 0.0007934332 0)
(0.77653588 0.00069116917 0)
(0.77600772 0.00058992038 0)
(0.77557808 0.00049228027 0)
(0.77523795 0.00040079301 0)
(0.77497667 0.00031761241 0)
(0.77478259 0.00024432197 0)
(0.77464394 0.0001817861 0)
(0.77454934 0.00013018898 0)
(0.77448851 8.9071409e-05 0)
(0.77445247 5.7517109e-05 0)
(0.7744338 3.426489e-05 0)
(0.77442658 1.7929164e-05 0)
(0.77442641 7.0731986e-06 0)
(0.77442999 3.9906925e-07 0)
(0.77443527 -3.284872e-06 0)
(0.77444076 -4.8950308e-06 0)
(0.77444584 -5.2377614e-06 0)
(0.77444997 -4.7982001e-06 0)
(0.7744533 -4.0565727e-06 0)
(0.77445557 -3.1478442e-06 0)
(0.77445734 -2.3682634e-06 0)
(0.77445824 -1.6067338e-06 0)
(0.77445908 -1.120802e-06 0)
(0.77445918 -6.1773842e-07 0)
(0.77445964 -4.3745418e-07 0)
(0.77445931 -1.0915249e-07 0)
(0.77445975 -1.6073236e-07 0)
(0.77445914 1.1536959e-07 0)
(0.77445978 -1.126526e-07 0)
(0.77445888 2.2030261e-07 0)
(0.77445989 -1.7793884e-07 0)
(0.77445857 3.0739567e-07 0)
(0.77446011 -3.0562778e-07 0)
(0.7744582 4.325467e-07 0)
(0.77446048 -4.8770841e-07 0)
(0.77445772 6.3024471e-07 0)
(0.77446099 -7.3783513e-07 0)
(0.77445711 9.3119215e-07 0)
(0.77446161 -1.0732288e-06 0)
(0.77445641 1.3719262e-06 0)
(0.77446219 -1.4882168e-06 0)
(0.77445577 2.0004458e-06 0)
(0.7744623 -1.8922394e-06 0)
(0.77445562 2.8881076e-06 0)
(0.77446081 -1.9450894e-06 0)
(0.77445688 4.1813854e-06 0)
(0.77445501 -6.3997163e-07 0)
(0.77446119 6.2891672e-06 0)
(0.77443849 4.635174e-06 0)
(0.77447045 1.0315144e-05 0)
(0.77439528 1.9242778e-05 0)
(0.77448239 1.7433024e-05 0)
(0.77428166 4.5059224e-05 0)
(0.77448169 1.6587738e-05 0)
(0.774049 2.7151532e-05 0)
(1.0001503 0.028832875 0)
(1.0314833 0.059420846 0)
(1.0675718 0.071130954 0)
(1.0976325 0.075530444 0)
(1.122939 0.074771624 0)
(1.1433305 0.07007681 0)
(1.1583159 0.063250567 0)
(1.1684313 0.055736679 0)
(1.174634 0.048415228 0)
(1.1778354 0.041757764 0)
(1.1788253 0.035963507 0)
(1.1782609 0.031054772 0)
(1.1766565 0.026959524 0)
(1.1743954 0.023564913 0)
(1.1717521 0.020749575 0)
(1.168918 0.018401076 0)
(1.1660242 0.016424605 0)
(1.1631572 0.014745625 0)
(1.1603702 0.013307628 0)
(1.1576925 0.012067042 0)
(1.1551379 0.010988255 0)
(1.152712 0.010040963 0)
(1.1504174 0.009199925 0)
(1.1482552 0.0084456355 0)
(1.1462248 0.0077643232 0)
(1.1443231 0.0071467538 0)
(1.1425448 0.0065863948 0)
(1.140883 0.0060778331 0)
(1.13933 0.0056159782 0)
(1.1378787 0.005196002 0)
(1.136522 0.0048136167 0)
(1.1352535 0.0044652698 0)
(1.134067 0.0041480406 0)
(1.1329565 0.0038592492 0)
(1.1319169 0.0035959533 0)
(1.130944 0.0033545308 0)
(1.1300354 0.0031305182 0)
(1.1291901 0.0029187611 0)
(1.1284091 0.0027138647 0)
(1.1276943 0.0025108205 0)
(1.1270485 0.0023056822 0)
(1.1264742 0.0020961119 0)
(1.1259728 0.0018817089 0)
(1.1255444 0.0016640136 0)
(1.125187 0.0014462453 0)
(1.1248968 0.0012327653 0)
(1.124668 0.0010284568 0)
(1.1244936 0.00083803148 0)
(1.1243655 0.00066549649 0)
(1.1242757 0.00051370716 0)
(1.124216 0.00038421095 0)
(1.1241793 0.0002771878 0)
(1.1241591 0.00019165998 0)
(1.1241502 0.00012569344 0)
(1.1241485 7.6775191e-05 0)
(1.1241509 4.2054421e-05 0)
(1.1241552 1.8694061e-05 0)
(1.1241601 3.9900105e-06 0)
(1.1241646 -4.3787686e-06 0)
(1.1241685 -8.413639e-06 0)
(1.1241715 -9.6047368e-06 0)
(1.1241738 -9.1797811e-06 0)
(1.1241752 -7.8619988e-06 0)
(1.1241763 -6.3099451e-06 0)
(1.1241767 -4.6964068e-06 0)
(1.1241772 -3.3876418e-06 0)
(1.124177 -2.2076289e-06 0)
(1.1241773 -1.4682933e-06 0)
(1.1241768 -7.5576496e-07 0)
(1.1241773 -5.0454544e-07 0)
(1.1241766 -7.0248881e-08 0)
(1.1241774 -1.5456006e-07 0)
(1.1241762 2.0451967e-07 0)
(1.1241775 -1.2180747e-07 0)
(1.1241759 3.2550471e-07 0)
(1.1241778 -2.3650857e-07 0)
(1.1241754 4.3985665e-07 0)
(1.1241784 -4.3530497e-07 0)
(1.1241748 6.2803775e-07 0)
(1.1241791 -7.2273204e-07 0)
(1.1241739 9.494257e-07 0)
(1.1241802 -1.1443359e-06 0)
(1.1241727 1.4772628e-06 0)
(1.1241815 -1.7735419e-06 0)
(1.1241712 2.3289732e-06 0)
(1.124183 -2.6995539e-06 0)
(1.1241697 3.7054372e-06 0)
(1.1241843 -3.9852392e-06 0)
(1.1241687 5.9661574e-06 0)
(1.1241843 -5.5103939e-06 0)
(1.1241699 9.8124921e-06 0)
(1.1241804 -6.464677e-06 0)
(1.1241762 1.6803892e-05 0)
(1.1241669 -3.8043244e-06 0)
(1.1241926 3.0950237e-05 0)
(1.1241301 1.2406734e-05 0)
(1.1242206 6.3986213e-05 0)
(1.1240298 7.3877845e-05 0)
(1.1242301 0.00015288187 0)
(1.1237944 0.00027033178 0)
(0.99973847 0.01235542 0)
(1.0184395 0.030251937 0)
(1.0484404 0.03961204 0)
(1.0802132 0.044574106 0)
(1.1117125 0.046231206 0)
(1.1417318 0.045187279 0)
(1.1688992 0.0424386 0)
(1.1926146 0.038841977 0)
(1.2129153 0.034971957 0)
(1.2301007 0.031196868 0)
(1.2445731 0.027727771 0)
(1.2567634 0.024657136 0)
(1.2670757 0.022000688 0)
(1.2758583 0.01972933 0)
(1.2833979 0.017792324 0)
(1.2899271 0.016133288 0)
(1.2956328 0.014700343 0)
(1.3006628 0.01345106 0)
(1.3051304 0.0123528 0)
(1.3091202 0.011380147 0)
(1.312696 0.010511947 0)
(1.3159102 0.0097297929 0)
(1.3188086 0.0090181651 0)
(1.3214331 0.0083651701 0)
(1.3238201 0.0077627078 0)
(1.3259995 0.0072057031 0)
(1.3279949 0.0066908236 0)
(1.3298247 0.0062153666 0)
(1.331504 0.0057767071 0)
(1.3330463 0.0053722634 0)
(1.3344644 0.0049996651 0)
(1.3357702 0.0046568159 0)
(1.3369749 0.004341707 0)
(1.3380889 0.0040520368 0)
(1.3391216 0.0037848081 0)
(1.3400813 0.0035360882 0)
(1.3409751 0.0033010613 0)
(1.3418086 0.0030743937 0)
(1.342586 0.002850849 0)
(1.3433098 0.0026260031 0)
(1.343981 0.0023969076 0)
(1.3445991 0.0021625342 0)
(1.3451631 0.0019239315 0)
(1.3456713 0.0016840336 0)
(1.3461224 0.001447212 0)
(1.346516 0.0012186097 0)
(1.3468525 0.0010034543 0)
(1.3471341 0.00080637999 0)
(1.347364 0.00063095963 0)
(1.3475468 0.00047937218 0)
(1.347688 0.00035236291 0)
(1.3477935 0.00024930136 0)
(1.3478694 0.00016847571 0)
(1.3479217 0.00010735472 0)
(1.3479557 6.2987729e-05 0)
(1.3479762 3.2247783e-05 0)
(1.3479871 1.2160127e-05 0)
(1.3479917 -3.4274289e-09 0)
(1.3479922 -6.5161572e-06 0)
(1.3479907 -9.2779431e-06 0)
(1.3479879 -9.6695942e-06 0)
(1.3479851 -8.7917959e-06 0)
(1.3479822 -7.2756727e-06 0)
(1.3479801 -5.6752352e-06 0)
(1.3479781 -4.1180802e-06 0)
(1.347977 -2.8953682e-06 0)
(1.3479757 -1.8325391e-06 0)
(1.3479756 -1.1828341e-06 0)
(1.3479745 -5.7066941e-07 0)
(1.3479751 -3.7065382e-07 0)
(1.347974 -5.6895253e-09 0)
(1.3479752 -1.0216678e-07 0)
(1.3479736 2.0919424e-07 0)
(1.3479756 -1.0264114e-07 0)
(1.3479732 3.0785131e-07 0)
(1.3479762 -2.2797669e-07 0)
(1.3479726 4.2136151e-07 0)
(1.3479771 -4.3593938e-07 0)
(1.3479715 6.2748194e-07 0)
(1.3479785 -7.5125783e-07 0)
(1.34797 9.9872309e-07 0)
(1.3479804 -1.248921e-06 0)
(1.3479677 1.6431889e-06 0)
(1.3479832 -2.0565593e-06 0)
(1.3479643 2.7477847e-06 0)
(1.3479873 -3.3668786e-06 0)
(1.3479596 4.6386823e-06 0)
(1.3479932 -5.4326008e-06 0)
(1.3479531 7.8802534e-06 0)
(1.3480016 -8.4566923e-06 0)
(1.3479446 1.3457873e-05 0)
(1.3480136 -1.2094941e-05 0)
(1.3479345 2.320253e-05 0)
(1.3480315 -1.3603867e-05 0)
(1.3479247 4.1264295e-05 0)
(1.3480603 -9.2245547e-07 0)
(1.34792 8.1316016e-05 0)
(1.3481108 7.5019314e-05 0)
(1.3479192 0.00020062886 0)
(1.348149 0.00037779622 0)
(0.99995389 0.0035944827 0)
(1.0140006 0.0095669614 0)
(1.0391251 0.012868143 0)
(1.0682249 0.014559226 0)
(1.0987448 0.015147433 0)
(1.1293714 0.014873879 0)
(1.1586641 0.014054191 0)
(1.185715 0.012960684 0)
(1.2102169 0.011777889 0)
(1.2321778 0.010624471 0)
(1.2517647 0.0095677346 0)
(1.2692298 0.0086357036 0)
(1.2848496 0.0078308716 0)
(1.2988847 0.0071413574 0)
(1.3115643 0.0065489859 0)
(1.3230842 0.0060347667 0)
(1.3336092 0.0055822102 0)
(1.343274 0.0051787303 0)
(1.352183 0.0048154022 0)
(1.3604151 0.0044857523 0)
(1.3680307 0.0041845209 0)
(1.3750813 0.0039070565 0)
(1.381615 0.0036493883 0)
(1.387678 0.0034085447 0)
(1.3933131 0.0031826724 0)
(1.3985566 0.0029708049 0)
(1.4034388 0.0027724379 0)
(1.4079848 0.0025871623 0)
(1.412217 0.0024144942 0)
(1.4161563 0.002253884 0)
(1.4198237 0.0021047827 0)
(1.4232398 0.0019666546 0)
(1.4264249 0.0018388905 0)
(1.4293979 0.0017206518 0)
(1.432176 0.0016107228 0)
(1.4347734 0.0015074436 0)
(1.4372011 0.0014087759 0)
(1.4394663 0.0013124975 0)
(1.4415722 0.0012164946 0)
(1.4435186 0.0011190769 0)
(1.4453028 0.001019253 0)
(1.4469209 0.0009168931 0)
(1.448369 0.00081275816 0)
(1.4496449 0.00070837961 0)
(1.4507495 0.00060583369 0)
(1.4516871 0.00050743894 0)
(1.4524657 0.0004154566 0)
(1.4530973 0.00033181365 0)
(1.4535964 0.00025792149 0)
(1.4539797 0.00019456231 0)
(1.454265 0.00014189517 0)
(1.4544697 9.9504809e-05 0)
(1.4546103 6.6539297e-05 0)
(1.454702 4.1832055e-05 0)
(1.4547575 2.4070986e-05 0)
(1.4547876 1.1901424e-05 0)
(1.4548006 4.0569014e-06 0)
(1.4548031 -6.0483046e-07 0)
(1.4547995 -3.0241507e-06 0)
(1.4547933 -3.9756441e-06 0)
(1.4547861 -4.0166605e-06 0)
(1.4547796 -3.5844147e-06 0)
(1.4547737 -2.9266232e-06 0)
(1.4547695 -2.2570084e-06 0)
(1.4547658 -1.6209918e-06 0)
(1.4547639 -1.1285105e-06 0)
(1.4547618 -7.0592339e-07 0)
(1.4547614 -4.515267e-07 0)
(1.4547601 -2.1203537e-07 0)
(1.4547608 -1.386831e-07 0)
(1.4547595 4.682386e-09 0)
(1.454761 -4.0435506e-08 0)
(1.4547591 8.6524095e-08 0)
(1.4547616 -4.7036471e-08 0)
(1.4547587 1.2721493e-07 0)
(1.4547625 -1.0371115e-07 0)
(1.4547578 1.7950442e-07 0)
(1.4547637 -1.9775332e-07 0)
(1.4547564 2.7712011e-07 0)
(1.4547656 -3.4504521e-07 0)
(1.4547542 4.5545799e-07 0)
(1.4547685 -5.8541062e-07 0)
(1.4547507 7.7029326e-07 0)
(1.454773 -9.8667962e-07 0)
(1.4547451 1.3182304e-06 0)
(1.4547801 -1.6541597e-06 0)
(1.4547363 2.2647654e-06 0)
(1.4547917 -2.7330985e-06 0)
(1.4547225 3.8855131e-06 0)
(1.4548105 -4.3636277e-06 0)
(1.4547011 6.6318843e-06 0)
(1.4548419 -6.4554056e-06 0)
(1.4546685 1.1271475e-05 0)
(1.4548961 -7.8199965e-06 0)
(1.4546227 1.9467226e-05 0)
(1.4549952 -2.820171e-06 0)
(1.4545735 3.7193262e-05 0)
(1.4551947 3.2390235e-05 0)
(1.4545615 9.2155238e-05 0)
(1.4554975 0.00017872471 0)
(0.99995389 -0.0035944821 0)
(1.0140006 -0.0095669599 0)
(1.0391251 -0.012868144 0)
(1.0682249 -0.014559229 0)
(1.0987448 -0.015147436 0)
(1.1293714 -0.014873876 0)
(1.1586641 -0.014054181 0)
(1.185715 -0.012960669 0)
(1.2102169 -0.011777875 0)
(1.2321778 -0.010624464 0)
(1.2517647 -0.0095677372 0)
(1.2692298 -0.0086357139 0)
(1.2848496 -0.0078308833 0)
(1.2988847 -0.007141365 0)
(1.3115643 -0.0065489852 0)
(1.3230842 -0.0060347573 0)
(1.3336092 -0.0055821944 0)
(1.343274 -0.0051787104 0)
(1.352183 -0.004815381 0)
(1.3604151 -0.0044857311 0)
(1.3680307 -0.0041845015 0)
(1.3750813 -0.0039070412 0)
(1.381615 -0.0036493789 0)
(1.387678 -0.0034085441 0)
(1.393313 -0.0031826815 0)
(1.3985566 -0.0029708246 0)
(1.4034388 -0.0027724675 0)
(1.4079848 -0.0025872014 0)
(1.412217 -0.0024145419 0)
(1.4161563 -0.0022539398 0)
(1.4198236 -0.0021048454 0)
(1.4232398 -0.0019667236 0)
(1.4264249 -0.0018389641 0)
(1.4293979 -0.0017207286 0)
(1.432176 -0.0016108011 0)
(1.4347734 -0.0015075219 0)
(1.4372011 -0.0014088533 0)
(1.4394662 -0.0013125731 0)
(1.4415721 -0.0012165683 0)
(1.4435185 -0.0011191488 0)
(1.4453028 -0.0010193234 0)
(1.4469208 -0.00091696187 0)
(1.4483689 -0.0008128253 0)
(1.4496449 -0.00070844453 0)
(1.4507495 -0.00060589614 0)
(1.451687 -0.00050749797 0)
(1.4524657 -0.00041551242 0)
(1.4530972 -0.00033186543 0)
(1.4535963 -0.00025797038 0)
(1.4539797 -0.00019460785 0)
(1.4542649 -0.00014193941 0)
(1.4544696 -9.9547492e-05 0)
(1.4546103 -6.6582718e-05 0)
(1.454702 -4.1875566e-05 0)
(1.4547575 -2.4116499e-05 0)
(1.4547876 -1.1947627e-05 0)
(1.4548006 -4.1050735e-06 0)
(1.4548031 5.5671693e-07 0)
(1.4547995 2.9752539e-06 0)
(1.4547933 3.9283086e-06 0)
(1.4547861 3.97007e-06 0)
(1.4547796 3.5409257e-06 0)
(1.4547737 2.885107e-06 0)
(1.4547695 2.2195338e-06 0)
(1.4547658 1.586008e-06 0)
(1.4547639 1.0978524e-06 0)
(1.4547618 6.7768737e-07 0)
(1.4547614 4.2732577e-07 0)
(1.4547601 1.8976901e-07 0)
(1.4547608 1.1994077e-07 0)
(1.4547595 -2.2068474e-08 0)
(1.454761 2.5954919e-08 0)
(1.4547591 -1.0026091e-07 0)
(1.4547616 3.5661515e-08 0)
(1.4547587 -1.3835827e-07 0)
(1.4547625 9.4395813e-08 0)
(1.4547578 -1.8908415e-07 0)
(1.4547637 1.8958052e-07 0)
(1.4547564 -2.8592264e-07 0)
(1.4547656 3.3728854e-07 0)
(1.4547542 -4.6411707e-07 0)
(1.4547685 5.7766577e-07 0)
(1.4547506 -7.7890121e-07 0)
(1.454773 9.7916093e-07 0)
(1.4547451 -1.3262594e-06 0)
(1.4547801 1.6476829e-06 0)
(1.4547363 -2.2714163e-06 0)
(1.4547917 2.7280892e-06 0)
(1.4547225 -3.8909395e-06 0)
(1.4548105 4.359239e-06 0)
(1.4547011 -6.6373878e-06 0)
(1.4548419 6.4498679e-06 0)
(1.4546685 -1.1278968e-05 0)
(1.4548961 7.8121112e-06 0)
(1.4546227 -1.9476578e-05 0)
(1.4549952 2.8119816e-06 0)
(1.4545735 -3.7199873e-05 0)
(1.4551947 -3.239427e-05 0)
(1.4545615 -9.2158808e-05 0)
(1.4554975 -0.00017872801 0)
(0.99973847 -0.01235542 0)
(1.0184395 -0.030251936 0)
(1.0484404 -0.03961204 0)
(1.0802132 -0.044574109 0)
(1.1117125 -0.046231208 0)
(1.1417318 -0.045187277 0)
(1.1688992 -0.042438591 0)
(1.1926146 -0.038841964 0)
(1.2129153 -0.034971944 0)
(1.2301007 -0.031196859 0)
(1.2445731 -0.02772777 0)
(1.2567634 -0.024657142 0)
(1.2670757 -0.022000698 0)
(1.2758583 -0.019729338 0)
(1.2833979 -0.017792327 0)
(1.2899271 -0.016133284 0)
(1.2956328 -0.014700332 0)
(1.3006628 -0.013451043 0)
(1.3051304 -0.012352778 0)
(1.3091202 -0.011380123 0)
(1.312696 -0.010511924 0)
(1.3159102 -0.0097297747 0)
(1.3188086 -0.0090181556 0)
(1.3214331 -0.0083651711 0)
(1.3238201 -0.0077627196 0)
(1.3259995 -0.0072057245 0)
(1.3279949 -0.0066908528 0)
(1.3298246 -0.006215402 0)
(1.3315039 -0.0057767481 0)
(1.3330463 -0.0053723097 0)
(1.3344643 -0.0049997169 0)
(1.3357701 -0.0046568727 0)
(1.3369748 -0.0043417679 0)
(1.3380888 -0.0040521007 0)
(1.3391215 -0.0037848734 0)
(1.3400812 -0.0035361538 0)
(1.3409749 -0.0033011263 0)
(1.3418085 -0.0030744581 0)
(1.3425858 -0.0028509126 0)
(1.3433096 -0.0026260666 0)
(1.3439808 -0.0023969709 0)
(1.3445989 -0.0021625979 0)
(1.3451629 -0.0019239948 0)
(1.3456711 -0.0016840963 0)
(1.3461222 -0.0014472727 0)
(1.3465158 -0.0012186682 0)
(1.3468524 -0.0010035094 0)
(1.3471339 -0.00080643191 0)
(1.3473638 -0.00063100778 0)
(1.3475467 -0.00047941779 0)
(1.3476878 -0.00035240595 0)
(1.3477934 -0.00024934366 0)
(1.3478693 -0.00016851728 0)
(1.3479216 -0.00010739731 0)
(1.3479556 -6.3030844e-05 0)
(1.3479761 -3.2292655e-05 0)
(1.3479871 -1.2205521e-05 0)
(1.3479917 -4.316379e-08 0)
(1.3479922 6.4701276e-06 0)
(1.3479906 9.2320403e-06 0)
(1.3479879 9.6257561e-06 0)
(1.3479851 8.7494723e-06 0)
(1.3479822 7.236616e-06 0)
(1.3479801 5.6385512e-06 0)
(1.347978 4.0852535e-06 0)
(1.347977 2.8651595e-06 0)
(1.3479756 1.8061574e-06 0)
(1.3479755 1.1587896e-06 0)
(1.3479745 5.5005875e-07 0)
(1.3479751 3.5188641e-07 0)
(1.347974 -1.0201275e-08 0)
(1.3479752 8.7534439e-08 0)
(1.3479736 -2.2149797e-07 0)
(1.3479756 9.1076861e-08 0)
(1.3479732 -3.1760882e-07 0)
(1.3479762 2.1845908e-07 0)
(1.3479726 -4.29523e-07 0)
(1.3479771 4.2761822e-07 0)
(1.3479715 -6.3483316e-07 0)
(1.3479785 7.4342069e-07 0)
(1.34797 -1.0058205e-06 0)
(1.3479804 1.2412395e-06 0)
(1.3479677 -1.6501135e-06 0)
(1.3479832 2.0492408e-06 0)
(1.3479643 -2.7540008e-06 0)
(1.3479873 3.3606784e-06 0)
(1.3479596 -4.64353e-06 0)
(1.3479932 5.427841e-06 0)
(1.3479531 -7.8839842e-06 0)
(1.3480016 8.452541e-06 0)
(1.3479446 -1.3462136e-05 0)
(1.3480136 1.2089072e-05 0)
(1.3479345 -2.3209696e-05 0)
(1.3480315 1.3594782e-05 0)
(1.3479247 -4.1273605e-05 0)
(1.3480603 9.1386252e-07 0)
(1.34792 -8.1321845e-05 0)
(1.3481107 -7.5022806e-05 0)
(1.3479191 -0.00020063182 0)
(1.348149 -0.00037779881 0)
(1.0001503 -0.028832874 0)
(1.0314833 -0.059420844 0)
(1.0675718 -0.071130954 0)
(1.0976325 -0.075530446 0)
(1.122939 -0.074771625 0)
(1.1433305 -0.070076808 0)
(1.1583159 -0.063250561 0)
(1.1684313 -0.055736669 0)
(1.174634 -0.048415216 0)
(1.1778354 -0.041757755 0)
(1.1788253 -0.035963503 0)
(1.1782609 -0.031054775 0)
(1.1766565 -0.026959532 0)
(1.1743954 -0.023564922 0)
(1.1717521 -0.02074958 0)
(1.168918 -0.018401075 0)
(1.1660242 -0.016424596 0)
(1.1631572 -0.014745609 0)
(1.1603702 -0.013307608 0)
(1.1576925 -0.012067019 0)
(1.1551379 -0.010988234 0)
(1.152712 -0.010040946 0)
(1.1504174 -0.0091999155 0)
(1.1482552 -0.0084456347 0)
(1.1462247 -0.0077643321 0)
(1.1443231 -0.0071467707 0)
(1.1425448 -0.006586418 0)
(1.1408829 -0.0060778601 0)
(1.1393299 -0.005616008 0)
(1.1378786 -0.0051960339 0)
(1.1365219 -0.0048136511 0)
(1.1352534 -0.004465307 0)
(1.1340669 -0.0041480805 0)
(1.1329564 -0.0038592917 0)
(1.1319167 -0.0035959975 0)
(1.1309439 -0.0033545767 0)
(1.1300352 -0.0031305647 0)
(1.1291899 -0.0029188087 0)
(1.1284089 -0.0027139131 0)
(1.1276941 -0.0025108704 0)
(1.1270483 -0.0023057334 0)
(1.1264739 -0.0020961648 0)
(1.1259725 -0.0018817626 0)
(1.1255441 -0.0016640681 0)
(1.1251867 -0.0014462988 0)
(1.1248965 -0.0012328182 0)
(1.1246678 -0.0010285067 0)
(1.1244934 -0.00083807994 0)
(1.1243653 -0.00066554107 0)
(1.1242755 -0.00051375052 0)
(1.1242159 -0.00038425098 0)
(1.1241792 -0.00027722788 0)
(1.124159 -0.00019169799 0)
(1.1241501 -0.00012573288 0)
(1.1241484 -7.6813656e-05 0)
(1.1241508 -4.2095008e-05 0)
(1.1241551 -1.8733792e-05 0)
(1.12416 -4.031613e-06 0)
(1.1241645 4.3387411e-06 0)
(1.1241685 8.3726513e-06 0)
(1.1241714 9.5665441e-06 0)
(1.1241737 9.1416476e-06 0)
(1.1241751 7.8276808e-06 0)
(1.1241762 6.2763837e-06 0)
(1.1241766 4.6672986e-06 0)
(1.1241771 3.3595052e-06 0)
(1.1241769 2.1840123e-06 0)
(1.1241773 1.4454688e-06 0)
(1.1241768 7.3725631e-07 0)
(1.1241773 4.8642963e-07 0)
(1.1241765 5.6000217e-08 0)
(1.1241773 1.4023865e-07 0)
(1.1241762 -2.1538811e-07 0)
(1.1241775 1.1040657e-07 0)
(1.1241759 -3.3393434e-07 0)
(1.1241778 2.2711989e-07 0)
(1.1241754 -4.4664144e-07 0)
(1.1241784 4.2718446e-07 0)
(1.1241748 -6.3392911e-07 0)
(1.1241791 7.1524602e-07 0)
(1.1241739 -9.5481392e-07 0)
(1.1241802 1.137322e-06 0)
(1.1241727 -1.4821085e-06 0)
(1.1241815 1.7673073e-06 0)
(1.1241712 -2.332682e-06 0)
(1.124183 2.6946643e-06 0)
(1.1241697 -3.7077007e-06 0)
(1.1241843 3.9816023e-06 0)
(1.1241687 -5.9676615e-06 0)
(1.1241843 5.5067715e-06 0)
(1.1241698 -9.8155025e-06 0)
(1.1241804 6.4582605e-06 0)
(1.1241762 -1.6810404e-05 0)
(1.1241669 3.7958442e-06 0)
(1.1241926 -3.0956867e-05 0)
(1.1241301 -1.2411288e-05 0)
(1.1242206 -6.3988999e-05 0)
(1.1240298 -7.3879619e-05 0)
(1.1242301 -0.00015288377 0)
(1.1237943 -0.00027033395 0)
(1.003271 -0.054817095 0)
(1.0472129 -0.10100034 0)
(1.066112 -0.11153422 0)
(1.0625934 -0.10907372 0)
(1.0508095 -0.099917529 0)
(1.0345 -0.087034611 0)
(1.014893 -0.072925777 0)
(0.99382465 -0.059366948 0)
(0.97290674 -0.047360645 0)
(0.95311355 -0.037328719 0)
(0.93493769 -0.029286154 0)
(0.91857702 -0.023049937 0)
(0.90402652 -0.018327093 0)
(0.89116447 -0.014800755 0)
(0.87981356 -0.012181134 0)
(0.86978272 -0.010227191 0)
(0.86089015 -0.0087518355 0)
(0.85297334 -0.0076178725 0)
(0.8458917 -0.0067285631 0)
(0.83952574 -0.0060162458 0)
(0.83377543 -0.0054324269 0)
(0.82855822 -0.0049413903 0)
(0.82380686 -0.0045171487 0)
(0.81946648 -0.0041420451 0)
(0.81549166 -0.0038053167 0)
(0.81184382 -0.0035010221 0)
(0.80848953 -0.003225754 0)
(0.80539958 -0.0029768751 0)
(0.80254848 -0.0027516695 0)
(0.79991399 -0.0025472999 0)
(0.79747644 -0.0023611559 0)
(0.79521815 -0.0021911885 0)
(0.79312286 -0.0020360001 0)
(0.79117547 -0.0018946658 0)
(0.78936217 -0.00176639 0)
(0.78767083 -0.0016501371 0)
(0.78609158 -0.0015443663 0)
(0.78461728 -0.0014469362 0)
(0.7832438 -0.0013552105 0)
(0.78196992 -0.0012663221 0)
(0.78079684 -0.0011775499 0)
(0.77972735 -0.0010866983 0)
(0.77876471 -0.00099242789 0)
(0.7779116 -0.00089443129 0)
(0.77716901 -0.0007934688 0)
(0.77653566 -0.00069120509 0)
(0.77600751 -0.00058995622 0)
(0.77557789 -0.00049231583 0)
(0.77523777 -0.00040082782 0)
(0.77497651 -0.00031764637 0)
(0.77478244 -0.00024435481 0)
(0.7746438 -0.00018181787 0)
(0.77454921 -0.00013021973 0)
(0.7744884 -8.9101376e-05 0)
(0.77445236 -5.7546522e-05 0)
(0.77443371 -3.4293907e-05 0)
(0.77442649 -1.7957978e-05 0)
(0.77442632 -7.1018124e-06 0)
(0.77442991 -4.2751058e-07 0)
(0.77443519 3.2568529e-06 0)
(0.77444068 4.8675644e-06 0)
(0.77444577 5.2111611e-06 0)
(0.7744499 4.7726489e-06 0)
(0.77445324 4.032395e-06 0)
(0.77445552 3.1251708e-06 0)
(0.77445729 2.3472557e-06 0)
(0.7744582 1.5874257e-06 0)
(0.77445904 1.1032644e-06 0)
(0.77445915 6.0191346e-07 0)
(0.77445961 4.2326139e-07 0)
(0.77445929 9.6479959e-08 0)
(0.77445973 1.4947914e-07 0)
(0.77445912 -1.2534302e-07 0)
(0.77445977 1.0377661e-07 0)
(0.77445887 -2.2822477e-07 0)
(0.77445988 1.708241e-07 0)
(0.77445856 -3.1384008e-07 0)
(0.7744601 2.9967869e-07 0)
(0.77445819 -4.3810159e-07 0)
(0.77446047 4.8250373e-07 0)
(0.77445771 -6.3510046e-07 0)
(0.77446098 7.334046e-07 0)
(0.77445711 -9.3510887e-07 0)
(0.7744616 1.0700314e-06 0)
(0.77445641 -1.3744712e-06 0)
(0.77446219 1.4863744e-06 0)
(0.77445577 -2.0019018e-06 0)
(0.77446229 1.8910548e-06 0)
(0.77445562 -2.8896898e-06 0)
(0.7744608 1.94266e-06 0)
(0.77445687 -4.1856837e-06 0)
(0.77445499 6.3479565e-07 0)
(0.77446117 -6.2941958e-06 0)
(0.77443847 -4.6379261e-06 0)
(0.77447045 -1.0314714e-05 0)
(0.77439528 -1.9240939e-05 0)
(0.77448239 -1.7432794e-05 0)
(0.77428165 -4.5060372e-05 0)
(0.77448167 -1.6589826e-05 0)
(0.77404898 -2.7154361e-05 0)
(0.92241905 -0.034487138 0)
(0.87132478 -0.058494327 0)
(0.78815633 -0.056214868 0)
(0.69388548 -0.045746926 0)
(0.61395331 -0.034511071 0)
(0.55015837 -0.024456421 0)
(0.49940119 -0.016279952 0)
(0.45984786 -0.010228069 0)
(0.42978247 -0.0061008949 0)
(0.40723163 -0.0034637262 0)
(0.39031164 -0.0018587257 0)
(0.37749523 -0.0009540557 0)
(0.36763674 -0.00049356101 0)
(0.35987486 -0.00029255203 0)
(0.35358865 -0.00022987719 0)
(0.34834802 -0.00023198464 0)
(0.34386214 -0.00025801296 0)
(0.33993684 -0.00028809233 0)
(0.33644292 -0.00031423417 0)
(0.3332937 -0.00033370565 0)
(0.33042989 -0.00034532867 0)
(0.32780983 -0.00034839788 0)
(0.32540329 -0.00034304178 0)
(0.32318735 -0.00033066593 0)
(0.32114365 -0.0003137098 0)
(0.31925653 -0.00029486021 0)
(0.31751208 -0.00027622072 0)
(0.31589783 -0.00025890512 0)
(0.31440263 -0.00024311534 0)
(0.31301662 -0.00022852246 0)
(0.31173102 -0.00021467658 0)
(0.31053786 -0.0002012819 0)
(0.30942957 -0.00018829299 0)
(0.30839881 -0.00017587955 0)
(0.30743835 -0.00016432935 0)
(0.30654125 -0.00015393845 0)
(0.30570116 -0.00014492114 0)
(0.30491274 -0.00013734694 0)
(0.304172 -0.00013110932 0)
(0.30347662 -0.00012593017 0)
(0.30282598 -0.00012139211 0)
(0.30222096 -0.00011700133 0)
(0.30166356 -0.00011226262 0)
(0.30115632 -0.00010675487 0)
(0.30070168 -0.000100199 0)
(0.30030136 -9.2486826e-05 0)
(0.29995591 -8.3701742e-05 0)
(0.29966441 -7.407761e-05 0)
(0.29942441 -6.3975948e-05 0)
(0.29923204 -5.3801438e-05 0)
(0.29908232 -4.3973005e-05 0)
(0.29896957 -3.4842004e-05 0)
(0.29888775 -2.6691245e-05 0)
(0.29883094 -1.9682981e-05 0)
(0.29879359 -1.3894348e-05 0)
(0.2987708 -9.2922903e-06 0)
(0.29875838 -5.7937672e-06 0)
(0.29875298 -3.2460523e-06 0)
(0.298752 -1.4991283e-06 0)
(0.29875355 -3.678769e-07 0)
(0.29875627 2.841595e-07 0)
(0.29875936 6.1963761e-07 0)
(0.29876225 7.1902313e-07 0)
(0.29876476 7.0787454e-07 0)
(0.29876671 6.0059665e-07 0)
(0.29876823 4.9900302e-07 0)
(0.29876923 3.5652679e-07 0)
(0.29876998 2.7712572e-07 0)
(0.29877035 1.5695399e-07 0)
(0.29877068 1.3208905e-07 0)
(0.2987707 3.4419216e-08 0)
(0.29877088 6.4986036e-08 0)
(0.29877072 -3.1479255e-08 0)
(0.2987709 5.1430125e-08 0)
(0.29877063 -7.030607e-08 0)
(0.2987709 7.0157151e-08 0)
(0.29877051 -1.050797e-07 0)
(0.29877094 1.101067e-07 0)
(0.29877037 -1.5089435e-07 0)
(0.29877103 1.693767e-07 0)
(0.29877022 -2.1769864e-07 0)
(0.29877117 2.5075226e-07 0)
(0.29877002 -3.1301252e-07 0)
(0.29877134 3.5589438e-07 0)
(0.29876978 -4.4267533e-07 0)
(0.29877149 4.7419548e-07 0)
(0.29876949 -6.078012e-07 0)
(0.29877144 5.6008322e-07 0)
(0.29876915 -7.9773097e-07 0)
(0.29877068 4.7587524e-07 0)
(0.29876873 -9.8018104e-07 0)
(0.298768 -1.2872365e-07 0)
(0.29876797 -1.0669914e-06 0)
(0.29876047 -2.0136808e-06 0)
(0.29876572 -6.4306482e-07 0)
(0.29874203 -5.9144576e-06 0)
(0.29876004 3.9508689e-06 0)
(0.29871206 -4.4694235e-06 0)
(0.29876373 3.9240624e-05 0)
(0.29877423 4.7788719e-05 0)
)
;

boundaryField
{
    top
    {
        type            fixedValue;
        value           uniform (0 0 0);
    }
    inlet
    {
        type            fixedValue;
        value           uniform (1 0 0);
    }
    outlet
    {
        type            zeroGradient;
    }
    bottom
    {
        type            fixedValue;
        value           uniform (0 0 0);
    }
    back
    {
        type            empty;
    }
    front
    {
        type            empty;
    }
}


// ************************************************************************* //
