/*--------------------------------*- C++ -*----------------------------------*\
| =========                 |                                                 |
| \\      /  F ield         | OpenFOAM: The Open Source CFD Toolbox           |
|  \\    /   O peration     | Version:  v1812                                 |
|   \\  /    A nd           | Web:      www.OpenFOAM.com                      |
|    \\/     M anipulation  |                                                 |
\*---------------------------------------------------------------------------*/
FoamFile
{
    version     2.0;
    format      ascii;
    class       volScalarField;
    location    "8.95";
    object      p;
}
// * * * * * * * * * * * * * * * * * * * * * * * * * * * * * * * * * * * * * //

dimensions      [0 2 -2 0 0 0 0];


internalField   nonuniform List<scalar> 
1000
(
1.6755054
1.5544275
1.4584471
1.394791
1.3462815
1.3038094
1.2662742
1.2341024
1.2067021
1.1828645
1.1614702
1.1417063
1.1230292
1.1050896
1.0876743
1.0706602
1.0539793
1.0375951
1.0214869
1.005641
0.99004598
0.97469087
0.95956417
0.94465394
0.92994794
0.91543397
0.90110001
0.88693451
0.87292645
0.85906544
0.84534171
0.83174615
0.81827024
0.80490607
0.79164625
0.77848389
0.76541261
0.75242642
0.73951976
0.72668744
0.71392462
0.70122679
0.68858973
0.6760095
0.66348241
0.65100503
0.63857412
0.62618666
0.61383982
0.60153097
0.58925763
0.5770175
0.56480844
0.55262844
0.5404756
0.52834817
0.5162445
0.50416302
0.49210228
0.48006093
0.46803769
0.45603141
0.444041
0.43206543
0.42010377
0.40815511
0.39621861
0.38429348
0.37237897
0.3604744
0.34857916
0.33669266
0.32481438
0.31294385
0.30108059
0.28922415
0.27737409
0.26552999
0.25369147
0.24185817
0.23002979
0.21820605
0.20638668
0.19457143
0.18276003
0.17095219
0.15914762
0.14734605
0.13554723
0.12375096
0.11195704
0.10016532
0.088375629
0.076587783
0.064801572
0.0530168
0.041233277
0.029450893
0.017669641
0.0058893726
1.5582857
1.5033567
1.4424042
1.3908365
1.3475664
1.3085981
1.2730119
1.2412393
1.2132783
1.1885005
1.1660986
1.1453972
1.1259156
1.1073276
1.089414
1.0720292
1.0550774
1.038496
1.0222434
1.0062899
0.9906128
0.97519325
0.9600144
0.94506074
0.9303177
0.91577149
0.9014091
0.88721824
0.8731874
0.85930581
0.84556343
0.83195091
0.81845954
0.80508125
0.7918085
0.77863431
0.76555215
0.75255597
0.7396401
0.7267993
0.71402864
0.70132356
0.68867979
0.67609334
0.6635605
0.65107778
0.63864191
0.62624985
0.61389874
0.60158591
0.58930887
0.5770653
0.56485302
0.55267002
0.5405144
0.52838437
0.51627828
0.50419455
0.49213171
0.4800884
0.46806335
0.45605535
0.44406333
0.43208626
0.42012318
0.40817321
0.39623548
0.3843092
0.37239362
0.36048805
0.34859184
0.33670443
0.32482529
0.31295393
0.30108989
0.28923272
0.27738199
0.26553726
0.25369815
0.24186428
0.23003535
0.21821108
0.20639121
0.19457548
0.18276364
0.17095541
0.1591505
0.14734862
0.13554951
0.12375296
0.11195878
0.10016681
0.088376882
0.076588837
0.06480246
0.05301756
0.04123393
0.029451416
0.017670052
0.0058895017
1.4974645
1.4712894
1.4328926
1.3917597
1.3526744
1.3160836
1.2817859
1.2500684
1.2212123
1.1951112
1.1713572
1.1494672
1.1290174
1.1096765
1.0911963
1.0733953
1.0561435
1.0393479
1.0229418
1.0068767
0.99111631
0.97563261
0.96040273
0.94540723
0.93062897
0.9160525
0.90166369
0.88744953
0.87339799
0.85949792
0.84573898
0.83211159
0.81860684
0.80521647
0.79193281
0.77874874
0.76565763
0.7526533
0.73973002
0.72688245
0.7141056
0.70139485
0.68874587
0.67615464
0.6636174
0.65113061
0.63869101
0.6262955
0.6139412
0.60162542
0.58934566
0.57709955
0.56488492
0.55269974
0.54054208
0.52841016
0.51630231
0.50421696
0.49215261
0.48010791
0.46808154
0.45607233
0.44407916
0.43210102
0.42013694
0.40818602
0.39624742
0.38432034
0.37240402
0.36049775
0.34860089
0.33671285
0.32483311
0.31296118
0.30109659
0.28923892
0.27738773
0.26554258
0.25370308
0.24186886
0.23003957
0.21821494
0.20639471
0.19457864
0.18276648
0.17095797
0.15915281
0.14735072
0.13555143
0.1237547
0.11196033
0.10016816
0.088378033
0.076589811
0.064803279
0.053018264
0.041234533
0.029451916
0.017670351
0.0058896326
1.468056
1.4525579
1.425688
1.3917641
1.3559631
1.3210118
1.2877098
1.2563568
1.2272261
1.2004346
1.1758471
1.1531549
1.132003
1.1120743
1.0931161
1.0749364
1.0573907
1.0403697
1.0237911
1.0075931
0.99172906
0.9761633
0.96086732
0.94581764
0.93099421
0.91637949
0.90195787
0.88771525
0.87363881
0.8597168
0.84593842
0.8322937
0.81877346
0.8053692
0.79207303
0.77887768
0.76577636
0.75276277
0.73983108
0.72697584
0.71419199
0.70147483
0.68881998
0.67622335
0.66368114
0.65118979
0.63874597
0.62634658
0.6139887
0.60166961
0.58938678
0.57713784
0.56492057
0.55273293
0.540573
0.52843896
0.51632915
0.50424198
0.49217595
0.48012967
0.46810185
0.45609128
0.44409685
0.43211752
0.42015232
0.40820038
0.39626082
0.38433285
0.37241571
0.36050869
0.34861112
0.33672242
0.32484205
0.31296952
0.30110438
0.28924618
0.2773945
0.26554892
0.25370902
0.24187442
0.23004477
0.21821979
0.20639921
0.19458279
0.18277029
0.17096147
0.15915603
0.1473537
0.13555419
0.12375725
0.11196267
0.10017029
0.088379925
0.076591486
0.064804735
0.053019558
0.04123563
0.029452902
0.017671024
0.0058901782
1.4553244
1.4433711
1.4211367
1.3908491
1.356988
1.3229924
1.2902948
1.2592893
1.2301919
1.20318
1.178253
1.1552034
1.1337218
1.1135042
1.0943006
1.0759184
1.0582095
1.0410591
1.0243782
1.0080991
0.99217009
0.97655152
0.96121199
0.94612582
0.93127137
0.9166299
0.90218494
0.88792177
0.87382709
0.8598888
0.84609582
0.83243797
0.81890589
0.8054909
0.79218503
0.77898085
0.7658715
0.75285061
0.73991225
0.72705091
0.71426147
0.70153919
0.68887963
0.67627867
0.66373247
0.65123745
0.63879024
0.62638773
0.61402696
0.6017052
0.5894199
0.57716867
0.56494928
0.55275967
0.5405979
0.52846216
0.51635077
0.50426212
0.49219473
0.48014719
0.4681182
0.45610654
0.44411108
0.4321308
0.42016472
0.40821194
0.39627162
0.38434294
0.37242515
0.36051752
0.34861939
0.33673017
0.3248493
0.3129763
0.30111072
0.28925211
0.27740006
0.26555413
0.25371392
0.24187903
0.23004911
0.21822385
0.206403
0.19458631
0.18277356
0.1709645
0.15915884
0.14735631
0.13555662
0.12375951
0.11196475
0.1001722
0.088381649
0.076593036
0.064806097
0.053020782
0.04123667
0.029453858
0.01767171
0.0058907726
1.4553244
1.4433711
1.4211367
1.3908491
1.356988
1.3229924
1.2902948
1.2592893
1.2301919
1.20318
1.178253
1.1552034
1.1337218
1.1135042
1.0943006
1.0759184
1.0582095
1.0410591
1.0243782
1.0080991
0.99217009
0.97655152
0.96121199
0.94612582
0.93127137
0.9166299
0.90218494
0.88792177
0.87382709
0.8598888
0.84609582
0.83243797
0.81890588
0.8054909
0.79218502
0.77898085
0.7658715
0.75285061
0.73991225
0.72705091
0.71426148
0.70153919
0.68887963
0.67627867
0.66373247
0.65123744
0.63879024
0.62638772
0.61402696
0.60170521
0.58941991
0.57716867
0.56494928
0.55275967
0.54059789
0.52846216
0.51635076
0.50426212
0.49219473
0.4801472
0.4681182
0.45610654
0.44411108
0.43213079
0.42016471
0.40821193
0.39627161
0.38434294
0.37242514
0.36051751
0.34861938
0.33673015
0.32484928
0.31297627
0.30111069
0.28925209
0.27740004
0.26555412
0.25371391
0.24187902
0.2300491
0.21822384
0.20640298
0.19458629
0.18277354
0.17096448
0.15915884
0.14735632
0.13555664
0.12375954
0.11196478
0.10017222
0.088381671
0.076593052
0.064806112
0.053020792
0.041236681
0.029453865
0.017671714
0.0058907742
1.468056
1.4525579
1.425688
1.3917641
1.3559631
1.3210118
1.2877098
1.2563568
1.2272261
1.2004346
1.1758471
1.1531549
1.132003
1.1120743
1.0931161
1.0749364
1.0573907
1.0403697
1.0237911
1.0075931
0.99172906
0.97616329
0.96086731
0.94581763
0.9309942
0.91637949
0.90195787
0.88771526
0.87363882
0.85971681
0.84593842
0.8322937
0.81877345
0.80536918
0.79207302
0.77887767
0.76577635
0.75276278
0.73983109
0.72697585
0.714192
0.70147484
0.68881998
0.67622334
0.66368113
0.65118977
0.63874596
0.62634658
0.6139887
0.60166962
0.58938679
0.57713784
0.56492057
0.55273293
0.54057299
0.52843896
0.51632915
0.50424198
0.49217595
0.48012968
0.46810186
0.45609128
0.44409683
0.43211749
0.42015229
0.40820034
0.39626079
0.38433283
0.37241569
0.36050866
0.34861108
0.33672236
0.32484197
0.31296943
0.30110428
0.2892461
0.27739444
0.26554888
0.25370899
0.2418744
0.23004474
0.21821975
0.20639915
0.19458273
0.18277024
0.17096144
0.15915603
0.14735374
0.13555425
0.12375733
0.11196275
0.10017036
0.088379988
0.076591538
0.064804779
0.053019597
0.041235661
0.029452929
0.017671042
0.005890184
1.4974645
1.4712894
1.4328926
1.3917597
1.3526744
1.3160836
1.2817859
1.2500684
1.2212123
1.1951112
1.1713572
1.1494672
1.1290174
1.1096765
1.0911963
1.0733953
1.0561435
1.0393479
1.0229418
1.0068767
0.99111631
0.9756326
0.96040272
0.94540722
0.93062896
0.9160525
0.90166369
0.88744954
0.873398
0.85949793
0.84573899
0.83211158
0.81860682
0.80521645
0.79193279
0.77874873
0.76565763
0.75265331
0.73973004
0.72688247
0.71410561
0.70139485
0.68874587
0.67615463
0.66361738
0.6511306
0.638691
0.6262955
0.61394121
0.60162544
0.58934567
0.57709956
0.56488492
0.55269973
0.54054206
0.52841015
0.51630231
0.50421697
0.49215263
0.48010792
0.46808154
0.45607232
0.44407913
0.43210097
0.42013689
0.40818598
0.39624739
0.38432032
0.37240399
0.36049771
0.34860082
0.33671275
0.32483299
0.31296104
0.30109647
0.28923882
0.27738766
0.26554255
0.25370306
0.24186883
0.23003953
0.21821487
0.20639463
0.19457856
0.18276643
0.17095796
0.15915285
0.14735081
0.13555154
0.12375483
0.11196045
0.10016827
0.088378127
0.076589895
0.064803356
0.053018335
0.041234591
0.029451959
0.017670377
0.0058896418
1.5582857
1.5033567
1.4424042
1.3908365
1.3475664
1.3085981
1.2730119
1.2412393
1.2132783
1.1885005
1.1660986
1.1453972
1.1259156
1.1073276
1.089414
1.0720293
1.0550774
1.038496
1.0222434
1.0062898
0.99061279
0.97519324
0.96001438
0.94506073
0.93031769
0.9157715
0.90140911
0.88721826
0.87318741
0.85930582
0.84556343
0.83195089
0.81845952
0.80508122
0.79180849
0.7786343
0.76555216
0.75255599
0.73964012
0.72679931
0.71402865
0.70132355
0.68867977
0.67609332
0.66356048
0.65107777
0.63864191
0.62624986
0.61389876
0.60158593
0.58930888
0.5770653
0.56485301
0.55267001
0.54051439
0.52838437
0.51627829
0.50419457
0.49213173
0.48008842
0.46806334
0.45605533
0.44406329
0.43208621
0.42012314
0.40817318
0.39623547
0.38430919
0.3723936
0.360488
0.34859176
0.33670431
0.32482515
0.3129538
0.30108978
0.28923266
0.27738196
0.26553726
0.25369814
0.24186426
0.23003531
0.21821101
0.20639113
0.19457543
0.18276363
0.17095546
0.1591506
0.14734875
0.13554966
0.12375311
0.11195892
0.10016694
0.088376998
0.076588948
0.064802564
0.053017646
0.041233993
0.029451456
0.017670083
0.0058895165
1.6755054
1.5544275
1.4584471
1.394791
1.3462815
1.3038094
1.2662742
1.2341024
1.2067021
1.1828645
1.1614701
1.1417063
1.1230292
1.1050896
1.0876743
1.0706602
1.0539793
1.0375951
1.0214869
1.005641
0.99004597
0.97469085
0.95956416
0.94465393
0.92994794
0.91543397
0.90110002
0.88693453
0.87292647
0.85906544
0.84534171
0.83174614
0.81827023
0.80490605
0.79164624
0.7784839
0.76541262
0.75242644
0.73951977
0.72668745
0.71392462
0.70122678
0.68858971
0.67600948
0.6634824
0.65100503
0.63857413
0.62618668
0.61383984
0.60153099
0.58925764
0.5770175
0.56480843
0.55262842
0.5404756
0.52834818
0.51624451
0.50416304
0.49210229
0.48006093
0.46803768
0.45603138
0.44404096
0.43206539
0.42010374
0.40815509
0.3962186
0.38429346
0.37237893
0.36047434
0.34857905
0.33669253
0.32481425
0.31294373
0.3010805
0.2892241
0.27737406
0.26552998
0.25369145
0.24185813
0.23002973
0.21820598
0.20638662
0.19457141
0.18276005
0.17095225
0.15914772
0.14734618
0.13554737
0.1237511
0.11195718
0.10016546
0.08837576
0.076587904
0.064801672
0.05301687
0.041233322
0.029450939
0.017669696
0.0058894001
)
;

boundaryField
{
    top
    {
        type            zeroGradient;
    }
    inlet
    {
        type            zeroGradient;
    }
    outlet
    {
        type            fixedValue;
        value           uniform 0;
    }
    bottom
    {
        type            zeroGradient;
    }
    back
    {
        type            empty;
    }
    front
    {
        type            empty;
    }
}


// ************************************************************************* //
