/*--------------------------------*- C++ -*----------------------------------*\
| =========                 |                                                 |
| \\      /  F ield         | OpenFOAM: The Open Source CFD Toolbox           |
|  \\    /   O peration     | Version:  2112                                  |
|   \\  /    A nd           | Website:  www.openfoam.com                      |
|    \\/     M anipulation  |                                                 |
\*---------------------------------------------------------------------------*/
FoamFile
{
    version     2.0;
    format      ascii;
    arch        "LSB;label=32;scalar=64";
    class       volScalarField;
    location    "19";
    object      p;
}
// * * * * * * * * * * * * * * * * * * * * * * * * * * * * * * * * * * * * * //

dimensions      [0 2 -2 0 0 0 0];

internalField   nonuniform List<scalar> 
1000
(
1.5269572
1.5106539
1.4945723
1.4786588
1.4628617
1.4471451
1.4314862
1.415872
1.4002943
1.3847474
1.3692264
1.3537272
1.3382467
1.3227825
1.3073327
1.291896
1.2764712
1.2610575
1.2456538
1.2302594
1.2148737
1.199496
1.1841258
1.1687625
1.1534057
1.138055
1.12271
1.1073703
1.0920356
1.0767055
1.0613799
1.0460583
1.0307406
1.0154266
1.000116
0.98480858
0.9695042
0.95420266
0.93890381
0.92360749
0.90831353
0.89302182
0.87773222
0.8624446
0.84715885
0.83187487
0.81659254
0.80131178
0.78603249
0.77075458
0.75547799
0.74020262
0.72492841
0.7096553
0.69438321
0.67911208
0.66384187
0.64857252
0.63330397
0.61803618
0.6027691
0.5875027
0.57223693
0.55697175
0.54170713
0.52644304
0.51117944
0.4959163
0.4806536
0.46539131
0.4501294
0.43486786
0.41960665
0.40434576
0.38908517
0.37382487
0.35856482
0.34330502
0.32804545
0.3127861
0.29752695
0.28226799
0.26700921
0.2517506
0.23649214
0.22123383
0.20597566
0.19071761
0.17545968
0.16020187
0.14494416
0.12968655
0.11442902
0.099171588
0.083914231
0.068656948
0.053399736
0.038142585
0.022885502
0.0076284575
1.5267493
1.5104167
1.4944818
1.4786996
1.4629514
1.4472286
1.43155
1.4159221
1.400338
1.3847876
1.3692629
1.3537596
1.3382751
1.3228074
1.3073549
1.2919161
1.2764896
1.2610743
1.2456693
1.2302737
1.2148869
1.1995083
1.1841372
1.1687731
1.1534157
1.1380643
1.1227187
1.1073784
1.0920432
1.0767127
1.0613865
1.0460646
1.0307465
1.0154321
1.0001212
0.98481344
0.96950876
0.95420695
0.93890784
0.92361127
0.9083171
0.89302517
0.87773536
0.86244756
0.84716163
0.83187748
0.81659499
0.80131408
0.78603465
0.77075662
0.7554799
0.74020442
0.7249301
0.70965688
0.69438469
0.67911348
0.66384318
0.64857375
0.63330512
0.61803726
0.60277012
0.58750365
0.57223782
0.55697259
0.54170791
0.52644377
0.51118012
0.49591694
0.4806542
0.46539187
0.45012993
0.43486835
0.41960711
0.40434619
0.38908558
0.37382524
0.35856517
0.34330535
0.32804576
0.31278638
0.29752722
0.28226824
0.26700944
0.25175081
0.23649234
0.22123402
0.20597583
0.19071777
0.17545983
0.16020201
0.14494429
0.12968667
0.11442914
0.099171691
0.083914327
0.068657036
0.053399818
0.038142656
0.022885567
0.0076284905
1.5263722
1.509935
1.4941975
1.4786447
1.4630171
1.447313
1.4316111
1.4159614
1.4003688
1.3848175
1.3692928
1.3537874
1.3382993
1.3228281
1.3073729
1.2919321
1.2765041
1.2610875
1.2456813
1.2302847
1.214897
1.1995175
1.1841458
1.1687811
1.153423
1.1380711
1.122725
1.1073843
1.0920487
1.0767178
1.0613914
1.0460691
1.0307507
1.0154361
1.0001249
0.98481691
0.96951202
0.95421001
0.93891071
0.92361396
0.90831962
0.89302754
0.87773759
0.86244965
0.8471636
0.83187932
0.81659673
0.80131571
0.78603619
0.77075806
0.75548125
0.74020569
0.72493129
0.709658
0.69438575
0.67911447
0.66384411
0.64857462
0.63330594
0.61803803
0.60277084
0.58750433
0.57223845
0.55697318
0.54170847
0.52644429
0.51118061
0.4959174
0.48065463
0.46539228
0.45013031
0.4348687
0.41960744
0.4043465
0.38908587
0.37382551
0.35856542
0.34330558
0.32804598
0.31278659
0.29752741
0.28226842
0.26700961
0.25175097
0.23649249
0.22123415
0.20597596
0.19071789
0.17545994
0.16020211
0.14494438
0.12968675
0.11442922
0.099171768
0.083914397
0.068657101
0.053399875
0.038142706
0.022885599
0.0076285108
1.5259946
1.5094138
1.4938421
1.4785299
1.4630538
1.4473903
1.4316719
1.4159994
1.4003973
1.3848465
1.3693237
1.3538175
1.3383263
1.3228514
1.3073931
1.29195
1.2765202
1.2611022
1.2456946
1.2302968
1.214908
1.1995277
1.184155
1.1687897
1.1534309
1.1380785
1.1227319
1.1073907
1.0920546
1.0767233
1.0613965
1.0460739
1.0307552
1.0154403
1.0001288
0.98482062
0.9695155
0.95421328
0.93891378
0.92361685
0.90832233
0.89303009
0.87773999
0.8624519
0.84716572
0.83188132
0.8165986
0.80131748
0.78603784
0.77075962
0.75548272
0.74020707
0.72493259
0.70965922
0.69438689
0.67911555
0.66384513
0.64857557
0.63330684
0.61803887
0.60277163
0.58750507
0.57223915
0.55697384
0.54170909
0.52644487
0.51118116
0.49591791
0.48065511
0.46539273
0.45013073
0.4348691
0.41960781
0.40434685
0.38908619
0.37382582
0.35856571
0.34330585
0.32804623
0.31278683
0.29752763
0.28226863
0.2670098
0.25175115
0.23649266
0.22123431
0.2059761
0.19071803
0.17546007
0.16020223
0.14494449
0.12968686
0.11442931
0.099171859
0.08391448
0.06865718
0.053399941
0.03814277
0.022885641
0.0076285559
1.525766
1.5090868
1.4936049
1.4784414
1.4630681
1.4474373
1.4317111
1.4160242
1.4004156
1.3848652
1.3693443
1.3538382
1.3383453
1.322868
1.3074076
1.291963
1.2765321
1.261113
1.2457046
1.2303059
1.2149164
1.1995353
1.1841621
1.1687962
1.153437
1.1380841
1.1227371
1.1073956
1.0920592
1.0767276
1.0614005
1.0460777
1.0307588
1.0154436
1.0001319
0.98482352
0.96951822
0.95421583
0.93891618
0.9236191
0.90832445
0.89303208
0.87774186
0.86245367
0.84716738
0.83188288
0.81660008
0.80131886
0.78603915
0.77076085
0.75548387
0.74020815
0.72493361
0.70966018
0.6943878
0.6791164
0.66384593
0.64857633
0.63330755
0.61803954
0.60277226
0.58750566
0.57223971
0.55697436
0.54170958
0.52644533
0.51118159
0.49591832
0.48065549
0.46539309
0.45013107
0.43486942
0.41960811
0.40434713
0.38908645
0.37382606
0.35856594
0.34330607
0.32804643
0.31278702
0.29752781
0.28226879
0.26700996
0.2517513
0.23649279
0.22123444
0.20597622
0.19071814
0.17546018
0.16020233
0.14494459
0.12968694
0.11442939
0.099171934
0.083914548
0.068657245
0.053399996
0.038142825
0.02288568
0.0076286002
1.525766
1.5090867
1.4936049
1.4784414
1.4630681
1.4474373
1.4317111
1.4160242
1.4004156
1.3848652
1.3693443
1.3538382
1.3383453
1.322868
1.3074076
1.291963
1.2765321
1.261113
1.2457046
1.2303059
1.2149164
1.1995353
1.1841621
1.1687962
1.153437
1.1380841
1.1227371
1.1073956
1.0920592
1.0767276
1.0614005
1.0460777
1.0307588
1.0154436
1.0001319
0.98482352
0.96951822
0.95421583
0.93891618
0.92361911
0.90832445
0.89303208
0.87774186
0.86245367
0.84716738
0.83188288
0.81660008
0.80131886
0.78603915
0.77076085
0.75548387
0.74020815
0.72493361
0.70966018
0.6943878
0.6791164
0.66384593
0.64857633
0.63330755
0.61803954
0.60277226
0.58750566
0.57223971
0.55697436
0.54170958
0.52644533
0.51118159
0.49591832
0.48065549
0.46539309
0.45013107
0.43486942
0.41960811
0.40434713
0.38908645
0.37382606
0.35856594
0.34330607
0.32804643
0.31278702
0.29752781
0.28226879
0.26700996
0.2517513
0.23649279
0.22123444
0.20597622
0.19071814
0.17546018
0.16020233
0.14494459
0.12968695
0.11442939
0.099171934
0.083914548
0.068657245
0.053399996
0.038142826
0.022885682
0.007628601
1.5259946
1.5094138
1.4938421
1.4785299
1.4630538
1.4473903
1.4316718
1.4159994
1.4003973
1.3848465
1.3693237
1.3538175
1.3383263
1.3228514
1.3073931
1.29195
1.2765202
1.2611022
1.2456946
1.2302968
1.214908
1.1995277
1.1841551
1.1687897
1.153431
1.1380785
1.1227319
1.1073907
1.0920546
1.0767233
1.0613965
1.0460739
1.0307553
1.0154403
1.0001288
0.98482062
0.9695155
0.95421328
0.93891378
0.92361685
0.90832233
0.89303009
0.87773999
0.8624519
0.84716572
0.83188132
0.8165986
0.80131748
0.78603784
0.77075962
0.75548272
0.74020707
0.72493259
0.70965922
0.69438689
0.67911555
0.66384513
0.64857557
0.63330684
0.61803887
0.60277163
0.58750507
0.57223915
0.55697384
0.54170909
0.52644487
0.51118116
0.49591791
0.48065511
0.46539273
0.45013073
0.4348691
0.41960781
0.40434685
0.38908619
0.37382582
0.35856571
0.34330585
0.32804623
0.31278683
0.29752763
0.28226863
0.2670098
0.25175115
0.23649266
0.22123431
0.2059761
0.19071803
0.17546007
0.16020223
0.14494449
0.12968686
0.11442932
0.09917186
0.083914481
0.06865718
0.053399942
0.038142771
0.022885643
0.0076285578
1.5263722
1.509935
1.4941975
1.4786447
1.4630171
1.447313
1.4316111
1.4159614
1.4003687
1.3848175
1.3692928
1.3537874
1.3382993
1.3228281
1.3073729
1.2919321
1.2765041
1.2610875
1.2456813
1.2302847
1.214897
1.1995176
1.1841458
1.1687811
1.153423
1.1380711
1.122725
1.1073843
1.0920487
1.0767178
1.0613914
1.0460691
1.0307507
1.0154361
1.0001249
0.98481691
0.96951202
0.95421001
0.93891071
0.92361396
0.90831962
0.89302754
0.87773759
0.86244965
0.8471636
0.83187932
0.81659673
0.80131571
0.78603619
0.77075806
0.75548125
0.74020569
0.72493129
0.709658
0.69438575
0.67911447
0.66384411
0.64857462
0.63330594
0.61803803
0.60277084
0.58750433
0.57223845
0.55697318
0.54170847
0.52644429
0.51118061
0.4959174
0.48065463
0.46539228
0.45013031
0.4348687
0.41960744
0.4043465
0.38908587
0.37382551
0.35856542
0.34330558
0.32804598
0.31278659
0.29752741
0.28226842
0.26700961
0.25175097
0.23649249
0.22123415
0.20597596
0.19071789
0.17545994
0.16020211
0.14494438
0.12968676
0.11442922
0.099171769
0.083914398
0.068657102
0.053399876
0.038142707
0.022885601
0.0076285128
1.5267493
1.5104167
1.4944818
1.4786996
1.4629514
1.4472286
1.43155
1.415922
1.400338
1.3847875
1.3692629
1.3537596
1.3382751
1.3228074
1.3073549
1.2919161
1.2764896
1.2610743
1.2456693
1.2302737
1.2148869
1.1995083
1.1841372
1.1687732
1.1534157
1.1380643
1.1227187
1.1073784
1.0920432
1.0767127
1.0613865
1.0460646
1.0307465
1.0154321
1.0001212
0.98481344
0.96950876
0.95420696
0.93890784
0.92361127
0.9083171
0.89302517
0.87773536
0.86244756
0.84716163
0.83187748
0.81659499
0.80131408
0.78603465
0.77075662
0.7554799
0.74020442
0.7249301
0.70965688
0.69438469
0.67911348
0.66384318
0.64857375
0.63330512
0.61803726
0.60277012
0.58750365
0.57223782
0.55697259
0.54170791
0.52644377
0.51118012
0.49591694
0.4806542
0.46539187
0.45012993
0.43486835
0.41960711
0.40434619
0.38908558
0.37382524
0.35856517
0.34330535
0.32804576
0.31278638
0.29752722
0.28226824
0.26700944
0.25175081
0.23649234
0.22123402
0.20597583
0.19071777
0.17545983
0.16020201
0.14494429
0.12968667
0.11442914
0.099171692
0.083914328
0.068657037
0.053399819
0.038142657
0.022885569
0.0076284917
1.5269572
1.5106539
1.4945723
1.4786588
1.4628617
1.4471451
1.4314862
1.4158719
1.4002942
1.3847473
1.3692264
1.3537272
1.3382467
1.3227825
1.3073327
1.291896
1.2764712
1.2610575
1.2456538
1.2302595
1.2148737
1.199496
1.1841258
1.1687625
1.1534058
1.1380551
1.12271
1.1073703
1.0920356
1.0767055
1.0613799
1.0460583
1.0307407
1.0154266
1.000116
0.98480858
0.9695042
0.95420267
0.93890381
0.92360749
0.90831353
0.89302182
0.87773222
0.8624446
0.84715885
0.83187487
0.81659254
0.80131178
0.78603249
0.77075458
0.75547799
0.74020262
0.72492841
0.7096553
0.69438321
0.67911208
0.66384187
0.64857252
0.63330397
0.61803618
0.6027691
0.5875027
0.57223693
0.55697175
0.54170713
0.52644304
0.51117944
0.4959163
0.4806536
0.46539131
0.4501294
0.43486786
0.41960665
0.40434576
0.38908517
0.37382486
0.35856482
0.34330502
0.32804545
0.3127861
0.29752695
0.28226799
0.26700921
0.2517506
0.23649214
0.22123383
0.20597566
0.19071761
0.17545968
0.16020187
0.14494416
0.12968655
0.11442903
0.099171589
0.083914232
0.068656949
0.053399736
0.038142585
0.022885503
0.0076284582
)
;

boundaryField
{
    top
    {
        type            zeroGradient;
    }
    inlet
    {
        type            fixedValue;
        value           uniform 1.5352;
    }
    outlet
    {
        type            fixedValue;
        value           uniform 0;
    }
    bottom
    {
        type            zeroGradient;
    }
    back
    {
        type            empty;
    }
    front
    {
        type            empty;
    }
}


// ************************************************************************* //
