/*--------------------------------*- C++ -*----------------------------------*\
| =========                 |                                                 |
| \\      /  F ield         | OpenFOAM: The Open Source CFD Toolbox           |
|  \\    /   O peration     | Version:  2112                                  |
|   \\  /    A nd           | Website:  www.openfoam.com                      |
|    \\/     M anipulation  |                                                 |
\*---------------------------------------------------------------------------*/
FoamFile
{
    version     2.0;
    format      ascii;
    arch        "LSB;label=32;scalar=64";
    class       surfaceScalarField;
    location    "19";
    object      phi;
}
// * * * * * * * * * * * * * * * * * * * * * * * * * * * * * * * * * * * * * //

dimensions      [0 3 -1 0 0 0 0];

oriented        oriented;

internalField   nonuniform List<scalar> 
1890
(
0.0033835955
1.3696391e-06
0.003378853
4.7434911e-06
0.0033728235
6.0298996e-06
0.0033672099
5.6134091e-06
0.0033626422
4.5674369e-06
0.0033590174
3.6244475e-06
0.0033560372
2.9798613e-06
0.0033534778
2.5591419e-06
0.0033512274
2.2501305e-06
0.0033492376
1.989575e-06
0.0033474764
1.7609988e-06
0.0033459099
1.5662498e-06
0.0033445038
1.4059304e-06
0.0033432287
1.2749755e-06
0.0033420628
1.1657992e-06
0.0033409908
1.0718888e-06
0.0033400015
9.8911673e-07
0.0033390862
9.1524335e-07
0.0033382372
8.4894475e-07
0.0033374479
7.8918451e-07
0.0033367128
7.3502287e-07
0.0033360271
6.856411e-07
0.0033353867
6.4038219e-07
0.0033347879
5.9873904e-07
0.0033342275
5.6031391e-07
0.0033337027
5.2477642e-07
0.0033332108
4.9184233e-07
0.0033327495
4.612612e-07
0.0033323167
4.3281533e-07
0.0033319103
4.0631307e-07
0.0033315287
3.8158832e-07
0.0033311702
3.5849265e-07
0.0033308333
3.3689602e-07
0.0033305166
3.1668014e-07
0.0033302188
2.9774101e-07
0.0033299388
2.7998278e-07
0.0033296755
2.633212e-07
0.0033294278
2.4767765e-07
0.0033291948
2.3298305e-07
0.0033289756
2.1917193e-07
0.0033287694
2.0618693e-07
0.0033285754
1.9397291e-07
0.0033283929
1.8248177e-07
0.0033282212
1.7166648e-07
0.0033280597
1.614863e-07
0.0033279078
1.5190079e-07
0.003327765
1.4287519e-07
0.0033276306
1.3437433e-07
0.0033275042
1.2636831e-07
0.0033273854
1.1882639e-07
0.0033272737
1.1172273e-07
0.0033271686
1.0503021e-07
0.0033270699
9.8726386e-08
0.0033269771
9.2787269e-08
0.0033268899
8.7193314e-08
0.003326808
8.1923167e-08
0.003326731
7.6959744e-08
0.0033266587
7.2284022e-08
0.0033265909
6.7881092e-08
0.0033265271
6.3733896e-08
0.0033264673
5.9829386e-08
0.0033264111
5.6152282e-08
0.0033263584
5.2691206e-08
0.003326309
4.9432374e-08
0.0033262626
4.6365835e-08
0.0033262192
4.3479181e-08
0.0033261784
4.0763761e-08
0.0033261402
3.8208302e-08
0.0033261044
3.5805275e-08
0.0033260708
3.3544455e-08
0.0033260394
3.1419364e-08
0.00332601
2.9420608e-08
0.0033259825
2.754265e-08
0.0033259567
2.5776833e-08
0.0033259326
2.4118579e-08
0.00332591
2.2559716e-08
0.0033258889
2.1096626e-08
0.0033258692
1.9721447e-08
0.0033258508
1.8431714e-08
0.0033258336
1.7219441e-08
0.0033258175
1.6083603e-08
0.0033258025
1.5015585e-08
0.0033257884
1.4016453e-08
0.0033257754
1.3075976e-08
0.0033257632
1.219834e-08
0.0033257518
1.1370273e-08
0.0033257412
1.0600912e-08
0.0033257313
9.8715327e-09
0.0033257221
9.1990009e-09
0.0033257136
8.5557209e-09
0.0033257056
7.9703789e-09
0.0033256982
7.4018864e-09
0.0033256913
6.895501e-09
0.0033256849
6.3925647e-09
0.003325679
5.95684e-09
0.0033256734
5.5166734e-09
0.0033256683
5.1428108e-09
0.0033256635
4.7945075e-09
0.003325659
4.5055548e-09
4.588571e-09
0.0085708307
1.4664033e-06
0.0085690422
6.5332543e-06
0.0085656659
9.4068018e-06
0.0085616006
9.6786295e-06
0.0085575533
8.6143443e-06
0.0085537488
7.4287017e-06
0.0085501752
6.5531475e-06
0.0085467949
5.9393241e-06
0.0085436072
5.4376058e-06
0.0085406311
4.9654379e-06
0.008537877
4.5149181e-06
0.0085353377
4.1053784e-06
0.0085329951
3.7483727e-06
0.008530829
3.4410154e-06
0.0085288214
3.1732934e-06
0.0085269575
2.9356183e-06
0.0085252248
2.7217354e-06
0.0085236119
2.5281104e-06
0.0085221083
2.3524081e-06
0.0085207049
2.192566e-06
0.0085193933
2.0465981e-06
0.0085181661
1.9127198e-06
0.008517017
1.7894476e-06
0.0085159401
1.6755918e-06
0.0085149302
1.5701797e-06
0.0085139826
1.4723886e-06
0.0085130929
1.3814996e-06
0.0085122572
1.2968825e-06
0.008511472
1.217982e-06
0.008510734
1.1443126e-06
0.0085100401
1.0754444e-06
0.0085093876
1.010998e-06
0.0085087739
9.5063179e-07
0.0085081965
8.9404178e-07
0.0085076532
8.4095112e-07
0.0085071421
7.9111199e-07
0.0085066611
7.4429681e-07
0.0085062085
7.0030113e-07
0.0085057825
6.5893535e-07
0.0085053816
6.2002854e-07
0.0085050044
5.8342075e-07
0.0085046494
5.489676e-07
0.0085043153
5.1653284e-07
0.008504001
4.8599329e-07
0.0085037053
4.5723172e-07
0.008503427
4.3014231e-07
0.0085031653
4.0462351e-07
0.008502919
3.8058361e-07
0.0085026875
3.5793398e-07
0.0085024697
3.3659486e-07
0.0085022649
3.1648847e-07
0.0085020724
2.9754499e-07
0.0085018914
2.7969581e-07
0.0085017213
2.6287968e-07
0.0085015615
2.4703593e-07
0.0085014113
2.3211056e-07
0.0085012702
2.1804967e-07
0.0085011377
2.0480568e-07
0.0085010132
1.9233069e-07
0.0085008964
1.8058258e-07
0.0085007867
1.6951859e-07
0.0085006838
1.5910156e-07
0.0085005872
1.4929336e-07
0.0085004965
1.4006101e-07
0.0085004115
1.3137038e-07
0.0085003318
1.2319232e-07
0.0085002571
1.1549636e-07
0.008500187
1.0825656e-07
0.0085001214
1.0144562e-07
0.0085000599
9.5040532e-08
0.0085000023
8.9016974e-08
0.0084999484
8.3354332e-08
0.0084998979
7.8030933e-08
0.0084998506
7.3028264e-08
0.0084998064
6.8327338e-08
0.0084997651
6.3911083e-08
0.0084997264
5.9763195e-08
0.0084996903
5.5867516e-08
0.0084996565
5.2210927e-08
0.0084996249
4.8777029e-08
0.0084995954
4.5556689e-08
0.0084995679
4.2531785e-08
0.0084995423
3.9699049e-08
0.0084995183
3.7035749e-08
0.0084994959
3.4547672e-08
0.0084994751
3.2202921e-08
0.0084994557
3.0022354e-08
0.0084994376
2.7956643e-08
0.0084994208
2.6052089e-08
0.0084994051
2.4228006e-08
0.0084993905
2.2574615e-08
0.0084993769
2.0955388e-08
0.0084993643
1.953658e-08
0.0084993526
1.8083062e-08
0.0084993417
1.6895594e-08
0.0084993316
1.5565266e-08
0.0084993221
1.464044e-08
0.0084993135
1.3403036e-08
0.0084993051
1.2875857e-08
1.1656862e-08
0.012304595
1.0682623e-06
0.01230569
5.4391657e-06
0.012306683
8.4142027e-06
0.012307192
9.1694598e-06
0.012307314
8.4921862e-06
0.012307192
7.5500735e-06
0.012306878
6.8676605e-06
0.0123064
6.4171184e-06
0.012305792
6.0448455e-06
0.012305098
5.659696e-06
0.012304353
5.2597929e-06
0.012303583
4.8755544e-06
0.012302803
4.5277208e-06
0.012302025
4.2187356e-06
0.012301257
3.9412047e-06
0.012300505
3.687285e-06
0.012299775
3.452407e-06
0.012299068
3.2346066e-06
0.012298388
3.0327898e-06
0.012297734
2.8457598e-06
0.012297109
2.6721111e-06
0.012296511
2.5104652e-06
0.012295941
2.3596452e-06
0.012295398
2.2186955e-06
0.012294881
2.0868213e-06
0.01229439
1.9633244e-06
0.012293924
1.8475728e-06
0.012293482
1.73899e-06
0.012293063
1.6370551e-06
0.012292666
1.5412972e-06
0.01229229
1.4512916e-06
0.012291934
1.3666508e-06
0.012291598
1.2870212e-06
0.01229128
1.2120767e-06
0.012290979
1.1415187e-06
0.012290695
1.07507e-06
0.012290427
1.0124762e-06
0.012290174
9.5350001e-07
0.012289935
8.9792295e-07
0.012289709
8.4554002e-07
0.012289497
7.9616232e-07
0.012289296
7.4961166e-07
0.012289107
7.0572366e-07
0.012288928
6.6434255e-07
0.01228876
6.2532463e-07
0.012288602
5.8853309e-07
0.012288453
5.5384172e-07
0.012288312
5.2112984e-07
0.01228818
4.9028627e-07
0.012288055
4.6120423e-07
0.012287938
4.3378543e-07
0.012287827
4.0793509e-07
0.012287724
3.8356618e-07
0.012287626
3.6059441e-07
0.012287534
3.3894255e-07
0.012287447
3.1853546e-07
0.012287366
2.9930459e-07
0.01228729
2.811829e-07
0.012287218
2.6410942e-07
0.012287151
2.4802426e-07
0.012287087
2.3287322e-07
0.012287028
2.1860278e-07
0.012286972
2.051647e-07
0.012286919
1.9251105e-07
0.01228687
1.8059898e-07
0.012286824
1.6938556e-07
0.012286781
1.5883268e-07
0.01228674
1.489018e-07
0.012286702
1.3955914e-07
0.012286666
1.3077002e-07
0.012286633
1.2250459e-07
0.012286601
1.1473142e-07
0.012286572
1.0742439e-07
0.012286544
1.0055479e-07
0.012286519
9.410013e-08
0.012286495
8.8033595e-08
0.012286472
8.2336615e-08
0.012286451
7.6983305e-08
0.012286431
7.1959677e-08
0.012286413
6.7239078e-08
0.012286395
6.2813799e-08
0.012286379
5.8653677e-08
0.012286364
5.4760459e-08
0.01228635
5.1095506e-08
0.012286337
4.7676293e-08
0.012286325
4.4446852e-08
0.012286313
4.1451975e-08
0.012286303
3.8602079e-08
0.012286293
3.5991021e-08
0.012286284
3.3465854e-08
0.012286275
3.1209569e-08
0.012286267
2.8951285e-08
0.012286259
2.7036518e-08
0.012286252
2.4977915e-08
0.012286246
2.3417877e-08
0.01228624
2.1479274e-08
0.012286234
2.0334402e-08
0.012286229
1.8423836e-08
0.012286224
1.7808206e-08
1.5896131e-08
0.014712521
5.4684864e-07
0.014714983
2.977916e-06
0.014718615
4.7817941e-06
0.01472241
5.3740102e-06
0.014725827
5.0747491e-06
0.014728819
4.5584065e-06
0.014731492
4.1943273e-06
0.014733935
3.9737821e-06
0.014736181
3.7990379e-06
0.014738234
3.6059173e-06
0.014740102
3.3920156e-06
0.014741799
3.1789764e-06
0.014743344
2.9824898e-06
0.014744757
2.8056674e-06
0.014746053
2.6445367e-06
0.014747246
2.4945512e-06
0.014748345
2.3533147e-06
0.014749359
2.2201461e-06
0.014750297
2.0948745e-06
0.014751166
1.9771602e-06
0.014751971
1.8664411e-06
0.01475272
1.7621112e-06
0.014753416
1.6636536e-06
0.014754064
1.5706637e-06
0.014754667
1.4828093e-06
0.014755231
1.3997958e-06
0.014755757
1.3213438e-06
0.014756249
1.2471927e-06
0.014756709
1.1770958e-06
0.014757139
1.1108289e-06
0.014757542
1.0481797e-06
0.01475792
9.8895387e-07
0.014758274
9.3296417e-07
0.014758606
8.8003885e-07
0.014758918
8.3001055e-07
0.01475921
7.8272673e-07
0.014759484
7.3803753e-07
0.014759742
6.9580711e-07
0.014759984
6.5590088e-07
0.014760211
6.181977e-07
0.014760425
5.8257646e-07
0.014760626
5.4892893e-07
0.014760814
5.1714595e-07
0.014760991
4.8713093e-07
0.014761158
4.5878546e-07
0.014761315
4.320232e-07
0.014761462
4.0675534e-07
0.0147616
3.8290484e-07
0.01476173
3.6039157e-07
0.014761852
3.3914671e-07
0.014761966
3.1909785e-07
0.014762074
3.0018372e-07
0.014762175
2.8233892e-07
0.01476227
2.655088e-07
0.01476236
2.4963424e-07
0.014762444
2.346667e-07
0.014762522
2.2055275e-07
0.014762596
2.0724921e-07
0.014762666
1.9470775e-07
0.014762731
1.8289013e-07
0.014762792
1.7175266e-07
0.014762849
1.6126142e-07
0.014762903
1.5137686e-07
0.014762954
1.4206902e-07
0.014763001
1.3330215e-07
0.014763045
1.2504973e-07
0.014763087
1.1727936e-07
0.014763126
1.099677e-07
0.014763162
1.0308548e-07
0.014763196
9.6611986e-08
0.014763228
9.05208e-08
0.014763258
8.4793599e-08
0.014763286
7.9406701e-08
0.014763312
7.4343594e-08
0.014763337
6.9583312e-08
0.01476336
6.511067e-08
0.014763381
6.0907742e-08
0.014763401
5.6959675e-08
0.01476342
5.3252244e-08
0.014763438
4.9769605e-08
0.014763454
4.6502828e-08
0.014763469
4.3432436e-08
0.014763483
4.0557802e-08
0.014763497
3.7851371e-08
0.014763509
3.5326758e-08
0.01476352
3.2939849e-08
0.014763531
3.0729519e-08
0.014763541
2.8619858e-08
0.01476355
2.6695581e-08
0.014763559
2.4820885e-08
0.014763567
2.3163672e-08
0.014763575
2.1478043e-08
0.014763582
2.0081574e-08
0.014763588
1.8531725e-08
0.014763594
1.741019e-08
0.0147636
1.5933576e-08
0.014763605
1.5129796e-08
0.01476361
1.3645813e-08
0.014763614
1.3223234e-08
1.1795934e-08
0.015890825
3.4299105e-11
0.015893804
1.0688628e-10
0.015898586
4.9669284e-11
0.015903959
-8.2016896e-12
0.015909033
-1.8684166e-11
0.015913591
2.9775203e-11
0.015917785
9.2491619e-11
0.015921759
1.3369938e-10
0.015925558
1.4574502e-10
0.015929163
1.4750824e-10
0.015932555
1.491491e-10
0.015935734
1.5409127e-10
0.015938716
1.5615668e-10
0.015941521
1.549078e-10
0.015944166
1.4863118e-10
0.01594666
1.3992083e-10
0.015949013
1.289324e-10
0.015951233
1.1703674e-10
0.015953328
1.0418731e-10
0.015955305
9.0812278e-11
0.015957171
7.7317714e-11
0.015958933
6.3753031e-11
0.015960597
5.0929428e-11
0.015962167
3.8410758e-11
0.01596365
2.715132e-11
0.01596505
1.6298778e-11
0.015966371
7.1083845e-12
0.015967618
-1.3213899e-12
0.015968795
-9.1063508e-12
0.015969906
-1.6003209e-11
0.015970954
-2.1184993e-11
0.015971943
-2.6327576e-11
0.015972876
-2.9788804e-11
0.015973756
-3.3544569e-11
0.015974586
-3.5735987e-11
0.015975369
-3.8413569e-11
0.015976107
-3.9591194e-11
0.015976803
-4.1552285e-11
0.015977459
-4.2100468e-11
0.015978077
-4.3490196e-11
0.01597866
-4.3447448e-11
0.015979209
-4.4432088e-11
0.015979726
-4.4013123e-11
0.015980213
-4.4591892e-11
0.015980672
-4.3714162e-11
0.015981104
-4.3986467e-11
0.015981511
-4.2842514e-11
0.015981894
-4.2810125e-11
0.015982254
-4.1341304e-11
0.015982593
-4.1146138e-11
0.015982912
-3.9595647e-11
0.015983213
-3.9283813e-11
0.015983495
-3.7613852e-11
0.01598376
-3.7336571e-11
0.01598401
-3.5778947e-11
0.015984245
-3.5550148e-11
0.015984465
-3.4007555e-11
0.015984673
-3.3906282e-11
0.015984867
-3.2531138e-11
0.01598505
-3.2486552e-11
0.015985222
-3.1096584e-11
0.015985383
-3.1109806e-11
0.015985535
-2.9793709e-11
0.015985677
-2.9746879e-11
0.01598581
-2.8293952e-11
0.015985935
-2.817741e-11
0.015986053
-2.668414e-11
0.015986163
-2.6407333e-11
0.015986266
-2.4705811e-11
0.015986362
-2.4311005e-11
0.015986453
-2.2554414e-11
0.015986538
-2.2014987e-11
0.015986617
-2.0098578e-11
0.015986692
-1.9513787e-11
0.015986761
-1.7637348e-11
0.015986826
-1.7022726e-11
0.015986887
-1.5111936e-11
0.015986944
-1.4583773e-11
0.015986997
-1.284163e-11
0.015987047
-1.241578e-11
0.015987094
-1.0756898e-11
0.015987137
-1.05326e-11
0.015987178
-9.1344234e-12
0.015987216
-9.1113191e-12
0.015987251
-7.8624876e-12
0.015987284
-8.1169426e-12
0.015987315
-7.1760587e-12
0.015987343
-7.6938815e-12
0.01598737
-6.9535117e-12
0.015987395
-7.815497e-12
0.015987418
-7.5811052e-12
0.015987439
-9.08311e-12
0.01598746
-9.5224616e-12
0.015987478
-1.1492578e-11
0.015987495
-1.2151456e-11
0.015987511
-1.3033892e-11
0.015987527
-1.4189223e-11
0.01598754
-1.4569504e-11
0.015987553
-1.9487988e-11
-2.4022343e-11
0.015890824
-5.4690168e-07
0.015893803
-2.9782237e-06
0.015898585
-4.7821188e-06
0.015903959
-5.3742043e-06
0.015909033
-5.0747942e-06
0.015913591
-4.5583632e-06
0.015917785
-4.1942228e-06
0.015921759
-3.9736275e-06
0.015925558
-3.7988482e-06
0.015929163
-3.6056983e-06
0.015932555
-3.3917746e-06
0.015935734
-3.1787182e-06
0.015938716
-2.9822238e-06
0.015941521
-2.8054007e-06
0.015944166
-2.6442776e-06
0.01594666
-2.4943045e-06
0.015949013
-2.3530852e-06
0.015951233
-2.2199367e-06
0.015953328
-2.0946876e-06
0.015955305
-1.976997e-06
0.015957171
-1.8663022e-06
0.015958933
-1.7619965e-06
0.015960597
-1.6635623e-06
0.015962167
-1.570595e-06
0.01596365
-1.4827613e-06
0.01596505
-1.3997673e-06
0.015966371
-1.3213324e-06
0.015967618
-1.2471971e-06
0.015968795
-1.1771139e-06
0.015969906
-1.1108595e-06
0.015970954
-1.04822e-06
0.015971943
-9.8900311e-07
0.015972876
-9.330201e-07
0.015973756
-8.8010109e-07
0.015974586
-8.3007711e-07
0.015975369
-7.8279756e-07
0.015976107
-7.3811093e-07
0.015976803
-6.9588345e-07
0.015977459
-6.5597857e-07
0.015978077
-6.1827724e-07
0.01597866
-5.8265641e-07
0.015979209
-5.4900999e-07
0.015979726
-5.1722667e-07
0.015980213
-4.87212e-07
0.015980672
-4.5886547e-07
0.015981104
-4.3210302e-07
0.015981511
-4.0683354e-07
0.015981894
-3.8298228e-07
0.015982254
-3.6046692e-07
0.015982593
-3.3922103e-07
0.015982912
-3.1916985e-07
0.015983212
-3.0025447e-07
0.015983495
-2.8240724e-07
0.01598376
-2.6557597e-07
0.01598401
-2.496991e-07
0.015984245
-2.3473048e-07
0.015984465
-2.2061437e-07
0.015984673
-2.0731002e-07
0.015984867
-1.9476661e-07
0.01598505
-1.8294826e-07
0.015985222
-1.7180894e-07
0.015985383
-1.6131711e-07
0.015985535
-1.5143072e-07
0.015985677
-1.4212216e-07
0.01598581
-1.3335332e-07
0.015985935
-1.2510007e-07
0.015986052
-1.1732755e-07
0.015986162
-1.1001475e-07
0.015986266
-1.0313008e-07
0.015986362
-9.6655263e-08
0.015986453
-9.056142e-08
0.015986538
-8.4832605e-08
0.015986617
-7.9442863e-08
0.015986691
-7.4378091e-08
0.015986761
-6.9614926e-08
0.015986826
-6.5140551e-08
0.015986887
-6.0934787e-08
0.015986944
-5.6985183e-08
0.015986997
-5.3275124e-08
0.015987047
-4.9791119e-08
0.015987094
-4.6521985e-08
0.015987137
-4.345063e-08
0.015987178
-4.0574029e-08
0.015987215
-3.7866973e-08
0.015987251
-3.53408e-08
0.015987284
-3.2953791e-08
0.015987314
-3.0742393e-08
0.015987343
-2.8633068e-08
0.01598737
-2.6708235e-08
0.015987395
-2.4834533e-08
0.015987418
-2.317758e-08
0.015987439
-2.1493907e-08
0.015987459
-2.0098944e-08
0.015987478
-1.8552014e-08
0.015987495
-1.7431923e-08
0.015987511
-1.5957005e-08
0.015987526
-1.5154742e-08
0.01598754
-1.3670654e-08
0.015987553
-1.3255796e-08
-1.1834491e-08
0.014712521
-1.0682561e-06
0.014714983
-5.4390963e-06
0.014718615
-8.4141609e-06
0.01472241
-9.1694937e-06
0.014725827
-8.4922371e-06
0.014728819
-7.5501128e-06
0.014731492
-6.8676556e-06
0.014733935
-6.4170723e-06
0.014736181
-6.0447552e-06
0.014738235
-5.6595742e-06
0.014740102
-5.2596412e-06
0.014741799
-4.8753845e-06
0.014743344
-4.5275358e-06
0.014744757
-4.2185455e-06
0.014746053
-3.9410136e-06
0.014747246
-3.6871004e-06
0.014748345
-3.4522322e-06
0.01474936
-3.234446e-06
0.014750297
-3.0326455e-06
0.014751166
-2.8456333e-06
0.014751972
-2.6720035e-06
0.01475272
-2.5103759e-06
0.014753416
-2.3595747e-06
0.014754064
-2.2186419e-06
0.014754668
-2.0867849e-06
0.014755231
-1.9633022e-06
0.014755758
-1.8475652e-06
0.014756249
-1.7389934e-06
0.014756709
-1.6370704e-06
0.01475714
-1.5413205e-06
0.014757543
-1.4513241e-06
0.01475792
-1.3666883e-06
0.014758274
-1.2870654e-06
0.014758606
-1.2121237e-06
0.014758918
-1.1415707e-06
0.01475921
-1.075123e-06
0.014759485
-1.012533e-06
0.014759742
-9.5355665e-07
0.014759984
-8.9798243e-07
0.014760212
-8.4559847e-07
0.014760425
-7.9622308e-07
0.014760626
-7.4967078e-07
0.014760814
-7.0578452e-07
0.014760992
-6.6440118e-07
0.014761158
-6.2538466e-07
0.014761315
-5.8859045e-07
0.014761462
-5.5390004e-07
0.0147616
-5.2118507e-07
0.01476173
-4.9034228e-07
0.014761852
-4.6125693e-07
0.014761966
-4.3383867e-07
0.014762074
-4.0798487e-07
0.014762175
-3.8361658e-07
0.01476227
-3.6064142e-07
0.01476236
-3.3899019e-07
0.014762443
-3.185798e-07
0.014762522
-2.9934983e-07
0.014762596
-2.8122503e-07
0.014762665
-2.6415252e-07
0.014762731
-2.4806435e-07
0.014762792
-2.3291448e-07
0.014762849
-2.1864113e-07
0.014762903
-2.0520413e-07
0.014762953
-1.9254749e-07
0.014763001
-1.8063651e-07
0.014763045
-1.6942e-07
0.014763086
-1.5886795e-07
0.014763125
-1.4893376e-07
0.014763162
-1.3959182e-07
0.014763196
-1.3079923e-07
0.014763228
-1.2253422e-07
0.014763258
-1.1475739e-07
0.014763286
-1.0745075e-07
0.014763312
-1.0057744e-07
0.014763337
-9.4123027e-08
0.014763359
-8.8052769e-08
0.014763381
-8.2356185e-08
0.014763401
-7.6999304e-08
0.01476342
-7.1976136e-08
0.014763437
-6.7252141e-08
0.014763453
-6.2827651e-08
0.014763469
-5.8664443e-08
0.014763483
-5.4772228e-08
0.014763496
-5.110448e-08
0.014763508
-4.7686716e-08
0.01476352
-4.4454861e-08
0.014763531
-4.1461752e-08
0.014763541
-3.8609763e-08
0.01476355
-3.6001029e-08
0.014763558
-3.3474244e-08
0.014763567
-3.1220797e-08
0.014763574
-2.8961194e-08
0.014763581
-2.7050084e-08
0.014763587
-2.4990578e-08
0.014763593
-2.3434366e-08
0.014763599
-2.1495113e-08
0.014763604
-2.0351466e-08
0.014763609
-1.8439227e-08
0.014763613
-1.7823322e-08
-1.5912062e-08
0.012304595
-1.4663797e-06
0.01230569
-6.5330995e-06
0.012306683
-9.4065956e-06
0.012307192
-9.6785166e-06
0.012307314
-8.6143909e-06
0.012307192
-7.4288606e-06
0.012306878
-6.5533316e-06
0.0123064
-5.9394673e-06
0.012305793
-5.4376846e-06
0.012305098
-4.9654599e-06
0.012304353
-4.5148977e-06
0.012303583
-4.105329e-06
0.012302803
-3.7483011e-06
0.012302026
-3.4409279e-06
0.012301258
-3.1731956e-06
0.012300506
-2.9355167e-06
0.012299775
-2.7216355e-06
0.012299069
-2.5280161e-06
0.012298388
-2.3523223e-06
0.012297735
-2.1924903e-06
0.01229711
-2.0465336e-06
0.012296512
-1.9126663e-06
0.012295941
-1.7894056e-06
0.012295398
-1.6755604e-06
0.012294882
-1.5701588e-06
0.012294391
-1.4723766e-06
0.012293925
-1.3814962e-06
0.012293482
-1.2968861e-06
0.012293063
-1.2179924e-06
0.012292666
-1.1443279e-06
0.01229229
-1.0754646e-06
0.012291935
-1.0110213e-06
0.012291598
-9.5065851e-07
0.01229128
-8.9407011e-07
0.01229098
-8.4098157e-07
0.012290696
-7.9114313e-07
0.012290427
-7.443294e-07
0.012290174
-7.0033363e-07
0.012289935
-6.5896869e-07
0.012289709
-6.2006145e-07
0.012289497
-5.8345429e-07
0.012289296
-5.4900033e-07
0.012289107
-5.1656585e-07
0.012288928
-4.8602535e-07
0.01228876
-4.5726398e-07
0.012288602
-4.3017331e-07
0.012288453
-4.0465441e-07
0.012288312
-3.8061319e-07
0.01228818
-3.5796345e-07
0.012288055
-3.3662278e-07
0.012287938
-3.1651611e-07
0.012287827
-2.9757115e-07
0.012287723
-2.7972181e-07
0.012287626
-2.6290415e-07
0.012287534
-2.470602e-07
0.012287447
-2.321335e-07
0.012287366
-2.1807264e-07
0.01228729
-2.0482735e-07
0.012287218
-1.9235239e-07
0.01228715
-1.8060317e-07
0.012287087
-1.6953942e-07
0.012287027
-1.5912124e-07
0.012286972
-1.4931316e-07
0.012286919
-1.4007974e-07
0.01228687
-1.313893e-07
0.012286824
-1.2320999e-07
0.01228678
-1.15514e-07
0.01228674
-1.0827292e-07
0.012286701
-1.0146193e-07
0.012286666
-9.5055347e-08
0.012286632
-8.9031508e-08
0.012286601
-8.3367362e-08
0.012286571
-7.8043721e-08
0.012286544
-7.3039407e-08
0.012286518
-6.83381e-08
0.012286494
-6.3920313e-08
0.012286471
-5.9772212e-08
0.01228645
-5.5874992e-08
0.01228643
-5.2218187e-08
0.012286412
-4.8782983e-08
0.012286395
-4.5562711e-08
0.012286379
-4.2536592e-08
0.012286364
-3.9704012e-08
0.012286349
-3.7039799e-08
0.012286336
-3.4552223e-08
0.012286324
-3.2206687e-08
0.012286313
-3.0026767e-08
0.012286302
-2.7960592e-08
0.012286292
-2.6057085e-08
0.012286283
-2.4232675e-08
0.012286274
-2.2580443e-08
0.012286266
-2.0960895e-08
0.012286259
-1.9543206e-08
0.012286252
-1.808907e-08
0.012286245
-1.6903217e-08
0.012286239
-1.5573859e-08
0.012286234
-1.4647717e-08
0.012286229
-1.3409267e-08
0.012286224
-1.2873514e-08
-1.1650408e-08
0.0085708313
-1.3695648e-06
0.0085690428
-4.7433649e-06
0.0085656665
-6.0297895e-06
0.0085616013
-5.6133721e-06
0.0085575541
-4.5675409e-06
0.0085537494
-3.6246691e-06
0.0085501758
-2.9801306e-06
0.0085467954
-2.5593777e-06
0.0085436076
-2.2503052e-06
0.0085406315
-1.9896889e-06
0.0085378774
-1.7610732e-06
0.0085353381
-1.5662965e-06
0.0085329955
-1.4059595e-06
0.0085308293
-1.2749888e-06
0.0085288217
-1.1658016e-06
0.0085269579
-1.0718835e-06
0.0085252252
-9.8910811e-07
0.0085236123
-9.1523397e-07
0.0085221088
-8.4893639e-07
0.0085207054
-7.8917839e-07
0.0085193938
-7.3501895e-07
0.0085181666
-6.8564039e-07
0.0085170175
-6.4038378e-07
0.0085159406
-5.9874396e-07
0.0085149307
-5.6032057e-07
0.0085139831
-5.2478605e-07
0.0085130934
-4.9185296e-07
0.0085122577
-4.612743e-07
0.0085114725
-4.3282858e-07
0.0085107344
-4.0632826e-07
0.0085100405
-3.8160302e-07
0.008509388
-3.5850883e-07
0.0085087742
-3.3691105e-07
0.0085081968
-3.1669631e-07
0.0085076536
-2.9775568e-07
0.0085071424
-2.7999844e-07
0.0085066614
-2.6333509e-07
0.0085062087
-2.4769246e-07
0.0085057827
-2.3299604e-07
0.0085053818
-2.1918589e-07
0.0085050045
-2.0619898e-07
0.0085046495
-1.9398596e-07
0.0085043154
-1.8249293e-07
0.0085040011
-1.7167872e-07
0.0085037053
-1.6149656e-07
0.008503427
-1.5191212e-07
0.0085031652
-1.4288455e-07
0.008502919
-1.3438478e-07
0.0085026874
-1.2637671e-07
0.0085024696
-1.1883586e-07
0.0085022648
-1.1173019e-07
0.0085020723
-1.0503881e-07
0.0085018913
-9.8732946e-08
0.0085017212
-9.2795008e-08
0.0085015613
-8.7199133e-08
0.0085014111
-8.1930284e-08
0.00850127
-7.6964969e-08
0.0085011375
-7.2290606e-08
0.008501013
-6.7885915e-08
0.0085008961
-6.3740179e-08
0.0085007864
-5.9833905e-08
0.0085006835
-5.6158267e-08
0.0085005868
-5.2695495e-08
0.0085004962
-4.9438152e-08
0.0085004112
-4.6369842e-08
0.0085003314
-4.3484607e-08
0.0085002567
-4.076742e-08
0.0085001866
-3.8213348e-08
0.008500121
-3.5808441e-08
0.0085000595
-3.3548916e-08
0.0085000019
-3.1421949e-08
0.0084999479
-2.9424471e-08
0.0084998974
-2.7544557e-08
0.0084998502
-2.5779975e-08
0.008499806
-2.4119826e-08
0.0084997646
-2.2562245e-08
0.0084997259
-2.1097251e-08
0.0084996898
-1.9723378e-08
0.008499656
-1.8431867e-08
0.0084996244
-1.7221005e-08
0.008499595
-1.6083428e-08
0.0084995674
-1.5016882e-08
0.0084995418
-1.4016166e-08
0.0084995178
-1.3077278e-08
0.0084994954
-1.2198106e-08
0.0084994746
-1.1371689e-08
0.0084994552
-1.0600942e-08
0.0084994371
-9.8733206e-09
0.0084994202
-9.1994665e-09
0.0084994046
-8.5579586e-09
0.00849939
-7.9712311e-09
0.0084993764
-7.4041943e-09
0.0084993638
-6.8957068e-09
0.0084993521
-6.3940755e-09
0.0084993411
-5.9571548e-09
0.0084993311
-5.517799e-09
0.0084993216
-5.1431276e-09
0.008499313
-4.7958032e-09
0.0084993046
-4.4992045e-09
-4.5768575e-09
0.0033835965
0.0033788536
0.0033728239
0.0033672104
0.0033626426
0.0033590177
0.0033560374
0.0033534778
0.0033512273
0.0033492375
0.0033474762
0.0033459098
0.0033445037
0.0033432286
0.0033420627
0.0033409907
0.0033400016
0.0033390862
0.0033382372
0.003337448
0.0033367129
0.0033360272
0.0033353868
0.003334788
0.0033342277
0.0033337029
0.003333211
0.0033327497
0.0033323168
0.0033319105
0.0033315288
0.0033311703
0.0033308334
0.0033305167
0.0033302189
0.0033299389
0.0033296755
0.0033294278
0.0033291948
0.0033289756
0.0033287694
0.0033285754
0.0033283929
0.0033282213
0.0033280598
0.0033279078
0.0033277649
0.0033276306
0.0033275042
0.0033273853
0.0033272736
0.0033271686
0.0033270698
0.003326977
0.0033268898
0.0033268079
0.0033267309
0.0033266586
0.0033265908
0.003326527
0.0033264672
0.003326411
0.0033263583
0.0033263089
0.0033262625
0.003326219
0.0033261783
0.0033261401
0.0033261042
0.0033260707
0.0033260393
0.0033260099
0.0033259823
0.0033259565
0.0033259324
0.0033259099
0.0033258888
0.003325869
0.0033258506
0.0033258334
0.0033258173
0.0033258023
0.0033257883
0.0033257752
0.003325763
0.0033257516
0.003325741
0.0033257312
0.003325722
0.0033257134
0.0033257054
0.003325698
0.0033256911
0.0033256847
0.0033256788
0.0033256733
0.0033256681
0.0033256633
0.0033256588
)
;

boundaryField
{
    top
    {
        type            calculated;
        value           uniform 0;
    }
    inlet
    {
        type            calculated;
        value           nonuniform List<scalar> 10(-0.0033849642 -0.0085709266 -0.012304196 -0.014711998 -0.015890277 -0.015890276 -0.014711999 -0.012304196 -0.0085709272 -0.0033849655);
    }
    outlet
    {
        type            calculated;
        value           nonuniform List<scalar> 10(0.0033256544 0.0084992981 0.01228622 0.014763618 0.015987565 0.015987565 0.014763618 0.012286219 0.0084992975 0.0033256543);
    }
    bottom
    {
        type            calculated;
        value           uniform 0;
    }
    back
    {
        type            empty;
        value           nonuniform List<scalar> 0();
    }
    front
    {
        type            empty;
        value           nonuniform List<scalar> 0();
    }
}


// ************************************************************************* //
