/*--------------------------------*- C++ -*----------------------------------*\
| =========                 |                                                 |
| \\      /  F ield         | OpenFOAM: The Open Source CFD Toolbox           |
|  \\    /   O peration     | Version:  2112                                  |
|   \\  /    A nd           | Website:  www.openfoam.com                      |
|    \\/     M anipulation  |                                                 |
\*---------------------------------------------------------------------------*/
FoamFile
{
    version     2.0;
    format      ascii;
    arch        "LSB;label=32;scalar=64";
    class       volVectorField;
    location    "19";
    object      U;
}
// * * * * * * * * * * * * * * * * * * * * * * * * * * * * * * * * * * * * * //

dimensions      [0 1 -1 0 0 0 0];

internalField   nonuniform List<vector> 
1000
(
(0.3384635 0.00012029158 0)
(0.33820716 0.00036942624 0)
(0.33761832 0.00042418024 0)
(0.336999 0.00033913704 0)
(0.33647969 0.0002291458 0)
(0.33607177 0.00015326997 0)
(0.33574511 0.00011406576 0)
(0.33547046 9.4382862e-05 0)
(0.33523099 8.1088264e-05 0)
(0.33501943 6.9543401e-05 0)
(0.33483225 5.964927e-05 0)
(0.33466629 5.1988762e-05 0)
(0.33451811 4.6431197e-05 0)
(0.33438444 4.2328524e-05 0)
(0.33426269 3.9035933e-05 0)
(0.33415102 3.6167052e-05 0)
(0.33404814 3.357057e-05 0)
(0.33395306 3.120881e-05 0)
(0.33386497 2.9066468e-05 0)
(0.33378316 2.7119163e-05 0)
(0.33370704 2.5336931e-05 0)
(0.33363608 2.3694134e-05 0)
(0.33356985 2.2173194e-05 0)
(0.33350795 2.0762521e-05 0)
(0.33345005 1.9453277e-05 0)
(0.33339585 1.8237269e-05 0)
(0.33334506 1.7106626e-05 0)
(0.33329744 1.6053894e-05 0)
(0.33325277 1.5072455e-05 0)
(0.33321085 1.4156367e-05 0)
(0.33317148 1.3300446e-05 0)
(0.33313451 1.2499927e-05 0)
(0.33309976 1.1750606e-05 0)
(0.33306711 1.1048559e-05 0)
(0.33303641 1.0390351e-05 0)
(0.33300754 9.7727487e-06 0)
(0.3329804 9.1929466e-06 0)
(0.33295487 8.6482633e-06 0)
(0.33293085 8.1363886e-06 0)
(0.33290826 7.6550663e-06 0)
(0.332887 7.2023725e-06 0)
(0.33286701 6.7763943e-06 0)
(0.3328482 6.3755177e-06 0)
(0.3328305 5.9980989e-06 0)
(0.33281386 5.6427703e-06 0)
(0.3327982 5.3081105e-06 0)
(0.33278347 4.9929543e-06 0)
(0.33276962 4.6960559e-06 0)
(0.33275659 4.4164137e-06 0)
(0.33274434 4.1529331e-06 0)
(0.33273282 3.9047511e-06 0)
(0.33272199 3.670894e-06 0)
(0.33271181 3.4506137e-06 0)
(0.33270224 3.2430454e-06 0)
(0.33269324 3.0475414e-06 0)
(0.33268479 2.8633251e-06 0)
(0.33267686 2.6898334e-06 0)
(0.3326694 2.5263725e-06 0)
(0.3326624 2.3724554e-06 0)
(0.33265582 2.2274542e-06 0)
(0.33264965 2.0909465e-06 0)
(0.33264385 1.9623687e-06 0)
(0.33263841 1.8413568e-06 0)
(0.33263331 1.7273973e-06 0)
(0.33262853 1.6201755e-06 0)
(0.33262404 1.5192277e-06 0)
(0.33261983 1.4242849e-06 0)
(0.33261588 1.3349208e-06 0)
(0.33261218 1.2509045e-06 0)
(0.33260872 1.171848e-06 0)
(0.33260547 1.0975574e-06 0)
(0.33260243 1.0276709e-06 0)
(0.33259959 9.6202696e-07 0)
(0.33259692 9.0029106e-07 0)
(0.33259443 8.4233578e-07 0)
(0.3325921 7.8784045e-07 0)
(0.33258992 7.3671186e-07 0)
(0.33258788 6.8864067e-07 0)
(0.33258597 6.4357619e-07 0)
(0.33258419 6.0120045e-07 0)
(0.33258253 5.6151581e-07 0)
(0.33258098 5.2418081e-07 0)
(0.33257953 4.8927589e-07 0)
(0.33257817 4.5639596e-07 0)
(0.33257691 4.2573618e-07 0)
(0.33257573 3.9678166e-07 0)
(0.33257464 3.6990564e-07 0)
(0.33257361 3.4439999e-07 0)
(0.33257266 3.209018e-07 0)
(0.33257177 2.9841701e-07 0)
(0.33257095 2.7794902e-07 0)
(0.33257018 2.5813139e-07 0)
(0.33256947 2.4036536e-07 0)
(0.3325688 2.2301789e-07 0)
(0.33256819 2.0755144e-07 0)
(0.33256761 1.9297545e-07 0)
(0.33256709 1.7936482e-07 0)
(0.33256657 1.7010179e-07 0)
(0.33256617 1.6034065e-07 0)
(0.33256555 1.7687927e-07 0)
(0.85699554 0.00012937011 0)
(0.85723054 0.00059689997 0)
(0.85689139 0.00087368354 0)
(0.85639297 0.00089190849 0)
(0.85593806 0.00077272281 0)
(0.85554864 0.00063674775 0)
(0.85519294 0.00053461894 0)
(0.85485085 0.00046526475 0)
(0.85452122 0.00041295257 0)
(0.85421011 0.00036740509 0)
(0.85392185 0.00032622038 0)
(0.85365684 0.00029034382 0)
(0.85341309 0.00026039664 0)
(0.85318808 0.00023575399 0)
(0.85297968 0.00021516123 0)
(0.8527863 0.00019747099 0)
(0.85260663 0.00018193235 0)
(0.85243952 0.00016812216 0)
(0.85228387 0.00015577871 0)
(0.85213869 0.00014469314 0)
(0.85200309 0.00013467733 0)
(0.85187629 0.00012556894 0)
(0.8517576 0.00011723819 0)
(0.85164641 0.00010958526 0)
(0.85154217 0.00010253209 0)
(0.85144438 9.6014676e-05 0)
(0.8513526 8.9978391e-05 0)
(0.85126641 8.437587e-05 0)
(0.85118544 7.9166049e-05 0)
(0.85110934 7.4313292e-05 0)
(0.85103781 6.9786587e-05 0)
(0.85097054 6.5558636e-05 0)
(0.85090728 6.160529e-05 0)
(0.85084777 5.7904965e-05 0)
(0.85079179 5.4438378e-05 0)
(0.85073911 5.1188137e-05 0)
(0.85068954 4.8138612e-05 0)
(0.8506429 4.5275593e-05 0)
(0.850599 4.2586235e-05 0)
(0.85055769 4.0058754e-05 0)
(0.85051882 3.7682442e-05 0)
(0.85048223 3.5447412e-05 0)
(0.85044781 3.3344645e-05 0)
(0.85041541 3.136575e-05 0)
(0.85038493 2.9503043e-05 0)
(0.85035625 2.7749341e-05 0)
(0.85032927 2.6098052e-05 0)
(0.85030389 2.4542965e-05 0)
(0.85028002 2.3078374e-05 0)
(0.85025757 2.1698878e-05 0)
(0.85023646 2.0399513e-05 0)
(0.85021661 1.9175549e-05 0)
(0.85019795 1.8022638e-05 0)
(0.85018041 1.6936623e-05 0)
(0.85016393 1.5913688e-05 0)
(0.85014844 1.4950161e-05 0)
(0.85013389 1.4042674e-05 0)
(0.85012022 1.318798e-05 0)
(0.85010738 1.2383109e-05 0)
(0.85009533 1.1625175e-05 0)
(0.85008401 1.0911548e-05 0)
(0.85007338 1.0239667e-05 0)
(0.85006342 9.6072046e-06 0)
(0.85005406 9.0118775e-06 0)
(0.85004529 8.4516199e-06 0)
(0.85003706 7.9243969e-06 0)
(0.85002934 7.4283824e-06 0)
(0.85002211 6.9617527e-06 0)
(0.85001533 6.5228862e-06 0)
(0.85000898 6.1101497e-06 0)
(0.85000303 5.7221154e-06 0)
(0.84999746 5.3573061e-06 0)
(0.84999224 5.0144644e-06 0)
(0.84998736 4.6922487e-06 0)
(0.84998279 4.3895752e-06 0)
(0.84997851 4.1051986e-06 0)
(0.84997452 3.8382042e-06 0)
(0.84997078 3.5874091e-06 0)
(0.84996729 3.3521e-06 0)
(0.84996402 3.131088e-06 0)
(0.84996098 2.9239036e-06 0)
(0.84995813 2.7292648e-06 0)
(0.84995547 2.5470541e-06 0)
(0.84995299 2.3757358e-06 0)
(0.84995068 2.2157123e-06 0)
(0.84994852 2.0649511e-06 0)
(0.84994651 1.9246862e-06 0)
(0.84994464 1.7919755e-06 0)
(0.84994289 1.6693737e-06 0)
(0.84994127 1.5523953e-06 0)
(0.84993975 1.4457127e-06 0)
(0.84993835 1.3423151e-06 0)
(0.84993704 1.2501763e-06 0)
(0.84993582 1.1583484e-06 0)
(0.84993471 1.0798588e-06 0)
(0.84993362 9.9799313e-07 0)
(0.84993272 9.3350356e-07 0)
(0.84993168 8.6227558e-07 0)
(0.84993109 8.1718757e-07 0)
(0.84992987 7.7249169e-07 0)
(1.230224 0.00010298668 0)
(1.2308877 0.00054922715 0)
(1.2309081 0.00088932324 0)
(1.230759 0.0010027138 0)
(1.2306809 0.00095630111 0)
(1.2306813 0.00085868391 0)
(1.2306937 0.00077302784 0)
(1.2306758 0.00071097288 0)
(1.2306242 0.00066152712 0)
(1.2305532 0.00061451723 0)
(1.2304756 0.00056738684 0)
(1.2303974 0.00052209073 0)
(1.2303197 0.00048080652 0)
(1.2302421 0.00044417765 0)
(1.2301649 0.00041165703 0)
(1.2300886 0.00038239385 0)
(1.2300142 0.00035575102 0)
(1.2299421 0.00033136789 0)
(1.2298726 0.00030902816 0)
(1.2298058 0.00028854597 0)
(1.2297419 0.00026972959 0)
(1.2296807 0.00025239248 0)
(1.2296222 0.00023637025 0)
(1.2295666 0.00022152614 0)
(1.2295136 0.0002077465 0)
(1.2294632 0.00019493406 0)
(1.2294153 0.00018300316 0)
(1.2293699 0.00017187753 0)
(1.2293269 0.00016148927 0)
(1.2292861 0.00015177814 0)
(1.2292474 0.00014269053 0)
(1.2292109 0.00013417862 0)
(1.2291763 0.00012619938 0)
(1.2291436 0.00011871401 0)
(1.2291126 0.0001116873 0)
(1.2290834 0.00010508735 0)
(1.2290558 9.8884993e-05 0)
(1.2290298 9.3053677e-05 0)
(1.2290052 8.7568991e-05 0)
(1.228982 8.2408575e-05 0)
(1.2289601 7.7551763e-05 0)
(1.2289394 7.297955e-05 0)
(1.2289199 6.8674278e-05 0)
(1.2289016 6.461965e-05 0)
(1.2288842 6.0800453e-05 0)
(1.2288679 5.7202613e-05 0)
(1.2288526 5.3812936e-05 0)
(1.2288381 5.0619182e-05 0)
(1.2288244 4.7609835e-05 0)
(1.2288116 4.4774197e-05 0)
(1.2287995 4.2102171e-05 0)
(1.2287881 3.9584362e-05 0)
(1.2287774 3.7211873e-05 0)
(1.2287674 3.4976426e-05 0)
(1.2287579 3.2870164e-05 0)
(1.228749 3.0885768e-05 0)
(1.2287406 2.9016273e-05 0)
(1.2287327 2.72552e-05 0)
(1.2287253 2.5596368e-05 0)
(1.2287184 2.4034025e-05 0)
(1.2287118 2.2562675e-05 0)
(1.2287057 2.1177209e-05 0)
(1.2286999 1.9872738e-05 0)
(1.2286945 1.8644716e-05 0)
(1.2286894 1.7488785e-05 0)
(1.2286847 1.6400898e-05 0)
(1.2286802 1.5377177e-05 0)
(1.228676 1.4414008e-05 0)
(1.2286721 1.3507939e-05 0)
(1.2286684 1.2655737e-05 0)
(1.2286649 1.185434e-05 0)
(1.2286617 1.1100841e-05 0)
(1.2286586 1.0392533e-05 0)
(1.2286558 9.7267837e-06 0)
(1.2286531 9.1012372e-06 0)
(1.2286506 8.5134597e-06 0)
(1.2286483 7.9614568e-06 0)
(1.2286461 7.4429081e-06 0)
(1.2286441 6.9562406e-06 0)
(1.2286422 6.4991047e-06 0)
(1.2286404 6.0704687e-06 0)
(1.2286387 5.6677324e-06 0)
(1.2286372 5.2906639e-06 0)
(1.2286357 4.9360166e-06 0)
(1.2286343 4.6048321e-06 0)
(1.2286331 4.2925299e-06 0)
(1.2286319 4.0023246e-06 0)
(1.2286308 3.7270481e-06 0)
(1.2286298 3.4737358e-06 0)
(1.2286288 3.2303616e-06 0)
(1.2286279 3.0108458e-06 0)
(1.2286271 2.794123e-06 0)
(1.2286263 2.6066586e-06 0)
(1.2286256 2.4106549e-06 0)
(1.2286249 2.2556845e-06 0)
(1.2286243 2.073341e-06 0)
(1.2286237 1.9554459e-06 0)
(1.2286231 1.7791041e-06 0)
(1.2286228 1.71035e-06 0)
(1.2286221 1.5371216e-06 0)
(1.4709169 6.4695065e-05 0)
(1.4718558 0.00037170219 0)
(1.4720973 0.00063175212 0)
(1.472165 0.00074328555 0)
(1.4723457 0.00073443204 0)
(1.4726502 0.00067843248 0)
(1.4729852 0.00062496262 0)
(1.4732829 0.00058688522 0)
(1.4735287 0.00055750381 0)
(1.473737 0.00052878847 0)
(1.4739242 0.0004982008 0)
(1.4740981 0.00046715552 0)
(1.4742598 0.00043766901 0)
(1.4744086 0.00041065863 0)
(1.4745445 0.00038600509 0)
(1.4746686 0.00036322645 0)
(1.4747826 0.00034194177 0)
(1.4748878 0.00032196709 0)
(1.4749851 0.00030322679 0)
(1.4750752 0.00028566077 0)
(1.4751587 0.00026919079 0)
(1.4752363 0.00025372834 0)
(1.4753083 0.00023919046 0)
(1.4753754 0.00022550711 0)
(1.4754379 0.00021261976 0)
(1.4754961 0.00020047738 0)
(1.4755505 0.00018903322 0)
(1.4756013 0.0001782439 0)
(1.4756489 0.00016806899 0)
(1.4756933 0.00015847128 0)
(1.4757349 0.00014941628 0)
(1.4757739 0.00014087219 0)
(1.4758104 0.00013280921 0)
(1.4758447 0.00012519968 0)
(1.4758768 0.00011801751 0)
(1.475907 0.00011123846 0)
(1.4759353 0.00010483957 0)
(1.4759618 9.8799512e-05 0)
(1.4759868 9.3098027e-05 0)
(1.4760102 8.7716281e-05 0)
(1.4760322 8.2636317e-05 0)
(1.4760529 7.7841463e-05 0)
(1.4760724 7.331577e-05 0)
(1.4760906 6.9044446e-05 0)
(1.4761078 6.5013296e-05 0)
(1.4761239 6.1209174e-05 0)
(1.4761391 5.7619424e-05 0)
(1.4761533 5.4232348e-05 0)
(1.4761667 5.1036644e-05 0)
(1.4761793 4.8021894e-05 0)
(1.4761911 4.5177991e-05 0)
(1.4762022 4.2495649e-05 0)
(1.4762127 3.9965825e-05 0)
(1.4762225 3.7580235e-05 0)
(1.4762317 3.5330783e-05 0)
(1.4762403 3.3210077e-05 0)
(1.4762485 3.1210865e-05 0)
(1.4762561 2.9326553e-05 0)
(1.4762632 2.7550639e-05 0)
(1.47627 2.5877242e-05 0)
(1.4762763 2.4300534e-05 0)
(1.4762822 2.281527e-05 0)
(1.4762877 2.1416224e-05 0)
(1.4762929 2.0098718e-05 0)
(1.4762978 1.885807e-05 0)
(1.4763024 1.7690103e-05 0)
(1.4763067 1.6590624e-05 0)
(1.4763107 1.5555903e-05 0)
(1.4763145 1.4582189e-05 0)
(1.476318 1.3666145e-05 0)
(1.4763213 1.2804425e-05 0)
(1.4763244 1.1994026e-05 0)
(1.4763273 1.1231989e-05 0)
(1.47633 1.0515583e-05 0)
(1.4763325 9.8422299e-06 0)
(1.4763349 9.2093901e-06 0)
(1.4763371 8.6149006e-06 0)
(1.4763392 8.0562968e-06 0)
(1.4763411 7.5319179e-06 0)
(1.4763429 7.0391858e-06 0)
(1.4763446 6.5771389e-06 0)
(1.4763462 6.1427598e-06 0)
(1.4763476 5.7361729e-06 0)
(1.476349 5.3533383e-06 0)
(1.4763503 4.9962133e-06 0)
(1.4763515 4.6586722e-06 0)
(1.4763526 4.3459057e-06 0)
(1.4763536 4.0477557e-06 0)
(1.4763546 3.7752434e-06 0)
(1.4763555 3.5106379e-06 0)
(1.4763563 3.2755142e-06 0)
(1.4763571 3.0382228e-06 0)
(1.4763578 2.8392877e-06 0)
(1.4763585 2.6221046e-06 0)
(1.4763591 2.4606673e-06 0)
(1.4763598 2.2551062e-06 0)
(1.4763601 2.1363813e-06 0)
(1.4763608 1.9328178e-06 0)
(1.4763611 1.8665321e-06 0)
(1.4763618 1.6551521e-06 0)
(1.5886954 2.1939778e-05 0)
(1.5897695 0.00013008977 0)
(1.5901131 0.0002256787 0)
(1.5902764 0.00027030904 0)
(1.5905744 0.00027070213 0)
(1.5910247 0.00025239364 0)
(1.5915225 0.0002340767 0)
(1.5919856 0.00022124483 0)
(1.5923922 0.00021170429 0)
(1.592756 0.00020238456 0)
(1.5930951 0.00019219121 0)
(1.593418 0.00018159455 0)
(1.5937255 0.00017137467 0)
(1.5940162 0.00016192387 0)
(1.5942895 0.00015323014 0)
(1.5945463 0.00014512631 0)
(1.594788 0.00013747541 0)
(1.5950161 0.00013021535 0)
(1.5952315 0.0001233276 0)
(1.5954349 0.00011680068 0)
(1.5956269 0.00011061587 0)
(1.5958081 0.00010474946 0)
(1.5959792 9.917885e-05 0)
(1.5961408 9.3885563e-05 0)
(1.5962933 8.8854868e-05 0)
(1.5964372 8.4074202e-05 0)
(1.5965732 7.9532018e-05 0)
(1.5967015 7.5217306e-05 0)
(1.5968226 7.1119595e-05 0)
(1.5969369 6.7228952e-05 0)
(1.5970447 6.3535969e-05 0)
(1.5971465 6.0031703e-05 0)
(1.5972425 5.6707573e-05 0)
(1.597333 5.3555331e-05 0)
(1.5974185 5.0567024e-05 0)
(1.597499 4.7735003e-05 0)
(1.597575 4.5051892e-05 0)
(1.5976466 4.2510608e-05 0)
(1.5977141 4.0104323e-05 0)
(1.5977778 3.7826501e-05 0)
(1.5978378 3.5670843e-05 0)
(1.5978943 3.3631324e-05 0)
(1.5979476 3.1702152e-05 0)
(1.5979977 2.9877803e-05 0)
(1.598045 2.8152969e-05 0)
(1.5980895 2.6522594e-05 0)
(1.5981314 2.4981825e-05 0)
(1.5981708 2.3526057e-05 0)
(1.598208 2.215087e-05 0)
(1.5982429 2.0852071e-05 0)
(1.5982758 1.9625642e-05 0)
(1.5983067 1.8467783e-05 0)
(1.5983358 1.7374853e-05 0)
(1.5983632 1.6343407e-05 0)
(1.5983889 1.5370151e-05 0)
(1.5984131 1.4451977e-05 0)
(1.5984359 1.3585911e-05 0)
(1.5984573 1.2769148e-05 0)
(1.5984773 1.1999003e-05 0)
(1.5984962 1.1272958e-05 0)
(1.5985139 1.0588596e-05 0)
(1.5985306 9.9436482e-06 0)
(1.5985462 9.3359406e-06 0)
(1.5985608 8.7634381e-06 0)
(1.5985746 8.2241912e-06 0)
(1.5985875 7.7163664e-06 0)
(1.5985996 7.2382147e-06 0)
(1.598611 6.788092e-06 0)
(1.5986216 6.3644361e-06 0)
(1.5986316 5.9657603e-06 0)
(1.5986409 5.5906734e-06 0)
(1.5986497 5.237832e-06 0)
(1.5986579 4.9060125e-06 0)
(1.5986656 4.5939769e-06 0)
(1.5986728 4.3006694e-06 0)
(1.5986795 4.0249292e-06 0)
(1.5986858 3.7658917e-06 0)
(1.5986917 3.5224056e-06 0)
(1.5986972 3.2938451e-06 0)
(1.5987023 3.0789816e-06 0)
(1.5987071 2.8775375e-06 0)
(1.5987116 2.6880266e-06 0)
(1.5987158 2.5107258e-06 0)
(1.5987197 2.3435935e-06 0)
(1.5987234 2.1878612e-06 0)
(1.5987268 2.0403629e-06 0)
(1.59873 1.9040187e-06 0)
(1.598733 1.7735369e-06 0)
(1.5987357 1.6548663e-06 0)
(1.5987383 1.5387808e-06 0)
(1.5987406 1.4366204e-06 0)
(1.598743 1.3321003e-06 0)
(1.5987449 1.2460108e-06 0)
(1.598747 1.1498214e-06 0)
(1.5987486 1.0804665e-06 0)
(1.5987505 9.889612e-07 0)
(1.5987517 9.3853654e-07 0)
(1.5987537 8.4744855e-07 0)
(1.5987543 8.1929088e-07 0)
(1.5987565 7.2335231e-07 0)
(1.5886953 -2.1938592e-05 0)
(1.5897695 -0.0001300859 0)
(1.590113 -0.00022567855 0)
(1.5902763 -0.00027031318 0)
(1.5905744 -0.00027070508 0)
(1.5910247 -0.00025238788 0)
(1.5915225 -0.00023406056 0)
(1.5919855 -0.0002212207 0)
(1.5923921 -0.00021167631 0)
(1.592756 -0.00020235482 0)
(1.593095 -0.00019216064 0)
(1.593418 -0.00018156316 0)
(1.5937255 -0.00017134301 0)
(1.5940162 -0.00016189253 0)
(1.5942895 -0.00015319994 0)
(1.5945463 -0.00014509781 0)
(1.594788 -0.00013744906 0)
(1.5950161 -0.0001301914 0)
(1.5952315 -0.00012330623 0)
(1.5954349 -0.00011678201 0)
(1.5956269 -0.00011059991 0)
(1.5958081 -0.00010473622 0)
(1.5959792 -9.9168212e-05 0)
(1.5961408 -9.3877455e-05 0)
(1.5962933 -8.8849059e-05 0)
(1.5964373 -8.4070599e-05 0)
(1.5965732 -7.9530332e-05 0)
(1.5967015 -7.5217434e-05 0)
(1.5968226 -7.1121203e-05 0)
(1.5969369 -6.723194e-05 0)
(1.5970447 -6.3540031e-05 0)
(1.5971465 -6.0036786e-05 0)
(1.5972425 -5.6713395e-05 0)
(1.597333 -5.3561891e-05 0)
(1.5974185 -5.0574067e-05 0)
(1.597499 -4.7742564e-05 0)
(1.597575 -4.5059741e-05 0)
(1.5976466 -4.251882e-05 0)
(1.5977142 -4.0112691e-05 0)
(1.5977778 -3.7835117e-05 0)
(1.5978378 -3.5679505e-05 0)
(1.5978943 -3.3640147e-05 0)
(1.5979476 -3.171094e-05 0)
(1.5979977 -2.9886673e-05 0)
(1.598045 -2.816172e-05 0)
(1.5980895 -2.6531359e-05 0)
(1.5981314 -2.4990411e-05 0)
(1.5981708 -2.3534599e-05 0)
(1.598208 -2.2159175e-05 0)
(1.5982429 -2.0860292e-05 0)
(1.5982758 -1.96336e-05 0)
(1.5983067 -1.8475635e-05 0)
(1.5983358 -1.7382424e-05 0)
(1.5983632 -1.6350874e-05 0)
(1.5983889 -1.5377349e-05 0)
(1.5984131 -1.4459082e-05 0)
(1.5984359 -1.3592759e-05 0)
(1.5984572 -1.2775924e-05 0)
(1.5984773 -1.2005548e-05 0)
(1.5984962 -1.1279446e-05 0)
(1.5985139 -1.0594859e-05 0)
(1.5985305 -9.9498626e-06 0)
(1.5985462 -9.3419366e-06 0)
(1.5985608 -8.7693794e-06 0)
(1.5985746 -8.2298963e-06 0)
(1.5985875 -7.7220004e-06 0)
(1.5985996 -7.2435961e-06 0)
(1.5986109 -6.7933751e-06 0)
(1.5986216 -6.3694332e-06 0)
(1.5986316 -5.9706324e-06 0)
(1.5986409 -5.5952388e-06 0)
(1.5986497 -5.2422473e-06 0)
(1.5986579 -4.9100958e-06 0)
(1.5986656 -4.5978972e-06 0)
(1.5986727 -4.3042555e-06 0)
(1.5986795 -4.0283493e-06 0)
(1.5986858 -3.7689768e-06 0)
(1.5986917 -3.525338e-06 0)
(1.5986972 -3.2964666e-06 0)
(1.5987023 -3.0814734e-06 0)
(1.5987071 -2.8797417e-06 0)
(1.5987116 -2.6901374e-06 0)
(1.5987158 -2.5125927e-06 0)
(1.5987197 -2.3454088e-06 0)
(1.5987234 -2.189471e-06 0)
(1.5987268 -2.041972e-06 0)
(1.59873 -1.9054767e-06 0)
(1.5987329 -1.775048e-06 0)
(1.5987357 -1.6562757e-06 0)
(1.5987383 -1.540307e-06 0)
(1.5987406 -1.438127e-06 0)
(1.5987429 -1.3338316e-06 0)
(1.5987449 -1.2478662e-06 0)
(1.598747 -1.1520024e-06 0)
(1.5987486 -1.0828548e-06 0)
(1.5987505 -9.9148593e-07 0)
(1.5987517 -9.4127883e-07 0)
(1.5987536 -8.5013612e-07 0)
(1.5987543 -8.22706e-07 0)
(1.5987565 -7.2793032e-07 0)
(1.470917 -6.4695417e-05 0)
(1.4718558 -0.00037171108 0)
(1.4720973 -0.0006317695 0)
(1.472165 -0.00074330626 0)
(1.4723457 -0.00073444881 0)
(1.4726502 -0.00067844105 0)
(1.4729852 -0.00062496205 0)
(1.4732829 -0.00058687753 0)
(1.4735287 -0.000557491 0)
(1.473737 -0.00052877214 0)
(1.4739243 -0.00049818161 0)
(1.4740982 -0.00046713419 0)
(1.4742599 -0.00043764622 0)
(1.4744086 -0.00041063528 0)
(1.4745445 -0.00038598194 0)
(1.4746686 -0.00036320417 0)
(1.4747827 -0.00034192083 0)
(1.4748878 -0.00032194784 0)
(1.4749851 -0.0003032095 0)
(1.4750752 -0.00028564557 0)
(1.4751588 -0.0002691778 0)
(1.4752363 -0.00025371753 0)
(1.4753084 -0.00023918182 0)
(1.4753754 -0.00022550051 0)
(1.4754379 -0.00021261514 0)
(1.4754962 -0.00020047451 0)
(1.4755506 -0.00018903201 0)
(1.4756014 -0.0001782441 0)
(1.4756489 -0.00016807051 0)
(1.4756933 -0.00015847387 0)
(1.475735 -0.00014941987 0)
(1.4757739 -0.00014087653 0)
(1.4758105 -0.00013281426 0)
(1.4758447 -0.00012520523 0)
(1.4758768 -0.00011802355 0)
(1.475907 -0.0001112448 0)
(1.4759353 -0.00010484624 0)
(1.4759619 -9.8806355e-05 0)
(1.4759868 -9.3105093e-05 0)
(1.4760102 -8.7723407e-05 0)
(1.4760323 -8.2643583e-05 0)
(1.4760529 -7.7848718e-05 0)
(1.4760724 -7.3323097e-05 0)
(1.4760906 -6.9051692e-05 0)
(1.4761078 -6.5020554e-05 0)
(1.4761239 -6.1216299e-05 0)
(1.4761391 -5.7626511e-05 0)
(1.4761533 -5.423925e-05 0)
(1.4761667 -5.1043469e-05 0)
(1.4761793 -4.8028506e-05 0)
(1.4761911 -4.5184504e-05 0)
(1.4762022 -4.250193e-05 0)
(1.4762127 -3.9972e-05 0)
(1.4762225 -3.7586185e-05 0)
(1.4762317 -3.5336637e-05 0)
(1.4762403 -3.3215714e-05 0)
(1.4762484 -3.1216423e-05 0)
(1.4762561 -2.9331917e-05 0)
(1.4762632 -2.7555942e-05 0)
(1.4762699 -2.5882361e-05 0)
(1.4762762 -2.4305604e-05 0)
(1.4762822 -2.2820168e-05 0)
(1.4762877 -2.1421075e-05 0)
(1.4762929 -2.0103388e-05 0)
(1.4762978 -1.8862681e-05 0)
(1.4763024 -1.7694523e-05 0)
(1.4763066 -1.6594966e-05 0)
(1.4763107 -1.5560028e-05 0)
(1.4763144 -1.4586212e-05 0)
(1.476318 -1.3669931e-05 0)
(1.4763213 -1.2808088e-05 0)
(1.4763243 -1.1997428e-05 0)
(1.4763272 -1.1235251e-05 0)
(1.4763299 -1.0518577e-05 0)
(1.4763325 -9.8450783e-06 0)
(1.4763348 -9.2119662e-06 0)
(1.4763371 -8.617336e-06 0)
(1.4763391 -8.0584766e-06 0)
(1.4763411 -7.5339746e-06 0)
(1.4763429 -7.0410042e-06 0)
(1.4763446 -6.5788604e-06 0)
(1.4763461 -6.1442789e-06 0)
(1.4763476 -5.73763e-06 0)
(1.476349 -5.354625e-06 0)
(1.4763502 -4.997478e-06 0)
(1.4763514 -4.6598126e-06 0)
(1.4763525 -4.3470699e-06 0)
(1.4763536 -4.0488351e-06 0)
(1.4763545 -3.7763969e-06 0)
(1.4763554 -3.5117624e-06 0)
(1.4763562 -3.2767835e-06 0)
(1.4763571 -3.0395352e-06 0)
(1.4763577 -2.8408383e-06 0)
(1.4763585 -2.6237894e-06 0)
(1.476359 -2.4626009e-06 0)
(1.4763597 -2.257129e-06 0)
(1.4763601 -2.1385565e-06 0)
(1.4763608 -1.9349021e-06 0)
(1.476361 -1.868981e-06 0)
(1.4763617 -1.6580257e-06 0)
(1.230224 -0.00010298668 0)
(1.2308877 -0.00054922023 0)
(1.2309081 -0.00088931207 0)
(1.230759 -0.0010027061 0)
(1.2306809 -0.00095629903 0)
(1.2306813 -0.00085868681 0)
(1.2306937 -0.00077303198 0)
(1.2306758 -0.00071097547 0)
(1.2306243 -0.00066152597 0)
(1.2305532 -0.00061451226 0)
(1.2304756 -0.0005673784 0)
(1.2303974 -0.00052207986 0)
(1.2303197 -0.00048079381 0)
(1.2302422 -0.00044416389 0)
(1.2301649 -0.00041164272 0)
(1.2300887 -0.0003823796 0)
(1.2300142 -0.00035573729 0)
(1.2299421 -0.00033135508 0)
(1.2298726 -0.00030901655 0)
(1.2298059 -0.00028853571 0)
(1.2297419 -0.00026972083 0)
(1.2296807 -0.00025238519 0)
(1.2296223 -0.00023636449 0)
(1.2295666 -0.00022152178 0)
(1.2295136 -0.00020774353 0)
(1.2294632 -0.00019493228 0)
(1.2294154 -0.00018300255 0)
(1.22937 -0.00017187784 0)
(1.2293269 -0.00016149052 0)
(1.2292861 -0.00015178006 0)
(1.2292475 -0.00014269316 0)
(1.2292109 -0.00013418169 0)
(1.2291763 -0.00012620294 0)
(1.2291436 -0.00011871782 0)
(1.2291127 -0.00011169145 0)
(1.2290835 -0.0001050916 0)
(1.2290559 -9.8889488e-05 0)
(1.2290298 -9.3058183e-05 0)
(1.2290052 -8.7573659e-05 0)
(1.228982 -8.2413184e-05 0)
(1.2289601 -7.7556492e-05 0)
(1.2289394 -7.2984175e-05 0)
(1.2289199 -6.8678978e-05 0)
(1.2289016 -6.4624204e-05 0)
(1.2288843 -6.0805057e-05 0)
(1.2288679 -5.7207042e-05 0)
(1.2288526 -5.3817381e-05 0)
(1.2288381 -5.062342e-05 0)
(1.2288244 -4.7614076e-05 0)
(1.2288116 -4.4778219e-05 0)
(1.2287995 -4.2106179e-05 0)
(1.2287881 -3.958814e-05 0)
(1.2287774 -3.7215646e-05 0)
(1.2287673 -3.4979979e-05 0)
(1.2287579 -3.2873715e-05 0)
(1.2287489 -3.0889106e-05 0)
(1.2287406 -2.9019632e-05 0)
(1.2287327 -2.7258365e-05 0)
(1.2287253 -2.5599561e-05 0)
(1.2287183 -2.4037033e-05 0)
(1.2287118 -2.2565727e-05 0)
(1.2287056 -2.1180086e-05 0)
(1.2286999 -1.9875652e-05 0)
(1.2286945 -1.8647447e-05 0)
(1.2286894 -1.7491554e-05 0)
(1.2286846 -1.6403477e-05 0)
(1.2286801 -1.5379772e-05 0)
(1.2286759 -1.4416395e-05 0)
(1.228672 -1.3510331e-05 0)
(1.2286683 -1.2657908e-05 0)
(1.2286649 -1.1856494e-05 0)
(1.2286616 -1.1102757e-05 0)
(1.2286586 -1.0394429e-05 0)
(1.2286557 -9.7284387e-06 0)
(1.2286531 -9.1028622e-06 0)
(1.2286506 -8.5148414e-06 0)
(1.2286482 -7.9628216e-06 0)
(1.2286461 -7.4440445e-06 0)
(1.228644 -6.9573671e-06 0)
(1.2286421 -6.5000165e-06 0)
(1.2286403 -6.071399e-06 0)
(1.2286386 -5.6684758e-06 0)
(1.2286371 -5.2914451e-06 0)
(1.2286356 -4.9366336e-06 0)
(1.2286343 -4.6055245e-06 0)
(1.228633 -4.293091e-06 0)
(1.2286318 -4.0029885e-06 0)
(1.2286307 -3.7276064e-06 0)
(1.2286297 -3.4744424e-06 0)
(1.2286287 -3.2310001e-06 0)
(1.2286278 -3.0116744e-06 0)
(1.228627 -2.7949053e-06 0)
(1.2286262 -2.6076617e-06 0)
(1.2286255 -2.4116384e-06 0)
(1.2286248 -2.2568538e-06 0)
(1.2286242 -2.0745942e-06 0)
(1.2286237 -1.9566952e-06 0)
(1.2286231 -1.7803134e-06 0)
(1.2286227 -1.7113406e-06 0)
(1.228622 -1.5375943e-06 0)
(0.8569956 -0.00012936638 0)
(0.85723061 -0.00059688479 0)
(0.85689145 -0.00087366376 0)
(0.85639303 -0.00089189479 0)
(0.85593813 -0.00077272367 0)
(0.8555487 -0.00063676348 0)
(0.855193 -0.00053464333 0)
(0.85485091 -0.00046528939 0)
(0.85452127 -0.00041297227 0)
(0.85421016 -0.00036741835 0)
(0.85392189 -0.00032622836 0)
(0.85365687 -0.00029034794 0)
(0.85341312 -0.00026039808 0)
(0.85318811 -0.00023575334 0)
(0.85297972 -0.00021515909 0)
(0.85278634 -0.0001974679 0)
(0.85260667 -0.00018192885 0)
(0.85243956 -0.00016811867 0)
(0.85228392 -0.00015577552 0)
(0.85213874 -0.00014469043 0)
(0.85200314 -0.00013467516 0)
(0.85187634 -0.00012556741 0)
(0.85175765 -0.00011723724 0)
(0.85164646 -0.00010958492 0)
(0.85154222 -0.00010253226 0)
(0.85144443 -9.6015359e-05 0)
(0.85135265 -8.9979449e-05 0)
(0.85126646 -8.4377326e-05 0)
(0.85118548 -7.9167756e-05 0)
(0.85110939 -7.4315278e-05 0)
(0.85103785 -6.9788697e-05 0)
(0.85097058 -6.5560922e-05 0)
(0.85090732 -6.1607604e-05 0)
(0.85084781 -5.7907372e-05 0)
(0.85079182 -5.444074e-05 0)
(0.85073914 -5.1190549e-05 0)
(0.85068957 -4.8140943e-05 0)
(0.85064292 -4.5277946e-05 0)
(0.85059902 -4.258848e-05 0)
(0.85055771 -4.0061013e-05 0)
(0.85051883 -3.768459e-05 0)
(0.85048224 -3.5449566e-05 0)
(0.85044781 -3.3346676e-05 0)
(0.85041542 -3.1367787e-05 0)
(0.85038493 -2.9504957e-05 0)
(0.85035625 -2.7751254e-05 0)
(0.85032927 -2.6099829e-05 0)
(0.85030389 -2.4544741e-05 0)
(0.85028002 -2.3080015e-05 0)
(0.85025757 -2.1700512e-05 0)
(0.85023645 -2.0401007e-05 0)
(0.8502166 -1.9177043e-05 0)
(0.85019794 -1.8024003e-05 0)
(0.8501804 -1.6937992e-05 0)
(0.85016391 -1.5914931e-05 0)
(0.85014842 -1.4951423e-05 0)
(0.85013387 -1.4043828e-05 0)
(0.8501202 -1.3189161e-05 0)
(0.85010736 -1.2384186e-05 0)
(0.8500953 -1.1626293e-05 0)
(0.85008398 -1.0912575e-05 0)
(0.85007336 -1.0240734e-05 0)
(0.85006338 -9.6081765e-06 0)
(0.85005403 -9.0128926e-06 0)
(0.85004525 -8.4525421e-06 0)
(0.85003702 -7.9253515e-06 0)
(0.8500293 -7.4292299e-06 0)
(0.85002207 -6.9626277e-06 0)
(0.85001529 -6.523651e-06 0)
(0.85000894 -6.1109282e-06 0)
(0.85000299 -5.7227692e-06 0)
(0.84999742 -5.3579711e-06 0)
(0.8499922 -5.0150066e-06 0)
(0.84998731 -4.6927953e-06 0)
(0.84998274 -4.3899932e-06 0)
(0.84997847 -4.1056281e-06 0)
(0.84997447 -3.8385176e-06 0)
(0.84997073 -3.5877376e-06 0)
(0.84996724 -3.3523168e-06 0)
(0.84996398 -3.1313361e-06 0)
(0.84996093 -2.9240605e-06 0)
(0.84995808 -2.7294631e-06 0)
(0.84995542 -2.5471711e-06 0)
(0.84995294 -2.3759139e-06 0)
(0.84995063 -2.2158323e-06 0)
(0.84994847 -2.0651434e-06 0)
(0.84994646 -1.924832e-06 0)
(0.84994459 -1.7922125e-06 0)
(0.84994284 -1.6695903e-06 0)
(0.84994122 -1.5527152e-06 0)
(0.8499397 -1.4460158e-06 0)
(0.8499383 -1.3427044e-06 0)
(0.84993699 -1.2505093e-06 0)
(0.84993577 -1.158702e-06 0)
(0.84993465 -1.0802038e-06 0)
(0.84993357 -9.9841884e-07 0)
(0.84993266 -9.3378341e-07 0)
(0.84993163 -8.6266366e-07 0)
(0.84993104 -8.1683634e-07 0)
(0.84992982 -7.7128592e-07 0)
(0.33846363 -0.0001202859 0)
(0.33820725 -0.00036941551 0)
(0.33761837 -0.00042417188 0)
(0.33699905 -0.00033913639 0)
(0.33647974 -0.00022915657 0)
(0.33607181 -0.00015328934 0)
(0.33574514 -0.0001140878 0)
(0.33547046 -9.4401471e-05 0)
(0.33523099 -8.1101384e-05 0)
(0.33501942 -6.9551559e-05 0)
(0.33483223 -5.965447e-05 0)
(0.33466628 -5.1992219e-05 0)
(0.3345181 -4.6433686e-05 0)
(0.33438443 -4.2330182e-05 0)
(0.33426268 -3.9037023e-05 0)
(0.33415102 -3.6167744e-05 0)
(0.33404814 -3.3571114e-05 0)
(0.33395306 -3.1209339e-05 0)
(0.33386497 -2.9067054e-05 0)
(0.33378317 -2.7119847e-05 0)
(0.33370705 -2.5337679e-05 0)
(0.3336361 -2.3694988e-05 0)
(0.33356987 -2.2174087e-05 0)
(0.33350797 -2.076351e-05 0)
(0.33345007 -1.9454263e-05 0)
(0.33339586 -1.8238327e-05 0)
(0.33334508 -1.7107645e-05 0)
(0.33329746 -1.6054969e-05 0)
(0.33325279 -1.5073456e-05 0)
(0.33321087 -1.4157404e-05 0)
(0.3331715 -1.3301386e-05 0)
(0.33313452 -1.2500896e-05 0)
(0.33309978 -1.1751455e-05 0)
(0.33306712 -1.1049428e-05 0)
(0.33303642 -1.0391097e-05 0)
(0.33300755 -9.7735234e-06 0)
(0.33298041 -9.1935922e-06 0)
(0.33295487 -8.6489405e-06 0)
(0.33293085 -8.1369428e-06 0)
(0.33290826 -7.6556668e-06 0)
(0.33288701 -7.2028507e-06 0)
(0.33286701 -6.7769218e-06 0)
(0.3328482 -6.3759296e-06 0)
(0.3328305 -5.9985714e-06 0)
(0.33281386 -5.6431248e-06 0)
(0.3327982 -5.3085236e-06 0)
(0.33278347 -4.9932528e-06 0)
(0.33276961 -4.6964205e-06 0)
(0.33275658 -4.4166601e-06 0)
(0.33274433 -4.1532422e-06 0)
(0.33273281 -3.9049466e-06 0)
(0.33272198 -3.6711614e-06 0)
(0.3327118 -3.450767e-06 0)
(0.33270223 -3.2432697e-06 0)
(0.33269324 -3.0476597e-06 0)
(0.33268479 -2.8635258e-06 0)
(0.33267685 -2.6899299e-06 0)
(0.33266939 -2.526551e-06 0)
(0.33266239 -2.3725373e-06 0)
(0.33265581 -2.2276275e-06 0)
(0.33264964 -2.0910226e-06 0)
(0.33264384 -1.9625319e-06 0)
(0.3326384 -1.8414265e-06 0)
(0.3326333 -1.7275589e-06 0)
(0.33262851 -1.6202387e-06 0)
(0.33262402 -1.5193746e-06 0)
(0.33261981 -1.424334e-06 0)
(0.33261587 -1.3350557e-06 0)
(0.33261217 -1.2509353e-06 0)
(0.3326087 -1.171956e-06 0)
(0.33260546 -1.0975626e-06 0)
(0.33260242 -1.027757e-06 0)
(0.33259957 -9.6200659e-07 0)
(0.33259691 -9.0034611e-07 0)
(0.33259442 -8.4228912e-07 0)
(0.33259208 -7.8787675e-07 0)
(0.3325899 -7.3664654e-07 0)
(0.33258786 -6.8865626e-07 0)
(0.33258596 -6.4349818e-07 0)
(0.33258418 -6.0121343e-07 0)
(0.33258251 -5.6143732e-07 0)
(0.33258096 -5.2419248e-07 0)
(0.33257951 -4.8920463e-07 0)
(0.33257816 -4.5642465e-07 0)
(0.33257689 -4.2568355e-07 0)
(0.33257572 -3.9682738e-07 0)
(0.33257462 -3.6987744e-07 0)
(0.3325736 -3.4447878e-07 0)
(0.33257264 -3.2090899e-07 0)
(0.33257176 -2.9852631e-07 0)
(0.33257093 -2.7797629e-07 0)
(0.33257016 -2.5823453e-07 0)
(0.33256945 -2.4032686e-07 0)
(0.33256878 -2.2303477e-07 0)
(0.33256817 -2.0750585e-07 0)
(0.33256759 -1.9294322e-07 0)
(0.33256707 -1.7928213e-07 0)
(0.33256655 -1.7004406e-07 0)
(0.33256615 -1.5970635e-07 0)
(0.33256554 -1.7593144e-07 0)
)
;

boundaryField
{
    top
    {
        type            fixedValue;
        value           uniform (0 0 0);
    }
    inlet
    {
        type            pressureNormalInletOutletVelocity;
        phi             phi;
        rho             rho;