/*--------------------------------*- C++ -*----------------------------------*\
| =========                 |                                                 |
| \\      /  F ield         | OpenFOAM: The Open Source CFD Toolbox           |
|  \\    /   O peration     | Version:  v1812                                 |
|   \\  /    A nd           | Web:      www.OpenFOAM.com                      |
|    \\/     M anipulation  |                                                 |
\*---------------------------------------------------------------------------*/
FoamFile
{
    version     2.0;
    format      ascii;
    class       volVectorField;
    location    "17.1";
    object      U;
}
// * * * * * * * * * * * * * * * * * * * * * * * * * * * * * * * * * * * * * //

dimensions      [0 1 -1 0 0 0 0];


internalField   nonuniform List<vector> 
1000
(
(0.91890839 0.035821912 0)
(0.86271384 0.062195638 0)
(0.7870597 0.062510089 0)
(0.69536033 0.054550394 0)
(0.61089745 0.04453165 0)
(0.54411592 0.034015971 0)
(0.49343012 0.02418754 0)
(0.45479414 0.01614423 0)
(0.42544583 0.010265786 0)
(0.40347313 0.0063041453 0)
(0.38715767 0.0037976293 0)
(0.3749622 0.0023103382 0)
(0.36566193 0.001493015 0)
(0.35836272 0.0010851183 0)
(0.35244268 0.00090607198 0)
(0.34748201 0.00084105104 0)
(0.34320348 0.00082372346 0)
(0.33942726 0.00081930988 0)
(0.33603793 0.00081185197 0)
(0.33296114 0.00079580153 0)
(0.33014778 0.00077081221 0)
(0.32756384 0.00073871019 0)
(0.3251842 0.00070188975 0)
(0.32298902 0.00066256564 0)
(0.32096172 0.00062249906 0)
(0.31908785 0.00058295644 0)
(0.31735449 0.00054477067 0)
(0.31574996 0.00050843336 0)
(0.3142636 0.00047419145 0)
(0.31288575 0.00044212485 0)
(0.31160756 0.00041221026 0)
(0.31042101 0.00038436263 0)
(0.30931883 0.00035846587 0)
(0.30829438 0.00033439084 0)
(0.30734165 0.00031200656 0)
(0.30645515 0.00029118685 0)
(0.30562991 0.00027181303 0)
(0.30486136 0.00025377554 0)
(0.30414535 0.00023697367 0)
(0.30347807 0.00022131477 0)
(0.30285601 0.00020671502 0)
(0.30227596 0.00019309682 0)
(0.30173496 0.00018039005 0)
(0.30123029 0.00016852996 0)
(0.30075942 0.00015745733 0)
(0.30032002 0.00014711827 0)
(0.29990993 0.00013746233 0)
(0.29952715 0.00012844406 0)
(0.29916983 0.0001200205 0)
(0.29883624 0.00011215135 0)
(0.29852478 0.00010480009 0)
(0.29823397 9.7931155e-05 0)
(0.29796241 9.1512423e-05 0)
(0.29770882 8.5513696e-05 0)
(0.29747201 7.9906501e-05 0)
(0.29725084 7.4665988e-05 0)
(0.29704429 6.9767597e-05 0)
(0.29685137 6.5190826e-05 0)
(0.2966712 6.091475e-05 0)
(0.29650291 5.6919785e-05 0)
(0.29634572 5.3187689e-05 0)
(0.2961989 4.9700026e-05 0)
(0.29606176 4.6440393e-05 0)
(0.29593366 4.3392865e-05 0)
(0.295814 4.0542923e-05 0)
(0.29570223 3.787844e-05 0)
(0.29559783 3.5387603e-05 0)
(0.29550031 3.3060315e-05 0)
(0.29540922 3.0887966e-05 0)
(0.29532413 2.8859691e-05 0)
(0.29524465 2.6966786e-05 0)
(0.2951704 2.5198738e-05 0)
(0.29510104 2.3545407e-05 0)
(0.29503625 2.199831e-05 0)
(0.29497572 2.0549875e-05 0)
(0.29491918 1.9194126e-05 0)
(0.29486637 1.7927517e-05 0)
(0.29481705 1.6744395e-05 0)
(0.29477097 1.5643076e-05 0)
(0.29472793 1.4616427e-05 0)
(0.29468773 1.3660584e-05 0)
(0.29465016 1.2766814e-05 0)
(0.29461507 1.1930694e-05 0)
(0.29458229 1.1144667e-05 0)
(0.29455167 1.0407794e-05 0)
(0.29452308 9.7132691e-06 0)
(0.29449636 9.0725695e-06 0)
(0.29447142 8.4703617e-06 0)
(0.2944481 7.9183187e-06 0)
(0.29442633 7.3969569e-06 0)
(0.29440598 6.9261046e-06 0)
(0.294387 6.472649e-06 0)
(0.2943692 6.0617913e-06 0)
(0.29435259 5.6504054e-06 0)
(0.29433714 5.2891357e-06 0)
(0.29432249 4.968599e-06 0)
(0.29430919 4.6878775e-06 0)
(0.29429569 4.5389606e-06 0)
(0.29428502 4.405663e-06 0)
(0.29426874 5.057504e-06 0)
(1.0016583 0.05381943 0)
(1.0359761 0.10128443 0)
(1.0597199 0.11073663 0)
(1.0628947 0.10592201 0)
(1.0515569 0.096228725 0)
(1.0340529 0.083934059 0)
(1.0142795 0.070327062 0)
(0.99360703 0.056981334 0)
(0.97292577 0.045107479 0)
(0.9531074 0.03523675 0)
(0.93479539 0.02740165 0)
(0.91829012 0.021387227 0)
(0.90362379 0.016884499 0)
(0.89068068 0.013569709 0)
(0.87928175 0.011147748 0)
(0.86923242 0.0093736578 0)
(0.86034424 0.0080569271 0)
(0.85244667 0.0070571265 0)
(0.84539242 0.0062752379 0)
(0.83905793 0.0056438286 0)
(0.83334127 0.0051180915 0)
(0.82815884 0.0046686728 0)
(0.82344213 0.0042764175 0)
(0.81913467 0.0039287383 0)
(0.81518962 0.0036172025 0)
(0.81156765 0.0033359687 0)
(0.80823544 0.0030808022 0)
(0.8051644 0.0028484673 0)
(0.80232979 0.0026363683 0)
(0.79971 0.0024423381 0)
(0.79728598 0.0022645192 0)
(0.79504087 0.0021012909 0)
(0.79295963 0.0019512266 0)
(0.79102881 0.0018130642 0)
(0.78923628 0.0016856842 0)
(0.7875711 0.0015680923 0)
(0.78602338 0.0014594047 0)
(0.78458412 0.0013588343 0)
(0.78324511 0.0012656791 0)
(0.78199889 0.001179311 0)
(0.78083861 0.0010991674 0)
(0.77975799 0.0010247424 0)
(0.77875128 0.00095558037 0)
(0.77781318 0.00089126992 0)
(0.77693881 0.00083143807 0)
(0.77612368 0.00077574675 0)
(0.77536362 0.00072388783 0)
(0.77465481 0.00067558037 0)
(0.77399367 0.00063056706 0)
(0.77337693 0.00058861101 0)
(0.77280153 0.00054949485 0)
(0.77226464 0.00051301747 0)
(0.77176363 0.00047899312 0)
(0.77129606 0.00044725067 0)
(0.77085967 0.0004176312 0)
(0.77045234 0.00038998933 0)
(0.77007211 0.00036418991 0)
(0.76971717 0.00034010947 0)
(0.76938581 0.00031763255 0)
(0.76907644 0.00029665113 0)
(0.7687876 0.00027706445 0)
(0.76851791 0.00025877772 0)
(0.7682661 0.00024170223 0)
(0.76803096 0.00022575564 0)
(0.76781139 0.00021086124 0)
(0.76760635 0.00019694913 0)
(0.76741488 0.00018395489 0)
(0.76723608 0.0001718192 0)
(0.7670691 0.00016048788 0)
(0.76691315 0.00014990809 0)
(0.76676752 0.00014003066 0)
(0.7666315 0.00013080684 0)
(0.76650446 0.00012219097 0)
(0.76638582 0.00011413971 0)
(0.76627501 0.00010661536 0)
(0.76617152 9.9582051e-05 0)
(0.76607486 9.301214e-05 0)
(0.76598458 8.6874644e-05 0)
(0.76590026 8.1148703e-05 0)
(0.76582151 7.5802706e-05 0)
(0.76574794 7.0817866e-05 0)
(0.76567924 6.6157745e-05 0)
(0.76561504 6.1808946e-05 0)
(0.76555512 5.7732588e-05 0)
(0.7654991 5.3930277e-05 0)
(0.76544684 5.03551e-05 0)
(0.76539796 4.7038004e-05 0)
(0.76535239 4.3921201e-05 0)
(0.76530971 4.1053582e-05 0)
(0.76526997 3.8323428e-05 0)
(0.76523272 3.5844836e-05 0)
(0.76519804 3.3463934e-05 0)
(0.76516555 3.1331904e-05 0)
(0.76513516 2.9189306e-05 0)
(0.76510713 2.7363997e-05 0)
(0.76507998 2.5517105e-05 0)
(0.76505663 2.4071202e-05 0)
(0.76503058 2.2555015e-05 0)
(0.76501446 2.1597468e-05 0)
(0.76498346 2.0993622e-05 0)
(1.0014244 0.026824854 0)
(1.0291272 0.06279135 0)
(1.0654292 0.077736549 0)
(1.098962 0.080597196 0)
(1.1253149 0.078285167 0)
(1.145053 0.073153897 0)
(1.1594858 0.066111277 0)
(1.1694287 0.058162063 0)
(1.1755354 0.050296754 0)
(1.1785738 0.043150707 0)
(1.1793571 0.036972824 0)
(1.178595 0.031771631 0)
(1.1768304 0.027451838 0)
(1.1744518 0.023886766 0)
(1.1717287 0.020947618 0)
(1.1688444 0.018515779 0)
(1.1659195 0.016488084 0)
(1.1630317 0.014779502 0)
(1.1602295 0.013322985 0)
(1.1575415 0.012067132 0)
(1.1549828 0.010973 0)
(1.1525601 0.010011061 0)
(1.1502747 0.0091587461 0)
(1.1481246 0.0083986033 0)
(1.1461059 0.0077169493 0)
(1.1442134 0.0071028868 0)
(1.1424414 0.0065475905 0)
(1.1407838 0.0060437941 0)
(1.1392344 0.0055854249 0)
(1.1377869 0.0051673438 0)
(1.1364353 0.0047851567 0)
(1.1351738 0.0044350763 0)
(1.1339968 0.0041138172 0)
(1.1328987 0.0038185134 0)
(1.1318746 0.0035466533 0)
(1.1309195 0.003296027 0)
(1.1300289 0.0030646827 0)
(1.1291985 0.0028508901 0)
(1.1284242 0.0026531099 0)
(1.1277022 0.0024699684 0)
(1.1270291 0.0023002358 0)
(1.1264014 0.0021428077 0)
(1.1258161 0.0019966891 0)
(1.1252702 0.0018609817 0)
(1.1247612 0.0017348719 0)
(1.1242865 0.0016176211 0)
(1.1238437 0.0015085574 0)
(1.1234307 0.0014070676 0)
(1.1230455 0.0013125909 0)
(1.1226861 0.0012246135 0)
(1.1223509 0.0011426639 0)
(1.1220381 0.0010663078 0)
(1.1217462 0.00099514578 0)
(1.1214739 0.00092880924 0)
(1.1212198 0.00086695846 0)
(1.1209827 0.00080927997 0)
(1.1207614 0.00075548463 0)
(1.1205548 0.00070530494 0)
(1.1203621 0.0006584925 0)
(1.1201821 0.00061481637 0)
(1.1200142 0.00057406211 0)
(1.1198574 0.00053602969 0)
(1.1197111 0.00050053325 0)
(1.1195745 0.00046739997 0)
(1.1194469 0.00043647011 0)
(1.1193278 0.00040759533 0)
(1.1192167 0.00038063867 0)
(1.1191129 0.00035547276 0)
(1.119016 0.00033197923 0)
(1.1189255 0.00031004609 0)
(1.118841 0.00028956944 0)
(1.1187621 0.00027044907 0)
(1.1186884 0.00025259407 0)
(1.1186197 0.00023591671 0)
(1.1185554 0.00022034095 0)
(1.1184954 0.00020579116 0)
(1.1184394 0.00019220569 0)
(1.1183871 0.00017951687 0)
(1.1183382 0.00016767549 0)
(1.1182926 0.00015661411 0)
(1.11825 0.00014629448 0)
(1.1182103 0.00013664338 0)
(1.118173 0.00012764301 0)
(1.1181384 0.00011921042 0)
(1.1181059 0.00011135865 0)
(1.1180757 0.00010398376 0)
(1.1180473 9.715225e-05 0)
(1.1180211 9.0704011e-05 0)
(1.1179963 8.478585e-05 0)
(1.1179734 7.9128875e-05 0)
(1.1179516 7.4028592e-05 0)
(1.1179318 6.901826e-05 0)
(1.1179128 6.4661839e-05 0)
(1.1178955 6.0140551e-05 0)
(1.117879 5.656119e-05 0)
(1.1178635 5.2425025e-05 0)
(1.11785 4.9742741e-05 0)
(1.1178349 4.5805773e-05 0)
(1.1178261 4.4319884e-05 0)
(1.1178083 4.0576085e-05 0)
(1.0007347 0.011814721 0)
(1.0178472 0.030860924 0)
(1.0462163 0.041434438 0)
(1.0799018 0.045193566 0)
(1.1132664 0.045502348 0)
(1.143782 0.044080305 0)
(1.1708941 0.04143998 0)
(1.1945687 0.037973676 0)
(1.2148582 0.034195728 0)
(1.2319652 0.030536886 0)
(1.2462683 0.027222043 0)
(1.2582339 0.024313919 0)
(1.2683135 0.021797886 0)
(1.2768875 0.019633657 0)
(1.2842554 0.017773824 0)
(1.2906479 0.01616965 0)
(1.296243 0.014775589 0)
(1.3011791 0.013552297 0)
(1.3055645 0.012467863 0)
(1.3094838 0.011497465 0)
(1.3130042 0.010622161 0)
(1.3161792 0.0098275118 0)
(1.3190526 0.0091024092 0)
(1.3216607 0.0084381749 0)
(1.3240343 0.0078279024 0)
(1.3261995 0.0072659735 0)
(1.3281786 0.0067477082 0)
(1.3299913 0.0062691163 0)
(1.3316544 0.0058267267 0)
(1.3331829 0.0054174722 0)
(1.3345896 0.0050386109 0)
(1.3358862 0.0046876723 0)
(1.3370827 0.0043624182 0)
(1.3381883 0.0040608136 0)
(1.3392108 0.0037810036 0)
(1.3401576 0.0035212947 0)
(1.3410349 0.0032801386 0)
(1.3418486 0.0030561181 0)
(1.3426038 0.0028479348 0)
(1.3433051 0.0026543985 0)
(1.3439569 0.0024744168 0)
(1.3445629 0.0023069867 0)
(1.3451267 0.0021511861 0)
(1.3456513 0.0020061668 0)
(1.3461398 0.0018711477 0)
(1.3465947 0.0017454092 0)
(1.3470185 0.0016282874 0)
(1.3474135 0.0015191692 0)
(1.3477816 0.0014174881 0)
(1.3481249 0.00132272 0)
(1.3484449 0.0012343805 0)
(1.3487435 0.0011520204 0)
(1.349022 0.0010752238 0)
(1.3492818 0.0010036053 0)
(1.3495242 0.00093680768 0)
(1.3497505 0.00087450026 0)
(1.3499616 0.00081637575 0)
(1.3501587 0.0007621487 0)
(1.3503427 0.00071155322 0)
(1.3505145 0.00066434184 0)
(1.3506748 0.00062028449 0)
(1.3508245 0.00057916685 0)
(1.3509643 0.00054078994 0)
(1.3510948 0.00050496832 0)
(1.3512167 0.00047153045 0)
(1.3513305 0.00044031672 0)
(1.3514368 0.00041117908 0)
(1.3515361 0.00038397854 0)
(1.3516288 0.00035858622 0)
(1.3517153 0.00033487984 0)
(1.3517962 0.00031274654 0)
(1.3518717 0.00029207862 0)
(1.3519422 0.00027277948 0)
(1.3520081 0.00025475529 0)
(1.3520696 0.00023792569 0)
(1.3521271 0.00022220774 0)
(1.3521807 0.00020753513 0)
(1.3522309 0.00019383082 0)
(1.3522777 0.00018104181 0)
(1.3523214 0.00016909121 0)
(1.3523623 0.00015794187 0)
(1.3524005 0.00014751025 0)
(1.352436 0.00013778743 0)
(1.3524694 0.00012867368 0)
(1.3525004 0.00012020302 0)
(1.3525297 0.00011223897 0)
(1.3525565 0.0001048814 0)
(1.3525822 9.789914e-05 0)
(1.3526054 9.1532175e-05 0)
(1.3526282 8.539889e-05 0)
(1.3526479 7.9931023e-05 0)
(1.3526683 7.4429021e-05 0)
(1.352685 6.9806367e-05 0)
(1.3527037 6.4829785e-05 0)
(1.3527169 6.1119792e-05 0)
(1.3527348 5.6441124e-05 0)
(1.3527447 5.3741276e-05 0)
(1.3527629 4.9138008e-05 0)
(1.3527683 4.7699526e-05 0)
(1.3527888 4.2957601e-05 0)
(1.0005903 0.0034629152 0)
(1.0136865 0.009366018 0)
(1.0370283 0.013046804 0)
(1.0674202 0.014563259 0)
(1.1000315 0.014854523 0)
(1.1316428 0.014564989 0)
(1.1610745 0.013888337 0)
(1.1880674 0.012919244 0)
(1.2125205 0.011806505 0)
(1.2343939 0.010696425 0)
(1.2538077 0.0096727405 0)
(1.2710339 0.0087628202 0)
(1.286401 0.0079659716 0)
(1.3002111 0.0072722126 0)
(1.3127102 0.0066688069 0)
(1.3240903 0.0061419241 0)
(1.3345036 0.0056780713 0)
(1.3440716 0.0052653201 0)
(1.3528927 0.0048939342 0)
(1.3610463 0.0045563948 0)
(1.3685975 0.0042470686 0)
(1.3756004 0.0039617743 0)
(1.3821012 0.0036973958 0)
(1.3881402 0.0034515807 0)
(1.3937533 0.0032225172 0)
(1.3989728 0.0030087691 0)
(1.403828 0.0028091576 0)
(1.4083456 0.0026226788 0)
(1.4125503 0.002448449 0)
(1.4164646 0.0022856695 0)
(1.4201094 0.0021336058 0)
(1.423504 0.0019915742 0)
(1.426666 0.0018589343 0)
(1.4296121 0.0017350842 0)
(1.4323573 0.0016194574 0)
(1.4349159 0.001511521 0)
(1.4373007 0.0014107733 0)
(1.4395241 0.0013167429 0)
(1.441597 0.0012289875 0)
(1.4435301 0.0011470919 0)
(1.4453328 0.0010706675 0)
(1.4470143 0.00099935045 0)
(1.4485827 0.00093280048 0)
(1.4500459 0.0008706994 0)
(1.451411 0.00081274997 0)
(1.4526846 0.00075867451 0)
(1.4538731 0.00070821359 0)
(1.4549822 0.00066112474 0)
(1.4560172 0.00061718169 0)
(1.4569831 0.00057617327 0)
(1.4578847 0.00053790207 0)
(1.4587262 0.00050218437 0)
(1.4595117 0.00046884856 0)
(1.460245 0.00043773498 0)
(1.4609295 0.00040869512 0)
(1.4615685 0.00038159071 0)
(1.4621651 0.00035629244 0)
(1.4627221 0.00033267902 0)
(1.4632422 0.00031063744 0)
(1.4637278 0.00029006197 0)
(1.4641812 0.00027085373 0)
(1.4646045 0.00025292127 0)
(1.4649998 0.00023617931 0)
(1.4653689 0.00022054848 0)
(1.4657136 0.00020595499 0)
(1.4660355 0.00019233046 0)
(1.4663361 0.00017961115 0)
(1.4666168 0.00016773651 0)
(1.466879 0.00015665011 0)
(1.4671238 0.00014629835 0)
(1.4673524 0.00013663159 0)
(1.467566 0.00012760303 0)
(1.4677654 0.00011917131 0)
(1.4679516 0.00011129636 0)
(1.4681256 0.00010394386 0)
(1.468288 9.7077934e-05 0)
(1.4684397 9.0670126e-05 0)
(1.4685815 8.4685157e-05 0)
(1.4687139 7.9099607e-05 0)
(1.4688375 7.3877784e-05 0)
(1.4689528 6.9005817e-05 0)
(1.4690609 6.4445281e-05 0)
(1.4691615 6.0195592e-05 0)
(1.4692556 5.6210042e-05 0)
(1.4693432 5.2514044e-05 0)
(1.4694259 4.9035694e-05 0)
(1.469502 4.5824871e-05 0)
(1.4695739 4.2768068e-05 0)
(1.4696402 4.0000824e-05 0)
(1.469704 3.731256e-05 0)
(1.4697606 3.49212e-05 0)
(1.4698169 3.2491126e-05 0)
(1.4698654 3.0501399e-05 0)
(1.4699169 2.8310333e-05 0)
(1.469956 2.6721005e-05 0)
(1.4700043 2.4637413e-05 0)
(1.4700341 2.3494549e-05 0)
(1.4700833 2.141922e-05 0)
(1.4701001 2.0803712e-05 0)
(1.4701556 1.8647939e-05 0)
(1.0005903 -0.0034629162 0)
(1.0136865 -0.0093660206 0)
(1.0370283 -0.013046807 0)
(1.0674202 -0.014563262 0)
(1.1000315 -0.014854525 0)
(1.1316428 -0.014564991 0)
(1.1610745 -0.013888338 0)
(1.1880674 -0.012919246 0)
(1.2125205 -0.011806507 0)
(1.2343939 -0.010696428 0)
(1.2538077 -0.0096727435 0)
(1.2710339 -0.0087628233 0)
(1.286401 -0.0079659747 0)
(1.3002111 -0.0072722155 0)
(1.3127102 -0.0066688093 0)
(1.3240903 -0.0061419259 0)
(1.3345036 -0.0056780729 0)
(1.3440716 -0.0052653217 0)
(1.3528927 -0.0048939358 0)
(1.3610463 -0.0045563964 0)
(1.3685975 -0.0042470704 0)
(1.3756004 -0.0039617768 0)
(1.3821012 -0.0036973989 0)
(1.3881402 -0.0034515839 0)
(1.3937533 -0.0032225196 0)
(1.3989728 -0.0030087705 0)
(1.403828 -0.0028091584 0)
(1.4083456 -0.0026226795 0)
(1.4125503 -0.0024484499 0)
(1.4164646 -0.0022856711 0)
(1.4201094 -0.0021336082 0)
(1.423504 -0.0019915772 0)
(1.426666 -0.0018589375 0)
(1.4296121 -0.0017350873 0)
(1.4323573 -0.00161946 0)
(1.4349158 -0.0015115224 0)
(1.4373007 -0.0014107734 0)
(1.439524 -0.0013167419 0)
(1.441597 -0.0012289855 0)
(1.4435301 -0.0011470894 0)
(1.4453328 -0.0010706653 0)
(1.4470143 -0.00099934911 0)
(1.4485827 -0.00093280018 0)
(1.4500459 -0.00087070016 0)
(1.451411 -0.00081275143 0)
(1.4526846 -0.00075867601 0)
(1.4538731 -0.00070821436 0)
(1.4549821 -0.00066112429 0)
(1.4560172 -0.00061717968 0)
(1.4569831 -0.00057616975 0)
(1.4578847 -0.00053789799 0)
(1.4587262 -0.00050218079 0)
(1.4595117 -0.00046884667 0)
(1.460245 -0.00043773552 0)
(1.4609295 -0.00040869772 0)
(1.4615685 -0.00038159394 0)
(1.4621651 -0.00035629459 0)
(1.4627221 -0.00033267922 0)
(1.4632422 -0.00031063515 0)
(1.4637278 -0.00029005748 0)
(1.4641812 -0.0002708486 0)
(1.4646045 -0.00025291705 0)
(1.4649998 -0.00023617711 0)
(1.4653689 -0.00022054883 0)
(1.4657136 -0.00020595796 0)
(1.4660355 -0.00019233467 0)
(1.4663361 -0.0001796142 0)
(1.4666168 -0.00016773668 0)
(1.466879 -0.00015664677 0)
(1.4671238 -0.00014629223 0)
(1.4673524 -0.00013662509 0)
(1.467566 -0.0001275987 0)
(1.4677654 -0.00011917084 0)
(1.4679516 -0.0001112997 0)
(1.4681256 -0.00010394966 0)
(1.468288 -9.7083409e-05 0)
(1.4684397 -9.0671996e-05 0)
(1.4685815 -8.4682281e-05 0)
(1.4687139 -7.9093405e-05 0)
(1.4688375 -7.3870993e-05 0)
(1.4689528 -6.9000604e-05 0)
(1.4690609 -6.4443959e-05 0)
(1.4691615 -6.0200213e-05 0)
(1.4692556 -5.6218171e-05 0)
(1.4693432 -5.2517417e-05 0)
(1.4694259 -4.9034491e-05 0)
(1.469502 -4.5824189e-05 0)
(1.4695739 -4.2764118e-05 0)
(1.4696402 -3.9983292e-05 0)
(1.4697041 -3.7296913e-05 0)
(1.4697606 -3.4935437e-05 0)
(1.4698169 -3.251822e-05 0)
(1.4698654 -3.0507156e-05 0)
(1.4699169 -2.8298689e-05 0)
(1.469956 -2.6710849e-05 0)
(1.4700043 -2.4627958e-05 0)
(1.4700341 -2.3486487e-05 0)
(1.4700833 -2.1429292e-05 0)
(1.4701001 -2.0829094e-05 0)
(1.4701556 -1.8664432e-05 0)
(1.0007347 -0.011814722 0)
(1.0178472 -0.030860927 0)
(1.0462163 -0.041434442 0)
(1.0799018 -0.04519357 0)
(1.1132664 -0.045502351 0)
(1.143782 -0.044080308 0)
(1.1708941 -0.041439982 0)
(1.1945687 -0.037973678 0)
(1.2148582 -0.03419573 0)
(1.2319652 -0.030536888 0)
(1.2462683 -0.027222046 0)
(1.2582339 -0.024313921 0)
(1.2683135 -0.021797889 0)
(1.2768875 -0.01963366 0)
(1.2842554 -0.017773827 0)
(1.2906479 -0.016169652 0)
(1.296243 -0.01477559 0)
(1.3011791 -0.013552298 0)
(1.3055645 -0.012467864 0)
(1.3094838 -0.011497466 0)
(1.3130042 -0.010622162 0)
(1.3161792 -0.0098275136 0)
(1.3190526 -0.0091024115 0)
(1.3216607 -0.0084381772 0)
(1.3240343 -0.0078279042 0)
(1.3261995 -0.0072659748 0)
(1.3281786 -0.0067477091 0)
(1.3299913 -0.006269117 0)
(1.3316544 -0.0058267278 0)
(1.3331829 -0.0054174737 0)
(1.3345896 -0.0050386128 0)
(1.3358862 -0.0046876744 0)
(1.3370827 -0.0043624203 0)
(1.3381882 -0.0040608154 0)
(1.3392108 -0.0037810049 0)
(1.3401576 -0.0035212953 0)
(1.3410349 -0.0032801385 0)
(1.3418486 -0.0030561173 0)
(1.3426038 -0.0028479334 0)
(1.3433051 -0.0026543967 0)
(1.3439569 -0.0024744151 0)
(1.3445629 -0.0023069855 0)
(1.3451267 -0.0021511856 0)
(1.3456513 -0.002006167 0)
(1.3461398 -0.0018711485 0)
(1.3465947 -0.0017454102 0)
(1.3470185 -0.001628288 0)
(1.3474135 -0.0015191688 0)
(1.3477816 -0.0014174865 0)
(1.3481249 -0.0013227177 0)
(1.3484449 -0.0012343778 0)
(1.3487435 -0.0011520181 0)
(1.349022 -0.0010752225 0)
(1.3492818 -0.0010036054 0)
(1.3495242 -0.00093680913 0)
(1.3497505 -0.00087450219 0)
(1.3499616 -0.00081637743 0)
(1.3501587 -0.00076214916 0)
(1.3503427 -0.00071155197 0)
(1.3505145 -0.000664339 0)
(1.3506748 -0.00062028073 0)
(1.3508245 -0.00057916325 0)
(1.3509643 -0.00054078757 0)
(1.3510948 -0.00050496813 0)
(1.3512167 -0.00047153246 0)
(1.3513305 -0.00044031991 0)
(1.3514368 -0.00041118188 0)
(1.3515361 -0.00038397955 0)
(1.3516288 -0.00035858484 0)
(1.3517153 -0.00033487643 0)
(1.3517962 -0.00031274235 0)
(1.3518717 -0.00029207529 0)
(1.3519422 -0.00027277819 0)
(1.3520081 -0.00025475665 0)
(1.3520696 -0.00023792878 0)
(1.3521271 -0.00022221125 0)
(1.3521807 -0.00020753752 0)
(1.3522309 -0.00019383107 0)
(1.3522777 -0.0001810401 0)
(1.3523215 -0.00016908778 0)
(1.3523623 -0.0001579378 0)
(1.3524005 -0.00014750789 0)
(1.3524361 -0.00013778812 0)
(1.3524694 -0.0001286756 0)
(1.3525004 -0.00012020593 0)
(1.3525297 -0.00011224253 0)
(1.3525565 -0.0001048826 0)
(1.3525822 -9.7894987e-05 0)
(1.3526054 -9.1527402e-05 0)
(1.3526282 -8.5397483e-05 0)
(1.3526479 -7.9932145e-05 0)
(1.3526683 -7.4429122e-05 0)
(1.352685 -6.9803452e-05 0)
(1.3527038 -6.4829745e-05 0)
(1.352717 -6.1123119e-05 0)
(1.3527348 -5.6442528e-05 0)
(1.3527447 -5.3742591e-05 0)
(1.3527629 -4.9145458e-05 0)
(1.3527683 -4.7708687e-05 0)
(1.3527888 -4.2960667e-05 0)
(1.0014244 -0.026824855 0)
(1.0291272 -0.062791352 0)
(1.0654292 -0.077736552 0)
(1.098962 -0.0805972 0)
(1.1253149 -0.07828517 0)
(1.145053 -0.073153899 0)
(1.1594858 -0.066111278 0)
(1.1694287 -0.058162063 0)
(1.1755354 -0.050296754 0)
(1.1785738 -0.043150708 0)
(1.1793571 -0.036972825 0)
(1.1785949 -0.031771633 0)
(1.1768304 -0.02745184 0)
(1.1744518 -0.023886768 0)
(1.1717287 -0.02094762 0)
(1.1688444 -0.01851578 0)
(1.1659195 -0.016488084 0)
(1.1630317 -0.014779502 0)
(1.1602295 -0.013322985 0)
(1.1575415 -0.012067133 0)
(1.1549828 -0.010973001 0)
(1.1525601 -0.010011062 0)
(1.1502747 -0.0091587473 0)
(1.1481246 -0.0083986045 0)
(1.1461059 -0.0077169505 0)
(1.1442134 -0.007102888 0)
(1.1424414 -0.0065475915 0)
(1.1407838 -0.006043795 0)
(1.1392344 -0.0055854259 0)
(1.1377869 -0.0051673448 0)
(1.1364353 -0.0047851575 0)
(1.1351738 -0.0044350769 0)
(1.1339968 -0.0041138176 0)
(1.1328987 -0.0038185135 0)
(1.1318746 -0.0035466533 0)
(1.1309195 -0.0032960271 0)
(1.1300289 -0.0030646829 0)
(1.1291985 -0.0028508901 0)
(1.1284242 -0.0026531096 0)
(1.1277022 -0.0024699678 0)
(1.1270291 -0.0023002349 0)
(1.1264014 -0.0021428065 0)
(1.1258161 -0.0019966881 0)
(1.1252702 -0.0018609812 0)
(1.1247612 -0.0017348719 0)
(1.1242865 -0.0016176216 0)
(1.1238437 -0.0015085579 0)
(1.1234307 -0.0014070678 0)
(1.1230455 -0.0013125907 0)
(1.1226861 -0.0012246131 0)
(1.1223509 -0.0011426631 0)
(1.1220381 -0.0010663068 0)
(1.1217462 -0.0009951447 0)
(1.1214739 -0.00092880831 0)
(1.1212198 -0.00086695794 0)
(1.1209827 -0.00080928032 0)
(1.1207614 -0.00075548592 0)
(1.1205548 -0.00070530633 0)
(1.1203621 -0.0006584932 0)
(1.1201821 -0.00061481618 0)
(1.1200142 -0.00057406071 0)
(1.1198574 -0.0005360273 0)
(1.1197111 -0.00050053075 0)
(1.1195745 -0.00046739846 0)
(1.1194469 -0.00043646988 0)
(1.1193278 -0.0004075963 0)
(1.1192167 -0.00038064068 0)
(1.1191129 -0.00035547493 0)
(1.119016 -0.0003319808 0)
(1.1189255 -0.00031004673 0)
(1.118841 -0.00028956853 0)
(1.1187621 -0.00027044682 0)
(1.1186884 -0.0002525913 0)
(1.1186197 -0.00023591441 0)
(1.1185554 -0.00022033999 0)
(1.1184954 -0.00020579214 0)
(1.1184394 -0.00019220897 0)
(1.1183871 -0.00017952133 0)
(1.1183383 -0.00016767934 0)
(1.1182926 -0.00015661532 0)
(1.11825 -0.00014629227 0)
(1.1182103 -0.00013663902 0)
(1.118173 -0.00012763773 0)
(1.1181384 -0.00011920578 0)
(1.1181059 -0.00011135932 0)
(1.1180758 -0.00010398941 0)
(1.1180473 -9.7156382e-05 0)
(1.1180211 -9.070521e-05 0)
(1.1179963 -8.4791873e-05 0)
(1.1179734 -7.9138045e-05 0)
(1.1179516 -7.4019987e-05 0)
(1.1179318 -6.8989577e-05 0)
(1.1179128 -6.4647301e-05 0)
(1.1178955 -6.0158041e-05 0)
(1.117879 -5.6584489e-05 0)
(1.1178635 -5.2431106e-05 0)
(1.11785 -4.9737822e-05 0)
(1.1178349 -4.5801883e-05 0)
(1.1178261 -4.4314191e-05 0)
(1.1178083 -4.0569527e-05 0)
(1.0016583 -0.05381943 0)
(1.0359761 -0.10128444 0)
(1.0597199 -0.11073663 0)
(1.0628947 -0.10592202 0)
(1.0515569 -0.096228728 0)
(1.0340529 -0.083934061 0)
(1.0142795 -0.070327063 0)
(0.99360703 -0.056981334 0)
(0.97292577 -0.045107479 0)
(0.9531074 -0.03523675 0)
(0.93479538 -0.02740165 0)
(0.91829012 -0.021387228 0)
(0.90362379 -0.0168845 0)
(0.89068067 -0.01356971 0)
(0.87928174 -0.011147749 0)
(0.86923242 -0.0093736586 0)
(0.86034423 -0.0080569274 0)
(0.85244667 -0.0070571267 0)
(0.84539241 -0.006275238 0)
(0.83905793 -0.0056438286 0)
(0.83334126 -0.0051180914 0)
(0.82815884 -0.0046686728 0)
(0.82344212 -0.0042764176 0)
(0.81913467 -0.0039287387 0)
(0.81518961 -0.0036172031 0)
(0.81156765 -0.0033359698 0)
(0.80823544 -0.0030808033 0)
(0.8051644 -0.0028484683 0)
(0.80232979 -0.0026363689 0)
(0.79970999 -0.0024423385 0)
(0.79728597 -0.0022645191 0)
(0.79504086 -0.0021012904 0)
(0.79295963 -0.0019512258 0)
(0.7910288 -0.0018130633 0)
(0.78923627 -0.0016856835 0)
(0.7875711 -0.0015680923 0)
(0.78602338 -0.0014594053 0)
(0.78458412 -0.0013588352 0)
(0.78324511 -0.0012656799 0)
(0.78199889 -0.0011793114 0)
(0.7808386 -0.0010991671 0)
(0.77975799 -0.0010247414 0)
(0.77875128 -0.00095557899 0)
(0.77781318 -0.00089126848 0)
(0.77693881 -0.00083143713 0)
(0.77612368 -0.0007757465 0)
(0.77536362 -0.00072388833 0)
(0.77465481 -0.0006755814 0)
(0.77399368 -0.00063056832 0)
(0.77337694 -0.00058861241 0)
(0.77280153 -0.00054949567 0)
(0.77226464 -0.00051301723 0)
(0.77176363 -0.00047899181 0)
(0.77129606 -0.00044724826 0)
(0.77085967 -0.00041762884 0)
(0.77045234 -0.00038998797 0)
(0.77007212 -0.00036419062 0)
(0.76971717 -0.00034011172 0)
(0.76938581 -0.00031763546 0)
(0.76907645 -0.00029665382 0)
(0.7687876 -0.00027706573 0)
(0.76851791 -0.00025877689 0)
(0.7682661 -0.00024169968 0)
(0.76803096 -0.00022575202 0)
(0.76781139 -0.00021085791 0)
(0.76760635 -0.00019694727 0)
(0.76741489 -0.00018395554 0)
(0.76723608 -0.00017182261 0)
(0.7670691 -0.00016049283 0)
(0.76691316 -0.00014991304 0)
(0.76676752 -0.00014003342 0)
(0.7666315 -0.00013080586 0)
(0.76650446 -0.00012218666 0)
(0.76638582 -0.00011413343 0)
(0.76627501 -0.00010660981 0)
(0.76617152 -9.9579986e-05 0)
(0.76607486 -9.3014845e-05 0)
(0.76598459 -8.6881958e-05 0)
(0.76590026 -8.1157568e-05 0)
(0.76582151 -7.5809206e-05 0)
(0.76574794 -7.0818984e-05 0)
(0.76567924 -6.6152748e-05 0)
(0.76561504 -6.179981e-05 0)
(0.76555512 -5.7722333e-05 0)
(0.76549911 -5.3925609e-05 0)
(0.76544685 -5.0358173e-05 0)
(0.76539796 -4.7043984e-05 0)
(0.7653524 -4.3930041e-05 0)
(0.76530971 -4.1069258e-05 0)
(0.76526996 -3.8332692e-05 0)
(0.7652327 -3.5828502e-05 0)
(0.76519805 -3.3433143e-05 0)
(0.76516559 -3.1318564e-05 0)
(0.76513517 -2.9204187e-05 0)
(0.7651071 -2.7385848e-05 0)
(0.76507997 -2.5524397e-05 0)
(0.76505665 -2.4063872e-05 0)
(0.76503057 -2.2545103e-05 0)
(0.76501445 -2.1587528e-05 0)
(0.76498347 -2.0984796e-05 0)
(0.91890839 -0.035821913 0)
(0.86271384 -0.062195638 0)
(0.7870597 -0.06251009 0)
(0.69536033 -0.054550395 0)
(0.61089745 -0.044531651 0)
(0.54411592 -0.034015972 0)
(0.49343012 -0.02418754 0)
(0.45479413 -0.01614423 0)
(0.42544582 -0.010265785 0)
(0.40347313 -0.006304145 0)
(0.38715766 -0.0037976294 0)
(0.3749622 -0.0023103384 0)
(0.36566192 -0.0014930154 0)
(0.35836272 -0.0010851186 0)
(0.35244268 -0.0009060723 0)
(0.34748201 -0.00084105135 0)
(0.34320348 -0.00082372362 0)
(0.33942726 -0.00081931007 0)
(0.33603793 -0.000811852 0)
(0.33296114 -0.00079580154 0)
(0.33014778 -0.00077081194 0)
(0.32756384 -0.00073870993 0)
(0.3251842 -0.00070188955 0)
(0.32298902 -0.00066256564 0)
(0.32096172 -0.00062249932 0)
(0.31908785 -0.00058295705 0)
(0.31735449 -0.00054477117 0)
(0.31574995 -0.00050843393 0)
(0.3142636 -0.00047419168 0)
(0.31288574 -0.00044212493 0)
(0.31160755 -0.00041220989 0)
(0.31042101 -0.00038436201 0)
(0.30931883 -0.00035846514 0)
(0.30829438 -0.00033439017 0)
(0.30734165 -0.00031200628 0)
(0.30645515 -0.00029118708 0)
(0.30562991 -0.00027181373 0)
(0.30486136 -0.00025377641 0)
(0.30414535 -0.00023697432 0)
(0.30347807 -0.00022131518 0)
(0.30285601 -0.00020671475 0)
(0.30227596 -0.00019309614 0)
(0.30173496 -0.00018038899 0)
(0.30123029 -0.00016852888 0)
(0.30075942 -0.0001574567 0)
(0.30032002 -0.0001471181 0)
(0.29990993 -0.00013746299 0)
(0.29952715 -0.00012844517 0)
(0.29916983 -0.00012002175 0)
(0.29883624 -0.00011215264 0)
(0.29852478 -0.00010480051 0)
(0.29823397 -9.7930721e-05 0)
(0.29796241 -9.1511059e-05 0)
(0.29770882 -8.5511633e-05 0)
(0.29747201 -7.9904871e-05 0)
(0.29725084 -7.4665188e-05 0)
(0.29704429 -6.9768597e-05 0)
(0.29685138 -6.5192838e-05 0)
(0.2966712 -6.0917198e-05 0)
(0.29650291 -5.692196e-05 0)
(0.29634572 -5.3188447e-05 0)
(0.2961989 -4.9699254e-05 0)
(0.29606176 -4.6438126e-05 0)
(0.29593366 -4.3389776e-05 0)
(0.29581401 -4.0540327e-05 0)
(0.29570224 -3.7877192e-05 0)
(0.29559784 -3.5388646e-05 0)
(0.29550032 -3.3063712e-05 0)
(0.29540922 -3.0892066e-05 0)
(0.29532413 -2.8863466e-05 0)
(0.29524464 -2.6968231e-05 0)
(0.29517039 -2.5197016e-05 0)
(0.29510103 -2.3541368e-05 0)
(0.29503624 -2.1993215e-05 0)
(0.29497573 -2.0546083e-05 0)
(0.29491919 -1.9193525e-05 0)
(0.29486638 -1.7930365e-05 0)
(0.29481705 -1.6750432e-05 0)
(0.29477097 -1.5649371e-05 0)
(0.29472793 -1.4620428e-05 0)
(0.29468771 -1.3660389e-05 0)
(0.29465016 -1.2762073e-05 0)
(0.29461507 -1.1923777e-05 0)
(0.2945823 -1.113752e-05 0)
(0.29455168 -1.0405465e-05 0)
(0.29452309 -9.7161658e-06 0)
(0.29449637 -9.0770618e-06 0)
(0.29447142 -8.478989e-06 0)
(0.29444808 -7.9300645e-06 0)
(0.29442632 -7.3960974e-06 0)
(0.29440599 -6.9097552e-06 0)
(0.294387 -6.4602678e-06 0)
(0.2943692 -6.0628283e-06 0)
(0.29435259 -5.6565859e-06 0)
(0.29433715 -5.2937044e-06 0)
(0.2943225 -4.971595e-06 0)
(0.29430919 -4.6856212e-06 0)
(0.29429569 -4.5322366e-06 0)
(0.29428502 -4.4001077e-06 0)
(0.29426875 -5.053594e-06 0)
)
;

boundaryField
{
    top
    {
        type            fixedValue;
        value           uniform (0 0 0);
    }
    inlet
    {
        type            fixedValue;
        value           uniform (1 0 0);
    }
    outlet
    {
        type            zeroGradient;
    }
    bottom
    {
        type            fixedValue;
        value           uniform (0 0 0);
    }
    back
    {
        type            empty;
    }
    front
    {
        type            empty;
    }
}


// ************************************************************************* //
