/*--------------------------------*- C++ -*----------------------------------*\
| =========                 |                                                 |
| \\      /  F ield         | OpenFOAM: The Open Source CFD Toolbox           |
|  \\    /   O peration     | Version:  v1812                                 |
|   \\  /    A nd           | Web:      www.OpenFOAM.com                      |
|    \\/     M anipulation  |                                                 |
\*---------------------------------------------------------------------------*/
FoamFile
{
    version     2.0;
    format      ascii;
    class       volVectorField;
    location    "10.85";
    object      U;
}
// * * * * * * * * * * * * * * * * * * * * * * * * * * * * * * * * * * * * * //

dimensions      [0 1 -1 0 0 0 0];


internalField   nonuniform List<vector> 
1000
(
(0.91890839 0.035821913 0)
(0.86271384 0.062195638 0)
(0.7870597 0.06251009 0)
(0.69536033 0.054550395 0)
(0.61089745 0.044531651 0)
(0.54411592 0.034015972 0)
(0.49343012 0.02418754 0)
(0.45479413 0.01614423 0)
(0.42544582 0.010265786 0)
(0.40347313 0.0063041449 0)
(0.38715766 0.0037976288 0)
(0.3749622 0.0023103375 0)
(0.36566193 0.0014930145 0)
(0.35836272 0.0010851182 0)
(0.35244268 0.00090607275 0)
(0.34748201 0.00084105248 0)
(0.34320348 0.00082372492 0)
(0.33942726 0.00081931093 0)
(0.33603793 0.00081185206 0)
(0.33296114 0.00079580082 0)
(0.33014778 0.00077081073 0)
(0.32756384 0.00073870868 0)
(0.3251842 0.00070188873 0)
(0.32298902 0.00066256551 0)
(0.32096172 0.00062249993 0)
(0.31908785 0.0005829582 0)
(0.31735449 0.00054477251 0)
(0.31574995 0.00050843496 0)
(0.3142636 0.000474192 0)
(0.31288574 0.00044212447 0)
(0.31160755 0.0004122088 0)
(0.31042101 0.00038436064 0)
(0.30931883 0.00035846395 0)
(0.30829438 0.00033438959 0)
(0.30734165 0.00031200651 0)
(0.30645516 0.00029118806 0)
(0.30562991 0.00027181523 0)
(0.30486136 0.00025377796 0)
(0.30414535 0.00023697535 0)
(0.30347806 0.00022131534 0)
(0.302856 0.00020671398 0)
(0.30227596 0.00019309464 0)
(0.30173496 0.00018038726 0)
(0.30123029 0.00016852752 0)
(0.30075942 0.00015745626 0)
(0.30032002 0.00014711886 0)
(0.29990993 0.00013746485 0)
(0.29952715 0.00012844752 0)
(0.29916982 0.00012002369 0)
(0.29883623 0.00011215344 0)
(0.29852477 0.00010479984 0)
(0.29823396 9.7928753e-05 0)
(0.29796241 9.1508443e-05 0)
(0.29770882 8.5509365e-05 0)
(0.29747201 7.9903838e-05 0)
(0.29725085 7.4665836e-05 0)
(0.29704429 6.9770928e-05 0)
(0.29685137 6.5196192e-05 0)
(0.29667119 6.0920325e-05 0)
(0.2965029 5.6923629e-05 0)
(0.29634571 5.318798e-05 0)
(0.29619889 4.9696717e-05 0)
(0.29606175 4.6434353e-05 0)
(0.29593366 4.3386354e-05 0)
(0.29581401 4.0538877e-05 0)
(0.29570224 3.7878604e-05 0)
(0.29559783 3.539284e-05 0)
(0.29550031 3.3069519e-05 0)
(0.2954092 3.0897564e-05 0)
(0.29532411 2.8866911e-05 0)
(0.29524462 2.6968644e-05 0)
(0.29517037 2.5194754e-05 0)
(0.29510101 2.3537924e-05 0)
(0.29503623 2.1990935e-05 0)
(0.29497571 2.054681e-05 0)
(0.29491917 1.9198005e-05 0)
(0.29486635 1.7937696e-05 0)
(0.29481702 1.6758607e-05 0)
(0.29477093 1.5655445e-05 0)
(0.29472789 1.4622355e-05 0)
(0.29468769 1.3656528e-05 0)
(0.29465015 1.2752805e-05 0)
(0.29461509 1.1910097e-05 0)
(0.29458236 1.1121377e-05 0)
(0.29455179 1.0386781e-05 0)
(0.29452326 9.6956904e-06 0)
(0.29449662 9.0517477e-06 0)
(0.29447178 8.4404026e-06 0)
(0.29444859 7.8731515e-06 0)
(0.29442701 7.3296265e-06 0)
(0.29440688 6.8329049e-06 0)
(0.29438817 6.3515241e-06 0)
(0.29437071 5.9221522e-06 0)
(0.2943545 5.4986209e-06 0)
(0.29433944 5.1300199e-06 0)
(0.29432535 4.7708991e-06 0)
(0.29431254 4.4601705e-06 0)
(0.29429989 4.2364322e-06 0)
(0.29428972 4.0548297e-06 0)
(0.29427512 4.449826e-06 0)
(1.0016583 0.05381943 0)
(1.0359761 0.10128444 0)
(1.0597199 0.11073663 0)
(1.0628947 0.10592202 0)
(1.0515569 0.096228728 0)
(1.0340529 0.083934062 0)
(1.0142795 0.070327064 0)
(0.99360703 0.056981334 0)
(0.97292577 0.045107479 0)
(0.95310739 0.035236749 0)
(0.93479538 0.027401649 0)
(0.91829012 0.021387226 0)
(0.90362379 0.016884498 0)
(0.89068067 0.013569709 0)
(0.87928175 0.011147749 0)
(0.86923242 0.0093736604 0)
(0.86034423 0.0080569299 0)
(0.85244667 0.0070571288 0)
(0.84539241 0.0062752387 0)
(0.83905793 0.0056438278 0)
(0.83334126 0.0051180894 0)
(0.82815884 0.0046686703 0)
(0.82344212 0.0042764155 0)
(0.81913467 0.0039287378 0)
(0.81518962 0.0036172036 0)
(0.81156765 0.0033359716 0)
(0.80823544 0.0030808058 0)
(0.8051644 0.0028484707 0)
(0.80232979 0.0026363703 0)
(0.79970999 0.0024423384 0)
(0.79728597 0.0022645175 0)
(0.79504086 0.0021012878 0)
(0.79295963 0.0019512231 0)
(0.7910288 0.0018130614 0)
(0.78923627 0.0016856832 0)
(0.7875711 0.0015680936 0)
(0.78602338 0.001459408 0)
(0.78458412 0.0013588386 0)
(0.78324511 0.0012656828 0)
(0.78199889 0.0011793129 0)
(0.7808386 0.0010991667 0)
(0.77975798 0.0010247392 0)
(0.77875127 0.00095557578 0)
(0.77781317 0.00089126533 0)
(0.77693881 0.0008314353 0)
(0.77612368 0.00077574691 0)
(0.77536362 0.0007238913 0)
(0.77465481 0.00067558623 0)
(0.77399367 0.00063057334 0)
(0.77337693 0.0005886158 0)
(0.77280153 0.00054949621 0)
(0.77226463 0.00051301468 0)
(0.77176362 0.00047898703 0)
(0.77129606 0.00044724316 0)
(0.77085966 0.00041762554 0)
(0.77045234 0.0003899879 0)
(0.77007211 0.00036419433 0)
(0.76971717 0.00034011846 0)
(0.7693858 0.00031764307 0)
(0.76907643 0.00029665959 0)
(0.76878759 0.00027706758 0)
(0.76851789 0.00025877419 0)
(0.76826608 0.00024169328 0)
(0.76803094 0.00022574461 0)
(0.76781138 0.00021085303 0)
(0.76760634 0.00019694782 0)
(0.76741488 0.00018396249 0)
(0.76723607 0.00017183455 0)
(0.76706908 0.00016050606 0)
(0.76691313 0.0001499233 0)
(0.76676748 0.00014003731 0)
(0.76663146 0.0001308028 0)
(0.76650443 0.00012217832 0)
(0.76638579 0.00011412413 0)
(0.76627499 0.00010660335 0)
(0.76617151 9.9578749e-05 0)
(0.76607485 9.3016914e-05 0)
(0.76598459 8.688317e-05 0)
(0.76590028 8.1149951e-05 0)
(0.76582155 7.5786551e-05 0)
(0.76574801 7.0773768e-05 0)
(0.76567937 6.6082813e-05 0)
(0.76561526 6.1702583e-05 0)
(0.76555544 5.7599558e-05 0)
(0.76549957 5.377148e-05 0)
(0.76544747 5.0173133e-05 0)
(0.7653988 4.6818999e-05 0)
(0.76535348 4.3645422e-05 0)
(0.76531111 4.0699519e-05 0)
(0.76527176 3.7885345e-05 0)
(0.76523496 3.530427e-05 0)
(0.76520086 3.2798839e-05 0)
(0.76516901 3.0555989e-05 0)
(0.76513947 2.8311415e-05 0)
(0.76511217 2.6391868e-05 0)
(0.76508625 2.4368191e-05 0)
(0.76506369 2.279823e-05 0)
(0.76503947 2.102098e-05 0)
(0.76502394 1.9982678e-05 0)
(0.76499585 1.8843636e-05 0)
(1.0014244 0.026824855 0)
(1.0291272 0.062791352 0)
(1.0654292 0.077736552 0)
(1.098962 0.0805972 0)
(1.1253149 0.078285171 0)
(1.145053 0.0731539 0)
(1.1594858 0.066111279 0)
(1.1694287 0.058162064 0)
(1.1755354 0.050296755 0)
(1.1785738 0.043150708 0)
(1.1793571 0.036972824 0)
(1.1785949 0.03177163 0)
(1.1768304 0.027451838 0)
(1.1744518 0.023886767 0)
(1.1717287 0.02094762 0)
(1.1688444 0.018515782 0)
(1.1659195 0.016488087 0)
(1.1630317 0.014779504 0)
(1.1602295 0.013322986 0)
(1.1575415 0.012067132 0)
(1.1549828 0.010972999 0)
(1.1525601 0.01001106 0)
(1.1502747 0.009158745 0)
(1.1481246 0.008398603 0)
(1.1461059 0.0077169503 0)
(1.1442134 0.007102889 0)
(1.1424414 0.0065475935 0)
(1.1407838 0.0060437973 0)
(1.1392344 0.0055854277 0)
(1.1377869 0.0051673453 0)
(1.1364353 0.0047851566 0)
(1.1351738 0.0044350748 0)
(1.1339968 0.0041138149 0)
(1.1328987 0.0038185112 0)
(1.1318746 0.0035466522 0)
(1.1309195 0.0032960277 0)
(1.1300289 0.003064685 0)
(1.1291985 0.0028508932 0)
(1.1284242 0.0026531129 0)
(1.1277022 0.0024699702 0)
(1.1270291 0.0023002358 0)
(1.1264014 0.0021428057 0)
(1.1258161 0.0019966858 0)
(1.1252702 0.0018609783 0)
(1.1247612 0.0017348697 0)
(1.1242865 0.0016176212 0)
(1.1238437 0.0015085601 0)
(1.1234307 0.0014070723 0)
(1.1230455 0.0013125964 0)
(1.1226861 0.0012246181 0)
(1.1223509 0.0011426658 0)
(1.1220381 0.0010663064 0)
(1.1217462 0.00099514145 0)
(1.1214739 0.00092880372 0)
(1.1212198 0.00086695424 0)
(1.1209827 0.00080927943 0)
(1.1207614 0.00075548874 0)
(1.1205548 0.0007053128 0)
(1.1203621 0.00065850182 0)
(1.1201821 0.00061482428 0)
(1.1200142 0.00057406585 0)
(1.1198574 0.00053602805 0)
(1.1197111 0.00050052704 0)
(1.1195744 0.00046739214 0)
(1.1194469 0.00043646448 0)
(1.1193278 0.0004075956 0)
(1.1192167 0.0003806466 0)
(1.1191129 0.00035548731 0)
(1.119016 0.00033199651 0)
(1.1189255 0.00031006111 0)
(1.118841 0.00028957715 0)
(1.1187621 0.00027044779 0)
(1.1186884 0.00025258467 0)
(1.1186196 0.00023590395 0)
(1.1185554 0.00022032905 0)
(1.1184954 0.00020578414 0)
(1.1184394 0.00019220165 0)
(1.1183871 0.00017951113 0)
(1.1183383 0.00016765577 0)
(1.1182927 0.00015657031 0)
(1.1182501 0.00014621321 0)
(1.1182103 0.00013652144 0)
(1.1181731 0.00012747204 0)
(1.1181385 0.00011899343 0)
(1.1181061 0.00011108675 0)
(1.118076 0.00010365443 0)
(1.1180477 9.6739549e-05 0)
(1.1180215 9.0193155e-05 0)
(1.1179968 8.4140454e-05 0)
(1.1179741 7.8333483e-05 0)
(1.1179525 7.3052931e-05 0)
(1.1179329 6.7852664e-05 0)
(1.1179141 6.3303714e-05 0)
(1.1178971 5.8568081e-05 0)
(1.1178809 5.4771267e-05 0)
(1.1178659 5.0323384e-05 0)
(1.1178527 4.7414256e-05 0)
(1.1178384 4.305631e-05 0)
(1.1178298 4.1392677e-05 0)
(1.117813 3.7014216e-05 0)
(1.0007347 0.011814722 0)
(1.0178472 0.030860927 0)
(1.0462163 0.041434441 0)
(1.0799018 0.045193569 0)
(1.1132664 0.045502351 0)
(1.143782 0.044080308 0)
(1.1708941 0.041439983 0)
(1.1945687 0.037973678 0)
(1.2148582 0.03419573 0)
(1.2319652 0.030536887 0)
(1.2462683 0.027222044 0)
(1.2582339 0.024313919 0)
(1.2683135 0.021797887 0)
(1.2768875 0.019633659 0)
(1.2842554 0.017773826 0)
(1.2906479 0.016169652 0)
(1.296243 0.014775591 0)
(1.3011791 0.013552299 0)
(1.3055645 0.012467865 0)
(1.3094838 0.011497466 0)
(1.3130042 0.010622161 0)
(1.3161792 0.0098275121 0)
(1.3190526 0.0091024096 0)
(1.3216607 0.0084381755 0)
(1.3240343 0.0078279032 0)
(1.3261995 0.0072659747 0)
(1.3281786 0.0067477098 0)
(1.3299913 0.0062691183 0)
(1.3316544 0.0058267291 0)
(1.3331829 0.0054174745 0)
(1.3345896 0.0050386126 0)
(1.3358862 0.0046876731 0)
(1.3370827 0.0043624182 0)
(1.3381882 0.0040608131 0)
(1.3392108 0.0037810033 0)
(1.3401576 0.003521295 0)
(1.3410349 0.0032801395 0)
(1.3418486 0.0030561194 0)
(1.3426038 0.0028479363 0)
(1.3433051 0.0026543996 0)
(1.3439569 0.0024744172 0)
(1.3445629 0.0023069863 0)
(1.3451267 0.002151185 0)
(1.3456513 0.0020061655 0)
(1.3461398 0.0018711469 0)
(1.3465947 0.0017454095 0)
(1.3470185 0.0016282889 0)
(1.3474135 0.0015191718 0)
(1.3477816 0.0014174912 0)
(1.3481249 0.0013227229 0)
(1.3484449 0.0012343822 0)
(1.3487435 0.0011520204 0)
(1.349022 0.0010752223 0)
(1.3492818 0.0010036033 0)
(1.3495242 0.00093680668 0)
(1.3497505 0.00087450117 0)
(1.3499616 0.00081637893 0)
(1.3501587 0.00076215362 0)
(1.3503427 0.00071155883 0)
(1.3505145 0.00066434684 0)
(1.3506748 0.00062028756 0)
(1.3508245 0.00057916735 0)
(1.3509643 0.00054078808 0)
(1.3510948 0.0005049657 0)
(1.3512167 0.00047152917 0)
(1.3513305 0.0004403187 0)
(1.3514368 0.00041118502 0)
(1.3515361 0.00038398804 0)
(1.3516288 0.00035859704 0)
(1.3517153 0.00033488954 0)
(1.3517962 0.00031275245 0)
(1.3518717 0.00029208009 0)
(1.3519422 0.00027277633 0)
(1.3520081 0.00025474999 0)
(1.3520696 0.00023791902 0)
(1.3521271 0.00022220185 0)
(1.3521807 0.00020752724 0)
(1.3522309 0.00019381892 0)
(1.3522777 0.00018101707 0)
(1.3523214 0.00016904845 0)
(1.3523622 0.00015787012 0)
(1.3524004 0.0001474081 0)
(1.3524359 0.00013764397 0)
(1.3524692 0.00012849056 0)
(1.3525002 0.00011996537 0)
(1.3525293 0.00011194292 0)
(1.3525561 0.00010450277 0)
(1.3525815 9.7438559e-05 0)
(1.3526046 9.0950833e-05 0)
(1.352627 8.4675399e-05 0)
(1.3526467 7.9047582e-05 0)
(1.3526666 7.3396276e-05 0)
(1.352683 6.8597113e-05 0)
(1.352701 6.3393417e-05 0)
(1.3527141 5.9467945e-05 0)
(1.3527309 5.4496568e-05 0)
(1.3527405 5.1593132e-05 0)
(1.3527573 4.6601982e-05 0)
(1.3527626 4.5001729e-05 0)
(1.3527812 3.9724728e-05 0)
(1.0005903 0.0034629159 0)
(1.0136865 0.0093660194 0)
(1.0370283 0.013046806 0)
(1.0674202 0.014563261 0)
(1.1000315 0.014854525 0)
(1.1316428 0.014564991 0)
(1.1610745 0.013888339 0)
(1.1880674 0.012919246 0)
(1.2125205 0.011806506 0)
(1.2343939 0.010696427 0)
(1.2538077 0.0096727415 0)
(1.2710339 0.0087628213 0)
(1.286401 0.0079659729 0)
(1.3002112 0.0072722142 0)
(1.3127102 0.0066688086 0)
(1.3240903 0.0061419258 0)
(1.3345036 0.0056780731 0)
(1.3440716 0.0052653219 0)
(1.3528927 0.0048939358 0)
(1.3610463 0.0045563961 0)
(1.3685975 0.0042470695 0)
(1.3756004 0.0039617751 0)
(1.3821012 0.0036973966 0)
(1.3881402 0.0034515817 0)
(1.3937533 0.0032225181 0)
(1.3989728 0.00300877 0)
(1.403828 0.0028091587 0)
(1.4083456 0.0026226803 0)
(1.4125503 0.0024484508 0)
(1.4164646 0.0022856715 0)
(1.4201094 0.0021336076 0)
(1.423504 0.0019915756 0)
(1.4266661 0.0018589353 0)
(1.4296121 0.0017350848 0)
(1.4323573 0.001619458 0)
(1.4349159 0.0015115216 0)
(1.4373007 0.001410774 0)
(1.4395241 0.0013167437 0)
(1.441597 0.0012289882 0)
(1.4435301 0.0011470925 0)
(1.4453328 0.0010706677 0)
(1.4470143 0.00099935036 0)
(1.4485827 0.0009328002 0)
(1.4500459 0.00087069922 0)
(1.451411 0.0008127502 0)
(1.4526846 0.00075867533 0)
(1.4538731 0.000708215 0)
(1.4549822 0.00066112663 0)
(1.4560172 0.00061718368 0)
(1.4569831 0.00057617479 0)
(1.4578847 0.00053790288 0)
(1.4587262 0.00050218436 0)
(1.4595117 0.00046884822 0)
(1.460245 0.00043773506 0)
(1.4609295 0.00040869623 0)
(1.4615685 0.00038159294 0)
(1.4621651 0.00035629549 0)
(1.4627221 0.0003326826 0)
(1.4632422 0.00031064092 0)
(1.4637278 0.00029006473 0)
(1.4641811 0.00027085559 0)
(1.4646045 0.00025292205 0)
(1.4649998 0.00023617928 0)
(1.4653689 0.0002205484 0)
(1.4657136 0.00020595592 0)
(1.4660355 0.00019233305 0)
(1.4663361 0.00017961522 0)
(1.4666168 0.0001677416 0)
(1.466879 0.00015665507 0)
(1.4671238 0.0001463021 0)
(1.4673524 0.0001366334 0)
(1.467566 0.00012760309 0)
(1.4677654 0.0001191698 0)
(1.4679516 0.00011129421 0)
(1.4681256 0.00010394112 0)
(1.468288 9.7075025e-05 0)
(1.4684397 9.0665129e-05 0)
(1.4685815 8.4677398e-05 0)
(1.4687138 7.9085899e-05 0)
(1.4688374 7.38575e-05 0)
(1.4689528 6.8974406e-05 0)
(1.4690606 6.4402612e-05 0)
(1.4691612 6.0137138e-05 0)
(1.4692553 5.6136792e-05 0)
(1.4693428 5.2415309e-05 0)
(1.4694249 4.8910491e-05 0)
(1.469501 4.5668073e-05 0)
(1.4695728 4.2581983e-05 0)
(1.4696386 3.9760711e-05 0)
(1.4697015 3.7015038e-05 0)
(1.4697581 3.4574877e-05 0)
(1.4698136 3.209404e-05 0)
(1.4698613 3.0024743e-05 0)
(1.4699111 2.7730759e-05 0)
(1.4699501 2.6055762e-05 0)
(1.4699964 2.3854783e-05 0)
(1.4700255 2.2634067e-05 0)
(1.4700716 2.0414401e-05 0)
(1.4700883 1.974608e-05 0)
(1.4701398 1.7380509e-05 0)
(1.0005903 -0.0034629158 0)
(1.0136865 -0.0093660201 0)
(1.0370283 -0.013046806 0)
(1.0674202 -0.014563261 0)
(1.1000315 -0.014854524 0)
(1.1316428 -0.01456499 0)
(1.1610745 -0.013888337 0)
(1.1880674 -0.012919245 0)
(1.2125205 -0.011806506 0)
(1.2343939 -0.010696428 0)
(1.2538077 -0.009672743 0)
(1.2710339 -0.0087628228 0)
(1.286401 -0.0079659741 0)
(1.3002112 -0.0072722146 0)
(1.3127102 -0.006668808 0)
(1.3240903 -0.0061419245 0)
(1.3345036 -0.0056780713 0)
(1.3440716 -0.0052653203 0)
(1.3528927 -0.0048939348 0)
(1.3610463 -0.0045563961 0)
(1.3685975 -0.0042470705 0)
(1.3756004 -0.0039617767 0)
(1.3821012 -0.0036973984 0)
(1.3881402 -0.0034515829 0)
(1.3937533 -0.0032225184 0)
(1.3989728 -0.0030087692 0)
(1.403828 -0.0028091569 0)
(1.4083456 -0.0026226781 0)
(1.4125503 -0.0024484488 0)
(1.4164646 -0.0022856703 0)
(1.4201094 -0.0021336075 0)
(1.423504 -0.0019915766 0)
(1.4266661 -0.0018589369 0)
(1.4296121 -0.0017350864 0)
(1.4323573 -0.0016194588 0)
(1.4349159 -0.0015115211 0)
(1.4373007 -0.0014107721 0)
(1.4395241 -0.0013167408 0)
(1.441597 -0.0012289848 0)
(1.4435301 -0.0011470895 0)
(1.4453329 -0.0010706658 0)
(1.4470143 -0.00099934978 0)
(1.4485827 -0.00093280065 0)
(1.4500459 -0.00087070001 0)
(1.451411 -0.00081275045 0)
(1.4526846 -0.00075867424 0)
(1.4538731 -0.00070821211 0)
(1.4549822 -0.00066112208 0)
(1.4560172 -0.00061717815 0)
(1.4569831 -0.0005761693 0)
(1.4578847 -0.00053789845 0)
(1.4587262 -0.00050218155 0)
(1.4595117 -0.00046884697 0)
(1.460245 -0.00043773459 0)
(1.4609295 -0.00040869542 0)
(1.4615685 -0.00038159061 0)
(1.4621651 -0.00035629084 0)
(1.4627221 -0.00033267565 0)
(1.4632422 -0.00031063252 0)
(1.4637278 -0.00029005633 0)
(1.4641812 -0.00027084876 0)
(1.4646045 -0.00025291783 0)
(1.4649998 -0.00023617777 0)
(1.4653689 -0.00022054856 0)
(1.4657136 -0.00020595614 0)
(1.4660355 -0.00019233152 0)
(1.4663361 -0.00017961075 0)
(1.4666168 -0.00016773413 0)
(1.466879 -0.00015664597 0)
(1.4671238 -0.00014629373 0)
(1.4673524 -0.00013662828 0)
(1.467566 -0.00012760281 0)
(1.4677654 -0.00011917445 0)
(1.4679517 -0.00011130221 0)
(1.4681256 -0.00010394999 0)
(1.468288 -9.7082299e-05 0)
(1.4684398 -9.0669259e-05 0)
(1.4685815 -8.4678712e-05 0)
(1.4687138 -7.9086267e-05 0)
(1.4688374 -7.3859684e-05 0)
(1.4689528 -6.8981236e-05 0)
(1.4690606 -6.4415677e-05 0)
(1.4691612 -6.0156295e-05 0)
(1.4692553 -5.6159933e-05 0)
(1.4693428 -5.2439332e-05 0)
(1.4694249 -4.8932389e-05 0)
(1.469501 -4.5686086e-05 0)
(1.4695728 -4.2596473e-05 0)
(1.4696386 -3.977336e-05 0)
(1.4697015 -3.7028842e-05 0)
(1.4697581 -3.4591361e-05 0)
(1.4698136 -3.2114299e-05 0)
(1.4698613 -3.0046573e-05 0)
(1.4699111 -2.7751434e-05 0)
(1.4699501 -2.6071871e-05 0)
(1.4699964 -2.3862832e-05 0)
(1.4700255 -2.2634781e-05 0)
(1.4700716 -2.0405048e-05 0)
(1.4700883 -1.9731073e-05 0)
(1.4701398 -1.7359932e-05 0)
(1.0007347 -0.011814721 0)
(1.0178472 -0.030860927 0)
(1.0462163 -0.041434442 0)
(1.0799018 -0.045193569 0)
(1.1132664 -0.04550235 0)
(1.143782 -0.044080307 0)
(1.1708941 -0.041439982 0)
(1.1945687 -0.037973678 0)
(1.2148582 -0.03419573 0)
(1.2319652 -0.030536888 0)
(1.2462683 -0.027222045 0)
(1.2582339 -0.02431392 0)
(1.2683135 -0.021797887 0)
(1.2768875 -0.019633658 0)
(1.2842554 -0.017773825 0)
(1.2906479 -0.016169651 0)
(1.296243 -0.01477559 0)
(1.3011791 -0.013552298 0)
(1.3055645 -0.012467865 0)
(1.3094838 -0.011497467 0)
(1.3130042 -0.010622162 0)
(1.3161792 -0.0098275131 0)
(1.3190526 -0.0091024103 0)
(1.3216607 -0.0084381756 0)
(1.3240343 -0.0078279027 0)
(1.3261995 -0.0072659736 0)
(1.3281786 -0.0067477085 0)
(1.3299913 -0.0062691171 0)
(1.3316544 -0.0058267283 0)
(1.3331829 -0.0054174744 0)
(1.3345896 -0.0050386131 0)
(1.3358862 -0.0046876739 0)
(1.3370827 -0.0043624188 0)
(1.3381882 -0.0040608133 0)
(1.3392108 -0.0037810028 0)
(1.3401576 -0.0035212937 0)
(1.3410349 -0.0032801376 0)
(1.3418486 -0.0030561173 0)
(1.3426038 -0.0028479344 0)
(1.3433051 -0.0026543983 0)
(1.3439569 -0.0024744166 0)
(1.3445629 -0.0023069861 0)
(1.3451267 -0.0021511849 0)
(1.3456513 -0.002006165 0)
(1.3461398 -0.0018711456 0)
(1.3465947 -0.0017454072 0)
(1.3470185 -0.0016282858 0)
(1.3474135 -0.0015191682 0)
(1.3477816 -0.0014174877 0)
(1.3481249 -0.0013227199 0)
(1.3484449 -0.00123438 0)
(1.3487435 -0.0011520189 0)
(1.349022 -0.001075221 0)
(1.3492818 -0.0010036016 0)
(1.3495242 -0.00093680402 0)
(1.3497505 -0.00087449722 0)
(1.3499616 -0.00081637387 0)
(1.3501587 -0.00076214796 0)
(1.3503427 -0.00071155334 0)
(1.3505145 -0.00066434227 0)
(1.3506748 -0.00062028424 0)
(1.3508246 -0.00057916524 0)
(1.3509643 -0.0005407866 0)
(1.3510949 -0.00050496405 0)
(1.3512167 -0.0004715265 0)
(1.3513305 -0.00044031459 0)
(1.3514368 -0.00041117969 0)
(1.3515361 -0.00038398232 0)
(1.3516288 -0.00035859205 0)
(1.3517154 -0.00033488637 0)
(1.3517962 -0.0003127517 0)
(1.3518717 -0.00029208179 0)
(1.3519423 -0.00027277979 0)
(1.3520081 -0.00025475415 0)
(1.3520696 -0.00023792286 0)
(1.3521271 -0.00022220482 0)
(1.3521808 -0.00020752966 0)
(1.3522309 -0.00019382166 0)
(1.3522777 -0.0001810214 0)
(1.3523215 -0.00016905562 0)
(1.3523623 -0.00015788062 0)
(1.3524004 -0.00014742176 0)
(1.352436 -0.00013765977 0)
(1.3524693 -0.00012850725 0)
(1.3525002 -0.0001199818 0)
(1.3525293 -0.00011195848 0)
(1.3525561 -0.00010451753 0)
(1.3525815 -9.7453276e-05 0)
(1.3526046 -9.096609e-05 0)
(1.352627 -8.4692143e-05 0)
(1.3526467 -7.9065271e-05 0)
(1.3526666 -7.3414682e-05 0)
(1.352683 -6.8614523e-05 0)
(1.352701 -6.3408713e-05 0)
(1.3527141 -5.9479987e-05 0)
(1.3527309 -5.4504291e-05 0)
(1.3527405 -5.1597483e-05 0)
(1.3527573 -4.660257e-05 0)
(1.3527626 -4.4999157e-05 0)
(1.3527812 -3.9718986e-05 0)
(1.0014244 -0.026824854 0)
(1.0291272 -0.062791352 0)
(1.0654292 -0.077736552 0)
(1.098962 -0.080597199 0)
(1.1253149 -0.07828517 0)
(1.145053 -0.0731539 0)
(1.1594858 -0.066111279 0)
(1.1694287 -0.058162065 0)
(1.1755354 -0.050296756 0)
(1.1785738 -0.043150709 0)
(1.1793571 -0.036972824 0)
(1.1785949 -0.03177163 0)
(1.1768304 -0.027451837 0)
(1.1744518 -0.023886766 0)
(1.1717287 -0.020947619 0)
(1.1688444 -0.018515781 0)
(1.1659195 -0.016488087 0)
(1.1630317 -0.014779505 0)
(1.1602295 -0.013322987 0)
(1.1575415 -0.012067133 0)
(1.1549828 -0.010973 0)
(1.1525601 -0.010011059 0)
(1.1502747 -0.0091587442 0)
(1.1481246 -0.008398602 0)
(1.1461059 -0.0077169494 0)
(1.1442134 -0.0071028885 0)
(1.1424414 -0.0065475935 0)
(1.1407838 -0.0060437978 0)
(1.1392344 -0.0055854284 0)
(1.1377869 -0.005167346 0)
(1.1364353 -0.0047851569 0)
(1.1351738 -0.0044350745 0)
(1.1339968 -0.004113814 0)
(1.1328987 -0.0038185099 0)
(1.1318746 -0.0035466508 0)
(1.1309195 -0.0032960265 0)
(1.1300289 -0.0030646843 0)
(1.1291985 -0.0028508931 0)
(1.1284242 -0.0026531132 0)
(1.1277022 -0.0024699707 0)
(1.1270291 -0.0023002359 0)
(1.1264014 -0.0021428051 0)
(1.1258161 -0.0019966844 0)
(1.1252702 -0.0018609762 0)
(1.1247612 -0.0017348672 0)
(1.1242865 -0.0016176188 0)
(1.1238437 -0.0015085583 0)
(1.1234308 -0.0014070712 0)
(1.1230455 -0.001312596 0)
(1.1226861 -0.001224618 0)
(1.1223509 -0.0011426654 0)
(1.1220381 -0.0010663052 0)
(1.1217462 -0.00099513903 0)
(1.1214739 -0.00092880025 0)
(1.1212198 -0.00086695017 0)
(1.1209827 -0.00080927547 0)
(1.1207614 -0.00075548563 0)
(1.1205548 -0.00070531093 0)
(1.1203621 -0.00065850115 0)
(1.1201822 -0.00061482424 0)
(1.1200142 -0.00057406552 0)
(1.1198574 -0.0005360266 0)
(1.1197111 -0.00050052398 0)
(1.1195745 -0.0004673877 0)
(1.1194469 -0.00043645944 0)
(1.1193278 -0.0004075911 0)
(1.1192167 -0.00038064377 0)
(1.1191129 -0.0003554867 0)
(1.119016 -0.00033199797 0)
(1.1189255 -0.00031006372 0)
(1.118841 -0.00028957961 0)
(1.1187621 -0.00027044906 0)
(1.1186885 -0.00025258434 0)
(1.1186197 -0.00023590253 0)
(1.1185554 -0.00022032778 0)
(1.1184955 -0.00020578452 0)
(1.1184394 -0.00019220495 0)
(1.1183872 -0.00017951762 0)
(1.1183383 -0.00016766494 0)
(1.1182927 -0.00015658084 0)
(1.1182501 -0.00014622361 0)
(1.1182103 -0.00013653053 0)
(1.1181732 -0.00012747969 0)
(1.1181385 -0.00011900033 0)
(1.1181061 -0.00011109449 0)
(1.118076 -0.00010366422 0)
(1.1180477 -9.6752291e-05 0)
(1.1180215 -9.0208273e-05 0)
(1.1179968 -8.4156891e-05 0)
(1.1179741 -7.834928e-05 0)
(1.1179525 -7.3067021e-05 0)
(1.1179329 -6.7863888e-05 0)
(1.117914 -6.3313286e-05 0)
(1.1178971 -5.8575708e-05 0)
(1.1178809 -5.4780051e-05 0)
(1.1178659 -5.0331644e-05 0)
(1.1178527 -4.7424554e-05 0)
(1.1178383 -4.3066196e-05 0)
(1.1178297 -4.1402243e-05 0)
(1.117813 -3.7022621e-05 0)
(1.0016583 -0.05381943 0)
(1.0359761 -0.10128444 0)
(1.0597199 -0.11073663 0)
(1.0628947 -0.10592201 0)
(1.0515569 -0.096228728 0)
(1.0340529 -0.083934062 0)
(1.0142795 -0.070327065 0)
(0.99360703 -0.056981335 0)
(0.97292577 -0.04510748 0)
(0.95310739 -0.035236749 0)
(0.93479538 -0.027401648 0)
(0.91829011 -0.021387225 0)
(0.90362379 -0.016884497 0)
(0.89068067 -0.013569708 0)
(0.87928175 -0.01114775 0)
(0.86923242 -0.0093736612 0)
(0.86034424 -0.008056931 0)
(0.85244667 -0.0070571298 0)
(0.84539241 -0.0062752393 0)
(0.83905792 -0.0056438278 0)
(0.83334126 -0.0051180887 0)
(0.82815883 -0.0046686691 0)
(0.82344212 -0.0042764143 0)
(0.81913467 -0.0039287369 0)
(0.81518962 -0.0036172034 0)
(0.81156765 -0.003335972 0)
(0.80823544 -0.0030808068 0)
(0.8051644 -0.0028484719 0)
(0.80232979 -0.0026363713 0)
(0.79970999 -0.0024423388 0)
(0.79728597 -0.0022645171 0)
(0.79504086 -0.0021012867 0)
(0.79295963 -0.0019512216 0)
(0.7910288 -0.00181306 0)
(0.78923628 -0.0016856823 0)
(0.78757111 -0.0015680935 0)
(0.78602339 -0.0014594086 0)
(0.78458412 -0.0013588396 0)
(0.78324512 -0.0012656838 0)
(0.78199889 -0.0011793134 0)
(0.7808386 -0.0010991664 0)
(0.77975798 -0.001024738 0)
(0.77875127 -0.00095557388 0)
(0.77781318 -0.00089126325 0)
(0.77693882 -0.00083143363 0)
(0.77612369 -0.00077574613 0)
(0.77536363 -0.00072389154 0)
(0.77465482 -0.00067558725 0)
(0.77399368 -0.00063057456 0)
(0.77337694 -0.0005886165 0)
(0.77280153 -0.00054949582 0)
(0.77226464 -0.00051301296 0)
(0.77176363 -0.00047898428 0)
(0.77129607 -0.00044724006 0)
(0.77085968 -0.00041762293 0)
(0.77045236 -0.00038998654 0)
(0.77007214 -0.00036419448 0)
(0.76971719 -0.00034011989 0)
(0.76938582 -0.00031764496 0)
(0.76907645 -0.00029666085 0)
(0.7687876 -0.00027706733 0)
(0.76851791 -0.000258772 0)
(0.76826609 -0.00024168957 0)
(0.76803096 -0.00022574042 0)
(0.7678114 -0.00021084972 0)
(0.76760638 -0.00019694658 0)
(0.76741491 -0.00018396371 0)
(0.7672361 -0.00017183781 0)
(0.76706911 -0.00016051006 0)
(0.76691316 -0.00014992643 0)
(0.7667675 -0.00014003836 0)
(0.76663148 -0.00013080135 0)
(0.76650445 -0.00012217516 0)
(0.76638581 -0.00011412085 0)
(0.76627502 -0.0001066017 0)
(0.76617154 -9.9580115e-05 0)
(0.76607489 -9.3021468e-05 0)
(0.76598462 -8.6890055e-05 0)
(0.7659003 -8.1157451e-05 0)
(0.76582156 -7.5792875e-05 0)
(0.76574802 -7.0777794e-05 0)
(0.76567937 -6.6084462e-05 0)
(0.76561526 -6.1702918e-05 0)
(0.76555544 -5.7600386e-05 0)
(0.76549957 -5.3774356e-05 0)
(0.76544747 -5.0179048e-05 0)
(0.76539879 -4.6827496e-05 0)
(0.76535346 -4.3655267e-05 0)
(0.76531109 -4.0708856e-05 0)
(0.76527173 -3.789276e-05 0)
(0.76523492 -3.5309208e-05 0)
(0.76520082 -3.280175e-05 0)
(0.76516897 -3.0558354e-05 0)
(0.76513942 -2.8314451e-05 0)
(0.76511212 -2.639744e-05 0)
(0.7650862 -2.4375378e-05 0)
(0.76506364 -2.2807912e-05 0)
(0.76503942 -2.1031118e-05 0)
(0.76502388 -1.9994041e-05 0)
(0.76499577 -1.885617e-05 0)
(0.91890839 -0.035821912 0)
(0.86271384 -0.062195638 0)
(0.7870597 -0.06251009 0)
(0.69536033 -0.054550395 0)
(0.61089745 -0.044531652 0)
(0.54411592 -0.034015973 0)
(0.49343012 -0.024187541 0)
(0.45479413 -0.01614423 0)
(0.42544582 -0.010265785 0)
(0.40347313 -0.0063041444 0)
(0.38715766 -0.0037976282 0)
(0.3749622 -0.0023103369 0)
(0.36566193 -0.0014930142 0)
(0.35836273 -0.0010851182 0)
(0.35244268 -0.00090607312 0)
(0.34748201 -0.00084105307 0)
(0.34320347 -0.00082372553 0)
(0.33942725 -0.00081931135 0)
(0.33603792 -0.00081185215 0)
(0.33296114 -0.00079580054 0)
(0.33014778 -0.00077081018 0)
(0.32756384 -0.00073870803 0)
(0.3251842 -0.00070188819 0)
(0.32298902 -0.00066256526 0)
(0.32096172 -0.00062250004 0)
(0.31908785 -0.00058295865 0)
(0.31735449 -0.00054477315 0)
(0.31574995 -0.00050843557 0)
(0.3142636 -0.00047419237 0)
(0.31288574 -0.00044212445 0)
(0.31160755 -0.00041220839 0)
(0.31042101 -0.00038435995 0)
(0.30931883 -0.00035846321 0)
(0.30829438 -0.00033438905 0)
(0.30734165 -0.00031200635 0)
(0.30645516 -0.00029118834 0)
(0.30562991 -0.00027181585 0)
(0.30486136 -0.00025377868 0)
(0.30414535 -0.00023697591 0)
(0.30347806 -0.00022131551 0)
(0.302856 -0.00020671365 0)
(0.30227596 -0.00019309388 0)
(0.30173497 -0.00018038631 0)
(0.3012303 -0.00016852669 0)
(0.30075943 -0.00015745585 0)
(0.30032002 -0.00014711902 0)
(0.29990993 -0.00013746552 0)
(0.29952715 -0.00012844845 0)
(0.29916982 -0.00012002449 0)
(0.29883623 -0.00011215374 0)
(0.29852478 -0.00010479946 0)
(0.29823397 -9.7927724e-05 0)
(0.29796242 -9.1507102e-05 0)
(0.29770883 -8.5508165e-05 0)
(0.29747202 -7.9903221e-05 0)
(0.29725085 -7.4666059e-05 0)
(0.2970443 -6.9771909e-05 0)
(0.29685138 -6.5197581e-05 0)
(0.29667119 -6.092155e-05 0)
(0.2965029 -5.6924152e-05 0)
(0.29634571 -5.3187503e-05 0)
(0.2961989 -4.9695295e-05 0)
(0.29606177 -4.6432471e-05 0)
(0.29593367 -4.3384699e-05 0)
(0.29581402 -4.0538124e-05 0)
(0.29570225 -3.7879135e-05 0)
(0.29559784 -3.5394512e-05 0)
(0.29550031 -3.3071774e-05 0)
(0.29540921 -3.0899534e-05 0)
(0.29532411 -2.8867834e-05 0)
(0.29524462 -2.6968177e-05 0)
(0.29517038 -2.5193095e-05 0)
(0.29510103 -2.3535828e-05 0)
(0.29503624 -2.1989345e-05 0)
(0.29497572 -2.0546477e-05 0)
(0.29491918 -1.9199249e-05 0)
(0.29486636 -1.7940115e-05 0)
(0.29481702 -1.6761455e-05 0)
(0.29477093 -1.5657717e-05 0)
(0.29472788 -1.4623428e-05 0)
(0.29468769 -1.3656223e-05 0)
(0.29465015 -1.2751609e-05 0)
(0.2946151 -1.1908766e-05 0)
(0.29458237 -1.1120874e-05 0)
(0.29455179 -1.038748e-05 0)
(0.29452326 -9.6977556e-06 0)
(0.29449661 -9.0544152e-06 0)
(0.29447176 -8.4431012e-06 0)
(0.29444857 -7.8749211e-06 0)
(0.29442699 -7.3304463e-06 0)
(0.29440685 -6.8326905e-06 0)
(0.29438814 -6.3512524e-06 0)
(0.29437069 -5.9220627e-06 0)
(0.29435448 -5.4995839e-06 0)
(0.29433941 -5.1316603e-06 0)
(0.29432532 -4.7736964e-06 0)
(0.2943125 -4.4639237e-06 0)
(0.29429985 -4.241182e-06 0)
(0.29428967 -4.0598422e-06 0)
(0.29427506 -4.4549293e-06 0)
)
;

boundaryField
{
    top
    {
        type            fixedValue;
        value           uniform (0 0 0);
    }
    inlet
    {
        type            fixedValue;
        value           uniform (1 0 0);
    }
    outlet
    {
        type            zeroGradient;
    }
    bottom
    {
        type            fixedValue;
        value           uniform (0 0 0);
    }
    back
    {
        type            empty;
    }
    front
    {
        type            empty;
    }
}


// ************************************************************************* //
