/*--------------------------------*- C++ -*----------------------------------*\
| =========                 |                                                 |
| \\      /  F ield         | OpenFOAM: The Open Source CFD Toolbox           |
|  \\    /   O peration     | Version:  v1812                                 |
|   \\  /    A nd           | Web:      www.OpenFOAM.com                      |
|    \\/     M anipulation  |                                                 |
\*---------------------------------------------------------------------------*/
FoamFile
{
    version     2.0;
    format      ascii;
    class       volScalarField;
    location    "2";
    object      p;
}
// * * * * * * * * * * * * * * * * * * * * * * * * * * * * * * * * * * * * * //

dimensions      [0 2 -2 0 0 0 0];


internalField   nonuniform List<scalar> 
1000
(
1.5142495
1.4977912
1.4821803
1.4668505
1.4515882
1.4363594
1.421151
1.4059498
1.3907499
1.3755503
1.3603508
1.3451515
1.3299522
1.3147529
1.2995536
1.2843543
1.2691549
1.2539556
1.2387562
1.2235568
1.2083573
1.1931579
1.1779585
1.162759
1.1475595
1.1323601
1.1171606
1.1019612
1.0867617
1.0715622
1.0563628
1.0411633
1.0259638
1.0107644
0.99556492
0.98036545
0.96516599
0.94996652
0.93476706
0.91956759
0.90436812
0.88916866
0.87396919
0.85876973
0.84357027
0.8283708
0.81317134
0.79797188
0.78277242
0.76757295
0.75237349
0.73717403
0.72197456
0.7067751
0.69157563
0.67637617
0.6611767
0.64597723
0.63077776
0.6155783
0.60037883
0.58517936
0.5699799
0.55478043
0.53958097
0.52438151
0.50918205
0.49398259
0.47878313
0.46358367
0.44838421
0.43318475
0.41798529
0.40278582
0.38758636
0.3723869
0.35718743
0.34198797
0.3267885
0.31158903
0.29638956
0.28119009
0.26599062
0.25079114
0.23559167
0.2203922
0.20519273
0.18999326
0.17479379
0.15959432
0.14439486
0.12919539
0.11399593
0.098796471
0.083597014
0.06839756
0.05319811
0.037998666
0.022799215
0.0075997414
1.5138819
1.4974386
1.4821052
1.4668856
1.4516178
1.4363721
1.421158
1.4059548
1.3907531
1.3755521
1.3603519
1.3451521
1.3299526
1.3147531
1.2995537
1.2843543
1.269155
1.2539556
1.2387562
1.2235568
1.2083573
1.1931579
1.1779585
1.162759
1.1475595
1.1323601
1.1171606
1.1019612
1.0867617
1.0715622
1.0563628
1.0411633
1.0259638
1.0107644
0.99556492
0.98036545
0.96516599
0.94996652
0.93476706
0.91956759
0.90436812
0.88916866
0.87396919
0.85876973
0.84357027
0.8283708
0.81317134
0.79797188
0.78277242
0.76757295
0.75237349
0.73717403
0.72197456
0.7067751
0.69157563
0.67637617
0.6611767
0.64597723
0.63077776
0.6155783
0.60037883
0.58517936
0.5699799
0.55478043
0.53958097
0.52438151
0.50918205
0.49398259
0.47878313
0.46358367
0.44838421
0.43318475
0.41798529
0.40278582
0.38758636
0.3723869
0.35718743
0.34198797
0.3267885
0.31158903
0.29638956
0.28119009
0.26599062
0.25079114
0.23559167
0.2203922
0.20519273
0.18999326
0.17479379
0.15959432
0.14439486
0.12919539
0.11399593
0.098796471
0.083597013
0.068397557
0.053198103
0.037998659
0.02279921
0.0075997394
1.513456
1.4969875
1.4819505
1.466879
1.4516272
1.4363747
1.4211604
1.4059579
1.3907554
1.3755536
1.3603528
1.3451527
1.3299529
1.3147533
1.2995539
1.2843544
1.269155
1.2539556
1.2387562
1.2235568
1.2083573
1.1931579
1.1779585
1.162759
1.1475595
1.1323601
1.1171606
1.1019612
1.0867617
1.0715622
1.0563628
1.0411633
1.0259638
1.0107644
0.99556492
0.98036545
0.96516599
0.94996652
0.93476706
0.91956759
0.90436812
0.88916866
0.87396919
0.85876973
0.84357027
0.8283708
0.81317134
0.79797188
0.78277242
0.76757295
0.75237349
0.73717403
0.72197456
0.7067751
0.69157563
0.67637617
0.6611767
0.64597723
0.63077776
0.6155783
0.60037883
0.58517936
0.5699799
0.55478043
0.53958097
0.52438151
0.50918205
0.49398259
0.47878313
0.46358367
0.44838421
0.43318475
0.41798529
0.40278582
0.38758636
0.3723869
0.35718743
0.34198797
0.3267885
0.31158903
0.29638956
0.28119009
0.26599062
0.25079114
0.23559167
0.2203922
0.20519273
0.18999326
0.17479379
0.15959432
0.14439486
0.12919539
0.11399593
0.098796471
0.083597013
0.068397557
0.053198101
0.037998658
0.022799207
0.0075997339
1.51317
1.4966646
1.4818211
1.466861
1.451629
1.4363749
1.4211615
1.40596
1.3907572
1.3755547
1.3603536
1.3451532
1.3299533
1.3147536
1.299554
1.2843545
1.2691551
1.2539557
1.2387562
1.2235568
1.2083574
1.1931579
1.1779585
1.162759
1.1475596
1.1323601
1.1171606
1.1019612
1.0867617
1.0715622
1.0563628
1.0411633
1.0259638
1.0107644
0.99556492
0.98036545
0.96516599
0.94996652
0.93476706
0.91956759
0.90436812
0.88916866
0.87396919
0.85876973
0.84357027
0.8283708
0.81317134
0.79797188
0.78277242
0.76757295
0.75237349
0.73717403
0.72197456
0.7067751
0.69157563
0.67637616
0.6611767
0.64597723
0.63077776
0.6155783
0.60037883
0.58517936
0.5699799
0.55478043
0.53958097
0.52438151
0.50918205
0.49398259
0.47878313
0.46358367
0.44838421
0.43318475
0.41798529
0.40278582
0.38758636
0.3723869
0.35718743
0.34198797
0.3267885
0.31158903
0.29638956
0.28119009
0.26599062
0.25079114
0.23559167
0.2203922
0.20519273
0.18999326
0.17479379
0.15959432
0.14439486
0.12919539
0.11399593
0.098796471
0.083597013
0.068397558
0.053198101
0.037998657
0.022799206
0.007599732
1.5130415
1.4965103
1.4817523
1.4668471
1.4516277
1.4363743
1.4211618
1.4059609
1.3907581
1.3755554
1.360354
1.3451535
1.3299535
1.3147537
1.2995541
1.2843546
1.2691551
1.2539557
1.2387562
1.2235568
1.2083574
1.1931579
1.1779585
1.162759
1.1475596
1.1323601
1.1171606
1.1019612
1.0867617
1.0715622
1.0563628
1.0411633
1.0259638
1.0107644
0.99556492
0.98036545
0.96516599
0.94996652
0.93476706
0.91956759
0.90436812
0.88916866
0.87396919
0.85876973
0.84357027
0.8283708
0.81317134
0.79797188
0.78277242
0.76757295
0.75237349
0.73717403
0.72197456
0.7067751
0.69157563
0.67637616
0.6611767
0.64597723
0.63077776
0.6155783
0.60037883
0.58517936
0.5699799
0.55478043
0.53958097
0.52438151
0.50918205
0.49398259
0.47878313
0.46358367
0.44838421
0.43318475
0.41798529
0.40278582
0.38758636
0.3723869
0.35718743
0.34198796
0.3267885
0.31158903
0.29638956
0.28119009
0.26599062
0.25079114
0.23559167
0.2203922
0.20519273
0.18999326
0.17479379
0.15959432
0.14439486
0.12919539
0.11399593
0.098796471
0.083597014
0.068397559
0.053198102
0.037998658
0.022799206
0.0075997312
1.5130415
1.4965103
1.4817523
1.4668471
1.4516277
1.4363743
1.4211617
1.4059608
1.390758
1.3755553
1.360354
1.3451535
1.3299535
1.3147537
1.2995541
1.2843546
1.2691551
1.2539557
1.2387562
1.2235568
1.2083574
1.1931579
1.1779585
1.162759
1.1475596
1.1323601
1.1171606
1.1019612
1.0867617
1.0715622
1.0563628
1.0411633
1.0259638
1.0107644
0.99556492
0.98036545
0.96516599
0.94996652
0.93476706
0.91956759
0.90436812
0.88916866
0.87396919
0.85876973
0.84357027
0.8283708
0.81317134
0.79797188
0.78277242
0.76757295
0.75237349
0.73717403
0.72197456
0.7067751
0.69157563
0.67637616
0.6611767
0.64597723
0.63077776
0.6155783
0.60037883
0.58517936
0.5699799
0.55478043
0.53958097
0.52438151
0.50918205
0.49398259
0.47878313
0.46358367
0.44838421
0.43318475
0.41798529
0.40278582
0.38758636
0.3723869
0.35718743
0.34198796
0.3267885
0.31158903
0.29638956
0.28119009
0.26599061
0.25079114
0.23559167
0.2203922
0.20519273
0.18999326
0.17479379
0.15959432
0.14439486
0.12919539
0.11399593
0.098796472
0.083597015
0.06839756
0.053198103
0.037998658
0.022799206
0.0075997313
1.51317
1.4966647
1.4818212
1.466861
1.4516289
1.4363747
1.4211613
1.4059598
1.390757
1.3755546
1.3603535
1.3451532
1.3299532
1.3147535
1.299554
1.2843545
1.2691551
1.2539557
1.2387562
1.2235568
1.2083574
1.1931579
1.1779585
1.162759
1.1475596
1.1323601
1.1171606
1.1019612
1.0867617
1.0715622
1.0563628
1.0411633
1.0259638
1.0107644
0.99556492
0.98036545
0.96516599
0.94996652
0.93476706
0.91956759
0.90436812
0.88916866
0.8739692
0.85876973
0.84357027
0.8283708
0.81317134
0.79797188
0.78277242
0.76757295
0.75237349
0.73717403
0.72197456
0.7067751
0.69157563
0.67637616
0.6611767
0.64597723
0.63077776
0.6155783
0.60037883
0.58517936
0.5699799
0.55478043
0.53958097
0.52438151
0.50918205
0.49398259
0.47878313
0.46358367
0.44838421
0.43318475
0.41798529
0.40278582
0.38758636
0.3723869
0.35718743
0.34198796
0.3267885
0.31158903
0.29638956
0.28119009
0.26599061
0.25079114
0.23559167
0.2203922
0.20519273
0.18999326
0.17479379
0.15959432
0.14439486
0.12919539
0.11399593
0.098796473
0.083597016
0.068397561
0.053198104
0.03799866
0.022799208
0.0075997325
1.5134559
1.4969874
1.4819504
1.4668789
1.451627
1.4363745
1.4211601
1.4059576
1.3907552
1.3755534
1.3603527
1.3451526
1.3299529
1.3147533
1.2995538
1.2843544
1.269155
1.2539556
1.2387562
1.2235568
1.2083574
1.1931579
1.1779585
1.162759
1.1475596
1.1323601
1.1171606
1.1019612
1.0867617
1.0715622
1.0563628
1.0411633
1.0259638
1.0107644
0.99556492
0.98036545
0.96516599
0.94996652
0.93476706
0.91956759
0.90436813
0.88916866
0.8739692
0.85876973
0.84357027
0.8283708
0.81317134
0.79797188
0.78277242
0.76757295
0.75237349
0.73717403
0.72197456
0.7067751
0.69157563
0.67637616
0.6611767
0.64597723
0.63077776
0.6155783
0.60037883
0.58517936
0.5699799
0.55478043
0.53958097
0.52438151
0.50918205
0.49398259
0.47878313
0.46358367
0.44838421
0.43318475
0.41798528
0.40278582
0.38758636
0.3723869
0.35718743
0.34198796
0.32678849
0.31158903
0.29638956
0.28119009
0.26599061
0.25079114
0.23559167
0.2203922
0.20519273
0.18999326
0.17479379
0.15959432
0.14439486
0.1291954
0.11399593
0.098796474
0.083597017
0.068397562
0.053198106
0.037998661
0.02279921
0.0075997347
1.5138818
1.4974382
1.4821048
1.4668853
1.4516176
1.4363719
1.4211578
1.4059546
1.3907529
1.3755519
1.3603518
1.345152
1.3299525
1.3147531
1.2995537
1.2843543
1.269155
1.2539556
1.2387562
1.2235568
1.2083574
1.1931579
1.1779585
1.162759
1.1475596
1.1323601
1.1171606
1.1019612
1.0867617
1.0715622
1.0563628
1.0411633
1.0259638
1.0107644
0.99556492
0.98036545
0.96516599
0.94996652
0.93476706
0.91956759
0.90436813
0.88916866
0.8739692
0.85876973
0.84357027
0.82837081
0.81317134
0.79797188
0.78277242
0.76757295
0.75237349
0.73717403
0.72197456
0.7067751
0.69157563
0.67637616
0.6611767
0.64597723
0.63077776
0.6155783
0.60037883
0.58517936
0.5699799
0.55478044
0.53958097
0.52438151
0.50918205
0.49398259
0.47878313
0.46358367
0.44838421
0.43318475
0.41798528
0.40278582
0.38758636
0.37238689
0.35718743
0.34198796
0.32678849
0.31158903
0.29638956
0.28119008
0.26599061
0.25079114
0.23559167
0.2203922
0.20519273
0.18999326
0.17479379
0.15959433
0.14439486
0.1291954
0.11399593
0.098796475
0.083597018
0.068397564
0.053198109
0.037998664
0.022799213
0.0075997403
1.5142492
1.4977907
1.4821799
1.4668504
1.4515882
1.4363594
1.421151
1.4059499
1.39075
1.3755503
1.3603508
1.3451514
1.3299521
1.3147528
1.2995536
1.2843542
1.2691549
1.2539556
1.2387562
1.2235568
1.2083573
1.1931579
1.1779585
1.162759
1.1475596
1.1323601
1.1171606
1.1019612
1.0867617
1.0715622
1.0563628
1.0411633
1.0259638
1.0107644
0.99556492
0.98036545
0.96516599
0.94996652
0.93476706
0.91956759
0.90436813
0.88916866
0.8739692
0.85876973
0.84357027
0.82837081
0.81317134
0.79797188
0.78277242
0.76757295
0.75237349
0.73717403
0.72197456
0.7067751
0.69157563
0.67637616
0.6611767
0.64597723
0.63077776
0.6155783
0.60037883
0.58517936
0.5699799
0.55478044
0.53958097
0.52438151
0.50918205
0.49398259
0.47878313
0.46358367
0.44838421
0.43318475
0.41798528
0.40278582
0.38758636
0.37238689
0.35718743
0.34198796
0.32678849
0.31158902
0.29638956
0.28119008
0.26599061
0.25079114
0.23559167
0.2203922
0.20519273
0.18999326
0.17479379
0.15959433
0.14439486
0.1291954
0.11399594
0.098796477
0.083597021
0.068397567
0.053198116
0.037998671
0.022799218
0.0075997422
)
;

boundaryField
{
    top
    {
        type            zeroGradient;
    }
    inlet
    {
        type            fixedValue;
        value           uniform 1.523;
    }
    outlet
    {
        type            fixedValue;
        value           uniform 0;
    }
    bottom
    {
        type            zeroGradient;
    }
    back
    {
        type            empty;
    }
    front
    {
        type            empty;
    }
}


// ************************************************************************* //
