/*--------------------------------*- C++ -*----------------------------------*\
| =========                 |                                                 |
| \\      /  F ield         | OpenFOAM: The Open Source CFD Toolbox           |
|  \\    /   O peration     | Version:  v1812                                 |
|   \\  /    A nd           | Web:      www.OpenFOAM.com                      |
|    \\/     M anipulation  |                                                 |
\*---------------------------------------------------------------------------*/
FoamFile
{
    version     2.0;
    format      ascii;
    class       volScalarField;
    location    "45";
    object      T;
}
// * * * * * * * * * * * * * * * * * * * * * * * * * * * * * * * * * * * * * //

dimensions      [0 0 0 1 0 0 0];


internalField   nonuniform List<scalar> 
10000
(
1.43678
1.43678
1.43678
1.43678
1.43678
1.43678
1.43678
1.43678
1.43678
1.43678
1.31105
1.31105
1.31105
1.31104
1.31104
1.31104
1.31104
1.31104
1.31104
1.31104
1.18741
1.18741
1.18741
1.18741
1.18741
1.18741
1.18741
1.18741
1.18741
1.18741
1.06719
1.06719
1.06719
1.06719
1.06719
1.06719
1.06719
1.06719
1.06719
1.06719
0.951589
0.95159
0.951589
0.951589
0.951588
0.951588
0.951588
0.951589
0.951589
0.951589
0.841676
0.841676
0.841676
0.841675
0.841675
0.841675
0.841675
0.841675
0.841675
0.841675
0.738329
0.738329
0.738329
0.738328
0.738328
0.738328
0.738328
0.738328
0.738328
0.738328
0.642235
0.642236
0.642235
0.642234
0.642234
0.642234
0.642234
0.642235
0.642235
0.642235
0.553878
0.553878
0.553877
0.553877
0.553876
0.553876
0.553876
0.553877
0.553877
0.553877
0.473532
0.473533
0.473532
0.473531
0.473531
0.473531
0.473531
0.473532
0.473532
0.473532
0.401281
0.401282
0.401281
0.40128
0.40128
0.40128
0.40128
0.401281
0.401281
0.401281
0.337026
0.337026
0.337026
0.337025
0.337025
0.337025
0.337025
0.337026
0.337026
0.337026
0.280511
0.280512
0.280511
0.28051
0.28051
0.28051
0.280511
0.280511
0.280511
0.280511
0.231351
0.231351
0.23135
0.23135
0.23135
0.23135
0.23135
0.23135
0.231351
0.231351
0.189056
0.189056
0.189055
0.189055
0.189055
0.189055
0.189055
0.189056
0.189056
0.189056
0.153066
0.153066
0.153065
0.153065
0.153065
0.153065
0.153065
0.153066
0.153066
0.153066
0.122775
0.122775
0.122774
0.122774
0.122774
0.122774
0.122774
0.122774
0.122775
0.122775
0.0975569
0.097557
0.0975566
0.0975563
0.0975562
0.0975562
0.0975564
0.0975566
0.0975569
0.0975569
0.0767905
0.0767905
0.0767901
0.0767899
0.0767897
0.0767897
0.0767897
0.0767899
0.0767902
0.0767901
0.0598741
0.0598742
0.0598738
0.0598735
0.0598733
0.0598731
0.0598731
0.0598731
0.0598733
0.0598732
0.0462423
0.0462423
0.0462419
0.0462415
0.0462412
0.0462409
0.0462407
0.0462405
0.0462405
0.0462404
0.035375
0.0353749
0.0353745
0.035374
0.0353734
0.0353729
0.0353723
0.0353719
0.0353716
0.0353714
0.026804
0.0268038
0.0268032
0.0268025
0.0268016
0.0268006
0.0267996
0.0267986
0.0267979
0.0267974
0.0201158
0.0201155
0.0201147
0.0201136
0.0201122
0.0201105
0.0201087
0.0201069
0.0201054
0.0201045
0.014952
0.0149516
0.0149505
0.0149488
0.0149466
0.0149438
0.0149406
0.0149372
0.0149344
0.0149327
0.0110072
0.0110065
0.0110049
0.0110025
0.010999
0.0109945
0.010989
0.0109831
0.0109777
0.0109743
0.00802499
0.00802402
0.00802186
0.00801837
0.00801324
0.00800617
0.00799708
0.00798653
0.00797625
0.00796933
0.0057941
0.00579279
0.00578992
0.00578512
0.00577776
0.00576709
0.00575247
0.00573408
0.00571426
0.00569941
0.00414256
0.00414092
0.00413728
0.00413102
0.00412104
0.0041058
0.00408336
0.00405219
0.00401374
0.00397921
0.00293266
0.00293072
0.00292639
0.00291876
0.00290621
0.00288606
0.00285417
0.00280463
0.00273136
0.00264228
1.43678
1.43678
1.43678
1.43678
1.43678
1.43678
1.43678
1.43678
1.43678
1.43678
1.31105
1.31105
1.31105
1.31104
1.31104
1.31104
1.31104
1.31104
1.31104
1.31104
1.18741
1.18741
1.18741
1.18741
1.18741
1.18741
1.18741
1.18741
1.18741
1.18741
1.06719
1.06719
1.06719
1.06719
1.06719
1.06719
1.06719
1.06719
1.06719
1.06719
0.95159
0.95159
0.951589
0.951589
0.951588
0.951588
0.951588
0.951589
0.951589
0.951589
0.841676
0.841676
0.841676
0.841675
0.841675
0.841675
0.841675
0.841675
0.841676
0.841675
0.738329
0.738329
0.738329
0.738328
0.738328
0.738328
0.738328
0.738328
0.738329
0.738328
0.642236
0.642236
0.642235
0.642234
0.642234
0.642234
0.642234
0.642235
0.642235
0.642235
0.553878
0.553878
0.553877
0.553876
0.553876
0.553876
0.553876
0.553877
0.553877
0.553877
0.473533
0.473533
0.473532
0.473531
0.473531
0.473531
0.473531
0.473532
0.473532
0.473532
0.401282
0.401282
0.401281
0.40128
0.40128
0.40128
0.40128
0.401281
0.401282
0.401281
0.337026
0.337026
0.337026
0.337025
0.337025
0.337025
0.337025
0.337026
0.337026
0.337026
0.280512
0.280511
0.280511
0.28051
0.28051
0.28051
0.28051
0.280511
0.280512
0.280512
0.231351
0.231351
0.23135
0.23135
0.231349
0.23135
0.23135
0.23135
0.231351
0.231351
0.189056
0.189056
0.189055
0.189055
0.189055
0.189055
0.189055
0.189056
0.189056
0.189056
0.153066
0.153066
0.153065
0.153065
0.153065
0.153065
0.153065
0.153066
0.153066
0.153066
0.122775
0.122775
0.122774
0.122774
0.122774
0.122774
0.122774
0.122774
0.122775
0.122775
0.097557
0.097557
0.0975565
0.0975563
0.0975561
0.0975561
0.0975563
0.0975566
0.0975571
0.097557
0.0767906
0.0767905
0.0767901
0.0767898
0.0767897
0.0767896
0.0767897
0.0767899
0.0767903
0.0767902
0.0598742
0.0598741
0.0598737
0.0598734
0.0598732
0.0598731
0.0598731
0.0598732
0.0598734
0.0598733
0.0462424
0.0462423
0.0462419
0.0462415
0.0462412
0.0462409
0.0462407
0.0462406
0.0462406
0.0462405
0.0353751
0.0353749
0.0353744
0.0353739
0.0353734
0.0353728
0.0353723
0.0353719
0.0353717
0.0353714
0.026804
0.0268038
0.0268032
0.0268024
0.0268016
0.0268006
0.0267996
0.0267987
0.026798
0.0267975
0.0201158
0.0201155
0.0201147
0.0201136
0.0201122
0.0201105
0.0201086
0.0201069
0.0201054
0.0201045
0.0149521
0.0149515
0.0149504
0.0149488
0.0149466
0.0149438
0.0149406
0.0149373
0.0149344
0.0149327
0.0110072
0.0110064
0.0110049
0.0110025
0.010999
0.0109945
0.010989
0.0109831
0.0109777
0.0109743
0.00802501
0.008024
0.00802184
0.00801835
0.00801323
0.00800615
0.00799707
0.00798654
0.00797627
0.00796935
0.0057941
0.00579278
0.0057899
0.0057851
0.00577775
0.00576708
0.00575246
0.00573408
0.00571428
0.00569943
0.00414257
0.00414091
0.00413727
0.00413101
0.00412103
0.00410579
0.00408335
0.0040522
0.00401376
0.00397922
0.00293267
0.00293072
0.00292638
0.00291875
0.0029062
0.00288605
0.00285417
0.00280462
0.00273137
0.00264229
1.43678
1.43678
1.43678
1.43678
1.43678
1.43678
1.43678
1.43678
1.43678
1.43678
1.31105
1.31105
1.31104
1.31104
1.31104
1.31104
1.31104
1.31104
1.31104
1.31104
1.18741
1.18741
1.18741
1.18741
1.18741
1.18741
1.18741
1.18741
1.18741
1.18741
1.06719
1.06719
1.06719
1.06719
1.06718
1.06718
1.06718
1.06719
1.06719
1.06719
0.951589
0.951589
0.951588
0.951588
0.951588
0.951588
0.951588
0.951588
0.951588
0.951588
0.841676
0.841676
0.841675
0.841674
0.841674
0.841674
0.841674
0.841675
0.841675
0.841675
0.738329
0.738329
0.738328
0.738327
0.738327
0.738327
0.738327
0.738327
0.738328
0.738328
0.642235
0.642235
0.642234
0.642233
0.642233
0.642233
0.642233
0.642234
0.642235
0.642235
0.553877
0.553877
0.553876
0.553876
0.553875
0.553875
0.553876
0.553876
0.553877
0.553877
0.473532
0.473532
0.473531
0.47353
0.47353
0.47353
0.473531
0.473531
0.473532
0.473532
0.401281
0.401281
0.40128
0.401279
0.401279
0.401279
0.40128
0.40128
0.401281
0.401281
0.337026
0.337026
0.337025
0.337024
0.337024
0.337024
0.337025
0.337025
0.337026
0.337026
0.280511
0.280511
0.28051
0.28051
0.280509
0.28051
0.28051
0.28051
0.280511
0.280511
0.23135
0.23135
0.231349
0.231349
0.231349
0.231349
0.231349
0.23135
0.231351
0.231351
0.189055
0.189055
0.189055
0.189054
0.189054
0.189054
0.189055
0.189055
0.189056
0.189056
0.153065
0.153065
0.153065
0.153064
0.153064
0.153064
0.153065
0.153065
0.153066
0.153066
0.122774
0.122774
0.122774
0.122773
0.122773
0.122773
0.122774
0.122774
0.122775
0.122775
0.0975567
0.0975566
0.0975561
0.0975558
0.0975557
0.0975558
0.097556
0.0975564
0.0975569
0.097557
0.0767902
0.0767901
0.0767897
0.0767895
0.0767893
0.0767893
0.0767894
0.0767897
0.0767901
0.0767902
0.0598739
0.0598738
0.0598734
0.0598731
0.0598729
0.0598728
0.0598728
0.059873
0.0598733
0.0598733
0.0462422
0.046242
0.0462416
0.0462413
0.0462409
0.0462406
0.0462405
0.0462404
0.0462405
0.0462404
0.0353749
0.0353747
0.0353742
0.0353737
0.0353732
0.0353726
0.0353721
0.0353718
0.0353716
0.0353714
0.0268039
0.0268036
0.026803
0.0268023
0.0268014
0.0268004
0.0267994
0.0267986
0.0267979
0.0267975
0.0201157
0.0201154
0.0201146
0.0201135
0.0201121
0.0201104
0.0201085
0.0201068
0.0201054
0.0201045
0.014952
0.0149515
0.0149503
0.0149487
0.0149465
0.0149437
0.0149405
0.0149372
0.0149344
0.0149327
0.0110071
0.0110064
0.0110048
0.0110024
0.0109989
0.0109944
0.010989
0.0109831
0.0109777
0.0109743
0.00802495
0.00802395
0.00802178
0.0080183
0.00801317
0.0080061
0.00799702
0.0079865
0.00797625
0.00796935
0.00579406
0.00579274
0.00578986
0.00578506
0.00577771
0.00576704
0.00575243
0.00573405
0.00571427
0.00569943
0.00414254
0.00414088
0.00413723
0.00413097
0.004121
0.00410576
0.00408333
0.00405218
0.00401375
0.00397922
0.00293264
0.00293069
0.00292636
0.00291873
0.00290617
0.00288603
0.00285415
0.00280461
0.00273136
0.00264229
1.43678
1.43678
1.43678
1.43678
1.43678
1.43678
1.43678
1.43678
1.43678
1.43678
1.31104
1.31104
1.31104
1.31104
1.31104
1.31104
1.31104
1.31104
1.31104
1.31104
1.18741
1.18741
1.18741
1.18741
1.18741
1.18741
1.18741
1.18741
1.18741
1.18741
1.06719
1.06719
1.06719
1.06718
1.06718
1.06718
1.06718
1.06718
1.06719
1.06719
0.951589
0.951589
0.951588
0.951587
0.951587
0.951587
0.951587
0.951588
0.951588
0.951588
0.841675
0.841675
0.841674
0.841674
0.841674
0.841673
0.841674
0.841674
0.841675
0.841675
0.738328
0.738328
0.738327
0.738327
0.738326
0.738326
0.738327
0.738327
0.738328
0.738328
0.642234
0.642234
0.642233
0.642233
0.642233
0.642233
0.642233
0.642234
0.642234
0.642235
0.553877
0.553876
0.553876
0.553875
0.553875
0.553875
0.553875
0.553876
0.553877
0.553877
0.473531
0.473531
0.47353
0.47353
0.47353
0.47353
0.47353
0.473531
0.473532
0.473532
0.40128
0.40128
0.401279
0.401279
0.401279
0.401279
0.401279
0.40128
0.401281
0.401281
0.337025
0.337025
0.337024
0.337024
0.337024
0.337024
0.337024
0.337025
0.337026
0.337026
0.28051
0.28051
0.28051
0.280509
0.280509
0.280509
0.28051
0.28051
0.280511
0.280511
0.23135
0.23135
0.231349
0.231349
0.231348
0.231349
0.231349
0.23135
0.231351
0.231351
0.189055
0.189055
0.189054
0.189054
0.189054
0.189054
0.189054
0.189055
0.189056
0.189056
0.153065
0.153065
0.153064
0.153064
0.153064
0.153064
0.153064
0.153065
0.153066
0.153066
0.122774
0.122774
0.122773
0.122773
0.122773
0.122773
0.122773
0.122774
0.122775
0.122775
0.0975564
0.0975563
0.0975559
0.0975556
0.0975555
0.0975556
0.0975558
0.0975563
0.0975569
0.097557
0.0767901
0.07679
0.0767896
0.0767893
0.0767891
0.0767891
0.0767893
0.0767896
0.0767901
0.0767902
0.0598738
0.0598737
0.0598733
0.059873
0.0598728
0.0598727
0.0598727
0.0598729
0.0598732
0.0598733
0.046242
0.0462419
0.0462415
0.0462411
0.0462408
0.0462405
0.0462404
0.0462404
0.0462405
0.0462405
0.0353748
0.0353746
0.0353741
0.0353736
0.0353731
0.0353726
0.0353721
0.0353717
0.0353716
0.0353714
0.0268038
0.0268035
0.0268029
0.0268022
0.0268013
0.0268004
0.0267994
0.0267985
0.0267979
0.0267975
0.0201157
0.0201153
0.0201145
0.0201134
0.020112
0.0201103
0.0201085
0.0201068
0.0201054
0.0201045
0.0149519
0.0149514
0.0149503
0.0149486
0.0149464
0.0149436
0.0149405
0.0149372
0.0149344
0.0149327
0.0110071
0.0110063
0.0110048
0.0110023
0.0109989
0.0109944
0.010989
0.010983
0.0109777
0.0109743
0.00802493
0.00802392
0.00802176
0.00801827
0.00801315
0.00800608
0.00799701
0.0079865
0.00797626
0.00796937
0.00579404
0.00579272
0.00578984
0.00578504
0.00577769
0.00576703
0.00575242
0.00573405
0.00571427
0.00569944
0.00414252
0.00414087
0.00413722
0.00413096
0.00412099
0.00410575
0.00408332
0.00405217
0.00401375
0.00397923
0.00293263
0.00293068
0.00292635
0.00291872
0.00290617
0.00288602
0.00285415
0.00280461
0.00273136
0.00264229
1.43678
1.43678
1.43678
1.43678
1.43678
1.43678
1.43678
1.43678
1.43678
1.43678
1.31104
1.31104
1.31104
1.31104
1.31104
1.31104
1.31104
1.31104
1.31104
1.31104
1.18741
1.18741
1.18741
1.18741
1.18741
1.18741
1.18741
1.18741
1.18741
1.18741
1.06719
1.06719
1.06718
1.06718
1.06718
1.06718
1.06718
1.06718
1.06719
1.06719
0.951588
0.951588
0.951588
0.951587
0.951587
0.951587
0.951587
0.951587
0.951588
0.951588
0.841675
0.841675
0.841674
0.841674
0.841673
0.841673
0.841674
0.841674
0.841675
0.841675
0.738328
0.738328
0.738327
0.738326
0.738326
0.738326
0.738326
0.738327
0.738328
0.738328
0.642234
0.642234
0.642233
0.642233
0.642232
0.642232
0.642233
0.642233
0.642234
0.642235
0.553876
0.553876
0.553875
0.553875
0.553874
0.553875
0.553875
0.553876
0.553877
0.553877
0.473531
0.473531
0.47353
0.47353
0.473529
0.47353
0.47353
0.473531
0.473532
0.473532
0.40128
0.40128
0.401279
0.401279
0.401279
0.401279
0.401279
0.40128
0.401281
0.401281
0.337025
0.337025
0.337024
0.337024
0.337024
0.337024
0.337024
0.337025
0.337026
0.337026
0.28051
0.28051
0.280509
0.280509
0.280509
0.280509
0.280509
0.28051
0.280511
0.280511
0.23135
0.231349
0.231349
0.231348
0.231348
0.231349
0.231349
0.23135
0.231351
0.231351
0.189055
0.189055
0.189054
0.189054
0.189054
0.189054
0.189054
0.189055
0.189056
0.189056
0.153065
0.153065
0.153064
0.153064
0.153064
0.153064
0.153064
0.153065
0.153066
0.153066
0.122774
0.122774
0.122773
0.122773
0.122773
0.122773
0.122773
0.122774
0.122775
0.122775
0.0975564
0.0975563
0.0975558
0.0975556
0.0975555
0.0975556
0.0975559
0.0975563
0.0975569
0.0975571
0.07679
0.0767899
0.0767895
0.0767893
0.0767891
0.0767892
0.0767893
0.0767897
0.0767902
0.0767903
0.0598738
0.0598736
0.0598733
0.059873
0.0598728
0.0598727
0.0598728
0.059873
0.0598733
0.0598734
0.046242
0.0462419
0.0462415
0.0462411
0.0462408
0.0462406
0.0462404
0.0462404
0.0462406
0.0462405
0.0353748
0.0353746
0.0353741
0.0353736
0.0353731
0.0353726
0.0353721
0.0353718
0.0353717
0.0353715
0.0268038
0.0268035
0.0268029
0.0268022
0.0268014
0.0268004
0.0267994
0.0267986
0.026798
0.0267976
0.0201156
0.0201153
0.0201145
0.0201134
0.020112
0.0201104
0.0201085
0.0201068
0.0201054
0.0201046
0.0149519
0.0149514
0.0149503
0.0149487
0.0149464
0.0149437
0.0149405
0.0149372
0.0149345
0.0149328
0.0110071
0.0110063
0.0110048
0.0110023
0.0109989
0.0109944
0.010989
0.0109831
0.0109777
0.0109744
0.00802493
0.00802392
0.00802176
0.00801828
0.00801316
0.0080061
0.00799703
0.00798652
0.00797629
0.0079694
0.00579405
0.00579272
0.00578985
0.00578505
0.0057777
0.00576704
0.00575244
0.00573407
0.00571429
0.00569947
0.00414253
0.00414087
0.00413723
0.00413097
0.004121
0.00410576
0.00408333
0.00405219
0.00401377
0.00397924
0.00293264
0.00293069
0.00292635
0.00291873
0.00290617
0.00288603
0.00285416
0.00280462
0.00273138
0.00264231
1.43678
1.43678
1.43678
1.43678
1.43678
1.43678
1.43678
1.43678
1.43678
1.43678
1.31104
1.31104
1.31104
1.31104
1.31104
1.31104
1.31104
1.31104
1.31104
1.31104
1.18741
1.18741
1.18741
1.18741
1.18741
1.18741
1.18741
1.18741
1.18741
1.18741
1.06719
1.06719
1.06718
1.06718
1.06718
1.06718
1.06718
1.06718
1.06719
1.06719
0.951588
0.951588
0.951588
0.951587
0.951587
0.951587
0.951587
0.951588
0.951588
0.951588
0.841675
0.841675
0.841674
0.841673
0.841673
0.841673
0.841674
0.841674
0.841675
0.841675
0.738328
0.738328
0.738327
0.738326
0.738326
0.738326
0.738326
0.738327
0.738328
0.738328
0.642234
0.642234
0.642233
0.642233
0.642232
0.642233
0.642233
0.642234
0.642235
0.642235
0.553876
0.553876
0.553875
0.553875
0.553875
0.553875
0.553875
0.553876
0.553877
0.553877
0.473531
0.473531
0.47353
0.47353
0.47353
0.47353
0.47353
0.473531
0.473532
0.473532
0.40128
0.40128
0.401279
0.401279
0.401279
0.401279
0.401279
0.40128
0.401281
0.401281
0.337025
0.337025
0.337024
0.337024
0.337024
0.337024
0.337024
0.337025
0.337026
0.337026
0.28051
0.28051
0.28051
0.280509
0.280509
0.280509
0.28051
0.28051
0.280512
0.280512
0.23135
0.23135
0.231349
0.231349
0.231349
0.231349
0.231349
0.23135
0.231351
0.231351
0.189055
0.189055
0.189054
0.189054
0.189054
0.189054
0.189055
0.189055
0.189056
0.189056
0.153065
0.153065
0.153064
0.153064
0.153064
0.153064
0.153065
0.153065
0.153066
0.153066
0.122774
0.122774
0.122773
0.122773
0.122773
0.122773
0.122774
0.122774
0.122775
0.122775
0.0975565
0.0975564
0.097556
0.0975557
0.0975557
0.0975558
0.0975561
0.0975565
0.0975572
0.0975573
0.0767901
0.07679
0.0767896
0.0767894
0.0767893
0.0767893
0.0767895
0.0767899
0.0767904
0.0767905
0.0598738
0.0598737
0.0598734
0.0598731
0.0598729
0.0598729
0.0598729
0.0598731
0.0598735
0.0598736
0.0462421
0.046242
0.0462416
0.0462412
0.0462409
0.0462407
0.0462406
0.0462406
0.0462407
0.0462407
0.0353748
0.0353747
0.0353742
0.0353737
0.0353732
0.0353727
0.0353722
0.0353719
0.0353718
0.0353716
0.0268038
0.0268036
0.026803
0.0268023
0.0268014
0.0268005
0.0267995
0.0267987
0.0267981
0.0267977
0.0201157
0.0201153
0.0201146
0.0201135
0.0201121
0.0201104
0.0201086
0.0201069
0.0201055
0.0201047
0.014952
0.0149515
0.0149503
0.0149487
0.0149465
0.0149437
0.0149406
0.0149373
0.0149345
0.0149328
0.0110071
0.0110064
0.0110048
0.0110024
0.010999
0.0109945
0.010989
0.0109831
0.0109778
0.0109744
0.00802496
0.00802396
0.0080218
0.00801832
0.0080132
0.00800614
0.00799708
0.00798657
0.00797634
0.00796945
0.00579407
0.00579275
0.00578987
0.00578508
0.00577773
0.00576708
0.00575248
0.00573411
0.00571434
0.00569951
0.00414255
0.00414089
0.00413725
0.00413099
0.00412103
0.00410579
0.00408336
0.00405222
0.0040138
0.00397928
0.00293265
0.0029307
0.00292637
0.00291875
0.0029062
0.00288605
0.00285418
0.00280465
0.0027314
0.00264233
1.43678
1.43678
1.43678
1.43678
1.43678
1.43678
1.43678
1.43678
1.43678
1.43678
1.31104
1.31104
1.31104
1.31104
1.31104
1.31104
1.31104
1.31104
1.31104
1.31104
1.18741
1.18741
1.18741
1.18741
1.18741
1.18741
1.18741
1.18741
1.18741
1.18741
1.06719
1.06719
1.06718
1.06718
1.06718
1.06718
1.06718
1.06718
1.06719
1.06719
0.951588
0.951588
0.951588
0.951587
0.951587
0.951587
0.951587
0.951588
0.951588
0.951589
0.841675
0.841675
0.841674
0.841674
0.841674
0.841674
0.841674
0.841674
0.841675
0.841675
0.738328
0.738328
0.738327
0.738327
0.738326
0.738326
0.738327
0.738327
0.738328
0.738329
0.642234
0.642234
0.642233
0.642233
0.642233
0.642233
0.642233
0.642234
0.642235
0.642235
0.553876
0.553876
0.553876
0.553875
0.553875
0.553875
0.553876
0.553876
0.553877
0.553878
0.473531
0.473531
0.473531
0.47353
0.47353
0.47353
0.473531
0.473531
0.473532
0.473533
0.40128
0.40128
0.40128
0.401279
0.401279
0.401279
0.40128
0.401281
0.401282
0.401282
0.337025
0.337025
0.337025
0.337024
0.337024
0.337024
0.337025
0.337026
0.337027
0.337027
0.280511
0.280511
0.28051
0.28051
0.28051
0.28051
0.28051
0.280511
0.280512
0.280512
0.23135
0.23135
0.231349
0.231349
0.231349
0.231349
0.23135
0.23135
0.231351
0.231352
0.189055
0.189055
0.189055
0.189054
0.189054
0.189055
0.189055
0.189056
0.189057
0.189057
0.153065
0.153065
0.153065
0.153065
0.153065
0.153065
0.153065
0.153066
0.153067
0.153067
0.122774
0.122774
0.122774
0.122774
0.122774
0.122774
0.122774
0.122775
0.122775
0.122776
0.0975567
0.0975566
0.0975562
0.097556
0.097556
0.0975561
0.0975564
0.0975569
0.0975575
0.0975577
0.0767903
0.0767902
0.0767899
0.0767897
0.0767896
0.0767896
0.0767898
0.0767902
0.0767907
0.0767908
0.059874
0.0598739
0.0598736
0.0598733
0.0598732
0.0598731
0.0598732
0.0598734
0.0598738
0.0598738
0.0462423
0.0462421
0.0462418
0.0462415
0.0462412
0.0462409
0.0462408
0.0462408
0.046241
0.046241
0.035375
0.0353748
0.0353744
0.0353739
0.0353734
0.0353729
0.0353725
0.0353721
0.035372
0.0353719
0.0268039
0.0268037
0.0268032
0.0268025
0.0268016
0.0268007
0.0267997
0.0267989
0.0267983
0.0267979
0.0201158
0.0201155
0.0201147
0.0201136
0.0201122
0.0201106
0.0201088
0.020107
0.0201057
0.0201048
0.014952
0.0149515
0.0149504
0.0149488
0.0149466
0.0149439
0.0149407
0.0149374
0.0149347
0.014933
0.0110072
0.0110065
0.0110049
0.0110025
0.0109991
0.0109946
0.0109891
0.0109832
0.0109779
0.0109745
0.00802501
0.00802402
0.00802187
0.00801839
0.00801328
0.00800622
0.00799716
0.00798665
0.00797642
0.00796953
0.00579412
0.0057928
0.00578993
0.00578514
0.0057778
0.00576714
0.00575254
0.00573417
0.0057144
0.00569957
0.00414258
0.00414093
0.00413729
0.00413104
0.00412108
0.00410584
0.00408341
0.00405227
0.00401385
0.00397932
0.00293268
0.00293073
0.0029264
0.00291878
0.00290623
0.00288609
0.00285422
0.00280468
0.00273144
0.00264237
1.43678
1.43678
1.43678
1.43678
1.43678
1.43678
1.43678
1.43678
1.43678
1.43678
1.31104
1.31104
1.31104
1.31104
1.31104
1.31104
1.31104
1.31104
1.31104
1.31104
1.18741
1.18741
1.18741
1.18741
1.18741
1.18741
1.18741
1.18741
1.18741
1.18741
1.06719
1.06719
1.06719
1.06718
1.06718
1.06718
1.06718
1.06719
1.06719
1.06719
0.951589
0.951589
0.951588
0.951588
0.951587
0.951588
0.951588
0.951588
0.951589
0.951589
0.841675
0.841675
0.841675
0.841674
0.841674
0.841674
0.841674
0.841675
0.841676
0.841676
0.738328
0.738328
0.738327
0.738327
0.738327
0.738327
0.738327
0.738328
0.738329
0.738329
0.642235
0.642235
0.642234
0.642234
0.642233
0.642234
0.642234
0.642235
0.642236
0.642236
0.553877
0.553877
0.553876
0.553876
0.553876
0.553876
0.553876
0.553877
0.553878
0.553878
0.473532
0.473532
0.473531
0.473531
0.473531
0.473531
0.473531
0.473532
0.473533
0.473533
0.401281
0.401281
0.40128
0.40128
0.40128
0.40128
0.401281
0.401281
0.401282
0.401283
0.337026
0.337026
0.337025
0.337025
0.337025
0.337025
0.337026
0.337026
0.337027
0.337028
0.280511
0.280511
0.28051
0.28051
0.28051
0.28051
0.280511
0.280512
0.280513
0.280513
0.23135
0.23135
0.23135
0.23135
0.23135
0.23135
0.23135
0.231351
0.231352
0.231352
0.189056
0.189056
0.189055
0.189055
0.189055
0.189055
0.189056
0.189056
0.189057
0.189057
0.153066
0.153066
0.153065
0.153065
0.153065
0.153065
0.153066
0.153066
0.153067
0.153067
0.122775
0.122775
0.122774
0.122774
0.122774
0.122774
0.122775
0.122775
0.122776
0.122776
0.097557
0.097557
0.0975567
0.0975565
0.0975565
0.0975567
0.097557
0.0975574
0.097558
0.0975582
0.0767906
0.0767906
0.0767903
0.0767901
0.07679
0.0767901
0.0767903
0.0767907
0.0767912
0.0767913
0.0598743
0.0598742
0.0598739
0.0598737
0.0598736
0.0598736
0.0598736
0.0598738
0.0598742
0.0598742
0.0462425
0.0462424
0.0462421
0.0462418
0.0462415
0.0462413
0.0462412
0.0462412
0.0462413
0.0462413
0.0353752
0.035375
0.0353746
0.0353742
0.0353737
0.0353732
0.0353728
0.0353724
0.0353723
0.0353721
0.0268041
0.0268039
0.0268034
0.0268027
0.0268019
0.0268009
0.0268
0.0267991
0.0267985
0.0267981
0.0201159
0.0201156
0.0201149
0.0201138
0.0201124
0.0201108
0.020109
0.0201073
0.0201059
0.020105
0.0149522
0.0149517
0.0149506
0.014949
0.0149468
0.014944
0.0149409
0.0149376
0.0149348
0.0149331
0.0110073
0.0110066
0.011005
0.0110026
0.0109992
0.0109947
0.0109893
0.0109834
0.010978
0.0109747
0.00802509
0.0080241
0.00802196
0.0080185
0.00801339
0.00800634
0.00799727
0.00798676
0.00797653
0.00796963
0.00579418
0.00579287
0.00579001
0.00578522
0.00577788
0.00576723
0.00575263
0.00573426
0.00571448
0.00569965
0.00414263
0.00414098
0.00413735
0.0041311
0.00412114
0.00410591
0.00408348
0.00405234
0.00401391
0.00397939
0.00293272
0.00293078
0.00292645
0.00291883
0.00290628
0.00288614
0.00285427
0.00280474
0.00273148
0.00264241
1.43678
1.43678
1.43678
1.43678
1.43678
1.43678
1.43678
1.43678
1.43678
1.43678
1.31104
1.31104
1.31104
1.31104
1.31104
1.31104
1.31104
1.31104
1.31104
1.31104
1.18741
1.18741
1.18741
1.18741
1.18741
1.18741
1.18741
1.18741
1.18741
1.18741
1.06719
1.06719
1.06719
1.06719
1.06719
1.06719
1.06719
1.06719
1.06719
1.06719
0.951589
0.951589
0.951588
0.951588
0.951588
0.951588
0.951588
0.951589
0.951589
0.951589
0.841675
0.841676
0.841675
0.841675
0.841675
0.841675
0.841675
0.841676
0.841676
0.841676
0.738328
0.738329
0.738328
0.738328
0.738328
0.738328
0.738328
0.738329
0.73833
0.73833
0.642235
0.642235
0.642235
0.642234
0.642234
0.642235
0.642235
0.642236
0.642237
0.642237
0.553877
0.553877
0.553877
0.553877
0.553877
0.553877
0.553877
0.553878
0.553879
0.553879
0.473532
0.473532
0.473532
0.473532
0.473532
0.473532
0.473532
0.473533
0.473534
0.473534
0.401281
0.401282
0.401281
0.401281
0.401281
0.401281
0.401282
0.401282
0.401283
0.401284
0.337026
0.337026
0.337026
0.337026
0.337026
0.337026
0.337027
0.337027
0.337028
0.337029
0.280511
0.280512
0.280511
0.280511
0.280511
0.280512
0.280512
0.280513
0.280514
0.280514
0.231351
0.231351
0.231351
0.231351
0.231351
0.231351
0.231351
0.231352
0.231353
0.231353
0.189056
0.189056
0.189056
0.189056
0.189056
0.189056
0.189057
0.189057
0.189058
0.189058
0.153066
0.153066
0.153066
0.153066
0.153066
0.153066
0.153067
0.153067
0.153068
0.153068
0.122775
0.122775
0.122775
0.122775
0.122775
0.122775
0.122775
0.122776
0.122777
0.122777
0.0975573
0.0975575
0.0975573
0.0975572
0.0975572
0.0975574
0.0975576
0.0975581
0.0975587
0.0975587
0.0767909
0.076791
0.0767908
0.0767907
0.0767906
0.0767907
0.0767909
0.0767913
0.0767917
0.0767918
0.0598746
0.0598746
0.0598744
0.0598742
0.0598741
0.0598741
0.0598742
0.0598743
0.0598747
0.0598746
0.0462427
0.0462427
0.0462425
0.0462422
0.046242
0.0462418
0.0462416
0.0462416
0.0462417
0.0462416
0.0353754
0.0353753
0.035375
0.0353746
0.0353741
0.0353736
0.0353732
0.0353728
0.0353727
0.0353724
0.0268043
0.0268041
0.0268037
0.026803
0.0268022
0.0268013
0.0268003
0.0267994
0.0267988
0.0267984
0.0201161
0.0201158
0.0201151
0.0201141
0.0201127
0.0201111
0.0201093
0.0201075
0.0201061
0.0201052
0.0149523
0.0149518
0.0149508
0.0149492
0.014947
0.0149443
0.0149411
0.0149378
0.014935
0.0149333
0.0110074
0.0110067
0.0110052
0.0110028
0.0109994
0.0109949
0.0109895
0.0109835
0.0109782
0.0109748
0.00802517
0.00802421
0.00802209
0.00801863
0.00801353
0.00800648
0.00799741
0.0079869
0.00797665
0.00796974
0.00579424
0.00579295
0.0057901
0.00578533
0.00577799
0.00576734
0.00575274
0.00573437
0.00571458
0.00569974
0.00414268
0.00414105
0.00413743
0.00413119
0.00412123
0.00410599
0.00408357
0.00405242
0.00401399
0.00397945
0.00293276
0.00293083
0.00292651
0.0029189
0.00290635
0.00288621
0.00285434
0.0028048
0.00273154
0.00264246
1.43678
1.43678
1.43678
1.43678
1.43678
1.43678
1.43678
1.43678
1.43678
1.43678
1.31104
1.31104
1.31104
1.31104
1.31104
1.31104
1.31104
1.31104
1.31104
1.31104
1.18741
1.18741
1.18741
1.18741
1.18741
1.18741
1.18741
1.18741
1.18741
1.18741
1.06719
1.06719
1.06719
1.06719
1.06719
1.06719
1.06719
1.06719
1.06719
1.06719
0.951589
0.951589
0.951588
0.951588
0.951588
0.951588
0.951589
0.951589
0.951589
0.951589
0.841675
0.841675
0.841675
0.841675
0.841675
0.841675
0.841675
0.841676
0.841676
0.841676
0.738328
0.738328
0.738328
0.738328
0.738328
0.738328
0.738329
0.738329
0.73833
0.73833
0.642235
0.642235
0.642235
0.642235
0.642235
0.642235
0.642235
0.642236
0.642237
0.642236
0.553877
0.553877
0.553877
0.553877
0.553877
0.553877
0.553878
0.553878
0.553879
0.553879
0.473532
0.473532
0.473532
0.473532
0.473532
0.473532
0.473533
0.473533
0.473534
0.473534
0.401281
0.401281
0.401281
0.401281
0.401281
0.401281
0.401282
0.401283
0.401284
0.401283
0.337026
0.337026
0.337026
0.337026
0.337026
0.337026
0.337027
0.337028
0.337029
0.337028
0.280511
0.280512
0.280511
0.280511
0.280511
0.280512
0.280512
0.280513
0.280514
0.280513
0.231351
0.231351
0.231351
0.231351
0.231351
0.231351
0.231352
0.231352
0.231353
0.231353
0.189056
0.189056
0.189056
0.189056
0.189056
0.189056
0.189057
0.189057
0.189058
0.189058
0.153066
0.153066
0.153066
0.153066
0.153066
0.153066
0.153067
0.153067
0.153068
0.153068
0.122775
0.122775
0.122775
0.122775
0.122775
0.122775
0.122776
0.122776
0.122777
0.122776
0.0975574
0.0975575
0.0975574
0.0975573
0.0975574
0.0975575
0.0975578
0.0975582
0.0975587
0.0975585
0.0767909
0.076791
0.0767909
0.0767908
0.0767908
0.0767909
0.0767911
0.0767914
0.0767918
0.0767916
0.0598746
0.0598746
0.0598745
0.0598743
0.0598743
0.0598742
0.0598743
0.0598745
0.0598747
0.0598745
0.0462427
0.0462427
0.0462426
0.0462423
0.0462421
0.0462419
0.0462417
0.0462417
0.0462418
0.0462415
0.0353754
0.0353753
0.035375
0.0353746
0.0353742
0.0353737
0.0353733
0.0353729
0.0353727
0.0353723
0.0268043
0.0268042
0.0268037
0.0268031
0.0268023
0.0268013
0.0268004
0.0267995
0.0267989
0.0267983
0.0201161
0.0201158
0.0201151
0.0201141
0.0201128
0.0201111
0.0201093
0.0201076
0.0201062
0.0201052
0.0149523
0.0149519
0.0149508
0.0149492
0.0149471
0.0149443
0.0149411
0.0149379
0.0149351
0.0149332
0.0110074
0.0110067
0.0110052
0.0110028
0.0109994
0.010995
0.0109895
0.0109836
0.0109782
0.0109748
0.00802519
0.00802422
0.00802212
0.00801867
0.00801357
0.00800652
0.00799745
0.00798693
0.00797667
0.00796971
0.00579426
0.00579296
0.00579013
0.00578536
0.00577802
0.00576737
0.00575277
0.00573439
0.0057146
0.00569971
0.00414269
0.00414106
0.00413745
0.00413121
0.00412125
0.00410602
0.00408359
0.00405244
0.004014
0.00397943
0.00293277
0.00293083
0.00292652
0.00291891
0.00290637
0.00288623
0.00285435
0.00280481
0.00273155
0.00264244
0.00205557
0.00205344
0.00204865
0.00204009
0.00202571
0.00200189
0.00196212
0.00189378
0.00176869
0.00150971
0.00142646
0.00142428
0.00141938
0.00141061
0.00139587
0.00137146
0.00133102
0.00126331
0.00114841
0.00095376
0.000980011
0.000977932
0.000973292
0.000965059
0.000951388
0.000929243
0.000893814
0.000837812
0.000751334
0.000625035
0.000666585
0.000664732
0.000660631
0.000653454
0.000641786
0.000623445
0.000595315
0.000553369
0.000493469
0.000414027
0.000448907
0.000447348
0.000443934
0.00043806
0.000428734
0.000414535
0.000393628
0.000363998
0.000324141
0.000274478
0.000299343
0.000298097
0.000295398
0.000290834
0.00028376
0.000273313
0.000258486
0.000238343
0.000212446
0.00018149
0.000197669
0.000196716
0.000194675
0.000191281
0.000186141
0.00017876
0.000168621
0.00015533
0.000138842
0.000119714
0.000129276
0.000128576
0.00012709
0.000124661
0.00012106
0.000116025
0.000109315
0.000100805
9.05977e-05
7.91037e-05
8.37462e-05
8.32487e-05
8.22042e-05
8.05227e-05
7.80828e-05
7.47591e-05
7.04665e-05
6.52243e-05
5.92312e-05
5.29029e-05
5.37449e-05
5.34025e-05