/*--------------------------------*- C++ -*----------------------------------*\
| =========                 |                                                 |
| \\      /  F ield         | OpenFOAM: The Open Source CFD Toolbox           |
|  \\    /   O peration     | Version:  v1812                                 |
|   \\  /    A nd           | Web:      www.OpenFOAM.com                      |
|    \\/     M anipulation  |                                                 |
\*---------------------------------------------------------------------------*/
FoamFile
{
    version     2.0;
    format      ascii;
    class       volVectorField;
    location    "17";
    object      U;
}
// * * * * * * * * * * * * * * * * * * * * * * * * * * * * * * * * * * * * * //

dimensions      [0 1 -1 0 0 0 0];


internalField   nonuniform List<vector> 
1000
(
(0.91890839 0.035821912 0)
(0.86271384 0.062195638 0)
(0.7870597 0.062510089 0)
(0.69536033 0.054550394 0)
(0.61089745 0.04453165 0)
(0.54411592 0.034015971 0)
(0.49343012 0.02418754 0)
(0.45479414 0.01614423 0)
(0.42544583 0.010265786 0)
(0.40347313 0.0063041453 0)
(0.38715767 0.0037976293 0)
(0.3749622 0.0023103382 0)
(0.36566193 0.001493015 0)
(0.35836272 0.0010851183 0)
(0.35244268 0.00090607198 0)
(0.34748201 0.00084105104 0)
(0.34320348 0.00082372347 0)
(0.33942726 0.00081930989 0)
(0.33603793 0.00081185197 0)
(0.33296114 0.00079580154 0)
(0.33014778 0.00077081221 0)
(0.32756384 0.0007387102 0)
(0.3251842 0.00070188975 0)
(0.32298902 0.00066256564 0)
(0.32096172 0.00062249907 0)
(0.31908785 0.00058295646 0)
(0.31735449 0.00054477069 0)
(0.31574996 0.00050843339 0)
(0.3142636 0.00047419148 0)
(0.31288574 0.00044212487 0)
(0.31160755 0.00041221028 0)
(0.31042101 0.00038436263 0)
(0.30931883 0.00035846587 0)
(0.30829438 0.00033439083 0)
(0.30734165 0.00031200656 0)
(0.30645515 0.00029118685 0)
(0.30562991 0.00027181302 0)
(0.30486136 0.00025377553 0)
(0.30414535 0.00023697367 0)
(0.30347807 0.00022131477 0)
(0.30285601 0.00020671503 0)
(0.30227596 0.00019309682 0)
(0.30173496 0.00018039005 0)
(0.30123029 0.00016852996 0)
(0.30075942 0.00015745732 0)
(0.30032002 0.00014711827 0)
(0.29990993 0.00013746233 0)
(0.29952715 0.00012844406 0)
(0.29916983 0.0001200205 0)
(0.29883624 0.00011215135 0)
(0.29852478 0.00010480009 0)
(0.29823397 9.7931158e-05 0)
(0.29796241 9.1512425e-05 0)
(0.29770882 8.5513697e-05 0)
(0.29747201 7.9906501e-05 0)
(0.29725084 7.4665987e-05 0)
(0.29704429 6.9767593e-05 0)
(0.29685137 6.5190822e-05 0)
(0.2966712 6.0914746e-05 0)
(0.29650291 5.6919781e-05 0)
(0.29634572 5.3187687e-05 0)
(0.2961989 4.9700026e-05 0)
(0.29606176 4.6440395e-05 0)
(0.29593366 4.3392869e-05 0)
(0.295814 4.0542926e-05 0)
(0.29570223 3.7878442e-05 0)
(0.29559783 3.5387603e-05 0)
(0.29550031 3.3060314e-05 0)
(0.29540922 3.0887964e-05 0)
(0.29532413 2.8859688e-05 0)
(0.29524465 2.6966783e-05 0)
(0.2951704 2.5198737e-05 0)
(0.29510104 2.3545408e-05 0)
(0.29503625 2.1998314e-05 0)
(0.29497572 2.0549882e-05 0)
(0.29491918 1.9194131e-05 0)
(0.29486637 1.7927519e-05 0)
(0.29481705 1.6744393e-05 0)
(0.29477097 1.564307e-05 0)
(0.29472793 1.4616419e-05 0)
(0.29468773 1.3660579e-05 0)
(0.29465017 1.2766813e-05 0)
(0.29461507 1.1930696e-05 0)
(0.29458229 1.1144676e-05 0)
(0.29455167 1.0407807e-05 0)
(0.29452308 9.7132774e-06 0)
(0.29449636 9.0725715e-06 0)
(0.29447142 8.4703615e-06 0)
(0.2944481 7.9183132e-06 0)
(0.29442633 7.3969436e-06 0)
(0.29440598 6.9260911e-06 0)
(0.294387 6.4726527e-06 0)
(0.2943692 6.0618107e-06 0)
(0.29435259 5.6504151e-06 0)
(0.29433714 5.2891459e-06 0)
(0.29432249 4.9686252e-06 0)
(0.29430919 4.6878946e-06 0)
(0.29429569 4.5389467e-06 0)
(0.29428502 4.4056298e-06 0)
(0.29426874 5.057492e-06 0)
(1.0016583 0.05381943 0)
(1.0359761 0.10128443 0)
(1.0597199 0.11073663 0)
(1.0628947 0.10592201 0)
(1.0515569 0.096228725 0)
(1.0340529 0.083934059 0)
(1.0142795 0.070327062 0)
(0.99360703 0.056981334 0)
(0.97292577 0.045107479 0)
(0.9531074 0.03523675 0)
(0.93479539 0.02740165 0)
(0.91829012 0.021387227 0)
(0.90362379 0.016884499 0)
(0.89068068 0.013569709 0)
(0.87928175 0.011147748 0)
(0.86923242 0.0093736578 0)
(0.86034424 0.0080569271 0)
(0.85244667 0.0070571265 0)
(0.84539242 0.0062752379 0)
(0.83905793 0.0056438286 0)
(0.83334127 0.0051180915 0)
(0.82815884 0.0046686728 0)
(0.82344213 0.0042764175 0)
(0.81913467 0.0039287383 0)
(0.81518962 0.0036172024 0)
(0.81156765 0.0033359687 0)
(0.80823544 0.0030808022 0)
(0.8051644 0.0028484674 0)
(0.8023298 0.0026363684 0)
(0.79971 0.0024423383 0)
(0.79728598 0.0022645194 0)
(0.79504087 0.002101291 0)
(0.79295963 0.0019512267 0)
(0.79102881 0.0018130642 0)
(0.78923628 0.0016856841 0)
(0.7875711 0.0015680922 0)
(0.78602338 0.0014594046 0)
(0.78458412 0.0013588342 0)
(0.78324511 0.0012656791 0)
(0.78199889 0.001179311 0)
(0.78083861 0.0010991674 0)
(0.77975799 0.0010247424 0)
(0.77875128 0.00095558038 0)
(0.77781318 0.00089126993 0)
(0.77693881 0.00083143806 0)
(0.77612368 0.00077574673 0)
(0.77536362 0.0007238878 0)
(0.77465481 0.00067558034 0)
(0.77399367 0.00063056703 0)
(0.77337693 0.000588611 0)
(0.77280153 0.00054949485 0)
(0.77226464 0.00051301747 0)
(0.77176363 0.00047899313 0)
(0.77129606 0.00044725069 0)
(0.77085967 0.00041763122 0)
(0.77045234 0.00038998934 0)
(0.77007211 0.00036418991 0)
(0.76971717 0.00034010946 0)
(0.76938581 0.00031763253 0)
(0.76907644 0.0002966511 0)
(0.7687876 0.00027706442 0)
(0.76851791 0.0002587777 0)
(0.7682661 0.00024170223 0)
(0.76803096 0.00022575565 0)
(0.76781139 0.00021086127 0)
(0.76760635 0.00019694915 0)
(0.76741488 0.00018395491 0)
(0.76723608 0.00017181921 0)
(0.7670691 0.00016048788 0)
(0.76691315 0.00014990808 0)
(0.76676752 0.00014003064 0)
(0.7666315 0.00013080681 0)
(0.76650447 0.00012219094 0)
(0.76638582 0.0001141397 0)
(0.76627501 0.00010661538 0)
(0.76617152 9.9582092e-05 0)
(0.76607486 9.301219e-05 0)
(0.76598458 8.6874688e-05 0)
(0.76590026 8.1148714e-05 0)
(0.76582151 7.5802669e-05 0)
(0.76574794 7.0817807e-05 0)
(0.76567924 6.6157694e-05 0)
(0.76561504 6.18089e-05 0)
(0.76555512 5.773256e-05 0)
(0.7654991 5.3930325e-05 0)
(0.76544684 5.0355195e-05 0)
(0.76539796 4.7038061e-05 0)
(0.76535239 4.3921234e-05 0)
(0.7653097 4.105363e-05 0)
(0.76526997 3.8323432e-05 0)
(0.76523272 3.58447e-05 0)
(0.76519804 3.346375e-05 0)
(0.76516555 3.1331923e-05 0)
(0.76513516 2.9189409e-05 0)
(0.76510713 2.7363948e-05 0)
(0.76507998 2.5517126e-05 0)
(0.76505663 2.4071464e-05 0)
(0.76503058 2.2555268e-05 0)
(0.76501445 2.1597369e-05 0)
(0.76498346 2.0993445e-05 0)
(1.0014244 0.026824854 0)
(1.0291272 0.06279135 0)
(1.0654292 0.077736549 0)
(1.098962 0.080597196 0)
(1.1253149 0.078285167 0)
(1.145053 0.073153897 0)
(1.1594858 0.066111277 0)
(1.1694287 0.058162063 0)
(1.1755354 0.050296754 0)
(1.1785738 0.043150707 0)
(1.1793571 0.036972824 0)
(1.178595 0.031771631 0)
(1.1768304 0.027451838 0)
(1.1744518 0.023886766 0)
(1.1717287 0.020947618 0)
(1.1688444 0.018515779 0)
(1.1659195 0.016488084 0)
(1.1630317 0.014779502 0)
(1.1602295 0.013322984 0)
(1.1575415 0.012067132 0)
(1.1549828 0.010973 0)
(1.1525601 0.010011061 0)
(1.1502747 0.0091587462 0)
(1.1481246 0.0083986034 0)
(1.1461059 0.0077169494 0)
(1.1442134 0.0071028867 0)
(1.1424414 0.0065475902 0)
(1.1407838 0.0060437939 0)
(1.1392344 0.0055854249 0)
(1.1377869 0.0051673439 0)
(1.1364353 0.0047851569 0)
(1.1351738 0.0044350767 0)
(1.1339968 0.0041138175 0)
(1.1328987 0.0038185136 0)
(1.1318746 0.0035466535 0)
(1.1309195 0.0032960271 0)
(1.1300289 0.0030646827 0)
(1.1291985 0.00285089 0)
(1.1284242 0.0026531098 0)
(1.1277022 0.0024699683 0)
(1.1270291 0.0023002358 0)
(1.1264014 0.0021428077 0)
(1.1258161 0.0019966892 0)
(1.1252702 0.0018609818 0)
(1.1247612 0.001734872 0)
(1.1242865 0.0016176212 0)
(1.1238437 0.0015085574 0)
(1.1234307 0.0014070675 0)
(1.1230455 0.0013125908 0)
(1.1226861 0.0012246135 0)
(1.1223509 0.0011426638 0)
(1.1220381 0.0010663078 0)
(1.1217462 0.00099514575 0)
(1.1214739 0.00092880926 0)
(1.1212198 0.00086695851 0)
(1.1209827 0.00080928005 0)
(1.1207614 0.00075548472 0)
(1.1205548 0.00070530501 0)
(1.1203621 0.00065849253 0)
(1.1201821 0.00061481636 0)
(1.1200142 0.00057406204 0)
(1.1198574 0.00053602957 0)
(1.1197111 0.00050053312 0)
(1.1195745 0.00046739987 0)
(1.1194469 0.00043647009 0)
(1.1193278 0.00040759538 0)
(1.1192167 0.00038063876 0)
(1.1191129 0.00035547285 0)
(1.119016 0.00033197931 0)
(1.1189255 0.00031004614 0)
(1.118841 0.00028956945 0)
(1.1187621 0.00027044902 0)
(1.1186884 0.00025259395 0)
(1.1186197 0.00023591655 0)
(1.1185554 0.00022034083 0)
(1.1184954 0.00020579113 0)
(1.1184394 0.00019220577 0)
(1.1183871 0.00017951707 0)
(1.1183382 0.00016767577 0)
(1.1182926 0.00015661429 0)
(1.11825 0.00014629442 0)
(1.1182103 0.00013664324 0)
(1.118173 0.00012764285 0)
(1.1181384 0.00011921008 0)
(1.1181059 0.00011135833 0)
(1.1180757 0.00010398389 0)
(1.1180473 9.715257e-05 0)
(1.1180211 9.0704112e-05 0)
(1.1179962 8.4785988e-05 0)
(1.1179734 7.9129443e-05 0)
(1.1179516 7.4029023e-05 0)
(1.1179318 6.9017509e-05 0)
(1.1179128 6.4660868e-05 0)
(1.1178955 6.0140886e-05 0)
(1.117879 5.6561477e-05 0)
(1.1178635 5.2424113e-05 0)
(1.11785 4.9742312e-05 0)
(1.1178349 4.5807234e-05 0)
(1.1178262 4.4321236e-05 0)
(1.1178083 4.057596e-05 0)
(1.0007347 0.011814721 0)
(1.0178472 0.030860924 0)
(1.0462163 0.041434438 0)
(1.0799018 0.045193566 0)
(1.1132664 0.045502348 0)
(1.143782 0.044080305 0)
(1.1708941 0.04143998 0)
(1.1945687 0.037973676 0)
(1.2148582 0.034195728 0)
(1.2319652 0.030536886 0)
(1.2462683 0.027222043 0)
(1.2582339 0.024313918 0)
(1.2683135 0.021797886 0)
(1.2768875 0.019633657 0)
(1.2842554 0.017773824 0)
(1.2906479 0.01616965 0)
(1.296243 0.014775589 0)
(1.3011791 0.013552297 0)
(1.3055645 0.012467863 0)
(1.3094838 0.011497465 0)
(1.3130042 0.01062216 0)
(1.3161792 0.0098275117 0)
(1.3190526 0.0091024093 0)
(1.3216607 0.0084381752 0)
(1.3240343 0.0078279027 0)
(1.3261995 0.0072659735 0)
(1.3281786 0.006747708 0)
(1.3299913 0.0062691158 0)
(1.3316544 0.0058267263 0)
(1.3331829 0.005417472 0)
(1.3345896 0.005038611 0)
(1.3358862 0.0046876727 0)
(1.3370827 0.0043624187 0)
(1.3381883 0.0040608141 0)
(1.3392108 0.003781004 0)
(1.3401576 0.003521295 0)
(1.3410349 0.0032801387 0)
(1.3418486 0.0030561181 0)
(1.3426038 0.0028479347 0)
(1.3433051 0.0026543983 0)
(1.3439569 0.0024744166 0)
(1.3445629 0.0023069866 0)
(1.3451267 0.0021511861 0)
(1.3456513 0.0020061669 0)
(1.3461398 0.0018711478 0)
(1.3465947 0.0017454094 0)
(1.3470185 0.0016282876 0)
(1.3474135 0.0015191693 0)
(1.3477816 0.001417488 0)
(1.3481249 0.0013227199 0)
(1.3484449 0.0012343804 0)
(1.3487435 0.0011520203 0)
(1.349022 0.0010752237 0)
(1.3492818 0.0010036052 0)
(1.3495242 0.00093680765 0)
(1.3497505 0.00087450027 0)
(1.3499616 0.00081637584 0)
(1.3501587 0.00076214887 0)
(1.3503427 0.00071155341 0)
(1.3505145 0.00066434199 0)
(1.3506748 0.00062028458 0)
(1.3508245 0.00057916683 0)
(1.3509643 0.00054078976 0)
(1.3510948 0.00050496803 0)
(1.3512167 0.0004715302 0)
(1.3513305 0.00044031661 0)
(1.3514368 0.00041117911 0)
(1.3515361 0.00038397865 0)
(1.3516288 0.00035858638 0)
(1.3517153 0.00033488003 0)
(1.3517962 0.00031274672 0)
(1.3518717 0.00029207875 0)
(1.3519422 0.0002727795 0)
(1.3520081 0.00025475513 0)
(1.3520696 0.00023792534 0)
(1.3521271 0.00022220738 0)
(1.3521807 0.00020753487 0)
(1.3522309 0.00019383073 0)
(1.3522777 0.00018104218 0)
(1.3523215 0.00016909195 0)
(1.3523623 0.0001579423 0)
(1.3524005 0.00014751023 0)
(1.352436 0.00013778755 0)
(1.3524695 0.00012867355 0)
(1.3525004 0.00012020194 0)
(1.3525296 0.0001122381 0)
(1.3525565 0.0001048818 0)
(1.3525823 9.7899562e-05 0)
(1.3526054 9.1531613e-05 0)
(1.3526281 8.5399037e-05 0)
(1.3526479 7.9933535e-05 0)
(1.3526685 7.4430384e-05 0)
(1.352685 6.9803591e-05 0)
(1.3527036 6.4828187e-05 0)
(1.352717 6.1122062e-05 0)
(1.3527349 5.644119e-05 0)
(1.3527446 5.3737153e-05 0)
(1.3527628 4.9136864e-05 0)
(1.3527683 4.7703498e-05 0)
(1.3527889 4.2959459e-05 0)
(1.0005903 0.0034629152 0)
(1.0136865 0.009366018 0)
(1.0370283 0.013046804 0)
(1.0674202 0.014563259 0)
(1.1000315 0.014854523 0)
(1.1316428 0.014564989 0)
(1.1610745 0.013888337 0)
(1.1880674 0.012919244 0)
(1.2125205 0.011806505 0)
(1.2343939 0.010696425 0)
(1.2538077 0.0096727405 0)
(1.2710339 0.0087628202 0)
(1.286401 0.0079659715 0)
(1.3002111 0.0072722126 0)
(1.3127102 0.0066688071 0)
(1.3240903 0.0061419242 0)
(1.3345036 0.0056780712 0)
(1.3440716 0.0052653201 0)
(1.3528927 0.0048939342 0)
(1.3610463 0.0045563948 0)
(1.3685975 0.0042470684 0)
(1.3756004 0.0039617742 0)
(1.3821012 0.0036973958 0)
(1.3881402 0.003451581 0)
(1.3937533 0.0032225175 0)
(1.3989728 0.0030087693 0)
(1.403828 0.0028091574 0)
(1.4083456 0.0026226784 0)
(1.4125503 0.0024484484 0)
(1.4164646 0.0022856691 0)
(1.4201094 0.0021336057 0)
(1.423504 0.0019915744 0)
(1.426666 0.0018589348 0)
(1.4296121 0.0017350848 0)
(1.4323573 0.001619458 0)
(1.4349159 0.0015115214 0)
(1.4373007 0.0014107735 0)
(1.4395241 0.001316743 0)
(1.441597 0.0012289874 0)
(1.4435301 0.0011470918 0)
(1.4453328 0.0010706673 0)
(1.4470143 0.00099935031 0)
(1.4485827 0.0009328004 0)
(1.4500459 0.0008706994 0)
(1.451411 0.00081275006 0)
(1.4526846 0.00075867469 0)
(1.4538731 0.0007082138 0)
(1.4549822 0.00066112489 0)
(1.4560172 0.00061718171 0)
(1.4569831 0.0005761732 0)
(1.4578847 0.00053790197 0)
(1.4587262 0.00050218422 0)
(1.4595117 0.00046884837 0)
(1.460245 0.00043773481 0)
(1.4609295 0.00040869501 0)
(1.4615685 0.00038159064 0)
(1.4621651 0.00035629243 0)
(1.4627221 0.00033267913 0)
(1.4632422 0.00031063765 0)
(1.4637278 0.00029006222 0)
(1.4641811 0.00027085397 0)
(1.4646045 0.00025292142 0)
(1.4649998 0.00023617925 0)
(1.4653689 0.00022054817 0)
(1.4657136 0.0002059546 0)
(1.4660355 0.00019233018 0)
(1.4663361 0.00017961105 0)
(1.4666168 0.00016773653 0)
(1.466879 0.00015665021 0)
(1.4671238 0.00014629855 0)
(1.4673524 0.00013663185 0)
(1.4675659 0.00012760329 0)
(1.4677654 0.00011917152 0)
(1.4679517 0.00011129638 0)
(1.4681256 0.00010394358 0)
(1.468288 9.7077478e-05 0)
(1.4684398 9.0669628e-05 0)
(1.4685815 8.4684671e-05 0)
(1.4687138 7.9099586e-05 0)
(1.4688375 7.3878593e-05 0)
(1.4689529 6.9006685e-05 0)
(1.4690608 6.4445475e-05 0)
(1.4691613 6.0195882e-05 0)
(1.4692557 5.6210508e-05 0)
(1.4693434 5.2513145e-05 0)
(1.4694257 4.9033982e-05 0)
(1.4695017 4.582466e-05 0)
(1.4695742 4.2768903e-05 0)
(1.4696403 4.0000229e-05 0)
(1.4697037 3.7311272e-05 0)
(1.4697605 3.4923559e-05 0)
(1.4698174 3.2495228e-05 0)
(1.4698654 3.0499628e-05 0)
(1.4699165 2.8306263e-05 0)
(1.4699559 2.6723062e-05 0)
(1.4700047 2.4640376e-05 0)
(1.4700341 2.3490055e-05 0)
(1.470083 2.1413971e-05 0)
(1.4701 2.0806776e-05 0)
(1.4701557 1.8651138e-05 0)
(1.0005903 -0.0034629162 0)
(1.0136865 -0.0093660206 0)
(1.0370283 -0.013046807 0)
(1.0674202 -0.014563262 0)
(1.1000315 -0.014854525 0)
(1.1316428 -0.014564991 0)
(1.1610745 -0.013888338 0)
(1.1880674 -0.012919246 0)
(1.2125205 -0.011806507 0)
(1.2343939 -0.010696428 0)
(1.2538077 -0.0096727435 0)
(1.2710339 -0.0087628234 0)
(1.286401 -0.0079659747 0)
(1.3002111 -0.0072722155 0)
(1.3127102 -0.0066688092 0)
(1.3240903 -0.0061419259 0)
(1.3345036 -0.005678073 0)
(1.3440716 -0.0052653218 0)
(1.3528927 -0.0048939358 0)
(1.3610463 -0.0045563964 0)
(1.3685975 -0.0042470706 0)
(1.3756004 -0.003961777 0)
(1.3821012 -0.0036973988 0)
(1.3881402 -0.0034515836 0)
(1.3937533 -0.0032225193 0)
(1.3989728 -0.0030087704 0)
(1.403828 -0.0028091585 0)
(1.4083456 -0.0026226798 0)
(1.4125503 -0.0024484504 0)
(1.4164646 -0.0022856715 0)
(1.4201094 -0.0021336083 0)
(1.423504 -0.001991577 0)
(1.426666 -0.0018589372 0)
(1.4296121 -0.0017350868 0)
(1.4323573 -0.0016194595 0)
(1.4349158 -0.0015115221 0)
(1.4373007 -0.0014107732 0)
(1.439524 -0.0013167418 0)
(1.441597 -0.0012289855 0)
(1.4435301 -0.0011470895 0)
(1.4453328 -0.0010706654 0)
(1.4470143 -0.00099934918 0)
(1.4485827 -0.00093280021 0)
(1.4500459 -0.00087070014 0)
(1.451411 -0.00081275135 0)
(1.4526846 -0.00075867588 0)
(1.4538731 -0.00070821422 0)
(1.4549822 -0.00066112419 0)
(1.4560172 -0.00061717969 0)
(1.4569831 -0.00057616981 0)
(1.4578847 -0.00053789805 0)
(1.4587262 -0.00050218089 0)
(1.4595117 -0.00046884683 0)
(1.460245 -0.00043773566 0)
(1.4609295 -0.00040869781 0)
(1.4615685 -0.00038159402 0)
(1.4621651 -0.00035629463 0)
(1.4627221 -0.00033267916 0)
(1.4632422 -0.00031063498 0)
(1.4637278 -0.00029005727 0)
(1.4641811 -0.00027084837 0)
(1.4646045 -0.00025291689 0)
(1.4649998 -0.00023617715 0)
(1.4653689 -0.00022054909 0)
(1.4657136 -0.0002059583 0)
(1.4660355 -0.00019233491 0)
(1.4663361 -0.00017961431 0)
(1.4666168 -0.0001677367 0)
(1.466879 -0.00015664672 0)
(1.4671238 -0.00014629208 0)
(1.4673524 -0.00013662484 0)
(1.4675659 -0.00012759843 0)
(1.4677654 -0.00011917063 0)
(1.4679517 -0.00011129965 0)
(1.4681256 -0.00010394987 0)
(1.468288 -9.7083796e-05 0)
(1.4684398 -9.0672467e-05 0)
(1.4685815 -8.4682745e-05 0)
(1.4687138 -7.9093446e-05 0)
(1.4688375 -7.3870315e-05 0)
(1.4689529 -6.8999861e-05 0)
(1.4690608 -6.4443749e-05 0)
(1.4691613 -6.0199914e-05 0)
(1.4692557 -5.6217764e-05 0)
(1.4693434 -5.2518181e-05 0)
(1.4694257 -4.9035941e-05 0)
(1.4695018 -4.5824401e-05 0)
(1.4695742 -4.2763444e-05 0)
(1.4696403 -3.9983809e-05 0)
(1.4697037 -3.7298044e-05 0)
(1.4697605 -3.4933441e-05 0)
(1.4698174 -3.2514694e-05 0)
(1.4698655 -3.050867e-05 0)
(1.4699165 -2.8302115e-05 0)
(1.4699559 -2.6708935e-05 0)
(1.4700047 -2.4625424e-05 0)
(1.4700342 -2.3490523e-05 0)
(1.470083 -2.1433847e-05 0)
(1.4701 -2.0826412e-05 0)
(1.4701556 -1.8661682e-05 0)
(1.0007347 -0.011814722 0)
(1.0178472 -0.030860927 0)
(1.0462163 -0.041434442 0)
(1.0799018 -0.04519357 0)
(1.1132664 -0.045502351 0)
(1.143782 -0.044080308 0)
(1.1708941 -0.041439982 0)
(1.1945687 -0.037973678 0)
(1.2148582 -0.03419573 0)
(1.2319652 -0.030536888 0)
(1.2462683 -0.027222046 0)
(1.2582339 -0.024313921 0)
(1.2683135 -0.021797889 0)
(1.2768875 -0.01963366 0)
(1.2842554 -0.017773826 0)
(1.2906479 -0.016169652 0)
(1.296243 -0.01477559 0)
(1.3011791 -0.013552298 0)
(1.3055645 -0.012467864 0)
(1.3094838 -0.011497466 0)
(1.3130042 -0.010622162 0)
(1.3161792 -0.0098275137 0)
(1.3190526 -0.0091024114 0)
(1.3216607 -0.008438177 0)
(1.3240343 -0.0078279041 0)
(1.3261995 -0.0072659748 0)
(1.3281786 -0.0067477092 0)
(1.3299913 -0.0062691173 0)
(1.3316544 -0.005826728 0)
(1.3331829 -0.0054174738 0)
(1.3345896 -0.0050386128 0)
(1.3358862 -0.0046876743 0)
(1.3370827 -0.00436242 0)
(1.3381882 -0.0040608151 0)
(1.3392108 -0.0037810046 0)
(1.3401576 -0.0035212952 0)
(1.3410349 -0.0032801385 0)
(1.3418486 -0.0030561173 0)
(1.3426038 -0.0028479334 0)
(1.3433051 -0.0026543968 0)
(1.3439569 -0.0024744152 0)
(1.3445629 -0.0023069855 0)
(1.3451267 -0.0021511856 0)
(1.3456513 -0.002006167 0)
(1.3461398 -0.0018711485 0)
(1.3465947 -0.0017454101 0)
(1.3470185 -0.001628288 0)
(1.3474135 -0.0015191688 0)
(1.3477816 -0.0014174866 0)
(1.3481249 -0.0013227177 0)
(1.3484449 -0.0012343779 0)
(1.3487435 -0.0011520182 0)
(1.349022 -0.0010752226 0)
(1.3492818 -0.0010036055 0)
(1.3495242 -0.00093680917 0)
(1.3497505 -0.00087450223 0)
(1.3499616 -0.00081637744 0)
(1.3501587 -0.0007621491 0)
(1.3503427 -0.00071155185 0)
(1.3505145 -0.00066433886 0)
(1.3506748 -0.0006202806 0)
(1.3508245 -0.00057916322 0)
(1.3509643 -0.00054078768 0)
(1.3510948 -0.00050496832 0)
(1.3512167 -0.00047153264 0)
(1.3513305 -0.00044032001 0)
(1.3514368 -0.00041118192 0)
(1.3515361 -0.00038397955 0)
(1.3516288 -0.00035858478 0)
(1.3517153 -0.00033487629 0)
(1.3517962 -0.00031274218 0)
(1.3518717 -0.00029207515 0)
(1.3519422 -0.00027277813 0)
(1.3520081 -0.00025475671 0)
(1.3520696 -0.00023792897 0)
(1.3521271 -0.00022221151 0)
(1.3521808 -0.00020753778 0)
(1.3522309 -0.0001938312 0)
(1.3522777 -0.0001810399 0)
(1.3523215 -0.00016908732 0)
(1.3523623 -0.00015793748 0)
(1.3524005 -0.00014750781 0)
(1.352436 -0.00013778798 0)
(1.3524695 -0.00012867567 0)
(1.3525004 -0.00012020658 0)
(1.3525296 -0.00011224309 0)
(1.3525565 -0.00010488246 0)
(1.3525823 -9.7894781e-05 0)
(1.3526054 -9.1527743e-05 0)
(1.3526281 -8.5397452e-05 0)
(1.3526479 -7.993064e-05 0)
(1.3526684 -7.4428208e-05 0)
(1.352685 -6.9805033e-05 0)
(1.3527036 -6.4830568e-05 0)
(1.352717 -6.1121636e-05 0)
(1.3527349 -5.6442681e-05 0)
(1.3527446 -5.3745346e-05 0)
(1.3527628 -4.9146149e-05 0)
(1.3527683 -4.7706209e-05 0)
(1.3527888 -4.2959523e-05 0)
(1.0014244 -0.026824855 0)
(1.0291272 -0.062791352 0)
(1.0654292 -0.077736552 0)
(1.098962 -0.0805972 0)
(1.1253149 -0.07828517 0)
(1.145053 -0.073153899 0)
(1.1594858 -0.066111278 0)
(1.1694287 -0.058162063 0)
(1.1755354 -0.050296754 0)
(1.1785738 -0.043150708 0)
(1.1793571 -0.036972825 0)
(1.1785949 -0.031771633 0)
(1.1768304 -0.02745184 0)
(1.1744518 -0.023886768 0)
(1.1717287 -0.02094762 0)
(1.1688444 -0.01851578 0)
(1.1659195 -0.016488084 0)
(1.1630317 -0.014779502 0)
(1.1602295 -0.013322985 0)
(1.1575415 -0.012067133 0)
(1.1549828 -0.010973001 0)
(1.1525601 -0.010011062 0)
(1.1502747 -0.0091587472 0)
(1.1481246 -0.0083986044 0)
(1.1461059 -0.0077169506 0)
(1.1442134 -0.0071028881 0)
(1.1424414 -0.0065475916 0)
(1.1407838 -0.0060437951 0)
(1.1392344 -0.005585426 0)
(1.1377869 -0.0051673448 0)
(1.1364353 -0.0047851574 0)
(1.1351738 -0.0044350768 0)
(1.1339968 -0.0041138175 0)
(1.1328987 -0.0038185134 0)
(1.1318746 -0.0035466532 0)
(1.1309195 -0.0032960271 0)
(1.1300289 -0.0030646829 0)
(1.1291985 -0.0028508901 0)
(1.1284242 -0.0026531096 0)
(1.1277022 -0.0024699678 0)
(1.1270291 -0.0023002349 0)
(1.1264014 -0.0021428065 0)
(1.1258161 -0.0019966881 0)
(1.1252702 -0.0018609811 0)
(1.1247612 -0.0017348719 0)
(1.1242865 -0.0016176216 0)
(1.1238437 -0.001508558 0)
(1.1234307 -0.0014070678 0)
(1.1230455 -0.0013125907 0)
(1.1226861 -0.0012246131 0)
(1.1223509 -0.0011426631 0)
(1.1220381 -0.0010663068 0)
(1.1217462 -0.00099514473 0)
(1.1214739 -0.00092880833 0)
(1.1212198 -0.00086695795 0)
(1.1209827 -0.00080928032 0)
(1.1207614 -0.00075548589 0)
(1.1205548 -0.00070530628 0)
(1.1203621 -0.00065849315 0)
(1.1201821 -0.00061481614 0)
(1.1200142 -0.00057406071 0)
(1.1198574 -0.00053602735 0)
(1.1197111 -0.00050053083 0)
(1.1195745 -0.00046739853 0)
(1.1194469 -0.00043646992 0)
(1.1193278 -0.00040759632 0)
(1.1192167 -0.00038064067 0)
(1.1191129 -0.00035547489 0)
(1.119016 -0.00033198074 0)
(1.1189255 -0.00031004666 0)
(1.118841 -0.00028956848 0)
(1.1187621 -0.00027044681 0)
(1.1186884 -0.00025259133 0)
(1.1186197 -0.00023591448 0)
(1.1185554 -0.00022034008 0)
(1.1184954 -0.00020579221 0)
(1.1184394 -0.00019220898 0)
(1.1183871 -0.00017952126 0)
(1.1183383 -0.00016767919 0)
(1.1182927 -0.00015661519 0)
(1.11825 -0.00014629224 0)
(1.1182103 -0.00013663904 0)
(1.118173 -0.00012763778 0)
(1.1181384 -0.00011920594 0)
(1.1181059 -0.00011135951 0)
(1.1180757 -0.00010398942 0)
(1.1180473 -9.7156276e-05 0)
(1.1180211 -9.0705183e-05 0)
(1.1179963 -8.479186e-05 0)
(1.1179734 -7.9137788e-05 0)
(1.1179516 -7.4019655e-05 0)
(1.1179318 -6.8989787e-05 0)
(1.1179128 -6.4647747e-05 0)
(1.1178955 -6.0157887e-05 0)
(1.117879 -5.6584341e-05 0)
(1.1178635 -5.243166e-05 0)
(1.11785 -4.973818e-05 0)
(1.1178349 -4.5801251e-05 0)
(1.1178261 -4.4313493e-05 0)
(1.1178083 -4.0569496e-05 0)
(1.0016583 -0.05381943 0)
(1.0359761 -0.10128444 0)
(1.0597199 -0.11073663 0)
(1.0628947 -0.10592202 0)
(1.0515569 -0.096228728 0)
(1.0340529 -0.083934061 0)
(1.0142795 -0.070327063 0)
(0.99360703 -0.056981334 0)
(0.97292577 -0.045107479 0)
(0.9531074 -0.03523675 0)
(0.93479538 -0.02740165 0)
(0.91829012 -0.021387228 0)
(0.90362379 -0.0168845 0)
(0.89068067 -0.01356971 0)
(0.87928174 -0.011147749 0)
(0.86923242 -0.0093736586 0)
(0.86034423 -0.0080569274 0)
(0.85244667 -0.0070571267 0)
(0.84539241 -0.006275238 0)
(0.83905793 -0.0056438286 0)
(0.83334126 -0.0051180914 0)
(0.82815884 -0.0046686728 0)
(0.82344212 -0.0042764176 0)
(0.81913467 -0.0039287387 0)
(0.81518961 -0.0036172032 0)
(0.81156765 -0.0033359699 0)
(0.80823544 -0.0030808033 0)
(0.8051644 -0.0028484683 0)
(0.80232979 -0.0026363689 0)
(0.79970999 -0.0024423385 0)
(0.79728597 -0.0022645191 0)
(0.79504086 -0.0021012903 0)
(0.79295963 -0.0019512258 0)
(0.7910288 -0.0018130633 0)
(0.78923627 -0.0016856835 0)
(0.7875711 -0.0015680923 0)
(0.78602338 -0.0014594053 0)
(0.78458412 -0.0013588352 0)
(0.78324511 -0.0012656799 0)
(0.78199889 -0.0011793114 0)
(0.7808386 -0.0010991671 0)
(0.77975799 -0.0010247414 0)
(0.77875128 -0.000955579 0)
(0.77781318 -0.00089126849 0)
(0.77693881 -0.00083143714 0)
(0.77612368 -0.0007757465 0)
(0.77536362 -0.00072388834 0)
(0.77465481 -0.00067558141 0)
(0.77399368 -0.00063056833 0)
(0.77337694 -0.00058861242 0)
(0.77280153 -0.00054949569 0)
(0.77226464 -0.00051301724 0)
(0.77176363 -0.00047899181 0)
(0.77129606 -0.00044724825 0)
(0.77085967 -0.00041762883 0)
(0.77045234 -0.00038998796 0)
(0.77007212 -0.00036419061 0)
(0.76971717 -0.00034011171 0)
(0.76938581 -0.00031763546 0)
(0.76907645 -0.00029665383 0)
(0.7687876 -0.00027706575 0)
(0.76851791 -0.00025877691 0)
(0.7682661 -0.00024169969 0)
(0.76803096 -0.00022575203 0)
(0.76781139 -0.00021085791 0)
(0.76760635 -0.00019694726 0)
(0.76741489 -0.00018395553 0)
(0.76723608 -0.0001718226 0)
(0.7670691 -0.00016049282 0)
(0.76691316 -0.00014991304 0)
(0.76676752 -0.00014003343 0)
(0.7666315 -0.00013080587 0)
(0.76650446 -0.00012218668 0)
(0.76638582 -0.00011413345 0)
(0.76627501 -0.00010660981 0)
(0.76617152 -9.9579974e-05 0)
(0.76607486 -9.3014821e-05 0)
(0.76598459 -8.6881929e-05 0)
(0.76590026 -8.115755e-05 0)
(0.76582151 -7.580921e-05 0)
(0.76574794 -7.0819006e-05 0)
(0.76567924 -6.6152772e-05 0)
(0.76561504 -6.1799835e-05 0)
(0.76555512 -5.7722356e-05 0)
(0.76549911 -5.3925604e-05 0)
(0.76544685 -5.0358141e-05 0)
(0.76539796 -4.7043957e-05 0)
(0.7653524 -4.3930026e-05 0)
(0.76530971 -4.106923e-05 0)
(0.76526996 -3.833266e-05 0)
(0.7652327 -3.5828526e-05 0)
(0.76519805 -3.3433222e-05 0)
(0.76516559 -3.1318578e-05 0)
(0.76513517 -2.9204148e-05 0)
(0.76510711 -2.7385882e-05 0)
(0.76507997 -2.5524422e-05 0)
(0.76505664 -2.4063767e-05 0)
(0.76503057 -2.2544968e-05 0)
(0.76501445 -2.1587524e-05 0)
(0.76498347 -2.0984849e-05 0)
(0.91890839 -0.035821913 0)
(0.86271384 -0.062195638 0)
(0.7870597 -0.06251009 0)
(0.69536033 -0.054550395 0)
(0.61089745 -0.044531651 0)
(0.54411592 -0.034015972 0)
(0.49343012 -0.02418754 0)
(0.45479413 -0.01614423 0)
(0.42544582 -0.010265785 0)
(0.40347313 -0.006304145 0)
(0.38715766 -0.0037976294 0)
(0.3749622 -0.0023103384 0)
(0.36566192 -0.0014930154 0)
(0.35836272 -0.0010851186 0)
(0.35244268 -0.0009060723 0)
(0.34748201 -0.00084105135 0)
(0.34320348 -0.00082372362 0)
(0.33942726 -0.00081931007 0)
(0.33603793 -0.000811852 0)
(0.33296114 -0.00079580153 0)
(0.33014778 -0.00077081194 0)
(0.32756384 -0.00073870993 0)
(0.3251842 -0.00070188955 0)
(0.32298902 -0.00066256564 0)
(0.32096172 -0.00062249932 0)
(0.31908785 -0.00058295705 0)
(0.31735449 -0.00054477117 0)
(0.31574995 -0.00050843392 0)
(0.3142636 -0.00047419167 0)
(0.31288574 -0.00044212492 0)
(0.31160755 -0.00041220988 0)
(0.31042101 -0.000384362 0)
(0.30931883 -0.00035846513 0)
(0.30829438 -0.00033439017 0)
(0.30734165 -0.00031200628 0)
(0.30645515 -0.00029118707 0)
(0.30562991 -0.00027181373 0)
(0.30486136 -0.00025377641 0)
(0.30414535 -0.00023697432 0)
(0.30347807 -0.00022131518 0)
(0.30285601 -0.00020671475 0)
(0.30227596 -0.00019309614 0)
(0.30173496 -0.000180389 0)
(0.30123029 -0.00016852888 0)
(0.30075942 -0.0001574567 0)
(0.30032002 -0.0001471181 0)
(0.29990993 -0.00013746299 0)
(0.29952715 -0.00012844517 0)
(0.29916983 -0.00012002176 0)
(0.29883624 -0.00011215265 0)
(0.29852478 -0.00010480051 0)
(0.29823397 -9.7930721e-05 0)
(0.29796241 -9.1511058e-05 0)
(0.29770882 -8.5511632e-05 0)
(0.29747201 -7.990487e-05 0)
(0.29725084 -7.4665188e-05 0)
(0.29704429 -6.9768598e-05 0)
(0.29685138 -6.5192841e-05 0)
(0.2966712 -6.0917201e-05 0)
(0.29650291 -5.6921962e-05 0)
(0.29634572 -5.3188449e-05 0)
(0.2961989 -4.9699255e-05 0)
(0.29606176 -4.6438125e-05 0)
(0.29593366 -4.3389774e-05 0)
(0.29581401 -4.0540325e-05 0)
(0.29570224 -3.787719e-05 0)
(0.29559784 -3.5388644e-05 0)
(0.29550032 -3.3063712e-05 0)
(0.29540922 -3.0892067e-05 0)
(0.29532413 -2.8863468e-05 0)
(0.29524464 -2.6968233e-05 0)
(0.29517039 -2.5197017e-05 0)
(0.29510103 -2.3541368e-05 0)
(0.29503624 -2.1993213e-05 0)
(0.29497573 -2.054608e-05 0)
(0.29491919 -1.9193522e-05 0)
(0.29486638 -1.7930363e-05 0)
(0.29481705 -1.6750432e-05 0)
(0.29477097 -1.5649373e-05 0)
(0.29472793 -1.4620431e-05 0)
(0.29468771 -1.3660392e-05 0)
(0.29465016 -1.2762073e-05 0)
(0.29461507 -1.1923776e-05 0)
(0.2945823 -1.1137517e-05 0)
(0.29455168 -1.040546e-05 0)
(0.29452309 -9.7161613e-06 0)
(0.29449637 -9.0770599e-06 0)
(0.29447142 -8.4789879e-06 0)
(0.29444808 -7.9300636e-06 0)
(0.29442632 -7.3960994e-06 0)
(0.29440599 -6.9097603e-06 0)
(0.294387 -6.4602684e-06 0)
(0.2943692 -6.0628207e-06 0)
(0.29435259 -5.6565806e-06 0)
(0.29433715 -5.2937016e-06 0)
(0.2943225 -4.9715841e-06 0)
(0.29430919 -4.6856097e-06 0)
(0.29429569 -4.5322372e-06 0)
(0.29428502 -4.400118e-06 0)
(0.29426875 -5.0535997e-06 0)
)
;

boundaryField
{
    top
    {
        type            fixedValue;
        value           uniform (0 0 0);
    }
    inlet
    {
        type            fixedValue;
        value           uniform (1 0 0);
    }
    outlet
    {
        type            zeroGradient;
    }
    bottom
    {
        type            fixedValue;
        value           uniform (0 0 0);
    }
    back
    {
        type            empty;
    }
    front
    {
        type            empty;
    }
}


// ************************************************************************* //
