/*--------------------------------*- C++ -*----------------------------------*\
| =========                 |                                                 |
| \\      /  F ield         | OpenFOAM: The Open Source CFD Toolbox           |
|  \\    /   O peration     | Version:  v1812                                 |
|   \\  /    A nd           | Web:      www.OpenFOAM.com                      |
|    \\/     M anipulation  |                                                 |
\*---------------------------------------------------------------------------*/
FoamFile
{
    version     2.0;
    format      ascii;
    class       surfaceScalarField;
    location    "2";
    object      phi;
}
// * * * * * * * * * * * * * * * * * * * * * * * * * * * * * * * * * * * * * //

dimensions      [0 3 -1 0 0 0 0];
oriented        oriented;


internalField   nonuniform List<scalar> 
1890
(
0.0093062048
0.00069379547
0.008284418
0.0010217869
0.0073300683
0.00095434963
0.0064874699
0.00084259821
0.0057706641
0.00071680574
0.0051918333
0.00057883088
0.0047414759
0.00045035752
0.0044000906
0.00034138516
0.0041461016
0.00025398864
0.0039596626
0.00018643867
0.003823685
0.00013597752
0.003724237
9.944808e-05
0.0036508644
7.3372833e-05
0.0035962825
5.4582091e-05
0.0035554993
4.0783344e-05
0.0035249895
3.050997e-05
0.0035022275
2.276195e-05
0.0034854015
1.6825891e-05
0.0034731924
1.2208935e-05
0.0034645561
8.6361039e-06
0.0034586215
5.9343791e-06
0.0034546725
3.9489364e-06
0.0034521402
2.532241e-06
0.0034505865
1.5537363e-06
0.0034496852
9.0137997e-07
0.0034491996
4.8571206e-07
0.0034489652
2.3441338e-07
0.0034488752
9.0016953e-08
0.0034488543
2.0936643e-08
0.0034488626
-8.3402953e-09
0.0034488828
-2.0237208e-08
0.0034489044
-2.1635408e-08
0.0034489224
-1.8136124e-08
0.0034489357
-1.332091e-08
0.0034489445
-8.9027539e-09
0.0034489499
-5.4895215e-09
0.003448953
-3.1361578e-09
0.0034489546
-1.6370465e-09
0.0034489554
-7.508027e-10
0.0034489556
-2.5811124e-10
0.0034489556
-3.3138788e-11
0.0034489556
5.6565581e-11
0.0034489555
9.0472793e-11
0.0034489554
9.3497727e-11
0.0034489553
7.9704598e-11
0.0034489553
6.6316204e-11
0.0034489552
5.0577285e-11
0.0034489552
4.1526102e-11
0.0034489551
3.1344204e-11
0.0034489551
2.7272814e-11
0.0034489551
2.0738944e-11
0.0034489551
1.9256843e-11
0.0034489551
1.4614614e-11
0.0034489551
1.438416e-11
0.003448955
1.04943e-11
0.003448955
1.0763942e-11
0.003448955
7.4975154e-12
0.003448955
8.0519249e-12
0.003448955
5.288721e-12
0.003448955
5.6293467e-12
0.003448955
4.0435118e-12
0.003448955
3.258455e-12
0.003448955
4.4218767e-12
0.003448955
-8.5391213e-13
0.003448955
8.6168453e-12
0.003448955
-1.0125734e-11
0.003448955
2.2502612e-11
0.003448955
-3.4807048e-11
0.0034489549
6.0799056e-11
0.0034489551
-9.6051747e-11
0.0034489549
1.529398e-10
0.0034489551
-2.3291908e-10
0.0034489548
3.4678481e-10
0.0034489553
-4.963191e-10
0.0034489546
6.8837302e-10
0.0034489555
-9.0604009e-10
0.0034489544
1.1427391e-09
0.0034489557
-1.330406e-09
0.0034489542
1.4362749e-09
0.0034489556
-1.3193387e-09
0.0034489546
9.3147479e-10
0.0034489547
-1.1383823e-10
0.0034489558
-1.0728986e-09
0.0034489532
2.6657125e-09
0.0034489574
-4.2577812e-09
0.0034489518
5.6721756e-09
0.0034489577
-5.965717e-09
0.0034489524
5.3704269e-09
0.0034489549
-2.5746677e-09
0.0034489551
-1.232041e-10
0.0034489502
4.8688969e-09
0.0034489553
-5.0861517e-09
0.0034489463
9.0110368e-09
0.0034489475
-1.2117505e-09
0.0034489385
8.8983565e-09
0.0034489307
7.7090699e-09
0.0034489136
1.7174791e-08
0.0034488959
1.776796e-08
0.0034488627
3.3353011e-08
3.9874459e-08
0.010339543
0.00035425245
0.010570814
0.00079051625
0.010606451
0.00091871287
0.010547847
0.00090120194
0.010422757
0.00084189608
0.010245234
0.0007563537
0.010041236
0.00065435569
0.0098320926
0.00055052807
0.0096306183
0.00045546248
0.0094439304
0.00037312621
0.0092758467
0.00030406108
0.0091278847
0.00024741019
0.0090000883
0.00020116936
0.0088917663
0.00016290424
0.0088017799
0.00013076992
0.0087285881
0.00010370175
0.0086703555
8.099462e-05
0.0086251268
6.2054382e-05
0.0085909049
4.6430643e-05
0.00856573
3.3810746e-05
0.0085477615
2.3902685e-05
0.0085353422
1.6368032e-05
0.0085270527
1.0821714e-05
0.0085217281
6.8783913e-06
0.0085184562
4.1732811e-06
0.0085165469
2.3950575e-06
0.0085155016
1.2798224e-06
0.0085149756
6.1604767e-07
0.0085147491
2.4745199e-07
0.0085146806
6.0083058e-08
0.0085146836
-2.3278763e-08
0.0085147128
-5.0863693e-08
0.0085147463
-5.1708419e-08
0.008514775
-4.212424e-08
0.0085147964
-3.039327e-08
0.008514811
-2.0102272e-08
0.0085148201
-1.2347006e-08
0.0085148255
-7.0490515e-09
0.0085148285
-3.6937194e-09
0.0085148299
-1.7262472e-09
0.0085148305
-6.4713035e-10
0.0085148307
-1.1081492e-10
0.0085148307
1.219926e-10
0.0085148306
1.9690141e-10
0.0085148304
2.00507e-10
0.0085148303
1.7567762e-10
0.0085148302
1.4558997e-10
0.0085148302
1.1757036e-10
0.0085148301
9.5844493e-11
0.0085148301
7.8512925e-11
0.00851483
6.6017045e-11
0.00851483
5.5756097e-11
0.00851483
4.8464668e-11
0.0085148299
4.1736569e-11
0.0085148299
3.6690833e-11
0.0085148299
3.1461485e-11
0.0085148299
2.7900215e-11
0.0085148298
2.3473106e-11
0.0085148298
2.1126376e-11
0.0085148298
1.6425202e-11
0.0085148298
1.6717023e-11
0.0085148298
9.5112231e-12
0.0085148298
1.6207596e-11
0.0085148298
-7.5623753e-13
0.0085148298
2.4765161e-11
0.0085148298
-2.2996388e-11
0.0085148298
5.5328547e-11
0.0085148298
-7.8061673e-11
0.0085148297
1.3790472e-10
0.0085148298
-2.087588e-10
0.0085148297
3.3010838e-10
0.0085148299
-4.8823758e-10
0.0085148296
7.1520505e-10
0.00851483
-9.9479621e-10
0.0085148294
1.3432565e-09
0.0085148302
-1.7031924e-09
0.0085148293
2.0532602e-09
0.0085148302
-2.2371242e-09
0.0085148294
2.1845716e-09
0.0085148297
-1.6214934e-09
0.0085148302
4.9652664e-10
0.0085148286
1.4292776e-09
0.0085148314
-3.8463267e-09
0.0085148274
6.6713164e-09
0.008514832
-8.877186e-09
0.0085148276
1.0092155e-08
0.0085148302
-8.5638719e-09
0.0085148304
5.1953174e-09
0.0085148259
1.9140795e-09
0.0085148332
-7.4381951e-09
0.0085148232
1.4877272e-08
0.0085148304
-1.2186841e-08
0.0085148243
1.5059045e-08
0.0085148219
1.1889907e-09
0.0085148221
8.5555224e-09
0.0085148138
1.5951856e-08
0.0085148094
2.164673e-08
0.0085147987
2.8563349e-08
0.0085147859
4.6292555e-08
5.124581e-08
0.010188709
0.00016554415
0.01053049
0.00044873513
0.010851394
0.00059780865
0.011124047
0.00062854873
0.011350352
0.00061559089
0.011524042
0.00058266367
0.011645612
0.00053278614
0.01172327
0.00047286951
0.011766955
0.00041177731
0.011785237
0.00035484375
0.011785189
0.00030410913
0.011772593
0.00026000562
0.01175191
0.00022185305
0.01172648
0.00018833381
0.011698871
0.00015837973
0.011671058
0.00013151463
0.011644508
0.00010754495
0.01162025
8.6312189e-05
0.011598948
6.7732007e-05
0.01158094
5.1818825e-05
0.011566263
3.8579116e-05
0.011554726
2.7905424e-05
0.011545972
1.9574957e-05
0.011539564
1.328629e-05
0.011535036
8.7017081e-06
0.01153195
5.4815156e-06
0.011529923
3.3061483e-06
0.011528644
1.8955863e-06
0.01152787
1.0212763e-06
0.011527424
5.058534e-07
0.011527182
2.1936603e-07
0.011527059
7.1893104e-08
0.011527003
4.1138315e-09
0.011526982
-2.1211283e-08
0.011526978
-2.6040177e-08
0.01152698
-2.2449764e-08
0.011526984
-1.6546443e-08
0.011526988
-1.101245e-08
0.011526991
-6.7450097e-09
0.011526993
-3.8067032e-09
0.011526994
-1.9500261e-09
0.011526995
-8.6222811e-10
0.011526996
-2.7294836e-10
0.011526996
1.7253e-11
0.011526996
1.417136e-10
0.011526996
1.7869795e-10
0.011526996
1.7788954e-10
0.011526996
1.6050523e-10
0.011526996
1.4115088e-10
0.011526996
1.2140406e-10
0.011526996
1.058233e-10
0.011526996
9.1466087e-11
0.011526996
8.0921345e-11
0.011526996
7.0432945e-11
0.011526996
6.2802831e-11
0.011526995
5.449241e-11
0.011526995
4.8883125e-11
0.011526995
4.1577662e-11
0.011526995
3.776175e-11
0.011526995
3.0311264e-11
0.011526995
3.0037151e-11
0.011526995
1.9231088e-11
0.011526995
2.7571289e-11
0.011526995
4.2037232e-12
0.011526995
3.6900659e-11
0.011526995
-2.5174041e-11
0.011526995
7.3339818e-11
0.011526995
-9.3552452e-11
0.011526995
1.7157105e-10
0.011526995
-2.4842397e-10
0.011526995
3.9245085e-10
0.011526995
-5.625036e-10
0.011526995
8.1066574e-10
0.011526995
-1.0903593e-09
0.011526995
1.4273698e-09
0.011526995
-1.7237698e-09
0.011526995
1.9585066e-09
0.011526995
-1.9262792e-09
0.011526996
1.5730533e-09
0.011526995
-5.9232016e-10
0.011526996
-9.7023209e-10
0.011526994
3.2536077e-09
0.011526996
-5.7290066e-09
0.011526995
8.1786133e-09
0.011526995
-9.2783996e-09
0.011526996
8.7437758e-09
0.011526993
-4.9179421e-09
0.011526999
-5.1554835e-10
0.011526992
8.6817193e-09
0.011526997
-1.3135329e-08
0.011526995
1.7478409e-08
0.011526993
-1.0475199e-08
0.011526999
9.0522081e-09
0.011526992
8.157278e-09
0.011526999
2.0004292e-09
0.011526997
1.7373698e-08
0.011526998
2.0498938e-08
0.011527005
2.1597771e-08
0.011527012
3.9580573e-08
4.1823242e-08
0.01009717
6.8374852e-05
0.010346926
0.00019897862
0.010662348
0.00028238699
0.010982446
0.00030845024
0.011289644
0.00030839306
0.011574155
0.00029815236
0.011827022
0.00027992003
0.012044578
0.00025531282
0.012228199
0.00022815573
0.012381442
0.00020160088
0.012508372
0.00017717892
0.012613049
0.00015532866
0.012699017
0.00013588519
0.012769063
0.00011828804
0.012825402
0.00010204058
0.012869959
8.6957941e-05
0.01290448
7.3024285e-05
0.012930551
6.0240523e-05
0.012949636
4.8646797e-05
0.012963104
3.8351415e-05
0.012972216
2.9466585e-05
0.012978085
2.2035865e-05
0.012981645
1.6014928e-05
0.012983638
1.1293773e-05
0.012984624
7.7155571e-06
0.012985009
5.0973591e-06
0.012985066
3.2491336e-06
0.012984969
1.992291e-06
0.01298482
1.1697872e-06
0.012984673
6.5294997e-07
0.01298455
3.4227246e-07
0.012984458
1.6472532e-07
0.012984392
6.9226408e-08
0.012984349
2.1779253e-08
0.012984323
7.7859553e-10
0.012984307
-6.5777896e-09
0.012984298
-7.6815911e-09
0.012984293
-6.3842288e-09
0.012984291
-4.5331605e-09
0.01298429
-2.8855896e-09
0.01298429
-1.6638985e-09
0.01298429
-8.5182911e-10
0.01298429
-3.5802733e-10
0.01298429
-7.8168075e-11
0.01298429
6.6659846e-11
0.01298429
1.2891891e-10
0.01298429
1.5121052e-10
0.01298429
1.5009913e-10
0.01298429
1.4213196e-10
0.01298429
1.2852397e-10
0.01298429
1.1704969e-10
0.01298429
1.038493e-10
0.01298429
9.4059029e-11
0.01298429
8.2840813e-11
0.01298429
7.5154214e-11
0.01298429
6.5711268e-11
0.01298429
5.9564993e-11
0.01298429
5.1094376e-11
0.01298429
4.6727033e-11
0.01298429
3.8574658e-11
0.01298429
3.6897657e-11
0.01298429
2.6653996e-11
0.01298429
3.1557681e-11
0.01298429
1.2944724e-11
0.01298429
3.4932404e-11
0.01298429
-9.8492958e-12
0.01298429
5.7433238e-11
0.01298429
-5.8026223e-11
0.01298429
1.2114978e-10
0.01298429
-1.6125709e-10
0.01298429
2.6271123e-10
0.01298429
-3.6056479e-10
0.01298429
5.2010047e-10
0.01298429
-6.7486063e-10
0.01298429
8.6901933e-10
0.01298429
-9.99875e-10
0.01298429
1.0866451e-09
0.012984289
-9.5463833e-10
0.01298429
6.2378692e-10
0.01298429
1.3118081e-10
0.01298429
-1.1741807e-09
0.012984291
2.6264859e-09
0.012984289
-3.9859188e-09
0.012984292
5.1572242e-09
0.012984288
-5.1795211e-09
0.012984292
4.109516e-09
0.012984288
-9.513478e-10
0.012984291
-2.7403993e-09
0.012984292
7.5412196e-09
0.012984288
-9.1798854e-09
0.012984295
1.0199415e-08
0.012984289
-4.2839069e-09
0.012984296
2.3555561e-09
0.012984296
7.5587194e-09
0.012984298
2.5458454e-11
0.012984306
9.4273315e-09
0.012984313
1.3129035e-08
0.012984325
1.0099593e-08
0.012984343
2.1886925e-08
2.2802747e-08
0.010068375
1.1148382e-11
0.010267354
-7.8368063e-11
0.010549741
-1.9928049e-10
0.010858191
-2.7869333e-10
0.011166585
-2.5374372e-10
0.011464737
-1.5517911e-10
0.011744658
-7.8617161e-11
0.01199997
-9.3097948e-11
0.012228126
-1.7601169e-10
0.012429727
-2.4428033e-10
0.012606906
-2.8180874e-10
0.012762235
-3.0540264e-10
0.012898121
-3.4819035e-10
0.013016409
-3.8740307e-10
0.013118451
-4.0163256e-10
0.013205409
-3.7496192e-10
0.013278434
-3.2406671e-10
0.013338675
-2.6186602e-10
0.013387322
-2.0868313e-10
0.013425673
-1.7001072e-10
0.01345514
-1.5851995e-10
0.013477176
-1.7598712e-10
0.013493191
-2.2301998e-10
0.013504485
-2.838606e-10
0.013512201
-3.4485401e-10
0.013517299
-3.9287396e-10
0.013520548
-4.113523e-10
0.013522541
-3.9493076e-10
0.013523711
-3.4690718e-10
0.013524365
-2.7584592e-10
0.013524707
-1.9172161e-10
0.013524872
-1.0704409e-10
0.013524941
-3.1517119e-11
0.013524963
3.0223767e-11
0.013524963
7.5579808e-11
0.013524957
1.062952e-10
0.013524949
1.2262799e-10
0.013524942
1.3256713e-10
0.013524938
1.3472454e-10
0.013524935
1.3747925e-10
0.013524933
1.3621535e-10
0.013524932
1.3807047e-10
0.013524932
1.3571162e-10
0.013524931
1.3677266e-10
0.013524931
1.3309591e-10
0.013524931
1.3131636e-10
0.013524931
1.2484433e-10
0.013524931
1.2058697e-10
0.013524931
1.1175856e-10
0.013524931
1.0591906e-10
0.013524931
9.625906e-11
0.013524931
8.9965941e-11
0.013524931
8.0198227e-11
0.013524932
7.4379199e-11
0.013524932
6.5511993e-11
0.013524932
6.0481656e-11
0.013524932
5.2317283e-11
0.013524932
4.8194051e-11
0.013524932
4.11288e-11
0.013524932
3.7836918e-11
0.013524932
3.1462746e-11
0.013524932
2.9023095e-11
0.013524932
2.3718915e-11
0.013524932
2.2098101e-11
0.013524932
1.7603514e-11
0.013524932
1.6637028e-11
0.013524932
1.2895086e-11
0.013524932
1.2701215e-11
0.013524932
9.482201e-12
0.013524931
1.0008076e-11
0.013524932
7.6435643e-12
0.013524931
8.8635957e-12
0.013524932
7.0990426e-12
0.013524931
9.1583938e-12
0.013524932
8.4653684e-12
0.013524931
1.1477105e-11
0.013524932
1.1659285e-11
0.013524931
1.5685969e-11
0.013524932
1.6921718e-11
0.013524932
2.1437638e-11
0.013524931
2.2636941e-11
0.013524933
2.8776784e-11
0.013524929
3.0855763e-11
0.013524934
3.8011125e-11
0.013524929
4.0053201e-11
0.013524933
4.6338759e-11
0.013524932
4.7497029e-11
0.013524929
4.905437e-11
0.013524937
4.4211886e-11
0.013524928
4.2764067e-11
0.013524938
3.883637e-11
0.013524934
4.0556363e-11
0.013524936
4.8606014e-11
0.013524943
6.4048887e-11
0.013524943
6.7472378e-11
0.013524952
5.8122496e-11
0.013524966
5.5857621e-11
0.013524976
5.5198531e-11
0.013524998
6.7942955e-11
5.1468723e-11
0.010068375
-6.8374844e-05
0.010267354
-0.0001989788
0.010549741
-0.0002823874
0.010858191
-0.00030845077
0.011166585
-0.0003083935
0.011464737
-0.00029815262
0.011744658
-0.00027992019
0.01199997
-0.00025531303
0.012228126
-0.00022815607
0.012429727
-0.00020160134
0.012606906
-0.00017717945
0.012762235
-0.00015532927
0.012898121
-0.00013588588
0.013016409
-0.00011828881
0.013118451
-0.00010204136
0.013205409
-8.6958669e-05
0.013278434
-7.3024911e-05
0.013338675
-6.0241025e-05
0.013387321
-4.8647186e-05
0.013425673
-3.8351733e-05
0.013455139
-2.9466869e-05
0.013477175
-2.2036185e-05
0.013493191
-1.6015345e-05
0.013504485
-1.1294306e-05
0.013512201
-7.7162072e-06
0.013517298
-5.0980983e-06
0.013520548
-3.2499009e-06
0.013522541
-1.9930175e-06
0.013523711
-1.1704176e-06
0.013524364
-6.5343983e-07
0.013524706
-3.4260203e-07
0.013524871
-1.6489567e-07
0.01352494
-6.9258238e-08
0.013524962
-2.1703875e-08
0.013524963
-6.2073031e-10
0.013524956
6.7852643e-09
0.013524948
7.9148767e-09
0.013524942
6.6309805e-09
0.013524937
4.7812071e-09
0.013524934
3.1357929e-09
0.013524932
1.9116739e-09
0.013524932
1.1015926e-09
0.013524931
6.0221803e-10
0.013524931
3.2329101e-10
0.013524931
1.7410611e-10
0.013524931
1.0655153e-10
0.013524931
7.3519475e-11
0.013524931
6.5096097e-11
0.013524931
5.8403161e-11
0.013524931
5.9645483e-11
0.013524931
5.5017467e-11
0.013524931
5.50847e-11
0.013524931
4.8918374e-11
0.013524931
4.8007106e-11
0.013524931
4.1302067e-11
0.013524931
4.0061281e-11
0.013524931
3.3340752e-11
0.013524931
3.2817267e-11
0.013524931
2.6179434e-11
0.013524931
2.679442e-11
0.013524932
1.8940345e-11
0.013524932
2.3203641e-11
0.013524932
1.0564059e-11
0.013524932
2.4466033e-11
0.013524932
-3.379952e-12
0.013524932
3.7989671e-11
0.013524932
-3.4299739e-11
0.013524932
7.930163e-11
0.013524932
-1.0385662e-10
0.013524931
1.7813828e-10
0.013524932
-2.4854663e-10
0.013524931
3.7564674e-10
0.013524932
-5.0651596e-10
0.013524931
6.9104964e-10
0.013524932
-8.5259592e-10
0.013524931
1.0207427e-09
0.013524932
-1.0639066e-09
0.013524931
9.8390374e-10
0.013524932
-5.9101212e-10
0.013524932
-9.1200186e-11
0.013524931
1.2159165e-09
0.013524933
-2.5724979e-09
0.013524929
4.0445806e-09
0.013524934
-5.0875192e-09
0.013524929
5.2545267e-09
0.013524933
-4.0255341e-09
0.013524932
1.0402018e-09
0.013524929
2.8312928e-09
0.013524937
-7.4608495e-09
0.013524928
9.2595605e-09
0.013524938
-1.0128569e-08
0.013524934
4.36184e-09
0.013524936
-2.2627045e-09
0.013524943
-7.4434173e-09
0.013524943
1.103536e-10
0.013524952
-9.318428e-09
0.013524966
-1.3024616e-08
0.013524976
-9.9919565e-09
0.013524998
-2.177449e-08
-2.2715571e-08
0.01009717
-0.00016554422
0.010346926
-0.00044873533
0.010662348
-0.00059780897
0.010982446
-0.00062854913
0.011289644
-0.00061559124
0.011574155
-0.00058266389
0.011827022
-0.00053278627
0.012044578
-0.00047286967
0.012228199
-0.00041177758
0.012381442
-0.00035484414
0.012508372
-0.00030410959
0.012613049
-0.00026000612
0.012699017
-0.00022185361
0.012769062
-0.00018833442
0.012825402
-0.00015838036
0.012869958
-0.00013151522
0.012904479
-0.00010754545
0.012930551
-8.6312584e-05
0.012949636
-6.7732292e-05
0.012963103
-5.1819053e-05
0.012972215
-3.8579313e-05
0.012978085
-2.7905679e-05
0.012981645
-1.9575286e-05
0.012983637
-1.3286732e-05
0.012984623
-8.7022525e-06
0.012985007
-5.4821166e-06
0.012985064
-3.3067547e-06
0.012984968
-1.8961441e-06
0.012984819
-1.0217375e-06
0.012984672
-5.0618863e-07
0.012984549
-2.1956663e-07
0.012984456
-7.1970314e-08
0.012984391
-4.0858527e-09
0.012984348
2.131216e-08
0.012984321
2.6193653e-08
0.012984305
2.2627237e-08
0.012984296
1.6736257e-08
0.012984292
1.1201397e-08
0.012984289
6.9325268e-09
0.012984289
3.9865678e-09
0.012984288
2.1313762e-09
0.012984289
1.0412577e-09
0.012984289
4.504169e-10
0.012984289
1.5456269e-10
0.012984289
3.0888771e-11
0.012984289
-1.5132027e-11
0.012984289
-1.8314451e-11
0.012984289
-1.2941802e-11
0.01298429
3.1332146e-13
0.01298429
5.8048037e-12
0.01298429
1.4565889e-11
0.01298429
1.4075008e-11
0.01298429
1.8535852e-11
0.01298429
1.528439e-11
0.01298429
1.7688081e-11
0.01298429
1.348232e-11
0.01298429
1.5269103e-11
0.01298429
1.1518975e-11
0.01298429
1.241272e-11
0.01298429
9.9577413e-12
0.01298429
8.5652049e-12
0.01298429
1.0853406e-11
0.01298429
1.6110604e-12
0.01298429
1.7643901e-11
0.01298429
-1.4705333e-11
0.01298429
4.0859465e-11
0.01298429
-5.6178528e-11
0.01298429
1.0439348e-10
0.01298429
-1.5751343e-10
0.01298429
2.5688715e-10
0.01298429
-3.8001259e-10
0.01298429
5.7025373e-10
0.01298429
-7.9757414e-10
0.01298429
1.1000539e-09
0.01298429
-1.4112046e-09
0.01298429
1.737644e-09
0.01298429
-1.9364099e-09
0.012984289
1.947453e-09
0.01298429
-1.5425555e-09
0.01298429
6.239547e-10
0.01298429
9.9989292e-10
0.012984291
-3.212697e-09
0.012984289
5.7809334e-09
0.012984292
-8.1280063e-09
0.012984288
9.3385478e-09
0.012984292
-8.682355e-09
0.012984289
4.9863888e-09
0.012984291
5.8040446e-10
0.012984292
-8.6153378e-09
0.012984288
1.3193991e-08
0.012984295
-1.7420393e-08
0.012984289
1.0532171e-08
0.012984296
-8.9686657e-09
0.012984296
-8.0722557e-09
0.012984298
-1.8846197e-09
0.012984306
-1.7286854e-08
0.012984314
-2.0425972e-08
0.012984325
-2.1530288e-08
0.012984343
-3.950346e-08
-4.1761754e-08
0.010188709
-0.00035425247
0.01053049
-0.00079051633
0.010851394
-0.00091871305
0.011124047
-0.00090120219
0.011350352
-0.00084189629
0.011524042
-0.00075635383
0.011645612
-0.00065435579
0.01172327
-0.00055052819
0.011766955
-0.00045546266
0.011785237
-0.00037312645
0.011785188
-0.00030406134
0.011772593
-0.00024741045
0.011751909
-0.00020116963
0.011726479
-0.00016290453
0.011698869
-0.00013077025
0.011671057
-0.00010370209
0.011644506
-8.0994923e-05
0.011620248
-6.2054636e-05
0.011598947
-4.6430828e-05
0.011580938
-3.3810883e-05
0.011566262
-2.3902816e-05
0.011554724
-1.636819e-05
0.011545971
-1.0821915e-05
0.011539563
-6.8786519e-06
0.011535034
-4.1736199e-06
0.011531948
-2.3954036e-06
0.011529921
-1.2801665e-06
0.011528642
-6.1635439e-07
0.011527868
-2.4769344e-07
0.011527422
-6.0247283e-08
0.011527179
2.319215e-08
0.011527056
5.0843689e-08
0.011527001
5.1743887e-08
0.01152698
4.2193086e-08
0.011526975
3.0484047e-08
0.011526978
2.0203808e-08
0.011526982
1.2448181e-08
0.011526986
7.1493703e-09
0.011526989
3.7923951e-09
0.011526992
1.8129e-09
0.011526993
7.3961128e-10
0.011526994
2.071637e-10
0.011526994
-3.4116416e-11
0.011526995
-1.11405e-10
0.011526995
-1.1425556e-10
0.011526995
-9.4841899e-11
0.011526995
-6.6935088e-11
0.011526995
-4.5741663e-11
0.011526995
-2.7297199e-11
0.011526995
-1.7598771e-11
0.011526995
-9.0432287e-12
0.011526995
-6.0321278e-12
0.011526995
-2.0932651e-12
0.011526995
-1.8829446e-12
0.011526995
5.8913607e-14
0.011526995
-2.8630421e-13
0.011526995
1.1217441e-12
0.011526995
4.5561786e-13
0.011526995
1.1066099e-12
0.011526995
1.2798235e-12
0.011526995
2.4560012e-13
0.011526995
3.389822e-12
0.011526995
-3.7387977e-12
0.011526995
9.9098799e-12
0.011526995
-1.5178167e-11
0.011526995
2.9332149e-11
0.011526995
-4.8004673e-11
0.011526995
8.2582676e-11
0.011526995
-1.314527e-10
0.011526995
2.1281066e-10
0.011526995
-3.23921e-10
0.011526995
4.9284617e-10
0.011526995
-7.0748973e-10
0.011526995
1.0014721e-09
0.011526995
-1.3331703e-09
0.011526995
1.7129292e-09
0.011526995
-2.039404e-09
0.011526995
2.2508164e-09
0.011526996
-2.1668886e-09
0.011526995
1.6392639e-09
0.011526996
-4.7622733e-10
0.011526994
-1.405472e-09
0.011526996
3.8748319e-09
0.011526995
-6.6409454e-09
0.011526995
8.9113526e-09
0.011526997
-1.0056733e-08
0.011526993
8.6023259e-09
0.011526999
-5.1585848e-09
0.011526992
-1.8748781e-09
0.011526998
7.4710588e-09
0.011526995
-1.4842717e-08
0.011526994
1.2226194e-08
0.011527
-1.5004572e-08
0.011526993
-1.137403e-09
0.011526999
-8.5083003e-09
0.011526998
-1.5916986e-08
0.011526999
-2.1609012e-08
0.011527006
-2.8515228e-08
0.011527013
-4.6234127e-08
-5.1197427e-08
0.010339543
-0.00069379536
0.010570814
-0.0010217868
0.010606451
-0.00095434965
0.010547847
-0.00084259829
0.010422757
-0.00071680586
0.010245234
-0.00057883102
0.010041236
-0.00045035767
0.0098320925
-0.00034138528
0.0096306181
-0.00025398873
0.00944393
-0.00018643875
0.009275846
-0.00013597756
0.0091278837
-9.9448068e-05
0.0090000871
-7.3372779e-05
0.0088917651
-5.4582064e-05
0.0088017786
-4.0783378e-05
0.008728587
-3.0510073e-05
0.0086703544
-2.2762096e-05
0.0086251258
-1.6826041e-05
0.0085909039
-1.2209075e-05
0.0085657291
-8.6362112e-06
0.0085477605
-5.9344699e-06
0.0085353411
-3.9489981e-06
0.0085270514
-2.5322946e-06
0.0085217266
-1.5537878e-06
0.0085184546
-9.0143701e-07
0.0085165451
-4.8577381e-07
0.0085154996
-2.3448423e-07
0.0085149735
-9.0083567e-08
0.0085147469
-2.0999273e-08
0.0085146785
8.2959191e-09
0.0085146815
2.0197484e-08
0.0085147108
2.1610114e-08
0.0085147444
1.8120638e-08
0.0085147732
1.3318838e-08
0.0085147948
8.9062005e-09
0.0085148095
5.5025058e-09
0.0085148188
3.1488383e-09
0.0085148243
1.6559158e-09
0.0085148273
7.692376e-10
0.0085148288
2.8231648e-10
0.0085148295
5.2050088e-11
0.0085148298
-3.2942332e-11
0.0085148298
-7.0399508e-11
0.0085148298
-6.9128386e-11
0.0085148298
-6.050231e-11
0.0085148298
-4.2799399e-11
0.0085148297
-3.3546385e-11
0.0085148297
-2.0426185e-11
0.0085148297
-1.7204888e-11
0.0085148297
-9.4017944e-12
0.0085148297
-9.6262142e-12
0.0085148297
-4.4949326e-12
0.0085148297
-6.3086616e-12
0.0085148297
-2.3970104e-12
0.0085148297
-4.5194661e-12
0.0085148298
-1.0617143e-12
0.0085148298
-3.4481569e-12
0.0085148298
-3.3345413e-13
0.0085148298
-2.8629368e-12
0.0085148298
6.9551152e-13
0.0085148298
-2.9907816e-12
0.0085148298
1.880355e-12
0.0085148298
-4.4238812e-12
0.0085148298
5.1790035e-12
0.0085148298
-9.4672092e-12
0.0085148298
1.4047756e-11
0.0085148298
-2.3985607e-11
0.0085148298
3.8872777e-11
0.0085148297
-6.2355922e-11
0.0085148299
1.0053196e-10
0.0085148297
-1.5385953e-10
0.0085148299
2.3834226e-10
0.0085148296
-3.4677827e-10
0.0085148301
5.0271586e-10
0.0085148294
-6.87484e-10
0.0085148302
9.1300246e-10
0.0085148293
-1.1418234e-09
0.0085148302
1.3370822e-09
0.0085148295
-1.4353649e-09
0.0085148298
1.326639e-09
0.0085148303
-9.2923713e-10
0.0085148287
1.2428001e-10
0.0085148315
1.0802523e-09
0.0085148276
-2.6514372e-09
0.0085148322
4.2664437e-09
0.0085148278
-5.6583425e-09
0.0085148304
5.9721462e-09
0.0085148306
-5.3568821e-09
0.0085148261
2.585547e-09
0.0085148334
1.4377249e-10
0.0085148235
-4.8470878e-09
0.0085148307
5.1062826e-09
0.0085148246
-9.0134986e-09
0.0085148222
1.2016077e-09
0.0085148224
-8.9130101e-09
0.0085148141
-7.7003264e-09
0.0085148097
-1.7137745e-08
0.0085147991
-1.7723178e-08
0.0085147863
-3.3299695e-08
-3.9841458e-08
0.0093062048
0.0082844181
0.0073300685
0.0064874703
0.0057706645
0.0051918335
0.0047414757
0.0044000901
0.0041461011
0.0039596622
0.0038236847
0.0037242367
0.0036508641
0.0035962823
0.0035554992
0.0035249892
0.0035022272
0.0034854011
0.0034731919
0.0034645556
0.003458621
0.0034546719
0.0034521396
0.0034505859
0.0034496845
0.0034491988
0.0034489644
0.0034488744
0.0034488535
0.0034488618
0.003448882
0.0034489036
0.0034489217
0.003448935
0.0034489439
0.0034489494
0.0034489526
0.0034489542
0.003448955
0.0034489553
0.0034489553
0.0034489553
0.0034489552
0.0034489552
0.0034489551
0.0034489551
0.0034489551
0.003448955
0.003448955
0.003448955
0.003448955
0.003448955
0.003448955
0.003448955
0.003448955
0.003448955
0.003448955
0.003448955
0.003448955
0.003448955
0.003448955
0.003448955
0.003448955
0.003448955
0.003448955
0.003448955
0.003448955
0.003448955
0.003448955
0.0034489551
0.0034489549
0.0034489551
0.0034489548
0.0034489553
0.0034489546
0.0034489555
0.0034489544
0.0034489557
0.0034489543
0.0034489556
0.0034489547
0.0034489548
0.0034489559
0.0034489532
0.0034489575
0.0034489518
0.0034489578
0.0034489524
0.003448955
0.0034489552
0.0034489504
0.0034489555
0.0034489464
0.0034489475
0.0034489386
0.0034489309
0.0034489138
0.0034488962
0.0034488629
)
;

boundaryField
{
    top
    {
        type            calculated;
        value           uniform 0;
    }
    inlet
    {
        type            calculated;
        value           nonuniform List<scalar> 10(-0.01 -0.01 -0.01 -0.01 -0.01 -0.01 -0.01 -0.01 -0.01 -0.01);
    }
    outlet
    {
        type            calculated;
        value           nonuniform List<scalar> 10(0.0034488229 0.0085147746 0.011527022 0.012984362 0.01352502 0.013525021 0.012984362 0.011527022 0.008514775 0.0034488231);
    }
    bottom
    {
        type            calculated;
        value           uniform 0;
    }
    back
    {
        type            empty;
        value           nonuniform 0();
    }
    front
    {
        type            empty;
        value           nonuniform 0();
    }
}


// ************************************************************************* //
