/*--------------------------------*- C++ -*----------------------------------*\
| =========                 |                                                 |
| \\      /  F ield         | OpenFOAM: The Open Source CFD Toolbox           |
|  \\    /   O peration     | Version:  v1812                                 |
|   \\  /    A nd           | Web:      www.OpenFOAM.com                      |
|    \\/     M anipulation  |                                                 |
\*---------------------------------------------------------------------------*/
FoamFile
{
    version     2.0;
    format      ascii;
    class       volVectorField;
    location    "2";
    object      U;
}
// * * * * * * * * * * * * * * * * * * * * * * * * * * * * * * * * * * * * * //

dimensions      [0 1 -1 0 0 0 0];


internalField   nonuniform List<vector> 
1000
(
(0.91891016 0.035822119 0)
(0.86271248 0.062194446 0)
(0.78706394 0.06250051 0)
(0.69537932 0.05454015 0)
(0.61094567 0.044500895 0)
(0.54424776 0.033925543 0)
(0.49369533 0.024062042 0)
(0.45518828 0.016002475 0)
(0.42600211 0.01004241 0)
(0.40430828 0.0059348467 0)
(0.38843413 0.0032996183 0)
(0.37685336 0.0017372259 0)
(0.36835029 0.00087112417 0)
(0.36205158 0.00041640999 0)
(0.35735686 0.00019729112 0)
(0.3538471 0.00010800139 0)
(0.35122595 7.9842581e-05 0)
(0.34927941 7.280772e-05 0)
(0.34785346 6.9852083e-05 0)
(0.34683129 6.5624753e-05 0)
(0.3461186 5.8812424e-05 0)
(0.34563668 4.989679e-05 0)
(0.3453218 3.9964597e-05 0)
(0.34512407 3.0182517e-05 0)
(0.34500596 2.1563147e-05 0)
(0.34493973 1.4686281e-05 0)
(0.34490575 9.590575e-06 0)
(0.34489076 5.9506168e-06 0)
(0.34488595 3.174281e-06 0)
(0.3448857 1.3390047e-06 0)
(0.34488729 4.2526303e-07 0)
(0.34488944 4.3537833e-08 0)
(0.34489144 -8.3704475e-08 0)
(0.34489299 -1.0355387e-07 0)
(0.34489407 -8.6840651e-08 0)
(0.34489477 -6.2565393e-08 0)
(0.34489518 -4.1279108e-08 0)
(0.3448954 -2.5333339e-08 0)
(0.34489551 -1.4796249e-08 0)
(0.34489555 -7.8334426e-09 0)
(0.34489556 -2.6263864e-09 0)
(0.34489556 9.6558979e-10 0)
(0.34489555 2.0642945e-09 0)
(0.34489554 2.3188907e-09 0)
(0.34489554 1.9812449e-09 0)
(0.34489553 1.7546156e-09 0)
(0.34489552 1.3376048e-09 0)
(0.34489552 1.1805658e-09 0)
(0.34489552 8.773326e-10 0)
(0.34489551 8.1890429e-10 0)
(0.34489551 5.8380042e-10 0)
(0.34489551 5.7960805e-10 0)
(0.34489551 3.9303625e-10 0)
(0.34489551 4.2236237e-10 0)
(0.34489551 2.5353839e-10 0)
(0.3448955 3.0026568e-10 0)
(0.3448955 1.5735939e-10 0)
(0.3448955 2.1851039e-10 0)
(0.3448955 8.8330679e-11 0)
(0.3448955 1.460282e-10 0)
(0.3448955 6.0983486e-11 0)
(0.3448955 8.2317378e-11 0)
(0.3448955 9.2147711e-11 0)
(0.3448955 -3.9526015e-11 0)
(0.3448955 2.687067e-10 0)
(0.3448955 -3.7467189e-10 0)
(0.3448955 8.0100195e-10 0)
(0.3448955 -1.2952969e-09 0)
(0.34489549 2.2418697e-09 0)
(0.34489551 -3.6137688e-09 0)
(0.34489548 5.7688999e-09 0)
(0.34489553 -8.9367487e-09 0)
(0.34489546 1.3439697e-08 0)
(0.34489557 -1.9570566e-08 0)
(0.3448954 2.7689563e-08 0)
(0.34489565 -3.7317838e-08 0)
(0.34489527 4.8769914e-08 0)
(0.34489582 -5.9273607e-08 0)
(0.34489506 6.880603e-08 0)
(0.34489608 -7.0907696e-08 0)
(0.34489473 6.5170529e-08 0)
(0.34489645 -4.2293722e-08 0)
(0.34489433 4.9393516e-09 0)
(0.34489685 5.4781787e-08 0)
(0.34489395 -1.2140518e-07 0)
(0.34489718 2.0417262e-07 0)
(0.34489366 -2.52941e-07 0)
(0.34489738 3.0759332e-07 0)
(0.34489345 -2.5422938e-07 0)
(0.34489748 2.4279622e-07 0)
(0.34489321 -2.3000227e-08 0)
(0.34489747 5.5572731e-08 0)
(0.34489281 3.8059073e-07 0)
(0.34489707 1.7263735e-08 0)
(0.34489205 9.0335276e-07 0)
(0.34489556 3.6783667e-07 0)
(0.34489026 1.5692636e-06 0)
(0.34489175 1.3710469e-06 0)
(0.34488504 1.9376463e-06 0)
(0.34488514 2.2117503e-06 0)
(1.00166 0.053817492 0)
(1.0359757 0.1012836 0)
(1.0597145 0.11072143 0)
(1.0628931 0.10588632 0)
(1.0515609 0.09617695 0)
(1.0340846 0.083822174 0)
(1.014415 0.070124313 0)
(0.99387855 0.0567198 0)
(0.97333937 0.044776605 0)
(0.95374897 0.034723661 0)
(0.93583902 0.026588538 0)
(0.91993306 0.02022105 0)
(0.90608227 0.015330292 0)
(0.89424117 0.011570075 0)
(0.88432399 0.0086590134 0)
(0.87618895 0.0064083644 0)
(0.86965388 0.0046792503 0)
(0.86452095 0.0033571587 0)
(0.86059018 0.0023541641 0)
(0.85766109 0.0016061721 0)
(0.8555415 0.0010623494 0)
(0.85405494 0.0006784497 0)
(0.85304689 0.00041569901 0)
(0.85238777 0.00024168414 0)
(0.85197449 0.0001309273 0)
(0.85172762 6.3972629e-05 0)
(0.8515885 2.6048659e-05 0)
(0.85151563 6.2303264e-06 0)
(0.85148164 -3.1502672e-06 0)
(0.85146918 -6.5648821e-06 0)
(0.85146721 -6.7500319e-06 0)
(0.85146949 -5.570337e-06 0)
(0.85147294 -4.0673094e-06 0)
(0.85147617 -2.7219536e-06 0)
(0.8514787 -1.6941502e-06 0)
(0.85148048 -9.8346649e-07 0)
(0.85148164 -5.2876557e-07 0)
(0.85148234 -2.5696645e-07 0)
(0.85148274 -1.0612903e-07 0)
(0.85148294 -2.8579152e-08 0)
(0.85148303 7.5212952e-09 0)
(0.85148307 2.1265766e-08 0)
(0.85148307 2.3128483e-08 0)
(0.85148306 2.047314e-08 0)
(0.85148305 1.6338339e-08 0)
(0.85148304 1.2666038e-08 0)
(0.85148303 9.5479106e-09 0)
(0.85148302 7.4219475e-09 0)
(0.85148301 5.7430927e-09 0)
(0.85148301 4.7297085e-09 0)
(0.851483 3.817761e-09 0)
(0.851483 3.3110948e-09 0)
(0.851483 2.7411105e-09 0)
(0.85148299 2.4564779e-09 0)
(0.85148299 2.0211097e-09 0)
(0.85148299 1.8230082e-09 0)
(0.85148299 1.4806661e-09 0)
(0.85148299 1.3382598e-09 0)
(0.85148298 1.0761713e-09 0)
(0.85148298 9.1393129e-10 0)
(0.85148298 8.2846039e-10 0)
(0.85148298 5.0370968e-10 0)
(0.85148298 8.4983884e-10 0)
(0.85148298 -1.5371706e-10 0)
(0.85148298 1.4836345e-09 0)
(0.85148298 -1.628896e-09 0)
(0.85148297 3.6463139e-09 0)
(0.85148299 -5.4508553e-09 0)
(0.85148295 9.530726e-09 0)
(0.85148302 -1.4824505e-08 0)
(0.8514829 2.3594813e-08 0)
(0.8514831 -3.5620541e-08 0)
(0.85148277 5.292812e-08 0)
(0.85148329 -7.5296031e-08 0)
(0.8514825 1.0401449e-07 0)
(0.85148368 -1.3607225e-07 0)
(0.85148196 1.7042637e-07 0)
(0.85148441 -1.9641478e-07 0)
(0.85148102 2.0881058e-07 0)
(0.85148556 -1.857983e-07 0)
(0.85147966 1.2014768e-07 0)
(0.85148706 1.2175457e-08 0)
(0.8514781 -2.0203328e-07 0)
(0.85148852 4.5524641e-07 0)
(0.8514769 -7.028956e-07 0)
(0.85148929 9.1897268e-07 0)
(0.85147662 -9.46687e-07 0)
(0.85148901 8.1539659e-07 0)
(0.85147728 -3.1129585e-07 0)
(0.85148801 -2.0505344e-07 0)
(0.85147823 1.0546438e-06 0)
(0.85148692 -1.1781951e-06 0)
(0.85147886 1.7091061e-06 0)
(0.85148573 -3.9635341e-07 0)
(0.85147897 1.1036489e-06 0)
(0.8514841 1.4254293e-06 0)
(0.85147724 1.7978364e-06 0)
(0.85148215 2.6245227e-06 0)
(0.85147098 4.3900416e-06 0)
(0.8514816 5.0781141e-06 0)
(1.0014251 0.026821676 0)
(1.0291257 0.062788306 0)
(1.0654147 0.077719681 0)
(1.09894 0.080551665 0)
(1.1252701 0.07821533 0)
(1.1449753 0.073032152 0)
(1.1594281 0.065893291 0)
(1.1694083 0.057847369 0)
(1.1754705 0.049870743 0)
(1.1784083 0.042507813 0)
(1.1791396 0.035976451 0)
(1.1783798 0.030334617 0)
(1.1765963 0.025503762 0)
(1.1741582 0.021315717 0)
(1.1713972 0.017625958 0)
(1.1685612 0.014365863 0)
(1.1658052 0.011508312 0)
(1.163234 0.0090310451 0)
(1.1609302 0.0069151548 0)
(1.1589481 0.0051491836 0)
(1.1573075 0.0037199717 0)
(1.1559977 0.0026021043 0)
(1.1549878 0.0017578006 0)
(1.1542361 0.0011426522 0)
(1.1536967 0.00071130332 0)
(1.1533237 0.0004211373 0)
(1.1530748 0.00023449968 0)
(1.152915 0.000120271 0)
(1.1528166 5.4482081e-05 0)
(1.1527589 1.9273747e-05 0)
(1.1527267 2.2117077e-06 0)
(1.1527099 -4.7078878e-06 0)
(1.1527019 -6.4366158e-06 0)
(1.1526986 -5.8551107e-06 0)
(1.1526977 -4.5075463e-06 0)
(1.1526977 -3.1288205e-06 0)
(1.1526982 -2.0057256e-06 0)
(1.1526986 -1.1967582e-06 0)
(1.152699 -6.6239578e-07 0)
(1.1526992 -3.3435499e-07 0)
(1.1526994 -1.4729514e-07 0)
(1.1526995 -4.8997101e-08 0)
(1.1526995 -1.835203e-09 0)
(1.1526996 1.7459638e-08 0)
(1.1526996 2.2975607e-08 0)
(1.1526996 2.2183953e-08 0)
(1.1526996 1.9317403e-08 0)
(1.1526996 1.6035989e-08 0)
(1.1526996 1.3257871e-08 0)
(1.1526996 1.094352e-08 0)
(1.1526996 9.234787e-09 0)
(1.1526996 7.8235364e-09 0)
(1.1526996 6.8063113e-09 0)
(1.1526996 5.879238e-09 0)
(1.1526996 5.1880466e-09 0)
(1.1526995 4.4752145e-09 0)
(1.1526995 3.9788607e-09 0)
(1.1526995 3.3694253e-09 0)
(1.1526995 3.0413556e-09 0)
(1.1526995 2.4017481e-09 0)
(1.1526995 2.4071463e-09 0)
(1.1526995 1.4460029e-09 0)
(1.1526995 2.2811761e-09 0)
(1.1526995 6.2866299e-11 0)
(1.1526995 3.2896672e-09 0)
(1.1526996 -2.7574568e-09 0)
(1.1526995 7.0358904e-09 0)
(1.1526996 -9.5819437e-09 0)
(1.1526995 1.7115788e-08 0)
(1.1526997 -2.5484929e-08 0)
(1.1526993 4.0222144e-08 0)
(1.1526998 -5.8709229e-08 0)
(1.1526991 8.5285779e-08 0)
(1.1527003 -1.1683523e-07 0)
(1.1526984 1.552465e-07 0)
(1.1527011 -1.9223672e-07 0)
(1.1526973 2.2446171e-07 0)
(1.1527027 -2.3213378e-07 0)
(1.1526953 2.0628541e-07 0)
(1.1527049 -1.1514888e-07 0)
(1.1526928 -4.160515e-08 0)
(1.1527076 2.8779971e-07 0)
(1.1526904 -5.7832817e-07 0)
(1.1527095 8.8512665e-07 0)
(1.1526893 -1.0728325e-06 0)
(1.1527093 1.0857664e-06 0)
(1.1526908 -7.4056739e-07 0)
(1.1527067 1.6365611e-07 0)
(1.1526942 7.4987132e-07 0)
(1.1527032 -1.375505e-06 0)
(1.152697 1.9908423e-06 0)
(1.1527014 -1.3810779e-06 0)
(1.1526977 1.194684e-06 0)
(1.1527016 6.7879869e-07 0)
(1.1526968 2.7067569e-07 0)
(1.1527024 1.798103e-06 0)
(1.1526951 2.1556684e-06 0)
(1.1527031 2.3236621e-06 0)
(1.1526913 4.5006137e-06 0)
(1.1527066 5.0180693e-06 0)
(1.0007352 0.01181222 0)
(1.0178435 0.030856563 0)
(1.0461957 0.041421659 0)
(1.0798706 0.045158681 0)
(1.1131986 0.045444256 0)
(1.1436498 0.04398654 0)
(1.1707413 0.041280259 0)
(1.194395 0.037731113 0)
(1.2145152 0.033846822 0)
(1.2312971 0.0300083 0)
(1.2452358 0.026418983 0)
(1.2567918 0.023169837 0)
(1.2662683 0.020255305 0)
(1.2739475 0.017601584 0)
(1.2801444 0.015141125 0)
(1.2851178 0.012853231 0)
(1.2890323 0.010743044 0)
(1.2920191 0.0088160262 0)
(1.2942248 0.0070792816 0)
(1.2958034 0.0055471769 0)
(1.296893 0.0042340011 0)
(1.2976102 0.0031436712 0)
(1.2980547 0.0022671368 0)
(1.2983102 0.0015854084 0)
(1.2984425 0.0010730862 0)
(1.2984994 0.00070151101 0)
(1.2985137 0.00044173311 0)
(1.2985067 0.00026690121 0)
(1.2984915 0.00015385042 0)
(1.2984751 8.3796167e-05 0)
(1.2984609 4.239163e-05 0)
(1.2984499 1.9240651e-05 0)
(1.2984419 7.1616867e-06 0)
(1.2984366 1.4393839e-06 0)
(1.2984332 -8.6614027e-07 0)
(1.2984312 -1.4924279e-06 0)
(1.2984301 -1.3962335e-06 0)
(1.2984294 -1.0660324e-06 0)
(1.2984291 -7.2257959e-07 0)
(1.298429 -4.4700652e-07 0)
(1.298429 -2.5312476e-07 0)
(1.298429 -1.2892137e-07 0)
(1.298429 -5.5140069e-08 0)
(1.298429 -1.4967085e-08 0)
(1.298429 5.1257342e-09 0)
(1.298429 1.3699808e-08 0)
(1.298429 1.650779e-08 0)
(1.298429 1.6332951e-08 0)
(1.298429 1.5187323e-08 0)
(1.298429 1.3534521e-08 0)
(1.298429 1.2081246e-08 0)
(1.298429 1.060585e-08 0)
(1.298429 9.4777252e-09 0)
(1.298429 8.3149829e-09 0)
(1.298429 7.459702e-09 0)
(1.298429 6.5119837e-09 0)
(1.298429 5.8614923e-09 0)
(1.298429 5.0230188e-09 0)
(1.298429 4.5686414e-09 0)
(1.298429 3.7243048e-09 0)
(1.298429 3.629293e-09 0)
(1.298429 2.4606539e-09 0)
(1.298429 3.2364738e-09 0)
(1.298429 8.3923469e-10 0)
(1.298429 4.0149942e-09 0)
(1.298429 -2.1490125e-09 0)
(1.298429 7.4226743e-09 0)
(1.2984291 -8.7747267e-09 0)
(1.2984289 1.6668097e-08 0)
(1.2984292 -2.3387199e-08 0)
(1.2984287 3.7100853e-08 0)
(1.2984295 -5.209801e-08 0)
(1.2984282 7.4483104e-08 0)
(1.2984302 -9.8044672e-08 0)
(1.2984273 1.2595363e-07 0)
(1.2984314 -1.4711913e-07 0)
(1.2984256 1.6029491e-07 0)
(1.2984336 -1.4503099e-07 0)
(1.2984229 9.8411368e-08 0)
(1.2984366 6.2591922e-09 0)
(1.2984197 -1.5581527e-07 0)
(1.2984397 3.6379192e-07 0)
(1.2984172 -5.6799091e-07 0)
(1.2984413 7.3970082e-07 0)
(1.2984171 -7.5744597e-07 0)
(1.2984396 6.0547379e-07 0)
(1.2984205 -1.6860535e-07 0)
(1.2984349 -3.6422031e-07 0)
(1.2984258 1.0377182e-06 0)
(1.2984302 -1.2988898e-06 0)
(1.2984292 1.4390816e-06 0)
(1.2984289 -6.1897298e-07 0)
(1.2984287 3.305988e-07 0)
(1.2984311 9.9806809e-07 0)
(1.2984265 3.6019134e-08 0)
(1.2984337 1.2190992e-06 0)
(1.2984254 1.8884476e-06 0)
(1.298435 1.5031244e-06 0)
(1.2984237 3.1150994e-06 0)
(1.2984405 3.4034533e-06 0)
(1.000591 0.0034620175 0)
(1.013682 0.0093640582 0)
(1.0370036 0.013042066 0)
(1.0673847 0.014550401 0)
(1.0999567 0.014832173 0)
(1.1314935 0.014530414 0)
(1.1608929 0.013831663 0)
(1.1878474 0.012831043 0)
(1.2120863 0.011674927 0)
(1.2335529 0.010496185 0)
(1.2524922 0.0093726646 0)
(1.2691654 0.008340162 0)
(1.2837208 0.0074000563 0)
(1.2963303 0.0065301625 0)
(1.307235 0.0057094415 0)
(1.3166292 0.0049319672 0)
(1.3246082 0.0042002507 0)
(1.3312413 0.0035168733 0)
(1.3366367 0.0028855669 0)
(1.3409346 0.0023137349 0)
(1.3442793 0.0018098306 0)
(1.3468123 0.0013792263 0)
(1.3486745 0.0010226323 0)
(1.3500029 0.00073669292 0)
(1.350922 0.00051493479 0)
(1.3515375 0.00034875303 0)
(1.3519354 0.00022851487 0)
(1.352183 0.00014458121 0)
(1.3523308 8.8095163e-05 0)
(1.3524148 5.148283e-05 0)
(1.35246 2.8671924e-05 0)
(1.3524824 1.5059251e-05 0)
(1.3524924 7.3198244e-06 0)
(1.352496 3.1651346e-06 0)
(1.3524966 1.0950687e-06 0)
(1.3524961 1.656328e-07 0)
(1.3524952 -1.7913651e-07 0)
(1.3524945 -2.5209903e-07 0)
(1.352494 -2.1768294e-07 0)
(1.3524936 -1.5450174e-07 0)
(1.3524934 -9.5636371e-08 0)
(1.3524932 -5.1146672e-08 0)
(1.3524932 -2.1486151e-08 0)
(1.3524931 -3.4403609e-09 0)
(1.3524931 6.4405603e-09 0)
(1.3524931 1.1418363e-08 0)
(1.3524931 1.3348536e-08 0)
(1.3524931 1.3744789e-08 0)
(1.3524931 1.32097e-08 0)
(1.3524931 1.2387825e-08 0)
(1.3524931 1.1343164e-08 0)
(1.3524931 1.0374584e-08 0)
(1.3524932 9.344391e-09 0)
(1.3524931 8.4607526e-09 0)
(1.3524932 7.5613776e-09 0)
(1.3524932 6.8091939e-09 0)
(1.3524932 6.0342968e-09 0)
(1.3524932 5.3718534e-09 0)
(1.3524932 4.7422832e-09 0)
(1.3524932 4.1393531e-09 0)
(1.3524932 3.7072719e-09 0)
(1.3524932 3.0147872e-09 0)
(1.3524932 3.007992e-09 0)
(1.3524932 1.8693027e-09 0)
(1.3524931 2.8956618e-09 0)
(1.3524932 2.723713e-10 0)
(1.3524931 3.9310484e-09 0)
(1.3524932 -2.6407525e-09 0)
(1.352493 7.3412345e-09 0)
(1.3524934 -8.5366659e-09 0)
(1.3524928 1.5046054e-08 0)
(1.3524938 -1.9477669e-08 0)
(1.3524922 2.8816461e-08 0)
(1.3524945 -3.5959512e-08 0)
(1.3524911 4.6508875e-08 0)
(1.3524961 -5.1165073e-08 0)
(1.3524891 5.4718863e-08 0)
(1.3524985 -4.3252734e-08 0)
(1.3524862 2.3340317e-08 0)
(1.3525019 2.2440061e-08 0)
(1.3524828 -7.8318033e-08 0)
(1.352505 1.5641329e-07 0)
(1.3524803 -2.1869163e-07 0)
(1.3525062 2.6950115e-07 0)
(1.3524809 -2.4518006e-07 0)
(1.3525036 1.6744871e-07 0)
(1.3524853 2.1226821e-08 0)
(1.352498 -2.1187189e-07 0)
(1.3524913 4.4289955e-07 0)
(1.352493 -4.764718e-07 0)
(1.3524946 4.7426244e-07 0)
(1.3524923 -1.2169653e-07 0)
(1.3524934 2.1995819e-08 0)
(1.3524956 4.3730954e-07 0)
(1.3524906 1.9838349e-08 0)
(1.3524988 4.0226558e-07 0)
(1.35249 7.4807869e-07 0)
(1.3525001 5.1025764e-07 0)
(1.3524893 1.070004e-06 0)
(1.3525063 1.1717921e-06 0)
(1.000591 -0.0034620156 0)
(1.013682 -0.0093640746 0)
(1.0370036 -0.013042106 0)
(1.0673847 -0.014550456 0)
(1.0999567 -0.014832223 0)
(1.1314935 -0.014530444 0)
(1.1608929 -0.01383168 0)
(1.1878474 -0.012831063 0)
(1.2120863 -0.011674962 0)
(1.2335529 -0.010496234 0)
(1.2524922 -0.0093727217 0)
(1.2691654 -0.0083402254 0)
(1.2837208 -0.0074001278 0)
(1.2963303 -0.0065302417 0)
(1.307235 -0.0057095223 0)
(1.3166292 -0.0049320425 0)
(1.3246082 -0.0042003155 0)
(1.3312413 -0.0035169258 0)
(1.3366367 -0.0028856087 0)
(1.3409346 -0.0023137691 0)
(1.3442793 -0.0018098628 0)
(1.3468122 -0.0013792618 0)
(1.3486744 -0.0010226773 0)
(1.3500029 -0.00073675041 0)
(1.350922 -0.00051500511 0)
(1.3515375 -0.00034883248 0)
(1.3519354 -0.00022859761 0)
(1.352183 -0.00014466051 0)
(1.3523307 -8.8164929e-05 0)
(1.3524148 -5.1538275e-05 0)
(1.3524599 -2.871063e-05 0)
(1.3524824 -1.5080902e-05 0)
(1.3524924 -7.3262962e-06 0)
(1.3524959 -3.1590875e-06 0)
(1.3524965 -1.080159e-06 0)
(1.352496 -1.446021e-07 0)
(1.3524952 2.0350321e-07 0)
(1.3524944 2.7842133e-07 0)
(1.3524939 2.4456286e-07 0)
(1.3524935 1.8185868e-07 0)
(1.3524933 1.2290712e-07 0)
(1.3524932 7.8731093e-08 0)
(1.3524931 4.8780561e-08 0)
(1.3524931 3.0714984e-08 0)
(1.3524931 2.0139562e-08 0)
(1.3524931 1.4705986e-08 0)
(1.3524931 1.1620279e-08 0)
(1.3524931 1.0277812e-08 0)
(1.3524931 9.2002113e-09 0)
(1.3524931 8.7384957e-09 0)
(1.3524931 7.9828552e-09 0)
(1.3524931 7.5822187e-09 0)
(1.3524931 6.7979645e-09 0)
(1.3524931 6.3911979e-09 0)
(1.3524931 5.63244e-09 0)
(1.3524931 5.2650788e-09 0)
(1.3524931 4.5316964e-09 0)
(1.3524931 4.2452178e-09 0)
(1.3524931 3.5644046e-09 0)
(1.3524932 3.4013391e-09 0)
(1.3524931 2.6713904e-09 0)
(1.3524932 2.7618495e-09 0)
(1.3524931 1.7965226e-09 0)
(1.3524932 2.5062345e-09 0)
(1.3524931 6.491222e-10 0)
(1.3524932 2.9853774e-09 0)
(1.3524931 -1.3116139e-09 0)
(1.3524932 5.1285378e-09 0)
(1.352493 -5.3789388e-09 0)
(1.3524934 1.0489838e-08 0)
(1.3524928 -1.3463261e-08 0)
(1.3524938 2.1199712e-08 0)
(1.3524922 -2.7336893e-08 0)
(1.3524945 3.7732603e-08 0)
(1.3524911 -4.4782959e-08 0)
(1.3524961 5.3384989e-08 0)
(1.3524891 -5.2361221e-08 0)
(1.3524985 4.6300828e-08 0)
(1.3524862 -1.9952492e-08 0)
(1.3525019 -1.8252631e-08 0)
(1.3524828 8.2784554e-08 0)
(1.352505 -1.5079746e-07 0)
(1.3524803 2.2500038e-07 0)
(1.3525062 -2.6203474e-07 0)
(1.3524809 2.5323844e-07 0)
(1.3525036 -1.5838022e-07 0)
(1.3524853 -1.1733872e-08 0)
(1.352498 2.2172537e-07 0)
(1.3524913 -4.335496e-07 0)
(1.352493 4.8522488e-07 0)
(1.3524946 -4.664128e-07 0)
(1.3524923 1.2995725e-07 0)
(1.3524934 -1.2422998e-08 0)
(1.3524956 -4.2567665e-07 0)
(1.3524906 -7.5911027e-09 0)
(1.3524988 -3.9081306e-07 0)
(1.35249 -7.368216e-07 0)
(1.3525001 -4.9900402e-07 0)
(1.3524893 -1.0569066e-06 0)
(1.3525063 -1.1615856e-06 0)
(1.0007352 -0.011812224 0)
(1.0178435 -0.030856584 0)
(1.0461957 -0.041421699 0)
(1.0798706 -0.045158732 0)
(1.1131985 -0.0454443 0)
(1.1436498 -0.043986567 0)
(1.1707413 -0.041280274 0)
(1.194395 -0.037731132 0)
(1.2145152 -0.033846853 0)
(1.2312971 -0.030008343 0)
(1.2452357 -0.026419033 0)
(1.2567918 -0.023169894 0)
(1.2662683 -0.02025537 0)
(1.2739474 -0.017601656 0)
(1.2801443 -0.015141199 0)
(1.2851177 -0.012853301 0)
(1.2890323 -0.010743104 0)
(1.292019 -0.0088160747 0)
(1.2942247 -0.0070793182 0)
(1.2958033 -0.0055472054 0)
(1.2968929 -0.0042340268 0)
(1.2976101 -0.0031437007 0)
(1.2980546 -0.0022671755 0)
(1.2983101 -0.001585459 0)
(1.2984424 -0.0010731484 0)
(1.2984993 -0.00070158134 0)
(1.2985136 -0.00044180566 0)
(1.2985066 -0.00026696938 0)
(1.2984914 -0.00015390847 0)
(1.298475 -8.3840218e-05 0)
(1.2984607 -4.2419986e-05 0)
(1.2984497 -1.9253926e-05 0)
(1.2984418 -7.1618975e-06 0)
(1.2984364 -1.4296688e-06 0)
(1.2984331 8.8261946e-07 0)
(1.298431 1.5127694e-06 0)
(1.2984299 1.4186728e-06 0)
(1.2984293 1.0890176e-06 0)
(1.298429 7.4574436e-07 0)
(1.2984289 4.6969889e-07 0)
(1.2984288 2.7578212e-07 0)
(1.2984288 1.514236e-07 0)
(1.2984289 7.7517822e-08 0)
(1.2984289 3.685882e-08 0)
(1.2984289 1.6427702e-08 0)
(1.2984289 7.0700771e-09 0)
(1.2984289 3.5836867e-09 0)
(1.2984289 2.576866e-09 0)
(1.2984289 2.6911214e-09 0)
(1.298429 2.9172355e-09 0)
(1.298429 3.1965461e-09 0)
(1.298429 3.1950106e-09 0)
(1.298429 3.185294e-09 0)
(1.298429 2.9814432e-09 0)
(1.298429 2.83499e-09 0)
(1.298429 2.5511406e-09 0)
(1.298429 2.3489941e-09 0)
(1.298429 2.1179479e-09 0)
(1.298429 1.8726284e-09 0)
(1.298429 1.7766693e-09 0)
(1.298429 1.3082549e-09 0)
(1.298429 1.6906957e-09 0)
(1.298429 4.951608e-10 0)
(1.298429 2.2304831e-09 0)
(1.298429 -1.2437552e-09 0)
(1.298429 4.4011459e-09 0)
(1.298429 -5.3386307e-09 0)
(1.2984291 1.0450838e-08 0)
(1.2984289 -1.5054349e-08 0)
(1.2984292 2.4708256e-08 0)
(1.2984287 -3.5728986e-08 0)
(1.2984295 5.3282132e-08 0)
(1.2984282 -7.3123057e-08 0)
(1.2984302 9.9364602e-08 0)
(1.2984273 -1.2430687e-07 0)
(1.2984314 1.4887202e-07 0)
(1.2984256 -1.5804809e-07 0)
(1.2984336 1.4756679e-07 0)
(1.2984229 -9.5216061e-08 0)
(1.2984367 -2.6236897e-09 0)
(1.2984197 1.6037044e-07 0)
(1.2984398 -3.5896398e-07 0)
(1.2984172 5.7353561e-07 0)
(1.2984413 -7.3365119e-07 0)
(1.2984171 7.643728e-07 0)
(1.2984396 -5.9803303e-07 0)
(1.2984205 1.766741e-07 0)
(1.2984349 3.7215335e-07 0)
(1.2984258 -1.0299957e-06 0)
(1.2984302 1.3056416e-06 0)
(1.2984292 -1.4325487e-06 0)
(1.2984289 6.2577227e-07 0)
(1.2984287 -3.2189963e-07 0)
(1.2984311 -9.8732206e-07 0)
(1.2984266 -2.5068006e-08 0)
(1.2984337 -1.2091731e-06 0)
(1.2984254 -1.8789029e-06 0)
(1.2984351 -1.4941437e-06 0)
(1.2984238 -3.1052371e-06 0)
(1.2984405 -3.3959995e-06 0)
(1.0014251 -0.026821681 0)
(1.0291257 -0.062788321 0)
(1.0654147 -0.07771971 0)
(1.09894 -0.080551701 0)
(1.1252701 -0.078215362 0)
(1.1449753 -0.073032172 0)
(1.1594281 -0.065893305 0)
(1.1694083 -0.057847384 0)
(1.1754704 -0.049870765 0)
(1.1784083 -0.042507842 0)
(1.1791395 -0.035976485 0)
(1.1783798 -0.030334654 0)
(1.1765962 -0.025503803 0)
(1.1741581 -0.021315764 0)
(1.1713971 -0.017626008 0)
(1.168561 -0.014365913 0)
(1.165805 -0.011508356 0)
(1.1632339 -0.00903108 0)
(1.16093 -0.0069151797 0)
(1.1589479 -0.0051492017 0)
(1.1573074 -0.0037199872 0)
(1.1559976 -0.0026021235 0)
(1.1549876 -0.0017578267 0)
(1.1542359 -0.0011426882 0)
(1.1536966 -0.00071134744 0)
(1.1533235 -0.0004211863 0)
(1.1530746 -0.00023454906 0)
(1.1529148 -0.00012031586 0)
(1.1528164 -5.4518077e-05 0)
(1.1527586 -1.9298579e-05 0)
(1.1527264 -2.2251229e-06 0)
(1.1527096 4.7045135e-06 0)
(1.1527017 6.4414609e-06 0)
(1.1526984 5.8653127e-06 0)
(1.1526975 4.5213632e-06 0)
(1.1526975 3.1439252e-06 0)
(1.152698 2.0213516e-06 0)
(1.1526984 1.2118419e-06 0)
(1.1526988 6.7723695e-07 0)
(1.1526991 3.4855982e-07 0)
(1.1526992 1.6121614e-07 0)
(1.1526994 6.2020783e-08 0)
(1.1526994 1.5065619e-08 0)
(1.1526995 -4.6529173e-09 0)
(1.1526995 -1.0081537e-08 0)
(1.1526995 -1.0003133e-08 0)
(1.1526995 -7.4419764e-09 0)
(1.1526995 -5.1713792e-09 0)
(1.1526995 -2.8827793e-09 0)
(1.1526995 -1.6940944e-09 0)
(1.1526995 -5.4640329e-10 0)
(1.1526995 -2.6332612e-10 0)
(1.1526995 2.8453491e-10 0)
(1.1526995 1.8816635e-10 0)
(1.1526995 4.8882792e-10 0)
(1.1526995 2.6165429e-10 0)
(1.1526995 5.0154279e-10 0)
(1.1526995 2.8928243e-10 0)
(1.1526995 4.3290282e-10 0)
(1.1526995 3.2602505e-10 0)
(1.1526995 2.5151636e-10 0)
(1.1526995 5.6746153e-10 0)
(1.1526995 -2.8235792e-10 0)
(1.1526995 1.3550635e-09 0)
(1.1526995 -1.7806951e-09 0)
(1.1526995 3.8036652e-09 0)
(1.1526995 -5.8784666e-09 0)
(1.1526996 1.0324419e-08 0)
(1.1526995 -1.6169269e-08 0)
(1.1526997 2.6104656e-08 0)
(1.1526993 -3.9346967e-08 0)
(1.1526998 5.9322005e-08 0)
(1.1526991 -8.4302755e-08 0)
(1.1527003 1.1766486e-07 0)
(1.1526984 -1.539696e-07 0)
(1.1527011 1.9343419e-07 0)
(1.1526973 -2.2269693e-07 0)
(1.1527027 2.3392506e-07 0)
(1.1526953 -2.0386767e-07 0)
(1.1527049 1.1769564e-07 0)
(1.1526928 4.5015933e-08 0)
(1.1527076 -2.8442913e-07 0)
(1.1526904 5.8229751e-07 0)
(1.1527095 -8.810591e-07 0)
(1.1526894 1.0776664e-06 0)
(1.1527093 -1.0807903e-06 0)
(1.1526908 7.4598965e-07 0)
(1.1527067 -1.5862909e-07 0)
(1.1526942 -7.4491683e-07 0)
(1.1527032 1.3796014e-06 0)
(1.152697 -1.9864239e-06 0)
(1.1527014 1.3857946e-06 0)
(1.1526977 -1.1881356e-06 0)
(1.1527016 -6.7107995e-07 0)
(1.1526968 -2.6255639e-07 0)
(1.1527024 -1.7909182e-06 0)
(1.1526951 -2.1493879e-06 0)
(1.1527032 -2.3180875e-06 0)
(1.1526913 -4.494357e-06 0)
(1.1527066 -5.0131721e-06 0)
(1.00166 -0.053817487 0)
(1.0359757 -0.10128359 0)
(1.0597145 -0.11072143 0)
(1.0628931 -0.10588633 0)
(1.0515609 -0.096176961 0)
(1.0340846 -0.083822184 0)
(1.014415 -0.070124325 0)
(0.99387857 -0.056719813 0)
(0.97333936 -0.04477662 0)
(0.95374893 -0.034723678 0)
(0.93583896 -0.026588553 0)
(0.91993298 -0.020221061 0)
(0.90608216 -0.015330299 0)
(0.89424104 -0.011570084 0)
(0.88432386 -0.0086590263 0)
(0.87618883 -0.0064083814 0)
(0.86965377 -0.0046792685 0)
(0.86452085 -0.0033571754 0)
(0.86059009 -0.0023541786 0)
(0.85766099 -0.0016061845 0)
(0.85554141 -0.0010623612 0)
(0.85405483 -0.00067846126 0)
(0.85304677 -0.00041571164 0)
(0.85238763 -0.00024169806 0)
(0.85197434 -0.00013094202 0)
(0.85172744 -6.3987687e-05 0)
(0.85158831 -2.6063731e-05 0)
(0.85151542 -6.2439143e-06 0)
(0.85148143 3.1392404e-06 0)
(0.85146896 6.5572275e-06 0)
(0.851467 6.7459354e-06 0)
(0.85146928 5.5696253e-06 0)
(0.85147274 4.068906e-06 0)
(0.85147598 2.7252268e-06 0)
(0.85147853 1.6980617e-06 0)
(0.85148033 9.8786767e-07 0)
(0.8514815 5.3296762e-07 0)
(0.85148221 2.6129764e-07 0)
(0.85148262 1.100756e-07 0)
(0.85148283 3.2901194e-08 0)
(0.85148293 -3.2394546e-09 0)
(0.85148297 -1.6785546e-08 0)
(0.85148299 -1.8710906e-08 0)
(0.85148298 -1.5815753e-08 0)
(0.85148298 -1.2019708e-08 0)
(0.85148297 -8.3360949e-09 0)
(0.85148298 -5.7175058e-09 0)
(0.85148297 -3.6738109e-09 0)
(0.85148297 -2.5279756e-09 0)
(0.85148297 -1.6213599e-09 0)
(0.85148297 -1.2542e-09 0)
(0.85148297 -8.1781099e-10 0)
(0.85148297 -7.3138488e-10 0)
(0.85148297 -4.8009953e-10 0)
(0.85148298 -5.057085e-10 0)
(0.85148297 -2.8466786e-10 0)
(0.85148298 -3.4241501e-10 0)
(0.85148297 -1.4481063e-10 0)
(0.85148298 -2.7275445e-10 0)
(0.85148297 -1.3720291e-11 0)
(0.85148298 -2.6549644e-10 0)
(0.85148298 1.7452673e-10 0)
(0.85148298 -4.9837768e-10 0)
(0.85148298 6.5982024e-10 0)
(0.85148298 -1.2494607e-09 0)
(0.85148298 2.0226575e-09 0)
(0.85148297 -3.5093718e-09 0)
(0.85148299 5.7808266e-09 0)
(0.85148295 -9.3989584e-09 0)
(0.85148302 1.5184742e-08 0)
(0.8514829 -2.3414698e-08 0)
(0.8514831 3.6080407e-08 0)
(0.85148278 -5.2588767e-08 0)
(0.85148329 7.5948691e-08 0)
(0.85148251 -1.0347656e-07 0)
(0.85148368 1.3694191e-07 0)
(0.85148196 -1.6965563e-07 0)
(0.85148441 1.9748786e-07 0)
(0.85148103 -2.0786029e-07 0)
(0.85148557 1.8704438e-07 0)
(0.85147967 -1.1907402e-07 0)
(0.85148707 -1.0554857e-08 0)
(0.85147812 2.0376118e-07 0)
(0.85148853 -4.5304048e-07 0)
(0.85147692 7.0506332e-07 0)
(0.85148931 -9.1655629e-07 0)
(0.85147664 9.488047e-07 0)
(0.85148903 -8.1315687e-07 0)
(0.85147731 3.1337528e-07 0)
(0.85148803 2.0764703e-07 0)
(0.85147826 -1.0518515e-06 0)
(0.85148694 1.1815662e-06 0)
(0.85147889 -1.7062354e-06 0)
(0.85148576 3.9792783e-07 0)
(0.85147901 -1.1029149e-06 0)
(0.85148414 -1.4245371e-06 0)
(0.85147728 -1.7959405e-06 0)
(0.85148219 -2.6206512e-06 0)
(0.85147102 -4.3845081e-06 0)
(0.85148165 -5.073706e-06 0)
(0.91891016 -0.035822113 0)
(0.86271249 -0.062194438 0)
(0.78706395 -0.062500506 0)
(0.69537933 -0.05454015 0)
(0.61094571 -0.044500898 0)
(0.5442478 -0.033925548 0)
(0.49369534 -0.024062051 0)
(0.45518825 -0.016002483 0)
(0.42600206 -0.010042417 0)
(0.40430824 -0.0059348519 0)
(0.38843409 -0.0032996191 0)
(0.37685333 -0.0017372217 0)
(0.36835026 -0.00087111638 0)
(0.36205155 -0.00041640358 0)
(0.35735684 -0.00019728887 0)
(0.35384708 -0.00010800372 0)
(0.35122592 -7.9848185e-05 0)
(0.34927937 -7.2814712e-05 0)
(0.34785341 -6.986005e-05 0)
(0.34683124 -6.5631453e-05 0)
(0.34611855 -5.8817475e-05 0)
(0.34563662 -4.9898653e-05 0)
(0.34532174 -3.9964187e-05 0)
(0.34512401 -3.0180033e-05 0)
(0.34500589 -2.1560844e-05 0)
(0.34493966 -1.4684593e-05 0)
(0.34490568 -9.5900195e-06 0)
(0.34489068 -5.9512691e-06 0)
(0.34488587 -3.1761843e-06 0)
(0.34488562 -1.3415537e-06 0)
(0.34488721 -4.2773963e-07 0)
(0.34488936 -4.5436684e-08 0)
(0.34489136 8.2023759e-08 0)
(0.34489292 1.0243912e-07 0)
(0.34489401 8.5829218e-08 0)
(0.34489471 6.2119661e-08 0)
(0.34489512 4.0745474e-08 0)
(0.34489535 2.5168234e-08 0)
(0.34489547 1.4346167e-08 0)
(0.34489552 7.7501193e-09 0)
(0.34489553 2.6672895e-09 0)
(0.34489553 -2.4609098e-10 0)
(0.34489553 -1.7464441e-09 0)
(0.34489552 -1.6944377e-09 0)
(0.34489551 -1.6739576e-09 0)
(0.34489551 -1.1655561e-09 0)
(0.34489551 -1.075294e-09 0)
(0.34489551 -6.5290499e-10 0)
(0.3448955 -6.9748544e-10 0)
(0.3448955 -3.8112021e-10 0)
(0.3448955 -4.8605097e-10 0)
(0.3448955 -2.0070001e-10 0)
(0.3448955 -3.5978606e-10 0)
(0.3448955 -1.0710226e-10 0)
(0.3448955 -2.7209807e-10 0)
(0.3448955 -1.5042711e-11 0)
(0.3448955 -2.1623105e-10 0)
(0.3448955 2.1224276e-11 0)
(0.3448955 -1.8529222e-10 0)
(0.3448955 6.41316e-11 0)
(0.3448955 -1.9060629e-10 0)
(0.3448955 9.0358213e-11 0)
(0.3448955 -2.3884698e-10 0)
(0.3448955 2.1204187e-10 0)
(0.3448955 -4.1935175e-10 0)
(0.3448955 5.2197558e-10 0)
(0.3448955 -9.4350175e-10 0)
(0.3448955 1.4611356e-09 0)
(0.34489549 -2.3567623e-09 0)
(0.34489551 3.811699e-09 0)
(0.34489548 -5.8328407e-09 0)
(0.34489553 9.2095059e-09 0)
(0.34489546 -1.3427067e-08 0)
(0.34489557 1.9912566e-08 0)
(0.3448954 -2.7616523e-08 0)
(0.34489566 3.7701469e-08 0)
(0.34489528 -4.8705913e-08 0)
(0.34489582 5.9592902e-08 0)
(0.34489506 -6.8814144e-08 0)
(0.34489609 7.118054e-08 0)
(0.34489474 -6.5169445e-08 0)
(0.34489646 4.2685894e-08 0)
(0.34489434 -4.7261638e-09 0)
(0.34489686 -5.4168452e-08 0)
(0.34489395 1.2172168e-07 0)
(0.34489719 -2.0363175e-07 0)
(0.34489367 2.5312418e-07 0)
(0.34489739 -3.0709692e-07 0)
(0.34489346 2.5462935e-07 0)
(0.34489749 -2.4166307e-07 0)
(0.34489322 2.4187108e-08 0)
(0.34489749 -5.4385842e-08 0)
(0.34489282 -3.811561e-07 0)
(0.34489707 -1.9257622e-08 0)
(0.34489206 -9.0551115e-07 0)
(0.34489557 -3.6840876e-07 0)
(0.34489028 -1.5678238e-06 0)
(0.34489178 -1.367832e-06 0)
(0.34488506 -1.9341352e-06 0)
(0.34488516 -2.2096044e-06 0)
)
;

boundaryField
{
    top
    {
        type            fixedValue;
        value           uniform (0 0 0);
    }
    inlet
    {
        type            fixedValue;
        value           uniform (1 0 0);
    }
    outlet
    {
        type            zeroGradient;
    }
    bottom
    {
        type            fixedValue;
        value           uniform (0 0 0);
    }
    back
    {
        type            empty;
    }
    front
    {
        type            empty;
    }
}


// ************************************************************************* //
