/*--------------------------------*- C++ -*----------------------------------*\
| =========                 |                                                 |
| \\      /  F ield         | OpenFOAM: The Open Source CFD Toolbox           |
|  \\    /   O peration     | Version:  2112                                  |
|   \\  /    A nd           | Website:  www.openfoam.com                      |
|    \\/     M anipulation  |                                                 |
\*---------------------------------------------------------------------------*/
FoamFile
{
    version     2.0;
    format      ascii;
    arch        "LSB;label=32;scalar=64";
    class       surfaceScalarField;
    location    "60";
    object      phi;
}
// * * * * * * * * * * * * * * * * * * * * * * * * * * * * * * * * * * * * * //

dimensions      [0 3 -1 0 0 0 0];

oriented        oriented;

internalField   nonuniform List<scalar> 
1890
(
0.0092501688
0.00074983134
0.0082910042
0.00095916458
0.0073621542
0.00092884985
0.0065322476
0.00082990625
0.0058250474
0.0007071999
0.0052477473
0.00057730019
0.0047933557
0.00045439209
0.0044450085
0.00034834809
0.0041822303
0.000262779
0.0039852885
0.00019694191
0.0038371829
0.00014810484
0.0037244253
0.00011275632
0.00363678
8.7644116e-05
0.0035668353
6.9944329e-05
0.0035093889
5.7447084e-05
0.0034608708
4.8519418e-05
0.003418873
4.1999039e-05
0.0033817927
3.7080965e-05
0.0033485695
3.3222977e-05
0.0033184957
3.0073065e-05
0.0032910824
2.7412231e-05
0.0032659742
2.5107572e-05
0.0032428978
2.3076158e-05
0.003221636
2.1261924e-05
0.0032020118
1.9624583e-05
0.003183876
1.8136181e-05
0.0031670963
1.677999e-05
0.0031515483
1.5548117e-05
0.0031371111
1.4437092e-05
0.0031236686
1.3442409e-05
0.0031111146
1.2553886e-05
0.0030993613
1.1753193e-05
0.003088347
1.1014221e-05
0.0030780408
1.0306038e-05
0.0030684431
9.597589e-06
0.0030595802
8.8628805e-06
0.0030514946
8.0853998e-06
0.0030442338
7.2607706e-06
0.0030378366
6.3971293e-06
0.0030323233
5.5132529e-06
0.0030276882
4.6350172e-06
0.0030238972
3.7909554e-06
0.0030208892
3.0079669e-06
0.0030185814
2.3077498e-06
0.0030168767
1.7047016e-06
0.0030156715
1.2050388e-06
0.003014864
8.0748263e-07
0.0030143594
5.0445618e-07
0.003014075
2.8429694e-07
0.003013942
1.3283504e-07
0.0030139063
3.5688165e-08
0.0030139272
-2.1064013e-08
0.0030139763
-4.9129562e-08
0.0030140349
-5.8611821e-08
0.0030140915
-5.6661777e-08
0.0030141406
-4.9106204e-08
0.0030141797
-3.9119925e-08
0.003014209
-2.9399239e-08
0.0030142296
-2.0635675e-08
0.0030142434
-1.3807672e-08
0.0030142518
-8.457913e-09
0.0030142567
-4.9114956e-09
0.003014259
-2.3092165e-09
0.0030142599
-1.0109841e-09
0.0030142598
1.1152403e-10
0.0030142596
1.4479764e-10
0.0030142588
8.0617651e-10
0.0030142586
1.132754e-10
0.0030142577
9.5022607e-10
0.0030142579
-3.1675122e-10
0.0030142568
1.0804646e-09
0.0030142577
-8.7092082e-10
0.0030142563
1.4067866e-09
0.0030142578
-1.5432541e-09
0.0030142558
2.0309386e-09
0.0030142582
-2.4461478e-09
0.0030142551
3.0539279e-09
0.0030142589
-3.7436327e-09
0.0030142543
4.629245e-09
0.0030142599
-5.6410383e-09
0.0030142529
6.9822467e-09
0.0030142612
-8.356975e-09
0.0030142509
1.0397226e-08
0.0030142629
-1.2040914e-08
0.0030142477
1.5197905e-08
0.0030142642
-1.6546231e-08
0.0030142425
2.1717529e-08
0.0030142632
-2.0737711e-08
0.0030142331
3.0199233e-08
0.0030142537
-2.0641025e-08
0.003014213
4.0789792e-08
0.0030142182
-5.2062373e-09
0.0030141642
5.3908159e-08
0.0030141122
5.186055e-08
0.0030140449
6.7261013e-08
0.0030138541
1.9092303e-07
0.0030138328
2.1332994e-08
0.0030135355
2.9743529e-07
0.0030141519
-6.1638408e-07
-5.2878192e-07
0.010379776
0.00037005524
0.010574967
0.00076397419
0.01062758
0.00087623636
0.01056664
0.00089084633
0.010429447
0.0008443923
0.010247193
0.00075955385
0.01004259
0.00065899569
0.009832614
0.00055832464
0.0096291777
0.00046621578
0.0094394474
0.00038667228
0.0092669471
0.00032060478
0.0091125619
0.00026714083
0.008975635
0.00022457045
0.0088546697
0.0001909094
0.0087478386
0.00016427858
0.0086532851
0.0001430736
0.0085692829
0.00012600188
0.0084943075
0.00011205665
0.0084270579
0.00010047249
0.0083664488
9.0681756e-05
0.0083115868
8.2273747e-05
0.0082617387
7.4955276e-05
0.008216299
6.8515743e-05
0.0081747597
6.2801299e-05
0.0081366853
5.7699196e-05
0.0081016931
5.3128587e-05
0.0080694408
4.9032433e-05
0.0080396217
4.5367278e-05
0.0080119674
4.2091311e-05
0.0079862562
3.9153575e-05
0.0079623222
3.6487814e-05
0.0079400624
3.4012893e-05
0.0079194367
3.1639848e-05
0.0079004593
2.9283399e-05
0.007883182
2.6874856e-05
0.0078676719
2.4372894e-05
0.0078539876
2.1769716e-05
0.0078421572
1.9091122e-05
0.0078321634
1.6390868e-05
0.007823936
1.3740629e-05
0.0078173529
1.1218039e-05
0.0078122489
8.8949975e-06
0.0078084283
6.8285058e-06
0.0078056811
5.0548869e-06
0.0078037976
3.5881362e-06
0.0078025813
2.42133e-06
0.0078018578
1.5309274e-06
0.0078014805
8.8170621e-07
0.007801332
4.3273841e-07
0.0078013231
1.4159996e-07
0.0078013898
-3.1043251e-08
0.0078014888
-1.200809e-07
0.007801593
-1.5336132e-07
0.0078016875
-1.5316474e-07
0.0078017655
-1.3464139e-07
0.0078018254
-1.0911285e-07
0.0078018687
-8.239838e-08
0.0078018982
-5.8929882e-08
0.007801917
-3.9389702e-08
0.0078019281
-2.4954611e-08
0.0078019339
-1.4261914e-08
0.0078019364
-7.5049567e-09
0.0078019369
-2.8418094e-09
0.0078019366
-6.6348805e-10
0.0078019356
1.0406906e-09
0.0078019348
9.6000745e-10
0.0078019338
1.7976324e-09
0.0078019333
5.9169292e-10
0.0078019325
1.7386372e-09
0.0078019325
-3.1481893e-10
0.0078019318
1.79716e-09
0.0078019322
-1.3237262e-09
0.0078019313
2.2731472e-09
0.0078019322
-2.4728457e-09
0.007801931
3.2938204e-09
0.0078019325
-3.9969362e-09
0.0078019306
5.0304576e-09
0.007801933
-6.2322197e-09
0.0078019299
7.7987321e-09
0.0078019338
-9.6267539e-09
0.0078019287
1.2131665e-08
0.0078019351
-1.4768424e-08
0.0078019266
1.8859504e-08
0.007801937
-2.2366824e-08
0.0078019229
2.9269071e-08
0.0078019394
-3.3067911e-08
0.0078019157
4.5442344e-08
0.0078019416
-4.6648152e-08
0.0078019009
7.0936954e-08
0.0078019396
-5.936282e-08
0.0078018679
1.1255953e-07
0.0078019191
-5.6492862e-08
0.0078017874
1.8556332e-07
0.0078018323
6.9843126e-09
0.0078015725
3.2699905e-07
0.0078015155
2.4797476e-07
0.007800918
6.1883599e-07
0.007800311
9.0453385e-07
0.0077984668
1.2277746e-06
2.2224319e-06
0.010194547
0.00017550815
0.010510297
0.00044822491
0.010823883
0.00056264983
0.011103867
0.00061086166
0.011333741
0.0006145181
0.011509105
0.0005841904
0.01163366
0.00053444116
0.01171499
0.00047699504
0.011761889
0.00041931684
0.011782793
0.00036576877
0.011784945
0.00031845224
0.011774165
0.00027791962
0.01175492
0.00024381527
0.011730488
0.00021534107
0.011703196
0.00019157133
0.011674642
0.0001716284
0.01164589
0.00015475418
0.011617623
0.00014032328
0.011590262
0.00012783382
0.01156405
0.00011689367
0.011539118
0.00010720497
0.011515527
9.8546342e-05
0.011493288
9.0754807e-05
0.011472378
8.3711137e-05
0.011452748
7.7329525e-05
0.011434327
7.1549014e-05
0.011417037
6.6323309e-05
0.011400796
6.1607926e-05
0.01138554
5.7347071e-05
0.011371229
5.3464349e-05
0.011357856
4.9860997e-05
0.011345446
4.6422876e-05
0.011334051
4.3034669e-05
0.011323737
3.9597442e-05
0.011314567
3.6044938e-05
0.011306586
3.235441e-05
0.011299806
2.854958e-05
0.011294202
2.4695237e-05
0.011289707
2.0885173e-05
0.011286222
1.722622e-05
0.011283618
1.3821916e-05
0.011281754
1.075856e-05
0.011280487
8.0959098e-06
0.011279679
5.8629764e-06
0.011279208
4.0589852e-06
0.011278971
2.6577991e-06
0.011278887
1.6150279e-06
0.011278894
8.7526948e-07
0.011278947
3.7963342e-07
0.011279017
7.0845762e-08
0.011279088
-1.0193391e-07
0.01127915
-1.8190314e-07
0.011279199
-2.0249051e-07
0.011279235
-1.8938218e-07
0.01127926
-1.5952891e-07
0.011279276
-1.2500158e-07
0.011279285
-9.1650389e-08
0.01127929
-6.3670801e-08
0.011279292
-4.1240272e-08
0.011279292
-2.5183429e-08
0.011279292
-1.3633243e-08
0.011279291
-6.6024141e-09
0.01127929
-1.8893283e-09
0.011279289
1.3228255e-10
0.011279288
1.6864139e-09
0.011279288
1.4129052e-09
0.011279287
2.1192242e-09
0.011279287
7.8238712e-10
0.011279287
1.8761842e-09
0.011279287
-2.8474881e-10
0.011279287
1.886755e-09
0.011279287
-1.4118762e-09
0.011279287
2.4208466e-09
0.011279287
-2.7019306e-09
0.011279287
3.6046421e-09
0.011279287
-4.4642348e-09
0.011279287
5.6708503e-09
0.011279288
-7.1608724e-09
0.011279286
9.0965855e-09
0.011279288
-1.147566e-08
0.011279285
1.4744667e-08
0.011279289
-1.8448189e-08
0.011279284
2.4087308e-08
0.011279291
-2.9645641e-08
0.011279281
3.9634917e-08
0.011279295
-4.7290144e-08
0.011279275
6.5736683e-08
0.011279302
-7.3913245e-08
0.011279263
1.1004473e-07
0.011279314
-1.1018651e-07
0.01127924
1.8660109e-07
0.01127933
-1.4679727e-07
0.011279192
3.2385828e-07
0.011279335
-1.3680798e-07
0.011279071
5.9116541e-07
0.011279219
1.0059795e-07
0.011278628
1.2098789e-06
0.01127829
1.2422232e-06
0.011276515
3.0025677e-06
5.3632085e-06
0.010101125
7.4383376e-05
0.010347883
0.00020146649
0.010645913
0.00026462006
0.010960847
0.0002959274
0.011269219
0.00030614559
0.011554367
0.00029904288
0.011807919
0.00028088875
0.012027605
0.00025731029
0.012214839
0.00023208234
0.012373016
0.00020759215
0.012506289
0.00018517868
0.012618813
0.0001653955
0.012714334
0.00014829381
0.012796027
0.00013364824
0.01286648
0.00012111836
0.01292776
0.0001103487
0.012981498
0.00010101664
0.013028974
9.2847686e-05
0.013071191
8.561634e-05
0.013108941
7.9143251e-05
0.013142855
7.3290922e-05
0.013173444
6.7957688e-05
0.013201128
6.3070864e-05
0.013226258
5.8580507e-05
0.013249134
5.4454203e-05
0.013270011
5.067133e-05
0.013289119
4.7215459e-05
0.013306662
4.4065125e-05
0.013322824
4.1185242e-05
0.013337766
3.8522276e-05
0.013351622
3.6005415e-05
0.01336449
3.3554114e-05
0.013376435
3.1090225e-05
0.013387481
2.855148e-05
0.013397623
2.5902821e-05
0.013406835
2.3142713e-05
0.013415081
2.0303153e-05
0.013422333
1.7443607e-05
0.013428577
1.4640648e-05
0.013433828
1.1975617e-05
0.013438127
9.5229404e-06
0.013441544
7.34093e-06
0.013444174
5.46638e-06
0.013446124
3.9129533e-06
0.01344751
2.6730981e-06
0.013448445
1.7221275e-06
0.013449037
1.0237972e-06
0.013449376
5.356424e-07
0.013449542
2.1419769e-07
0.013449594
1.8377339e-08
0.01344958
-8.7496822e-08
0.013449531
-1.3312308e-07
0.01344947
-1.4108187e-07
0.013449409
-1.2839006e-07
0.013449355
-1.060587e-07
0.013449312
-8.1755301e-08
0.013449279
-5.9030479e-08
0.013449256
-4.0377117e-08
0.01344924
-2.5681592e-08
0.013449231
-1.5348916e-08
0.013449225
-8.0144776e-09
0.013449222
-3.6650417e-09
0.013449221
-7.7603756e-10
0.013449221
3.7112607e-10
0.013449221
1.2748066e-09
0.013449222
1.0125362e-09
0.013449222
1.4165139e-09
0.013449222
5.2434483e-10
0.013449223
1.2059575e-09
0.013449223
-1.9628438e-10
0.013449224
1.2106657e-09
0.013449223
-9.5095585e-10
0.013449224
1.5916637e-09
0.013449223
-1.8384227e-09
0.013449224
2.4400608e-09
0.013449223
-3.0942499e-09
0.013449225
3.9476039e-09
0.013449223
-5.0850305e-09
0.013449225
6.5199969e-09
0.013449222
-8.3893917e-09
0.013449226
1.090746e-08
0.013449222
-1.3944033e-08
0.013449227
1.8424601e-08
0.013449221
-2.3257796e-08
0.013449229
3.1357532e-08
0.01344922
-3.8658348e-08
0.013449232
5.3678244e-08
0.013449222
-6.3284777e-08
0.01344924
9.2228097e-08
0.013449229
-9.9847759e-08
0.013449257
1.588891e-07
0.013449255
-1.4482896e-07
0.013449303
2.758125e-07
0.013449332
-1.6612959e-07
0.013449429
4.9505558e-07
0.013449545
-1.6232982e-08
0.013449757
9.9839658e-07
0.013450077
9.2170908e-07
0.013450537
2.5427429e-06
4.6748452e-06
0.010074384
-3.6604076e-11
0.01027585
7.6359424e-11
0.01054047
1.1085557e-10
0.010836397
7.7761495e-11
0.011142542
5.1431867e-12
0.011441585
-7.1094148e-11
0.011722474
-1.0476921e-10
0.011979785
-9.0300358e-11
0.012211868
-3.7586847e-11
0.01241946
3.2202298e-11
0.012604638
8.2093656e-11
0.012770033
1.1100664e-10
0.012918326
1.1234698e-10
0.013051974
9.2964572e-11
0.013173093
6.7074668e-11
0.013283442
2.1738216e-11
0.013384459
-2.8776095e-11
0.013477307
-9.4409086e-11
0.013562924
-1.5960784e-10
0.013642067
-2.1586346e-10
0.013715358
-2.5704797e-10
0.013783315
-2.7876288e-10
0.013846387
-2.8857548e-10
0.013904967
-2.939483e-10
0.013959422
-2.9932692e-10
0.014010094
-3.1130601e-10
0.01405731
-3.2439976e-10
0.014101375
-3.4020096e-10
0.014142561
-3.5268124e-10
0.014181083
-3.609979e-10
0.014217089
-3.6506041e-10
0.014250644
-3.6137034e-10
0.014281734
-3.5435105e-10
0.014310286
-3.3688749e-10
0.014336189
-3.1535369e-10
0.014359332
-2.8084079e-10
0.014379636
-2.4148676e-10
0.014397079
-1.9006392e-10
0.01441172
-1.3778292e-10
0.014423696
-8.037479e-11
0.014433219
-3.1042308e-11
0.01444056
1.4604757e-11
0.014446026
4.316384e-11
0.014449939
6.2947916e-11
0.014452612
6.185259e-11
0.014454334
5.4512476e-11
0.014455358
2.9165778e-11
0.014455894
5.6783796e-12
0.014456108
-2.9117505e-11
0.014456126
-5.2594387e-11
0.014456039
-8.160632e-11
0.014455906
-9.3529272e-11
0.014455765
-1.0894901e-10
0.014455637
-1.0580771e-10
0.014455531
-1.0794284e-10
0.014455449
-9.3822038e-11
0.01445539
-8.8556864e-11
0.01445535
-6.9808348e-11
0.014455324
-6.3213864e-11
0.014455309
-4.5483452e-11
0.014455301
-4.1775835e-11
0.014455298
-2.7392573e-11
0.014455297
-2.7519293e-11
0.014455297
-1.6873167e-11
0.014455298
-2.0413095e-11
0.014455299
-1.2228423e-11
0.014455301
-1.771645e-11
0.014455301
-1.1120098e-11
0.014455303
-1.7814566e-11
0.014455303
-1.1852862e-11
0.014455304
-1.9002097e-11
0.014455303
-1.3659797e-11
0.014455304
-2.1364755e-11
0.014455303
-1.6329676e-11
0.014455305
-2.425809e-11
0.014455302
-1.9628137e-11
0.014455306
-2.7788931e-11
0.014455301
-2.2817837e-11
0.014455307
-3.0341106e-11
0.014455299
-2.4408845e-11
0.01445531
-3.0939802e-11
0.014455296
-2.3661128e-11
0.014455315
-2.9593726e-11
0.014455291
-2.2721624e-11
0.014455323
-2.9789435e-11
0.014455284
-2.4621268e-11
0.014455338
-3.2964468e-11
0.014455275
-2.9264607e-11
0.014455367
-3.7741323e-11
0.014455267
-3.2457075e-11
0.014455426
-3.7314632e-11
0.014455281
-2.859368e-11
0.014455557
-2.9085932e-11
0.014455391
-2.1590023e-11
0.014455886
-2.2821487e-11
0.01445587
-2.2814969e-11
0.014456868
-2.5181011e-11
0.01445779
-2.711105e-11
0.014460333
-2.351018e-11
-2.1945631e-11
0.010074384
-7.4383461e-05
0.01027585
-0.00020146635
0.01054047
-0.00026461984
0.010836397
-0.00029592725
0.011142542
-0.00030614559
0.011441585
-0.00029904302
0.011722474
-0.00028088896
0.011979785
-0.00025731046
0.012211868
-0.00023208241
0.01241946
-0.00020759209
0.012604638
-0.00018517851
0.012770033
-0.00016539527
0.012918326
-0.00014829357
0.013051974
-0.00013364804
0.013173093
-0.00012111824
0.013283442
-0.00011034868
0.013384459
-0.00010101673
0.013477307
-9.2847902e-05
0.013562924
-8.5616663e-05
0.013642067
-7.9143662e-05
0.013715358
-7.3291391e-05
0.013783315
-6.7958191e-05
0.013846386
-6.3071385e-05
0.013904967
-5.8581042e-05
0.013959422
-5.4454756e-05
0.014010094
-5.0671909e-05
0.014057309
-4.7216064e-05
0.014101375
-4.4065759e-05
0.01414256
-4.1185897e-05
0.014181083
-3.8522947e-05
0.014217089
-3.6006089e-05
0.014250643
-3.3554784e-05
0.014281734
-3.1090878e-05
0.014310285
-2.8552105e-05
0.014336188
-2.5903403e-05
0.014359331
-2.3143237e-05
0.014379635
-2.0303604e-05
0.014397079
-1.7443969e-05
0.014411719
-1.4640916e-05
0.014423695
-1.1975786e-05
0.014433218
-9.5230188e-06
0.014440559
-7.340929e-06
0.014446026
-5.4663247e-06
0.014449939
-3.9128646e-06
0.014452612
-2.6730061e-06
0.014454334
-1.7220519e-06
0.014455358
-1.0237608e-06
0.014455893
-5.3565322e-07
0.014456108
-2.1426436e-07
0.014456126
-1.8493299e-08
0.014456039
8.7335475e-08
0.014455906
1.3293212e-07
0.014455765
1.4087075e-07
0.014455637
1.2817641e-07
0.014455531
1.0584974e-07
0.014455449
8.1564191e-08
0.01445539
5.8858627e-08
0.01445535
4.0232023e-08
0.014455324
2.555874e-08
0.014455309
1.5251179e-08
0.014455301
7.9341863e-09
0.014455297
3.6035861e-09
0.014455297
7.2484214e-10
0.014455297
-4.1068879e-10
0.014455298
-1.3103892e-09
0.0144553
-1.0414467e-09
0.014455301
-1.4454225e-09
0.014455301
-5.4987204e-10
0.014455303
-1.2337459e-09
0.014455303
1.7039208e-10
0.014455304
-1.2400005e-09
0.014455303
9.2215522e-10
0.014455304
-1.6248945e-09
0.014455303
1.8049453e-09
0.014455305
-2.4786431e-09
0.014455302
3.0545073e-09
0.014455306
-3.992704e-09
0.014455301
5.0392296e-09
0.014455307
-6.5699918e-09
0.014455299
8.3403815e-09
0.01445531
-1.0958393e-08
0.014455296
1.3896531e-08
0.014455315
-1.8472882e-08
0.014455291
2.3212244e-08
0.014455323
-3.1405947e-08
0.014455284
3.8609298e-08
0.014455338
-5.3733445e-08
0.014455274
6.3225822e-08
0.014455367
-9.2293485e-08
0.014455267
9.978275e-08
0.014455426
-1.5895447e-07
0.014455281
1.4477361e-07
0.014455557
-2.7586337e-07
0.014455391
1.6609106e-07
0.014455886
-4.9509606e-07
0.01445587
1.6190965e-08
0.014456868
-9.9844243e-07
0.01445779
-9.217596e-07
0.014460333
-2.5427931e-06
-4.6748923e-06
0.010101125
-0.00017550821
0.010347883
-0.00044822478
0.010645913
-0.00056264964
0.010960847
-0.00061086153
0.011269219
-0.0006145181
0.011554367
-0.00058419052
0.01180792
-0.00053444135
0.012027605
-0.0004769952
0.012214839
-0.0004193169
0.012373016
-0.0003657687
0.012506289
-0.00031845203
0.012618813
-0.00027791935
0.012714334
-0.00024381501
0.012796027
-0.00021534089
0.01286648
-0.00019157127
0.01292776
-0.00017162846
0.012981498
-0.00015475434
0.013028974
-0.00014032351
0.013071191
-0.00012783411
0.013108941
-0.00011689399
0.013142855
-0.00010720531
0.013173443
-9.8546699e-05
0.013201127
-9.0755184e-05
0.013226258
-8.3711541e-05
0.013249133
-7.7329954e-05
0.013270011
-7.1549471e-05
0.013289118
-6.6323789e-05
0.013306661
-6.1608426e-05
0.013322823
-5.7347586e-05
0.013337765
-5.3464873e-05
0.01335162
-4.9861524e-05
0.013364489
-4.64234e-05
0.013376433
-4.3035179e-05
0.013387479
-3.9597935e-05
0.013397621
-3.6045397e-05
0.013406833
-3.2354834e-05
0.013415079
-2.8549949e-05
0.013422331
-2.4695555e-05
0.013428575
-2.088542e-05
0.013433826
-1.7226409e-05
0.013438125
-1.3822035e-05
0.013441543
-1.0758633e-05
0.013444172
-8.0959319e-06
0.013446123
-5.8629821e-06
0.013447509
-4.058972e-06
0.013448445
-2.6578041e-06
0.013449036
-1.6150439e-06
0.013449376
-8.7532862e-07
0.013449541
-3.7971735e-07
0.013449594
-7.0978287e-08
0.013449579
1.0178187e-07
0.013449531
1.8171412e-07
0.013449469
2.0230038e-07
0.013449408
1.8917429e-07
0.013449355
1.5933973e-07
0.013449312
1.2481089e-07
0.013449279
9.1491994e-08
0.013449256
6.3518886e-08
0.01344924
4.1124718e-08
0.01344923
2.507402e-08
0.013449225
1.3557808e-08
0.013449222
6.5282365e-09
0.013449221
1.8434186e-09
0.013449221
-1.8297088e-10
0.013449221
-1.7139859e-09
0.013449222
-1.4499809e-09
0.013449222
-2.1372676e-09
0.013449222
-8.1311411e-10
0.013449223
-1.8901082e-09
0.013449223
2.5635831e-10
0.013449224
-1.9001375e-09
0.013449223
1.3827166e-09
0.013449224
-2.4360525e-09
0.013449223
2.6700152e-09
0.013449224
-3.6238575e-09
0.013449223
4.4275511e-09
0.013449225
-5.6950468e-09
0.013449223
7.11941e-09
0.013449225
-9.1248012e-09
0.013449222
1.143157e-08
0.013449226
-1.4773058e-08
0.013449221
1.8405823e-08
0.013449227
-2.4113084e-08
0.013449221
2.960563e-08
0.013449229
-3.9660554e-08
0.01344922
4.7247466e-08
0.013449232
-6.5769877e-08
0.013449222
7.3860117e-08
0.01344924
-1.1008895e-07
0.013449229
1.1012705e-07
0.013449257
-1.8664233e-07
0.013449255
1.4675083e-07
0.013449303
-3.2388158e-07
0.013449332
1.3677939e-07
0.013449428
-5.9118517e-07
0.013449545
-1.006276e-07
0.013449757
-1.209914e-06
0.013450077
-1.2422733e-06
0.013450537
-3.0026157e-06
-5.3632526e-06
0.010194547
-0.00037005529
0.010510296
-0.0007639741
0.010823883
-0.00087623624
0.011103867
-0.00089084626
0.011333741
-0.00084439233
0.011509105
-0.00075955393
0.01163366
-0.00065899579
0.01171499
-0.00055832471
0.011761889
-0.00046621575
0.011782792
-0.00038667219
0.011784945
-0.00032060461
0.011774165
-0.00026714066
0.01175492
-0.00022457033
0.011730488
-0.00019090934
0.011703196
-0.0001642786
0.011674641
-0.00014307365
0.01164589
-0.00012600195
0.011617623
-0.00011205673
0.011590262
-0.0001004726
0.011564049
-9.0681917e-05
0.011539118
-8.227395e-05
0.011515526
-7.4955521e-05
0.011493287
-6.8516006e-05
0.011472377
-6.2801561e-05
0.011452747
-5.7699455e-05
0.011434326
-5.312884e-05
0.011417035
-4.9032695e-05
0.011400794
-4.5367557e-05
0.011385538
-4.2091611e-05
0.011371227
-3.9153897e-05
0.011357854
-3.6488146e-05
0.011345444
-3.4013235e-05
0.011334049
-3.164018e-05
0.011323735
-2.9283727e-05
0.011314565
-2.6875161e-05
0.011306583
-2.4373186e-05
0.011299803
-2.176998e-05
0.011294199
-1.9091368e-05
0.011289705
-1.6391081e-05
0.011286219
-1.374082e-05
0.011283615
-1.1218195e-05
0.011281752
-8.8951338e-06
0.011280485
-6.8286104e-06
0.011279677
-5.0549824e-06
0.011279206
-3.5882101e-06
0.01127897
-2.4214127e-06
0.011278886
-1.5310022e-06
0.011278892
-8.8180618e-07
0.011278946
-4.3283912e-07
0.011279016
-1.4173391e-07
0.011279087
3.0908635e-08
0.011279149
1.1991597e-07
0.011279198
1.5320475e-07
0.011279235
1.5298743e-07
0.01127926
1.3448412e-07
0.011279276
1.0894526e-07
0.011279285
8.2260768e-08
0.01127929
5.8788125e-08
0.011279292
3.9282212e-08
0.011279292
2.4844249e-08
0.011279291
1.4185921e-08
0.01127929
7.4234095e-09
0.011279289
2.7915119e-09
0.011279289
6.0385473e-10
0.011279288
-1.0722211e-09
0.011279288
-1.0046391e-09
0.011279287
-1.8173002e-09
0.011279287
-6.2699369e-10
0.011279287
-1.7507279e-09
0.011279287
2.8511944e-10
0.011279287
-1.8054116e-09
0.011279287
1.2966546e-09
0.011279287
-2.2796996e-09
0.011279287
2.4461708e-09
0.011279287
-3.3013215e-09
0.011279287
3.9685287e-09
0.011279287
-5.0399283e-09
0.011279288
6.2014443e-09
0.011279286
-7.8102673e-09
0.011279288
9.5948967e-09
0.011279285
-1.2142396e-08
0.011279289
1.473853e-08
0.011279284
-1.886769e-08
0.011279291
2.2339826e-08
0.011279281
-2.9276137e-08
0.011279295
3.3039398e-08
0.011279275
-4.5456212e-08
0.011279302
4.6609614e-08
0.011279263
-7.095956e-08
0.011279314
5.9322774e-08
0.01127924
-1.1257409e-07
0.01127933
5.6469456e-08
0.011279192
-1.85566e-07
0.011279335
-7.0003473e-09
0.011279071
-3.270085e-07
0.011279218
-2.4798894e-07
0.011278627
-6.188591e-07
0.01127829
-9.0455463e-07
0.011276515
-1.2277974e-06
-2.2224526e-06
0.010379776
-0.00074983139
0.010574967
-0.0009591646
0.01062758
-0.00092884989
0.01056664
-0.00082990632
0.010429447
-0.00070719991
0.010247193
-0.0005773001
0.01004259
-0.0004543919
0.0098326141
-0.00034834784
0.0096291778
-0.00026277883
0.0094394475
-0.00019694188
0.0092669471
-0.00014810501
0.0091125619
-0.00011275662
0.0089756349
-8.7644419e-05
0.0088546695
-6.9944504e-05
0.0087478384
-5.7447004e-05
0.0086532849
-4.8519134e-05
0.0085692827
-4.1998651e-05
0.0084943074
-3.708065e-05
0.0084270577
-3.3222877e-05
0.0083664486
-3.0073198e-05
0.0083115864
-2.7412548e-05
0.0082617382
-2.5107936e-05
0.0082162983
-2.307645e-05
0.0081747588
-2.1262089e-05
0.0081366842
-1.9624612e-05
0.0081016918
-1.8136147e-05
0.0080694393
-1.6779944e-05
0.0080396201
-1.5548122e-05
0.0080119657
-1.4437158e-05
0.0079862544
-1.3442533e-05
0.0079623203
-1.2554044e-05
0.0079400604
-1.1753361e-05
0.0079194347
-1.1014388e-05
0.0079004572
-1.0306191e-05
0.0078831798
-9.5977373e-06
0.0078676697
-8.8630179e-06
0.0078539853
-8.0855387e-06
0.0078421549
-7.2609028e-06
0.0078321611
-6.3972616e-06
0.0078239338
-5.5133752e-06
0.0078173508
-4.6351347e-06
0.0078122468
-3.7910594e-06
0.0078084264
-3.0080672e-06
0.0078056794
-2.307837e-06
0.0078037961
-1.704792e-06
0.0078025799
-1.2051181e-06
0.0078018566
-8.0757246e-07
0.0078014794
-5.0453579e-07
0.007801331
-2.8439177e-07
0.0078013223
-1.3291858e-07
0.007801389
-3.5787923e-08
0.0078014881
2.097785e-08
0.0078015923
4.9028343e-08
0.0078016868
5.8527068e-08
0.0078017648
5.6564121e-08
0.0078018248
4.9027565e-08
0.0078018681
3.9030093e-08
0.0078018977
2.9330428e-08
0.0078019164
2.05567e-08
0.0078019276
1.3750717e-08
0.0078019334
8.3906843e-09
0.007801936
4.8665782e-09
0.0078019366
2.2534819e-09
0.0078019363
9.7719941e-10
0.0078019353
-1.5717385e-10
0.0078019346
-1.6906434e-10
0.0078019336
-8.4316524e-10
0.0078019331
-1.2965588e-10
0.0078019323
-9.8033068e-10
0.0078019324
3.0648567e-10
0.0078019316
-1.1051482e-09
0.0078019321
8.6518255e-10
0.0078019312
-1.4278064e-09
0.0078019322
1.5403013e-09
0.0078019309
-2.0498341e-09
0.0078019325
2.4445019e-09
0.0078019305
-3.0722877e-09
0.007801933
3.7422816e-09
0.0078019298
-4.6477262e-09
0.0078019338
5.6397193e-09
0.0078019286
-7.0009788e-09
0.0078019351
8.3559326e-09
0.0078019266
-1.0414707e-08
0.0078019369
1.2041246e-08
0.0078019228
-1.5213356e-08
0.0078019393
1.6547037e-08
0.0078019155
-2.1733049e-08
0.0078019414
2.0740149e-08
0.0078019007
-3.0209382e-08
0.0078019395
2.0654213e-08
0.0078018678
-4.0794972e-08
0.007801919
5.2115752e-09
0.0078017873
-5.3938931e-08
0.0078018321
-5.1884567e-08
0.0078015723
-6.7293029e-08
0.0078015152
-1.9092405e-07
0.0078009177
-2.1315129e-08
0.0078003107
-2.9740104e-07
0.0077984666
6.1641485e-07
5.287883e-07
0.0092501686
0.0082910038
0.0073621537
0.0065322472
0.0058250473
0.0052477477
0.0047933565
0.0044450093
0.0041822306
0.0039852882
0.0038371822
0.0037244245
0.0036367795
0.0035668352
0.0035093889
0.0034608708
0.003418873
0.0033817926
0.0033485695
0.0033184957
0.0032910825
0.0032659741
0.0032428976
0.0032216356
0.0032020113
0.0031838754
0.0031670956
0.0031515476
0.0031371105
0.003123668
0.0031111139
0.0030993606
0.0030883462
0.00307804
0.0030684423
0.0030595793
0.0030514938
0.0030442329
0.0030378357
0.0030323224
0.0030276874
0.0030238964
0.0030208885
0.0030185807
0.003016876
0.0030156709
0.0030148634
0.0030143589
0.0030140746
0.0030139417
0.003013906
0.003013927
0.0030139761
0.0030140346
0.0030140913
0.0030141403
0.0030141794
0.0030142088
0.0030142294
0.0030142432
0.0030142516
0.0030142565
0.0030142588
0.0030142598
0.0030142596
0.0030142595
0.0030142587
0.0030142585
0.0030142576
0.0030142579
0.0030142568
0.0030142576
0.0030142562
0.0030142578
0.0030142557
0.0030142582
0.0030142551
0.0030142589
0.0030142542
0.0030142599
0.0030142529
0.0030142612
0.0030142508
0.0030142628
0.0030142476
0.0030142641
0.0030142424
0.0030142632
0.0030142331
0.0030142538
0.003014213
0.0030142181
0.0030141641
0.0030141121
0.0030140448
0.003013854
0.0030138327
0.0030135354
0.0030141519
)
;

boundaryField
{
    top
    {
        type            calculated;
        value           uniform 0;
    }
    inlet
    {
        type            calculated;
        value           nonuniform List<scalar> 10(-0.01 -0.01 -0.01 -0.01 -0.01 -0.01 -0.01 -0.01 -0.01 -0.01);
    }
    outlet
    {
        type            calculated;
        value           nonuniform List<scalar> 10(0.0030146807 0.0077957156 0.011273374 0.013451226 0.014465008 0.014465007 0.013451225 0.011273374 0.0077957154 0.0030146807);
    }
    bottom
    {
        type            calculated;
        value           uniform 0;
    }
    back
    {
        type            empty;
        value           nonuniform List<scalar> 0();
    }
    front
    {
        type            empty;
        value           nonuniform List<scalar> 0();
    }
}


// ************************************************************************* //
