/*--------------------------------*- C++ -*----------------------------------*\
| =========                 |                                                 |
| \\      /  F ield         | OpenFOAM: The Open Source CFD Toolbox           |
|  \\    /   O peration     | Version:  v1812                                 |
|   \\  /    A nd           | Web:      www.OpenFOAM.com                      |
|    \\/     M anipulation  |                                                 |
\*---------------------------------------------------------------------------*/
FoamFile
{
    version     2.0;
    format      ascii;
    class       volScalarField;
    location    "10.1";
    object      p;
}
// * * * * * * * * * * * * * * * * * * * * * * * * * * * * * * * * * * * * * //

dimensions      [0 2 -2 0 0 0 0];


internalField   nonuniform List<scalar> 
1000
(
1.6755766
1.5544987
1.4585182
1.3948621
1.3463526
1.3038805
1.2663453
1.2341736
1.2067732
1.1829356
1.1615413
1.1417775
1.1231003
1.1051608
1.0877455
1.0707313
1.0540504
1.0376662
1.021558
1.0057121
0.99011712
0.97476201
0.95963532
0.94472508
0.93001908
0.91550509
0.90117113
0.88700562
0.87299756
0.85913656
0.84541284
0.83181729
0.8183414
0.80497723
0.7917174
0.77855503
0.76548373
0.75249753
0.73959086
0.72675854
0.71399573
0.70129792
0.68866088
0.67608066
0.66355358
0.65107619
0.63864526
0.62625778
0.61391093
0.60160207
0.58932874
0.57708863
0.5648796
0.55269962
0.54054679
0.52841936
0.51631566
0.50423415
0.49217338
0.48013199
0.46810873
0.45610243
0.44411197
0.43213633
0.42017453
0.40822567
0.39628889
0.3843634
0.37244845
0.36054336
0.3486475
0.33676028
0.32488113
0.31300952
0.30114497
0.289287
0.27743517
0.26558909
0.25374839
0.24191272
0.23008179
0.21825531
0.20643298
0.19461456
0.18279977
0.17098839
0.15918019
0.14737499
0.1355726
0.12377286
0.11197562
0.10018072
0.088388004
0.076597335
0.064808561
0.053021568
0.041236236
0.029452433
0.017670206
0.0058891128
1.5583569
1.5034278
1.4424753
1.3909076
1.3476376
1.3086693
1.273083
1.2413104
1.2133495
1.1885716
1.1661697
1.1454684
1.1259868
1.1073987
1.0894851
1.0721004
1.0551486
1.0385671
1.0223145
1.006361
0.99068393
0.9752644
0.96008555
0.94513189
0.93038884
0.91584263
0.90148022
0.88728935
0.87325851
0.85937692
0.84563455
0.83202204
0.81853069
0.80515241
0.79187966
0.77870546
0.76562328
0.75262708
0.7397112
0.72687039
0.71409975
0.70139468
0.68875093
0.67616451
0.66363167
0.65114894
0.63871306
0.62632098
0.61396984
0.601657
0.58937997
0.57713642
0.56492417
0.5527412
0.5405856
0.52845557
0.51634946
0.5042657
0.49220282
0.48015948
0.46813439
0.45612638
0.44413433
0.4321572
0.42019402
0.40824387
0.39630589
0.38437927
0.37246328
0.36055721
0.34866043
0.33677234
0.32489238
0.31302002
0.30115477
0.28929615
0.27744372
0.26559706
0.25375582
0.24191964
0.23008822
0.21826128
0.20643852
0.1946197
0.18280454
0.17099281
0.15918429
0.14737877
0.13557607
0.12377604
0.11197852
0.10018336
0.088390404
0.076599515
0.064810532
0.053023326
0.041237815
0.029453746
0.01767135
0.005889624
1.4975356
1.4713605
1.4329637
1.3918308
1.3527455
1.3161547
1.2818571
1.2501395
1.2212834
1.1951824
1.1714284
1.1495384
1.1290885
1.1097476
1.0912675
1.0734665
1.0562146
1.039419
1.0230129
1.0069478
0.99118744
0.97570375
0.96047388
0.94547839
0.93070012
0.91612364
0.90173481
0.88752064
0.87346909
0.85956903
0.8458101
0.83218272
0.81867798
0.80528763
0.79200397
0.7788199
0.76572877
0.75272442
0.73980112
0.72695354
0.7141767
0.70146596
0.68881701
0.6762258
0.66368857
0.65120179
0.63876217
0.62636664
0.61401231
0.60169652
0.58941675
0.57717066
0.56495606
0.5527709
0.54061327
0.52848137
0.51637351
0.50428812
0.49222374
0.48017898
0.46815258
0.45614334
0.44415015
0.43217196
0.42020779
0.40825673
0.39631789
0.38439048
0.37247374
0.36056698
0.34866955
0.33678084
0.32490031
0.31302742
0.30116167
0.2893026
0.27744974
0.2656027
0.25376108
0.24192455
0.23009279
0.21826552
0.20644247
0.19462336
0.18280795
0.17099599
0.15918724
0.14738151
0.13557861
0.12377838
0.11198066
0.10018533
0.088392192
0.076601153
0.064812007
0.053024656
0.041238947
0.029454687
0.017671909
0.0058899628
1.4681271
1.452629
1.4257591
1.3918352
1.3560342
1.3210829
1.287781
1.2564279
1.2272972
1.2005058
1.1759182
1.153226
1.1320742
1.1121454
1.0931872
1.0750076
1.0574618
1.0404408
1.0238622
1.0076642
0.99180018
0.97623443
0.96093847
0.94588879
0.93106536
0.91645064
0.902029
0.88778637
0.87370992
0.8597879
0.84600953
0.83236482
0.8188446
0.80544035
0.7921442
0.77894884
0.7658475
0.7528339
0.73990218
0.72704693
0.71426308
0.70154593
0.6888911
0.6762945
0.66375231
0.65126097
0.63881714
0.62641773
0.61405982
0.60174071
0.58945787
0.57720893
0.56499169
0.55280409
0.54064418
0.52851017
0.51640036
0.50431315
0.49224708
0.48020075
0.46817288
0.45616228
0.44416781
0.43218843
0.42022316
0.40827106
0.39633127
0.38440298
0.37248541
0.36057788
0.34867972
0.33679034
0.32490917
0.31303569
0.30116939
0.28930981
0.27745648
0.265609
0.25376698
0.24193007
0.23009795
0.21827034
0.20644696
0.19462756
0.18281187
0.17099966
0.15919068
0.14738474
0.13558162
0.1237812
0.11198327
0.10018776
0.088394425
0.076603234
0.064813888
0.053026414
0.041240433
0.029456071
0.017672796
0.0058908832
1.4553956
1.4434422
1.4212079
1.3909203
1.3570591
1.3230635
1.290366
1.2593604
1.230263
1.2032511
1.1783241
1.1552745
1.133793
1.1135753
1.0943718
1.0759896
1.0582807
1.0411302
1.0244493
1.0081702
0.99224121
0.97662265
0.96128314
0.94619698
0.93134253
0.91670105
0.90225608
0.88799289
0.87389819
0.8599599
0.84616693
0.83250909
0.81897703
0.80556206
0.7922562
0.77905202
0.76594266
0.75292174
0.73998335
0.727122
0.71433256
0.70161029
0.68895075
0.67634982
0.66380365
0.65130863
0.63886142
0.62645888
0.61409809
0.60177631
0.58949099
0.57723976
0.56502039
0.55283081
0.54066908
0.52853337
0.51642198
0.5043333
0.49226587
0.48021827
0.46818922
0.45617752
0.44418202
0.43220169
0.42023552
0.4082826
0.39634204
0.38441303
0.3724948
0.36058664
0.3486879
0.33679797
0.3249163
0.31304234
0.3011756
0.28931561
0.27746191
0.26561408
0.25377174
0.24193452
0.23010212
0.21827424
0.20645061
0.19463097
0.18281506
0.17100265
0.15919348
0.14738737
0.13558409
0.12378352
0.11198544
0.10018978
0.088396297
0.076604991
0.064815479
0.053027924
0.041241719
0.029457322
0.017673668
0.0058918192
1.4553956
1.4434422
1.4212079
1.3909203
1.3570591
1.3230635
1.290366
1.2593604
1.230263
1.2032511
1.1783241
1.1552745
1.133793
1.1135753
1.0943718
1.0759896
1.0582807
1.0411302
1.0244493
1.0081702
0.99224121
0.97662265
0.96128314
0.94619698
0.93134253
0.91670105
0.90225608
0.88799289
0.8738982
0.8599599
0.84616692
0.83250909
0.81897702
0.80556206
0.7922562
0.77905202
0.76594266
0.75292174
0.73998336
0.727122
0.71433256
0.70161029
0.68895075
0.67634982
0.66380364
0.65130863
0.63886142
0.62645889
0.61409809
0.60177631
0.58949099
0.57723976
0.56502039
0.55283081
0.54066908
0.52853337
0.51642198
0.50433331
0.49226587
0.48021827
0.46818922
0.45617751
0.44418202
0.43220168
0.42023552
0.4082826
0.39634204
0.38441303
0.3724948
0.36058664
0.3486879
0.33679797
0.32491629
0.31304233
0.3011756
0.28931561
0.27746192
0.26561409
0.25377175
0.24193453
0.23010212
0.21827424
0.2064506
0.19463096
0.18281506
0.17100265
0.15919349
0.14738738
0.1355841
0.12378352
0.11198544
0.10018978
0.088396292
0.076604985
0.064815472
0.053027917
0.041241709
0.029457308
0.017673651
0.00589181
1.4681271
1.452629
1.4257591
1.3918352
1.3560342
1.3210829
1.287781
1.2564279
1.2272972
1.2005058
1.1759182
1.153226
1.1320742
1.1121454
1.0931872
1.0750076
1.0574618
1.0404408
1.0238622
1.0076642
0.99180018
0.97623443
0.96093846
0.94588879
0.93106536
0.91645064
0.90202901
0.88778638
0.87370992
0.8597879
0.84600952
0.83236482
0.8188446
0.80544035
0.7921442
0.77894884
0.76584751
0.7528339
0.73990219
0.72704693
0.71426308
0.70154593
0.6888911
0.6762945
0.66375231
0.65126097
0.63881715
0.62641773
0.61405983
0.60174071
0.58945787
0.57720893
0.56499169
0.55280408
0.54064418
0.52851018
0.51640036
0.50431316
0.49224709
0.48020075
0.46817288
0.45616227
0.4441678
0.43218842
0.42022316
0.40827107
0.39633128
0.38440299
0.37248542
0.36057788
0.34867971
0.33679032
0.32490915
0.31303567
0.30116939
0.28930981
0.2774565
0.26560902
0.253767
0.24193008
0.23009796
0.21827034
0.20644695
0.19462755
0.18281187
0.17099967
0.15919069
0.14738475
0.13558164
0.12378121
0.11198327
0.10018775
0.088394413
0.076603218
0.064813873
0.053026397
0.041240413
0.029456043
0.01767276
0.0058908637
1.4975356
1.4713605
1.4329637
1.3918308
1.3527455
1.3161547
1.2818571
1.2501395
1.2212834
1.1951823
1.1714284
1.1495383
1.1290885
1.1097476
1.0912675
1.0734665
1.0562146
1.039419
1.0230129
1.0069478
0.99118743
0.97570374
0.96047388
0.94547839
0.93070013
0.91612365
0.90173482
0.88752065
0.8734691
0.85956902
0.84581009
0.83218271
0.81867798
0.80528762
0.79200398
0.7788199
0.76572877
0.75272443
0.73980113
0.72695354
0.71417669
0.70146596
0.688817
0.6762258
0.66368857
0.65120179
0.63876218
0.62636664
0.61401232
0.60169652
0.58941674
0.57717065
0.56495605
0.5527709
0.54061327
0.52848138
0.51637352
0.50428814
0.49222375
0.48017898
0.46815257
0.45614333
0.44415014
0.43217195
0.4202078
0.40825674
0.39631791
0.3843905
0.37247375
0.36056698
0.34866953
0.33678082
0.32490029
0.31302741
0.30116168
0.28930262
0.27744977
0.26560272
0.2537611
0.24192456
0.23009279
0.21826551
0.20644246
0.19462336
0.18280796
0.17099601
0.15918727
0.14738154
0.13557862
0.12377839
0.11198065
0.10018532
0.088392175
0.076601135
0.064811988
0.053024634
0.041238922
0.029454656
0.017671875
0.0058899457
1.5583569
1.5034278
1.4424753
1.3909076
1.3476376
1.3086693
1.273083
1.2413104
1.2133495
1.1885716
1.1661697
1.1454684
1.1259868
1.1073987
1.0894851
1.0721004
1.0551486
1.0385671
1.0223145
1.006361
0.99068392
0.97526439
0.96008555
0.94513189
0.93038885
0.91584264
0.90148023
0.88728935
0.8732585
0.85937692
0.84563454
0.83202203
0.81853069
0.8051524
0.79187966
0.77870546
0.76562329
0.75262709
0.73971121
0.72687039
0.71409974
0.70139467
0.68875093
0.6761645
0.66363168
0.65114895
0.63871307
0.62632098
0.61396985
0.601657
0.58937996
0.5771364
0.56492416
0.5527412
0.5405856
0.52845559
0.51634948
0.50426571
0.49220283
0.48015947
0.46813437
0.45612636
0.44413431
0.4321572
0.42019403
0.40824389
0.39630591
0.38437929
0.37246328
0.36055719
0.3486604
0.33677231
0.32489236
0.31302002
0.30115479
0.28929618
0.27744375
0.26559708
0.25375582
0.24191963
0.23008821
0.21826126
0.20643852
0.1946197
0.18280456
0.17099284
0.15918431
0.14737878
0.13557607
0.12377603
0.1119785
0.10018335
0.088390385
0.076599495
0.064810509
0.053023301
0.041237784
0.029453716
0.017671325
0.0058896134
1.6755766
1.5544987
1.4585182
1.3948621
1.3463526
1.3038805
1.2663453
1.2341736
1.2067732
1.1829356
1.1615413
1.1417775
1.1231003
1.1051608
1.0877455
1.0707313
1.0540504
1.0376662
1.021558
1.0057121
0.99011711
0.97476201
0.95963532
0.94472509
0.93001909
0.9155051
0.90117113
0.88700562
0.87299756
0.85913655
0.84541283
0.83181729
0.8183414
0.80497723
0.79171741
0.77855504
0.76548374
0.75249753
0.73959086
0.72675853
0.71399572
0.70129791
0.68866087
0.67608066
0.66355359
0.6510762
0.63864527
0.62625779
0.61391093
0.60160206
0.58932873
0.57708862
0.5648796
0.55269962
0.54054681
0.52841938
0.51631568
0.50423416
0.49217337
0.48013198
0.46810871
0.45610241
0.44411196
0.43213634
0.42017455
0.40822569
0.39628891
0.3843634
0.37244844
0.36054334
0.34864748
0.33676025
0.32488112
0.31300953
0.30114499
0.28928703
0.2774352
0.2655891
0.25374838
0.24191271
0.23008178
0.2182553
0.20643298
0.19461457
0.18279979
0.17098841
0.15918021
0.147375
0.1355726
0.12377286
0.11197561
0.10018071
0.088387987
0.076597316
0.064808538
0.053021538
0.041236204
0.029452404
0.017670185
0.0058891038
)
;

boundaryField
{
    top
    {
        type            zeroGradient;
    }
    inlet
    {
        type            zeroGradient;
    }
    outlet
    {
        type            fixedValue;
        value           uniform 0;
    }
    bottom
    {
        type            zeroGradient;
    }
    back
    {
        type            empty;
    }
    front
    {
        type            empty;
    }
}


// ************************************************************************* //
