/*--------------------------------*- C++ -*----------------------------------*\
| =========                 |                                                 |
| \\      /  F ield         | OpenFOAM: The Open Source CFD Toolbox           |
|  \\    /   O peration     | Version:  v1812                                 |
|   \\  /    A nd           | Web:      www.OpenFOAM.com                      |
|    \\/     M anipulation  |                                                 |
\*---------------------------------------------------------------------------*/
FoamFile
{
    version     2.0;
    format      ascii;
    class       surfaceScalarField;
    location    "13";
    object      phi;
}
// * * * * * * * * * * * * * * * * * * * * * * * * * * * * * * * * * * * * * //

dimensions      [0 3 -1 0 0 0 0];
oriented        oriented;


internalField   nonuniform List<scalar> 
1890
(
0.0093061957
0.00069380425
0.0082843931
0.0010218027
0.0073298986
0.0009544945
0.0064869553
0.00084294335
0.0057695845
0.00071737081
0.00518986
0.00057972443
0.0047381679
0.00045169203
0.0043951899
0.00034297798
0.0041390268
0.00025616316
0.003949107
0.00018991983
0.003807888
0.00014121899
0.0037013782
0.00010650982
0.003619058
8.2320236e-05
0.0035534117
6.564625e-05
0.0034992845
5.4127248e-05
0.0034532444
4.6040036e-05
0.0034130501
4.0194277e-05
0.0033772573
3.5792745e-05
0.0033449386
3.2318752e-05
0.0033154893
2.9449282e-05
0.0032885008
2.6988581e-05
0.0032636805
2.4820309e-05
0.003240805
2.2875489e-05
0.0032196926
2.1112425e-05
0.0032001879
1.9504661e-05
0.0031821539
1.8034017e-05
0.0031654671
1.6686725e-05
0.0031500158
1.5451358e-05
0.0031356979
1.4317856e-05
0.0031224208
1.3277065e-05
0.0031101003
1.2320588e-05
0.0030986596
1.1440719e-05
0.0030880292
1.0630438e-05
0.0030781458
9.8833706e-06
0.003068952
9.1937806e-06
0.0030603955
8.5565039e-06
0.0030524285
7.9669267e-06
0.0030450076
7.4209058e-06
0.0030380928
6.914744e-06
0.0030316477
6.445116e-06
0.0030256387
6.009042e-06
0.0030200349
5.6038339e-06
0.0030148079
5.2270636e-06
0.0030099313
4.8765357e-06
0.0030053811
4.5502561e-06
0.0030011347
4.2464121e-06
0.0029971713
3.9633563e-06
0.0029934717
3.6995746e-06
0.002990018
3.4536902e-06
0.0029867935
3.2244251e-06
0.0029837829
3.0106096e-06
0.0029809718
2.8111609e-06
0.0029783468
2.6250731e-06
0.0029758954
2.4514245e-06
0.0029736061
2.2893532e-06
0.002971468
2.1380676e-06
0.0029694711
1.9968388e-06
0.0029676061
1.8649854e-06
0.0029658641
1.7418859e-06
0.0029642371
1.6269522e-06
0.0029627175
1.5196406e-06
0.0029612981
1.419443e-06
0.0029599723
1.3258701e-06
0.0029587339
1.2384817e-06
0.0029575771
1.1568482e-06
0.0029564965
1.0805919e-06
0.0029554871
1.0093562e-06
0.0029545442
9.4281746e-07
0.0029536634
8.8067571e-07
0.0029528407
8.2264612e-07
0.0029520723
7.6845796e-07
0.0029513545
7.1785626e-07
0.002950684
6.7059253e-07
0.0029500576
6.2643289e-07
0.0029494725
5.8517118e-07
0.0029489259
5.4660199e-07
0.0029484152
5.105662e-07
0.0029479383
4.7689227e-07
0.0029474927
4.4545742e-07
0.0029470766
4.1610143e-07
0.0029466879
3.8872501e-07
0.0029463248
3.6313749e-07
0.0029459857
3.3927949e-07
0.0029456688
3.1691609e-07
0.0029453728
2.9607749e-07
0.0029450963
2.7648351e-07
0.0029448378
2.5830232e-07
0.0029445966
2.4115498e-07
0.0029443711
2.2537862e-07
0.0029441607
2.1038878e-07
0.002943964
1.968011e-07
0.0029437804
1.8366553e-07
0.0029436085
1.7195283e-07
0.0029434483
1.603576e-07
0.0029432979
1.5035756e-07
0.0029431573
1.4044075e-07
0.0029430252
1.3209087e-07
0.0029429002
1.2498916e-07
0.0029427808
1.1935788e-07
1.2568913e-07
0.010339525
0.00035427932
0.010570754
0.00079057336
0.010606301
0.00091894823
0.010547572
0.0009016714
0.010422317
0.00084262623
0.010244356
0.00075768556
0.01003942
0.00065662739
0.0098287426
0.00055365582
0.009625135
0.00045977083
0.0094353013
0.00037975357
0.0092624277
0.00031409264
0.0091075333
0.0002614043
0.008970154
0.00021969951
0.0088489023
0.00018689786
0.0087419716
0.00016105799
0.0086474926
0.00014051891
0.008563694
0.00012399293
0.0084890107
0.00011047598
0.0084221096
9.9219874e-05
0.0083618775
8.9681423e-05
0.0083073955
8.1470696e-05
0.0082579079
7.4307871e-05
0.0082127929
6.7990514e-05
0.0081715353
6.2369995e-05
0.0081337049
5.7335006e-05
0.0080989388
5.2800167e-05
0.0080669272
4.8698244e-05
0.0080374036
4.4974936e-05
0.0080101361
4.158538e-05
0.0079849213
3.8491848e-05
0.0079615798
3.5662168e-05
0.0079399519
3.3068631e-05
0.0079198952
3.0687191e-05
0.0079012817
2.8496867e-05
0.0078839962
2.6479249e-05
0.0078679345
2.4618144e-05
0.0078530022
2.2899233e-05
0.0078391132
2.1309832e-05
0.0078261893
1.9838643e-05
0.0078141588
1.8475597e-05
0.0078029563
1.7211663e-05
0.0077925214
1.6038731e-05
0.007782799
1.4949497e-05
0.0077737382
1.3937359e-05
0.0077652921
1.2996339e-05
0.0077574175
1.2121014e-05
0.0077500743
1.1306446e-05
0.0077432257
1.0548134e-05
0.0077368374
9.8419504e-06
0.0077308778
9.1841153e-06
0.0077253173
8.571141e-06
0.0077201287
7.9998131e-06
0.0077152866
7.4671789e-06
0.0077107676
6.9705018e-06
0.0077065497
6.5072689e-06
0.0077026126
6.0751561e-06
0.0076989373
5.6720221e-06
0.0076955063
5.2958951e-06
0.0076923032
4.9449343e-06
0.0076893127
4.6174392e-06
0.0076865206
4.3118144e-06
0.0076839135
4.0265555e-06
0.0076814792
3.7602762e-06
0.0076792061
3.511667e-06
0.0076770834
3.2795381e-06
0.0076751012
3.0627728e-06
0.0076732501
2.8603664e-06
0.0076715214
2.6713852e-06
0.0076699071
2.4949551e-06
0.0076683994
2.3302518e-06
0.0076669915
2.1764981e-06
0.0076656765
2.0329245e-06
0.0076644484
1.8988433e-06
0.0076633013
1.7735768e-06
0.00766223
1.6565417e-06
0.0076612293
1.5471779e-06
0.0076602947
1.4450387e-06
0.0076594218
1.3496367e-06
0.0076586066
1.2606229e-06
0.0076578452
1.1774964e-06
0.007657134
1.0999823e-06
0.0076564698
1.0275079e-06
0.0076558493
9.5990797e-07
0.0076552698
8.9654628e-07
0.0076547283
8.3749416e-07
0.0076542227
7.8200266e-07
0.0076537503
7.3055749e-07
0.0076533092
6.8204472e-07
0.0076528971
6.3749653e-07
0.0076525125
5.9503889e-07
0.0076521528
5.5665805e-07
0.0076518173
5.1924013e-07
0.007651503
4.8638966e-07
0.0076512106
4.5284224e-07
0.0076509355
4.2536686e-07
0.0076506806
3.9504263e-07
0.0076504385
3.7406603e-07
0.0076502166
3.4697393e-07
0.0076500001
3.3601599e-07
3.1064322e-07
0.010188704
0.00016557516
0.010530487
0.00044879101
0.010851453
0.00059798178
0.011124174
0.00062895024
0.011350581
0.00061621884
0.011524486
0.00058378052
0.01164633
0.00053478418
0.011724155
0.00047583049
0.011767999
0.00041592668
0.011786639
0.00036111403
0.011787114
0.00031361715
0.011775058
0.00027346028
0.011754861
0.00023989718
0.011729768
0.0002119903
0.011702054
0.00018877258
0.011673239
0.00016933385
0.011644339
0.00015289294
0.011616003
0.00013881182
0.011588629
0.0001265938
0.011562446
0.00011586447
0.011537572
0.00010634497
0.011514052
9.7827023e-05
0.011491889
9.0153374e-05
0.011471056
8.3203364e-05
0.011451509
7.6882599e-05
0.011433193
7.1115536e-05
0.011416051
6.5840269e-05
0.011400021
6.1004891e-05
0.011385042
5.6565064e-05
0.011371051
5.2482346e-05
0.01135799
4.8723048e-05
0.011345801
4.5257414e-05
0.01133443
4.205902e-05
0.011323822
3.9104288e-05
0.011313929
3.6372127e-05
0.011304704
3.3843595e-05
0.011296101
3.1501669e-05
0.01128808
2.9330987e-05
0.011280601
2.7317677e-05
0.011273628
2.5449168e-05
0.011267125
2.3714059e-05
0.011261062
2.210198e-05
0.011255408
2.0603488e-05
0.011250135
1.9209979e-05
0.011245218
1.7913587e-05
0.011240632
1.6707113e-05
0.011236354
1.5583965e-05
0.011232364
1.4538083e-05
0.011228643
1.3563903e-05
0.01122517
1.2656282e-05
0.011221931
1.1810484e-05
0.011218909
1.1022131e-05
0.011216089
1.0287165e-05
0.011213457
9.6018604e-06
0.011211002
8.9627513e-06
0.01120871
8.3666445e-06
0.011206572
7.8105892e-06
0.011204576
7.2918445e-06
0.011202713
6.8078771e-06
0.011200974
6.3563125e-06
0.011199351
5.9349407e-06
0.011197836
5.5417009e-06
0.011196422
5.1746555e-06
0.011195101
4.8320385e-06
0.011193868
4.5121901e-06
0.011192717
4.2135906e-06
0.011191643
3.9348264e-06
0.01119064
3.6745845e-06
0.011189703
3.4316569e-06
0.011188829
3.2048772e-06
0.011188012
2.9931635e-06
0.01118725
2.7954892e-06
0.011186537
2.6108923e-06
0.011185872
2.4384591e-06
0.011185252
2.2774117e-06
0.011184672
2.1269586e-06
0.01118413
1.9864914e-06
0.011183625
1.8553052e-06
0.011183152
1.7329011e-06
0.011182711
1.6185629e-06
0.0111823
1.5119106e-06
0.011181915
1.4121565e-06
0.011181556
1.3191542e-06
0.01118122
1.2319535e-06
0.011180907
1.1508311e-06
0.011180614
1.0745412e-06
0.011180341
1.0039901e-06
0.011180086
9.3722161e-07
0.011179847
8.7618412e-07
0.011179625
8.175402e-07
0.011179416
7.650801e-07
0.011179222
7.1286476e-07
0.01117904
6.6854703e-07
0.011178872
6.2127767e-07
0.011178712
5.8512294e-07
0.011178566
5.4078508e-07
0.011178425
5.1500242e-07
0.0111783
4.7221015e-07
0.011178177
4.5909367e-07
4.159842e-07
0.010097182
6.8393566e-05
0.010346961
0.00019901113
0.010662469
0.00028247386
0.010982753
0.00030866646
0.011290229
0.00030874339
0.011575251
0.00029875789
0.011829022
0.00028101349
0.012047865
0.0002569876
0.012233272
0.00023051985
0.01238924
0.00020514589
0.012520295
0.00018256233
0.012630755
0.00016299954
0.012724428
0.00014622489
0.012804515
0.00013190312
0.012873613
0.00011967427
0.012933772
0.00010917463
0.012986596
0.00010006909
0.013033332
9.2076379e-05
0.01307495
8.4975258e-05
0.013112216
7.8598608e-05
0.013145739
7.2822293e-05
0.013176012
6.7553927e-05
0.013203441
6.2723917e-05
0.013228366
5.8278892e-05
0.013251071
5.4176987e-05
0.013271802
5.0384438e-05
0.01329077
4.687317e-05
0.013308155
4.3619186e-05
0.013324119
4.0601465e-05
0.0133388
3.7801282e-05
0.013352321
3.5201752e-05
0.013364791
3.278753e-05
0.013376306
3.0544594e-05
0.01338695
2.8460095e-05
0.0133968
2.6522225e-05
0.013405923
2.4720138e-05
0.013414381
2.3043843e-05
0.013422228
2.1484145e-05
0.013429513
2.003256e-05
0.013436281
1.8681274e-05
0.013442572
1.7423066e-05
0.013448423
1.6251276e-05
0.013453866
1.5159757e-05
0.013458933
1.4142823e-05
0.013463652
1.3195218e-05
0.013468047
1.2312074e-05
0.013472142
1.148888e-05
0.013475959
1.0721457e-05
0.013479517
1.0005924e-05
0.013482834
9.3386979e-06
0.013485928
8.7164415e-06
0.013488814
8.136062e-06
0.013491507
7.5946939e-06
0.013494019
7.0896606e-06
0.013496363
6.6184933e-06
0.013498551
6.1788873e-06
0.013500593
5.7686989e-06
0.013502499
5.3859356e-06
0.013504278
5.0287319e-06
0.013505939
4.6953571e-06
0.01350749
4.3841894e-06
0.013508938
4.0937279e-06
0.01351029
3.8225973e-06
0.013511552
3.5695008e-06
0.013512731
3.3332536e-06
0.013513832
3.1127221e-06
0.01351486
2.9068548e-06
0.01351582
2.7146555e-06
0.013516716
2.535195e-06
0.013517554
2.3676187e-06
0.013518336
2.2111351e-06
0.013519066
2.0649928e-06
0.013519748
1.9285356e-06
0.013520386
1.8011128e-06
0.013520981
1.6821562e-06
0.013521537
1.5710828e-06
0.013522056
1.4674077e-06
0.013522541
1.3705643e-06
0.013522994
1.2801642e-06
0.013523417
1.1956384e-06
0.013523812
1.1167487e-06
0.013524181
1.0429131e-06
0.013524526
9.7412488e-07
0.013524848
9.096805e-07
0.013525149
8.4986785e-07
0.01352543
7.936135e-07
0.013525692
7.4170304e-07
0.013525937
6.9234186e-07
0.013526166
6.4739623e-07
0.01352638
6.0377099e-07
0.01352658
5.6505669e-07
0.013526767
5.2597743e-07
0.013526941
4.9379135e-07
0.013527104
4.5818667e-07
0.013527257
4.3228899e-07
0.013527399
3.9889071e-07
0.013527534
3.8120933e-07
0.013527658
3.4728525e-07
0.013527779
3.3785792e-07
3.0546133e-07
0.010068394
-1.9695147e-12
0.010267405
-1.2181065e-11
0.010549879
-1.7694536e-11
0.010858545
-1.2337791e-11
0.011167288
3.7975506e-12
0.011466046
1.9347478e-11
0.01174706
2.5266513e-11
0.012004047
1.8859501e-11
0.012234567
5.4236066e-12
0.012439713
-9.5397856e-12
0.012622275
-1.7604432e-11
0.012785275
-2.0315892e-11
0.0129315
-1.7797987e-11
0.013063403
-7.8973517e-12
0.013183077
4.9127251e-12
0.013292252
1.5468503e-11
0.013392321
2.1554789e-11
0.013484397
2.1382821e-11
0.013569373
1.3705462e-11
0.013647971
2.4555385e-12
0.013720794
-9.1387524e-12
0.013788347
-1.5935819e-11
0.013851071
-1.9687318e-11
0.01390935
-1.8430926e-11
0.013963527
-1.125982e-11
0.014013912
-1.8220477e-12
0.014060785
9.6015704e-12
0.014104404
1.515903e-11
0.014145006
1.7629512e-11
0.014182807
1.5152856e-11
0.014218009
6.7396273e-12
0.014250796
-2.0625518e-12
0.014281341
-1.1148208e-11
0.014309801
-1.6829222e-11
0.014336323
-1.7496268e-11
0.014361043
-1.3320679e-11
0.014384087
-3.2142771e-12
0.014405571
1.0076373e-11
0.014425604
2.113669e-11
0.014444285
2.4393216e-11
0.014461708
2.0736139e-11
0.014477959
1.0048682e-11
0.014493119
-6.6570454e-12
0.014507262
-2.1182649e-11
0.014520457
-2.8260574e-11
0.014532769
-2.4486853e-11
0.014544258
-1.2715978e-11
0.014554979
7.803366e-12
0.014564985
2.8603943e-11
0.014574324
3.6171357e-11
0.014583041
3.5433981e-11
0.014591177
2.4559134e-11
0.014598771
3.2601455e-12
0.014605861
-2.2804735e-11
0.014612479
-4.1430854e-11
0.014618658
-4.416097e-11
0.014624427
-2.8808497e-11
0.014629813
1.637968e-12
0.014634842
4.1081694e-11
0.014639537
6.4147843e-11
0.014643921
6.5139327e-11
0.014648015
4.5642113e-11
0.014651837
8.206679e-12
0.014655407
-3.7950413e-11
0.01465874
-6.8207385e-11
0.014661853
-6.838986e-11
0.01466476
-3.7370013e-11
0.014667474
1.0834898e-11
0.01467001
6.7855103e-11
0.014672377
9.5438891e-11
0.014674588
9.3733668e-11
0.014676653
6.1148714e-11
0.014678582
-1.2735221e-12
0.014680383
-7.0059035e-11
0.014682065
-9.945313e-11
0.014683636
-9.1372391e-11
0.014685104
-4.4539652e-11
0.014686474
2.5455036e-11
0.014687754
9.8938867e-11
0.01468895
1.3026301e-10
0.014690067
1.1241676e-10
0.01469111
5.1781402e-11
0.014692084
-4.3769975e-11
0.014692993
-1.2467124e-10
0.014693843
-1.4034802e-10
0.014694637
-9.5627205e-11
0.014695379
-2.1099398e-11
0.014696071
7.8003074e-11
0.014696718
1.4909449e-10
0.014697322
1.2878167e-10
0.014697887
1.270101e-11
0.014698413
-3.5817793e-11
0.014698907
-1.0400142e-10
0.014699365
-2.8115503e-10
0.014699798
-2.2590922e-10
0.014700197
1.0746001e-10
0.014700577
2.5585558e-10
0.014700924
7.5748968e-11
0.014701263
-1.0021654e-10
-9.5040442e-11
0.010068394
-6.8393569e-05
0.010267405
-0.00019901114
0.010549879
-0.00028247387
0.010858545
-0.00030866646
0.011167288
-0.00030874339
0.011466046
-0.00029875787
0.01174706
-0.00028101347
0.012004047
-0.00025698758
0.012234567
-0.00023051984
0.012439713
-0.0002051459
0.012622275
-0.00018256234
0.012785275
-0.00016299955
0.0129315
-0.0001462249
0.013063403
-0.00013190313
0.013183077
-0.00011967427
0.013292252
-0.00010917462
0.013392321
-0.00010006907
0.013484397
-9.2076359e-05
0.013569373
-8.4975241e-05
0.013647971
-7.8598604e-05
0.013720794
-7.2822298e-05
0.013788347
-6.7553939e-05
0.013851071
-6.2723933e-05
0.01390935
-5.8278913e-05
0.013963527
-5.4177005e-05
0.014013912
-5.0384444e-05
0.014060785
-4.6873169e-05
0.014104404
-4.3619174e-05
0.014145005
-4.0601447e-05
0.014182807
-3.7801264e-05
0.014218009
-3.5201739e-05
0.014250796
-3.2787525e-05
0.014281341
-3.0544597e-05
0.014309801
-2.8460107e-05
0.014336323
-2.6522245e-05
0.014361043
-2.4720154e-05
0.014384087
-2.3043852e-05
0.014405571
-2.148414e-05
0.014425604
-2.0032543e-05
0.014444285
-1.8681247e-05
0.014461708
-1.7423041e-05
0.014477959
-1.6251263e-05
0.014493119
-1.5159756e-05
0.014507262
-1.4142839e-05
0.014520457
-1.3195245e-05
0.014532769
-1.2312099e-05
0.014544258
-1.1488893e-05
0.014554979
-1.0721449e-05
0.014564985
-1.0005901e-05
0.014574324
-9.3386599e-06
0.014583041
-8.716402e-06
0.014591177
-8.1360331e-06
0.014598771
-7.59468e-06
0.014605861
-7.0896768e-06
0.014612479
-6.6185307e-06
0.014618658
-6.1789274e-06
0.014624427
-5.7687261e-06
0.014629813
-5.3859316e-06
0.014634842
-5.0286935e-06
0.014639537
-4.6952868e-06
0.014643921
-4.384115e-06
0.014648015
-4.0936793e-06
0.014651837
-3.8225816e-06
0.014655407
-3.5695313e-06
0.01465874
-3.3333146e-06
0.014661853
-3.1127845e-06
0.01466476
-2.9068844e-06
0.014667475
-2.7146351e-06
0.01467001
-2.5351314e-06
0.014672377
-2.3675165e-06
0.014674588
-2.2110317e-06
0.014676653
-2.0649332e-06
0.014678582
-1.9285322e-06
0.014680383
-1.8011664e-06
0.014682065
-1.6822481e-06
0.014683636
-1.5711624e-06
0.014685104
-1.4674453e-06
0.014686474
-1.3705334e-06
0.014687754
-1.2800681e-06
0.01468895
-1.1955022e-06
0.014690067
-1.1166312e-06
0.01469111
-1.042868e-06
0.014692084
-9.7417437e-07
0.014692994
-9.0979659e-07
0.014693843
-8.5000711e-07
0.014694637
-7.9370131e-07
0.014695379
-7.4171561e-07
0.014696071
-6.9226953e-07
0.014696718
-6.4727511e-07
0.014697322
-6.0368428e-07
0.014697887
-5.6505553e-07
0.014698413
-5.2606993e-07
0.014698907
-4.939614e-07
0.014699365
-4.5844487e-07
0.014699798
-4.3243288e-07
0.014700197
-3.9876845e-07
0.014700577
-3.8104566e-07
0.014700924
-3.4734238e-07
0.014701263
-3.3803438e-07
-3.0557895e-07
0.010097182
-0.00016557516
0.010346961
-0.000448791
0.010662469
-0.00059798176
0.010982753
-0.00062895024
0.011290229
-0.00061621886
0.011575251
-0.00058378055
0.011829022
-0.00053478421
0.012047865
-0.0004758305
0.012233272
-0.00041592666
0.01238924
-0.00036111401
0.012520295
-0.00031361712
0.012630755
-0.00027346025
0.012724428
-0.00023989717
0.012804515
-0.0002119903
0.012873613
-0.0001887726
0.012933772
-0.00016933388
0.012986596
-0.00015289296
0.013033332
-0.00013881183
0.01307495
-0.0001265938
0.013112216
-0.00011586445
0.013145739
-0.00010634494
0.013176012
-9.7827e-05
0.013203441
-9.0153362e-05
0.013228366
-8.3203365e-05
0.013251071
-7.6882614e-05
0.013271802
-7.1115564e-05
0.01329077
-6.5840296e-05
0.013308155
-6.1004913e-05
0.013324119
-5.6565073e-05
0.0133388
-5.2482339e-05
0.013352321
-4.8723026e-05
0.013364791
-4.5257386e-05
0.013376306
-4.2058994e-05
0.01338695
-3.9104271e-05
0.0133968
-3.637212e-05
0.013405923
-3.3843608e-05
0.013414381
-3.1501692e-05
0.013422228
-2.9331016e-05
0.013429513
-2.7317702e-05
0.013436281
-2.5449183e-05
0.013442572
-2.3714053e-05
0.013448423
-2.2101955e-05
0.013453866
-2.0603456e-05
0.013458933
-1.9209945e-05
0.013463652
-1.791356e-05
0.013468047
-1.6707107e-05
0.013472142
-1.558398e-05
0.013475959
-1.4538117e-05
0.013479517
-1.356394e-05
0.013482834
-1.2656311e-05
0.013485928
-1.181049e-05
0.013488814
-1.1022107e-05
0.013491507
-1.0287127e-05
0.013494019
-9.6018083e-06
0.013496363
-8.9627024e-06
0.013498551
-8.3666171e-06
0.013500593
-7.8105917e-06
0.013502499
-7.2918794e-06
0.013504278
-6.8079295e-06
0.013505939
-6.3563661e-06
0.01350749
-5.9349672e-06
0.013508938
-5.5416774e-06
0.01351029
-5.1745988e-06
0.013511552
-4.8319556e-06
0.013512731
-4.5121074e-06
0.013513832
-4.2135366e-06
0.01351486
-3.9348273e-06
0.01351582
-3.67464e-06
0.013516716
-3.4317374e-06
0.013517554
-3.2049548e-06
0.013518336
-2.9932025e-06
0.013519066
-2.795457e-06
0.013519748
-2.6108033e-06
0.013520386
-2.4383405e-06
0.013520981
-2.2772993e-06
0.013521537
-2.1269043e-06
0.013522056
-1.9865119e-06
0.013522541
-1.8553902e-06
0.013522994
-1.7330187e-06
0.013523417
-1.6186671e-06
0.013523812
-1.5119574e-06
0.013524181
-1.4121144e-06
0.013524526
-1.3190314e-06
0.013524848
-1.2318016e-06
0.013525149
-1.1507049e-06
0.01352543
-1.0745102e-06
0.013525692
-1.0040645e-06
0.013525937
-9.3737945e-07
0.013526166
-8.7638728e-07
0.01352638
-8.1769415e-07
0.01352658
-7.650986e-07
0.013526767
-7.1280083e-07
0.013526941
-6.6847999e-07
0.013527104
-6.2107827e-07
0.013527257
-5.8491099e-07
0.013527399
-5.4097096e-07
0.013527533
-5.1546267e-07
0.013527658
-4.7241545e-07
0.013527779
-4.5904576e-07
-4.1598117e-07
0.010188704
-0.00035427932
0.010530487
-0.00079057334
0.010851453
-0.00091894821
0.011124174
-0.00090167139
0.011350581
-0.00084262624
0.011524486
-0.00075768558
0.01164633
-0.00065662742
0.011724155
-0.00055365585
0.011767999
-0.00045977083
0.011786639
-0.00037975355
0.011787114
-0.0003140926
0.011775058
-0.00026140426
0.011754861
-0.00021969948
0.011729768
-0.00018689785
0.011702054
-0.00016105801
0.011673239
-0.00014051894
0.011644339
-0.00012399296
0.011616003
-0.00011047601
0.011588629
-9.9219882e-05
0.011562446
-8.9681413e-05
0.011537572
-8.1470671e-05
0.011514052
-7.4307842e-05
0.011491889
-6.7990488e-05
0.011471056
-6.236998e-05
0.011451509
-5.7335009e-05
0.011433193
-5.2800186e-05
0.011416051
-4.8698275e-05
0.011400021
-4.4974967e-05
0.011385042
-4.1585403e-05
0.011371051
-3.8491854e-05
0.01135799
-3.5662154e-05
0.011345801
-3.3068604e-05
0.01133443
-3.068716e-05
0.011323822
-2.8496838e-05
0.011313929
-2.6479233e-05
0.011304704
-2.4618145e-05
0.011296101
-2.2899254e-05
0.01128808
-2.1309863e-05
0.011280601
-1.983868e-05
0.011273628
-1.8475623e-05
0.011267125
-1.721167e-05
0.011261062
-1.6038715e-05
0.011255408
-1.4949462e-05
0.011250135
-1.3937315e-05
0.011245218
-1.2996301e-05
0.011240632
-1.2120995e-05
0.011236354
-1.1306457e-05
0.011232365
-1.0548169e-05
0.011228643
-9.8419996e-06
0.01122517
-9.1841577e-06
0.011221931
-8.5711611e-06
0.011218909
-7.999806e-06
0.011216089
-7.4671415e-06
0.011213457
-6.9704445e-06
0.011211002
-6.5072058e-06
0.01120871
-6.0751116e-06
0.011206572
-5.6720169e-06
0.011204576
-5.29593e-06
0.011202713
-4.9450022e-06
0.011200974
-4.6175127e-06
0.011199351
-4.3118603e-06
0.011197836
-4.0265569e-06
0.011196422
-3.7602245e-06
0.011195101
-3.5115794e-06
0.011193868
-3.2794362e-06
0.011192718
-3.0627002e-06
0.011191643
-2.8603539e-06
0.01119064
-2.6714365e-06
0.011189703
-2.4950532e-06
0.011188829
-2.3303584e-06
0.011188012
-2.1765674e-06
0.01118725
-2.0329282e-06
0.011186537
-1.8987691e-06
0.011185873
-1.773447e-06
0.011185252
-1.6564059e-06
0.011184672
-1.5470873e-06
0.01118413
-1.445032e-06
0.011183625
-1.3497173e-06
0.011183153
-1.2607637e-06
0.011182712
-1.1776469e-06
0.0111823
-1.1000745e-06
0.011181915
-1.0274976e-06
0.011181556
-9.5979078e-07
0.01118122
-8.9636161e-07
0.011180907
-8.3733218e-07
0.011180614
-7.8193111e-07
0.011180341
-7.3060755e-07
0.011180086
-6.8220773e-07
0.011179847
-6.3771686e-07
0.011179625
-5.9520737e-07
0.011179416
-5.5670495e-07
0.011179222
-5.1920463e-07
0.01117904
-4.8625178e-07
0.011178872
-4.52579e-07
0.011178712
-4.2522045e-07
0.011178566
-3.9521793e-07
0.011178425
-3.7433506e-07
0.0111783
-3.4711884e-07
0.011178177
-3.3605852e-07
-3.106773e-07
0.010339525
-0.00069380425
0.010570754
-0.0010218027
0.010606301
-0.00095449449
0.010547572
-0.00084294335
0.010422317
-0.00071737081
0.010244356
-0.00057972444
0.01003942
-0.00045169204
0.0098287427
-0.000342978
0.009625135
-0.00025616317
0.0094353013
-0.00018991983
0.0092624277
-0.00014121898
0.0091075332
-0.0001065098
0.008970154
-8.2320221e-05
0.0088489023
-6.564624e-05
0.0087419716
-5.4127248e-05
0.0086474927
-4.6040044e-05
0.008563694
-4.0194293e-05
0.0084890108
-3.5792761e-05
0.0084221097
-3.2318764e-05
0.0083618775
-2.9449284e-05
0.0083073954
-2.6988575e-05
0.0082579079
-2.4820295e-05
0.0082127929
-2.2875474e-05
0.0081715353
-2.1112413e-05
0.0081337049
-1.9504656e-05
0.0080989388
-1.8034022e-05
0.0080669272
-1.6686736e-05
0.0080374036
-1.5451375e-05
0.0080101361
-1.431787e-05
0.0079849213
-1.3277073e-05
0.0079615798
-1.2320586e-05
0.0079399519
-1.144071e-05
0.0079198952
-1.0630423e-05
0.0079012817
-9.8833559e-06
0.0078839962
-9.1937685e-06
0.0078679345
-8.5565015e-06
0.0078530022
-7.9669316e-06
0.0078391133
-7.4209201e-06
0.0078261893
-6.9147608e-06
0.0078141589
-6.4451313e-06
0.0078029563
-6.0090493e-06
0.0077925214
-5.6038301e-06
0.007782799
-5.2270498e-06
0.0077737382
-4.8765152e-06
0.0077652921
-4.5502364e-06
0.0077574175
-4.2464014e-06
0.0077500744
-3.9633562e-06
0.0077432258
-3.6995883e-06
0.0077368375
-3.4537101e-06
0.0077308778
-3.2244464e-06
0.0077253173
-3.0106244e-06
0.0077201287
-2.8111625e-06
0.0077152866
-2.6250615e-06
0.0077107675
-2.4513992e-06
0.0077065497
-2.2893237e-06
0.0077026126
-2.1380454e-06
0.0076989373
-1.9968304e-06
0.0076955064
-1.8649976e-06
0.0076923033
-1.7419132e-06
0.0076893128
-1.6269862e-06
0.0076865206
-1.5196683e-06
0.0076839136
-1.4194501e-06
0.0076814792
-1.3258561e-06
0.0076792061
-1.2384435e-06
0.0076770834
-1.1568037e-06
0.0076751012
-1.0805558e-06
0.0076732502
-1.0093434e-06
0.0076715216
-9.4283322e-07
0.0076699072
-8.8071552e-07
0.0076683996
-8.226947e-07
0.0076669916
-7.6849854e-07
0.0076656765
-7.178684e-07
0.0076644484
-6.7057093e-07
0.0076633013
-6.2638213e-07
0.00766223
-5.8510875e-07
0.0076612294
-5.4655249e-07
0.0076602949
-5.1055022e-07
0.007659422
-4.7691732e-07
0.0076586068
-4.4552045e-07
0.0076578453
-4.1617317e-07
0.0076571341
-3.8877808e-07
0.0076564698
-3.6314542e-07
0.0076558493
-3.3923661e-07
0.0076552698
-3.1684014e-07
0.0076547284
-2.9600075e-07
0.0076542228
-2.7643988e-07
0.0076537505
-2.5831227e-07
0.0076533094
-2.4121553e-07
0.0076528972
-2.2547253e-07
0.0076525126
-2.1046598e-07
0.0076521528
-1.9683145e-07
0.0076518172
-1.8365836e-07
0.0076515029
-1.7188766e-07
0.0076512106
-1.60248e-07
0.0076509355
-1.5032032e-07
0.0076506806
-1.4048951e-07
0.0076504385
-1.3213399e-07
0.0076502166
-1.2503063e-07
0.0076499999
-1.194205e-07
-1.2572828e-07
0.0093061958
0.0082843931
0.0073298986
0.0064869553
0.0057695845
0.00518986
0.004738168
0.00439519
0.0041390268
0.003949107
0.003807888
0.0037013782
0.003619058
0.0035534117
0.0034992845
0.0034532444
0.0034130501
0.0033772574
0.0033449386
0.0033154893
0.0032885008
0.0032636805
0.003240805
0.0032196926
0.0032001879
0.0031821539
0.0031654671
0.0031500158
0.0031356979
0.0031224209
0.0031101003
0.0030986596
0.0030880291
0.0030781458
0.003068952
0.0030603955
0.0030524286
0.0030450076
0.0030380929
0.0030316478
0.0030256387
0.0030200349
0.0030148078
0.0030099313
0.0030053811
0.0030011347
0.0029971713
0.0029934717
0.002990018
0.0029867936
0.002983783
0.0029809718
0.0029783467
0.0029758953
0.002973606
0.0029714679
0.0029694711
0.0029676061
0.0029658642
0.0029642372
0.0029627176
0.0029612981
0.0029599723
0.0029587338
0.002957577
0.0029564964
0.0029554871
0.0029545442
0.0029536635
0.0029528408
0.0029520724
0.0029513545
0.002950684
0.0029500576
0.0029494725
0.0029489259
0.0029484153
0.0029479383
0.0029474928
0.0029470767
0.002946688
0.0029463249
0.0029459856
0.0029456688
0.0029453727
0.0029450962
0.0029448379
0.0029445967
0.0029443712
0.0029441608
0.002943964
0.0029437804
0.0029436085
0.0029434482
0.0029432978
0.0029431573
0.0029430252
0.0029429002
0.0029427808
)
;

boundaryField
{
    top
    {
        type            calculated;
        value           uniform 0;
    }
    inlet
    {
        type            calculated;
        value           nonuniform List<scalar> 10(-0.01 -0.01 -0.01 -0.01 -0.01 -0.01 -0.01 -0.01 -0.01 -0.01);
    }
    outlet
    {
        type            calculated;
        value           nonuniform List<scalar> 10(0.0029426551 0.0076498151 0.011178072 0.01352789 0.014701569 0.014701569 0.01352789 0.011178072 0.0076498149 0.0029426551);
    }
    bottom
    {
        type            calculated;
        value           uniform 0;
    }
    back
    {
        type            empty;
        value           nonuniform 0();
    }
    front
    {
        type            empty;
        value           nonuniform 0();
    }
}


// ************************************************************************* //
