/*--------------------------------*- C++ -*----------------------------------*\
| =========                 |                                                 |
| \\      /  F ield         | OpenFOAM: The Open Source CFD Toolbox           |
|  \\    /   O peration     | Version:  2112                                  |
|   \\  /    A nd           | Website:  www.openfoam.com                      |
|    \\/     M anipulation  |                                                 |
\*---------------------------------------------------------------------------*/
FoamFile
{
    version     2.0;
    format      ascii;
    arch        "LSB;label=32;scalar=64";
    class       volScalarField;
    location    "5";
    object      T;
}
// * * * * * * * * * * * * * * * * * * * * * * * * * * * * * * * * * * * * * //

dimensions      [0 0 0 1 0 0 0];

internalField   nonuniform List<scalar> 
10000
(
1.30671
1.30671
1.30671
1.30671
1.30671
1.30671
1.30671
1.30671
1.30671
1.30671
0.940647
0.940653
0.940649
0.940647
0.940646
0.940645
0.940646
0.940646
0.940647
0.940645
0.629469
0.629474
0.629469
0.629466
0.629465
0.629465
0.629465
0.629467
0.629467
0.629465
0.391156
0.391159
0.391154
0.391151
0.39115
0.39115
0.391151
0.391153
0.391155
0.391153
0.225893
0.225894
0.22589
0.225887
0.225886
0.225886
0.225888
0.22589
0.225893
0.225892
0.121493
0.121493
0.12149
0.121488
0.121487
0.121488
0.121489
0.121491
0.121494
0.121494
0.0610349
0.0610341
0.061032
0.0610308
0.0610304
0.0610307
0.0610318
0.0610338
0.0610365
0.0610369
0.0287376
0.0287368
0.0287355
0.0287348
0.0287346
0.0287349
0.0287357
0.0287372
0.0287393
0.0287399
0.0127266
0.0127261
0.0127254
0.012725
0.0127249
0.0127251
0.0127256
0.0127266
0.012728
0.0127286
0.00531999
0.00531968
0.0053193
0.0053191
0.00531907
0.00531919
0.00531951
0.0053201
0.00532097
0.00532139
0.0021064
0.00210623
0.00210605
0.00210596
0.00210595
0.00210602
0.00210619
0.00210652
0.002107
0.00210726
0.000792548
0.000792466
0.000792386
0.000792347
0.000792344
0.00079238
0.000792469
0.000792632
0.000792875
0.00079302
0.000284249
0.000284213
0.00028418
0.000284164
0.000284164
0.000284181
0.000284223
0.000284299
0.000284413
0.000284486
9.74558e-05
9.74407e-05
9.74277e-05
9.74217e-05
9.74221e-05
9.743e-05
9.74483e-05
9.74814e-05
9.75314e-05
9.7565e-05
3.2026e-05
3.20201e-05
3.20153e-05
3.20132e-05
3.20135e-05
3.20168e-05
3.20244e-05
3.20379e-05
3.20585e-05
3.20729e-05
1.01123e-05
1.01101e-05
1.01085e-05
1.01077e-05
1.01079e-05
1.01092e-05
1.01122e-05
1.01174e-05
1.01254e-05
1.01312e-05
3.07491e-06
3.07417e-06
3.0736e-06
3.07337e-06
3.07346e-06
3.07395e-06
3.07504e-06
3.07697e-06
3.07991e-06
3.0821e-06
9.02315e-07
9.0207e-07
9.0189e-07
9.01818e-07
9.01856e-07
9.02034e-07
9.02415e-07
9.03093e-07
9.04123e-07
9.04908e-07
2.56014e-07
2.55937e-07
2.55882e-07
2.55861e-07
2.55875e-07
2.55936e-07
2.56064e-07
2.56291e-07
2.56636e-07
2.56904e-07
7.03595e-08
7.0336e-08
7.03199e-08
7.03141e-08
7.03193e-08
7.03391e-08
7.03805e-08
7.04533e-08
7.05639e-08
7.06515e-08
1.87606e-08
1.87538e-08
1.87492e-08
1.87477e-08
1.87495e-08
1.87557e-08
1.87685e-08
1.8791e-08
1.88251e-08
1.88525e-08
4.8607e-09
4.85878e-09
4.85753e-09
4.85714e-09
4.85771e-09
4.85959e-09
4.86343e-09
4.8701e-09
4.88023e-09
4.88848e-09
1.22543e-09
1.22491e-09
1.22458e-09
1.22449e-09
1.22466e-09
1.22521e-09
1.22632e-09
1.22823e-09
1.23114e-09
1.23353e-09
3.01012e-10
3.00875e-10
3.00791e-10
3.00769e-10
3.00822e-10
3.00976e-10
3.01285e-10
3.01818e-10
3.02624e-10
3.03295e-10
7.21293e-11
7.20945e-11
7.20735e-11
7.2069e-11
7.20838e-11
7.21261e-11
7.22096e-11
7.23531e-11
7.257e-11
7.27522e-11
1.68796e-11
1.6871e-11
1.6866e-11
1.68651e-11
1.68692e-11
1.68804e-11
1.69023e-11
1.69398e-11
1.69965e-11
1.70445e-11
3.86183e-12
3.85977e-12
3.85858e-12
3.85842e-12
3.85951e-12
3.8624e-12
3.868e-12
3.87755e-12
3.89194e-12
3.90421e-12
8.64632e-13
8.64146e-13
8.63877e-13
8.63853e-13
8.64135e-13
8.64859e-13
8.66254e-13
8.68618e-13
8.72174e-13
8.75228e-13
1.89615e-13
1.89504e-13
1.89444e-13
1.89442e-13
1.89513e-13
1.8969e-13
1.90028e-13
1.90596e-13
1.91444e-13
1.92163e-13
4.07655e-14
4.07408e-14
4.07278e-14
4.07281e-14
4.07453e-14
4.07871e-14
4.0865e-14
4.09889e-14
4.11446e-14
4.11718e-14
1.30671
1.30671
1.30671
1.30671
1.30671
1.30671
1.30671
1.30671
1.30671
1.30671
0.940653
0.940655
0.940651
0.940648
0.940647
0.940647
0.940648
0.940649
0.94065
0.940648
0.629474
0.629475
0.62947
0.629467
0.629466
0.629466
0.629467
0.629468
0.629471
0.629468
0.391159
0.391159
0.391154
0.391151
0.39115
0.39115
0.391151
0.391154
0.391157
0.391155
0.225894
0.225893
0.225888
0.225886
0.225885
0.225885
0.225887
0.22589
0.225894
0.225893
0.121493
0.121492
0.121488
0.121487
0.121486
0.121486
0.121488
0.121491
0.121495
0.121495
0.0610341
0.0610328
0.0610306
0.0610295
0.0610291
0.0610294
0.0610307
0.0610331
0.0610368
0.0610372
0.0287368
0.0287359
0.0287345
0.0287338
0.0287336
0.0287339
0.0287348
0.0287366
0.0287393
0.02874
0.0127261
0.0127255
0.0127247
0.0127243
0.0127243
0.0127245
0.0127251
0.0127262
0.012728
0.0127286
0.00531968
0.00531932
0.00531895
0.00531875
0.00531872
0.00531885
0.0053192
0.00531987
0.00532092
0.00532138
0.00210623
0.00210605
0.00210587
0.00210578
0.00210577
0.00210585
0.00210604
0.00210639
0.00210697
0.00210725
0.000792466
0.00079238
0.000792301
0.000792262
0.00079226
0.000792299
0.000792394
0.000792573
0.000792857
0.000793012
0.000284213
0.000284175
0.000284143
0.000284127
0.000284127
0.000284146
0.00028419
0.000284273
0.000284405
0.000284482
9.74407e-05
9.74253e-05
9.74125e-05
9.74066e-05
9.74072e-05
9.74155e-05
9.74348e-05
9.74706e-05
9.75276e-05
9.75631e-05
3.20201e-05
3.20142e-05
3.20095e-05
3.20074e-05
3.20078e-05
3.20113e-05
3.20192e-05
3.20338e-05
3.2057e-05
3.20722e-05
1.01101e-05
1.0108e-05
1.01063e-05
1.01056e-05
1.01059e-05
1.01072e-05
1.01103e-05
1.01159e-05
1.01248e-05
1.01309e-05
3.07417e-06
3.07343e-06
3.07288e-06
3.07265e-06
3.07275e-06
3.07326e-06
3.07439e-06
3.07645e-06
3.07971e-06
3.08201e-06
9.0207e-07
9.01828e-07
9.01652e-07
9.01582e-07
9.01622e-07
9.01806e-07
9.02203e-07
9.0292e-07
9.04055e-07
9.04877e-07
2.55937e-07
2.55861e-07
2.55807e-07
2.55787e-07
2.55802e-07
2.55865e-07
2.55998e-07
2.56237e-07
2.56615e-07
2.56895e-07
7.0336e-08
7.03131e-08
7.02973e-08
7.02917e-08
7.02972e-08
7.03175e-08
7.03604e-08
7.04369e-08
7.05574e-08
7.06486e-08
1.87538e-08
1.87472e-08
1.87427e-08
1.87412e-08
1.8743e-08
1.87494e-08
1.87627e-08
1.87862e-08
1.88232e-08
1.88517e-08
4.85878e-09
4.85692e-09
4.8557e-09
4.85533e-09
4.85592e-09
4.85785e-09
4.86179e-09
4.86877e-09
4.87971e-09
4.88828e-09
1.22491e-09
1.22441e-09
1.22408e-09
1.224e-09
1.22418e-09
1.22474e-09
1.22587e-09
1.22787e-09
1.231e-09
1.23348e-09
3.00875e-10
3.00744e-10
3.00661e-10
3.00641e-10
3.00695e-10
3.00853e-10
3.01169e-10
3.01723e-10
3.02588e-10
3.03282e-10
7.20945e-11
7.20611e-11
7.20406e-11
7.20364e-11
7.20517e-11
7.20947e-11
7.21803e-11
7.23292e-11
7.25609e-11
7.27492e-11
1.6871e-11
1.68628e-11
1.68578e-11
1.6857e-11
1.68612e-11
1.68726e-11
1.68951e-11
1.69339e-11
1.69943e-11
1.70438e-11
3.85977e-12
3.85778e-12
3.85663e-12
3.85649e-12
3.8576e-12
3.86054e-12
3.86627e-12
3.87614e-12
3.89143e-12
3.90408e-12
8.64146e-13
8.63682e-13
8.6342e-13
8.63401e-13
8.63688e-13
8.64424e-13
8.65847e-13
8.68288e-13
8.72058e-13
8.75202e-13
1.89504e-13
1.89398e-13
1.8934e-13
1.89339e-13
1.89411e-13
1.89591e-13
1.89935e-13
1.90521e-13
1.91418e-13
1.92158e-13
4.07408e-14
4.07171e-14
4.07045e-14
4.07051e-14
4.07226e-14
4.0765e-14
4.08443e-14
4.09722e-14
4.11391e-14
4.11711e-14
1.30671
1.30671
1.30671
1.30671
1.30671
1.30671
1.30671
1.30671
1.30671
1.30671
0.940649
0.940651
0.940646
0.940644
0.940643
0.940642
0.940643
0.940645
0.940647
0.940647
0.629469
0.62947
0.629464
0.629461
0.62946
0.62946
0.629461
0.629464
0.629468
0.629467
0.391154
0.391154
0.391149
0.391146
0.391144
0.391145
0.391146
0.39115
0.391155
0.391154
0.22589
0.225888
0.225884
0.225881
0.22588
0.225881
0.225883
0.225886
0.225892
0.225892
0.12149
0.121488
0.121485
0.121483
0.121483
0.121483
0.121485
0.121488
0.121494
0.121494
0.061032
0.0610306
0.0610284
0.0610272
0.0610269
0.0610273
0.0610287
0.0610315
0.0610359
0.0610368
0.0287355
0.0287345
0.0287332
0.0287325
0.0287323
0.0287326
0.0287337
0.0287356
0.0287388
0.0287397
0.0127254
0.0127247
0.012724
0.0127236
0.0127235
0.0127238
0.0127244
0.0127257
0.0127277
0.0127285
0.0053193
0.00531895
0.00531857
0.00531838
0.00531835
0.00531849
0.00531887
0.0053196
0.00532078
0.0053213
0.00210605
0.00210587
0.00210569
0.0021056
0.0021056
0.00210568
0.00210588
0.00210627
0.0021069
0.00210721
0.000792386
0.000792301
0.000792222
0.000792184
0.000792184
0.000792225
0.000792327
0.000792519
0.000792827
0.000792996
0.00028418
0.000284143
0.00028411
0.000284095
0.000284096
0.000284116
0.000284163
0.000284251
0.000284392
0.000284475
9.74277e-05
9.74125e-05
9.73999e-05
9.73941e-05
9.7395e-05
9.74037e-05
9.74241e-05
9.74621e-05
9.75229e-05
9.75607e-05
3.20153e-05
3.20095e-05
3.20048e-05
3.20028e-05
3.20033e-05
3.2007e-05
3.20153e-05
3.20307e-05
3.20553e-05
3.20713e-05
1.01085e-05
1.01063e-05
1.01047e-05
1.0104e-05
1.01043e-05
1.01057e-05
1.01089e-05
1.01148e-05
1.01243e-05
1.01306e-05
3.0736e-06
3.07288e-06
3.07233e-06
3.07211e-06
3.07222e-06
3.07276e-06
3.07394e-06
3.07609e-06
3.07952e-06
3.08191e-06
9.0189e-07
9.01652e-07
9.01479e-07
9.01412e-07
9.01456e-07
9.01647e-07
9.02059e-07
9.02807e-07
9.03997e-07
9.04848e-07
2.55882e-07
2.55807e-07
2.55754e-07
2.55735e-07
2.55751e-07
2.55816e-07
2.55954e-07
2.56203e-07
2.56597e-07
2.56886e-07
7.03199e-08
7.02973e-08
7.02818e-08
7.02765e-08
7.02823e-08
7.03034e-08
7.03476e-08
7.0427e-08
7.05525e-08
7.06464e-08
1.87492e-08
1.87427e-08
1.87383e-08
1.87369e-08
1.87388e-08
1.87454e-08
1.87591e-08
1.87834e-08
1.88219e-08
1.88511e-08
4.85753e-09
4.8557e-09
4.8545e-09
4.85416e-09
4.85478e-09
4.85676e-09
4.86082e-09
4.86803e-09
4.87937e-09
4.88814e-09
1.22458e-09
1.22408e-09
1.22377e-09
1.22369e-09
1.22388e-09
1.22445e-09
1.22562e-09
1.22768e-09
1.23091e-09
1.23345e-09
3.00791e-10
3.00661e-10
3.00581e-10
3.00562e-10
3.00618e-10
3.0078e-10
3.01105e-10
3.01675e-10
3.02568e-10
3.03277e-10
7.20735e-11
7.20406e-11
7.20207e-11
7.20169e-11
7.20327e-11
7.20767e-11
7.21644e-11
7.23175e-11
7.25564e-11
7.27483e-11
1.6866e-11
1.68578e-11
1.6853e-11
1.68523e-11
1.68567e-11
1.68683e-11
1.68913e-11
1.69312e-11
1.69933e-11
1.70437e-11
3.85858e-12
3.85663e-12
3.85551e-12
3.85539e-12
3.85654e-12
3.85954e-12
3.86539e-12
3.87551e-12
3.89123e-12
3.9041e-12
8.63877e-13
8.6342e-13
8.63165e-13
8.63152e-13
8.63447e-13
8.64197e-13
8.6565e-13
8.6815e-13
8.7202e-13
8.75215e-13
1.89444e-13
1.8934e-13
1.89284e-13
1.89284e-13
1.89358e-13
1.89541e-13
1.89892e-13
1.90491e-13
1.91412e-13
1.92163e-13
4.07278e-14
4.07046e-14
4.06924e-14
4.06932e-14
4.07112e-14
4.07543e-14
4.08351e-14
4.0966e-14
4.11382e-14
4.11727e-14
1.30671
1.30671
1.30671
1.3067
1.3067
1.3067
1.3067
1.30671
1.30671
1.30671
0.940647
0.940648
0.940644
0.940641
0.94064
0.94064
0.940641
0.940643
0.940646
0.940646
0.629466
0.629467
0.629461
0.629458
0.629457
0.629457
0.629459
0.629462
0.629466
0.629466
0.391151
0.391151
0.391146
0.391143
0.391141
0.391142
0.391144
0.391148
0.391154
0.391153
0.225887
0.225886
0.225881
0.225879
0.225878
0.225879
0.225881
0.225885
0.225891
0.225891
0.121488
0.121487
0.121483
0.121481
0.121481
0.121481
0.121483
0.121487
0.121493
0.121494
0.0610308
0.0610295
0.0610272
0.0610261
0.0610257
0.0610262
0.0610277
0.0610307
0.0610354
0.0610365
0.0287348
0.0287338
0.0287325
0.0287318
0.0287316
0.028732
0.0287331
0.0287352
0.0287385
0.0287396
0.012725
0.0127243
0.0127236
0.0127232
0.0127232
0.0127234
0.0127241
0.0127254
0.0127276
0.0127284
0.0053191
0.00531875
0.00531838
0.00531819
0.00531817
0.00531832
0.00531872
0.00531949
0.00532071
0.00532127
0.00210596
0.00210578
0.0021056
0.00210552
0.00210551
0.0021056
0.00210581
0.00210622
0.00210687
0.0021072
0.000792347
0.000792262
0.000792184
0.000792148
0.000792148
0.000792192
0.000792298
0.000792497
0.000792816
0.000792992
0.000284164
0.000284127
0.000284095
0.00028408
0.000284082
0.000284102
0.000284151
0.000284242
0.000284388
0.000284474
9.74217e-05
9.74066e-05
9.73941e-05
9.73886e-05
9.73896e-05
9.73988e-05
9.74199e-05
9.74591e-05
9.75215e-05
9.75603e-05
3.20132e-05
3.20074e-05
3.20028e-05
3.20008e-05
3.20014e-05
3.20052e-05
3.20138e-05
3.20296e-05
3.20549e-05
3.20712e-05
1.01077e-05
1.01056e-05
1.0104e-05
1.01034e-05
1.01036e-05
1.01051e-05
1.01084e-05
1.01145e-05
1.01242e-05
1.01306e-05
3.07337e-06
3.07265e-06
3.07211e-06
3.0719e-06
3.07202e-06
3.07258e-06
3.07379e-06
3.07599e-06
3.07949e-06
3.08193e-06
9.01818e-07
9.01582e-07
9.01412e-07
9.01348e-07
9.01396e-07
9.01592e-07
9.02015e-07
9.0278e-07
9.03992e-07
9.04858e-07
2.55861e-07
2.55787e-07
2.55735e-07
2.55716e-07
2.55734e-07
2.55801e-07
2.55942e-07
2.56196e-07
2.56597e-07
2.56891e-07
7.03141e-08
7.02917e-08
7.02765e-08
7.02714e-08
7.02776e-08
7.02992e-08
7.03444e-08
7.04254e-08
7.0553e-08
7.06482e-08
1.87477e-08
1.87412e-08
1.87369e-08
1.87356e-08
1.87376e-08
1.87444e-08
1.87583e-08
1.87831e-08
1.88222e-08
1.88518e-08
4.85714e-09
4.85533e-09
4.85416e-09
4.85383e-09
4.85448e-09
4.85651e-09
4.86065e-09
4.86798e-09
4.87949e-09
4.88836e-09
1.22449e-09
1.224e-09
1.22369e-09
1.22361e-09
1.22381e-09
1.2244e-09
1.22558e-09
1.22768e-09
1.23096e-09
1.23352e-09
3.00769e-10
3.00641e-10
3.00562e-10
3.00546e-10
3.00604e-10
3.00769e-10
3.01099e-10
3.01678e-10
3.02583e-10
3.03299e-10
7.2069e-11
7.20364e-11
7.20169e-11
7.20135e-11
7.20299e-11
7.20747e-11
7.21638e-11
7.23191e-11
7.25611e-11
7.27548e-11
1.68651e-11
1.6857e-11
1.68523e-11
1.68517e-11
1.68562e-11
1.6868e-11
1.68914e-11
1.69318e-11
1.69947e-11
1.70456e-11
3.85842e-12
3.85649e-12
3.85539e-12
3.85531e-12
3.85649e-12
3.85953e-12
3.86547e-12
3.87573e-12
3.89162e-12
3.9046e-12
8.63853e-13
8.63401e-13
8.63152e-13
8.63146e-13
8.63449e-13
8.6421e-13
8.65683e-13
8.68215e-13
8.72128e-13
8.75347e-13
1.89442e-13
1.89339e-13
1.89284e-13
1.89286e-13
1.89362e-13
1.89547e-13
1.89903e-13
1.9051e-13
1.9144e-13
1.92197e-13
4.07281e-14
4.07051e-14
4.06933e-14
4.06945e-14
4.07128e-14
4.07565e-14
4.08384e-14
4.0971e-14
4.11454e-14
4.11811e-14
1.30671
1.30671
1.30671
1.3067
1.3067
1.3067
1.3067
1.3067
1.30671
1.30671
0.940646
0.940647
0.940643
0.94064
0.940639
0.940639
0.94064
0.940642
0.940645
0.940646
0.629465
0.629466
0.62946
0.629457
0.629456
0.629456
0.629458
0.629461
0.629466
0.629466
0.39115
0.39115
0.391144
0.391141
0.39114
0.391141
0.391143
0.391147
0.391153
0.391153
0.225886
0.225885
0.22588
0.225878
0.225877
0.225878
0.22588
0.225884
0.225891
0.225891
0.121487
0.121486
0.121483
0.121481
0.12148
0.121481
0.121483
0.121487
0.121493
0.121494
0.0610304
0.0610291
0.0610269
0.0610257
0.0610254
0.061026
0.0610275
0.0610306
0.0610354
0.0610366
0.0287346
0.0287336
0.0287323
0.0287316
0.0287315
0.0287319
0.028733
0.0287352
0.0287386
0.0287397
0.0127249
0.0127243
0.0127235
0.0127232
0.0127231
0.0127234
0.0127241
0.0127254
0.0127276
0.0127285
0.00531907
0.00531872
0.00531835
0.00531817
0.00531815
0.00531831
0.00531873
0.00531951
0.00532075
0.00532132
0.00210595
0.00210577
0.0021056
0.00210551
0.00210551
0.0021056
0.00210582
0.00210623
0.00210689
0.00210723
0.000792344
0.00079226
0.000792184
0.000792148
0.00079215
0.000792195
0.000792304
0.000792506
0.000792829
0.000793007
0.000284164
0.000284127
0.000284096
0.000284082
0.000284084
0.000284105
0.000284155
0.000284247
0.000284395
0.000284481
9.74221e-05
9.74072e-05
9.7395e-05
9.73896e-05
9.73909e-05
9.74003e-05
9.74218e-05
9.74614e-05
9.75245e-05
9.75637e-05
3.20135e-05
3.20078e-05
3.20033e-05
3.20014e-05
3.20021e-05
3.2006e-05
3.20147e-05
3.20307e-05
3.20562e-05
3.20727e-05
1.01079e-05
1.01059e-05
1.01043e-05
1.01036e-05
1.0104e-05
1.01055e-05
1.01088e-05
1.0115e-05
1.01247e-05
1.01312e-05
3.07346e-06
3.07275e-06
3.07222e-06
3.07202e-06
3.07215e-06
3.07272e-06
3.07395e-06
3.07617e-06
3.0797e-06
3.08215e-06
9.01856e-07
9.01622e-07
9.01456e-07
9.01396e-07
9.01447e-07
9.01647e-07
9.02074e-07
9.02847e-07
9.04067e-07
9.04937e-07
2.55875e-07
2.55802e-07
2.55751e-07
2.55734e-07
2.55753e-07
2.5582e-07
2.55963e-07
2.56219e-07
2.56623e-07
2.56918e-07
7.03193e-08
7.02972e-08
7.02823e-08
7.02776e-08
7.02841e-08
7.0306e-08
7.03517e-08
7.04333e-08
7.05617e-08
7.06573e-08
1.87495e-08
1.8743e-08
1.87388e-08
1.87376e-08
1.87398e-08
1.87466e-08
1.87607e-08
1.87857e-08
1.88249e-08
1.88547e-08
4.85771e-09
4.85592e-09
4.85478e-09
4.85448e-09
4.85516e-09
4.85721e-09
4.86139e-09
4.86877e-09
4.88034e-09
4.88924e-09
1.22466e-09
1.22418e-09
1.22388e-09
1.22381e-09
1.22401e-09
1.22461e-09
1.22581e-09
1.22791e-09
1.23121e-09
1.23378e-09
3.00822e-10
3.00695e-10
3.00618e-10
3.00604e-10
3.00663e-10
3.0083e-10
3.01163e-10
3.01746e-10
3.02654e-10
3.03372e-10
7.20838e-11
7.20517e-11
7.20327e-11
7.20299e-11
7.20467e-11
7.2092e-11
7.21817e-11
7.2338e-11
7.25809e-11
7.27751e-11
1.68692e-11
1.68612e-11
1.68567e-11
1.68562e-11
1.68608e-11
1.68727e-11
1.68962e-11
1.69369e-11
1.7e-11
1.7051e-11
3.85951e-12
3.8576e-12
3.85654e-12
3.85649e-12
3.85769e-12
3.86077e-12
3.86674e-12
3.87705e-12
3.89301e-12
3.90601e-12
8.64135e-13
8.63688e-13
8.63447e-13
8.63449e-13
8.63758e-13
8.64527e-13
8.66008e-13
8.68552e-13
8.72479e-13
8.75705e-13
1.89513e-13
1.89411e-13
1.89358e-13
1.89362e-13
1.89439e-13
1.89626e-13
1.89984e-13
1.90593e-13
1.91526e-13
1.92285e-13
4.07454e-14
4.07227e-14
4.07113e-14
4.07129e-14
4.07316e-14
4.07757e-14
4.0858e-14
4.09911e-14
4.11662e-14
4.12022e-14
1.30671
1.30671
1.30671
1.3067
1.3067
1.3067
1.3067
1.30671
1.30671
1.30671
0.940645
0.940647
0.940642
0.94064
0.940639
0.940639
0.94064
0.940642
0.940645
0.940646
0.629465
0.629466
0.62946
0.629457
0.629456
0.629456
0.629458
0.629461
0.629466
0.629466
0.39115
0.39115
0.391145
0.391142
0.391141
0.391141
0.391143
0.391148
0.391154
0.391154
0.225886
0.225885
0.225881
0.225879
0.225878
0.225878
0.225881
0.225885
0.225892
0.225892
0.121488
0.121486
0.121483
0.121481
0.121481
0.121482
0.121484
0.121487
0.121494
0.121495
0.0610307
0.0610294
0.0610273
0.0610262
0.061026
0.0610265
0.0610281
0.0610312
0.0610361
0.0610373
0.0287349
0.0287339
0.0287326
0.028732
0.0287319
0.0287323
0.0287334
0.0287356
0.028739
0.0287401
0.0127251
0.0127245
0.0127238
0.0127234
0.0127234
0.0127237
0.0127244
0.0127257
0.0127279
0.0127287
0.00531919
0.00531885
0.00531849
0.00531832
0.00531831
0.00531848
0.0053189
0.00531968
0.00532092
0.00532149
0.00210602
0.00210585
0.00210568
0.0021056
0.0021056
0.00210569
0.00210591
0.00210633
0.00210699
0.00210732
0.00079238
0.000792299
0.000792225
0.000792192
0.000792195
0.000792242
0.00079235
0.000792553
0.000792876
0.000793053
0.000284181
0.000284146
0.000284116
0.000284102
0.000284105
0.000284127
0.000284177
0.000284269
0.000284416
0.000284503
9.743e-05
9.74155e-05
9.74037e-05
9.73988e-05
9.74003e-05
9.74099e-05
9.74314e-05
9.74711e-05
9.7534e-05
9.75731e-05
3.20168e-05
3.20113e-05
3.2007e-05
3.20052e-05
3.2006e-05
3.20099e-05
3.20187e-05
3.20347e-05
3.20601e-05
3.20765e-05
1.01092e-05
1.01072e-05
1.01057e-05
1.01051e-05
1.01055e-05
1.0107e-05
1.01104e-05
1.01165e-05
1.01262e-05
1.01327e-05
3.07395e-06
3.07326e-06
3.07276e-06
3.07258e-06
3.07272e-06
3.07329e-06
3.07452e-06
3.07674e-06
3.08026e-06
3.0827e-06
9.02034e-07
9.01806e-07
9.01647e-07
9.01592e-07
9.01647e-07
9.01849e-07
9.02277e-07
9.03048e-07
9.04265e-07
9.05133e-07
2.55936e-07
2.55865e-07
2.55816e-07
2.55801e-07
2.5582e-07
2.55889e-07
2.56031e-07
2.56287e-07
2.5669e-07
2.56984e-07
7.03391e-08
7.03175e-08
7.03034e-08
7.02992e-08
7.0306e-08
7.03281e-08
7.03738e-08
7.04552e-08
7.05833e-08
7.06786e-08
1.87557e-08
1.87494e-08
1.87454e-08
1.87444e-08
1.87466e-08
1.87535e-08
1.87676e-08
1.87925e-08
1.88316e-08
1.88613e-08
4.85959e-09
4.85785e-09
4.85676e-09
4.85651e-09
4.85721e-09
4.85927e-09
4.86345e-09
4.87082e-09
4.88235e-09
4.89123e-09
1.22521e-09
1.22474e-09
1.22445e-09
1.2244e-09
1.22461e-09
1.22521e-09
1.2264e-09
1.22851e-09
1.23179e-09
1.23436e-09
3.00976e-10
3.00853e-10
3.0078e-10
3.00769e-10
3.0083e-10
3.00998e-10
3.0133e-10
3.01912e-10
3.02818e-10
3.03534e-10
7.21261e-11
7.20947e-11
7.20767e-11
7.20747e-11
7.2092e-11
7.21376e-11
7.22272e-11
7.2383e-11
7.26254e-11
7.28191e-11
1.68804e-11
1.68726e-11
1.68683e-11
1.6868e-11
1.68727e-11
1.68848e-11
1.69082e-11
1.69488e-11
1.70118e-11
1.70626e-11
3.8624e-12
3.86054e-12
3.85954e-12
3.85953e-12
3.86077e-12
3.86385e-12
3.86982e-12
3.8801e-12
3.89602e-12
3.909e-12
8.64859e-13
8.64424e-13
8.64197e-13
8.6421e-13
8.64527e-13
8.65298e-13
8.66777e-13
8.69315e-13
8.73233e-13
8.76452e-13
1.8969e-13
1.89591e-13
1.89541e-13
1.89547e-13
1.89626e-13
1.89814e-13
1.90171e-13
1.90779e-13
1.9171e-13
1.92468e-13
4.07877e-14
4.07656e-14
4.07549e-14
4.07571e-14
4.07761e-14
4.08203e-14
4.09025e-14
4.10353e-14
4.12099e-14
4.12453e-14
1.30671
1.30671
1.30671
1.3067
1.3067
1.3067
1.3067
1.30671
1.30671
1.30671
0.940646
0.940648
0.940643
0.940641
0.94064
0.94064
0.940641
0.940644
0.940646
0.940647
0.629465
0.629467
0.629461
0.629459
0.629458
0.629458
0.62946
0.629463
0.629468
0.629468
0.391151
0.391151
0.391146
0.391144
0.391143
0.391143
0.391146
0.39115
0.391156
0.391156
0.225888
0.225887
0.225883
0.225881
0.22588
0.225881
0.225883
0.225887
0.225894
0.225894
0.121489
0.121488
0.121485
0.121483
0.121483
0.121484
0.121486
0.121489
0.121495
0.121496
0.0610318
0.0610307
0.0610287
0.0610277
0.0610275
0.0610281
0.0610297
0.0610328
0.0610375
0.0610387
0.0287357
0.0287348
0.0287337
0.0287331
0.028733
0.0287334
0.0287346
0.0287367
0.02874
0.0287411
0.0127256
0.0127251
0.0127244
0.0127241
0.0127241
0.0127244
0.0127251
0.0127264
0.0127286
0.0127294
0.00531951
0.0053192
0.00531887
0.00531872
0.00531873
0.0053189
0.00531931
0.00532008
0.0053213
0.00532185
0.00210619
0.00210604
0.00210588
0.00210581
0.00210582
0.00210591
0.00210613
0.00210654
0.00210719
0.00210751
0.000792469
0.000792394
0.000792327
0.000792298
0.000792304
0.00079235
0.000792458
0.000792658
0.000792976
0.000793149
0.000284223
0.00028419
0.000284163
0.000284151
0.000284155
0.000284177
0.000284226
0.000284317
0.000284462
0.000284547
9.74483e-05
9.74348e-05
9.74241e-05
9.74199e-05
9.74218e-05
9.74314e-05
9.74527e-05
9.74918e-05
9.75539e-05
9.75922e-05
3.20244e-05
3.20192e-05
3.20153e-05
3.20138e-05
3.20147e-05
3.20187e-05
3.20273e-05
3.20431e-05
3.20682e-05
3.20843e-05
1.01122e-05
1.01103e-05
1.01089e-05
1.01084e-05
1.01088e-05
1.01104e-05
1.01137e-05
1.01197e-05
1.01293e-05
1.01357e-05
3.07504e-06
3.07439e-06
3.07394e-06
3.07379e-06
3.07395e-06
3.07452e-06
3.07573e-06
3.07793e-06
3.0814e-06
3.0838e-06
9.02415e-07
9.02203e-07
9.02059e-07
9.02015e-07
9.02074e-07
9.02277e-07
9.027e-07
9.0346e-07
9.04663e-07
9.05517e-07
2.56064e-07
2.55998e-07
2.55954e-07
2.55942e-07
2.55963e-07
2.56031e-07
2.56172e-07
2.56425e-07
2.56823e-07
2.57113e-07
7.03805e-08
7.03604e-08
7.03476e-08
7.03444e-08
7.03517e-08
7.03738e-08
7.04189e-08
7.04993e-08
7.06259e-08
7.07199e-08
1.87685e-08
1.87627e-08
1.87591e-08
1.87583e-08
1.87607e-08
1.87676e-08
1.87815e-08
1.88061e-08
1.88448e-08
1.8874e-08
4.86343e-09
4.86179e-09
4.86082e-09
4.86065e-09
4.86139e-09
4.86345e-09
4.86758e-09
4.87485e-09
4.88626e-09
4.89503e-09
1.22632e-09
1.22587e-09
1.22562e-09
1.22558e-09
1.22581e-09
1.2264e-09
1.22759e-09
1.22967e-09
1.23292e-09
1.23545e-09
3.01285e-10
3.01169e-10
3.01105e-10
3.01099e-10
3.01163e-10
3.0133e-10
3.0166e-10
3.02234e-10
3.03131e-10
3.03838e-10
7.22096e-11
7.21803e-11
7.21644e-11
7.21638e-11
7.21817e-11
7.22272e-11
7.23159e-11
7.24699e-11
7.27097e-11
7.29013e-11
1.69023e-11
1.68951e-11
1.68913e-11
1.68914e-11
1.68962e-11
1.69082e-11
1.69314e-11
1.69715e-11
1.70339e-11
1.70842e-11
3.868e-12
3.86627e-12
3.86539e-12
3.86547e-12
3.86674e-12
3.86982e-12
3.87573e-12
3.8859e-12
3.90166e-12
3.9145e-12
8.66254e-13
8.65847e-13
8.6565e-13
8.65683e-13
8.66008e-13
8.66777e-13
8.68242e-13
8.70753e-13
8.74633e-13
8.7782e-13
1.90029e-13
1.89936e-13
1.89893e-13
1.89904e-13
1.89985e-13
1.90172e-13
1.90525e-13
1.91127e-13
1.9205e-13
1.92799e-13
4.08679e-14
4.08472e-14
4.0838e-14
4.08412e-14
4.08607e-14
4.09048e-14
4.09862e-14
4.11176e-14
4.129e-14
4.13234e-14
1.30671
1.30671
1.30671
1.30671
1.3067
1.30671
1.30671
1.30671
1.30671
1.30671
0.940646
0.940649
0.940645
0.940643
0.940642
0.940642
0.940644
0.940646
0.940648
0.940649
0.629467
0.629468
0.629464
0.629462
0.629461
0.629461
0.629463
0.629466
0.629471
0.629471
0.391153
0.391154
0.39115
0.391148
0.391147
0.391148
0.39115
0.391154
0.39116
0.391159
0.22589
0.22589
0.225886
0.225885
0.225884
0.225885
0.225887
0.225891
0.225898
0.225898
0.121491
0.121491
0.121488
0.121487
0.121487
0.121487
0.121489
0.121493
0.121499
0.1215
0.0610338
0.0610331
0.0610315
0.0610307
0.0610306
0.0610312
0.0610328
0.0610357
0.0610403
0.0610412
0.0287372
0.0287366
0.0287356
0.0287352
0.0287352
0.0287356
0.0287367
0.0287387
0.028742
0.0287429
0.0127266
0.0127262
0.0127257
0.0127254
0.0127254
0.0127257
0.0127264
0.0127277
0.0127298
0.0127305
0.0053201
0.00531987
0.0053196
0.00531949
0.00531951
0.00531968
0.00532008
0.00532082
0.005322
0.0053225
0.00210652
0.00210639
0.00210627
0.00210622
0.00210623
0.00210633
0.00210654
0.00210693
0.00210756
0.00210786
0.000792632
0.000792573
0.000792519
0.000792497
0.000792506
0.000792553
0.000792658
0.000792851
0.000793157
0.000793317
0.000284299
0.000284273
0.000284251
0.000284242
0.000284247
0.000284269
0.000284317
0.000284406
0.000284546
0.000284624
9.74814e-05
9.74706e-05
9.74621e-05
9.74591e-05
9.74614e-05
9.74711e-05
9.74918e-05
9.75296e-05
9.75896e-05
9.76255e-05
3.20379e-05
3.20338e-05
3.20307e-05
3.20296e-05
3.20307e-05
3.20347e-05
3.20431e-05
3.20584e-05
3.20826e-05
3.20978e-05
1.01174e-05
1.01159e-05
1.01148e-05
1.01145e-05
1.0115e-05
1.01165e-05
1.01197e-05
1.01256e-05
1.01349e-05
1.01409e-05
3.07697e-06
3.07645e-06
3.07609e-06
3.07599e-06
3.07617e-06
3.07674e-06
3.07793e-06
3.08005e-06
3.08342e-06
3.0857e-06
9.03093e-07
9.0292e-07
9.02807e-07
9.0278e-07
9.02847e-07
9.03048e-07
9.0346e-07
9.04199e-07
9.05365e-07
9.06179e-07
2.56291e-07
2.56237e-07
2.56203e-07
2.56196e-07
2.56219e-07
2.56287e-07
2.56425e-07
2.5667e-07
2.57057e-07
2.57334e-07
7.04533e-08
7.04369e-08
7.0427e-08
7.04254e-08
7.04333e-08
7.04552e-08
7.04993e-08
7.05775e-08
7.07005e-08
7.07905e-08
1.8791e-08
1.87862e-08
1.87834e-08
1.87831e-08
1.87857e-08
1.87925e-08
1.88061e-08
1.883e-08
1.88677e-08
1.88958e-08
4.8701e-09
4.86877e-09
4.86803e-09
4.86798e-09
4.86877e-09
4.87082e-09
4.87485e-09
4.88194e-09
4.89304e-09
4.90147e-09
1.22823e-09
1.22787e-09
1.22768e-09
1.22768e-09
1.22791e-09
1.22851e-09
1.22967e-09
1.23169e-09
1.23486e-09
1.2373e-09
3.01818e-10
3.01723e-10
3.01675e-10
3.01678e-10
3.01746e-10
3.01912e-10
3.02234e-10
3.02794e-10
3.03668e-10
3.04351e-10
7.23531e-11
7.23292e-11
7.23175e-11
7.23191e-11
7.2338e-11
7.2383e-11
7.24699e-11
7.26202e-11
7.28541e-11
7.30392e-11
1.69398e-11
1.69339e-11
1.69312e-11
1.69318e-11
1.69369e-11
1.69488e-11
1.69715e-11
1.70107e-11
1.70716e-11
1.71202e-11
3.87755e-12
3.87614e-12
3.87551e-12
3.87573e-12
3.87705e-12
3.8801e-12
3.8859e-12
3.89584e-12
3.91123e-12
3.92367e-12
8.6862e-13
8.6829e-13
8.68151e-13
8.68216e-13
8.68553e-13
8.69316e-13
8.70754e-13
8.73208e-13
8.77e-13
8.80092e-13
1.906e-13
1.90525e-13
1.90495e-13
1.90514e-13
1.90597e-13
1.90783e-13
1.9113e-13
1.91719e-13
1.92621e-13
1.93348e-13
4.10026e-14
4.09859e-14
4.09798e-14
4.09847e-14
4.10048e-14
4.10486e-14
4.11285e-14
4.12568e-14
4.14244e-14
4.14523e-14
1.30671
1.30671
1.30671
1.30671
1.30671
1.30671
1.30671
1.30671
1.30671
1.30671
0.940647
0.94065
0.940647
0.940646
0.940645
0.940645
0.940646
0.940648
0.940651
0.940651
0.629467
0.629471
0.629468
0.629466
0.629466
0.629466
0.629468
0.629471
0.629475
0.629474
0.391155
0.391157
0.391155
0.391154
0.391153
0.391154
0.391156
0.39116
0.391165
0.391164
0.225893
0.225894
0.225892
0.225891
0.225891
0.225892
0.225894
0.225898
0.225904
0.225902
0.121494
0.121495
0.121494
0.121493
0.121493
0.121494
0.121495
0.121499
0.121504
0.121504
0.0610365
0.0610368
0.0610359
0.0610354
0.0610354
0.0610361
0.0610375
0.0610403
0.0610444
0.0610446
0.0287393
0.0287393
0.0287388
0.0287385
0.0287386
0.028739
0.02874
0.028742
0.0287449
0.0287453
0.012728
0.012728
0.0127277
0.0127276
0.0127276
0.0127279
0.0127286
0.0127298
0.0127316
0.0127321
0.00532097
0.00532092
0.00532078
0.00532071
0.00532075
0.00532092
0.0053213
0.005322
0.00532308
0.00532341
0.002107
0.00210697
0.0021069
0.00210687
0.00210689
0.00210699
0.00210719
0.00210756
0.00210813
0.00210835
0.000792875
0.000792857
0.000792827
0.000792816
0.000792829
0.000792876
0.000792976
0.000793157
0.00079344
0.000793561
0.000284413
0.000284405
0.000284392
0.000284388
0.000284395
0.000284416
0.000284462
0.000284546
0.000284675
0.000284737
9.75314e-05
9.75276e-05
9.75229e-05
9.75215e-05
9.75245e-05
9.7534e-05
9.75539e-05
9.75896e-05
9.76453e-05
9.76743e-05
3.20585e-05
3.2057e-05
3.20553e-05
3.20549e-05
3.20562e-05
3.20601e-05
3.20682e-05
3.20826e-05
3.21052e-05
3.21177e-05
1.01254e-05
1.01248e-05
1.01243e-05
1.01242e-05
1.01247e-05
1.01262e-05
1.01293e-05
1.01349e-05
1.01435e-05
1.01486e-05
3.07991e-06
3.07971e-06
3.07952e-06
3.07949e-06
3.0797e-06
3.08026e-06
3.0814e-06
3.08342e-06
3.08657e-06
3.0885e-06
9.04123e-07
9.04055e-07
9.03997e-07
9.03992e-07
9.04067e-07
9.04265e-07
9.04663e-07
9.05365e-07
9.06459e-07
9.07155e-07
2.56636e-07
2.56615e-07
2.56597e-07
2.56597e-07
2.56623e-07
2.5669e-07
2.56823e-07
2.57057e-07
2.5742e-07
2.57659e-07
7.05639e-08
7.05574e-08
7.05525e-08
7.0553e-08
7.05617e-08
7.05833e-08
7.06259e-08
7.07005e-08
7.08162e-08
7.08945e-08
1.88251e-08
1.88232e-08
1.88219e-08
1.88222e-08
1.88249e-08
1.88316e-08
1.88448e-08
1.88677e-08
1.89032e-08
1.89278e-08
4.88023e-09
4.87971e-09
4.87937e-09
4.87949e-09
4.88034e-09
4.88235e-09
4.88626e-09
4.89304e-09
4.90353e-09
4.91096e-09
1.23114e-09
1.231e-09
1.23091e-09
1.23096e-09
1.23121e-09
1.23179e-09
1.23292e-09
1.23486e-09
1.23785e-09
1.24001e-09
3.02624e-10
3.02588e-10
3.02568e-10
3.02583e-10
3.02654e-10
3.02818e-10
3.03131e-10
3.03668e-10
3.04496e-10
3.05105e-10
7.257e-11
7.25609e-11
7.25564e-11
7.25611e-11
7.25809e-11
7.26254e-11
7.27097e-11
7.28541e-11
7.30761e-11
7.32419e-11
1.69965e-11
1.69943e-11
1.69933e-11