/*--------------------------------*- C++ -*----------------------------------*\
| =========                 |                                                 |
| \\      /  F ield         | OpenFOAM: The Open Source CFD Toolbox           |
|  \\    /   O peration     | Version:  v1812                                 |
|   \\  /    A nd           | Web:      www.OpenFOAM.com                      |
|    \\/     M anipulation  |                                                 |
\*---------------------------------------------------------------------------*/
FoamFile
{
    version     2.0;
    format      ascii;
    class       volScalarField;
    location    "0.2";
    object      p;
}
// * * * * * * * * * * * * * * * * * * * * * * * * * * * * * * * * * * * * * //

dimensions      [0 2 -2 0 0 0 0];


internalField   nonuniform List<scalar> 
1000
(
1.8689877
1.7280105
1.6050459
1.5256625
1.4801867
1.4427042
1.4096922
1.3833047
1.3623029
1.3444663
1.3282489
1.3128142
1.2977522
1.2828681
1.2680703
1.2533153
1.2385819
1.2238598
1.2091436
1.1944305
1.1797188
1.1650076
1.1502963
1.1355848
1.1208728
1.1061604
1.0914475
1.0767343
1.0620207
1.0473069
1.0325927
1.0178783
1.0031636
0.98844863
0.97373342
0.95901796
0.94430227
0.92958634
0.91487022
0.9001539
0.88543742
0.87072078
0.85600402
0.84128712
0.82657014
0.81185305
0.79713591
0.78241869
0.76770143
0.75298411
0.73826677
0.72354939
0.708832
0.69411458
0.67939715
0.6646797
0.64996226
0.6352448
0.62052734
0.60580987
0.59109241
0.57637495
0.5616575
0.54694004
0.53222261
0.51750519
0.50278779
0.48807042
0.47335309
0.4586358
0.44391857
0.4292014
0.41448433
0.39976736
0.38505053
0.37033386
0.35561738
0.34090114
0.32618522
0.31146972
0.2967548
0.28204046
0.26732649
0.25261215
0.23789651
0.22317917
0.20846105
0.1937447
0.17903269
0.16432551
0.14961884
0.13491193
0.12018223
0.10550926
0.090635037
0.076555845
0.063225903
0.050261225
0.026666589
0.0029659873
1.7597575
1.6856767
1.5896687
1.517102
1.4759502
1.4403767
1.4076944
1.3815739
1.3610371
1.3436594
1.3277786
1.312555
1.297614
1.2827961
1.2680334
1.2532966
1.2385727
1.2238554
1.2091418
1.1944299
1.1797189
1.165008
1.150297
1.1355855
1.1208735
1.1061611
1.0914482
1.0767349
1.0620213
1.0473074
1.0325932
1.0178787
1.003164
0.98844899
0.97373375
0.95901825
0.94430253
0.92958658
0.91487043
0.90015408
0.88543758
0.87072092
0.85600413
0.84128722
0.82657022
0.81185312
0.79713597
0.78241873
0.76770147
0.75298414
0.7382668
0.72354941
0.70883202
0.69411459
0.67939716
0.66467971
0.64996226
0.6352448
0.62052734
0.60580987
0.5910924
0.57637493
0.56165747
0.54694001
0.53222257
0.51750513
0.50278772
0.48807033
0.47335298
0.45863565
0.44391839
0.42920118
0.41448406
0.39976704
0.38505015
0.37033341
0.35561687
0.34090057
0.3261846
0.31146906
0.29675411
0.28203979
0.26732588
0.25261165
0.23789614
0.22317878
0.2084605
0.19374389
0.17903163
0.16432488
0.14961781
0.13491503
0.12017194
0.10553246
0.090522744
0.076458842
0.06338083
0.051883562
0.027548828
0.0016638457
1.7057333
1.6602686
1.5804655
1.5128953
1.4735035
1.4384094
1.4056796
1.3797038
1.3595755
1.3426623
1.3271598
1.3121951
1.2974139
1.2826883
1.2679769
1.2532678
1.2385585
1.2238488
1.2091391
1.1944293
1.1797193
1.1650089
1.1502981
1.1355867
1.1208747
1.1061622
1.0914493
1.076736
1.0620223
1.0473083
1.032594
1.0178795
1.0031647
0.98844961
0.9737343
0.95901874
0.94430296
0.92958696
0.91487076
0.90015438
0.88543783
0.87072114
0.85600432
0.84128738
0.82657035
0.81185324
0.79713606
0.78241881
0.76770153
0.7529842
0.73826684
0.72354945
0.70883204
0.69411461
0.67939717
0.66467972
0.64996226
0.6352448
0.62052733
0.60580985
0.59109238
0.5763749
0.56165743
0.54693996
0.53222249
0.51750503
0.50278759
0.48807017
0.47335276
0.45863539
0.44391806
0.42920077
0.41448356
0.39976644
0.38504944
0.37033259
0.35561594
0.34089954
0.32618349
0.3114679
0.29675293
0.28203863
0.26732478
0.25261065
0.23789518
0.22317778
0.20845935
0.19374259
0.17903034
0.16432399
0.14961713
0.13491652
0.1201693
0.10554246
0.090498933
0.076499026
0.063822673
0.053123433
0.027933764
0.00086632076
1.6794271
1.643851
1.5723192
1.5086613
1.4708034
1.4363537
1.4039207
1.3782105
1.3584142
1.3418451
1.326632
1.3118764
1.2972312
1.2825879
1.2679237
1.2532407
1.2385454
1.2238431
1.2091372
1.1944293
1.1797202
1.1650103
1.1502997
1.1355883
1.1208763
1.1061638
1.0914507
1.0767373
1.0620235
1.0473094
1.0325951
1.0178804
1.0031655
0.98845038
0.97373499
0.95901936
0.9443035
0.92958744
0.91487118
0.90015474
0.88543815
0.87072141
0.85600455
0.84128758
0.82657051
0.81185338
0.79713617
0.78241891
0.76770161
0.75298426
0.73826689
0.72354949
0.70883207
0.69411464
0.67939719
0.66467973
0.64996226
0.6352448
0.62052732
0.60580984
0.59109235
0.57637486
0.56165737
0.54693988
0.53222239
0.5175049
0.50278742
0.48806994
0.47335248
0.45863503
0.44391761
0.42920022
0.41448288
0.39976562
0.38504847
0.37033147
0.35561468
0.34089816
0.32618203
0.31146639
0.29675142
0.28203716
0.26732337
0.25260928
0.23789381
0.22317632
0.20845778
0.19374099
0.17902888
0.16432298
0.14961666
0.1349176
0.1201714
0.10555585
0.090525521
0.076625432
0.064184517
0.053615191
0.027975811
0.00067775171
1.6678163
1.6354366
1.5674603
1.5059781
1.4691198
1.4351407
1.4029543
1.3774196
1.3577979
1.3414023
1.3263387
1.3116953
1.2971259
1.2825297
1.2678932
1.2532256
1.2385387
1.2238409
1.2091371
1.1944304
1.1797218
1.1650121
1.1503015
1.1355901
1.120878
1.1061654
1.0914523
1.0767387
1.0620248
1.0473106
1.0325961
1.0178814
1.0031664
0.98845119
0.9737357
0.95902
0.94430406
0.92958794
0.91487161
0.90015513
0.88543846
0.87072169
0.85600478
0.84128778
0.82657068
0.81185352
0.79713628
0.78241901
0.76770168
0.75298433
0.73826694
0.72354954
0.7088321
0.69411467
0.6793972
0.66467975
0.64996226
0.63524479
0.6205273
0.60580981
0.5910923
0.57637481
0.56165729
0.54693979
0.53222226
0.51750474
0.5027872
0.48806968
0.47335213
0.45863461
0.44391707
0.42919957
0.41448209
0.39976468
0.38504736
0.3703302
0.35561325
0.34089663
0.32618041
0.31146475
0.29674979
0.28203559
0.26732185
0.25260779
0.23789222
0.22317462
0.20845595
0.19373921
0.17902739
0.16432188
0.14961605
0.13491797
0.12017373
0.10556643
0.090553517
0.076710856
0.064352132
0.053749984
0.027956057
0.00065233578
1.6678184
1.6354389
1.5674631
1.5059813
1.4691234
1.4351445
1.402958
1.3774231
1.3578011
1.3414052
1.3263414
1.3116981
1.2971287
1.2825326
1.2678961
1.2532285
1.2385414
1.2238434
1.2091396
1.1944326
1.1797239
1.1650141
1.1503034
1.1355918
1.1208797
1.1061669
1.0914537
1.07674
1.062026
1.0473117
1.0325971
1.0178823
1.0031672
0.9884519
0.97373635
0.95902056
0.94430458
0.92958837
0.914872
0.90015545
0.88543876
0.87072193
0.856005
0.84128795
0.82657084
0.81185364
0.7971364
0.78241909
0.76770176
0.75298439
0.738267
0.72354957
0.70883214
0.69411468
0.67939723
0.66467974
0.64996227
0.63524477
0.62052728
0.60580977
0.59109227
0.57637474
0.56165722
0.54693968
0.53222213
0.51750456
0.50278699
0.48806939
0.47335179
0.45863416
0.44391653
0.42919889
0.41448128
0.39976371
0.38504624
0.37032891
0.35561185
0.34089512
0.32617886
0.31146321
0.29674831
0.28203418
0.26732052
0.25260642
0.23789074
0.22317293
0.20845417
0.19373752
0.17902596
0.16432074
0.14961502
0.13491688
0.12017253
0.10556526
0.09055256
0.076710193
0.064351617
0.053749605
0.027955664
0.00065214927
1.679433
1.6438576
1.5723269
1.5086705
1.4708139
1.4363648
1.4039315
1.3782204
1.3584232
1.3418534
1.32664
1.3118844
1.2972394
1.2825963
1.2679321
1.2532489
1.2385532
1.2238505
1.2091441
1.1944357
1.1797263
1.165016
1.150305
1.1355933
1.120881
1.1061681
1.0914548
1.076741
1.062027
1.0473126
1.0325979
1.017883
1.0031678
0.98845243
0.97373683
0.95902098
0.94430495
0.92958869
0.91487229
0.90015569
0.88543898
0.87072211
0.85600516
0.84128808
0.82657096
0.81185374
0.79713649
0.78241917
0.76770183
0.75298444
0.73826704
0.7235496
0.70883217
0.6941147
0.67939724
0.66467975
0.64996227
0.63524476
0.62052726
0.60580974
0.59109223
0.57637468
0.56165715
0.54693957
0.53222201
0.51750439
0.50278679
0.48806912
0.47335146
0.45863373
0.44391602
0.42919825
0.41448053
0.39976281
0.38504522
0.37032777
0.35561063
0.34089384
0.32617759
0.31146199
0.29674719
0.28203318
0.2673196
0.25260539
0.23788952
0.2231714
0.20845251
0.19373601
0.17902474
0.16431975
0.14961385
0.13491459
0.12016811
0.1055526
0.090522834
0.076623391
0.064182952
0.053613803
0.027974737
0.00067728388
1.7057419
1.6602779
1.5804769
1.5129095
1.4735198
1.4384266
1.4056963
1.3797191
1.3595893
1.3426749
1.3271719
1.3122073
1.2974264
1.2827012
1.2679898
1.2532804
1.2385705
1.2238602
1.2091497
1.1944391
1.1797285
1.1650176
1.1503062
1.1355943
1.1208819
1.1061689
1.0914555
1.0767417
1.0620275
1.0473131
1.0325984
1.0178834
1.0031682
0.98845276
0.97373709
0.95902123
0.94430514
0.92958889
0.91487244
0.90015585
0.8854391
0.87072224
0.85600525
0.84128819
0.82657103
0.81185382
0.79713654
0.78241923
0.76770187
0.75298449
0.73826707
0.72354964
0.70883218
0.69411473
0.67939724
0.66467976
0.64996225
0.63524476
0.62052723
0.60580972
0.59109217
0.57637463
0.56165706
0.54693949
0.53222188
0.51750427
0.50278659
0.48806892
0.47335116
0.45863341
0.44391558
0.42919776
0.41447991
0.39976212
0.38504441
0.37032693
0.35560972
0.34089297
0.32617676
0.31146128
0.29674662
0.28203276
0.26731916
0.25260482
0.23788851
0.22317001
0.20845094
0.19373467
0.17902397
0.16431935
0.14961335
0.13491249
0.12016451
0.10553742
0.090494443
0.076495568
0.063820157
0.053121536
0.027932271
0.00086572054
1.7597683
1.6856886
1.5896831
1.5171194
1.4759699
1.4403974
1.4077148
1.3815929
1.3610544
1.3436752
1.3277936
1.31257
1.2976294
1.2828118
1.2680492
1.2533121
1.2385875
1.2238694
1.2091548
1.194442
1.1797302
1.1650186
1.1503069
1.1355949
1.1208824
1.1061694
1.0914559
1.076742
1.0620278
1.0473134
1.0325986
1.0178836
1.0031683
0.98845289
0.9737372
0.95902132
0.94430522
0.92958896
0.9148725
0.9001559
0.88543914
0.87072227
0.85600528
0.84128822
0.82657106
0.81185384
0.79713656
0.78241925
0.76770188
0.7529845
0.73826708
0.72354965
0.70883219
0.69411473
0.67939724
0.66467976
0.64996225
0.63524474
0.62052722
0.60580969
0.59109214
0.5763746
0.56165702
0.54693943
0.53222181
0.51750416
0.50278647
0.48806875
0.47335097
0.45863316
0.44391529
0.42919741
0.41447951
0.39976167
0.38504394
0.37032644
0.35560927
0.34089255
0.32617644
0.31146109
0.29674659
0.28203281
0.2673191
0.25260435
0.23788741
0.22316847
0.20844962
0.19373424
0.1790246
0.16432024
0.14961387
0.13490999
0.12016529
0.10552543
0.090516979
0.076454981
0.063378434
0.051881534
0.027546993
0.0016629228
1.8690004
1.728025
1.6050624
1.5256811
1.4802071
1.4427257
1.4097137
1.3833252
1.3623218
1.3444839
1.3282656
1.3128307
1.2977689
1.2828851
1.2680874
1.2533321
1.238598
1.223875
1.2091578
1.1944437
1.1797311
1.1650192
1.1503073
1.1355951
1.1208826
1.1061695
1.091456
1.0767422
1.062028
1.0473134
1.0325987
1.0178836
1.0031684
0.98845291
0.97373723
0.95902133
0.94430524
0.92958895
0.9148725
0.90015589
0.88543914
0.87072227
0.85600529
0.84128821
0.82657106
0.81185384
0.79713657
0.78241924
0.76770189
0.75298449
0.73826708
0.72354964
0.70883219
0.69411472
0.67939724
0.66467975
0.64996225
0.63524473
0.62052721
0.60580967
0.59109213
0.57637457
0.56165699
0.54693939
0.53222177
0.5175041
0.50278641
0.48806866
0.47335088
0.45863304
0.44391516
0.42919724
0.41447933
0.39976147
0.38504374
0.37032625
0.35560911
0.34089248
0.32617649
0.31146128
0.29674691
0.28203306
0.26731901
0.25260361
0.23788615
0.22316721
0.20844915
0.19373506
0.17902633
0.16432122
0.14961396
0.13490475
0.12017343
0.10550124
0.090629767
0.076553385
0.063224449
0.050259194
0.026663819
0.0029645073
)
;

boundaryField
{
    top
    {
        type            zeroGradient;
    }
    inlet
    {
        type            zeroGradient;
    }
    outlet
    {
        type            fixedValue;
        value           uniform 0;
    }
    bottom
    {
        type            zeroGradient;
    }
    back
    {
        type            empty;
    }
    front
    {
        type            empty;
    }
}


// ************************************************************************* //
