/*--------------------------------*- C++ -*----------------------------------*\
| =========                 |                                                 |
| \\      /  F ield         | OpenFOAM: The Open Source CFD Toolbox           |
|  \\    /   O peration     | Version:  v1812                                 |
|   \\  /    A nd           | Web:      www.OpenFOAM.com                      |
|    \\/     M anipulation  |                                                 |
\*---------------------------------------------------------------------------*/
FoamFile
{
    version     2.0;
    format      ascii;
    class       volVectorField;
    location    "4.65";
    object      U;
}
// * * * * * * * * * * * * * * * * * * * * * * * * * * * * * * * * * * * * * //

dimensions      [0 1 -1 0 0 0 0];


internalField   nonuniform List<vector> 
1000
(
(0.91890839 0.035821913 0)
(0.86271384 0.062195638 0)
(0.7870597 0.062510091 0)
(0.69536033 0.054550395 0)
(0.61089745 0.044531651 0)
(0.54411592 0.03401597 0)
(0.49343012 0.024187537 0)
(0.45479414 0.016144224 0)
(0.42544583 0.010265776 0)
(0.40347315 0.0063041301 0)
(0.38715769 0.0037976085 0)
(0.37496224 0.0023103105 0)
(0.36566199 0.0014929752 0)
(0.35836283 0.0010850582 0)
(0.35244284 0.00090598586 0)
(0.34748224 0.00084093568 0)
(0.34320382 0.0008235746 0)
(0.33942774 0.00081911826 0)
(0.33603861 0.00081160151 0)
(0.33296209 0.00079547319 0)
(0.33014911 0.00077038604 0)
(0.32756571 0.00073816239 0)
(0.32518684 0.00070118215 0)
(0.32299277 0.00066163724 0)
(0.32096707 0.00062126144 0)
(0.31909553 0.00058128893 0)
(0.31736554 0.00054251086 0)
(0.31576586 0.0005053673 0)
(0.31428643 0.00047004495 0)
(0.3129183 0.00043656284 0)
(0.31165358 0.00040483851 0)
(0.31048534 0.00037473622 0)
(0.30940756 0.00034610057 0)
(0.30841499 0.00031878164 0)
(0.30750306 0.00029265034 0)
(0.30666776 0.00026760938 0)
(0.30590546 0.00024359592 0)
(0.30521285 0.0002205836 0)
(0.30458675 0.00019857766 0)
(0.30402402 0.00017761158 0)
(0.30352151 0.00015773778 0)
(0.30307592 0.0001390212 0)
(0.30268383 0.0001215287 0)
(0.30234163 0.00010532251 0)
(0.30204556 9.0451596e-05 0)
(0.30179176 7.6947149e-05 0)
(0.30157627 6.4817988e-05 0)
(0.30139513 5.4049201e-05 0)
(0.30124443 4.4602113e-05 0)
(0.3011204 3.6415924e-05 0)
(0.30101941 2.94113e-05 0)
(0.30093812 2.349369e-05 0)
(0.30087341 1.8558507e-05 0)
(0.30082251 1.4494528e-05 0)
(0.30078293 1.1190833e-05 0)
(0.30075253 8.5394341e-06 0)
(0.30072945 6.4394537e-06 0)
(0.30071215 4.7977047e-06 0)
(0.30069933 3.5314092e-06 0)
(0.30068995 2.5674152e-06 0)
(0.30068318 1.8436179e-06 0)
(0.30067835 1.3072157e-06 0)
(0.30067495 9.1530485e-07 0)
(0.30067259 6.3262437e-07 0)
(0.30067096 4.3175206e-07 0)
(0.30066987 2.9074134e-07 0)
(0.30066913 1.9335531e-07 0)
(0.30066865 1.2681352e-07 0)
(0.30066833 8.2216374e-08 0)
(0.30066813 5.2515364e-08 0)
(0.300668 3.3246605e-08 0)
(0.30066793 2.0697575e-08 0)
(0.30066787 1.2877717e-08 0)
(0.30066785 7.8272852e-09 0)
(0.30066783 4.8621102e-09 0)
(0.30066782 2.8900627e-09 0)
(0.30066781 1.881327e-09 0)
(0.30066781 1.0834505e-09 0)
(0.3006678 8.1580039e-10 0)
(0.3006678 4.3157431e-10 0)
(0.3006678 4.6212986e-10 0)
(0.3006678 1.9193494e-10 0)
(0.3006678 3.615901e-10 0)
(0.3006678 9.2450679e-11 0)
(0.3006678 4.0794367e-10 0)
(0.3006678 1.040449e-10 0)
(0.30066779 6.5952111e-10 0)
(0.3006678 4.0103272e-10 0)
(0.30066779 1.5050463e-09 0)
(0.3006678 1.5188096e-09 0)
(0.30066778 3.7656702e-09 0)
(0.30066779 4.6626944e-09 0)
(0.30066777 9.8436398e-09 0)
(0.30066777 1.4650659e-08 0)
(0.30066772 3.0656742e-08 0)
(0.30066771 5.3554425e-08 0)
(0.30066756 1.0556685e-07 0)
(0.30066746 1.8245007e-07 0)
(0.30066694 3.1599775e-07 0)
(0.3006665 4.3236784e-07 0)
(1.0016583 0.05381943 0)
(1.0359761 0.10128444 0)
(1.0597199 0.11073663 0)
(1.0628947 0.10592202 0)
(1.0515569 0.096228728 0)
(1.0340529 0.08393406 0)
(1.0142795 0.07032706 0)
(0.99360702 0.056981328 0)
(0.97292577 0.045107469 0)
(0.9531074 0.035236734 0)
(0.9347954 0.027401625 0)
(0.91829016 0.021387191 0)
(0.90362386 0.016884445 0)
(0.8906808 0.013569629 0)
(0.87928197 0.01114763 0)
(0.86923279 0.0093734822 0)
(0.86034484 0.0080566652 0)
(0.85244761 0.0070567387 0)
(0.84539387 0.0062746681 0)
(0.83906013 0.0056429902 0)
(0.83334457 0.0051168534 0)
(0.82816375 0.004666854 0)
(0.82344936 0.0042737733 0)
(0.81914523 0.0039249285 0)
(0.81520489 0.0036117479 0)
(0.81158955 0.0033282123 0)
(0.80826656 0.0030698733 0)
(0.80520823 0.002833243 0)
(0.80239091 0.0026154319 0)
(0.79979436 0.0024139535 0)
(0.79740118 0.0022266324 0)
(0.79519641 0.0020515651 0)
(0.79316716 0.0018871065 0)
(0.79130229 0.0017318713 0)
(0.78959213 0.0015847397 0)
(0.7880282 0.0014448617 0)
(0.78660289 0.0013116498 0)
(0.78530929 0.0011847605 0)
(0.78414086 0.0010640638 0)
(0.7830913 0.00094960526 0)
(0.7821543 0.00084155825 0)
(0.78132349 0.00074017532 0)
(0.78059228 0.00064573668 0)
(0.77995385 0.00055850409 0)
(0.77940117 0.00047867997 0)
(0.77892703 0.00040637646 0)
(0.7785241 0.00034159407 0)
(0.77818507 0.00028421154 0)
(0.77790271 0.00023398611 0)
(0.77767003 0.00019056265 0)
(0.77748038 0.00015349067 0)
(0.77732751 0.00012224525 0)
(0.7772057 9.6251656e-05 0)
(0.77710975 7.4909003e-05 0)
(0.77703507 5.7615618e-05 0)
(0.77697763 4.3788458e-05 0)
(0.77693399 3.2880174e-05 0)
(0.77690124 2.438952e-05 0)
(0.77687696 1.7869685e-05 0)
(0.7768592 1.2930536e-05 0)
(0.77684636 9.2397059e-06 0)
(0.7768372 6.518958e-06 0)
(0.77683075 4.5409053e-06 0)
(0.77682626 3.1222975e-06 0)
(0.77682319 2.1191843e-06 0)
(0.77682111 1.4194392e-06 0)
(0.77681972 9.3842348e-07 0)
(0.7768188 6.1211808e-07 0)
(0.7768182 3.9422931e-07 0)
(0.77681782 2.5047396e-07 0)
(0.77681758 1.5734509e-07 0)
(0.77681743 9.7518622e-08 0)
(0.77681734 6.002655e-08 0)
(0.77681728 3.6447605e-08 0)
(0.77681725 2.2267846e-08 0)
(0.77681723 1.3365271e-08 0)
(0.77681722 8.3930603e-09 0)
(0.77681721 5.0377405e-09 0)
(0.7768172 3.5184746e-09 0)
(0.7768172 2.0908828e-09 0)
(0.7768172 1.8779359e-09 0)
(0.7768172 1.0134524e-09 0)
(0.77681719 1.3889307e-09 0)
(0.7768172 5.763399e-10 0)
(0.77681719 1.4189975e-09 0)
(0.7768172 4.7806542e-10 0)
(0.77681719 1.9744389e-09 0)
(0.7768172 9.6484052e-10 0)
(0.77681718 3.7332941e-09 0)
(0.7768172 3.146249e-09 0)
(0.77681717 8.522318e-09 0)
(0.77681721 9.9466657e-09 0)
(0.77681713 2.1394573e-08 0)
(0.77681721 3.1292803e-08 0)
(0.77681706 6.1486588e-08 0)
(0.77681719 1.0592568e-07 0)
(0.77681686 1.9322671e-07 0)
(0.7768171 3.3639801e-07 0)
(0.77681621 5.3196408e-07 0)
(0.77681686 8.0625152e-07 0)
(1.0014244 0.026824855 0)
(1.0291272 0.062791353 0)
(1.0654292 0.077736553 0)
(1.098962 0.080597201 0)
(1.1253149 0.078285171 0)
(1.145053 0.073153899 0)
(1.1594858 0.066111276 0)
(1.1694287 0.058162058 0)
(1.1755354 0.050296744 0)
(1.1785738 0.043150691 0)
(1.179357 0.036972797 0)
(1.1785949 0.031771587 0)
(1.1768303 0.02745177 0)
(1.1744518 0.023886659 0)
(1.1717287 0.020947452 0)
(1.1688444 0.018515522 0)
(1.1659195 0.016487689 0)
(1.1630318 0.014778904 0)
(1.1602297 0.013322095 0)
(1.1575418 0.012065821 0)
(1.1549834 0.010971068 0)
(1.1525611 0.010008218 0)
(1.1502764 0.0091545955 0)
(1.1481274 0.0083925981 0)
(1.1461101 0.007708326 0)
(1.1442197 0.007090594 0)
(1.1424507 0.0065302241 0)
(1.1407971 0.0060195304 0)
(1.1392531 0.0055519455 0)
(1.1378129 0.0051217704 0)
(1.136471 0.0047240201 0)
(1.135222 0.0043543334 0)
(1.1340609 0.0040089196 0)
(1.1329832 0.0036845304 0)
(1.1319847 0.0033784533 0)
(1.1310614 0.0030885106 0)
(1.1302098 0.0028130538 0)
(1.1294268 0.0025509425 0)
(1.1287095 0.002301505 0)
(1.1280551 0.0020644812 0)
(1.127461 0.0018399479 0)
(1.1269246 0.0016282303 0)
(1.1264435 0.0014298053 0)
(1.1260148 0.0012452044 0)
(1.1256358 0.0010749215 0)
(1.1253035 0.00091933382 0)
(1.1250146 0.00077863967 0)
(1.1247659 0.00065281614 0)
(1.1245538 0.00054159887 0)
(1.1243749 0.00044448254 0)
(1.1242255 0.00036074006 0)
(1.1241022 0.00028945619 0)
(1.1240015 0.00022957177 0)
(1.1239203 0.00017993319 0)
(1.1238556 0.00013934164 0)
(1.1238047 0.0001065995 0)
(1.1237651 8.0550428e-05 0)
(1.1237346 6.0111569e-05 0)
(1.1237116 4.429632e-05 0)
(1.1236943 3.2228572e-05 0)
(1.1236815 2.3148501e-05 0)
(1.1236722 1.6411843e-05 0)
(1.1236655 1.1483912e-05 0)
(1.1236607 7.9297384e-06 0)
(1.1236574 5.402772e-06 0)
(1.1236551 3.631526e-06 0)
(1.1236535 2.4080324e-06 0)
(1.1236525 1.5748538e-06 0)
(1.1236518 1.0160557e-06 0)
(1.1236513 6.4648356e-07 0)
(1.123651 4.0603689e-07 0)
(1.1236508 2.5159695e-07 0)
(1.1236507 1.542665e-07 0)
(1.1236506 9.3447508e-08 0)
(1.1236506 5.6454082e-08 0)
(1.1236505 3.3761501e-08 0)
(1.1236505 2.0631946e-08 0)
(1.1236505 1.2404785e-08 0)
(1.1236505 8.1836693e-09 0)
(1.1236505 5.0199857e-09 0)
(1.1236505 4.0347662e-09 0)
(1.1236505 2.4414844e-09 0)
(1.1236505 2.7375237e-09 0)
(1.1236505 1.4927507e-09 0)
(1.1236505 2.5399876e-09 0)
(1.1236505 1.2651304e-09 0)
(1.1236505 3.1198937e-09 0)
(1.1236505 1.9409851e-09 0)
(1.1236505 5.0719566e-09 0)
(1.1236505 4.9105787e-09 0)
(1.1236504 1.0395012e-08 0)
(1.1236506 1.4098333e-08 0)
(1.1236504 2.5091269e-08 0)
(1.1236506 4.2328967e-08 0)
(1.1236503 7.1178027e-08 0)
(1.1236507 1.3219327e-07 0)
(1.1236502 2.1212062e-07 0)
(1.1236508 3.7391267e-07 0)
(1.1236498 5.2994281e-07 0)
(1.1236512 7.7745946e-07 0)
(1.0007347 0.011814722 0)
(1.0178472 0.030860927 0)
(1.0462163 0.041434442 0)
(1.0799018 0.045193571 0)
(1.1132664 0.045502352 0)
(1.143782 0.044080308 0)
(1.1708941 0.041439982 0)
(1.1945687 0.037973675 0)
(1.2148582 0.034195724 0)
(1.2319651 0.030536876 0)
(1.2462682 0.027222025 0)
(1.2582338 0.024313887 0)
(1.2683134 0.021797832 0)
(1.2768873 0.019633567 0)
(1.2842551 0.017773677 0)
(1.2906475 0.016169415 0)
(1.2962425 0.014775224 0)
(1.3011783 0.013551742 0)
(1.3055633 0.012467038 0)
(1.3094821 0.011496256 0)
(1.3130017 0.010620394 0)
(1.3161757 0.0098249338 0)
(1.3190477 0.009098668 0)
(1.3216538 0.0084327885 0)
(1.3240246 0.0078202031 0)
(1.3261857 0.007255045 0)
(1.3281594 0.0067323268 0)
(1.3299645 0.0062476944 0)
(1.3316172 0.0057972477 0)
(1.3331316 0.0053774288 0)
(1.3345196 0.0049849657 0)
(1.3357915 0.0046168554 0)
(1.3369561 0.0042703641 0)
(1.3380208 0.0039430418 0)
(1.338992 0.0036327462 0)
(1.3398754 0.003337673 0)
(1.3406758 0.0030563814 0)
(1.3413977 0.0027878063 0)
(1.3420452 0.0025312566 0)
(1.3426223 0.0022863941 0)
(1.343133 0.0020531963 0)
(1.3435814 0.0018319003 0)
(1.3439716 0.0016229337 0)
(1.3443082 0.001426835 0)
(1.3445954 0.0012441723 0)
(1.3448381 0.0010754632 0)
(1.3450407 0.00092110577 0)
(1.3452079 0.00078132086 0)
(1.3453443 0.00065611375 0)
(1.345454 0.00054525403 0)
(1.3455412 0.00044827535 0)
(1.3456095 0.00036449233 0)
(1.3456623 0.00029303188 0)
(1.3457024 0.000232875 0)
(1.3457326 0.0001829036 0)
(1.3457548 0.00014194945 0)
(1.3457709 0.00010883935 0)
(1.3457824 8.2435856e-05 0)
(1.3457905 6.1668891e-05 0)
(1.345796 4.5560042e-05 0)
(1.3457998 3.3236865e-05 0)
(1.3458022 2.3940199e-05 0)
(1.3458038 1.7024064e-05 0)
(1.3458048 1.1950347e-05 0)
(1.3458054 8.2802861e-06 0)
(1.3458057 5.6624796e-06 0)
(1.3458059 3.8217114e-06 0)
(1.345806 2.545298e-06 0)
(1.345806 1.673072e-06 0)
(1.345806 1.0852164e-06 0)
(1.345806 6.9501945e-07 0)
(1.345806 4.3941967e-07 0)
(1.345806 2.7473086e-07 0)
(1.345806 1.6977828e-07 0)
(1.345806 1.0425283e-07 0)
(1.345806 6.3425092e-08 0)
(1.345806 3.8900754e-08 0)
(1.345806 2.3636725e-08 0)
(1.345806 1.5106125e-08 0)
(1.345806 9.3713015e-09 0)
(1.345806 6.794771e-09 0)
(1.345806 4.3551951e-09 0)
(1.345806 4.0039474e-09 0)
(1.345806 2.6116432e-09 0)
(1.345806 3.2375751e-09 0)
(1.345806 2.1909334e-09 0)
(1.345806 3.4826303e-09 0)
(1.345806 2.8960351e-09 0)
(1.3458059 4.9284904e-09 0)
(1.345806 5.7904279e-09 0)
(1.3458059 9.0188768e-09 0)
(1.3458061 1.3980289e-08 0)
(1.3458059 2.0484321e-08 0)
(1.3458062 3.7751801e-08 0)
(1.3458058 5.7056945e-08 0)
(1.3458063 1.0893727e-07 0)
(1.3458057 1.6360115e-07 0)
(1.3458066 2.8212902e-07 0)
(1.3458055 3.8000626e-07 0)
(1.3458073 5.3517059e-07 0)
(1.0005903 0.003462916 0)
(1.0136865 0.0093660201 0)
(1.0370283 0.013046807 0)
(1.0674202 0.014563262 0)
(1.1000315 0.014854526 0)
(1.1316428 0.014564993 0)
(1.1610745 0.01388834 0)
(1.1880674 0.012919248 0)
(1.2125204 0.011806508 0)
(1.2343939 0.010696428 0)
(1.2538076 0.009672741 0)
(1.2710338 0.008762817 0)
(1.2864008 0.0079659615 0)
(1.3002109 0.0072721897 0)
(1.3127098 0.0066687624 0)
(1.3240898 0.0061418457 0)
(1.3345027 0.0056779415 0)
(1.3440704 0.0052651146 0)
(1.3528908 0.00489362 0)
(1.3610436 0.0045559254 0)
(1.3685935 0.004246374 0)
(1.3755946 0.0039607519 0)
(1.3820927 0.0036959032 0)
(1.388128 0.0034494238 0)
(1.3937358 0.0032194292 0)
(1.3989479 0.0030043863 0)
(1.4037927 0.0028029972 0)
(1.4082961 0.002614117 0)
(1.4124814 0.0024366976 0)
(1.4163694 0.0022697519 0)
(1.4199792 0.002112341 0)
(1.4233276 0.0019635737 0)
(1.4264298 0.0018226134 0)
(1.4292993 0.0016886878 0)
(1.4319481 0.0015611042 0)
(1.4343869 0.0014392641 0)
(1.4366256 0.0013226803 0)
(1.438673 0.0012109854 0)
(1.4405375 0.0011039386 0)
(1.4422273 0.0010014228 0)
(1.4437503 0.00090343753 0)
(1.4451146 0.00081008168 0)
(1.4463285 0.00072153298 0)
(1.4474009 0.00063801963 0)
(1.4483407 0.00055979188 0)
(1.4491575 0.0004870908 0)
(1.4498611 0.00042012069 0)
(1.4504616 0.00035902413 0)
(1.450969 0.00030386371 0)
(1.4513935 0.00025461004 0)
(1.4517449 0.00021113727 0)
(1.4520326 0.00017322631 0)
(1.4522657 0.00014057333 0)
(1.4524523 0.00011280488 0)
(1.4525999 8.9494311e-05 0)
(1.4527155 7.018219e-05 0)
(1.4528047 5.4393965e-05 0)
(1.4528729 4.1659134e-05 0)
(1.4529243 3.1524689e-05 0)
(1.4529627 2.3568655e-05 0)
(1.4529908 1.7406859e-05 0)
(1.4530113 1.2699537e-05 0)
(1.453026 9.1518008e-06 0)
(1.4530364 6.5144419e-06 0)
(1.4530437 4.5801779e-06 0)
(1.4530487 3.1809357e-06 0)
(1.4530521 2.182236e-06 0)
(1.4530544 1.4791713e-06 0)
(1.4530559 9.9072805e-07 0)
(1.4530569 6.5606381e-07 0)
(1.4530576 4.2966298e-07 0)
(1.453058 2.7864485e-07 0)
(1.4530582 1.7905898e-07 0)
(1.4530584 1.1432683e-07 0)
(1.4530585 7.2649862e-08 0)
(1.4530586 4.6172879e-08 0)
(1.4530586 2.9493882e-08 0)
(1.4530586 1.9031177e-08 0)
(1.4530586 1.2614691e-08 0)
(1.4530586 8.5241764e-09 0)
(1.4530586 6.1550632e-09 0)
(1.4530586 4.5046021e-09 0)
(1.4530586 3.7504698e-09 0)
(1.4530587 3.023054e-09 0)
(1.4530586 2.9648279e-09 0)
(1.4530587 2.6579209e-09 0)
(1.4530586 3.0103279e-09 0)
(1.4530587 3.1308476e-09 0)
(1.4530586 3.8358728e-09 0)
(1.4530587 4.7647652e-09 0)
(1.4530586 5.8615788e-09 0)
(1.4530588 8.4483351e-09 0)
(1.4530585 1.0469314e-08 0)
(1.4530589 1.7655833e-08 0)
(1.4530585 2.4326229e-08 0)
(1.4530591 4.4173808e-08 0)
(1.4530585 6.346729e-08 0)
(1.4530594 1.0561898e-07 0)
(1.4530583 1.382332e-07 0)
(1.4530603 1.8961516e-07 0)
(1.0005903 -0.0034629157 0)
(1.0136865 -0.0093660193 0)
(1.0370283 -0.013046805 0)
(1.0674202 -0.01456326 0)
(1.1000315 -0.014854522 0)
(1.1316428 -0.014564987 0)
(1.1610745 -0.013888333 0)
(1.1880674 -0.012919238 0)
(1.2125204 -0.011806496 0)
(1.2343939 -0.010696412 0)
(1.2538076 -0.0096727211 0)
(1.2710338 -0.0087627925 0)
(1.2864008 -0.0079659316 0)
(1.3002109 -0.0072721539 0)
(1.3127098 -0.00666872 0)
(1.3240898 -0.0061417965 0)
(1.3345027 -0.0056778858 0)
(1.3440704 -0.0052650531 0)
(1.3528909 -0.0048935543 0)
(1.3610436 -0.0045558579 0)
(1.3685936 -0.0042463075 0)
(1.3755946 -0.0039606903 0)
(1.3820928 -0.0036958503 0)
(1.3881281 -0.003449384 0)
(1.3937359 -0.0032194063 0)
(1.3989479 -0.0030043838 0)
(1.4037928 -0.0028030174 0)
(1.4082962 -0.0026141618 0)
(1.4124814 -0.0024367672 0)
(1.4163694 -0.0022698455 0)
(1.4199792 -0.0021124561 0)
(1.4233276 -0.0019637068 0)
(1.4264298 -0.0018227599 0)
(1.4292992 -0.0016888428 0)
(1.431948 -0.001561262 0)
(1.4343868 -0.0014394195 0)
(1.4366255 -0.0013228283 0)
(1.4386729 -0.0012111215 0)
(1.4405374 -0.0011040597 0)
(1.4422272 -0.0010015263 0)
(1.4437501 -0.00090352245 0)
(1.4451144 -0.00081014771 0)
(1.4463284 -0.00072158121 0)
(1.4474007 -0.00063805158 0)
(1.4483406 -0.00055980998 0)
(1.4491574 -0.00048709747 0)
(1.449861 -0.00042011867 0)
(1.4504614 -0.00035901587 0)
(1.4509689 -0.00030385127 0)
(1.4513934 -0.00025459503 0)
(1.4517448 -0.00021112068 0)
(1.4520325 -0.00017320875 0)
(1.4522656 -0.00014055484 0)
(1.4524522 -0.00011278531 0)
(1.4525998 -8.9473183e-05 0)
(1.4527154 -7.0159074e-05 0)
(1.4528047 -5.43684e-05 0)
(1.4528728 -4.1630856e-05 0)
(1.4529243 -3.1493609e-05 0)
(1.4529626 -2.3534891e-05 0)
(1.4529908 -1.7370794e-05 0)
(1.4530113 -1.2661635e-05 0)
(1.453026 -9.1127752e-06 0)
(1.4530364 -6.4749225e-06 0)
(1.4530436 -4.5409972e-06 0)
(1.4530487 -3.1426683e-06 0)
(1.4530521 -2.1456053e-06 0)
(1.4530544 -1.4445528e-06 0)
(1.4530559 -9.5864284e-07 0)
(1.4530569 -6.2662327e-07 0)
(1.4530575 -4.0313755e-07 0)
(1.453058 -2.549109e-07 0)
(1.4530582 -1.582057e-07 0)
(1.4530584 -9.6055532e-08 0)
(1.4530585 -5.6909727e-08 0)
(1.4530585 -3.257395e-08 0)
(1.4530586 -1.7943033e-08 0)
(1.4530586 -9.1000311e-09 0)
(1.4530586 -4.1950971e-09 0)
(1.4530586 -1.2018718e-09 0)
(1.4530586 1.388547e-10 0)
(1.4530586 1.1446763e-09 0)
(1.4530586 1.3069701e-09 0)
(1.4530587 1.8039775e-09 0)
(1.4530586 1.6420916e-09 0)
(1.4530587 2.0866315e-09 0)
(1.4530586 1.8962517e-09 0)
(1.4530587 2.327149e-09 0)
(1.4530586 2.1887371e-09 0)
(1.4530587 2.1465661e-09 0)
(1.4530585 1.7370035e-09 0)
(1.4530588 -2.6572902e-10 0)
(1.4530585 -2.1923335e-09 0)
(1.4530589 -9.5077644e-09 0)
(1.4530585 -1.6435445e-08 0)
(1.4530591 -3.6379795e-08 0)
(1.4530585 -5.5784356e-08 0)
(1.4530594 -9.876201e-08 0)
(1.4530583 -1.3275678e-07 0)
(1.4530603 -1.8532302e-07 0)
(1.0007347 -0.011814721 0)
(1.0178472 -0.030860926 0)
(1.0462163 -0.04143444 0)
(1.0799018 -0.045193568 0)
(1.1132664 -0.045502348 0)
(1.143782 -0.044080303 0)
(1.1708941 -0.041439975 0)
(1.1945687 -0.037973667 0)
(1.2148582 -0.034195712 0)
(1.2319651 -0.030536861 0)
(1.2462682 -0.027222007 0)
(1.2582338 -0.024313865 0)
(1.2683134 -0.021797806 0)
(1.2768873 -0.019633536 0)
(1.2842551 -0.01777364 0)
(1.2906476 -0.016169373 0)
(1.2962425 -0.014775176 0)
(1.3011784 -0.01355169 0)
(1.3055634 -0.012466983 0)
(1.3094822 -0.011496201 0)
(1.3130018 -0.01062034 0)
(1.3161758 -0.0098248847 0)
(1.3190478 -0.0090986267 0)
(1.321654 -0.0084327579 0)
(1.3240247 -0.0078201864 0)
(1.3261859 -0.0072550443 0)
(1.3281595 -0.0067323442 0)
(1.3299646 -0.0062477304 0)
(1.3316173 -0.0057973023 0)
(1.3331317 -0.0053775005 0)
(1.3345197 -0.0049850526 0)
(1.3357915 -0.0046169544 0)
(1.336956 -0.0042704721 0)
(1.3380207 -0.0039431549 0)
(1.3389919 -0.0036328609 0)
(1.3398752 -0.0033377857 0)
(1.3406756 -0.003056489 0)
(1.3413974 -0.0027879063 0)
(1.3420449 -0.0025313469 0)
(1.342622 -0.0022864733 0)
(1.3431327 -0.0020532638 0)
(1.343581 -0.0018319559 0)
(1.3439713 -0.0016229778 0)
(1.3443078 -0.0014268684 0)
(1.3445951 -0.0012441961 0)
(1.3448377 -0.0010754787 0)
(1.3450404 -0.00092111427 0)
(1.3452076 -0.00078132359 0)
(1.345344 -0.00065611175 0)
(1.3454538 -0.00054524824 0)
(1.345541 -0.00044826631 0)
(1.3456093 -0.00036448054 0)
(1.345662 -0.00029301742 0)
(1.3457022 -0.00023285808 0)
(1.3457323 -0.00018288407 0)
(1.3457545 -0.00014192748 0)
(1.3457707 -0.0001088148 0)
(1.3457822 -8.2409088e-05 0)
(1.3457903 -6.1639913e-05 0)
(1.3457958 -4.5529465e-05 0)
(1.3457996 -3.3204877e-05 0)
(1.3458021 -2.3907597e-05 0)
(1.3458036 -1.6991103e-05 0)
(1.3458046 -1.1917887e-05 0)
(1.3458052 -8.2485394e-06 0)
(1.3458056 -5.6322252e-06 0)
(1.3458058 -3.7930033e-06 0)
(1.3458059 -2.5187672e-06 0)
(1.345806 -1.6485864e-06 0)
(1.345806 -1.0632249e-06 0)
(1.345806 -6.7520095e-07 0)
(1.345806 -4.2208099e-07 0)
(1.345806 -2.5942027e-07 0)
(1.345806 -1.566949e-07 0)
(1.345806 -9.2852392e-08 0)
(1.345806 -5.3866503e-08 0)
(1.345806 -3.0612057e-08 0)
(1.345806 -1.6759866e-08 0)
(1.345806 -9.0651353e-09 0)
(1.345806 -4.3341174e-09 0)
(1.345806 -2.2131296e-09 0)
(1.345806 -4.3555319e-10 0)
(1.345806 -2.1128686e-10 0)
(1.345806 8.3963714e-10 0)
(1.345806 3.7462882e-10 0)
(1.345806 1.3519948e-09 0)
(1.345806 5.2112214e-10 0)
(1.345806 1.3239658e-09 0)
(1.3458059 5.8567588e-11 0)
(1.345806 -3.7932505e-10 0)
(1.3458059 -2.8139789e-09 0)
(1.3458061 -7.6360981e-09 0)
(1.3458059 -1.3957147e-08 0)
(1.3458062 -3.1697438e-08 0)
(1.3458058 -5.1178436e-08 0)
(1.3458063 -1.0329223e-07 0)
(1.3458058 -1.5788179e-07 0)
(1.3458066 -2.7696089e-07 0)
(1.3458055 -3.7559551e-07 0)
(1.3458073 -5.3148381e-07 0)
(1.0014244 -0.026824854 0)
(1.0291272 -0.062791352 0)
(1.0654292 -0.077736552 0)
(1.098962 -0.080597199 0)
(1.1253149 -0.078285168 0)
(1.145053 -0.073153895 0)
(1.1594858 -0.066111271 0)
(1.1694287 -0.058162051 0)
(1.1755354 -0.050296736 0)
(1.1785738 -0.04315068 0)
(1.1793571 -0.036972784 0)
(1.1785949 -0.031771571 0)
(1.1768304 -0.027451751 0)
(1.1744518 -0.023886637 0)
(1.1717287 -0.020947426 0)
(1.1688444 -0.018515493 0)
(1.1659195 -0.016487657 0)
(1.1630319 -0.01477887 0)
(1.1602298 -0.013322061 0)
(1.157542 -0.012065787 0)
(1.1549835 -0.010971036 0)
(1.1525613 -0.01000819 0)
(1.1502766 -0.0091545729 0)
(1.1481276 -0.0083925823 0)
(1.1461103 -0.0077083186 0)
(1.1442199 -0.0070905958 0)
(1.1424508 -0.0065302356 0)
(1.1407972 -0.0060195513 0)
(1.1392532 -0.0055519755 0)
(1.137813 -0.0051218084 0)
(1.136471 -0.0047240649 0)
(1.135222 -0.0043543837 0)
(1.1340609 -0.0040089737 0)
(1.1329831 -0.0036845871 0)
(1.1319845 -0.003378511 0)
(1.1310612 -0.0030885684 0)
(1.1302096 -0.0028131103 0)
(1.1294265 -0.0025509972 0)
(1.1287092 -0.0023015566 0)
(1.1280547 -0.0020645296 0)
(1.1274606 -0.0018399921 0)
(1.1269243 -0.0016282703 0)
(1.1264431 -0.0014298403 0)
(1.1260144 -0.0012452346 0)
(1.1256354 -0.0010749464 0)
(1.1253031 -0.00091935373 0)
(1.1250142 -0.00077865457 0)
(1.1247655 -0.00065282626 0)
(1.1245534 -0.0005416046 0)
(1.1243745 -0.00044448406 0)
(1.1242251 -0.00036073795 0)
(1.1241018 -0.00028945054 0)
(1.1240012 -0.00022956325 0)
(1.12392 -0.00017992184 0)
(1.1238553 -0.00013932813 0)
(1.1238044 -0.00010658387 0)
(1.1237648 -8.0533355e-05 0)
(1.1237344 -6.0093119e-05 0)
(1.1237113 -4.427712e-05 0)
(1.1236941 -3.2208737e-05 0)
(1.1236813 -2.3128598e-05 0)
(1.123672 -1.6391995e-05 0)
(1.1236653 -1.1464607e-05 0)
(1.1236606 -7.9110797e-06 0)
(1.1236573 -5.3851341e-06 0)
(1.123655 -3.6149469e-06 0)
(1.1236534 -2.3927799e-06 0)
(1.1236524 -1.5608938e-06 0)
(1.1236517 -1.0035409e-06 0)
(1.1236512 -6.3530014e-07 0)
(1.1236509 -3.9626006e-07 0)
(1.1236508 -2.4305751e-07 0)
(1.1236506 -1.4697049e-07 0)
(1.1236506 -8.7182527e-08 0)
(1.1236505 -5.1204385e-08 0)
(1.1236505 -2.9300958e-08 0)
(1.1236505 -1.692829e-08 0)
(1.1236505 -9.2322318e-09 0)
(1.1236505 -5.5227381e-09 0)
(1.1236505 -2.6627903e-09 0)
(1.1236505 -1.9733144e-09 0)
(1.1236505 -4.5710323e-10 0)
(1.1236505 -8.6548626e-10 0)
(1.1236505 4.4408803e-10 0)
(1.1236505 -5.6909483e-10 0)
(1.1236505 9.2482406e-10 0)
(1.1236505 -7.4737086e-10 0)
(1.1236505 7.8693914e-10 0)
(1.1236505 -2.0397613e-09 0)
(1.1236505 -1.459408e-09 0)
(1.1236505 -6.6897057e-09 0)
(1.1236506 -1.0216097e-08 0)
(1.1236504 -2.1322949e-08 0)
(1.1236506 -3.8945476e-08 0)
(1.1236503 -6.8106462e-08 0)
(1.1236507 -1.2914471e-07 0)
(1.1236502 -2.0892169e-07 0)
(1.1236508 -3.7107453e-07 0)
(1.1236498 -5.2779708e-07 0)
(1.1236512 -7.7573605e-07 0)
(1.0016583 -0.05381943 0)
(1.0359761 -0.10128444 0)
(1.0597199 -0.11073663 0)
(1.0628947 -0.10592201 0)
(1.0515569 -0.096228726 0)
(1.0340529 -0.083934058 0)
(1.0142795 -0.070327057 0)
(0.99360703 -0.056981324 0)
(0.97292578 -0.045107464 0)
(0.95310742 -0.035236728 0)
(0.93479543 -0.027401619 0)
(0.91829019 -0.021387184 0)
(0.9036239 -0.016884437 0)
(0.89068085 -0.013569619 0)
(0.87928203 -0.011147619 0)
(0.86923287 -0.009373471 0)
(0.86034492 -0.0080566535 0)
(0.85244771 -0.0070567266 0)
(0.84539398 -0.006274656 0)
(0.83906026 -0.0056429785 0)
(0.83334471 -0.0051168425 0)
(0.8281639 -0.0046668442 0)
(0.82344951 -0.0042737649 0)
(0.81914538 -0.003924922 0)
(0.81520504 -0.0036117434 0)
(0.81158969 -0.00332821 0)
(0.80826669 -0.0030698733 0)
(0.80520834 -0.0028332455 0)
(0.802391 -0.0026154367 0)
(0.79979443 -0.0024139606 0)
(0.79740122 -0.0022266416 0)
(0.79519642 -0.0020515763 0)
(0.79316713 -0.0018871195 0)
(0.79130223 -0.0017318859 0)
(0.78959204 -0.0015847557 0)
(0.78802806 -0.0014448789 0)
(0.78660272 -0.0013116679 0)
(0.78530908 -0.0011847791 0)
(0.78414063 -0.0010640828 0)
(0.78309103 -0.00094962396 0)
(0.78215402 -0.00084157644 0)
(0.78132318 -0.00074019243 0)
(0.78059195 -0.00064575247 0)
(0.77995351 -0.00055851815 0)
(0.77940082 -0.00047869213 0)
(0.77892667 -0.00040638659 0)
(0.77852374 -0.00034160212 0)
(0.77818471 -0.00028421762 0)
(0.77790236 -0.00023399027 0)
(0.7776697 -0.00019056517 0)
(0.77748006 -0.00015349163 0)
(0.77732721 -0.00012224499 0)
(0.77720541 -9.6250232e-05 0)
(0.77710948 -7.4906738e-05 0)
(0.77703482 -5.761252e-05 0)
(0.7769774 -4.3784809e-05 0)
(0.77693378 -3.287594e-05 0)
(0.77690105 -2.4384951e-05 0)
(0.77687679 -1.7864761e-05 0)
(0.77685904 -1.2925468e-05 0)
(0.77684622 -9.2344721e-06 0)
(0.77683708 -6.5137565e-06 0)
(0.77683064 -4.5357371e-06 0)
(0.77682617 -3.1173242e-06 0)
(0.7768231 -2.1143901e-06 0)
(0.77682104 -1.4149666e-06 0)
(0.77681966 -9.3425845e-07 0)
(0.77681875 -6.0835412e-07 0)
(0.77681816 -3.9081734e-07 0)
(0.77681779 -2.4748652e-07 0)
(0.77681756 -1.547257e-07 0)
(0.77681741 -9.5298448e-08 0)
(0.77681732 -5.8115559e-08 0)
(0.77681727 -3.4870204e-08 0)
(0.77681724 -2.0941218e-08 0)
(0.77681722 -1.2288593e-08 0)
(0.77681721 -7.4698529e-09 0)
(0.77681721 -4.2767324e-09 0)
(0.7768172 -2.8392421e-09 0)
(0.77681721 -1.4939552e-09 0)
(0.7768172 -1.2713822e-09 0)
(0.77681721 -4.2149923e-10 0)
(0.7768172 -7.421138e-10 0)
(0.77681721 1.0340113e-10 0)
(0.7768172 -6.0654689e-10 0)
(0.77681721 4.3608179e-10 0)
(0.7768172 -9.154384e-10 0)
(0.77681721 1.8138047e-10 0)
(0.77681719 -2.5543818e-09 0)
(0.77681722 -2.0472616e-09 0)
(0.77681718 -7.5733388e-09 0)
(0.77681722 -9.0838097e-09 0)
(0.77681715 -2.0468753e-08 0)
(0.77681723 -3.0104431e-08 0)
(0.77681708 -5.9612686e-08 0)
(0.77681721 -1.0356131e-07 0)
(0.77681688 -1.915263e-07 0)
(0.77681712 -3.364442e-07 0)
(0.77681623 -5.330104e-07 0)
(0.77681688 -8.0719697e-07 0)
(0.91890839 -0.035821913 0)
(0.86271384 -0.062195638 0)
(0.7870597 -0.06251009 0)
(0.69536033 -0.054550395 0)
(0.61089745 -0.04453165 0)
(0.54411592 -0.034015969 0)
(0.49343013 -0.024187535 0)
(0.45479414 -0.016144223 0)
(0.42544584 -0.010265775 0)
(0.40347316 -0.0063041287 0)
(0.38715771 -0.0037976072 0)
(0.37496226 -0.0023103092 0)
(0.36566201 -0.001492974 0)
(0.35836285 -0.001085057 0)
(0.35244286 -0.00090598467 0)
(0.34748228 -0.00084093445 0)
(0.34320385 -0.00082357321 0)
(0.33942778 -0.00081911665 0)
(0.33603865 -0.00081159964 0)
(0.33296213 -0.00079547105 0)
(0.33014916 -0.00077038352 0)
(0.32756576 -0.00073815952 0)
(0.32518689 -0.00070117891 0)
(0.32299282 -0.00066163386 0)
(0.32096713 -0.00062125793 0)
(0.31909558 -0.00058128551 0)
(0.31736559 -0.00054250757 0)
(0.3157659 -0.00050536436 0)
(0.31428647 -0.00047004244 0)
(0.31291833 -0.00043656077 0)
(0.3116536 -0.00040483703 0)
(0.31048535 -0.00037473516 0)
(0.30940756 -0.00034610023 0)
(0.30841497 -0.0003187816 0)
(0.30750303 -0.000292651 0)
(0.30666771 -0.00026761015 0)
(0.3059054 -0.00024359739 0)
(0.30521277 -0.00022058504 0)
(0.30458665 -0.00019857964 0)
(0.30402392 -0.00017761338 0)
(0.30352139 -0.00015773995 0)
(0.3030758 -0.00013902313 0)
(0.3026837 -0.00012153082 0)
(0.30234149 -0.0001053244 0)
(0.30204542 -9.0453503e-05 0)
(0.30179161 -7.6948921e-05 0)
(0.30157612 -6.4819693e-05 0)
(0.30139499 -5.4050889e-05 0)
(0.3012443 -4.4603656e-05 0)
(0.30112027 -3.6417563e-05 0)
(0.30101929 -2.9412767e-05 0)
(0.30093801 -2.3495316e-05 0)
(0.30087331 -1.8559895e-05 0)
(0.30082241 -1.4496059e-05 0)
(0.30078285 -1.1192062e-05 0)
(0.30075245 -8.5407485e-06 0)
(0.30072938 -6.4404003e-06 0)
(0.30071208 -4.7986885e-06 0)
(0.30069927 -3.5320166e-06 0)
(0.3006899 -2.5680286e-06 0)
(0.30068314 -1.8438688e-06 0)
(0.30067831 -1.3074917e-06 0)
(0.30067492 -9.1527959e-07 0)
(0.30067256 -6.3264927e-07 0)
(0.30067094 -4.3152816e-07 0)
(0.30066985 -2.9062046e-07 0)
(0.30066912 -1.9305172e-07 0)
(0.30066864 -1.2663956e-07 0)
(0.30066833 -8.1890729e-08 0)
(0.30066813 -5.2353935e-08 0)
(0.300668 -3.2966275e-08 0)
(0.30066792 -2.0582354e-08 0)
(0.30066787 -1.2642007e-08 0)
(0.30066784 -7.7668299e-09 0)
(0.30066783 -4.688369e-09 0)
(0.30066782 -2.8720745e-09 0)
(0.30066781 -1.7332665e-09 0)
(0.30066781 -1.0890692e-09 0)
(0.30066781 -6.8888333e-10 0)
(0.3006678 -4.3636569e-10 0)
(0.3006678 -3.1218439e-10 0)
(0.3006678 -1.808803e-10 0)
(0.3006678 -1.8172427e-10 0)
(0.3006678 -2.9379823e-11 0)
(0.3006678 -1.4452212e-10 0)
(0.3006678 4.1988112e-11 0)
(0.3006678 -3.6284771e-10 0)
(0.3006678 -3.2154671e-10 0)
(0.3006678 -1.4446821e-09 0)
(0.3006678 -1.8614914e-09 0)
(0.30066779 -4.1335767e-09 0)
(0.30066779 -5.1414651e-09 0)
(0.30066777 -9.8110804e-09 0)
(0.30066778 -1.3769724e-08 0)
(0.30066773 -2.8748541e-08 0)
(0.30066772 -5.1942144e-08 0)
(0.30066756 -1.0566757e-07 0)
(0.30066746 -1.8416017e-07 0)
(0.30066694 -3.1786073e-07 0)
(0.30066651 -4.3354091e-07 0)
)
;

boundaryField
{
    top
    {
        type            fixedValue;
        value           uniform (0 0 0);
    }
    inlet
    {
        type            fixedValue;
        value           uniform (1 0 0);
    }
    outlet
    {
        type            zeroGradient;
    }
    bottom
    {
        type            fixedValue;
        value           uniform (0 0 0);
    }
    back
    {
        type            empty;
    }
    front
    {
        type            empty;
    }
}


// ************************************************************************* //
