/*--------------------------------*- C++ -*----------------------------------*\
| =========                 |                                                 |
| \\      /  F ield         | OpenFOAM: The Open Source CFD Toolbox           |
|  \\    /   O peration     | Version:  v1812                                 |
|   \\  /    A nd           | Web:      www.OpenFOAM.com                      |
|    \\/     M anipulation  |                                                 |
\*---------------------------------------------------------------------------*/
FoamFile
{
    version     2.0;
    format      ascii;
    class       surfaceScalarField;
    location    "5";
    object      phi;
}
// * * * * * * * * * * * * * * * * * * * * * * * * * * * * * * * * * * * * * //

dimensions      [0 3 -1 0 0 0 0];
oriented        oriented;


internalField   nonuniform List<scalar> 
1890
(
0.0019646657
5.5342411e-06
0.0019488447
1.5821289e-05
0.0019324173
1.6427365e-05
0.0019197454
1.2671932e-05
0.0019107589
8.9868238e-06
0.0019041671
6.5920123e-06
0.0018991165
5.0508282e-06
0.0018952324
3.8842674e-06
0.0018922955
2.9371438e-06
0.0018901055
2.1903539e-06
0.001888488
1.6179115e-06
0.0018873117
1.1765408e-06
0.0018864804
8.3144514e-07
0.0018859169
5.6358335e-07
0.0018855548
3.622495e-07
0.0018853369
2.1791682e-07
0.001885217
1.2000507e-07
0.0018851592
5.7829153e-08
0.0018851379
2.1436537e-08
0.0018851357
2.2503408e-09
0.0018851409
-5.0276778e-09
0.0018851482
-7.2780082e-09
0.001885155
-6.7029106e-09
0.0018851602
-5.1230379e-09
0.0018851638
-3.4848904e-09
0.001885166
-2.1618361e-09
0.0018851673
-1.234333e-09
0.0018851679
-6.4364398e-10
0.0018851682
-3.014854e-10
0.0018851684
-1.1699637e-10
0.0018851684
-2.8333927e-11
0.0018851684
8.4794622e-12
0.0018851684
1.9367353e-11
0.0018851684
2.1056054e-11
0.0018851684
1.6691523e-11
0.0018851684
1.366746e-11
0.0018851684
8.9816113e-12
0.0018851683
7.1624378e-12
0.0018851683
3.8602818e-12
0.0018851683
3.1202199e-12
0.0018851683
9.8325714e-13
0.0018851683
9.2847766e-13
0.0018851683
-4.7886723e-13
0.0018851683
-9.1797464e-14
0.0018851683
-8.5843977e-13
0.0018851683
1.185965e-14
0.0018851683
-4.5001659e-13
0.0018851683
6.5352565e-13
0.0018851683
2.2230885e-13
0.0018851683
1.4113582e-12
0.0018851683
7.2517702e-13
0.0018851683
1.7032024e-12
0.0018851683
7.8454444e-13
0.0018851683
1.4883321e-12
0.0018851683
3.4876263e-13
0.0018851683
6.6118306e-13
0.0018851683
-5.7742992e-13
0.0018851683
-1.8594249e-13
0.0018851683
-1.4611e-12
0.0018851683
-8.8272244e-13
0.0018851683
-1.9867667e-12
0.0018851683
-1.0678425e-12
0.0018851683
-1.9148211e-12
0.0018851683
-7.902779e-13
0.0018851683
-1.2531085e-12
0.0018851683
-3.0534789e-14
0.0018851683
-2.196525e-13
0.0018851683
1.0429194e-12
0.0018851683
6.4732191e-13
0.0018851683
1.9974942e-12
0.0018851683
1.3025399e-12
0.0018851683
2.4070945e-12
0.0018851683
1.4734637e-12
0.0018851683
2.3316896e-12
0.0018851683
1.1077901e-12
0.0018851683
1.6122041e-12
0.0018851683
3.5438431e-13
0.0018851683
6.1487697e-13
0.0018851683
-7.5203654e-13
0.0018851683
-4.2122654e-13
0.0018851683
-1.7535704e-12
0.0018851683
-1.1467198e-12
0.0018851683
-2.4058994e-12
0.0018851683
-1.5852951e-12
0.0018851683
-2.5545547e-12
0.0018851683
-1.4205524e-12
0.0018851683
-2.1216144e-12
0.0018851683
-8.0131283e-13
0.0018851683
-1.0262457e-12
0.0018851683
6.3704731e-13
0.0018851683
9.0407946e-13
0.0018851683
3.0557199e-12
0.0018851683
4.5050398e-12
0.0018851683
8.5264083e-12
0.0018851683
1.5653118e-11
0.0018851683
2.686789e-11
0.0018851682
5.0896067e-11
0.0018851681
7.9468882e-11
0.001885168
1.7869207e-10
2.2027903e-10
0.0044101574
6.2106481e-06
0.0044037231
2.2255488e-05
0.0043931515
2.6998094e-05
0.0043820263
2.3796914e-05
0.0043719901
1.9023378e-05
0.0043632806
1.53019e-05
0.0043558209
1.2510521e-05
0.0043495727
1.0132307e-05
0.0043444854
8.0244585e-06
0.0043404462
6.2296151e-06
0.0043373096
4.7546657e-06
0.0043349332
3.5529979e-06
0.0043331883
2.5764143e-06
0.0043319557
1.7961377e-06
0.0043311243
1.193668e-06
0.0043305931
7.4913116e-07
0.0043302752
4.3797979e-07
0.0043301001
2.329847e-07
0.0043300143
1.0733893e-07
0.0043299798
3.6902303e-08
0.0043299726
2.330177e-09
0.004329977
-1.1575328e-08
0.0043299849
-1.4473079e-08
0.0043299924
-1.2547809e-08
0.0043299982
-9.2134137e-09
0.0043300021
-6.0637626e-09
0.0043300046
-3.6501537e-09
0.004330006
-2.0221278e-09
0.0043300067
-1.0213835e-09
0.0043300071
-4.5873126e-10
0.0043300072
-1.6664416e-10
0.0043300073
-3.2542943e-11
0.0043300073
2.2339293e-11
0.0043300073
3.6322642e-11
0.0043300072
3.5818879e-11
0.0043300072
2.8201183e-11
0.0043300072
2.1890621e-11
0.0043300072
1.4765714e-11
0.0043300072
1.0656206e-11
0.0043300072
6.0857102e-12
0.0043300072
4.0873814e-12
0.0043300072
1.5069931e-12
0.0043300072
6.3093176e-13
0.0043300072
-6.0677275e-13
0.0043300072
-4.0255232e-13
0.0043300072
-6.7647021e-13
0.0043300072
1.2095048e-13
0.0043300072
1.9640629e-13
0.0043300072
1.4162596e-12
0.0043300072
1.3251347e-12
0.0043300072
2.4292855e-12
0.0043300072
1.8978017e-12
0.0043300072
2.6119067e-12
0.0043300072
1.6676118e-12
0.0043300072
1.7080716e-12
0.0043300072
5.1960223e-13
0.0043300072
1.3610505e-13
0.0043300072
-1.1560345e-12
0.0043300072
-1.2669641e-12
0.0043300072
-2.6294538e-12
0.0043300072
-2.2418453e-12
0.0043300072
-3.1428886e-12
0.0043300072
-2.3325408e-12
0.0043300072
-2.7356958e-12
0.0043300072
-1.459217e-12
0.0043300072
-1.2465567e-12
0.0043300072
5.5876738e-14
0.0043300072
4.4680751e-13
0.0043300072
1.9529198e-12
0.0043300072
2.0002206e-12
0.0043300072
3.3291508e-12
0.0043300072
2.9017519e-12
0.0043300072
3.8795215e-12
0.0043300072
3.0148063e-12
0.0043300072
3.4121976e-12
0.0043300072
2.1066386e-12
0.0043300072
2.0931902e-12
0.0043300072
7.1519234e-13
0.0043300072
1.8110802e-13
0.0043300072
-1.2199141e-12
0.0043300072
-1.3609671e-12
0.0043300072
-2.784455e-12
0.0043300072
-2.6025423e-12
0.0043300072
-3.7736201e-12
0.0043300072
-3.0609711e-12
0.0043300072
-3.708601e-12
0.0043300072
-2.5654294e-12
0.0043300072
-2.6522331e-12
0.0043300072
-8.8969531e-13
0.0043300072
6.6903438e-14
0.0043300072
2.737419e-12
0.0043300072
4.38272e-12
0.0043300072
1.0426063e-11
0.0043300072
1.5902378e-11
0.0043300072
3.1904393e-11
0.0043300072
4.7452569e-11
0.0043300071
8.8200605e-11
0.0043300071
1.2649549e-10
0.004330007
2.266875e-10
2.8269254e-10
0.0058174803
4.2904591e-06
0.0058216459
1.8088674e-05
0.0058244739
2.4169283e-05
0.0058252072
2.3063937e-05
0.0058245456
1.9685929e-05
0.0058231197
1.6728272e-05
0.0058212952
1.4334796e-05
0.0058193178
1.2109468e-05
0.0058173735
9.9687236e-06
0.0058155859
8.0172165e-06
0.005814022
6.3187396e-06
0.0058127094
4.8655454e-06
0.0058116519
3.6339781e-06
0.0058108352
2.6127269e-06
0.0058102327
1.796177e-06
0.0058098093
1.1724403e-06
0.0058095275
7.1984769e-07
0.0058093508
4.0971759e-07
0.0058092476
2.1063598e-07
0.0058091923
9.2285578e-08
0.005809166
2.8713531e-08
0.0058091562
-1.581909e-09
0.0058091542
-1.2447034e-08
0.0058091556
-1.3788077e-08
0.0058091577
-1.1325951e-08
0.0058091597
-8.0026935e-09
0.0058091612
-5.0931273e-09
0.0058091622
-2.9666087e-09
0.0058091628
-1.5847014e-09
0.0058091631
-7.646829e-10
0.0058091633
-3.1935281e-10
0.0058091634
-9.8476612e-11
0.0058091634
-1.170064e-12
0.0058091634
3.3941776e-11
0.0058091634
3.9291239e-11
0.0058091634
3.501526e-11
0.0058091634
2.6587153e-11
0.0058091634
1.9748604e-11
0.0058091634
1.3036744e-11
0.0058091634
8.8407633e-12
0.0058091634
4.9052575e-12
0.0058091634
2.7085224e-12
0.0058091634
8.7265788e-13
0.0058091634
-1.0368014e-13
0.0058091634
-3.5747679e-13
0.0058091634
-3.9975324e-13
0.0058091634
9.8886506e-14
0.0058091634
7.9903918e-13
0.0058091634
1.1878222e-12
0.0058091634
2.0912002e-12
0.0058091634
2.1416175e-12
0.0058091634
2.7128876e-12
0.0058091634
2.274976e-12
0.0058091634
2.2255972e-12
0.0058091634
1.4034948e-12
0.0058091634
7.0304979e-13
0.0058091634
-2.2388142e-13
0.0058091634
-9.403796e-13
0.0058091634
-2.0458622e-12
0.0058091634
-2.2797644e-12
0.0058091634
-3.0914105e-12
0.0058091634
-2.8204146e-12
0.0058091634
-3.0945411e-12
0.0058091634
-2.3005766e-12
0.0058091634
-1.9609176e-12
0.0058091634
-9.7613371e-13
0.0058091634
-6.5628916e-14
0.0058091634
1.0065207e-12
0.0058091634
1.6461462e-12
0.0058091634
2.8156979e-12
0.0058091634
2.9978003e-12
0.0058091634
3.8476501e-12
0.0058091634
3.5218124e-12
0.0058091634
3.82866e-12
0.0058091634
3.0133448e-12
0.0058091634
2.8233502e-12
0.0058091634
1.718939e-12
0.0058091634
9.6844764e-13
0.0058091634
-2.464573e-14
0.0058091634
-8.8795887e-13
0.0058091634
-2.0124336e-12
0.0058091634
-2.3826913e-12
0.0058091634
-3.3689741e-12
0.0058091634
-3.2432465e-12
0.0058091634
-3.7738968e-12
0.0058091634
-3.1430463e-12
0.0058091634
-3.0767805e-12
0.0058091634
-1.8547692e-12
0.0058091634
-7.9478733e-13
0.0058091634
9.8899433e-13
0.0058091634
3.201689e-12
0.0058091634
6.5969992e-12
0.0058091634
1.2710209e-11
0.0058091634
2.0863409e-11
0.0058091634
3.6621152e-11
0.0058091634
5.2353761e-11
0.0058091634
8.7058881e-11
0.0058091634
1.2012384e-10
0.0058091634
1.8699288e-10
2.3188054e-10
0.0065566747
2.0497722e-06
0.0065652007
9.5612324e-06
0.0065758693
1.3499771e-05
0.0065854806
1.3453015e-05
0.0065932853
1.1882217e-05
0.0065996181
1.0396039e-05
0.0066047979
9.1549294e-06
0.0066089691
7.9381025e-06
0.0066122401
6.6976564e-06
0.0066147455
5.5120541e-06
0.0066166249
4.4394364e-06
0.0066180003
3.4903347e-06
0.006618973
2.6612841e-06
0.0066196312
1.9545559e-06
0.0066200528
1.3746263e-06
0.006620305
9.2030962e-07
0.0066204428
5.8214551e-07
0.0066205084
3.441315e-07
0.0066205325
1.867288e-07
0.0066205351
8.9831862e-08
0.0066205288
3.5091078e-08
0.00662052
7.3622455e-09
0.0066205123
-4.5562853e-09
0.0066205064
-7.7983749e-09
0.0066205024
-7.2633292e-09
0.0066204999
-5.4755518e-09
0.0066204985
-3.6309583e-09
0.0066204978
-2.1838535e-09
0.0066204974
-1.1948411e-09
0.0066204973
-5.9146351e-10
0.0066204972
-2.5110097e-10
0.0066204972
-8.0680727e-11
0.0066204972
-8.4413022e-13
0.0066204972
2.6136179e-11
0.0066204972
3.3819039e-11
0.0066204972
2.7835001e-11
0.0066204973
2.3648064e-11
0.0066204973
1.5278045e-11
0.0066204973
1.2138302e-11
0.0066204973
6.1515951e-12
0.0066204973
4.8864307e-12
0.0066204973
1.2428839e-12
0.0066204973
1.3014114e-12
0.0066204973
-7.436037e-13
0.0066204973
2.6780471e-13
0.0066204973
-7.2656679e-13
0.0066204973
1.0706721e-12
0.0066204973
2.4371006e-13
0.0066204973
2.16478e-12
0.0066204973
1.030908e-12
0.0066204973
2.9198509e-12
0.0066204973
1.3321469e-12
0.0066204973
2.6447277e-12
0.0066204973
7.5247527e-13
0.0066204973
1.528692e-12
0.0066204973
-5.0644128e-13
0.0066204973
-5.2825465e-14
0.0066204973
-2.1512341e-12
0.0066204973
-1.1144427e-12
0.0066204973
-3.1658645e-12
0.0066204973
-1.7012518e-12
0.0066204973
-3.3125578e-12
0.0066204973
-1.3520918e-12
0.0066204973
-2.4124817e-12
0.0066204973
-4.2845265e-13
0.0066204973
-8.9098506e-13
0.0066204973
1.321621e-12
0.0066204973
6.4826472e-13
0.0066204973
2.8602542e-12
0.0066204973
1.7357699e-12
0.0066204973
3.862721e-12
0.0066204973
2.2474804e-12
0.0066204973
3.8624405e-12
0.0066204973
1.8637197e-12
0.0066204973
3.0865993e-12
0.0066204973
9.2970917e-13
0.0066204973
1.5788566e-12
0.0066204973
-5.2859548e-13
0.0066204973
-7.8750842e-14
0.0066204973
-2.1602582e-12
0.0066204973
-1.2526232e-12
0.0066204973
-3.3810166e-12
0.0066204973
-1.9047617e-12
0.0066204973
-3.6955473e-12
0.0066204973
-1.8499304e-12
0.0066204973
-3.1342187e-12
0.0066204973
-8.7478771e-13
0.0066204973
-1.3901418e-12
0.0066204973
1.2977796e-12
0.0066204973
1.3554153e-12
0.0066204973
5.3029367e-12
0.0066204973
6.4626412e-12
0.0066204973
1.4186229e-11
0.0066204973
1.8777521e-11
0.0066204973
3.247501e-11
0.0066204973
3.954926e-11
0.0066204973
6.137748e-11
0.0066204974
7.7490746e-11
0.0066204974
1.091481e-10
1.3161715e-10
0.0068687198
-5.7780489e-11
0.0068782793
-2.7716698e-10
0.0068917782
-2.8033075e-10
0.0069052317
-1.4994262e-11
0.0069171152
2.7155767e-10
0.0069275118
2.9258158e-10
0.0069366667
1.2547073e-10
0.0069446046
-1.6521657e-11
0.0069513024
-6.2192176e-11
0.0069568147
-6.5065424e-11
0.0069612546
-8.3490234e-11
0.0069647452
-1.2406806e-10
0.0069674069
-1.5132342e-10
0.0069693617
-1.5802657e-10
0.0069707366
-1.4024682e-10
0.0069716571
-1.0417157e-10
0.0069722394
-4.9175211e-11
0.0069725837
1.5981128e-11
0.0069727705
8.8608747e-11
0.0069728603
1.5503268e-10
0.0069728954
2.0941305e-10
0.0069729026
2.3809109e-10
0.006972898
2.5747186e-10
0.00697289
2.5765137e-10
0.0069728826
2.3995557e-10
0.006972877
2.1566238e-10
0.0069728732
1.8331569e-10
0.0069728709
1.5301201e-10
0.0069728696
1.2134228e-10
0.006972869
9.6440643e-11
0.0069728687
7.2638525e-11
0.0069728686
5.6236215e-11
0.0069728685
4.059694e-11
0.0069728685
3.1356754e-11
0.0069728685
2.1650763e-11
0.0069728686
1.6362832e-11
0.0069728686
1.0014127e-11
0.0069728686
7.7427368e-12
0.0069728686
3.6512757e-12
0.0069728686
2.8820187e-12
0.0069728686
9.608482e-14
0.0069728686
5.2057553e-13
0.0069728686
-1.1993911e-12
0.0069728686
-2.3658596e-14
0.0069728686
-1.1521917e-12
0.0069728686
6.8407863e-13
0.0069728686
-7.9093777e-14
0.0069728686
1.6709077e-12
0.0069728686
5.7759986e-13
0.0069728686
2.1645082e-12
0.0069728686
9.0057379e-13
0.0069728686
1.9379039e-12
0.0069728686
2.0715316e-13
0.0069728686
1.0148488e-12
0.0069728686
-7.7798571e-13
0.0069728686
-5.9507433e-14
0.0069728686
-2.0541084e-12
0.0069728686
-9.8172345e-13
0.0069728686
-2.5063744e-12
0.0069728686
-1.2524212e-12
0.0069728686
-2.4930023e-12
0.0069728686
-7.5266185e-13
0.0069728686
-1.493085e-12
0.0069728686
2.9492703e-13
0.0069728686
-4.2212134e-13
0.0069728686
1.5952668e-12
0.0069728686
8.3680351e-13
0.0069728686
2.6553439e-12
0.0069728686
1.4773054e-12
0.0069728686
3.0595777e-12
0.0069728686
1.7481891e-12
0.0069728686
2.7646788e-12
0.0069728686
9.5426513e-13
0.0069728686
1.7943126e-12
0.0069728686
5.413109e-14
0.0069728686
6.3759636e-13
0.0069728686
-1.3766467e-12
0.0069728686
-5.1407007e-13
0.0069728686
-2.3689026e-12
0.0069728686
-1.3236623e-12
0.0069728686
-3.0185492e-12
0.0069728686
-1.6222923e-12
0.0069728686
-2.7389138e-12
0.0069728686
-1.1166744e-12
0.0069728686
-1.9536836e-12
0.0069728686
6.5954002e-17
0.0069728686
-3.7623708e-13
0.0069728686
1.9041362e-12
0.0069728686
1.5363146e-12
0.0069728686
4.3002469e-12
0.0069728686
4.5885912e-12
0.0069728686
8.5307844e-12
0.0069728686
1.016833e-11
0.0069728686
1.5746984e-11
0.0069728686
1.7279952e-11
0.0069728687
1.9727483e-11
0.0069728687
1.9489829e-11
0.0069728687
1.8566108e-11
0.0069728688
1.6259678e-11
1.3724191e-11
0.0068687185
-2.0498484e-06
0.0068782777
-9.561242e-06
0.0068917764
-1.3499489e-05
0.0069052301
-1.3452727e-05
0.0069171138
-1.1882033e-05
0.0069275106
-1.0395878e-05
0.0069366655
-9.1548058e-06
0.0069446036
-7.9380876e-06
0.0069513014
-6.6977484e-06
0.0069568138
-5.5122292e-06
0.0069612537
-4.4396683e-06
0.0069647445
-3.4906246e-06
0.0069674061
-2.661608e-06
0.006969361
-1.9548844e-06
0.0069707359
-1.3749188e-06
0.0069716564
-9.2052375e-07
0.0069722388
-5.8225325e-07
0.006972583
-3.441071e-07
0.0069727699
-1.8657562e-07
0.0069728598
-8.955832e-08
0.0069728948
-3.4692377e-08
0.0069729022
-6.9481732e-09
0.0069728975
5.028573e-09
0.0069728897
8.2617737e-09
0.0069728823
7.6929233e-09
0.0069728768
5.8592384e-09
0.006972873
3.9575401e-09
0.0069728708
2.4546668e-09
0.0069728695
1.4104659e-09
0.0069728689
7.6137643e-10
0.0069728686
3.7959331e-10
0.0069728685
1.7858113e-10
0.0069728685
7.2676156e-11
0.0069728685
2.7934179e-11
0.0069728685
5.1371926e-12
0.0069728685
-6.5370847e-13
0.0069728686
-5.4219028e-12
0.0069728686
-3.0428177e-12
0.0069728686
-5.3309948e-12
0.0069728686
-2.4280493e-12
0.0069728686
-4.3999117e-12
0.0069728686
-1.3957571e-12
0.0069728686
-3.0769381e-12
0.0069728686
-4.4205798e-13
0.0069728686
-1.7669408e-12
0.0069728686
1.0650118e-12
0.0069728686
-4.3851701e-13
0.0069728686
1.8027348e-12
0.0069728686
-9.3656027e-14
0.0069728686
1.9720909e-12
0.0069728686
-2.7237891e-13
0.0069728686
1.1997158e-12
0.0069728686
-1.3249154e-12
0.0069728686
3.1419649e-13
0.0069728686
-2.1987992e-12
0.0069728686
-4.5816127e-13
0.0069728686
-2.8694927e-12
0.0069728686
-5.4091107e-13
0.0069728686
-2.5720449e-12
0.0069728686
-2.4552574e-13
0.0069728686
-1.7928725e-12
0.0069728686
9.557028e-13
0.0069728686
-4.0365495e-13
0.0069728686
2.0843553e-12
0.0069728686
4.5857497e-13
0.0069728686
3.1776205e-12
0.0069728686
1.0272946e-12
0.0069728686
3.379716e-12
0.0069728686
8.8805548e-13
0.0069728686
2.9762855e-12
0.0069728686
3.765279e-13
0.0069728686
1.7261838e-12
0.0069728686
-9.8330017e-13
0.0069728686
4.1273007e-13
0.0069728686
-2.2204712e-12
0.0069728686
-6.6351338e-13
0.0069728686
-3.3551303e-12
0.0069728686
-1.1315947e-12
0.0069728686
-3.6808733e-12
0.0069728686
-1.2404141e-12
0.0069728686
-3.3804243e-12
0.0069728686
-5.9753245e-13
0.0069728686
-2.1401005e-12
0.0069728686
4.7726687e-13
0.0069728686
-5.9625028e-13
0.0069728686
2.4258808e-12
0.0069728686
1.0221562e-12
0.0069728686
4.268152e-12
0.0069728686
2.4917348e-12
0.0069728686
6.2460588e-12
0.0069728686
4.2882223e-12
0.0069728686
8.4650071e-12
0.0069728686
5.527535e-12
0.0069728686
8.6376058e-12
0.0069728686
-1.552661e-14
0.0069728687
-3.8796575e-12
0.0069728687
-2.5227335e-11
0.0069728687
-4.4349255e-11
0.0069728688
-7.9334611e-11
-1.0652679e-10
0.0065566699
-4.2903648e-06
0.0065651964
-1.8088595e-05
0.0065758654
-2.4169493e-05
0.0065854771
-2.3064097e-05
0.0065932818
-1.9685944e-05
0.0065996149
-1.6728208e-05
0.0066047949
-1.4334826e-05
0.0066089664
-1.2109568e-05
0.0066122375
-9.9689111e-06
0.006614743
-8.0174401e-06
0.0066166226
-6.3190146e-06
0.006617998
-4.8658393e-06
0.0066189708
-3.6342833e-06
0.0066196291
-2.6130111e-06
0.0066200507
-1.7964163e-06
0.006620303
-1.1726137e-06
0.0066204408
-7.199319e-07
0.0066205066
-4.0970521e-07
0.0066205307
-2.1049977e-07
0.0066205335
-9.2095349e-08
0.0066205274
-2.843963e-08
0.0066205188
1.888444e-09
0.0066205112
1.2774141e-08
0.0066205055
1.4105597e-08
0.0066205017
1.1625499e-08
0.0066204994
8.2633512e-09
0.0066204981
5.3189676e-09
0.0066204974
3.1479232e-09
0.0066204971
1.7333731e-09
0.006620497
8.7619514e-10
0.006620497
4.0768907e-10
0.0066204971
1.6051491e-10
0.0066204971
5.0838051e-11
0.0066204971
-6.5576983e-13
0.0066204972
-1.2520697e-11
0.0066204972
-2.0065059e-11
0.0066204972
-1.3329257e-11
0.0066204972
-1.4680822e-11
0.0066204972
-7.5902226e-12
0.0066204972
-9.4486143e-12
0.0066204972
-3.544037e-12
0.0066204972
-5.6961429e-12
0.0066204972
-1.095898e-12
0.0066204972
-3.394329e-12
0.0066204972
8.8207429e-13
0.0066204972
-1.6539402e-12
0.0066204972
1.9602431e-12
0.0066204972
-1.2419888e-12
0.0066204972
2.0725244e-12
0.0066204972
-1.4428062e-12
0.0066204972
1.3686987e-12
0.0066204972
-2.4146624e-12
0.0066204973
4.4578497e-13
0.0066204972
-3.0373709e-12
0.0066204973
-9.1472908e-14
0.0066204972
-3.4348489e-12
0.0066204973
1.5613161e-14
0.0066204972
-2.8319976e-12
0.0066204972
7.6891822e-13
0.0066204972
-1.9549326e-12
0.0066204972
2.1053891e-12
0.0066204972
-3.994274e-13
0.0066204972
3.25453e-12
0.0066204972
3.6528803e-13
0.0066204972
4.0092667e-12
0.0066204972
7.3738112e-13
0.0066204972
3.8798061e-12
0.0066204972
2.6680386e-13
0.0066204972
3.090661e-12
0.0066204972
-7.0027855e-13
0.0066204972
1.7135011e-12
0.0066204972
-2.4081273e-12
0.0066204973
1.6949899e-13
0.0066204972
-3.635055e-12
0.0066204973
-7.954741e-13
0.0066204972
-4.610415e-12
0.0066204973
-1.1133644e-12
0.0066204972
-4.4850036e-12
0.0066204973
-8.6321026e-13
0.0066204972
-3.8315874e-12
0.0066204973
8.0334711e-14
0.0066204972
-2.3239313e-12
0.0066204972
1.7421979e-12
0.0066204972
-5.6217632e-13
0.0066204972
3.6313719e-12
0.0066204972
1.0584695e-12
0.0066204972
5.3172128e-12
0.0066204972
2.1947627e-12
0.0066204972
6.5834153e-12
0.0066204972
3.2246993e-12
0.0066204972
7.1041724e-12
0.0066204972
3.1075296e-12
0.0066204973
4.3998986e-12
0.0066204973
-2.7806302e-12
0.0066204973
-1.0992152e-11
0.0066204973
-2.7002779e-11
0.0066204973
-5.960882e-11
0.0066204974
-9.6215524e-11
0.0066204974
-1.652717e-10
-2.1235241e-10
0.0058174748
-6.2106017e-06
0.0058216407
-2.2255483e-05
0.0058244691
-2.699836e-05
0.0058252027
-2.3797362e-05
0.0058245412
-1.902375e-05
0.0058231154
-1.5302053e-05
0.0058212911
-1.251055e-05
0.0058193139
-1.0132337e-05
0.0058173697
-8.0245704e-06
0.0058155823
-6.2297817e-06
0.0058140185
-4.7548563e-06
0.0058127061
-3.5531867e-06
0.0058116487
-2.5765976e-06
0.0058108322
-1.7963053e-06
0.0058102298
-1.1938068e-06
0.0058098066
-7.4922816e-07
0.0058095249
-4.3802293e-07
0.0058093485
-2.3296649e-07
0.0058092454
-1.0727423e-07
0.0058091904
-3.6790499e-08
0.0058091643
-2.1899862e-09
0.0058091547
1.1732516e-08
0.005809153
1.4636691e-08
0.0058091546
1.2705052e-08
0.0058091569
9.3601975e-09
0.0058091591
6.1913076e-09
0.0058091607
3.759098e-09
0.0058091618
2.1096723e-09
0.0058091625
1.0917863e-09
0.0058091629
5.1141568e-10
0.0058091631
2.0736044e-10
0.0058091632
6.1021147e-11
0.0058091633
-1.1556245e-13
0.0058091633
-2.1685368e-11
0.0058091633
-2.4686896e-11
0.0058091633
-2.1938965e-11
0.0058091633
-1.6857791e-11
0.0058091634
-1.3214836e-11
0.0058091634
-9.476035e-12
0.0058091634
-7.1791248e-12
0.0058091634
-4.6813212e-12
0.0058091634
-3.7086831e-12
0.0058091633
-2.1254733e-12
0.0058091634
-1.4971094e-12
0.0058091633
-3.1646709e-13
0.0058091634
-4.5457069e-13
0.0058091633
1.3456326e-13
0.0058091634
-2.3136863e-13
0.0058091634
1.4480809e-13
0.0058091634
-7.2558766e-13
0.0058091634
-6.4313722e-13
0.0058091634
-1.2888252e-12
0.0058091634
-1.0376816e-12
0.0058091634
-1.6689975e-12
0.0058091634
-1.2990941e-12
0.0058091634
-1.3756646e-12
0.0058091634
-6.0585003e-13
0.0058091634
-6.67147e-13
0.0058091634
1.843388e-13
0.0058091634
3.7959855e-13
0.0058091634
1.4734476e-12
0.0058091634
1.3566949e-12
0.0058091633
1.9933038e-12
0.0058091634
1.8647788e-12
0.0058091634
2.3154911e-12
0.0058091634
1.592569e-12
0.0058091634
1.543081e-12
0.0058091634
8.011841e-13
0.0058091634
6.6845801e-13
0.0058091634
-4.9501573e-13
0.0058091634
-7.8402715e-13
0.0058091634
-1.7461509e-12
0.0058091634
-1.7494883e-12
0.0058091634
-2.6344795e-12
0.0058091634
-2.4901646e-12
0.0058091634
-2.783095e-12
0.0058091634
-2.152244e-12
0.0058091634
-2.3518204e-12
0.0058091634
-1.5469286e-12
0.0058091634
-1.211397e-12
0.0058091634
-4.6748057e-14
0.0058091634
1.0528369e-13
0.0058091633
1.3048456e-12
0.0058091634
1.6958686e-12
0.0058091633
2.8390293e-12
0.0058091633
2.8543273e-12
0.0058091633
3.6045877e-12
0.0058091634
3.6552292e-12
0.0058091633
4.2733301e-12
0.0058091634
3.8055148e-12
0.0058091634
3.5671793e-12
0.0058091634
2.1813828e-12
0.0058091634
-9.1233697e-13
0.0058091634
-6.7884407e-12
0.0058091634
-1.8722833e-11
0.0058091634
-3.2228658e-11
0.0058091634
-7.3934473e-11
0.0058091634
-1.1434074e-10
0.0058091634
-2.144225e-10
-2.7040005e-10
0.0044101526
-5.5339815e-06
0.0044037184
-1.5820889e-05
0.0043931473
-1.6427215e-05
0.0043820222
-1.267214e-05
0.004371986
-8.987097e-06
0.0043632764
-6.5921074e-06
0.0043558169
-5.0506798e-06
0.004349569
-3.8840712e-06
0.0043444819
-2.9369968e-06
0.004340443
-2.1902841e-06
0.0043373066
-1.6178645e-06
0.0043349304
-1.1765155e-06
0.0043331857
-8.3144046e-07
0.0043319534
-5.6360307e-07
0.0043311222
-3.6228135e-07
0.0043305912
-2.1794041e-07
0.0043302734
-1.2001563e-07
0.0043300984
-5.7816972e-08
0.0043300128
-2.1410644e-08
0.0043299784
-2.2047734e-09
0.0043299714
5.0837806e-09
0.004329976
7.344646e-09
0.004329984
6.7672843e-09
0.0043299916
5.1871829e-09
0.0043299976
3.5380276e-09
0.0043300017
2.210631e-09
0.0043300042
1.2701209e-09
0.0043300057
6.7584765e-10
0.0043300065
3.2207574e-10
0.0043300069
1.3590865e-10
0.0043300071
3.9533169e-11
0.0043300072
1.4826618e-12
0.0043300072
-1.478219e-11
0.0043300072
-1.4545385e-11
0.0043300072
-1.5688129e-11
0.0043300072
-9.6211063e-12
0.0043300072
-9.9860582e-12
0.0043300072
-4.8027699e-12
0.0043300072
-5.9821668e-12
0.0043300072
-1.8562288e-12
0.0043300072
-3.6713101e-12
0.0043300072
-4.5592199e-13
0.0043300072
-2.3643567e-12
0.0043300072
6.8410198e-13
0.0043300072
-1.6711108e-12
0.0043300072
1.0199777e-12
0.0043300072
-1.4647631e-12
0.0043300072
1.1673487e-12
0.0043300072
-1.568838e-12
0.0043300072
8.314887e-13
0.0043300072
-1.7711432e-12
0.0043300072
7.4379448e-13
0.0043300072
-1.8755364e-12
0.0043300072
6.1349253e-13
0.0043300072
-1.7442905e-12
0.0043300072
1.0409976e-12
0.0043300072
-1.3889211e-12
0.0043300072
1.3894488e-12
0.0043300072
-9.0036777e-13
0.0043300072
1.9669602e-12
0.0043300072
-3.8693094e-13
0.0043300072
2.140687e-12
0.0043300072
-2.1004603e-13
0.0043300072
2.2578235e-12
0.0043300072
-3.6413335e-13
0.0043300072
1.8298298e-12
0.0043300072
-9.2696767e-13
0.0043300072
1.419238e-12
0.0043300072
-1.5647939e-12
0.0043300072
6.1856735e-13
0.0043300072
-2.159629e-12
0.0043300072
1.3274668e-13
0.0043300072
-2.550583e-12
0.0043300072
-2.1462607e-13
0.0043300072
-2.5899887e-12
0.0043300072
2.8808809e-14
0.0043300072
-2.2816408e-12
0.0043300072
3.9716544e-13
0.0043300072
-1.7178401e-12
0.0043300072
1.2854507e-12
0.0043300072
-9.8781177e-13
0.0043300072
1.9064982e-12
0.0043300072
-1.737622e-13
0.0043300072
2.6822128e-12
0.0043300072
3.7356449e-13
0.0043300072
3.0079937e-12
0.0043300072
5.9886677e-13
0.0043300072
3.2804999e-12
0.0043300072
6.5293624e-13
0.0043300072
3.0471094e-12
0.0043300072
1.1733858e-13
0.0043300072
1.5843689e-12
0.0043300072
-4.0939647e-12
0.0043300072
-4.370163e-12
0.0043300072
-1.3363392e-11
0.0043300072
-2.1499516e-11
0.0043300071
-4.886226e-11
0.0043300071
-7.7302882e-11
0.004330007
-1.7456318e-10
-2.1538922e-10
0.0019646641
0.0019488433
0.001932416
0.0019197441
0.0019107573
0.0019041655
0.001899115
0.0018952312
0.0018922946
0.0018901047
0.0018884872
0.0018873109
0.0018864797
0.0018859163
0.0018855542
0.0018853363
0.0018852164
0.0018851587
0.0018851374
0.0018851353
0.0018851405
0.0018851479
0.0018851548
0.00188516
0.0018851636
0.0018851658
0.0018851672
0.0018851678
0.0018851682
0.0018851683
0.0018851684
0.0018851684
0.0018851684
0.0018851684
0.0018851684
0.0018851683
0.0018851683
0.0018851683
0.0018851683
0.0018851683
0.0018851683
0.0018851683
0.0018851683
0.0018851683
0.0018851683
0.0018851683
0.0018851683
0.0018851683
0.0018851683
0.0018851683
0.0018851683
0.0018851683
0.0018851683
0.0018851683
0.0018851683
0.0018851683
0.0018851683
0.0018851683
0.0018851683
0.0018851683
0.0018851683
0.0018851683
0.0018851683
0.0018851683
0.0018851683
0.0018851683
0.0018851683
0.0018851683
0.0018851683
0.0018851683
0.0018851683
0.0018851683
0.0018851683
0.0018851683
0.0018851683
0.0018851683
0.0018851683
0.0018851683
0.0018851683
0.0018851683
0.0018851683
0.0018851683
0.0018851683
0.0018851683
0.0018851683
0.0018851683
0.0018851683
0.0018851683
0.0018851683
0.0018851683
0.0018851683
0.0018851683
0.0018851683
0.0018851683
0.0018851683
0.0018851683
0.0018851682
0.0018851681
0.001885168
)
;

boundaryField
{
    top
    {
        type            calculated;
        value           uniform 0;
    }
    inlet
    {
        type            calculated;
        value           nonuniform List<scalar> 10(-0.0019701987 -0.0044108333 -0.0058155603 -0.0065544349 -0.006866671 -0.0068666698 -0.0065544299 -0.0058155547 -0.0044108286 -0.0019701976);
    }
    outlet
    {
        type            calculated;
        value           nonuniform List<scalar> 10(0.0018851677 0.004330007 0.0058091635 0.0066204975 0.006972869 0.006972869 0.0066204975 0.0058091635 0.004330007 0.0018851678);
    }
    bottom
    {
        type            calculated;
        value           uniform 0;
    }
    back
    {
        type            empty;
        value           nonuniform 0();
    }
    front
    {
        type            empty;
        value           nonuniform 0();
    }
}


// ************************************************************************* //
