/*--------------------------------*- C++ -*----------------------------------*\
| =========                 |                                                 |
| \\      /  F ield         | OpenFOAM: The Open Source CFD Toolbox           |
|  \\    /   O peration     | Version:  v1812                                 |
|   \\  /    A nd           | Web:      www.OpenFOAM.com                      |
|    \\/     M anipulation  |                                                 |
\*---------------------------------------------------------------------------*/
FoamFile
{
    version     2.0;
    format      ascii;
    class       volVectorField;
    location    "5";
    object      U;
}
// * * * * * * * * * * * * * * * * * * * * * * * * * * * * * * * * * * * * * //

dimensions      [0 1 -1 0 0 0 0];


internalField   nonuniform List<vector> 
1000
(
(0.1968863 0.00041051571 0)
(0.19597752 0.0010231688 0)
(0.19413211 0.00097462929 0)
(0.19255969 0.00065399267 0)
(0.19147286 0.00039594148 0)
(0.19071372 0.00025721853 0)
(0.19014257 0.00018249659 0)
(0.18969974 0.0001311117 0)
(0.18936119 9.2177807e-05 0)
(0.18910762 6.428117e-05 0)
(0.18891993 4.5047786e-05 0)
(0.18878244 3.1361094e-05 0)
(0.18868382 2.1151739e-05 0)
(0.18861553 1.3507352e-05 0)
(0.18857047 8.0045632e-06 0)
(0.18854246 4.2796999e-06 0)
(0.18852633 1.9450829e-06 0)
(0.18851799 6.1877133e-07 0)
(0.18851441 -4.0859313e-08 0)
(0.18851347 -3.0501107e-07 0)
(0.18851375 -3.9350925e-07 0)
(0.18851445 -3.5425022e-07 0)
(0.18851518 -2.685812e-07 0)
(0.18851579 -1.8211227e-07 0)
(0.18851622 -1.1307048e-07 0)
(0.18851651 -6.4495103e-08 0)
(0.18851667 -3.3601143e-08 0)
(0.18851677 -1.5466167e-08 0)
(0.18851681 -5.851124e-09 0)
(0.18851683 -1.1946981e-09 0)
(0.18851684 6.1059335e-10 0)
(0.18851684 1.2586824e-09 0)
(0.18851684 1.215842e-09 0)
(0.18851684 1.0517713e-09 0)
(0.18851684 7.4993514e-10 0)
(0.18851684 5.7963016e-10 0)
(0.18851684 3.6247809e-10 0)
(0.18851684 2.8437036e-10 0)
(0.18851683 1.3743896e-10 0)
(0.18851683 1.1517573e-10 0)
(0.18851683 1.2320965e-11 0)
(0.18851683 3.3025901e-11 0)
(0.18851683 -4.5319842e-11 0)
(0.18851683 2.8694029e-12 0)
(0.18851683 -5.0744844e-11 0)
(0.18851683 1.7215831e-11 0)
(0.18851683 -2.8802287e-11 0)
(0.18851683 4.4809607e-11 0)
(0.18851683 9.2502636e-12 0)
(0.18851683 8.0186818e-11 0)
(0.18851683 3.4740503e-11 0)
(0.18851683 8.7571135e-11 0)
(0.18851683 2.9222814e-11 0)
(0.18851683 6.9661497e-11 0)
(0.18851683 -5.5996113e-12 0)
(0.18851683 2.9775075e-11 0)
(0.18851683 -4.8392888e-11 0)
(0.18851683 -1.353813e-11 0)
(0.18851683 -8.8773679e-11 0)
(0.18851683 -5.114908e-11 0)
(0.18851683 -1.0737436e-10 0)
(0.18851683 -5.1056304e-11 0)
(0.18851683 -9.4169074e-11 0)
(0.18851683 -2.4479679e-11 0)
(0.18851683 -5.2825938e-11 0)
(0.18851683 3.0939567e-11 0)
(0.18851683 -6.0562869e-12 0)
(0.18851683 7.5099277e-11 0)
(0.18851683 4.6992188e-11 0)
(0.18851683 1.1893048e-10 0)
(0.18851683 7.7208761e-11 0)
(0.18851683 1.3073562e-10 0)
(0.18851683 7.6239962e-11 0)
(0.18851683 1.1650599e-10 0)
(0.18851683 4.3023584e-11 0)
(0.18851683 6.920423e-11 0)
(0.18851683 -1.1852612e-11 0)
(0.18851683 1.8301379e-11 0)
(0.18851683 -6.6882204e-11 0)
(0.18851683 -3.9083662e-11 0)
(0.18851683 -1.1255104e-10 0)
(0.18851683 -7.5934442e-11 0)
(0.18851683 -1.3913627e-10 0)
(0.18851683 -9.2258056e-11 0)
(0.18851683 -1.3696884e-10 0)
(0.18851683 -7.1606846e-11 0)
(0.18851683 -1.0460316e-10 0)
(0.18851683 -2.5580323e-11 0)
(0.18851683 -4.1242562e-11 0)
(0.18851683 6.1421462e-11 0)
(0.18851683 6.8157242e-11 0)
(0.18851683 1.9615295e-10 0)
(0.18851683 2.8445878e-10 0)
(0.18851683 5.4312346e-10 0)
(0.18851683 9.7909662e-10 0)
(0.18851683 1.7356129e-09 0)
(0.18851683 3.2155718e-09 0)
(0.18851682 5.2595979e-09 0)
(0.18851681 1.1167231e-08 0)
(0.18851678 1.3414908e-08 0)
(0.44078588 0.00059175307 0)
(0.44156781 0.0020737645 0)
(0.44021524 0.0024677027 0)
(0.43873277 0.0020853236 0)
(0.4376213 0.0015703926 0)
(0.43673224 0.0011888702 0)
(0.43594448 0.00092544437 0)
(0.43525423 0.00071976985 0)
(0.43468181 0.0005490495 0)
(0.43422594 0.00041137557 0)
(0.43387041 0.00030395771 0)
(0.43359792 0.00022045203 0)
(0.43339443 0.00015516935 0)
(0.43324789 0.00010470376 0)
(0.43314688 6.6960833e-05 0)
(0.43308071 4.0047469e-05 0)
(0.43303988 2.1931172e-05 0)
(0.43301648 1.0543947e-05 0)
(0.43300434 3.9672388e-06 0)
(0.43299894 5.7244917e-07 0)
(0.43299724 -9.1235563e-07 0)
(0.43299732 -1.3204599e-06 0)
(0.43299806 -1.213965e-06 0)
(0.43299888 -9.2567275e-07 0)
(0.43299956 -6.2815603e-07 0)
(0.43300004 -3.8922526e-07 0)
(0.43300036 -2.2200881e-07 0)
(0.43300054 -1.1603941e-07 0)
(0.43300064 -5.4486417e-08 0)
(0.43300069 -2.163067e-08 0)
(0.43300072 -5.803883e-09 0)
(0.43300073 9.4679309e-10 0)
(0.43300073 3.1419478e-09 0)
(0.43300073 3.3788447e-09 0)
(0.43300073 2.8308889e-09 0)
(0.43300072 2.1788509e-09 0)
(0.43300072 1.555538e-09 0)
(0.43300072 1.1000134e-09 0)
(0.43300072 7.0760402e-10 0)
(0.43300072 4.5248691e-10 0)
(0.43300072 2.292688e-10 0)
(0.43300072 1.10425e-10 0)
(0.43300072 -5.8110994e-12 0)
(0.43300072 -4.1379163e-11 0)
(0.43300072 -7.1417853e-11 0)
(0.43300072 -3.5906505e-11 0)
(0.43300072 -2.3164739e-11 0)
(0.43300072 4.0209228e-11 0)
(0.43300072 7.6306403e-11 0)
(0.43300072 1.5111756e-10 0)
(0.43300072 1.626542e-10 0)
(0.43300072 1.9834322e-10 0)
(0.43300072 1.7424625e-10 0)
(0.43300072 1.7239562e-10 0)
(0.43300072 1.0142051e-10 0)
(0.43300072 5.8432592e-11 0)
(0.43300072 -1.9268481e-11 0)
(0.43300072 -6.4274365e-11 0)
(0.43300072 -1.5263905e-10 0)
(0.43300072 -1.8492167e-10 0)
(0.43300072 -2.3618003e-10 0)
(0.43300072 -2.2153383e-10 0)
(0.43300072 -2.3471345e-10 0)
(0.43300072 -1.8212571e-10 0)
(0.43300072 -1.4855992e-10 0)
(0.43300072 -5.7525991e-11 0)
(0.43300072 -7.2279507e-12 0)
(0.43300072 8.1504915e-11 0)
(0.43300072 1.3626955e-10 0)
(0.43300072 2.2449727e-10 0)
(0.43300072 2.4816813e-10 0)
(0.43300072 2.9605921e-10 0)
(0.43300072 2.8480272e-10 0)
(0.43300072 2.9663162e-10 0)
(0.43300072 2.371431e-10 0)
(0.43300072 2.0433296e-10 0)
(0.43300072 1.1799356e-10 0)
(0.43300072 6.7912953e-11 0)
(0.43300072 -2.5810113e-11 0)
(0.43300072 -8.7528265e-11 0)
(0.43300072 -1.7733495e-10 0)
(0.43300072 -2.1310566e-10 0)
(0.43300072 -2.8235872e-10 0)
(0.43300072 -2.9064896e-10 0)
(0.43300072 -3.163713e-10 0)
(0.43300072 -2.7663588e-10 0)
(0.43300072 -2.6373187e-10 0)
(0.43300072 -1.8433536e-10 0)
(0.43300072 -1.1140257e-10 0)
(0.43300072 2.3199181e-11 0)
(0.43300072 1.7697851e-10 0)
(0.43300072 4.0083049e-10 0)
(0.43300072 7.7594622e-10 0)
(0.43300072 1.2954315e-09 0)
(0.43300072 2.4789198e-09 0)
(0.43300072 3.9101448e-09 0)
(0.43300071 7.3951779e-09 0)
(0.43300071 1.0774297e-08 0)
(0.43300069 2.1651886e-08 0)
(0.43300071 2.7997041e-08 0)
(0.58102866 0.00047844008 0)
(0.5832788 0.0020178094 0)
(0.58293004 0.0027176867 0)
(0.58244506 0.0026003564 0)
(0.58236179 0.0022045031 0)
(0.58236674 0.0018410771 0)
(0.58225617 0.001547819 0)
(0.58205448 0.0012862164 0)
(0.58183832 0.0010430966 0)
(0.58164428 0.00082619195 0)
(0.58147671 0.00064098192 0)
(0.58133349 0.00048583439 0)
(0.58121475 0.00035715627 0)
(0.58112081 0.00025257567 0)
(0.5810501 0.0001705173 0)
(0.58099935 0.00010899898 0)
(0.5809647 6.5227021e-05 0)
(0.58094232 3.586421e-05 0)
(0.5809288 1.7466469e-05 0)
(0.58092126 6.8612426e-06 0)
(0.58091747 1.4075468e-06 0)
(0.58091586 -9.5089068e-07 0)
(0.58091539 -1.6444681e-06 0)
(0.58091544 -1.5588191e-06 0)
(0.58091565 -1.1981108e-06 0)
(0.58091588 -8.1305017e-07 0)
(0.58091605 -5.0205084e-07 0)
(0.58091618 -2.8501141e-07 0)
(0.58091626 -1.4830214e-07 0)
(0.5809163 -6.940399e-08 0)
(0.58091632 -2.7520201e-08 0)
(0.58091633 -7.3929855e-09 0)
(0.58091634 1.0947236e-09 0)
(0.58091634 3.83411e-09 0)
(0.58091634 4.1209316e-09 0)
(0.58091634 3.4640511e-09 0)
(0.58091634 2.6635174e-09 0)
(0.58091634 1.893765e-09 0)
(0.58091634 1.3083082e-09 0)
(0.58091634 8.2461102e-10 0)
(0.58091634 5.0410761e-10 0)
(0.58091634 2.4037741e-10 0)
(0.58091634 8.9623239e-11 0)
(0.58091634 -2.4494622e-11 0)
(0.58091634 -4.4918287e-11 0)
(0.58091634 -5.0567284e-11 0)
(0.58091634 4.3073887e-12 0)
(0.58091634 4.5437233e-11 0)
(0.58091634 1.3386741e-10 0)
(0.58091634 1.7946075e-10 0)
(0.58091634 2.4338609e-10 0)
(0.58091634 2.4870699e-10 0)
(0.58091634 2.6691763e-10 0)
(0.58091634 2.1977585e-10 0)
(0.58091634 1.7722953e-10 0)
(0.58091634 7.9543657e-11 0)
(0.58091634 8.0380504e-12 0)
(0.58091634 -9.9620527e-11 0)
(0.58091634 -1.6758727e-10 0)
(0.58091634 -2.5684299e-10 0)
(0.58091634 -2.8301592e-10 0)
(0.58091634 -3.2147059e-10 0)
(0.58091634 -2.9808387e-10 0)
(0.58091634 -2.8119206e-10 0)
(0.58091634 -2.0059468e-10 0)
(0.58091634 -1.330585e-10 0)
(0.58091634 -2.0292987e-11 0)
(0.58091634 5.9818587e-11 0)
(0.58091634 1.7733615e-10 0)
(0.58091634 2.4573661e-10 0)
(0.58091634 3.311428e-10 0)
(0.58091634 3.568539e-10 0)
(0.58091634 3.9841557e-10 0)
(0.58091634 3.740099e-10 0)
(0.58091634 3.5694406e-10 0)
(0.58091634 2.8113638e-10 0)
(0.58091634 2.2383238e-10 0)
(0.58091634 1.1395416e-10 0)
(0.58091634 2.4181106e-11 0)
(0.58091634 -9.256601e-11 0)
(0.58091634 -1.6401355e-10 0)
(0.58091634 -2.6289791e-10 0)
(0.58091634 -3.10415e-10 0)
(0.58091634 -3.7260379e-10 0)
(0.58091634 -3.6827573e-10 0)
(0.58091634 -3.7517781e-10 0)
(0.58091634 -3.1778382e-10 0)
(0.58091634 -2.6100986e-10 0)
(0.58091634 -1.1972192e-10 0)
(0.58091634 1.8371322e-11 0)
(0.58091634 2.8296134e-10 0)
(0.58091634 5.3557101e-10 0)
(0.58091634 1.1552863e-09 0)
(0.58091634 1.8337745e-09 0)
(0.58091634 3.4618411e-09 0)
(0.58091634 5.0207014e-09 0)
(0.58091633 8.9368293e-09 0)
(0.58091635 1.2592037e-08 0)
(0.58091631 2.1291566e-08 0)
(0.58091637 2.7299e-08 0)
(0.65472786 0.00028743828 0)
(0.65774626 0.0013467217 0)
(0.65787057 0.00193269 0)
(0.65799414 0.0019569221 0)
(0.65873369 0.0017459707 0)
(0.65960994 0.0015260849 0)
(0.66028236 0.001337329 0)
(0.6607441 0.0011558305 0)
(0.66108824 0.00097341215 0)
(0.66136511 0.00079919839 0)
(0.66158356 0.00064148569 0)
(0.66174595 0.00050240966 0)
(0.66186086 0.0003816448 0)
(0.66193936 0.00027927639 0)
(0.66199087 0.00019566454 0)
(0.66202267 0.00013044089 0)
(0.66204065 8.2104199e-05 0)
(0.66204962 4.8239895e-05 0)
(0.66205322 2.5953968e-05 0)
(0.66205398 1.2303865e-05 0)
(0.66205345 4.6394396e-06 0)
(0.66205251 8.1965307e-07 0)
(0.6620516 -7.5422505e-07 0)
(0.66205089 -1.1690056e-06 0)
(0.66205039 -1.0665682e-06 0)
(0.66205008 -7.9749665e-07 0)
(0.6620499 -5.276678e-07 0)
(0.6620498 -3.1761959e-07 0)
(0.66204975 -1.7502941e-07 0)
(0.66204973 -8.7746438e-08 0)
(0.66204972 -3.8610936e-08 0)
(0.66204972 -1.3522834e-08 0)
(0.66204972 -1.9029875e-09 0)
(0.66204972 2.450985e-09 0)
(0.66204972 3.6618723e-09 0)
(0.66204972 3.3344668e-09 0)
(0.66204972 2.7390631e-09 0)
(0.66204973 1.9401627e-09 0)
(0.66204973 1.4132568e-09 0)
(0.66204973 8.4740663e-10 0)
(0.66204973 5.7192507e-10 0)
(0.66204973 2.2748421e-10 0)
(0.66204973 1.4329641e-10 0)
(0.66204973 -3.2384124e-11 0)
(0.66204973 1.5694331e-11 0)
(0.66204973 -6.2285325e-11 0)
(0.66204973 5.8379694e-11 0)
(0.66204973 3.1188522e-11 0)
(0.66204973 1.7747456e-10 0)
(0.66204973 1.4471402e-10 0)
(0.66204973 2.6897419e-10 0)
(0.66204973 1.9689512e-10 0)
(0.66204973 2.696835e-10 0)
(0.66204973 1.4359129e-10 0)
(0.66204973 1.7037541e-10 0)
(0.66204973 1.4598221e-11 0)
(0.66204973 1.4335207e-11 0)
(0.66204973 -1.5474814e-10 0)
(0.66204973 -1.4248206e-10 0)
(0.66204973 -2.8503795e-10 0)
(0.66204973 -2.3409634e-10 0)
(0.66204973 -3.290328e-10 0)
(0.66204973 -2.2214803e-10 0)
(0.66204973 -2.642317e-10 0)
(0.66204973 -1.1307548e-10 0)
(0.66204973 -1.213411e-10 0)
(0.66204973 4.6725418e-11 0)
(0.66204973 5.7071544e-11 0)
(0.66204973 2.2788856e-10 0)
(0.66204973 2.1507679e-10 0)
(0.66204973 3.5725456e-10 0)
(0.66204973 3.0379421e-10 0)
(0.66204973 3.9571505e-10 0)
(0.66204973 2.896641e-10 0)
(0.66204973 3.3733967e-10 0)
(0.66204973 1.9106844e-10 0)
(0.66204973 1.9928677e-10 0)
(0.66204973 2.804866e-11 0)
(0.66204973 2.2346662e-11 0)
(0.66204973 -1.4611477e-10 0)
(0.66204973 -1.4117713e-10 0)
(0.66204973 -2.9440696e-10 0)
(0.66204973 -2.5512966e-10 0)
(0.66204973 -3.6666191e-10 0)
(0.66204973 -2.8081149e-10 0)
(0.66204973 -3.4350647e-10 0)
(0.66204973 -1.9868582e-10 0)
(0.66204973 -1.9852992e-10 0)
(0.66204973 1.4337523e-11 0)
(0.66204973 9.4438878e-11 0)
(0.66204973 4.1937987e-10 0)
(0.66204973 6.3237719e-10 0)
(0.66204973 1.3370133e-09 0)
(0.66204973 1.9684562e-09 0)
(0.66204973 3.4910175e-09 0)
(0.66204973 4.6708112e-09 0)
(0.66204972 7.5487379e-09 0)
(0.66204974 1.0185325e-08 0)
(0.66204971 1.5241424e-08 0)
(0.66204977 1.8872842e-08 0)
(0.68585245 9.3880339e-05 0)
(0.68917781 0.00046250632 0)
(0.68942776 0.00068235713 0)
(0.68975649 0.00070699458 0)
(0.69085799 0.00064335007 0)
(0.6921731 0.00057270026 0)
(0.69327658 0.00051108264 0)
(0.69413226 0.00044987447 0)
(0.69483349 0.00038578384 0)
(0.69543091 0.00032237253 0)
(0.69592875 0.00026323524 0)
(0.69632567 0.00020967854 0)
(0.69663033 0.0001620095 0)
(0.6968569 0.00012065523 0)
(0.69701946 8.61268e-05 0)
(0.69713084 5.8609987e-05 0)
(0.69720298 3.7777693e-05 0)
(0.69724674 2.2856033e-05 0)
(0.69727127 1.2796899e-05 0)
(0.69728364 6.4594719e-06 0)
(0.69728892 2.7718204e-06 0)
(0.69729044 8.2789408e-07 0)
(0.69729024 -4.6384091e-08 0)
(0.69728943 -3.4977999e-07 0)
(0.6972886 -3.7995489e-07 0)
(0.69728793 -3.0463485e-07 0)
(0.69728747 -2.0889966e-07 0)
(0.69728717 -1.2789832e-07 0)
(0.69728701 -7.0558878e-08 0)
(0.69728692 -3.4567462e-08 0)
(0.69728688 -1.4111819e-08 0)
(0.69728686 -3.6878075e-09 0)
(0.69728685 9.7047744e-10 0)
(0.69728685 2.5538259e-09 0)
(0.69728685 2.7510263e-09 0)
(0.69728685 2.3416542e-09 0)
(0.69728686 1.8066591e-09 0)
(0.69728686 1.2784063e-09 0)
(0.69728686 8.7059801e-10 0)
(0.69728686 5.1966046e-10 0)
(0.69728686 2.876218e-10 0)
(0.69728686 1.0043153e-10 0)
(0.69728686 3.2263571e-11 0)
(0.69728686 -4.0536693e-11 0)
(0.69728686 -1.8641809e-11 0)
(0.69728686 -1.9797826e-11 0)
(0.69728686 5.7560852e-11 0)
(0.69728686 7.932969e-11 0)
(0.69728686 1.4497817e-10 0)
(0.69728686 1.5535277e-10 0)
(0.69728686 1.9827992e-10 0)
(0.69728686 1.6456608e-10 0)
(0.69728686 1.5032677e-10 0)
(0.69728686 7.8490095e-11 0)
(0.69728686 5.0519045e-11 0)
(0.69728686 -3.9558139e-11 0)
(0.69728686 -7.9583989e-11 0)
(0.69728686 -1.6117833e-10 0)
(0.69728686 -1.767713e-10 0)
(0.69728686 -2.2569005e-10 0)
(0.69728686 -2.1214796e-10 0)
(0.69728686 -2.1397739e-10 0)
(0.69728686 -1.4403544e-10 0)
(0.69728686 -1.1348755e-10 0)
(0.69728686 -2.9686553e-11 0)
(0.69728686 1.3529646e-11 0)
(0.69728686 1.1164564e-10 0)
(0.69728686 1.5093519e-10 0)
(0.69728686 2.2077573e-10 0)
(0.69728686 2.3823019e-10 0)
(0.69728686 2.8415326e-10 0)
(0.69728686 2.5936291e-10 0)
(0.69728686 2.5243545e-10 0)
(0.69728686 1.8914766e-10 0)
(0.69728686 1.6199899e-10 0)
(0.69728686 7.5321128e-11 0)
(0.69728686 2.5649121e-11 0)
(0.69728686 -6.5119276e-11 0)
(0.69728686 -9.3282916e-11 0)
(0.69728686 -1.7461328e-10 0)
(0.69728686 -2.0431486e-10 0)
(0.69728686 -2.5384764e-10 0)
(0.69728686 -2.3516569e-10 0)
(0.69728686 -2.4698629e-10 0)
(0.69728686 -1.967004e-10 0)
(0.69728686 -1.6268078e-10 0)
(0.69728686 -6.0388152e-11 0)
(0.69728686 1.0720221e-11 0)
(0.69728686 1.4904236e-10 0)
(0.69728686 2.6864152e-10 0)
(0.69728686 4.8357391e-10 0)
(0.69728686 7.4901114e-10 0)
(0.69728686 1.2122503e-09 0)
(0.69728686 1.7405167e-09 0)
(0.69728686 2.5264664e-09 0)
(0.69728687 3.0720711e-09 0)
(0.69728686 4.1443453e-09 0)
(0.69728688 4.9996118e-09 0)
(0.69728684 6.504203e-09 0)
(0.69728692 7.4986944e-09 0)
(0.68585233 -9.3888895e-05 0)
(0.68917767 -0.00046254389 0)
(0.68942758 -0.00068239226 0)
(0.6897563 -0.00070699515 0)
(0.69085785 -0.00064330938 0)
(0.69217298 -0.00057265353 0)
(0.69327647 -0.00051105733 0)
(0.69413215 -0.00044987466 0)
(0.69483339 -0.00038579425 0)
(0.69543082 -0.00032238727 0)
(0.69592867 -0.00026325428 0)
(0.69632559 -0.0002097048 0)
(0.69663025 -0.00016204099 0)
(0.69685683 -0.00012068831 0)
(0.69701939 -8.6156726e-05 0)
(0.69713077 -5.8632328e-05 0)
(0.69720291 -3.7788828e-05 0)
(0.69724667 -2.2853382e-05 0)
(0.69727121 -1.278017e-05 0)
(0.69728358 -6.4293841e-06 0)
(0.69728886 -2.731241e-06 0)
(0.69729039 -7.7941669e-07 0)
(0.69729019 9.8061349e-08 0)
(0.6972894 4.0124656e-07 0)
(0.69728857 4.2793827e-07 0)
(0.6972879 3.4767515e-07 0)
(0.69728744 2.4562015e-07 0)
(0.69728716 1.5848477e-07 0)
(0.69728699 9.4954614e-08 0)
(0.69728691 5.3891058e-08 0)
(0.69728687 2.878794e-08 0)
(0.69728685 1.4958415e-08 0)
(0.69728685 7.2464349e-09 0)
(0.69728685 3.6910817e-09 0)
(0.69728685 1.589017e-09 0)
(0.69728685 9.1768267e-10 0)
(0.69728685 2.5067813e-10 0)
(0.69728686 2.5843543e-10 0)
(0.69728686 -1.0545271e-10 0)
(0.69728686 3.9664486e-11 0)
(0.69728686 -2.5147913e-10 0)
(0.69728686 -1.584e-11 0)
(0.69728686 -2.4793372e-10 0)
(0.69728686 2.5709337e-11 0)
(0.69728686 -1.8493502e-10 0)
(0.69728686 1.2311986e-10 0)
(0.69728686 -7.3723362e-11 0)
(0.69728686 2.0731342e-10 0)
(0.69728686 -2.3324472e-11 0)
(0.69728686 2.369928e-10 0)
(0.69728686 -2.0949119e-11 0)
(0.69728686 1.921433e-10 0)
(0.69728686 -9.9690298e-11 0)
(0.69728686 1.1264519e-10 0)
(0.69728686 -1.8188302e-10 0)
(0.69728686 1.1950254e-11 0)
(0.69728686 -2.8027777e-10 0)
(0.69728686 -4.3831082e-11 0)
(0.69728686 -2.8847992e-10 0)
(0.69728686 -2.9972158e-11 0)
(0.69728686 -2.4763521e-10 0)
(0.69728686 5.3353801e-11 0)
(0.69728686 -1.414621e-10 0)
(0.69728686 1.5552643e-10 0)
(0.69728686 -4.1825619e-11 0)
(0.69728686 2.6637571e-10 0)
(0.69728686 6.9664444e-11 0)
(0.69728686 3.3676944e-10 0)
(0.69728686 9.3669443e-11 0)
(0.69728686 3.3583004e-10 0)
(0.69728686 6.1957027e-11 0)
(0.69728686 2.5842131e-10 0)
(0.69728686 -4.4624699e-11 0)
(0.69728686 1.5675201e-10 0)
(0.69728686 -1.4404368e-10 0)
(0.69728686 3.62297e-11 0)
(0.69728686 -2.6557318e-10 0)
(0.69728686 -5.7394642e-11 0)
(0.69728686 -3.3253658e-10 0)
(0.69728686 -1.0927976e-10 0)
(0.69728686 -3.5608737e-10 0)
(0.69728686 -7.6482919e-11 0)
(0.69728686 -2.7824596e-10 0)
(0.69728686 1.8975731e-11 0)
(0.69728686 -1.7082673e-10 0)
(0.69728686 1.5432664e-10 0)
(0.69728686 -2.0779675e-13 0)
(0.69728686 3.3068194e-10 0)
(0.69728686 1.8915283e-10 0)
(0.69728686 5.4230914e-10 0)
(0.69728686 4.4256474e-10 0)
(0.69728686 8.6980949e-10 0)
(0.69728686 7.9466152e-10 0)
(0.69728686 1.2628909e-09 0)
(0.69728686 8.2237634e-10 0)
(0.69728687 7.9963777e-10 0)
(0.69728686 -2.3084699e-10 0)
(0.69728688 -1.3208389e-09 0)
(0.69728684 -3.1949411e-09 0)
(0.69728692 -4.7405401e-09 0)
(0.65472737 -0.00028743902 0)
(0.65774576 -0.0013467228 0)
(0.65787016 -0.0019326865 0)
(0.65799378 -0.0019569053 0)
(0.65873337 -0.0017459468 0)
(0.65960961 -0.0015260652 0)
(0.66028204 -0.001337324 0)
(0.6607438 -0.0011558376 0)
(0.66108798 -0.00097342815 0)
(0.66136486 -0.00079921986 0)
(0.66158332 -0.00064151286 0)
(0.66174572 -0.00050244133 0)
(0.66186064 -0.00038167892 0)
(0.66193915 -0.00027930958 0)
(0.66199066 -0.00019569336 0)
(0.66202247 -0.00013046213 0)
(0.66204045 -8.2115167e-05 0)
(0.66204943 -4.8238842e-05 0)
(0.66205304 -2.5940197e-05 0)
(0.66205381 -1.2278903e-05 0)
(0.6620533 -4.605802e-06 0)
(0.66205238 -7.8078663e-07 0)
(0.66205148 7.949376e-07 0)
(0.66205079 1.2091111e-06 0)
(0.66205031 1.1041207e-06 0)
(0.66205002 8.3077688e-07 0)
(0.66204984 5.5624468e-07 0)
(0.66204976 3.4106061e-07 0)
(0.66204972 1.9394692e-07 0)
(0.66204971 1.0240348e-07 0)
(0.6620497 4.9980719e-08 0)
(0.66204971 2.1954414e-08 0)
(0.66204971 8.2715132e-09 0)
(0.66204971 2.0362552e-09 0)
(0.66204971 -3.2769938e-10 0)
(0.66204972 -1.129709e-09 0)
(0.66204972 -1.1155026e-09 0)
(0.66204972 -1.0194494e-09 0)
(0.66204972 -7.6314001e-10 0)
(0.66204972 -6.7107933e-10 0)
(0.66204972 -4.4732904e-10 0)
(0.66204972 -3.8320711e-10 0)
(0.66204972 -2.0132392e-10 0)
(0.66204972 -1.8807886e-10 0)
(0.66204972 -3.510505e-11 0)
(0.66204972 -4.1129033e-11 0)
(0.66204972 6.6930874e-11 0)
(0.66204973 6.2136505e-12 0)
(0.66204972 8.5943695e-11 0)
(0.66204973 8.6270004e-12 0)
(0.66204972 4.9813082e-11 0)
(0.66204973 -6.7419302e-11 0)
(0.66204972 -2.5161315e-11 0)
(0.66204973 -1.2542813e-10 0)
(0.66204972 -8.6506492e-11 0)
(0.66204973 -1.8903339e-10 0)
(0.66204972 -1.1311062e-10 0)
(0.66204973 -1.6069188e-10 0)
(0.66204972 -6.0014737e-11 0)
(0.66204973 -1.0089989e-10 0)
(0.66204972 2.6631946e-11 0)
(0.66204973 1.4912746e-11 0)
(0.66204972 1.3484609e-10 0)
(0.66204973 9.8245697e-11 0)
(0.66204972 2.1542333e-10 0)
(0.66204973 1.7623438e-10 0)
(0.66204972 2.5194339e-10 0)
(0.66204973 1.5065708e-10 0)
(0.66204972 1.9611597e-10 0)
(0.66204973 8.5140041e-11 0)
(0.66204972 9.820704e-11 0)
(0.66204973 -4.5886851e-11 0)
(0.66204972 -2.9476208e-11 0)
(0.66204973 -1.5055975e-10 0)
(0.66204972 -1.3570993e-10 0)
(0.66204973 -2.6347853e-10 0)
(0.66204972 -2.1504083e-10 0)
(0.66204973 -2.8880273e-10 0)
(0.66204972 -2.0761435e-10 0)
(0.66204973 -2.6226309e-10 0)
(0.66204972 -1.3530332e-10 0)
(0.66204973 -1.407798e-10 0)
(0.66204972 -4.8479336e-12 0)
(0.66204973 -1.4679956e-11 0)
(0.66204972 1.4081949e-10 0)
(0.66204973 1.6357147e-10 0)
(0.66204972 3.1868318e-10 0)
(0.66204972 3.2334476e-10 0)
(0.66204972 4.6821221e-10 0)
(0.66204972 4.8017655e-10 0)
(0.66204972 5.996252e-10 0)
(0.66204973 5.7945322e-10 0)
(0.66204972 5.3076582e-10 0)
(0.66204973 2.7306019e-10 0)
(0.66204972 -6.6542136e-10 0)
(0.66204973 -1.590753e-09 0)
(0.66204972 -4.3173066e-09 0)
(0.66204974 -7.2265936e-09 0)
(0.66204971 -1.2558537e-08 0)
(0.66204977 -1.6562479e-08 0)
(0.5810281 -0.00047843362 0)
(0.58327826 -0.0020178017 0)
(0.58292952 -0.0027177055 0)
(0.5824446 -0.0026003898 0)
(0.58236137 -0.0022045334 0)
(0.58236632 -0.0018410927 0)
(0.58225574 -0.0015478284 0)
(0.58205407 -0.0012862267 0)
(0.58183794 -0.0010431144 0)
(0.58164392 -0.0008262149 0)
(0.58147636 -0.0006410087 0)
(0.58133315 -0.00048586176 0)
(0.58121442 -0.00035718308 0)
(0.58112051 -0.00025259983 0)
(0.58104981 -0.000170537 0)
(0.58099907 -0.00010901274 0)
(0.58096444 -6.5233319e-05 0)
(0.58094208 -3.5862437e-05 0)
(0.58092858 -1.7456852e-05 0)
(0.58092106 -6.8452897e-06 0)
(0.58091729 -1.3862704e-06 0)
(0.58091571 9.7382725e-07 0)
(0.58091526 1.6686328e-06 0)
(0.58091533 1.5819586e-06 0)
(0.58091556 1.2197185e-06 0)
(0.5809158 8.3185486e-07 0)
(0.580916 5.1820422e-07 0)
(0.58091613 2.9798971e-07 0)
(0.58091622 1.5883993e-07 0)
(0.58091627 7.7314478e-08 0)
(0.5809163 3.371957e-08 0)
(0.58091632 1.1728562e-08 0)
(0.58091633 2.2981549e-09 0)
(0.58091633 -1.6401769e-09 0)
(0.58091633 -2.3484994e-09 0)
(0.58091633 -2.4962092e-09 0)
(0.58091634 -1.8105931e-09 0)
(0.58091633 -1.619236e-09 0)
(0.58091634 -9.9711525e-10 0)
(0.58091633 -9.6004368e-10 0)
(0.58091634 -4.5509167e-10 0)
(0.58091633 -5.4000683e-10 0)
(0.58091634 -1.372492e-10 0)
(0.58091633 -2.9769643e-10 0)
(0.58091634 6.8296694e-11 0)
(0.58091633 -1.4746497e-10 0)
(0.58091634 1.4276612e-10 0)
(0.58091633 -1.2253128e-10 0)
(0.58091634 1.4637039e-10 0)
(0.58091634 -1.5353789e-10 0)
(0.58091634 7.2612266e-11 0)
(0.58091634 -2.3592746e-10 0)
(0.58091634 1.482696e-11 0)
(0.58091634 -2.8285887e-10 0)
(0.58091634 -2.8552635e-11 0)
(0.58091634 -2.9006318e-10 0)
(0.58091634 2.0500379e-11 0)
(0.58091634 -2.1101513e-10 0)
(0.58091634 1.0096508e-10 0)
(0.58091633 -1.1353736e-10 0)
(0.58091634 2.2642426e-10 0)
(0.58091633 4.8490535e-12 0)
(0.58091634 3.1411272e-10 0)
(0.58091633 7.2441273e-11 0)
(0.58091634 3.6789295e-10 0)
(0.58091633 8.7345559e-11 0)
(0.58091634 3.1705731e-10 0)
(0.58091634 3.0790212e-13 0)
(0.58091634 2.2372052e-10 0)
(0.58091634 -1.144097e-10 0)
(0.58091634 7.9127786e-11 0)
(0.58091634 -2.590169e-10 0)
(0.58091634 -3.6095431e-11 0)
(0.58091634 -3.6418838e-10 0)
(0.58091634 -1.4244759e-10 0)
(0.58091634 -4.298441e-10 0)
(0.58091634 -1.4534146e-10 0)
(0.58091634 -3.899704e-10 0)
(0.58091634 -8.7717616e-11 0)
(0.58091634 -2.9682715e-10 0)
(0.58091634 5.646888e-11 0)
(0.58091633 -1.3967084e-10 0)
(0.58091634 1.9927877e-10 0)
(0.58091633 4.3067939e-12 0)
(0.58091634 3.7088083e-10 0)
(0.58091633 1.8041138e-10 0)
(0.58091634 5.0298992e-10 0)
(0.58091633 2.9310197e-10 0)
(0.58091634 5.9669976e-10 0)
(0.58091633 3.6667723e-10 0)
(0.58091634 5.8778373e-10 0)
(0.58091634 2.655687e-10 0)
(0.58091634 2.0098959e-10 0)
(0.58091634 -5.478412e-10 0)
(0.58091634 -1.5809792e-09 0)
(0.58091634 -3.0211045e-09 0)
(0.58091633 -6.8685249e-09 0)
(0.58091635 -1.0795074e-08 0)
(0.58091631 -1.9613817e-08 0)
(0.58091637 -2.5711679e-08 0)
(0.44078541 -0.00059173855 0)
(0.44156735 -0.0020737441 0)
(0.44021477 -0.0024677053 0)
(0.43873235 -0.0020853572 0)
(0.4376209 -0.0015704322 0)
(0.43673184 -0.00118889 0)
(0.43594406 -0.00092543926 0)
(0.43525384 -0.00071975669 0)
(0.43468144 -0.00054904115 0)
(0.43422561 -0.00041137493 0)
(0.4338701 -0.00030396063 0)
(0.43359763 -0.0002204564 0)
(0.43339416 -0.00015517477 0)
(0.43324764 -0.00010470994 0)
(0.43314666 -6.6966697e-05 0)
(0.4330805 -4.0051234e-05 0)
(0.43303969 -2.1932158e-05 0)
(0.4330163 -1.0541164e-05 0)
(0.43300418 -3.9623266e-06 0)
(0.43299879 -5.6432223e-07 0)
(0.43299711 9.2216063e-07 0)
(0.43299721 1.3311432e-06 0)
(0.43299796 1.2244556e-06 0)
(0.4329988 9.3570153e-07 0)
(0.43299949 6.3701081e-07 0)
(0.43299999 3.9693452e-07 0)
(0.43300032 2.2820302e-07 0)
(0.43300051 1.2109676e-07 0)
(0.43300062 5.824246e-08 0)
(0.43300068 2.4564056e-08 0)
(0.4330007 7.7875339e-09 0)
(0.43300071 6.4946751e-10 0)
(0.43300072 -2.1378808e-09 0)
(0.43300072 -2.5384138e-09 0)
(0.43300072 -2.4063664e-09 0)
(0.43300072 -1.7792732e-09 0)
(0.43300072 -1.4535282e-09 0)
(0.43300072 -9.545202e-10 0)
(0.43300072 -8.1607468e-10 0)
(0.43300072 -4.5059919e-10 0)
(0.43300072 -4.3455793e-10 0)
(0.43300072 -1.7676244e-10 0)
(0.43300072 -2.4174839e-10 0)
(0.43300072 -1.5551294e-11 0)
(0.43300072 -1.1842346e-10 0)
(0.43300072 4.9657402e-11 0)
(0.43300072 -9.3551853e-11 0)
(0.43300072 6.3536905e-11 0)
(0.43300072 -1.015182e-10 0)
(0.43300072 1.8263097e-11 0)
(0.43300072 -1.5704944e-10 0)
(0.43300072 -1.2331377e-11 0)
(0.43300072 -1.7310182e-10 0)
(0.43300072 -3.127636e-11 0)
(0.43300072 -1.7452276e-10 0)
(0.43300072 8.2657395e-12 0)
(0.43300072 -1.114162e-10 0)
(0.43300072 6.5558748e-11 0)
(0.43300072 -4.7167155e-11 0)
(0.43300072 1.5665622e-10 0)
(0.43300072 4.0738822e-11 0)
(0.43300072 2.0989857e-10 0)
(0.43300072 6.9661193e-11 0)
(0.43300072 2.3467406e-10 0)
(0.43300072 7.0353682e-11 0)
(0.43300072 1.8634893e-10 0)
(0.43300072 4.2405778e-13 0)
(0.43300072 1.2101182e-10 0)
(0.43300072 -7.6863571e-11 0)
(0.43300072 1.325242e-11 0)
(0.43300072 -1.8984459e-10 0)
(0.43300072 -6.8727621e-11 0)
(0.43300072 -2.5271016e-10 0)
(0.43300072 -1.3063142e-10 0)
(0.43300072 -2.8817194e-10 0)
(0.43300072 -1.1417148e-10 0)
(0.43300072 -2.3950467e-10 0)
(0.43300072 -6.4248634e-11 0)
(0.43300072 -1.7401287e-10 0)
(0.43300072 3.711384e-11 0)
(0.43300072 -5.8460112e-11 0)
(0.43300072 1.4195204e-10 0)
(0.43300072 4.4909671e-11 0)
(0.43300072 2.6307261e-10 0)
(0.43300072 1.5823184e-10 0)
(0.43300072 3.3240268e-10 0)
(0.43300072 2.0568375e-10 0)
(0.43300072 3.771145e-10 0)
(0.43300072 2.3215495e-10 0)
(0.43300072 3.6335385e-10 0)
(0.43300072 1.4966108e-10 0)
(0.43300072 1.9261976e-10 0)
(0.43300072 -3.2127931e-10 0)
(0.43300072 -6.7029464e-10 0)
(0.43300072 -1.7694611e-09 0)
(0.43300072 -2.9568958e-09 0)
(0.43300071 -6.6556398e-09 0)
(0.43300071 -1.0204614e-08 0)
(0.43300069 -2.0978246e-08 0)
(0.43300071 -2.7214885e-08 0)
(0.19688619 -0.00041049863 0)
(0.19597737 -0.0010231457 0)
(0.19413197 -0.00097461897 0)
(0.19255956 -0.00065400289 0)
(0.19147272 -0.00039595509 0)
(0.19071355 -0.00025721971 0)
(0.19014241 -0.0001824818 0)
(0.18969961 -0.00013109416 0)
(0.18936108 -9.2164384e-05 0)
(0.18910754 -6.4273279e-05 0)
(0.18891985 -4.5041812e-05 0)
(0.18878236 -3.1356685e-05 0)
(0.18868375 -2.1148956e-05 0)
(0.18861547 -1.3506345e-05 0)
(0.1885704 -8.0045421e-06 0)
(0.1885424 -4.2795083e-06 0)
(0.18852627 -1.9445108e-06 0)
(0.18851794 -6.1728406e-07 0)
(0.18851436 4.2571777e-08 0)
(0.18851342 3.0755848e-07 0)
(0.18851371 3.9646066e-07 0)
(0.18851441 3.5744945e-07 0)
(0.18851515 2.7142801e-07 0)
(0.18851576 1.8485011e-07 0)
(0.1885162 1.1518033e-07 0)
(0.18851649 6.6377142e-08 0)
(0.18851666 3.4873804e-08 0)
(0.18851676 1.6598033e-08 0)
(0.18851681 6.490448e-09 0)
(0.18851683 1.8241976e-09 0)
(0.18851684 -3.6427296e-10 0)
(0.18851684 -8.4622097e-10 0)
(0.18851684 -1.1273623e-09 0)
(0.18851684 -8.1409564e-10 0)
(0.18851684 -7.7231371e-10 0)
(0.18851684 -4.1802302e-10 0)
(0.18851683 -4.4875198e-10 0)
(0.18851683 -1.7914455e-10 0)
(0.18851683 -2.6637306e-10 0)
(0.18851683 -3.1976013e-11 0)
(0.18851683 -1.713545e-10 0)
(0.18851683 3.2635556e-11 0)
(0.18851683 -1.215294e-10 0)
(0.18851683 7.1421074e-11 0)
(0.18851683 -1.071907e-10 0)
(0.18851683 6.8942275e-11 0)
(0.18851683 -1.0118829e-10 0)
(0.18851683 7.8685488e-11 0)
(0.18851683 -1.0717641e-10 0)
(0.18851683 6.5225023e-11 0)
(0.18851683 -1.0634176e-10 0)
(0.18851683 7.7082961e-11 0)
(0.18851683 -1.0506741e-10 0)
(0.18851683 7.5539859e-11 0)
(0.18851683 -8.9609526e-11 0)
(0.18851683 1.007939e-10 0)
(0.18851683 -7.502264e-11 0)
(0.18851683 1.0766125e-10 0)
(0.18851683 -5.60121e-11 0)
(0.18851683 1.2998645e-10 0)
(0.18851683 -5.422043e-11 0)
(0.18851683 1.2145905e-10 0)
(0.18851683 -5.6039778e-11 0)
(0.18851683 1.2109096e-10 0)
(0.18851683 -7.6338608e-11 0)
(0.18851683 8.8714716e-11 0)
(0.18851683 -9.4567414e-11 0)
(0.18851683 7.4115485e-11 0)
(0.18851683 -1.2271048e-10 0)
(0.18851683 4.1391749e-11 0)
(0.18851683 -1.3804677e-10 0)
(0.18851683 4.0770994e-11 0)
(0.18851683 -1.4803727e-10 0)
(0.18851683 3.0133602e-11 0)
(0.18851683 -1.3621303e-10 0)
(0.18851683 5.9516343e-11 0)
(0.18851683 -1.1418832e-10 0)
(0.18851683 7.63123e-11 0)
(0.18851683 -8.1283246e-11 0)
(0.18851683 1.151791e-10 0)
(0.18851683 -5.5013056e-11 0)
(0.18851683 1.3138374e-10 0)
(0.18851683 -2.9960237e-11 0)
(0.18851683 1.6408329e-10 0)
(0.18851683 -1.4640468e-11 0)
(0.18851683 1.6516094e-10 0)
(0.18851683 -5.3314171e-12 0)
(0.18851683 1.7373023e-10 0)
(0.18851683 -1.5095738e-11 0)
(0.18851683 1.4633681e-10 0)
(0.18851683 -6.649721e-11 0)
(0.18851683 4.1308079e-11 0)
(0.18851683 -3.2149989e-10 0)
(0.18851683 -3.6276687e-10 0)
(0.18851683 -8.9847992e-10 0)