/*--------------------------------*- C++ -*----------------------------------*\
| =========                 |                                                 |
| \\      /  F ield         | OpenFOAM: The Open Source CFD Toolbox           |
|  \\    /   O peration     | Version:  v1812                                 |
|   \\  /    A nd           | Web:      www.OpenFOAM.com                      |
|    \\/     M anipulation  |                                                 |
\*---------------------------------------------------------------------------*/
FoamFile
{
    version     2.0;
    format      ascii;
    class       volScalarField;
    location    "2.8";
    object      p;
}
// * * * * * * * * * * * * * * * * * * * * * * * * * * * * * * * * * * * * * //

dimensions      [0 2 -2 0 0 0 0];


internalField   nonuniform List<scalar> 
1000
(
1.7147887
1.5937108
1.4977303
1.4340743
1.3855649
1.3430934
1.3055593
1.2733902
1.2459947
1.2221647
1.2007811
1.1810335
1.1623814
1.1444793
1.1271175
1.1101784
1.0936011
1.0773569
1.0614327
1.0458227
1.030522
1.0155242
1.000819
0.98639194
0.97222401
0.95829278
0.94457319
0.93103859
0.917662
0.9044173
0.8912802
0.87822886
0.86524428
0.85231044
0.83941425
0.82654533
0.81369566
0.80085925
0.78803173
0.77520999
0.76239191
0.74957606
0.73676153
0.72394773
0.71113432
0.69832108
0.68550791
0.67269475
0.65988159
0.64706839
0.63425518
0.62144195
0.6086287
0.59581544
0.58300217
0.57018889
0.55737561
0.54456232
0.53174903
0.51893574
0.50612245
0.49330916
0.48049586
0.46768257
0.45486928
0.44205598
0.42924269
0.4164294
0.4036161
0.39080281
0.37798952
0.36517622
0.35236293
0.33954963
0.32673634
0.31392304
0.30110976
0.28829646
0.27548317
0.26266987
0.24985658
0.23704329
0.22422999
0.2114167
0.19860341
0.18579012
0.17297683
0.16016353
0.14735025
0.13453696
0.12172367
0.10891039
0.096097116
0.083283859
0.070470593
0.057657302
0.044843979
0.032030767
0.019217764
0.0064054511
1.5975691
1.54264
1.4816877
1.4301203
1.3868506
1.3478829
1.3122976
1.2805263
1.2525685
1.2277969
1.2054044
1.1847159
1.1652536
1.146696
1.1288281
1.1115086
1.0946471
1.0781892
1.0621017
1.0463636
1.0309597
1.0158763
1.0010993
0.9866116
0.97239292
0.95841972
0.94466593
0.93110407
0.91770642
0.90444602
0.89129765
0.87823858
0.86524896
0.85231205
0.83941416
0.82654443
0.8136945
0.80085813
0.78803077
0.77520925
0.76239138
0.7495757
0.7367613
0.7239476
0.71113424
0.69832105
0.6855079
0.67269475
0.65988159
0.6470684
0.63425519
0.62144195
0.6086287
0.59581544
0.58300217
0.57018889
0.55737561
0.54456232
0.53174903
0.51893574
0.50612245
0.49330916
0.48049586
0.46768257
0.45486928
0.44205599
0.42924269
0.4164294
0.4036161
0.39080281
0.37798952
0.36517622
0.35236293
0.33954963
0.32673634
0.31392304
0.30110976
0.28829646
0.27548317
0.26266987
0.24985658
0.23704329
0.22422999
0.2114167
0.19860341
0.18579011
0.17297683
0.16016353
0.14735024
0.13453696
0.12172366
0.10891039
0.096097094
0.083283838
0.070470546
0.057657228
0.044843813
0.032030501
0.019217292
0.0064050564
1.5367479
1.510573
1.4721764
1.4310441
1.3919595
1.3553695
1.3210731
1.2893573
1.2605039
1.2344087
1.2106657
1.1887913
1.1683614
1.1490492
1.1306139
1.1128788
1.0957172
1.0790414
1.0627939
1.0469362
1.0314396
1.0162811
1.0014402
0.98689688
0.97262932
0.95861307
0.94482161
0.93122721
0.91780197
0.90451868
0.89135177
0.87827802
0.86527706
0.85233161
0.83942746
0.82655325
0.81370021
0.80086172
0.78803298
0.77521057
0.76239214
0.74957614
0.73676154
0.72394773
0.71113431
0.69832108
0.68550792
0.67269477
0.6598816
0.64706841
0.6342552
0.62144196
0.60862871
0.59581545
0.58300217
0.57018889
0.55737561
0.54456232
0.53174903
0.51893574
0.50612245
0.49330916
0.48049586
0.46768257
0.45486928
0.44205599
0.42924269
0.4164294
0.4036161
0.39080281
0.37798952
0.36517622
0.35236293
0.33954963
0.32673634
0.31392304
0.30110976
0.28829646
0.27548317
0.26266987
0.24985657
0.23704329
0.22422999
0.2114167
0.19860341
0.18579011
0.17297682
0.16016353
0.14735023
0.13453694
0.12172363
0.10891035
0.096097033
0.083283745
0.070470385
0.057656973
0.044843371
0.032029863
0.01921649
0.0064045046
1.5073395
1.4918416
1.4649721
1.431049
1.3952489
1.3602985
1.326998
1.2956474
1.26652
1.2397352
1.2151618
1.1924903
1.1713625
1.1514643
1.1325535
1.1144456
1.096997
1.0801009
1.0636834
1.0476938
1.0320932
1.016849
1.0019344
0.98732531
0.97299819
0.95892754
0.94508628
0.93144665
0.91798094
0.90466218
0.89146479
0.87836541
0.86534338
0.85238098
0.8394635
0.82657905
0.81371831
0.80087418
0.78804137
0.77521612
0.76239573
0.74957842
0.73676296
0.72394859
0.71113483
0.69832139
0.6855081
0.67269488
0.65988167
0.64706845
0.63425522
0.62144198
0.60862872
0.59581545
0.58300218
0.5701889
0.55737561
0.54456232
0.53174903
0.51893574
0.50612245
0.49330916
0.48049586
0.46768257
0.45486928
0.44205599
0.42924269
0.4164294
0.4036161
0.39080281
0.37798952
0.36517622
0.35236293
0.33954963
0.32673635
0.31392304
0.30110976
0.28829645
0.27548317
0.26266987
0.24985658
0.23704329
0.22422999
0.21141671
0.1986034
0.18579012
0.17297681
0.16016352
0.14735022
0.13453692
0.1217236
0.1089103
0.096096952
0.083283625
0.07047017
0.057656655
0.044842881
0.032029216
0.019215795
0.0064040775
1.494608
1.4826549
1.4604209
1.4301342
1.3962741
1.3622794
1.3295835
1.2985808
1.2694871
1.2424829
1.2175721
1.1945463
1.1730911
1.152905
1.1337506
1.1154442
1.0978378
1.0808164
1.0642993
1.0482304
1.0325656
1.0172676
1.0023055
0.98765334
0.97328625
0.95917818
0.94530174
0.93162918
0.91813309
0.90478681
0.89156505
0.87844453
0.8654046
0.85242741
0.839498
0.82660416
0.81373621
0.80088666
0.7880499
0.77522182
0.76239946
0.7495808
0.73676445
0.72394951
0.71113538
0.69832171
0.68550829
0.67269499
0.65988173
0.64706849
0.63425524
0.62144199
0.60862873
0.59581546
0.58300218
0.5701889
0.55737562
0.54456233
0.53174904
0.51893575
0.50612245
0.49330916
0.48049586
0.46768257
0.45486928
0.44205599
0.42924269
0.4164294
0.4036161
0.39080281
0.37798952
0.36517622
0.35236293
0.33954963
0.32673635
0.31392304
0.30110976
0.28829645
0.27548317
0.26266987
0.24985658
0.23704329
0.22422998
0.21141671
0.19860339
0.18579012
0.1729768
0.16016352
0.14735021
0.1345369
0.12172358
0.10891025
0.096096888
0.083283541
0.07047002
0.057656444
0.044842582
0.032028839
0.019215423
0.0064038677
1.4946079
1.4826548
1.4604209
1.4301341
1.396274
1.3622793
1.3295834
1.2985806
1.269487
1.2424828
1.217572
1.1945462
1.173091
1.152905
1.1337506
1.1154443
1.0978379
1.0808165
1.0642994
1.0482304
1.0325657
1.0172677
1.0023056
0.98765342
0.97328633
0.95917827
0.94530182
0.93162927
0.91813318
0.90478692
0.89156516
0.87844465
0.86540473
0.85242754
0.83949813
0.82660428
0.81373633
0.80088677
0.78805001
0.77522191
0.76239955
0.74958088
0.73676452
0.72394956
0.71113543
0.69832175
0.68550833
0.67269501
0.65988175
0.64706851
0.63425526
0.621442
0.60862874
0.59581547
0.58300219
0.57018891
0.55737562
0.54456233
0.53174904
0.51893575
0.50612245
0.49330916
0.48049587
0.46768257
0.45486928
0.44205599
0.42924269
0.4164294
0.4036161
0.39080281
0.37798952
0.36517622
0.35236293
0.33954963
0.32673635
0.31392304
0.30110976
0.28829645
0.27548317
0.26266987
0.24985658
0.23704329
0.22422998
0.21141671
0.19860339
0.18579011
0.1729768
0.16016351
0.1473502
0.13453689
0.12172357
0.10891024
0.096096878
0.083283529
0.070470012
0.057656434
0.044842574
0.032028832
0.019215423
0.0064038678
1.5073393
1.4918414
1.4649719
1.4310487
1.3952486
1.3602982
1.3269977
1.2956471
1.2665197
1.2397349
1.2151615
1.1924901
1.1713623
1.1514642
1.1325535
1.1144456
1.0969971
1.080101
1.0636836
1.047694
1.0320934
1.0168493
1.0019346
0.98732551
0.9729984
0.95892776
0.94508652
0.93144691
0.91798124
0.9046625
0.89146514
0.87836578
0.86534375
0.85238136
0.83946387
0.82657942
0.81371866
0.8008745
0.78804167
0.77521639
0.76239598
0.74957863
0.73676315
0.72394876
0.71113497
0.69832151
0.6855082
0.67269496
0.65988173
0.64706851
0.63425527
0.62144201
0.60862875
0.59581548
0.5830022
0.57018891
0.55737562
0.54456233
0.53174904
0.51893575
0.50612245
0.49330916
0.48049587
0.46768258
0.45486928
0.44205599
0.42924269
0.4164294
0.4036161
0.39080281
0.37798952
0.36517622
0.35236293
0.33954963
0.32673635
0.31392304
0.30110976
0.28829645
0.27548317
0.26266987
0.24985657
0.23704329
0.22422998
0.2114167
0.19860339
0.18579011
0.1729768
0.16016351
0.1473502
0.13453689
0.12172357
0.10891026
0.096096918
0.083283597
0.070470144
0.057656627
0.044842855
0.032029201
0.01921579
0.0064040767
1.5367476
1.5105727
1.4721761
1.4310437
1.3919591
1.3553691
1.3210727
1.2893568
1.2605034
1.2344082
1.2106653
1.1887909
1.1683611
1.149049
1.1306138
1.1128789
1.0957173
1.0790416
1.0627941
1.0469364
1.0314398
1.0162813
1.0014404
0.98689713
0.9726296
0.95861341
0.944822
0.93122767
0.91780249
0.90451925
0.89135238
0.87827865
0.8652777
0.85233225
0.83942808
0.82655384
0.81370075
0.80086222
0.78803343
0.77521098
0.76239251
0.74957646
0.73676182
0.72394797
0.71113452
0.69832126
0.68550807
0.6726949
0.65988171
0.6470685
0.63425527
0.62144202
0.60862875
0.59581548
0.5830022
0.57018892
0.55737562
0.54456234
0.53174904
0.51893575
0.50612245
0.49330916
0.48049587
0.46768258
0.45486928
0.44205599
0.42924269
0.4164294
0.4036161
0.39080281
0.37798952
0.36517622
0.35236293
0.33954963
0.32673634
0.31392304
0.30110976
0.28829646
0.27548316
0.26266987
0.24985657
0.23704329
0.22422998
0.2114167
0.1986034
0.1857901
0.17297681
0.1601635
0.1473502
0.1345369
0.12172358
0.1089103
0.096096984
0.083283707
0.070470349
0.057656935
0.044843333
0.032029838
0.019216482
0.0064045031
1.5975687
1.5426397
1.4816873
1.4301199
1.3868501
1.3478824
1.312297
1.2805257
1.2525679
1.2277963
1.2054039
1.1847155
1.1652533
1.1466958
1.128828
1.1115085
1.0946472
1.0781893
1.0621018
1.0463638
1.0309598
1.0158765
1.0010995
0.98661187
0.97239327
0.95842016
0.94466647
0.93110471
0.91770715
0.90444682
0.8912985
0.87823945
0.86524983
0.8523129
0.83941497
0.82654519
0.8136952
0.80085876
0.78803134
0.77520976
0.76239183
0.74957609
0.73676164
0.72394789
0.71113449
0.69832126
0.68550808
0.6726949
0.65988172
0.6470685
0.63425527
0.62144202
0.60862876
0.59581548
0.5830022
0.57018892
0.55737563
0.54456234
0.53174904
0.51893575
0.50612246
0.49330916
0.48049587
0.46768257
0.45486928
0.44205599
0.42924269
0.4164294
0.40361611
0.39080281
0.37798952
0.36517622
0.35236293
0.33954963
0.32673634
0.31392304
0.30110976
0.28829646
0.27548317
0.26266987
0.24985657
0.23704329
0.22422999
0.2114167
0.1986034
0.1857901
0.17297681
0.1601635
0.1473502
0.1345369
0.12172359
0.10891032
0.096097041
0.083283799
0.070470509
0.057657179
0.044843763
0.032030476
0.019217292
0.0064050608
1.7147883
1.5937104
1.4977299
1.4340738
1.3855644
1.3430929
1.3055587
1.2733896
1.2459941
1.2221641
1.2007805
1.181033
1.162381
1.1444789
1.1271173
1.1101783
1.0936011
1.0773568
1.0614328
1.0458227
1.0305221
1.0155243
1.0008193
0.98639224
0.9722244
0.95829327
0.94457379
0.9310393
0.9176628
0.90441819
0.89128115
0.87822984
0.86524526
0.8523114
0.83941516
0.82654618
0.81369645
0.80085996
0.78803236
0.77521055
0.7623924
0.74957649
0.7367619
0.72394804
0.71113458
0.69832131
0.6855081
0.67269491
0.65988171
0.6470685
0.63425527
0.62144202
0.60862875
0.59581548
0.5830022
0.57018892
0.55737563
0.54456234
0.53174904
0.51893575
0.50612246
0.49330916
0.48049587
0.46768258
0.45486928
0.44205599
0.42924269
0.4164294
0.4036161
0.39080281
0.37798952
0.36517622
0.35236293
0.33954963
0.32673634
0.31392304
0.30110975
0.28829646
0.27548317
0.26266987
0.24985658
0.23704329
0.22422999
0.2114167
0.1986034
0.1857901
0.1729768
0.1601635
0.1473502
0.1345369
0.1217236
0.10891033
0.096097066
0.083283821
0.070470541
0.057657234
0.044843923
0.032030759
0.01921779
0.0064054674
)
;

boundaryField
{
    top
    {
        type            zeroGradient;
    }
    inlet
    {
        type            zeroGradient;
    }
    outlet
    {
        type            fixedValue;
        value           uniform 0;
    }
    bottom
    {
        type            zeroGradient;
    }
    back
    {
        type            empty;
    }
    front
    {
        type            empty;
    }
}


// ************************************************************************* //
