/*--------------------------------*- C++ -*----------------------------------*\
| =========                 |                                                 |
| \\      /  F ield         | OpenFOAM: The Open Source CFD Toolbox           |
|  \\    /   O peration     | Version:  v1812                                 |
|   \\  /    A nd           | Web:      www.OpenFOAM.com                      |
|    \\/     M anipulation  |                                                 |
\*---------------------------------------------------------------------------*/
FoamFile
{
    version     2.0;
    format      ascii;
    class       volVectorField;
    location    "8.8";
    object      U;
}
// * * * * * * * * * * * * * * * * * * * * * * * * * * * * * * * * * * * * * //

dimensions      [0 1 -1 0 0 0 0];


internalField   nonuniform List<vector> 
1000
(
(0.91890839 0.035821913 0)
(0.86271384 0.062195638 0)
(0.7870597 0.06251009 0)
(0.69536033 0.054550395 0)
(0.61089745 0.044531651 0)
(0.54411592 0.034015971 0)
(0.49343012 0.024187539 0)
(0.45479414 0.016144229 0)
(0.42544582 0.010265785 0)
(0.40347313 0.0063041454 0)
(0.38715766 0.0037976297 0)
(0.3749622 0.0023103385 0)
(0.36566192 0.0014930152 0)
(0.35836272 0.0010851183 0)
(0.35244267 0.00090607229 0)
(0.34748201 0.00084105157 0)
(0.34320348 0.00082372389 0)
(0.33942726 0.00081931015 0)
(0.33603793 0.00081185181 0)
(0.33296114 0.00079580121 0)
(0.33014778 0.00077081167 0)
(0.32756384 0.00073870986 0)
(0.3251842 0.00070188977 0)
(0.32298902 0.00066256607 0)
(0.32096172 0.00062249981 0)
(0.31908785 0.00058295745 0)
(0.31735449 0.00054477135 0)
(0.31574996 0.0005084338 0)
(0.3142636 0.00047419124 0)
(0.31288574 0.0004421244 0)
(0.31160755 0.00041220952 0)
(0.31042101 0.00038436196 0)
(0.30931882 0.00035846549 0)
(0.30829437 0.00033439087 0)
(0.30734164 0.00031200712 0)
(0.30645515 0.0002911878 0)
(0.30562991 0.0002718142 0)
(0.30486136 0.00025377654 0)
(0.30414535 0.00023697409 0)
(0.30347806 0.00022131478 0)
(0.302856 0.00020671447 0)
(0.30227595 0.00019309622 0)
(0.30173495 0.00018038963 0)
(0.30123028 0.00016853015 0)
(0.3007594 0.00015745858 0)
(0.30032 0.00014712048 0)
(0.29990991 0.00013746573 0)
(0.29952713 0.0001284481 0)
(0.29916981 0.00012002475 0)
(0.29883622 0.00011215593 0)
(0.29852475 0.00010480458 0)
(0.29823393 9.7936144e-05 0)
(0.29796236 9.151837e-05 0)
(0.29770876 8.5521151e-05 0)
(0.29747193 7.9916504e-05 0)
(0.29725075 7.4678375e-05 0)
(0.29704419 6.9782584e-05 0)
(0.29685126 6.5206579e-05 0)
(0.29667108 6.0929263e-05 0)
(0.29650279 5.6930702e-05 0)
(0.29634561 5.3192028e-05 0)
(0.29619882 4.9695175e-05 0)
(0.29606174 4.6423101e-05 0)
(0.29593374 4.3359465e-05 0)
(0.29581424 4.0489209e-05 0)
(0.29570269 3.7798101e-05 0)
(0.2955986 3.5273319e-05 0)
(0.2955015 3.2902723e-05 0)
(0.29541096 3.0675324e-05 0)
(0.29532658 2.8580364e-05 0)
(0.29524799 2.6608001e-05 0)
(0.29517485 2.4748289e-05 0)
(0.29510686 2.2992564e-05 0)
(0.29504373 2.1332357e-05 0)
(0.29498519 1.9761131e-05 0)
(0.29493099 1.8272913e-05 0)
(0.2948809 1.6863671e-05 0)
(0.29483469 1.5529596e-05 0)
(0.29479215 1.4268045e-05 0)
(0.29475309 1.3075753e-05 0)
(0.2947173 1.1950194e-05 0)
(0.29468462 1.0887937e-05 0)
(0.29465487 9.8868978e-06 0)
(0.29462788 8.9445044e-06 0)
(0.29460348 8.0603854e-06 0)
(0.29458151 7.2334162e-06 0)
(0.2945618 6.4647922e-06 0)
(0.29454419 5.7529791e-06 0)
(0.29452852 5.099329e-06 0)
(0.29451465 4.4989608e-06 0)
(0.2945024 3.9537566e-06 0)
(0.29449167 3.4542255e-06 0)
(0.29448229 3.0068421e-06 0)
(0.29447416 2.5968583e-06 0)
(0.29446712 2.2404767e-06 0)
(0.29446108 1.9150183e-06 0)
(0.29445591 1.6471841e-06 0)
(0.29445143 1.4087775e-06 0)
(0.29444782 1.2253844e-06 0)
(0.29444386 1.1045681e-06 0)
(1.0016583 0.05381943 0)
(1.0359761 0.10128444 0)
(1.0597199 0.11073663 0)
(1.0628947 0.10592202 0)
(1.0515569 0.096228728 0)
(1.0340529 0.083934061 0)
(1.0142795 0.070327062 0)
(0.99360703 0.056981333 0)
(0.97292577 0.045107479 0)
(0.9531074 0.03523675 0)
(0.93479538 0.027401651 0)
(0.91829012 0.021387228 0)
(0.90362379 0.016884499 0)
(0.89068067 0.013569709 0)
(0.87928174 0.011147749 0)
(0.86923242 0.0093736586 0)
(0.86034423 0.0080569278 0)
(0.85244667 0.0070571271 0)
(0.84539241 0.0062752381 0)
(0.83905793 0.0056438285 0)
(0.83334126 0.0051180912 0)
(0.82815884 0.0046686727 0)
(0.82344212 0.0042764178 0)
(0.81913467 0.0039287392 0)
(0.81518961 0.0036172037 0)
(0.81156765 0.0033359703 0)
(0.80823544 0.0030808036 0)
(0.8051644 0.0028484684 0)
(0.80232979 0.0026363688 0)
(0.79970999 0.0024423383 0)
(0.79728597 0.002264519 0)
(0.79504086 0.0021012907 0)
(0.79295962 0.0019512267 0)
(0.7910288 0.0018130646 0)
(0.78923627 0.0016856851 0)
(0.78757109 0.0015680938 0)
(0.78602337 0.0014594065 0)
(0.78458411 0.0013588361 0)
(0.7832451 0.0012656805 0)
(0.78199888 0.001179312 0)
(0.78083859 0.0010991679 0)
(0.77975797 0.0010247429 0)
(0.77875126 0.00095558129 0)
(0.77781316 0.00089127163 0)
(0.77693879 0.00083144115 0)
(0.77612365 0.00077575134 0)
(0.7753636 0.00072389403 0)
(0.77465478 0.00067558787 0)
(0.77399364 0.00063057531 0)
(0.77337689 0.00058861986 0)
(0.77280149 0.00054950382 0)
(0.77226459 0.00051302636 0)
(0.77176357 0.0004790019 0)
(0.771296 0.00044725881 0)
(0.77085961 0.00041763829 0)
(0.77045229 0.00038999326 0)
(0.77007208 0.00036418744 0)
(0.76971717 0.00034009414 0)
(0.76938586 0.00031759536 0)
(0.76907657 0.00029658063 0)
(0.76878785 0.00027694626 0)
(0.76851834 0.00025859457 0)
(0.76826677 0.00024143362 0)
(0.76803198 0.00022537688 0)
(0.76781287 0.00021034343 0)
(0.76760845 0.00019625769 0)
(0.76741778 0.0001830496 0)
(0.76724 0.00017065393 0)
(0.76707431 0.00015901015 0)
(0.76691997 0.00014806163 0)
(0.76677631 0.00013775554 0)
(0.76664268 0.00012804256 0)
(0.76651853 0.00011887752 0)
(0.76640329 0.00011021964 0)
(0.76629649 0.00010203354 0)
(0.76619765 9.4288887e-05 0)
(0.76610632 8.6960741e-05 0)
(0.76602211 8.0028027e-05 0)
(0.76594463 7.347324e-05 0)
(0.7658735 6.7280418e-05 0)
(0.76580837 6.1435719e-05 0)
(0.76574891 5.5925733e-05 0)
(0.7656948 5.0740146e-05 0)
(0.76564571 4.5868865e-05 0)
(0.76560133 4.130728e-05 0)
(0.76556137 3.7048215e-05 0)
(0.76552551 3.3092249e-05 0)
(0.76549349 2.9429265e-05 0)
(0.76546498 2.6062382e-05 0)
(0.76543975 2.2969485e-05 0)
(0.76541748 2.0159539e-05 0)
(0.76539798 1.7590227e-05 0)
(0.76538092 1.5292691e-05 0)
(0.76536614 1.3190782e-05 0)
(0.76535334 1.1368821e-05 0)
(0.76534232 9.6784782e-06 0)
(0.76533303 8.3191247e-06 0)
(0.76532464 6.9670638e-06 0)
(0.76531874 6.126609e-06 0)
(0.76531084 4.9549601e-06 0)
(1.0014244 0.026824855 0)
(1.0291272 0.062791352 0)
(1.0654292 0.077736553 0)
(1.098962 0.0805972 0)
(1.1253149 0.078285171 0)
(1.145053 0.073153899 0)
(1.1594858 0.066111278 0)
(1.1694287 0.058162063 0)
(1.1755354 0.050296754 0)
(1.1785738 0.043150708 0)
(1.1793571 0.036972825 0)
(1.1785949 0.031771632 0)
(1.1768304 0.02745184 0)
(1.1744518 0.023886768 0)
(1.1717287 0.02094762 0)
(1.1688444 0.01851578 0)
(1.1659195 0.016488084 0)
(1.1630317 0.014779502 0)
(1.1602295 0.013322985 0)
(1.1575415 0.012067132 0)
(1.1549828 0.010973001 0)
(1.1525601 0.010011062 0)
(1.1502747 0.0091587478 0)
(1.1481246 0.0083986052 0)
(1.1461059 0.0077169513 0)
(1.1442134 0.0071028885 0)
(1.1424414 0.0065475918 0)
(1.1407838 0.0060437951 0)
(1.1392344 0.0055854259 0)
(1.1377869 0.0051673448 0)
(1.1364353 0.0047851579 0)
(1.1351738 0.0044350779 0)
(1.1339968 0.0041138191 0)
(1.1328987 0.0038185156 0)
(1.1318746 0.0035466558 0)
(1.1309195 0.0032960296 0)
(1.1300289 0.003064685 0)
(1.1291985 0.0028508919 0)
(1.1284242 0.0026531113 0)
(1.1277022 0.0024699698 0)
(1.1270291 0.0023002375 0)
(1.1264014 0.0021428102 0)
(1.125816 0.0019966929 0)
(1.1252702 0.001860987 0)
(1.1247612 0.0017348788 0)
(1.1242865 0.0016176294 0)
(1.1238437 0.0015085668 0)
(1.1234307 0.0014070776 0)
(1.1230455 0.0013126015 0)
(1.1226861 0.0012246248 0)
(1.1223508 0.0011426756 0)
(1.122038 0.0010663201 0)
(1.1217462 0.00099515799 0)
(1.1214739 0.00092882023 0)
(1.1212198 0.0008669657 0)
(1.1209827 0.00080927901 0)
(1.1207614 0.00075546811 0)
(1.1205548 0.00070526211 0)
(1.1203621 0.00065840915 0)
(1.1201822 0.00061467452 0)
(1.1200143 0.00057383872 0)
(1.1198576 0.00053569634 0)
(1.1197114 0.00050005454 0)
(1.1195749 0.00046673264 0)
(1.1194476 0.0004355612 0)
(1.1193287 0.00040638206 0)
(1.1192179 0.00037904748 0)
(1.1191145 0.00035341996 0)
(1.119018 0.00032937121 0)
(1.1189281 0.00030678193 0)
(1.1188444 0.00028554072 0)
(1.1187664 0.00026554461 0)
(1.1186938 0.00024669853 0)
(1.1186263 0.00022891657 0)
(1.1185635 0.00021212201 0)
(1.1185053 0.00019624782 0)
(1.1184513 0.00018123642 0)
(1.1184014 0.00016703848 0)
(1.1183552 0.00015361231 0)
(1.1183126 0.00014092142 0)
(1.1182734 0.00012893505 0)
(1.1182373 0.00011762504 0)
(1.1182043 0.00010696986 0)
(1.1181742 9.6947969e-05 0)
(1.1181467 8.754837e-05 0)
(1.1181218 7.8753106e-05 0)
(1.1180992 7.0561977e-05 0)
(1.1180789 6.2950487e-05 0)
(1.1180606 5.5929786e-05 0)
(1.1180442 4.9450253e-05 0)
(1.1180296 4.3547996e-05 0)
(1.1180168 3.8118466e-05 0)
(1.1180053 3.3269495e-05 0)
(1.1179954 2.8776501e-05 0)
(1.1179866 2.4932371e-05 0)
(1.117979 2.1224835e-05 0)
(1.1179725 1.8400828e-05 0)
(1.1179665 1.524427e-05 0)
(1.1179625 1.3610527e-05 0)
(1.1179566 1.0607411e-05 0)
(1.0007347 0.011814721 0)
(1.0178472 0.030860927 0)
(1.0462163 0.041434441 0)
(1.0799018 0.04519357 0)
(1.1132664 0.045502351 0)
(1.143782 0.044080308 0)
(1.1708941 0.041439982 0)
(1.1945687 0.037973678 0)
(1.2148582 0.034195729 0)
(1.2319652 0.030536887 0)
(1.2462683 0.027222045 0)
(1.2582339 0.024313921 0)
(1.2683135 0.021797889 0)
(1.2768875 0.01963366 0)
(1.2842554 0.017773826 0)
(1.2906479 0.016169652 0)
(1.296243 0.01477559 0)
(1.3011791 0.013552297 0)
(1.3055645 0.012467863 0)
(1.3094838 0.011497466 0)
(1.3130042 0.010622162 0)
(1.3161792 0.0098275141 0)
(1.3190526 0.0091024122 0)
(1.3216607 0.0084381779 0)
(1.3240343 0.0078279048 0)
(1.3261995 0.007265975 0)
(1.3281786 0.006747709 0)
(1.3299913 0.0062691169 0)
(1.3316544 0.0058267277 0)
(1.3331829 0.005417474 0)
(1.3345896 0.0050386136 0)
(1.3358862 0.0046876758 0)
(1.3370827 0.0043624222 0)
(1.3381882 0.0040608177 0)
(1.3392108 0.0037810075 0)
(1.3401576 0.0035212981 0)
(1.3410349 0.0032801412 0)
(1.3418486 0.0030561198 0)
(1.3426038 0.0028479362 0)
(1.3433051 0.0026544001 0)
(1.3439569 0.0024744194 0)
(1.3445629 0.0023069908 0)
(1.3451267 0.002151192 0)
(1.3456513 0.0020061744 0)
(1.3461398 0.0018711568 0)
(1.3465947 0.0017454192 0)
(1.3470185 0.0016282976 0)
(1.3474135 0.0015191793 0)
(1.3477816 0.0014174982 0)
(1.3481249 0.0013227306 0)
(1.3484449 0.0012343919 0)
(1.3487435 0.0011520329 0)
(1.349022 0.0010752373 0)
(1.3492818 0.0010036186 0)
(1.3495242 0.00093681831 0)
(1.3497505 0.00087450335 0)
(1.3499616 0.00081636419 0)
(1.3501587 0.00076211291 0)
(1.3503427 0.00071148119 0)
(1.3505144 0.00066421866 0)
(1.3506747 0.00062009106 0)
(1.3508243 0.00057887907 0)
(1.3509639 0.00054037695 0)
(1.3510942 0.00050439187 0)
(1.3512159 0.00047074278 0)
(1.3513293 0.00043926052 0)
(1.3514352 0.00040978649 0)
(1.3515338 0.00038217294 0)
(1.3516258 0.00035628142 0)
(1.3517114 0.00033198314 0)
(1.351791 0.00030915748 0)
(1.3518651 0.00028769286 0)
(1.3519339 0.00026748559 0)
(1.3519977 0.0002484416 0)
(1.3520567 0.00023047526 0)
(1.3521114 0.0002135112 0)
(1.3521618 0.00019748255 0)
(1.3522082 0.00018233171 0)
(1.3522508 0.0001680085 0)
(1.3522898 0.00015446935 0)
(1.3523255 0.00014167717 0)
(1.3523579 0.00012959842 0)
(1.3523874 0.00011820744 0)
(1.352414 0.00010747798 0)
(1.352438 9.7396923e-05 0)
(1.3524595 8.7940463e-05 0)
(1.3524787 7.9110578e-05 0)
(1.3524958 7.0873059e-05 0)
(1.3525108 6.3252194e-05 0)
(1.3525242 5.6177001e-05 0)
(1.3525357 4.9720591e-05 0)
(1.352546 4.3724536e-05 0)
(1.3525545 3.8386082e-05 0)
(1.3525624 3.3347219e-05 0)
(1.3525685 2.9105276e-05 0)
(1.3525745 2.4846256e-05 0)
(1.3525784 2.1750213e-05 0)
(1.3525834 1.7997761e-05 0)
(1.3525853 1.6236994e-05 0)
(1.3525901 1.2586008e-05 0)
(1.0005903 0.0034629158 0)
(1.0136865 0.0093660197 0)
(1.0370283 0.013046806 0)
(1.0674202 0.014563261 0)
(1.1000315 0.014854525 0)
(1.1316428 0.014564991 0)
(1.1610745 0.013888338 0)
(1.1880674 0.012919245 0)
(1.2125205 0.011806506 0)
(1.2343939 0.010696427 0)
(1.2538077 0.0096727423 0)
(1.2710339 0.0087628223 0)
(1.286401 0.0079659739 0)
(1.3002112 0.0072722148 0)
(1.3127102 0.0066688086 0)
(1.3240903 0.0061419252 0)
(1.3345036 0.0056780721 0)
(1.3440716 0.0052653209 0)
(1.3528927 0.0048939352 0)
(1.3610463 0.0045563962 0)
(1.3685975 0.0042470704 0)
(1.3756004 0.0039617767 0)
(1.3821012 0.0036973985 0)
(1.3881402 0.0034515834 0)
(1.3937533 0.0032225193 0)
(1.3989728 0.0030087705 0)
(1.403828 0.0028091585 0)
(1.4083456 0.0026226797 0)
(1.4125503 0.0024484505 0)
(1.4164646 0.0022856719 0)
(1.4201094 0.0021336091 0)
(1.423504 0.0019915782 0)
(1.426666 0.0018589388 0)
(1.4296121 0.0017350887 0)
(1.4323573 0.0016194617 0)
(1.4349159 0.0015115246 0)
(1.4373007 0.0014107762 0)
(1.4395241 0.0013167452 0)
(1.441597 0.0012289896 0)
(1.4435301 0.0011470944 0)
(1.4453328 0.0010706709 0)
(1.4470143 0.00099935518 0)
(1.4485827 0.00093280661 0)
(1.4500459 0.00087070681 0)
(1.451411 0.00081275829 0)
(1.4526846 0.00075868319 0)
(1.4538731 0.00070822211 0)
(1.4549822 0.0006611329 0)
(1.4560172 0.00061718952 0)
(1.4569831 0.00057618095 0)
(1.4578847 0.0005379102 0)
(1.4587262 0.00050219331 0)
(1.4595117 0.00046885861 0)
(1.460245 0.00043774583 0)
(1.4609295 0.00040870544 0)
(1.4615685 0.00038159789 0)
(1.4621651 0.00035629287 0)
(1.4627221 0.00033266867 0)
(1.4632421 0.00031061148 0)
(1.4637276 0.00029001466 0)
(1.4641808 0.0002707784 0)
(1.4646039 0.00025280885 0)
(1.4649989 0.000236018 0)
(1.4653677 0.00022032317 0)
(1.4657118 0.00020564681 0)
(1.466033 0.00019191622 0)
(1.4663327 0.00017906324 0)
(1.4666122 0.00016702409 0)
(1.4668728 0.00015573899 0)
(1.4671157 0.000145152 0)
(1.4673419 0.00013521087 0)
(1.4675525 0.00012586695 0)
(1.4677484 0.0001170752 0)
(1.4679304 0.00010879452 0)
(1.4680994 0.00010098744 0)
(1.468256 9.3620699e-05 0)
(1.468401 8.6664477e-05 0)
(1.468535 8.0092696e-05 0)
(1.4686586 7.3882425e-05 0)
(1.4687723 6.8013385e-05 0)
(1.4688768 6.2468417e-05 0)
(1.4689724 5.7231721e-05 0)
(1.4690598 5.2291551e-05 0)
(1.4691394 4.7635373e-05 0)
(1.4692117 4.3257535e-05 0)
(1.4692771 3.9145933e-05 0)
(1.469336 3.5302792e-05 0)
(1.4693889 3.1709667e-05 0)
(1.4694362 2.8381649e-05 0)
(1.4694784 2.5280433e-05 0)
(1.4695156 2.2449765e-05 0)
(1.4695488 1.9803726e-05 0)
(1.4695774 1.7454963e-05 0)
(1.4696033 1.5210399e-05 0)
(1.4696245 1.3341197e-05 0)
(1.4696449 1.1418755e-05 0)
(1.4696594 1.0057183e-05 0)
(1.4696763 8.3360777e-06 0)
(1.4696841 7.5650664e-06 0)
(1.4697008 5.8754082e-06 0)
(1.0005903 -0.003462916 0)
(1.0136865 -0.0093660198 0)
(1.0370283 -0.013046806 0)
(1.0674202 -0.014563261 0)
(1.1000315 -0.014854525 0)
(1.1316428 -0.014564991 0)
(1.1610745 -0.013888338 0)
(1.1880674 -0.012919245 0)
(1.2125205 -0.011806506 0)
(1.2343939 -0.010696427 0)
(1.2538077 -0.009672742 0)
(1.2710339 -0.0087628221 0)
(1.286401 -0.0079659738 0)
(1.3002112 -0.0072722149 0)
(1.3127102 -0.0066688088 0)
(1.3240903 -0.0061419253 0)
(1.3345036 -0.0056780719 0)
(1.3440716 -0.0052653204 0)
(1.3528927 -0.0048939343 0)
(1.3610463 -0.004556395 0)
(1.3685975 -0.0042470692 0)
(1.3756004 -0.0039617755 0)
(1.3821012 -0.0036973974 0)
(1.3881402 -0.0034515825 0)
(1.3937533 -0.0032225184 0)
(1.3989728 -0.0030087694 0)
(1.403828 -0.0028091571 0)
(1.4083456 -0.0026226777 0)
(1.4125503 -0.0024484478 0)
(1.4164646 -0.0022856685 0)
(1.4201094 -0.0021336051 0)
(1.423504 -0.0019915738 0)
(1.426666 -0.0018589342 0)
(1.4296121 -0.0017350841 0)
(1.4323573 -0.0016194569 0)
(1.4349159 -0.0015115196 0)
(1.4373007 -0.0014107706 0)
(1.4395241 -0.0013167388 0)
(1.441597 -0.0012289821 0)
(1.4435301 -0.0011470858 0)
(1.4453329 -0.0010706612 0)
(1.4470143 -0.00099934451 0)
(1.4485827 -0.00093279527 0)
(1.4500459 -0.00087069506 0)
(1.451411 -0.00081274623 0)
(1.4526846 -0.00075867085 0)
(1.4538731 -0.00070820934 0)
(1.4549822 -0.00066111948 0)
(1.4560172 -0.0006171753 0)
(1.4569831 -0.00057616584 0)
(1.4578847 -0.00053789436 0)
(1.4587262 -0.00050217707 0)
(1.4595117 -0.00046884241 0)
(1.460245 -0.00043773017 0)
(1.4609295 -0.00040869064 0)
(1.4615685 -0.00038158422 0)
(1.4621651 -0.00035628039 0)
(1.4627221 -0.00033265749 0)
(1.4632421 -0.00031060174 0)
(1.4637276 -0.00029000679 0)
(1.4641808 -0.00027077284 0)
(1.464604 -0.00025280644 0)
(1.464999 -0.00023601938 0)
(1.4653677 -0.00022032923 0)
(1.4657119 -0.0002056577 0)
(1.466033 -0.0001919323 0)
(1.4663327 -0.00017908406 0)
(1.4666122 -0.00016704968 0)
(1.4668728 -0.00015576887 0)
(1.4671157 -0.00014518659 0)
(1.4673419 -0.00013525001 0)
(1.4675525 -0.00012591154 0)
(1.4677484 -0.00011712483 0)
(1.4679304 -0.00010884963 0)
(1.4680994 -0.00010104643 0)
(1.468256 -9.3682779e-05 0)
(1.468401 -8.672715e-05 0)
(1.468535 -8.0154775e-05 0)
(1.4686585 -7.3941853e-05 0)
(1.4687723 -6.8069875e-05 0)
(1.4688767 -6.2520961e-05 0)
(1.4689724 -5.7280958e-05 0)
(1.4690597 -5.2336626e-05 0)
(1.4691393 -4.7676557e-05 0)
(1.4692116 -4.3293283e-05 0)
(1.469277 -3.9175676e-05 0)
(1.4693359 -3.5324826e-05 0)
(1.4693889 -3.1723482e-05 0)
(1.4694361 -2.8386656e-05 0)
(1.4694783 -2.5277006e-05 0)
(1.4695155 -2.2438066e-05 0)
(1.4695487 -1.9784734e-05 0)
(1.4695773 -1.7428838e-05 0)
(1.4696033 -1.5178015e-05 0)
(1.4696244 -1.3302477e-05 0)
(1.4696448 -1.1374666e-05 0)
(1.4696593 -1.000766e-05 0)
(1.4696763 -8.2830495e-06 0)
(1.469684 -7.5091534e-06 0)
(1.4697007 -5.8189183e-06 0)
(1.0007347 -0.011814722 0)
(1.0178472 -0.030860927 0)
(1.0462163 -0.041434441 0)
(1.0799018 -0.04519357 0)
(1.1132664 -0.045502351 0)
(1.143782 -0.044080308 0)
(1.1708941 -0.041439982 0)
(1.1945687 -0.037973677 0)
(1.2148582 -0.034195729 0)
(1.2319652 -0.030536886 0)
(1.2462683 -0.027222045 0)
(1.2582339 -0.024313921 0)
(1.2683135 -0.021797889 0)
(1.2768875 -0.01963366 0)
(1.2842554 -0.017773827 0)
(1.2906479 -0.016169651 0)
(1.296243 -0.014775589 0)
(1.3011791 -0.013552296 0)
(1.3055645 -0.012467862 0)
(1.3094838 -0.011497465 0)
(1.3130042 -0.010622161 0)
(1.3161792 -0.0098275132 0)
(1.3190526 -0.0091024113 0)
(1.3216607 -0.0084381772 0)
(1.3240343 -0.0078279041 0)
(1.3261995 -0.0072659741 0)
(1.3281786 -0.0067477077 0)
(1.3299913 -0.006269115 0)
(1.3316544 -0.0058267252 0)
(1.3331829 -0.0054174709 0)
(1.3345896 -0.0050386101 0)
(1.3358862 -0.004687672 0)
(1.3370827 -0.0043624184 0)
(1.3381882 -0.0040608139 0)
(1.3392108 -0.0037810036 0)
(1.3401576 -0.0035212939 0)
(1.3410349 -0.0032801364 0)
(1.3418486 -0.0030561142 0)
(1.3426038 -0.0028479295 0)
(1.3433052 -0.0026543924 0)
(1.3439569 -0.0024744109 0)
(1.3445629 -0.0023069816 0)
(1.3451267 -0.0021511825 0)
(1.3456513 -0.0020061647 0)
(1.3461398 -0.001871147 0)
(1.3465947 -0.0017454091 0)
(1.3470185 -0.0016282871 0)
(1.3474135 -0.0015191681 0)
(1.3477817 -0.0014174862 0)
(1.3481249 -0.0013227179 0)
(1.348445 -0.0012343787 0)
(1.3487435 -0.0011520196 0)
(1.349022 -0.0010752243 0)
(1.3492818 -0.0010036064 0)
(1.3495243 -0.00093680706 0)
(1.3497505 -0.00087449312 0)
(1.3499617 -0.000816355 0)
(1.3501588 -0.00076210475 0)
(1.3503427 -0.00071147425 0)
(1.3505145 -0.00066421327 0)
(1.3506747 -0.00062008796 0)
(1.3508243 -0.00057887892 0)
(1.350964 -0.00054038053 0)
(1.3510943 -0.00050439942 0)
(1.3512159 -0.00047075462 0)
(1.3513294 -0.00043927627 0)
(1.3514352 -0.00040980606 0)
(1.3515339 -0.00038219586 0)
(1.3516258 -0.00035630789 0)
(1.3517114 -0.00033201308 0)
(1.3517911 -0.00030919162 0)
(1.3518651 -0.0002877311 0)
(1.3519339 -0.00026752846 0)
(1.3519976 -0.00024848812 0)
(1.3520567 -0.00023052487 0)
(1.3521113 -0.00021356193 0)
(1.3521617 -0.00019753322 0)
(1.3522081 -0.00018238053 0)
(1.3522507 -0.00016805497 0)
(1.3522897 -0.00015451271 0)
(1.3523253 -0.00014171794 0)
(1.3523578 -0.00012963628 0)
(1.3523872 -0.00011824271 0)
(1.3524138 -0.00010750967 0)
(1.3524378 -9.7424429e-05 0)
(1.3524593 -8.7962451e-05 0)
(1.3524785 -7.9126232e-05 0)
(1.3524956 -7.088179e-05 0)
(1.3525106 -6.3253771e-05 0)
(1.352524 -5.6172031e-05 0)
(1.3525355 -4.9709479e-05 0)
(1.3525458 -4.3708221e-05 0)
(1.3525543 -3.8364404e-05 0)
(1.3525622 -3.3321143e-05 0)
(1.3525683 -2.907393e-05 0)
(1.3525744 -2.4811196e-05 0)
(1.3525783 -2.1710244e-05 0)
(1.3525833 -1.7956135e-05 0)
(1.3525852 -1.6192358e-05 0)
(1.35259 -1.2540941e-05 0)
(1.0014244 -0.026824855 0)
(1.0291272 -0.062791352 0)
(1.0654292 -0.077736553 0)
(1.098962 -0.0805972 0)
(1.1253149 -0.078285171 0)
(1.145053 -0.073153899 0)
(1.1594858 -0.066111278 0)
(1.1694287 -0.058162063 0)
(1.1755354 -0.050296754 0)
(1.1785738 -0.043150708 0)
(1.1793571 -0.036972825 0)
(1.1785949 -0.031771633 0)
(1.1768304 -0.02745184 0)
(1.1744518 -0.023886768 0)
(1.1717287 -0.02094762 0)
(1.1688444 -0.01851578 0)
(1.1659195 -0.016488084 0)
(1.1630317 -0.014779501 0)
(1.1602295 -0.013322984 0)
(1.1575415 -0.012067132 0)
(1.1549828 -0.010973 0)
(1.1525601 -0.010011062 0)
(1.1502747 -0.0091587475 0)
(1.1481246 -0.008398605 0)
(1.1461059 -0.0077169509 0)
(1.1442134 -0.0071028877 0)
(1.1424414 -0.0065475905 0)
(1.1407838 -0.0060437933 0)
(1.1392344 -0.0055854237 0)
(1.1377869 -0.0051673424 0)
(1.1364353 -0.0047851554 0)
(1.1351738 -0.0044350755 0)
(1.1339968 -0.0041138169 0)
(1.1328987 -0.0038185134 0)
(1.1318746 -0.0035466534 0)
(1.1309195 -0.0032960267 0)
(1.1300289 -0.0030646815 0)
(1.1291985 -0.0028508877 0)
(1.1284242 -0.0026531063 0)
(1.1277023 -0.0024699642 0)
(1.1270291 -0.0023002316 0)
(1.1264014 -0.0021428042 0)
(1.1258161 -0.0019966869 0)
(1.1252703 -0.001860981 0)
(1.1247612 -0.0017348727 0)
(1.1242865 -0.0016176231 0)
(1.1238438 -0.0015085599 0)
(1.1234308 -0.0014070702 0)
(1.1230455 -0.0013125935 0)
(1.1226862 -0.0012246165 0)
(1.1223509 -0.0011426673 0)
(1.1220381 -0.0010663121 0)
(1.1217463 -0.00099515076 0)
(1.121474 -0.0009288138 0)
(1.1212199 -0.00086696012 0)
(1.1209827 -0.00080927411 0)
(1.1207615 -0.00075546381 0)
(1.1205549 -0.00070525844 0)
(1.1203622 -0.00065840641 0)
(1.1201823 -0.00061467321 0)
(1.1200144 -0.00057383962 0)
(1.1198577 -0.00053569986 0)
(1.1197115 -0.00050006117 0)
(1.119575 -0.00046674205 0)
(1.1194476 -0.00043557343 0)
(1.1193288 -0.00040639629 0)
(1.1192179 -0.00037906375 0)
(1.1191145 -0.00035343785 0)
(1.1190181 -0.00032939146 0)
(1.1189282 -0.0003068045 0)
(1.1188444 -0.00028556669 0)
(1.1187664 -0.00026557337 0)
(1.1186937 -0.00024673061 0)
(1.1186262 -0.00022895013 0)
(1.1185634 -0.00021215675 0)
(1.1185052 -0.00019628148 0)
(1.1184512 -0.00018126887 0)
(1.1184012 -0.00016706837 0)
(1.118355 -0.00015364051 0)
(1.1183124 -0.0001409475 0)
(1.1182731 -0.00012896035 0)
(1.1182371 -0.00011764872 0)
(1.1182041 -0.0001069924 0)
(1.1181739 -9.6967559e-05 0)
(1.1181465 -8.7564688e-05 0)
(1.1181215 -7.8764662e-05 0)
(1.1180989 -7.0568793e-05 0)
(1.1180786 -6.2952482e-05 0)
(1.1180603 -5.5927709e-05 0)
(1.118044 -4.9444833e-05 0)
(1.1180294 -4.3539718e-05 0)
(1.1180165 -3.810767e-05 0)
(1.1180051 -3.3255848e-05 0)
(1.1179952 -2.8760271e-05 0)
(1.1179864 -2.4913038e-05 0)
(1.1179788 -2.1202866e-05 0)
(1.1179723 -1.83768e-05 0)
(1.1179663 -1.5219002e-05 0)
(1.1179623 -1.358496e-05 0)
(1.1179564 -1.0580938e-05 0)
(1.0016583 -0.05381943 0)
(1.0359761 -0.10128444 0)
(1.0597199 -0.11073663 0)
(1.0628947 -0.10592202 0)
(1.0515569 -0.096228728 0)
(1.0340529 -0.08393406 0)
(1.0142795 -0.070327062 0)
(0.99360703 -0.056981333 0)
(0.97292577 -0.045107479 0)
(0.95310739 -0.03523675 0)
(0.93479538 -0.027401651 0)
(0.91829012 -0.021387228 0)
(0.90362379 -0.016884499 0)
(0.89068067 -0.013569709 0)
(0.87928174 -0.011147748 0)
(0.86923242 -0.0093736582 0)
(0.86034423 -0.0080569273 0)
(0.85244667 -0.0070571266 0)
(0.84539241 -0.0062752377 0)
(0.83905793 -0.0056438284 0)
(0.83334126 -0.0051180912 0)
(0.82815884 -0.0046686729 0)
(0.82344212 -0.0042764179 0)
(0.81913467 -0.0039287391 0)
(0.81518962 -0.0036172033 0)
(0.81156765 -0.0033359696 0)
(0.80823544 -0.0030808026 0)
(0.8051644 -0.0028484672 0)
(0.80232979 -0.0026363676 0)
(0.79970999 -0.0024423372 0)
(0.79728597 -0.0022645182 0)
(0.79504086 -0.00210129 0)
(0.79295963 -0.001951226 0)
(0.79102881 -0.0018130639 0)
(0.78923628 -0.001685684 0)
(0.78757111 -0.0015680922 0)
(0.78602339 -0.0014594045 0)
(0.78458413 -0.0013588337 0)
(0.78324512 -0.0012656779 0)
(0.7819989 -0.0011793094 0)
(0.78083862 -0.0010991655 0)
(0.779758 -0.0010247408 0)
(0.77875129 -0.00095557935 0)
(0.77781319 -0.00089126971 0)
(0.77693882 -0.00083143899 0)
(0.77612369 -0.00077574878 0)
(0.77536364 -0.00072389102 0)
(0.77465482 -0.00067558452 0)
(0.77399369 -0.00063057187 0)
(0.77337695 -0.00058861662 0)
(0.77280154 -0.00054950105 0)
(0.77226465 -0.00051302422 0)
(0.77176364 -0.00047900033 0)
(0.77129607 -0.00044725766 0)
(0.77085968 -0.00041763727 0)
(0.77045236 -0.00038999221 0)
(0.77007216 -0.00036418631 0)
(0.76971725 -0.00034009318 0)
(0.76938593 -0.00031759497 0)
(0.76907665 -0.00029658137 0)
(0.76878792 -0.00027694843 0)
(0.76851841 -0.0002585984 0)
(0.76826683 -0.00024143868 0)
(0.76803203 -0.00022538288 0)
(0.76781292 -0.00021034958 0)
(0.76760849 -0.00019626386 0)
(0.76741781 -0.00018305559 0)
(0.76724001 -0.00017066043 0)
(0.7670743 -0.00015901757 0)
(0.76691995 -0.00014807089 0)
(0.76677626 -0.00013776648 0)
(0.76664262 -0.00012805534 0)
(0.76651845 -0.0001188908 0)
(0.7664032 -0.00011023289 0)
(0.76629637 -0.00010204529 0)
(0.76619751 -9.4299149e-05 0)
(0.76610617 -8.6969207e-05 0)
(0.76602194 -8.0035774e-05 0)
(0.76594444 -7.3480722e-05 0)
(0.76587329 -6.7288751e-05 0)
(0.76580815 -6.1444537e-05 0)
(0.76574869 -5.5934945e-05 0)
(0.76569456 -5.0748243e-05 0)
(0.76564547 -4.5875176e-05 0)
(0.76560109 -4.1310766e-05 0)
(0.76556113 -3.7049116e-05 0)
(0.76552528 -3.309106e-05 0)
(0.76549325 -2.9427037e-05 0)
(0.76546475 -2.6059888e-05 0)
(0.76543953 -2.2967019e-05 0)
(0.76541728 -2.0156829e-05 0)
(0.76539779 -1.7586587e-05 0)
(0.76538074 -1.5287766e-05 0)
(0.76536598 -1.3184212e-05 0)
(0.76535319 -1.1361047e-05 0)
(0.76534219 -9.669714e-06 0)
(0.76533291 -8.3110943e-06 0)
(0.76532454 -6.9600336e-06 0)
(0.76531865 -6.1204079e-06 0)
(0.76531077 -4.9459005e-06 0)
(0.91890839 -0.035821913 0)
(0.86271384 -0.062195638 0)
(0.7870597 -0.06251009 0)
(0.69536033 -0.054550395 0)
(0.61089745 -0.044531651 0)
(0.54411592 -0.034015971 0)
(0.49343012 -0.024187539 0)
(0.45479414 -0.016144229 0)
(0.42544582 -0.010265785 0)
(0.40347313 -0.0063041455 0)
(0.38715766 -0.0037976299 0)
(0.37496219 -0.0023103386 0)
(0.36566192 -0.0014930152 0)
(0.35836272 -0.0010851183 0)
(0.35244268 -0.00090607211 0)
(0.34748201 -0.0008410513 0)
(0.34320348 -0.00082372361 0)
(0.33942726 -0.00081930993 0)
(0.33603793 -0.00081185173 0)
(0.33296114 -0.00079580129 0)
(0.33014778 -0.00077081186 0)
(0.32756384 -0.0007387101 0)
(0.3251842 -0.00070188994 0)
(0.32298902 -0.00066256609 0)
(0.32096172 -0.00062249962 0)
(0.31908785 -0.00058295706 0)
(0.31735449 -0.00054477087 0)
(0.31574996 -0.00050843331 0)
(0.31426361 -0.00047419089 0)
(0.31288575 -0.00044212425 0)
(0.31160756 -0.00041220957 0)
(0.31042101 -0.00038436215 0)
(0.30931883 -0.00035846568 0)
(0.30829438 -0.00033439094 0)
(0.30734165 -0.00031200695 0)
(0.30645515 -0.00029118737 0)
(0.30562991 -0.00027181355 0)
(0.30486137 -0.00025377578 0)
(0.30414536 -0.0002369734 0)
(0.30347808 -0.00022131428 0)
(0.30285601 -0.00020671424 0)
(0.30227596 -0.00019309625 0)
(0.30173497 -0.00018038979 0)
(0.30123029 -0.00016853029 0)
(0.30075942 -0.00015745851 0)
(0.30032002 -0.00014712012 0)
(0.29990993 -0.0001374651 0)
(0.29952715 -0.00012844731 0)
(0.29916983 -0.00012002401 0)
(0.29883624 -0.00011215541 0)
(0.29852478 -0.00010480444 0)
(0.29823395 -9.7936388e-05 0)
(0.29796238 -9.1518854e-05 0)
(0.29770878 -8.552169e-05 0)
(0.29747195 -7.9916826e-05 0)
(0.29725078 -7.467836e-05 0)
(0.29704421 -6.9782195e-05 0)
(0.29685129 -6.5206009e-05 0)
(0.29667111 -6.0928752e-05 0)
(0.29650282 -5.6930602e-05 0)
(0.29634564 -5.3192409e-05 0)
(0.29619884 -4.9696144e-05 0)
(0.29606176 -4.6424192e-05 0)
(0.29593375 -4.3360503e-05 0)
(0.29581424 -4.0489536e-05 0)
(0.2957027 -3.7797813e-05 0)
(0.2955986 -3.5272222e-05 0)
(0.2955015 -3.2901549e-05 0)
(0.29541095 -3.0674209e-05 0)
(0.29532656 -2.8580206e-05 0)
(0.29524796 -2.6608409e-05 0)
(0.29517482 -2.4749646e-05 0)
(0.29510682 -2.2993609e-05 0)
(0.29504368 -2.1333155e-05 0)
(0.29498513 -1.9760478e-05 0)
(0.29493093 -1.827145e-05 0)
(0.29488083 -1.6861093e-05 0)
(0.29483462 -1.5527304e-05 0)
(0.29479208 -1.4266151e-05 0)
(0.294753 -1.3075447e-05 0)
(0.29471721 -1.1950738e-05 0)
(0.29468453 -1.0889502e-05 0)
(0.29465477 -9.8879464e-06 0)
(0.29462778 -8.9448811e-06 0)
(0.29460338 -8.0591883e-06 0)
(0.29458142 -7.2312562e-06 0)
(0.29456171 -6.4620863e-06 0)
(0.29454411 -5.7507643e-06 0)
(0.29452845 -5.0981124e-06 0)
(0.29451458 -4.4988816e-06 0)
(0.29450234 -3.9543869e-06 0)
(0.29449161 -3.4547898e-06 0)
(0.29448223 -3.0069326e-06 0)
(0.29447411 -2.5959831e-06 0)
(0.29446708 -2.2390327e-06 0)
(0.29446104 -1.9134922e-06 0)
(0.29445588 -1.6464442e-06 0)
(0.29445139 -1.4096008e-06 0)
(0.2944478 -1.2263467e-06 0)
(0.29444385 -1.1035038e-06 0)
)
;

boundaryField
{
    top
    {
        type            fixedValue;
        value           uniform (0 0 0);
    }
    inlet
    {
        type            fixedValue;
        value           uniform (1 0 0);
    }
    outlet
    {
        type            zeroGradient;
    }
    bottom
    {
        type            fixedValue;
        value           uniform (0 0 0);
    }
    back
    {
        type            empty;
    }
    front
    {
        type            empty;
    }
}


// ************************************************************************* //
