/*--------------------------------*- C++ -*----------------------------------*\
| =========                 |                                                 |
| \\      /  F ield         | OpenFOAM: The Open Source CFD Toolbox           |
|  \\    /   O peration     | Version:  v1812                                 |
|   \\  /    A nd           | Web:      www.OpenFOAM.com                      |
|    \\/     M anipulation  |                                                 |
\*---------------------------------------------------------------------------*/
FoamFile
{
    version     2.0;
    format      ascii;
    class       volScalarField;
    location    "25";
    object      T;
}
// * * * * * * * * * * * * * * * * * * * * * * * * * * * * * * * * * * * * * //

dimensions      [0 0 0 1 0 0 0];


internalField   nonuniform List<scalar> 
10000
(
1.41503
1.41503
1.41503
1.41503
1.41503
1.41503
1.41503
1.41503
1.41503
1.41503
1.2468
1.2468
1.2468
1.2468
1.2468
1.2468
1.2468
1.2468
1.2468
1.2468
1.08362
1.08363
1.08362
1.08362
1.08362
1.08362
1.08362
1.08362
1.08362
1.08362
0.928529
0.92853
0.928529
0.928528
0.928527
0.928527
0.928527
0.928528
0.928528
0.928528
0.78407
0.784071
0.78407
0.784069
0.784068
0.784068
0.784068
0.784069
0.784069
0.784069
0.652212
0.652213
0.652212
0.652211
0.65221
0.65221
0.652211
0.652211
0.652212
0.652212
0.534258
0.534258
0.534257
0.534256
0.534256
0.534256
0.534256
0.534257
0.534257
0.534257
0.430839
0.430839
0.430838
0.430837
0.430836
0.430836
0.430837
0.430838
0.430838
0.430838
0.341958
0.341959
0.341958
0.341957
0.341957
0.341957
0.341957
0.341958
0.341959
0.341959
0.267079
0.267079
0.267078
0.267077
0.267077
0.267077
0.267078
0.267078
0.267079
0.267079
0.20523
0.20523
0.205229
0.205228
0.205228
0.205228
0.205229
0.20523
0.20523
0.20523
0.155139
0.155139
0.155138
0.155138
0.155137
0.155138
0.155138
0.155139
0.15514
0.15514
0.115355
0.115355
0.115355
0.115354
0.115354
0.115354
0.115355
0.115355
0.115356
0.115356
0.0843651
0.0843652
0.0843646
0.0843643
0.0843642
0.0843644
0.0843648
0.0843654
0.0843661
0.0843662
0.0606848
0.0606849
0.0606844
0.0606842
0.0606841
0.0606843
0.0606847
0.0606852
0.0606858
0.0606858
0.0429322
0.0429322
0.0429319
0.0429317
0.0429317
0.0429318
0.0429321
0.0429326
0.042933
0.0429331
0.0298727
0.0298728
0.0298725
0.0298724
0.0298724
0.0298725
0.0298728
0.0298731
0.0298735
0.0298736
0.0204442
0.0204442
0.020444
0.0204439
0.0204439
0.020444
0.0204442
0.0204445
0.0204448
0.0204449
0.0137622
0.0137622
0.013762
0.013762
0.013762
0.0137621
0.0137622
0.0137625
0.0137627
0.0137628
0.0091129
0.0091129
0.00911279
0.00911275
0.00911276
0.00911284
0.00911297
0.00911314
0.00911333
0.00911338
0.00593624
0.00593624
0.00593617
0.00593614
0.00593615
0.00593621
0.00593631
0.00593644
0.00593658
0.00593662
0.00380447
0.00380446
0.00380441
0.00380439
0.00380441
0.00380445
0.00380452
0.00380461
0.00380472
0.00380475
0.0023991
0.0023991
0.00239906
0.00239905
0.00239906
0.00239909
0.00239914
0.0023992
0.00239928
0.0023993
0.00148876
0.00148876
0.00148873
0.00148873
0.00148873
0.00148875
0.00148878
0.00148882
0.00148887
0.00148888
0.000909241
0.000909238
0.000909222
0.000909214
0.000909214
0.000909222
0.000909235
0.000909254
0.000909276
0.000909279
0.000546597
0.000546594
0.000546582
0.000546573
0.000546567
0.000546561
0.000546553
0.000546543
0.000546535
0.00054652
0.000323482
0.000323479
0.000323468
0.000323456
0.00032344
0.000323416
0.000323377
0.000323323
0.000323259
0.000323205
0.00018849
0.000188486
0.000188475
0.000188458
0.000188429
0.000188377
0.000188289
0.000188153
0.000187976
0.000187817
0.000108155
0.00010815
0.000108136
0.000108112
0.000108066
0.000107977
0.000107813
0.000107528
0.000107098
0.000106636
6.11197e-05
6.11137e-05
6.10982e-05
6.10668e-05
6.10027e-05
6.08712e-05
6.06051e-05
6.00808e-05
5.91153e-05
5.76894e-05
1.41503
1.41503
1.41503
1.41503
1.41503
1.41503
1.41503
1.41503
1.41503
1.41503
1.2468
1.2468
1.2468
1.2468
1.2468
1.2468
1.2468
1.2468
1.2468
1.2468
1.08363
1.08363
1.08362
1.08362
1.08362
1.08362
1.08362
1.08362
1.08362
1.08362
0.92853
0.92853
0.928528
0.928528
0.928527
0.928527
0.928527
0.928528
0.928528
0.928528
0.784071
0.784071
0.78407
0.784069
0.784068
0.784068
0.784068
0.784069
0.78407
0.78407
0.652213
0.652213
0.652212
0.652211
0.65221
0.65221
0.65221
0.652211
0.652212
0.652212
0.534258
0.534258
0.534257
0.534256
0.534255
0.534256
0.534256
0.534257
0.534258
0.534258
0.430839
0.430839
0.430838
0.430837
0.430836
0.430836
0.430837
0.430838
0.430839
0.430839
0.341959
0.341959
0.341958
0.341957
0.341956
0.341956
0.341957
0.341958
0.341959
0.341959
0.267079
0.267079
0.267078
0.267077
0.267077
0.267077
0.267077
0.267078
0.26708
0.26708
0.20523
0.20523
0.205229
0.205228
0.205228
0.205228
0.205229
0.20523
0.205231
0.205231
0.155139
0.155139
0.155138
0.155137
0.155137
0.155137
0.155138
0.155139
0.15514
0.15514
0.115355
0.115355
0.115354
0.115354
0.115354
0.115354
0.115355
0.115355
0.115356
0.115357
0.0843652
0.0843651
0.0843645
0.0843642
0.0843641
0.0843643
0.0843648
0.0843655
0.0843663
0.0843664
0.0606849
0.0606848
0.0606843
0.060684
0.060684
0.0606842
0.0606846
0.0606852
0.060686
0.060686
0.0429322
0.0429321
0.0429317
0.0429316
0.0429315
0.0429317
0.0429321
0.0429326
0.0429332
0.0429333
0.0298728
0.0298727
0.0298724
0.0298723
0.0298723
0.0298724
0.0298727
0.0298731
0.0298736
0.0298737
0.0204442
0.0204441
0.0204439
0.0204438
0.0204438
0.020444
0.0204442
0.0204445
0.0204449
0.020445
0.0137622
0.0137621
0.013762
0.0137619
0.0137619
0.013762
0.0137622
0.0137625
0.0137628
0.0137628
0.0091129
0.00911286
0.00911275
0.00911271
0.00911272
0.0091128
0.00911294
0.00911314
0.00911338
0.00911342
0.00593624
0.00593622
0.00593614
0.00593611
0.00593612
0.00593618
0.00593629
0.00593644
0.00593661
0.00593665
0.00380446
0.00380444
0.00380439
0.00380437
0.00380438
0.00380443
0.0038045
0.00380461
0.00380474
0.00380477
0.0023991
0.00239908
0.00239905
0.00239903
0.00239904
0.00239907
0.00239913
0.0023992
0.00239929
0.00239931
0.00148876
0.00148875
0.00148872
0.00148871
0.00148872
0.00148874
0.00148877
0.00148882
0.00148888
0.00148889
0.000909239
0.000909231
0.000909214
0.000909207
0.000909207
0.000909215
0.00090923
0.000909252
0.000909282
0.000909286
0.000546595
0.000546589
0.000546577
0.000546568
0.000546562
0.000546557
0.00054655
0.000546542
0.000546539
0.000546524
0.000323481
0.000323476
0.000323464
0.000323453
0.000323437
0.000323413
0.000323375
0.000323322
0.000323262
0.000323208
0.00018849
0.000188484
0.000188473
0.000188456
0.000188427
0.000188375
0.000188288
0.000188152
0.000187977
0.000187819
0.000108154
0.000108149
0.000108135
0.000108111
0.000108065
0.000107976
0.000107812
0.000107527
0.000107099
0.000106637
6.11193e-05
6.11129e-05
6.10973e-05
6.1066e-05
6.10019e-05
6.08705e-05
6.06045e-05
6.00805e-05
5.91157e-05
5.76898e-05
1.41503
1.41503
1.41503
1.41503
1.41503
1.41503
1.41503
1.41503
1.41503
1.41503
1.2468
1.2468
1.2468
1.2468
1.2468
1.2468
1.2468
1.2468
1.2468
1.2468
1.08362
1.08362
1.08362
1.08362
1.08362
1.08362
1.08362
1.08362
1.08362
1.08362
0.928529
0.928528
0.928527
0.928526
0.928526
0.928526
0.928526
0.928527
0.928527
0.928528
0.78407
0.78407
0.784068
0.784067
0.784067
0.784067
0.784067
0.784068
0.784069
0.784069
0.652212
0.652212
0.65221
0.652209
0.652209
0.652209
0.652209
0.65221
0.652211
0.652211
0.534257
0.534257
0.534255
0.534254
0.534254
0.534254
0.534255
0.534256
0.534257
0.534257
0.430838
0.430838
0.430836
0.430835
0.430835
0.430835
0.430836
0.430837
0.430838
0.430838
0.341958
0.341958
0.341956
0.341955
0.341955
0.341955
0.341956
0.341957
0.341959
0.341959
0.267078
0.267078
0.267076
0.267076
0.267075
0.267076
0.267076
0.267077
0.267079
0.267079
0.205229
0.205229
0.205228
0.205227
0.205227
0.205227
0.205228
0.205229
0.20523
0.205231
0.155138
0.155138
0.155137
0.155136
0.155136
0.155137
0.155137
0.155138
0.15514
0.15514
0.115355
0.115354
0.115354
0.115353
0.115353
0.115353
0.115354
0.115355
0.115356
0.115356
0.0843646
0.0843645
0.0843639
0.0843635
0.0843635
0.0843637
0.0843642
0.084365
0.0843661
0.0843663
0.0606844
0.0606843
0.0606838
0.0606835
0.0606835
0.0606838
0.0606842
0.0606849
0.0606858
0.060686
0.0429319
0.0429317
0.0429314
0.0429312
0.0429312
0.0429314
0.0429317
0.0429323
0.0429331
0.0429332
0.0298725
0.0298724
0.0298721
0.029872
0.029872
0.0298722
0.0298725
0.0298729
0.0298735
0.0298737
0.020444
0.0204439
0.0204437
0.0204436
0.0204436
0.0204438
0.020444
0.0204444
0.0204449
0.020445
0.013762
0.013762
0.0137618
0.0137618
0.0137618
0.0137619
0.0137621
0.0137624
0.0137627
0.0137628
0.00911279
0.00911275
0.00911264
0.0091126
0.00911262
0.0091127
0.00911286
0.00911307
0.00911335
0.00911343
0.00593617
0.00593614
0.00593606
0.00593603
0.00593605
0.00593612
0.00593623
0.00593639
0.0059366
0.00593665
0.00380441
0.00380439
0.00380434
0.00380432
0.00380433
0.00380438
0.00380446
0.00380458
0.00380473
0.00380477
0.00239906
0.00239905
0.00239901
0.002399
0.00239901
0.00239904
0.0023991
0.00239918
0.00239928
0.00239932
0.00148874
0.00148873
0.0014887
0.00148869
0.0014887
0.00148872
0.00148876
0.00148881
0.00148888
0.0014889
0.000909224
0.000909216
0.000909199
0.000909192
0.000909193
0.000909202
0.000909219
0.000909245
0.000909281
0.000909288
0.000546586
0.00054658
0.000546567
0.000546559
0.000546553
0.000546549
0.000546543
0.000546538
0.000546538
0.000546526
0.000323475
0.00032347
0.000323459
0.000323447
0.000323432
0.000323408
0.000323371
0.000323319
0.000323262
0.000323209
0.000188486
0.000188481
0.000188469
0.000188452
0.000188423
0.000188372
0.000188285
0.000188151
0.000187977
0.00018782
0.000108152
0.000108146
0.000108133
0.000108109
0.000108063
0.000107974
0.00010781
0.000107526
0.000107099
0.000106638
6.11181e-05
6.11117e-05
6.10961e-05
6.10648e-05
6.10008e-05
6.08695e-05
6.06037e-05
6.008e-05
5.91158e-05
5.76901e-05
1.41503
1.41503
1.41503
1.41503
1.41503
1.41503
1.41503
1.41503
1.41503
1.41503
1.2468
1.2468
1.2468
1.2468
1.2468
1.2468
1.2468
1.2468
1.2468
1.2468
1.08362
1.08362
1.08362
1.08362
1.08362
1.08362
1.08362
1.08362
1.08362
1.08362
0.928528
0.928528
0.928526
0.928525
0.928525
0.928525
0.928525
0.928526
0.928527
0.928527
0.784069
0.784069
0.784067
0.784066
0.784066
0.784066
0.784066
0.784067
0.784068
0.784069
0.652211
0.652211
0.652209
0.652208
0.652208
0.652208
0.652208
0.652209
0.652211
0.652211
0.534256
0.534256
0.534254
0.534253
0.534253
0.534253
0.534254
0.534255
0.534257
0.534257
0.430837
0.430837
0.430835
0.430834
0.430834
0.430834
0.430835
0.430836
0.430838
0.430838
0.341957
0.341957
0.341955
0.341955
0.341954
0.341954
0.341955
0.341957
0.341958
0.341959
0.267077
0.267077
0.267076
0.267075
0.267075
0.267075
0.267076
0.267077
0.267079
0.267079
0.205228
0.205228
0.205227
0.205226
0.205226
0.205227
0.205227
0.205229
0.20523
0.20523
0.155138
0.155137
0.155136
0.155136
0.155136
0.155136
0.155137
0.155138
0.155139
0.15514
0.115354
0.115354
0.115353
0.115353
0.115353
0.115353
0.115354
0.115355
0.115356
0.115356
0.0843643
0.0843642
0.0843635
0.0843632
0.0843632
0.0843635
0.084364
0.0843649
0.0843661
0.0843663
0.0606842
0.060684
0.0606835
0.0606833
0.0606833
0.0606836
0.0606841
0.0606848
0.0606858
0.060686
0.0429317
0.0429316
0.0429312
0.042931
0.042931
0.0429312
0.0429316
0.0429323
0.0429331
0.0429333
0.0298724
0.0298723
0.029872
0.0298718
0.0298719
0.0298721
0.0298724
0.0298729
0.0298735
0.0298737
0.0204439
0.0204438
0.0204436
0.0204435
0.0204435
0.0204437
0.020444
0.0204444
0.0204449
0.020445
0.013762
0.0137619
0.0137618
0.0137617
0.0137617
0.0137619
0.0137621
0.0137624
0.0137628
0.0137629
0.00911275
0.00911271
0.0091126
0.00911256
0.00911258
0.00911268
0.00911284
0.00911307
0.00911337
0.00911346
0.00593614
0.00593611
0.00593603
0.00593601
0.00593603
0.0059361
0.00593622
0.00593639
0.00593661
0.00593668
0.00380439
0.00380437
0.00380432
0.0038043
0.00380432
0.00380437
0.00380446
0.00380458
0.00380474
0.00380479
0.00239905
0.00239903
0.002399
0.00239899
0.002399
0.00239904
0.0023991
0.00239918
0.00239929
0.00239933
0.00148873
0.00148872
0.00148869
0.00148869
0.00148869
0.00148872
0.00148876
0.00148881
0.00148888
0.00148891
0.00090922
0.000909212
0.000909196
0.000909189
0.000909191
0.000909201
0.00090922
0.000909248
0.000909286
0.000909296
0.000546584
0.000546578
0.000546565
0.000546557
0.000546552
0.000546548
0.000546544
0.00054654
0.000546542
0.000546531
0.000323474
0.000323469
0.000323458
0.000323446
0.000323431
0.000323408
0.000323372
0.000323321
0.000323264
0.000323213
0.000188486
0.00018848
0.000188469
0.000188452
0.000188423
0.000188372
0.000188286
0.000188152
0.000187979
0.000187822
0.000108152
0.000108146
0.000108133
0.000108109
0.000108063
0.000107975
0.000107811
0.000107527
0.0001071
0.000106639
6.1118e-05
6.11116e-05
6.10961e-05
6.10648e-05
6.10009e-05
6.08697e-05
6.0604e-05
6.00806e-05
5.91165e-05
5.7691e-05
1.41503
1.41503
1.41503
1.41503
1.41503
1.41503
1.41503
1.41503
1.41503
1.41503
1.2468
1.2468
1.2468
1.2468
1.2468
1.2468
1.2468
1.2468
1.2468
1.2468
1.08362
1.08362
1.08362
1.08362
1.08362
1.08362
1.08362
1.08362
1.08362
1.08362
0.928527
0.928527
0.928526
0.928525
0.928525
0.928525
0.928525
0.928526
0.928527
0.928527
0.784068
0.784068
0.784067
0.784066
0.784065
0.784066
0.784066
0.784067
0.784068
0.784069
0.65221
0.65221
0.652209
0.652208
0.652207
0.652207
0.652208
0.652209
0.652211
0.652211
0.534256
0.534255
0.534254
0.534253
0.534253
0.534253
0.534254
0.534255
0.534257
0.534257
0.430836
0.430836
0.430835
0.430834
0.430834
0.430834
0.430835
0.430836
0.430838
0.430838
0.341957
0.341956
0.341955
0.341954
0.341954
0.341954
0.341955
0.341957
0.341958
0.341959
0.267077
0.267077
0.267075
0.267075
0.267075
0.267075
0.267076
0.267077
0.267079
0.267079
0.205228
0.205228
0.205227
0.205226
0.205226
0.205226
0.205227
0.205229
0.20523
0.205231
0.155137
0.155137
0.155136
0.155136
0.155136
0.155136
0.155137
0.155138
0.15514
0.15514
0.115354
0.115354
0.115353
0.115353
0.115353
0.115353
0.115354
0.115355
0.115356
0.115357
0.0843642
0.0843641
0.0843635
0.0843632
0.0843632
0.0843635
0.0843641
0.0843651
0.0843662
0.0843666
0.0606841
0.060684
0.0606835
0.0606833
0.0606833
0.0606836
0.0606841
0.0606849
0.0606859
0.0606862
0.0429317
0.0429315
0.0429312
0.042931
0.042931
0.0429313
0.0429317
0.0429324
0.0429332
0.0429334
0.0298724
0.0298723
0.029872
0.0298719
0.0298719
0.0298721
0.0298725
0.029873
0.0298737
0.0298739
0.0204439
0.0204438
0.0204436
0.0204435
0.0204436
0.0204437
0.020444
0.0204445
0.020445
0.0204451
0.013762
0.0137619
0.0137618
0.0137617
0.0137618
0.0137619
0.0137621
0.0137624
0.0137629
0.013763
0.00911276
0.00911273
0.00911262
0.00911258
0.00911261
0.00911272
0.00911289
0.00911313
0.00911343
0.00911353
0.00593615
0.00593613
0.00593605
0.00593603
0.00593605
0.00593613
0.00593626
0.00593644
0.00593666
0.00593673
0.00380441
0.00380439
0.00380434
0.00380432
0.00380434
0.0038044
0.00380449
0.00380462
0.00380478
0.00380483
0.00239906
0.00239905
0.00239901
0.002399
0.00239902
0.00239906
0.00239912
0.00239921
0.00239932
0.00239936
0.00148874
0.00148873
0.0014887
0.0014887
0.00148871
0.00148873
0.00148877
0.00148883
0.0014889
0.00148893
0.000909226
0.000909218
0.000909203
0.000909197
0.0009092
0.000909211
0.000909231
0.00090926
0.0009093
0.00090931
0.000546589
0.000546582
0.00054657
0.000546563
0.000546559
0.000546555
0.000546551
0.000546549
0.000546551
0.000546541
0.000323477
0.000323472
0.000323461
0.00032345
0.000323436
0.000323413
0.000323377
0.000323327
0.000323271
0.000323219
0.000188488
0.000188482
0.000188471
0.000188454
0.000188426
0.000188376
0.000188289
0.000188156
0.000187983
0.000187827
0.000108153
0.000108148
0.000108134
0.000108111
0.000108065
0.000107977
0.000107813
0.00010753
0.000107102
0.000106642
6.1119e-05
6.11126e-05
6.10971e-05
6.1066e-05
6.10021e-05
6.0871e-05
6.06054e-05
6.00821e-05
5.91182e-05
5.76926e-05
1.41503
1.41503
1.41503
1.41503
1.41503
1.41503
1.41503
1.41503
1.41503
1.41503
1.2468
1.2468
1.2468
1.2468
1.2468
1.2468
1.2468
1.2468
1.2468
1.2468
1.08362
1.08362
1.08362
1.08362
1.08362
1.08362
1.08362
1.08362
1.08362
1.08362
0.928527
0.928527
0.928526
0.928525
0.928525
0.928525
0.928525
0.928526
0.928527
0.928527
0.784068
0.784068
0.784067
0.784066
0.784066
0.784066
0.784066
0.784067
0.784069
0.784069
0.65221
0.65221
0.652209
0.652208
0.652207
0.652208
0.652208
0.65221
0.652211
0.652212
0.534256
0.534256
0.534254
0.534253
0.534253
0.534253
0.534254
0.534255
0.534257
0.534258
0.430836
0.430836
0.430835
0.430834
0.430834
0.430834
0.430835
0.430837
0.430838
0.430839
0.341957
0.341956
0.341955
0.341954
0.341954
0.341955
0.341956
0.341957
0.341959
0.341959
0.267077
0.267077
0.267076
0.267075
0.267075
0.267075
0.267076
0.267078
0.267079
0.26708
0.205228
0.205228
0.205227
0.205227
0.205226
0.205227
0.205228
0.205229
0.205231
0.205231
0.155138
0.155137
0.155137
0.155136
0.155136
0.155136
0.155137
0.155139
0.15514
0.15514
0.115354
0.115354
0.115353
0.115353
0.115353
0.115354
0.115354
0.115355
0.115357
0.115357
0.0843644
0.0843643
0.0843637
0.0843635
0.0843635
0.0843638
0.0843645
0.0843654
0.0843667
0.084367
0.0606843
0.0606842
0.0606838
0.0606836
0.0606836
0.0606839
0.0606845
0.0606853
0.0606863
0.0606866
0.0429318
0.0429317
0.0429314
0.0429312
0.0429313
0.0429315
0.042932
0.0429327
0.0429335
0.0429338
0.0298725
0.0298724
0.0298722
0.0298721
0.0298721
0.0298723
0.0298727
0.0298732
0.0298739
0.0298741
0.020444
0.020444
0.0204438
0.0204437
0.0204437
0.0204439
0.0204442
0.0204446
0.0204452
0.0204453
0.0137621
0.013762
0.0137619
0.0137619
0.0137619
0.013762
0.0137623
0.0137626
0.013763
0.0137631
0.00911284
0.0091128
0.0091127
0.00911268
0.00911272
0.00911282
0.009113
0.00911325
0.00911355
0.00911365
0.00593621
0.00593619
0.00593612
0.0059361
0.00593613
0.00593621
0.00593634
0.00593652
0.00593675
0.00593683
0.00380445
0.00380443
0.00380438
0.00380437
0.0038044
0.00380446
0.00380455
0.00380468
0.00380485
0.0038049
0.00239909
0.00239908
0.00239905
0.00239904
0.00239906
0.0023991
0.00239916
0.00239926
0.00239937
0.00239941
0.00148876
0.00148875
0.00148873
0.00148872
0.00148874
0.00148876
0.0014888
0.00148886
0.00148894
0.00148896
0.000909242
0.000909235
0.000909221
0.000909216
0.00090922
0.000909232
0.000909253
0.000909282
0.000909323
0.000909333
0.0005466
0.000546594
0.000546583
0.000546576
0.000546572
0.000546569
0.000546566
0.000546564
0.000546567
0.000546557
0.000323485
0.00032348
0.000323469
0.000323459
0.000323445
0.000323422
0.000323387
0.000323337
0.000323281
0.000323229
0.000188493
0.000188488
0.000188476
0.00018846
0.000188432
0.000188382
0.000188296
0.000188162
0.00018799
0.000187833
0.000108157
0.000108151
0.000108138
0.000108114
0.000108069
0.000107981
0.000107817
0.000107534
0.000107107
0.000106646
6.1121e-05
6.11147e-05
6.10993e-05
6.10683e-05
6.10045e-05
6.08735e-05
6.06079e-05
6.00846e-05
5.91207e-05
5.76951e-05
1.41503
1.41503
1.41503
1.41503
1.41503
1.41503
1.41503
1.41503
1.41503
1.41503
1.2468
1.2468
1.2468
1.2468
1.2468
1.2468
1.2468
1.2468
1.2468
1.2468
1.08362
1.08362
1.08362
1.08362
1.08362
1.08362
1.08362
1.08362
1.08362
1.08362
0.928527
0.928527
0.928526
0.928525
0.928525
0.928525
0.928526
0.928527
0.928528
0.928528
0.784068
0.784068
0.784067
0.784066
0.784066
0.784066
0.784067
0.784068
0.784069
0.78407
0.652211
0.65221
0.652209
0.652208
0.652208
0.652208
0.652209
0.65221
0.652212
0.652212
0.534256
0.534256
0.534255
0.534254
0.534254
0.534254
0.534255
0.534256
0.534258
0.534258
0.430837
0.430837
0.430836
0.430835
0.430835
0.430835
0.430836
0.430837
0.430839
0.43084
0.341957
0.341957
0.341956
0.341955
0.341955
0.341956
0.341957
0.341958
0.34196
0.34196
0.267078
0.267077
0.267076
0.267076
0.267076
0.267076
0.267077
0.267079
0.26708
0.267081
0.205229
0.205229
0.205228
0.205227
0.205227
0.205228
0.205229
0.20523
0.205232
0.205232
0.155138
0.155138
0.155137
0.155137
0.155137
0.155137
0.155138
0.155139
0.155141
0.155141
0.115355
0.115355
0.115354
0.115354
0.115354
0.115354
0.115355
0.115356
0.115358
0.115358
0.0843648
0.0843648
0.0843642
0.084364
0.0843641
0.0843645
0.0843652
0.0843661
0.0843673
0.0843676
0.0606847
0.0606846
0.0606842
0.0606841
0.0606841
0.0606845
0.060685
0.0606858
0.0606869
0.0606871
0.0429321
0.0429321
0.0429317
0.0429316
0.0429317
0.042932
0.0429325
0.0429331
0.042934
0.0429342
0.0298728
0.0298727
0.0298725
0.0298724
0.0298725
0.0298727
0.0298731
0.0298736
0.0298743
0.0298745
0.0204442
0.0204442
0.020444
0.020444
0.020444
0.0204442
0.0204445
0.0204449
0.0204455
0.0204456
0.0137622
0.0137622
0.0137621
0.0137621
0.0137621
0.0137623
0.0137625
0.0137628
0.0137632
0.0137634
0.00911297
0.00911294
0.00911286
0.00911284
0.00911289
0.009113
0.00911318
0.00911342
0.00911373
0.00911383
0.00593631
0.00593629
0.00593623
0.00593622
0.00593626
0.00593634
0.00593647
0.00593666
0.00593688
0.00593695
0.00380452
0.00380451
0.00380447
0.00380446
0.00380449
0.00380455
0.00380465
0.00380478
0.00380494
0.00380499
0.00239914
0.00239913
0.00239911
0.0023991
0.00239912
0.00239917
0.00239923
0.00239932
0.00239944
0.00239947
0.0014888
0.00148879
0.00148877
0.00148877
0.00148878
0.00148881
0.00148885
0.00148891
0.00148898
0.00148901
0.000909268
0.000909262
0.000909249
0.000909246
0.000909252
0.000909265
0.000909285
0.000909315
0.000909355
0.000909365
0.000546617
0.000546612
0.000546602
0.000546597
0.000546594
0.000546591
0.000546588
0.000546586
0.000546588
0.000546578
0.000323496
0.000323492
0.000323482
0.000323473
0.000323459
0.000323437
0.000323401
0.000323351
0.000323295
0.000323243
0.0001885
0.000188495
0.000188485
0.000188469
0.000188441
0.000188391
0.000188305
0.000188172
0.000187999
0.000187842
0.000108161
0.000108156
0.000108143
0.00010812
0.000108074
0.000107987
0.000107823
0.00010754
0.000107112
0.000106652
6.1124e-05
6.11179e-05
6.11027e-05
6.10718e-05
6.10081e-05
6.08771e-05
6.06116e-05
6.00882e-05
5.91242e-05
5.76985e-05
1.41503
1.41503
1.41503
1.41503
1.41503
1.41503
1.41503
1.41503
1.41503
1.41503
1.2468
1.2468
1.2468
1.2468
1.2468
1.2468
1.2468
1.2468
1.2468
1.2468
1.08362
1.08362
1.08362
1.08362
1.08362
1.08362
1.08362
1.08362
1.08362
1.08362
0.928528
0.928528
0.928527
0.928526
0.928526
0.928526
0.928527
0.928527
0.928528
0.928529
0.784069
0.784069
0.784068
0.784067
0.784067
0.784067
0.784068
0.784069
0.78407
0.784071
0.652211
0.652211
0.65221
0.652209
0.652209
0.65221
0.65221
0.652212
0.652213
0.652214
0.534257
0.534257
0.534256
0.534255
0.534255
0.534255
0.534256
0.534258
0.534259
0.53426
0.430838
0.430838
0.430837
0.430836
0.430836
0.430837
0.430837
0.430839
0.430841
0.430841
0.341958
0.341958
0.341957
0.341957
0.341957
0.341957
0.341958
0.341959
0.341961
0.341962
0.267078
0.267078
0.267077
0.267077
0.267077
0.267078
0.267079
0.26708
0.267082
0.267082
0.20523
0.20523
0.205229
0.205229
0.205229
0.205229
0.20523
0.205231
0.205233
0.205233
0.155139
0.155139
0.155138
0.155138
0.155138
0.155139
0.155139
0.155141
0.155142
0.155142
0.115355
0.115355
0.115355
0.115355
0.115355
0.115355
0.115356
0.115357
0.115359
0.115359
0.0843654
0.0843655
0.084365
0.0843649
0.0843651
0.0843654
0.0843661
0.0843671
0.0843682
0.0843685
0.0606852
0.0606852
0.0606849
0.0606848
0.0606849
0.0606853
0.0606858
0.0606866
0.0606876
0.0606879
0.0429326
0.0429326
0.0429323
0.0429323
0.0429324
0.0429327
0.0429331
0.0429338
0.0429346
0.0429348
0.0298731
0.0298731
0.0298729
0.0298729
0.029873
0.0298732
0.0298736
0.0298742
0.0298748
0.029875
0.0204445
0.0204445
0.0204444
0.0204444
0.0204445
0.0204446
0.0204449
0.0204454
0.0204459
0.020446
0.0137625
0.0137625
0.0137624
0.0137624
0.0137624
0.0137626
0.0137628
0.0137632
0.0137636
0.0137637
0.00911314
0.00911314
0.00911307
0.00911307
0.00911313
0.00911325
0.00911342
0.00911367
0.00911396
0.00911405
0.00593644
0.00593644
0.00593639
0.00593639
0.00593644
0.00593653
0.00593666
0.00593684
0.00593706
0.00593712
0.00380462
0.00380462
0.00380459
0.00380459
0.00380462
0.00380468
0.00380478
0.00380491
0.00380507
0.00380511
0.00239921
0.00239921
0.00239919
0.00239919
0.00239922
0.00239926
0.00239933
0.00239942
0.00239952
0.00239956
0.00148885
0.00148884
0.00148883
0.00148883
0.00148885
0.00148887
0.00148892
0.00148897
0.00148905
0.00148907
0.000909301
0.000909299
0.00090929
0.000909289
0.000909296
0.000909309
0.00090933
0.000909359
0.000909397
0.000909405
0.00054664
0.000546637
0.000546629
0.000546625
0.000546623
0.000546621
0.000546618
0.000546615
0.000546616
0.000546605
0.000323511
0.000323508
0.0003235
0.000323491
0.000323478
0.000323456
0.000323421
0.00032337
0.000323313
0.000323261
0.00018851
0.000188506
0.000188496
0.000188481
0.000188454
0.000188404
0.000188318
0.000188184
0.000188011
0.000187853
0.000108168
0.000108163
0.000108151
0.000108127
0.000108082
0.000107994
0.000107831
0.000107547
0.00010712
0.000106659
6.11279e-05
6.11221e-05
6.11072e-05
6.10765e-05
6.1013e-05
6.08821e-05
6.06165e-05
6.0093e-05
5.91287e-05
5.77026e-05
1.41503
1.41503
1.41503
1.41503
1.41503
1.41503
1.41503
1.41503
1.41503
1.41503
1.2468
1.2468
1.2468
1.2468
1.2468
1.2468
1.2468
1.2468
1.2468
1.2468
1.08362
1.08362
1.08362
1.08362
1.08362
1.08362
1.08362
1.08362
1.08362
1.08362
0.928528
0.928528
0.928527
0.928527
0.928527
0.928527
0.928528
0.928528
0.92853
0.92853
0.784069
0.78407
0.784069
0.784068
0.784068
0.784069
0.784069
0.78407
0.784072
0.784072
0.652212
0.652212
0.652211
0.652211
0.652211
0.652211
0.652212
0.652213
0.652215
0.652215
0.534257
0.534258
0.534257
0.534257
0.534257
0.534257
0.534258
0.534259
0.534261
0.534261
0.430838
0.430839
0.430838
0.430838
0.430838
0.430838
0.430839
0.430841
0.430842
0.430843
0.341959
0.341959
0.341959
0.341958
0.341958
0.341959
0.34196
0.341961
0.341963
0.341963
0.267079
0.26708
0.267079
0.267079
0.267079
0.267079
0.26708
0.267082
0.267083
0.267084
0.20523
0.205231
0.20523
0.20523
0.20523
0.205231
0.205232
0.205233
0.205235
0.205235
0.15514
0.15514
0.15514
0.155139
0.15514
0.15514
0.155141
0.155142
0.155144
0.155144
0.115356
0.115356
0.115356
0.115356
0.115356
0.115357
0.115358
0.115359
0.11536
0.11536
0.0843661
0.0843663
0.0843661
0.0843661
0.0843662
0.0843667
0.0843673
0.0843682
0.0843693
0.0843695
0.0606858
0.060686
0.0606858
0.0606858
0.0606859
0.0606863
0.0606869
0.0606876
0.0606885
0.0606887
0.042933
0.0429332
0.0429331
0.0429331
0.0429332
0.0429335
0.042934
0.0429346
0.0429354
0.0429355
0.0298735
0.0298736
0.0298735
0.0298735
0.0298737
0.0298739
0.0298743
0.0298748
0.0298754
0.0298755
0.0204448
0.0204449
0.0204449
0.0204449
0.020445
0.0204452
0.0204455
0.0204459
0.0204464
0.0204464
0.0137627
0.0137628
0.0137627
0.0137628
0.0137629
0.013763
0.0137632
0.0137636
0.0137639
0.013764
0.00911333
0.00911338
0.00911335
0.00911337
0.00911344
0.00911356
0.00911373
0.00911396
0.00911424
0.00911429
0.00593658
0.00593662
0.0059366
0.00593661
0.00593666
0.00593675
0.00593688
0.00593706
0.00593726
0.0059373
0.00380472
0.00380474
0.00380473
0.00380475
0.00380478
0.00380485
0.00380494
0.00380507
0.00380521
0.00380524
0.00239929
0.0023993
0.0023993
0.00239931
0.00239933
0.00239938
0.00239944
0.00239953
0.00239963
0.00239965
0.0014889
0.00148891
0.0014889
0.00148891
0.00148893
0.00148896
0.001489
0.00148905
0.00148912
0.00148913
0.000909338
0.000909344
0.00090934
0.000909342
0.00090935
0.000909364
0.000909384
0.000909411
0.000909446
0.000909448
0.000546665
0.000546667
0.000546663
0.000546661
0.000546659
0.000546658
0.000546654
0.00054665
0.000546649
0.000546633
0.000323528
0.000323528
0.000323522
0.000323515
0.000323502
0.00032348
0.000323444
0.000323393
0.000323335
0.00032328
0.000188521
0.000188519
0.000188511
0.000188496
0.000188469
0.000188419
0.000188333
0.000188199
0.000188025
0.000187866
0.000108175
0.000108171
0.00010816
0.000108137
0.000108092
0.000108004
0.000107841
0.000107557
0.000107128
0.000106666
6.11322e-05
6.11272e-05
6.11128e-05
6.10824e-05
6.1019e-05
6.08881e-05
6.06225e-05
6.00987e-05
5.9134e-05
5.77073e-05
1.41503
1.41503
1.41503
1.41503
1.41503
1.41503
1.41503
1.41503
1.41503
1.41503
1.2468
1.2468
1.2468
1.2468
1.2468
1.2468
1.2468
1.2468
1.2468
1.2468
1.08362
1.08362
1.08362
1.08362
1.08362
1.08362
1.08362
1.08362
1.08362
1.08362
0.928528
0.928528
0.928528
0.928527
0.928527
0.928527
0.928528
0.928529
0.92853
0.92853
0.784069
0.78407
0.784069
0.784069
0.784069
0.784069
0.78407
0.784071
0.784072
0.784072
0.652212
0.652212
0.652211
0.652211
0.652211
0.652212
0.652212
0.652214
0.652215
0.652214
0.534257
0.534258
0.534257
0.534257
0.534257
0.534258
0.534258
0.53426
0.534261
0.534261
0.430838
0.430839
0.430838
0.430838
0.430838
0.430839
0.43084
0.430841
0.430843
0.430842
0.341959
0.341959
0.341959
0.341959
0.341959
0.341959
0.34196
0.341962
0.341963
0.341963
0.267079
0.26708
0.267079
0.267079
0.267079
0.26708
0.267081
0.267082
0.267084
0.267083
0.20523
0.205231
0.205231
0.20523
0.205231
0.205231
0.205232
0.205233
0.205235
0.205234
0.15514
0.15514
0.15514
0.15514
0.15514
0.15514
0.155141
0.155142
0.155144
0.155143
0.115356
0.115357
0.115356
0.115356
0.115357
0.115357
0.115358
0.115359
0.11536
0.11536
0.0843662
0.0843664
0.0843663
0.0843663
0.0843666
0.084367
0.0843676
0.0843685
0.0843695
0.0843691
0.0606858
0.060686
0.060686
0.060686
0.0606862
0.0606866
0.0606871
0.0606879
0.0606887
0.0606884
0.0429331
0.0429333
0.0429332
0.0429333
0.0429334
0.0429338
0.0429342
0.0429348
0.0429355
0.0429353
0.0298736
0.0298737
0.0298737
0.0298737
0.0298739
0.0298741
0.0298745
0.029875
0.0298755
0.0298753
0.0204449
0.020445
0.020445
0.020445
0.0204451
0.0204453
0.0204456
0.020446
0.0204464
0.0204463
0.0137628
0.0137628
0.0137628
0.0137629
0.013763
0.0137631
0.0137634
0.0137637
0.013764
0.0137639
0.00911338
0.00911342
0.00911343
0.00911346
0.00911353
0.00911365
0.00911383
0.00911405
0.00911429
0.00911422
0.00593662
0.00593665
0.00593666
0.00593668
0.00593674
0.00593683
0.00593696
0.00593712
0.0059373
0.00593725
0.00380475
0.00380477
0.00380478
0.0038048
0.00380484
0.0038049
0.003805
0.00380511
0.00380524
0.00380521
0.00239931
0.00239933
0.00239933
0.00239934
0.00239937
0.00239942
0.00239948
0.00239956
0.00239965
0.00239963
0.00148892
0.00148893
0.00148893
0.00148894
0.00148895
0.00148898
0.00148902
0.00148908
0.00148913
0.00148912
0.000909351
0.000909356
0.000909357
0.000909361
0.00090937
0.000909384
0.000909403
0.000909429
0.000909458
0.000909439
0.000546673
0.000546676
0.000546674
0.000546674