/*--------------------------------*- C++ -*----------------------------------*\
| =========                 |                                                 |
| \\      /  F ield         | OpenFOAM: The Open Source CFD Toolbox           |
|  \\    /   O peration     | Version:  v1812                                 |
|   \\  /    A nd           | Web:      www.OpenFOAM.com                      |
|    \\/     M anipulation  |                                                 |
\*---------------------------------------------------------------------------*/
FoamFile
{
    version     2.0;
    format      ascii;
    class       volScalarField;
    location    "3.95";
    object      p;
}
// * * * * * * * * * * * * * * * * * * * * * * * * * * * * * * * * * * * * * //

dimensions      [0 2 -2 0 0 0 0];


internalField   nonuniform List<scalar> 
1000
(
1.686084
1.5650061
1.4690256
1.4053695
1.35686
1.314388
1.2768528
1.244681
1.2172807
1.1934433
1.1720491
1.1522855
1.1336087
1.1156696
1.098255
1.081242
1.0645627
1.0481809
1.0320762
1.0162353
1.0006474
0.98530228
0.97018955
0.95529857
0.94061874
0.92613977
0.91185183
0.89774568
0.88381261
0.87004438
0.85643305
0.84297077
0.82964959
0.81646139
0.80339765
0.79044954
0.77760782
0.764863
0.75220541
0.73962541
0.72711349
0.71466051
0.70225784
0.68989747
0.67757214
0.66527538
0.65300157
0.64074591
0.62850437
0.61627363
0.60405105
0.5918345
0.57962236
0.56741338
0.55520663
0.54300143
0.53079729
0.51859385
0.50639088
0.4941882
0.48198572
0.46978336
0.45758107
0.44537883
0.43317661
0.4209744
0.4087722
0.39657001
0.38436782
0.37216563
0.35996344
0.34776125
0.33555907
0.32335688
0.31115469
0.2989525
0.28675032
0.27454813
0.26234594
0.25014375
0.23794157
0.22573938
0.21353719
0.20133501
0.18913282
0.17693063
0.16472845
0.15252626
0.14032407
0.12812189
0.1159197
0.10371752
0.091515335
0.079313156
0.067110976
0.054908805
0.042706643
0.03050453
0.018302475
0.0061006489
1.5688643
1.5139352
1.4529828
1.401415
1.358145
1.3191767
1.2835905
1.2518179
1.223857
1.1990792
1.1766774
1.1559763
1.1364949
1.1179072
1.0999942
1.0826104
1.0656599
1.0490804
1.0328306
1.0168813
1.0012102
0.98579911
0.97063225
0.95569531
0.94097525
0.92646019
0.91213924
0.89800248
0.8840408
0.87024571
0.85660917
0.84312332
0.82978029
0.81657199
0.80349001
0.79052555
0.77766941
0.76491207
0.75224382
0.73965489
0.72713564
0.71467677
0.70226946
0.68990551
0.6775775
0.66527879
0.65300361
0.64074702
0.62850487
0.61627377
0.60405097
0.59183433
0.57962216
0.56741319
0.55520646
0.54300129
0.53079718
0.51859377
0.50639082
0.49418816
0.4819857
0.46978334
0.45758106
0.44537882
0.4331766
0.4209744
0.4087722
0.39657001
0.38436782
0.37216563
0.35996344
0.34776125
0.33555907
0.32335688
0.31115469
0.2989525
0.28675032
0.27454813
0.26234594
0.25014375
0.23794157
0.22573938
0.21353719
0.20133501
0.18913282
0.17693063
0.16472845
0.15252626
0.14032407
0.12812189
0.1159197
0.10371752
0.09151533
0.079313149
0.067110956
0.054908772
0.042706571
0.030504418
0.018302283
0.006100497
1.5080431
1.481868
1.4434711
1.4023382
1.363253
1.3266622
1.2923645
1.260647
1.231791
1.20569
1.1819361
1.1600462
1.1395967
1.1202562
1.1017767
1.0839765
1.066726
1.0499324
1.0335292
1.0174682
1.0017137
0.98623828
0.97102013
0.95604097
0.9412851
0.92673887
0.91239025
0.89822855
0.88424407
0.87042795
0.85677184
0.84326771
0.82990758
0.8166833
0.80358646
0.79060826
0.77773956
0.76497085
0.75229245
0.73969457
0.72716758
0.71470211
0.70228925
0.68992075
0.67758904
0.6652874
0.65300992
0.64075156
0.62850809
0.61627601
0.60405251
0.59183536
0.57962283
0.56741362
0.55520673
0.54300146
0.53079728
0.51859382
0.50639085
0.49418818
0.48198571
0.46978335
0.45758106
0.44537882
0.4331766
0.4209744
0.4087722
0.39657001
0.38436782
0.37216563
0.35996344
0.34776125
0.33555907
0.32335688
0.31115469
0.2989525
0.28675032
0.27454813
0.26234594
0.25014376
0.23794157
0.22573938
0.21353719
0.20133501
0.18913282
0.17693063
0.16472845
0.15252626
0.14032407
0.12812189
0.11591969
0.10371751
0.091515309
0.079313116
0.06711089
0.054908663
0.042706383
0.030504149
0.018301949
0.0061002713
1.4786345
1.4631365
1.4362665
1.4023427
1.3665417
1.3315904
1.2982885
1.2669354
1.2378048
1.2110134
1.186426
1.163734
1.1425825
1.1226543
1.1036968
1.0855182
1.0679739
1.0509551
1.0343798
1.0181864
1.0023289
0.98677215
0.97148884
0.95645667
0.94165696
0.92707385
0.91269375
0.89850477
0.8844963
0.87065867
0.85698295
0.84346063
0.83008339
0.81684284
0.80373041
0.79073725
0.7778542
0.76507181
0.75238047
0.7397705
0.72723232
0.71475666
0.70233465
0.68995804
0.67761928
0.66531159
0.65302901
0.64076642
0.62851949
0.61628464
0.60405894
0.59184009
0.57962626
0.56741607
0.55520846
0.54300266
0.53079809
0.51859437
0.50639121
0.49418842
0.48198586
0.46978344
0.45758112
0.44537886
0.43317662
0.42097441
0.40877221
0.39657001
0.38436782
0.37216563
0.35996344
0.34776125
0.33555907
0.32335688
0.31115469
0.2989525
0.28675032
0.27454813
0.26234594
0.25014376
0.23794157
0.22573938
0.21353719
0.20133501
0.18913282
0.17693063
0.16472845
0.15252626
0.14032407
0.12812188
0.11591968
0.10371749
0.091515281
0.07931307
0.067110805
0.054908527
0.042706171
0.030503868
0.018301643
0.0061000819
1.465903
1.4539497
1.4317153
1.4014277
1.3675666
1.333571
1.3008735
1.2698679
1.2407706
1.2137588
1.1888319
1.1657826
1.1443015
1.1240844
1.1048817
1.0865006
1.0687933
1.0516453
1.034968
1.018694
1.0027721
0.98716323
0.97183731
0.95676982
0.94194043
0.92733203
0.91293008
0.898722
0.8846966
0.87084374
0.85715406
0.84361874
0.83022918
0.8169768
0.80385288
0.79084851
0.77795449
0.76516143
0.75245976
0.73983989
0.72729236
0.71480796
0.70237794
0.68999408
0.67764888
0.66533556
0.65304815
0.64078149
0.62853118
0.61629357
0.60406567
0.59184508
0.57962991
0.5674187
0.55521032
0.54300396
0.53079899
0.51859498
0.50639162
0.49418868
0.48198603
0.46978355
0.45758119
0.4453789
0.43317665
0.42097443
0.40877222
0.39657002
0.38436782
0.37216563
0.35996344
0.34776125
0.33555907
0.32335688
0.31115469
0.2989525
0.28675032
0.27454813
0.26234594
0.25014376
0.23794157
0.22573938
0.21353719
0.20133501
0.18913282
0.17693063
0.16472844
0.15252626
0.14032406
0.12812188
0.11591968
0.10371748
0.091515262
0.079313037
0.067110747
0.054908437
0.042706039
0.030503702
0.018301473
0.0060999817
1.465903
1.4539497
1.4317153
1.4014277
1.3675666
1.333571
1.3008735
1.2698679
1.2407706
1.2137588
1.1888319
1.1657826
1.1443015
1.1240844
1.1048817
1.0865006
1.0687933
1.0516453
1.0349681
1.018694
1.0027721
0.98716324
0.97183732
0.95676983
0.94194044
0.92733203
0.91293009
0.89872201
0.88469661
0.87084374
0.85715406
0.84361874
0.83022917
0.81697679
0.80385288
0.7908485
0.77795449
0.76516143
0.75245976
0.73983989
0.72729236
0.71480796
0.70237793
0.68999408
0.67764888
0.66533556
0.65304815
0.64078149
0.62853118
0.61629357
0.60406567
0.59184508
0.57962991
0.56741869
0.55521032
0.54300395
0.53079899
0.51859498
0.50639162
0.49418868
0.48198603
0.46978355
0.45758119
0.4453789
0.43317665
0.42097443
0.40877222
0.39657002
0.38436782
0.37216563
0.35996344
0.34776125
0.33555907
0.32335688
0.31115469
0.2989525
0.28675032
0.27454813
0.26234594
0.25014376
0.23794157
0.22573938
0.21353719
0.20133501
0.18913282
0.17693063
0.16472844
0.15252626
0.14032406
0.12812188
0.11591968
0.10371748
0.091515262
0.079313037
0.067110748
0.054908437
0.04270604
0.030503703
0.018301475
0.0060999826
1.4786345
1.4631365
1.4362665
1.4023427
1.3665417
1.3315904
1.2982884
1.2669354
1.2378048
1.2110134
1.186426
1.163734
1.1425825
1.1226543
1.1036968
1.0855182
1.0679739
1.0509551
1.0343798
1.0181865
1.0023289
0.98677218
0.97148887
0.9564567
0.94165698
0.92707387
0.91269377
0.89850479
0.88449631
0.87065867
0.85698295
0.84346063
0.83008338
0.81684283
0.8037304
0.79073724
0.77785418
0.7650718
0.75238046
0.73977048
0.72723231
0.71475664
0.70233463
0.68995803
0.67761927
0.66531157
0.653029
0.64076641
0.62851948
0.61628463
0.60405893
0.59184008
0.57962626
0.56741606
0.55520845
0.54300265
0.53079809
0.51859437
0.50639121
0.49418842
0.48198586
0.46978344
0.45758112
0.44537886
0.43317663
0.42097441
0.40877221
0.39657001
0.38436782
0.37216563
0.35996344
0.34776125
0.33555907
0.32335688
0.31115469
0.2989525
0.28675032
0.27454813
0.26234594
0.25014376
0.23794157
0.22573938
0.21353719
0.20133501
0.18913282
0.17693063
0.16472844
0.15252626
0.14032406
0.12812188
0.11591968
0.10371749
0.091515282
0.079313071
0.067110806
0.054908528
0.042706173
0.030503873
0.018301647
0.0061000839
1.5080431
1.481868
1.4434711
1.4023382
1.363253
1.3266622
1.2923645
1.260647
1.231791
1.20569
1.1819361
1.1600462
1.1395967
1.1202562
1.1017767
1.0839765
1.066726
1.0499324
1.0335292
1.0174682
1.0017137
0.98623831
0.97102017
0.956041
0.94128513
0.9267389
0.91239028
0.89822857
0.88424409
0.87042796
0.85677184
0.84326771
0.82990757
0.81668329
0.80358644
0.79060825
0.77773954
0.76497083
0.75229243
0.73969455
0.72716756
0.71470209
0.70228924
0.68992073
0.67758902
0.66528738
0.6530099
0.64075155
0.62850807
0.61627599
0.60405249
0.59183534
0.57962282
0.56741361
0.55520673
0.54300145
0.53079727
0.51859382
0.50639085
0.49418818
0.4819857
0.46978335
0.45758106
0.44537882
0.4331766
0.4209744
0.4087722
0.39657001
0.38436782
0.37216563
0.35996344
0.34776125
0.33555907
0.32335688
0.31115469
0.2989525
0.28675032
0.27454813
0.26234594
0.25014376
0.23794157
0.22573938
0.21353719
0.20133501
0.18913282
0.17693063
0.16472844
0.15252626
0.14032407
0.12812188
0.11591969
0.10371751
0.091515311
0.079313119
0.067110893
0.054908665
0.042706386
0.030504154
0.018301954
0.0061002736
1.5688643
1.5139352
1.4529827
1.401415
1.358145
1.3191767
1.2835905
1.2518179
1.223857
1.1990792
1.1766774
1.1559762
1.1364949
1.1179072
1.0999942
1.0826104
1.0656599
1.0490805
1.0328306
1.0168813
1.0012102
0.98579915
0.97063229
0.95569534
0.94097529
0.92646022
0.91213927
0.8980025
0.88404081
0.87024572
0.85660917
0.84312332
0.82978029
0.81657198
0.80349
0.79052554
0.77766939
0.76491206
0.7522438
0.73965487
0.72713562
0.71467675
0.70226944
0.68990549
0.67757748
0.66527877
0.65300359
0.640747
0.62850485
0.61627375
0.60405096
0.59183432
0.57962215
0.56741318
0.55520645
0.54300129
0.53079717
0.51859376
0.50639082
0.49418816
0.4819857
0.46978335
0.45758106
0.44537882
0.4331766
0.4209744
0.4087722
0.39657001
0.38436782
0.37216563
0.35996344
0.34776125
0.33555907
0.32335688
0.31115469
0.2989525
0.28675032
0.27454813
0.26234594
0.25014375
0.23794157
0.22573938
0.21353719
0.20133501
0.18913282
0.17693063
0.16472845
0.15252626
0.14032407
0.12812189
0.1159197
0.10371752
0.091515333
0.079313153
0.067110959
0.054908774
0.042706574
0.030504425
0.01830229
0.0061004994
1.686084
1.5650061
1.4690256
1.4053695
1.35686
1.314388
1.2768527
1.244681
1.2172807
1.1934432
1.1720491
1.1522855
1.1336087
1.1156696
1.098255
1.081242
1.0645627
1.048181
1.0320762
1.0162353
1.0006474
0.98530232
0.97018959
0.9552986
0.94061877
0.92613979
0.91185185
0.89774569
0.88381262
0.87004439
0.85643305
0.84297076
0.82964958
0.81646137
0.80339764
0.79044952
0.7776078
0.76486297
0.75220539
0.73962538
0.72711346
0.71466049
0.70225782
0.68989745
0.67757211
0.66527536
0.65300155
0.64074589
0.62850435
0.61627362
0.60405103
0.59183449
0.57962235
0.56741337
0.55520663
0.54300143
0.53079728
0.51859385
0.50639088
0.49418821
0.48198573
0.46978336
0.45758108
0.44537883
0.43317661
0.4209744
0.40877221
0.39657001
0.38436782
0.37216563
0.35996344
0.34776125
0.33555907
0.32335688
0.31115469
0.2989525
0.28675032
0.27454813
0.26234594
0.25014375
0.23794157
0.22573938
0.21353719
0.20133501
0.18913282
0.17693063
0.16472845
0.15252626
0.14032407
0.12812189
0.1159197
0.10371752
0.091515338
0.079313159
0.067110977
0.054908807
0.042706649
0.03050454
0.018302482
0.0061006512
)
;

boundaryField
{
    top
    {
        type            zeroGradient;
    }
    inlet
    {
        type            zeroGradient;
    }
    outlet
    {
        type            fixedValue;
        value           uniform 0;
    }
    bottom
    {
        type            zeroGradient;
    }
    back
    {
        type            empty;
    }
    front
    {
        type            empty;
    }
}


// ************************************************************************* //
