/*--------------------------------*- C++ -*----------------------------------*\
| =========                 |                                                 |
| \\      /  F ield         | OpenFOAM: The Open Source CFD Toolbox           |
|  \\    /   O peration     | Version:  2112                                  |
|   \\  /    A nd           | Website:  www.openfoam.com                      |
|    \\/     M anipulation  |                                                 |
\*---------------------------------------------------------------------------*/
FoamFile
{
    version     2.0;
    format      ascii;
    arch        "LSB;label=32;scalar=64";
    class       volScalarField;
    location    "35";
    object      T;
}
// * * * * * * * * * * * * * * * * * * * * * * * * * * * * * * * * * * * * * //

dimensions      [0 0 0 1 0 0 0];

internalField   nonuniform List<scalar> 
10000
(
1.42827
1.42827
1.42827
1.42827
1.42827
1.42827
1.42827
1.42827
1.42827
1.42827
1.28584
1.28584
1.28584
1.28584
1.28584
1.28584
1.28584
1.28584
1.28584
1.28584
1.14646
1.14646
1.14646
1.14646
1.14646
1.14646
1.14646
1.14646
1.14646
1.14646
1.01203
1.01203
1.01203
1.01203
1.01203
1.01203
1.01203
1.01203
1.01203
1.01203
0.884225
0.884225
0.884224
0.884224
0.884223
0.884223
0.884223
0.884223
0.884224
0.884224
0.764457
0.764458
0.764457
0.764456
0.764456
0.764456
0.764456
0.764456
0.764456
0.764456
0.653826
0.653827
0.653826
0.653825
0.653825
0.653824
0.653825
0.653825
0.653826
0.653825
0.553092
0.553092
0.553091
0.553091
0.55309
0.55309
0.55309
0.553091
0.553091
0.553091
0.462674
0.462675
0.462674
0.462673
0.462673
0.462673
0.462673
0.462674
0.462674
0.462674
0.382669
0.382669
0.382668
0.382668
0.382667
0.382668
0.382668
0.382668
0.382669
0.382669
0.312879
0.312879
0.312878
0.312878
0.312877
0.312877
0.312878
0.312878
0.312879
0.312879
0.252859
0.252859
0.252858
0.252858
0.252857
0.252857
0.252858
0.252858
0.252859
0.252859
0.201966
0.201967
0.201966
0.201966
0.201965
0.201965
0.201966
0.201966
0.201967
0.201967
0.159419
0.159419
0.159418
0.159418
0.159418
0.159418
0.159418
0.159419
0.159419
0.159419
0.124344
0.124344
0.124343
0.124343
0.124343
0.124343
0.124343
0.124344
0.124344
0.124344
0.0958304
0.0958306
0.0958301
0.0958298
0.0958298
0.0958299
0.0958302
0.0958306
0.0958311
0.0958311
0.072972
0.0729721
0.0729717
0.0729715
0.0729714
0.0729715
0.0729718
0.0729722
0.0729726
0.0729726
0.054899
0.0548991
0.0548988
0.0548986
0.0548986
0.0548987
0.0548989
0.0548993
0.0548996
0.0548997
0.0408053
0.0408054
0.0408051
0.040805
0.040805
0.0408051
0.0408053
0.0408055
0.0408058
0.0408059
0.0299644
0.0299644
0.0299642
0.0299641
0.0299641
0.0299642
0.0299643
0.0299645
0.0299648
0.0299648
0.0217384
0.0217384
0.0217382
0.0217381
0.0217381
0.0217381
0.0217382
0.0217384
0.0217386
0.0217386
0.0155805
0.0155805
0.0155804
0.0155803
0.0155802
0.0155802
0.0155803
0.0155804
0.0155805
0.0155805
0.0110325
0.0110325
0.0110324
0.0110323
0.0110322
0.0110321
0.0110321
0.0110321
0.0110321
0.0110321
0.00771809
0.00771807
0.00771794
0.00771781
0.00771767
0.00771752
0.00771737
0.00771723
0.00771713
0.00771703
0.00533457
0.00533453
0.00533438
0.00533419
0.00533394
0.00533364
0.00533328
0.00533289
0.00533256
0.00533232
0.00364294
0.00364287
0.00364268
0.00364239
0.00364199
0.00364143
0.00364071
0.00363988
0.0036391
0.00363857
0.00245798
0.00245787
0.00245761
0.00245719
0.00245654
0.00245558
0.00245426
0.00245263
0.00245094
0.00244973
0.00163864
0.00163849
0.00163815
0.00163754
0.00163655
0.00163501
0.00163272
0.00162962
0.00162605
0.00162322
0.00107938
0.00107919
0.00107874
0.00107793
0.00107653
0.0010742
0.00107048
0.00106487
0.00105742
0.00105027
0.000702507
0.000702278
0.000701737
0.000700723
0.000698909
0.000695725
0.000690203
0.000680827
0.00066577
0.000646078
1.42827
1.42827
1.42827
1.42827
1.42827
1.42827
1.42827
1.42827
1.42827
1.42827
1.28584
1.28584
1.28584
1.28584
1.28584
1.28584
1.28584
1.28584
1.28584
1.28584
1.14646
1.14646
1.14646
1.14646
1.14646
1.14646
1.14646
1.14646
1.14646
1.14646
1.01203
1.01203
1.01203
1.01203
1.01203
1.01203
1.01203
1.01203
1.01203
1.01203
0.884225
0.884225
0.884224
0.884223
0.884223
0.884223
0.884223
0.884224
0.884224
0.884224
0.764458
0.764458
0.764457
0.764456
0.764456
0.764455
0.764456
0.764456
0.764457
0.764457
0.653827
0.653827
0.653825
0.653825
0.653824
0.653824
0.653825
0.653825
0.653826
0.653826
0.553092
0.553092
0.553091
0.55309
0.55309
0.55309
0.55309
0.553091
0.553092
0.553092
0.462675
0.462675
0.462674
0.462673
0.462673
0.462673
0.462673
0.462674
0.462674
0.462674
0.382669
0.382669
0.382668
0.382668
0.382667
0.382667
0.382668
0.382668
0.382669
0.382669
0.312879
0.312879
0.312878
0.312878
0.312877
0.312877
0.312878
0.312878
0.312879
0.312879
0.252859
0.252859
0.252858
0.252857
0.252857
0.252857
0.252858
0.252858
0.252859
0.252859
0.201967
0.201967
0.201966
0.201965
0.201965
0.201965
0.201966
0.201966
0.201967
0.201967
0.159419
0.159419
0.159418
0.159418
0.159418
0.159418
0.159418
0.159419
0.15942
0.15942
0.124344
0.124344
0.124343
0.124343
0.124343
0.124343
0.124343
0.124344
0.124344
0.124345
0.0958306
0.0958305
0.09583
0.0958297
0.0958297
0.0958298
0.0958301
0.0958306
0.0958312
0.0958313
0.0729721
0.072972
0.0729716
0.0729714
0.0729713
0.0729715
0.0729718
0.0729722
0.0729728
0.0729728
0.0548991
0.0548991
0.0548987
0.0548985
0.0548985
0.0548986
0.0548989
0.0548993
0.0548997
0.0548998
0.0408054
0.0408053
0.0408051
0.0408049
0.0408049
0.040805
0.0408052
0.0408056
0.040806
0.040806
0.0299644
0.0299644
0.0299642
0.0299641
0.029964
0.0299641
0.0299643
0.0299645
0.0299649
0.0299649
0.0217384
0.0217383
0.0217382
0.0217381
0.0217381
0.0217381
0.0217382
0.0217384
0.0217387
0.0217387
0.0155805
0.0155805
0.0155803
0.0155802
0.0155802
0.0155802
0.0155803
0.0155804
0.0155806
0.0155806
0.0110325
0.0110325
0.0110323
0.0110322
0.0110322
0.0110321
0.0110321
0.0110321
0.0110322
0.0110321
0.0077181
0.00771805
0.00771792
0.00771779
0.00771765
0.0077175
0.00771736
0.00771723
0.00771716
0.00771706
0.00533458
0.00533451
0.00533436
0.00533417
0.00533393
0.00533362
0.00533327
0.00533289
0.00533258
0.00533235
0.00364294
0.00364286
0.00364266
0.00364238
0.00364197
0.00364142
0.0036407
0.00363988
0.00363912
0.00363858
0.00245798
0.00245786
0.0024576
0.00245718
0.00245653
0.00245557
0.00245426
0.00245263
0.00245095
0.00244974
0.00163864
0.00163849
0.00163814
0.00163753
0.00163655
0.001635
0.00163272
0.00162962
0.00162606
0.00162323
0.00107938
0.00107919
0.00107874
0.00107792
0.00107652
0.0010742
0.00107047
0.00106487
0.00105742
0.00105028
0.000702507
0.000702275
0.000701734
0.000700719
0.000698906
0.000695722
0.000690201
0.000680827
0.000665773
0.000646081
1.42827
1.42827
1.42827
1.42827
1.42827
1.42827
1.42827
1.42827
1.42827
1.42827
1.28584
1.28584
1.28584
1.28584
1.28584
1.28584
1.28584
1.28584
1.28584
1.28584
1.14646
1.14646
1.14646
1.14646
1.14646
1.14646
1.14646
1.14646
1.14646
1.14646
1.01203
1.01203
1.01203
1.01203
1.01203
1.01203
1.01203
1.01203
1.01203
1.01203
0.884224
0.884224
0.884223
0.884222
0.884222
0.884222
0.884222
0.884223
0.884223
0.884223
0.764457
0.764457
0.764456
0.764455
0.764454
0.764454
0.764455
0.764455
0.764456
0.764456
0.653826
0.653825
0.653824
0.653824
0.653823
0.653823
0.653824
0.653824
0.653825
0.653825
0.553091
0.553091
0.55309
0.553089
0.553089
0.553089
0.553089
0.55309
0.553091
0.553091
0.462674
0.462674
0.462673
0.462672
0.462672
0.462672
0.462672
0.462673
0.462674
0.462674
0.382668
0.382668
0.382667
0.382667
0.382666
0.382666
0.382667
0.382668
0.382669
0.382669
0.312878
0.312878
0.312877
0.312877
0.312876
0.312876
0.312877
0.312878
0.312879
0.312879
0.252858
0.252858
0.252857
0.252856
0.252856
0.252856
0.252857
0.252858
0.252859
0.252859
0.201966
0.201966
0.201965
0.201965
0.201964
0.201965
0.201965
0.201966
0.201967
0.201967
0.159418
0.159418
0.159418
0.159417
0.159417
0.159417
0.159418
0.159418
0.159419
0.159419
0.124343
0.124343
0.124343
0.124342
0.124342
0.124342
0.124343
0.124343
0.124344
0.124344
0.0958301
0.09583
0.0958295
0.0958292
0.0958292
0.0958293
0.0958297
0.0958303
0.0958311
0.0958312
0.0729717
0.0729716
0.0729712
0.072971
0.0729709
0.0729711
0.0729714
0.0729719
0.0729726
0.0729727
0.0548988
0.0548987
0.0548984
0.0548982
0.0548982
0.0548983
0.0548986
0.0548991
0.0548996
0.0548997
0.0408051
0.0408051
0.0408048
0.0408047
0.0408047
0.0408048
0.040805
0.0408054
0.0408059
0.040806
0.0299642
0.0299642
0.029964
0.0299638
0.0299638
0.0299639
0.0299641
0.0299644
0.0299648
0.0299649
0.0217382
0.0217382
0.021738
0.0217379
0.0217379
0.0217379
0.0217381
0.0217383
0.0217386
0.0217387
0.0155804
0.0155804
0.0155802
0.0155801
0.0155801
0.0155801
0.0155802
0.0155803
0.0155805
0.0155806
0.0110324
0.0110324
0.0110322
0.0110321
0.0110321
0.011032
0.011032
0.0110321
0.0110322
0.0110321
0.00771804
0.00771798
0.00771785
0.00771772
0.00771758
0.00771744
0.0077173
0.00771719
0.00771715
0.00771706
0.00533453
0.00533446
0.00533431
0.00533412
0.00533388
0.00533358
0.00533323
0.00533286
0.00533257
0.00533235
0.00364291
0.00364282
0.00364263
0.00364234
0.00364194
0.00364138
0.00364067
0.00363986
0.00363911
0.00363859
0.00245795
0.00245784
0.00245757
0.00245715
0.0024565
0.00245555
0.00245424
0.00245261
0.00245094
0.00244975
0.00163862
0.00163847
0.00163812
0.00163752
0.00163653
0.00163499
0.0016327
0.00162961
0.00162606
0.00162323
0.00107937
0.00107917
0.00107872
0.00107791
0.00107651
0.00107419
0.00107047
0.00106486
0.00105742
0.00105028
0.000702499
0.000702267
0.000701725
0.000700711
0.000698898
0.000695714
0.000690195
0.000680823
0.000665772
0.000646081
1.42827
1.42827
1.42827
1.42827
1.42827
1.42827
1.42827
1.42827
1.42827
1.42827
1.28584
1.28584
1.28584
1.28584
1.28584
1.28584
1.28584
1.28584
1.28584
1.28584
1.14646
1.14646
1.14646
1.14646
1.14646
1.14646
1.14646
1.14646
1.14646
1.14646
1.01203
1.01203
1.01203
1.01203
1.01203
1.01203
1.01203
1.01203
1.01203
1.01203
0.884224
0.884223
0.884222
0.884222
0.884222
0.884221
0.884222
0.884222
0.884223
0.884223
0.764456
0.764456
0.764455
0.764454
0.764454
0.764454
0.764454
0.764455
0.764456
0.764456
0.653825
0.653825
0.653824
0.653823
0.653823
0.653823
0.653823
0.653824
0.653825
0.653825
0.553091
0.55309
0.553089
0.553089
0.553088
0.553088
0.553089
0.55309
0.553091
0.553091
0.462673
0.462673
0.462672
0.462671
0.462671
0.462671
0.462672
0.462672
0.462674
0.462674
0.382668
0.382668
0.382667
0.382666
0.382666
0.382666
0.382666
0.382667
0.382669
0.382669
0.312878
0.312878
0.312877
0.312876
0.312876
0.312876
0.312876
0.312877
0.312879
0.312879
0.252858
0.252857
0.252856
0.252856
0.252856
0.252856
0.252857
0.252857
0.252859
0.252859
0.201966
0.201965
0.201965
0.201964
0.201964
0.201964
0.201965
0.201966
0.201967
0.201967
0.159418
0.159418
0.159417
0.159417
0.159417
0.159417
0.159417
0.159418
0.159419
0.159419
0.124343
0.124343
0.124342
0.124342
0.124342
0.124342
0.124343
0.124343
0.124344
0.124344
0.0958298
0.0958297
0.0958292
0.095829
0.0958289
0.0958291
0.0958295
0.0958302
0.095831
0.0958312
0.0729715
0.0729714
0.072971
0.0729708
0.0729707
0.0729709
0.0729713
0.0729718
0.0729726
0.0729728
0.0548986
0.0548986
0.0548982
0.054898
0.054898
0.0548982
0.0548985
0.054899
0.0548996
0.0548998
0.040805
0.0408049
0.0408047
0.0408045
0.0408045
0.0408047
0.0408049
0.0408053
0.0408059
0.040806
0.0299641
0.0299641
0.0299639
0.0299637
0.0299637
0.0299638
0.0299641
0.0299644
0.0299648
0.0299649
0.0217382
0.0217381
0.0217379
0.0217378
0.0217378
0.0217379
0.021738
0.0217383
0.0217386
0.0217387
0.0155803
0.0155803
0.0155802
0.0155801
0.01558
0.0155801
0.0155801
0.0155803
0.0155805
0.0155806
0.0110324
0.0110323
0.0110322
0.0110321
0.011032
0.011032
0.011032
0.011032
0.0110322
0.0110322
0.00771801
0.00771795
0.00771782
0.00771769
0.00771756
0.00771742
0.00771729
0.00771719
0.00771716
0.00771708
0.00533451
0.00533444
0.00533429
0.0053341
0.00533386
0.00533357
0.00533322
0.00533286
0.00533258
0.00533236
0.0036429
0.00364281
0.00364261
0.00364233
0.00364193
0.00364138
0.00364067
0.00363986
0.00363912
0.0036386
0.00245794
0.00245783
0.00245757
0.00245714
0.0024565
0.00245554
0.00245423
0.00245261
0.00245095
0.00244976
0.00163862
0.00163846
0.00163811
0.00163751
0.00163653
0.00163498
0.0016327
0.00162961
0.00162606
0.00162323
0.00107937
0.00107917
0.00107872
0.00107791
0.00107651
0.00107419
0.00107047
0.00106486
0.00105742
0.00105028
0.000702496
0.000702264
0.000701723
0.000700709
0.000698896
0.000695713
0.000690195
0.000680824
0.000665775
0.000646085
1.42827
1.42827
1.42827
1.42827
1.42827
1.42827
1.42827
1.42827
1.42827
1.42827
1.28584
1.28584
1.28584
1.28584
1.28584
1.28584
1.28584
1.28584
1.28584
1.28584
1.14646
1.14646
1.14646
1.14646
1.14646
1.14646
1.14646
1.14646
1.14646
1.14646
1.01203
1.01203
1.01203
1.01203
1.01203
1.01203
1.01203
1.01203
1.01203
1.01203
0.884223
0.884223
0.884222
0.884222
0.884221
0.884221
0.884222
0.884222
0.884223
0.884223
0.764456
0.764456
0.764454
0.764454
0.764454
0.764454
0.764454
0.764455
0.764456
0.764456
0.653825
0.653824
0.653823
0.653823
0.653822
0.653822
0.653823
0.653824
0.653825
0.653825
0.55309
0.55309
0.553089
0.553088
0.553088
0.553088
0.553089
0.55309
0.553091
0.553091
0.462673
0.462673
0.462672
0.462671
0.462671
0.462671
0.462671
0.462672
0.462674
0.462674
0.382667
0.382667
0.382666
0.382666
0.382666
0.382666
0.382666
0.382667
0.382669
0.382669
0.312877
0.312877
0.312876
0.312876
0.312876
0.312876
0.312876
0.312877
0.312879
0.312879
0.252857
0.252857
0.252856
0.252856
0.252856
0.252856
0.252857
0.252857
0.252859
0.252859
0.201965
0.201965
0.201964
0.201964
0.201964
0.201964
0.201965
0.201966
0.201967
0.201967
0.159418
0.159418
0.159417
0.159417
0.159417
0.159417
0.159417
0.159418
0.159419
0.15942
0.124343
0.124343
0.124342
0.124342
0.124342
0.124342
0.124343
0.124343
0.124344
0.124345
0.0958298
0.0958297
0.0958292
0.0958289
0.0958289
0.0958291
0.0958296
0.0958303
0.0958311
0.0958314
0.0729714
0.0729714
0.0729709
0.0729707
0.0729707
0.0729709
0.0729713
0.0729719
0.0729727
0.0729729
0.0548986
0.0548985
0.0548982
0.054898
0.054898
0.0548982
0.0548986
0.0548991
0.0548997
0.0548999
0.040805
0.0408049
0.0408047
0.0408045
0.0408046
0.0408047
0.040805
0.0408054
0.040806
0.0408061
0.0299641
0.0299641
0.0299639
0.0299638
0.0299638
0.0299639
0.0299641
0.0299645
0.0299649
0.029965
0.0217382
0.0217381
0.0217379
0.0217378
0.0217378
0.0217379
0.0217381
0.0217384
0.0217387
0.0217388
0.0155804
0.0155803
0.0155802
0.0155801
0.0155801
0.0155801
0.0155802
0.0155804
0.0155806
0.0155807
0.0110324
0.0110323
0.0110322
0.0110321
0.011032
0.011032
0.011032
0.0110321
0.0110322
0.0110322
0.00771801
0.00771796
0.00771783
0.0077177
0.00771757
0.00771744
0.00771732
0.00771722
0.00771719
0.00771713
0.00533451
0.00533445
0.0053343
0.00533411
0.00533388
0.00533358
0.00533324
0.00533289
0.00533261
0.0053324
0.0036429
0.00364282
0.00364262
0.00364234
0.00364194
0.00364139
0.00364069
0.00363989
0.00363914
0.00363863
0.00245795
0.00245783
0.00245757
0.00245715
0.00245651
0.00245556
0.00245425
0.00245263
0.00245097
0.00244978
0.00163862
0.00163847
0.00163812
0.00163752
0.00163653
0.00163499
0.00163271
0.00162963
0.00162608
0.00162325
0.00107937
0.00107917
0.00107872
0.00107791
0.00107652
0.00107419
0.00107047
0.00106487
0.00105743
0.00105029
0.000702499
0.000702267
0.000701726
0.000700713
0.000698901
0.000695718
0.000690201
0.00068083
0.000665781
0.000646092
1.42827
1.42827
1.42827
1.42827
1.42827
1.42827
1.42827
1.42827
1.42827
1.42827
1.28584
1.28584
1.28584
1.28584
1.28584
1.28584
1.28584
1.28584
1.28584
1.28584
1.14646
1.14646
1.14646
1.14646
1.14646
1.14646
1.14646
1.14646
1.14646
1.14646
1.01203
1.01203
1.01203
1.01203
1.01203
1.01203
1.01203
1.01203
1.01203
1.01203
0.884223
0.884223
0.884222
0.884221
0.884221
0.884221
0.884222
0.884222
0.884223
0.884223
0.764456
0.764455
0.764454
0.764454
0.764454
0.764454
0.764454
0.764455
0.764456
0.764456
0.653824
0.653824
0.653823
0.653823
0.653822
0.653823
0.653823
0.653824
0.653825
0.653825
0.55309
0.55309
0.553089
0.553088
0.553088
0.553088
0.553089
0.55309
0.553091
0.553091
0.462673
0.462673
0.462672
0.462671
0.462671
0.462671
0.462672
0.462673
0.462674
0.462674
0.382668
0.382667
0.382666
0.382666
0.382666
0.382666
0.382667
0.382668
0.382669
0.382669
0.312877
0.312877
0.312876
0.312876
0.312876
0.312876
0.312877
0.312878
0.312879
0.312879
0.252857
0.252857
0.252856
0.252856
0.252856
0.252856
0.252857
0.252858
0.252859
0.252859
0.201965
0.201965
0.201965
0.201964
0.201964
0.201964
0.201965
0.201966
0.201967
0.201968
0.159418
0.159418
0.159417
0.159417
0.159417
0.159417
0.159418
0.159419
0.15942
0.15942
0.124343
0.124343
0.124342
0.124342
0.124342
0.124342
0.124343
0.124344
0.124345
0.124345
0.0958299
0.0958298
0.0958293
0.0958291
0.0958291
0.0958294
0.0958298
0.0958305
0.0958314
0.0958317
0.0729716
0.0729715
0.0729711
0.0729709
0.0729709
0.0729712
0.0729716
0.0729722
0.072973
0.0729732
0.0548987
0.0548986
0.0548983
0.0548982
0.0548982
0.0548984
0.0548988
0.0548993
0.0549
0.0549001
0.0408051
0.040805
0.0408048
0.0408047
0.0408047
0.0408049
0.0408052
0.0408056
0.0408062
0.0408063
0.0299642
0.0299642
0.029964
0.0299639
0.0299639
0.029964
0.0299643
0.0299646
0.0299651
0.0299652
0.0217382
0.0217382
0.021738
0.021738
0.021738
0.021738
0.0217382
0.0217385
0.0217388
0.0217389
0.0155804
0.0155804
0.0155802
0.0155802
0.0155801
0.0155802
0.0155803
0.0155805
0.0155807
0.0155808
0.0110324
0.0110324
0.0110323
0.0110322
0.0110321
0.0110321
0.0110321
0.0110322
0.0110323
0.0110323
0.00771806
0.00771801
0.00771788
0.00771776
0.00771763
0.00771751
0.00771738
0.00771729
0.00771727
0.0077172
0.00533455
0.00533449
0.00533434
0.00533416
0.00533392
0.00533363
0.00533329
0.00533295
0.00533267
0.00533245
0.00364293
0.00364285
0.00364265
0.00364237
0.00364198
0.00364143
0.00364073
0.00363993
0.00363918
0.00363867
0.00245797
0.00245786
0.0024576
0.00245718
0.00245653
0.00245558
0.00245428
0.00245266
0.002451
0.00244981
0.00163864
0.00163849
0.00163814
0.00163754
0.00163655
0.00163501
0.00163274
0.00162965
0.0016261
0.00162327
0.00107938
0.00107919
0.00107874
0.00107793
0.00107653
0.00107421
0.00107049
0.00106489
0.00105745
0.00105031
0.000702507
0.000702276
0.000701736
0.000700723
0.000698912
0.00069573
0.000690212
0.000680842
0.000665793
0.000646103
1.42827
1.42827
1.42827
1.42827
1.42827
1.42827
1.42827
1.42827
1.42827
1.42827
1.28584
1.28584
1.28584
1.28584
1.28584
1.28584
1.28584
1.28584
1.28584
1.28584
1.14646
1.14646
1.14646
1.14646
1.14646
1.14646
1.14646
1.14646
1.14646
1.14646
1.01203
1.01203
1.01203
1.01203
1.01203
1.01203
1.01203
1.01203
1.01203
1.01203
0.884223
0.884223
0.884222
0.884222
0.884222
0.884222
0.884222
0.884223
0.884224
0.884224
0.764456
0.764456
0.764455
0.764454
0.764454
0.764454
0.764455
0.764455
0.764456
0.764457
0.653825
0.653825
0.653824
0.653823
0.653823
0.653823
0.653824
0.653824
0.653826
0.653826
0.55309
0.55309
0.553089
0.553089
0.553089
0.553089
0.55309
0.55309
0.553092
0.553092
0.462673
0.462673
0.462672
0.462672
0.462671
0.462672
0.462672
0.462673
0.462675
0.462675
0.382668
0.382668
0.382667
0.382666
0.382666
0.382667
0.382667
0.382668
0.38267
0.38267
0.312878
0.312878
0.312877
0.312876
0.312876
0.312877
0.312877
0.312878
0.31288
0.31288
0.252858
0.252858
0.252857
0.252857
0.252857
0.252857
0.252857
0.252858
0.25286
0.25286
0.201966
0.201966
0.201965
0.201965
0.201965
0.201965
0.201966
0.201967
0.201968
0.201968
0.159418
0.159418
0.159418
0.159417
0.159417
0.159418
0.159418
0.159419
0.15942
0.159421
0.124343
0.124343
0.124343
0.124343
0.124343
0.124343
0.124343
0.124344
0.124345
0.124345
0.0958302
0.0958301
0.0958297
0.0958295
0.0958296
0.0958298
0.0958303
0.095831
0.0958319
0.0958321
0.0729718
0.0729718
0.0729714
0.0729713
0.0729713
0.0729716
0.072972
0.0729726
0.0729734
0.0729736
0.0548989
0.0548989
0.0548986
0.0548985
0.0548986
0.0548988
0.0548991
0.0548997
0.0549003
0.0549005
0.0408053
0.0408053
0.040805
0.040805
0.040805
0.0408052
0.0408055
0.0408059
0.0408065
0.0408066
0.0299644
0.0299644
0.0299642
0.0299641
0.0299641
0.0299643
0.0299645
0.0299649
0.0299653
0.0299654
0.0217384
0.0217383
0.0217382
0.0217381
0.0217382
0.0217383
0.0217384
0.0217387
0.0217391
0.0217391
0.0155805
0.0155805
0.0155804
0.0155803
0.0155803
0.0155804
0.0155805
0.0155806
0.0155809
0.0155809
0.0110325
0.0110325
0.0110324
0.0110323
0.0110323
0.0110322
0.0110322
0.0110323
0.0110324
0.0110325
0.00771813
0.00771809
0.00771797
0.00771786
0.00771774
0.00771761
0.00771749
0.0077174
0.00771737
0.0077173
0.00533461
0.00533455
0.00533441
0.00533423
0.005334
0.00533372
0.00533338
0.00533303
0.00533275
0.00533253
0.00364297
0.00364289
0.00364271
0.00364243
0.00364204
0.00364149
0.00364079
0.00363999
0.00363925
0.00363873
0.002458
0.00245789
0.00245764
0.00245722
0.00245658
0.00245563
0.00245432
0.00245271
0.00245105
0.00244985
0.00163866
0.00163851
0.00163817
0.00163757
0.00163659
0.00163505
0.00163277
0.00162968
0.00162613
0.00162331
0.0010794
0.00107921
0.00107876
0.00107795
0.00107655
0.00107423
0.00107051
0.00106491
0.00105747
0.00105033
0.000702521
0.00070229
0.000701751
0.000700739
0.000698928
0.000695747
0.00069023
0.000680859
0.00066581
0.000646119
1.42827
1.42827
1.42827
1.42827
1.42827
1.42827
1.42827
1.42827
1.42827
1.42827
1.28584
1.28584
1.28584
1.28584
1.28584
1.28584
1.28584
1.28584
1.28584
1.28584
1.14646
1.14646
1.14646
1.14646
1.14646
1.14646
1.14646
1.14646
1.14646
1.14646
1.01203
1.01203
1.01203
1.01203
1.01203
1.01203
1.01203
1.01203
1.01203
1.01203
0.884223
0.884224
0.884223
0.884222
0.884222
0.884222
0.884223
0.884223
0.884224
0.884224
0.764456
0.764456
0.764455
0.764455
0.764455
0.764455
0.764455
0.764456
0.764457
0.764457
0.653825
0.653825
0.653824
0.653824
0.653824
0.653824
0.653824
0.653825
0.653826
0.653827
0.553091
0.553091
0.55309
0.55309
0.55309
0.55309
0.55309
0.553091
0.553093
0.553093
0.462674
0.462674
0.462673
0.462672
0.462672
0.462673
0.462673
0.462674
0.462676
0.462676
0.382668
0.382668
0.382668
0.382667
0.382667
0.382668
0.382668
0.382669
0.382671
0.382671
0.312878
0.312878
0.312878
0.312877
0.312877
0.312878
0.312878
0.312879
0.312881
0.312881
0.252858
0.252858
0.252858
0.252857
0.252857
0.252858
0.252858
0.252859
0.252861
0.252861
0.201966
0.201966
0.201966
0.201966
0.201966
0.201966
0.201967
0.201968
0.201969
0.201969
0.159419
0.159419
0.159418
0.159418
0.159418
0.159419
0.159419
0.15942
0.159421
0.159421
0.124344
0.124344
0.124343
0.124343
0.124343
0.124344
0.124344
0.124345
0.124346
0.124346
0.0958306
0.0958306
0.0958303
0.0958302
0.0958303
0.0958305
0.095831
0.0958317
0.0958326
0.0958328
0.0729722
0.0729722
0.0729719
0.0729719
0.0729719
0.0729722
0.0729726
0.0729732
0.072974
0.0729742
0.0548993
0.0548993
0.0548991
0.054899
0.0548991
0.0548993
0.0548997
0.0549002
0.0549008
0.054901
0.0408056
0.0408056
0.0408054
0.0408054
0.0408054
0.0408056
0.0408059
0.0408064
0.0408069
0.040807
0.0299646
0.0299646
0.0299645
0.0299644
0.0299645
0.0299646
0.0299649
0.0299652
0.0299657
0.0299658
0.0217386
0.0217386
0.0217385
0.0217384
0.0217385
0.0217386
0.0217387
0.021739
0.0217393
0.0217394
0.0155807
0.0155807
0.0155806
0.0155805
0.0155805
0.0155806
0.0155807
0.0155809
0.0155811
0.0155812
0.0110327
0.0110326
0.0110325
0.0110325
0.0110324
0.0110324
0.0110324
0.0110325
0.0110326
0.0110326
0.00771823
0.00771821
0.0077181
0.00771799
0.00771788
0.00771776
0.00771764
0.00771754
0.00771751
0.00771744
0.00533469
0.00533464
0.00533451
0.00533434
0.00533411
0.00533383
0.00533349
0.00533314
0.00533286
0.00533264
0.00364303
0.00364296
0.00364278
0.00364251
0.00364212
0.00364158
0.00364087
0.00364007
0.00363933
0.00363881
0.00245805
0.00245794
0.00245769
0.00245728
0.00245664
0.00245569
0.00245439
0.00245277
0.00245111
0.00244991
0.0016387
0.00163855
0.00163821
0.00163761
0.00163663
0.00163509
0.00163282
0.00162973
0.00162618
0.00162335
0.00107942
0.00107923
0.00107879
0.00107798
0.00107659
0.00107427
0.00107055
0.00106495
0.0010575
0.00105036
0.000702538
0.00070231
0.000701772
0.000700762
0.000698952
0.000695771
0.000690253
0.000680882
0.000665831
0.000646139
1.42827
1.42827
1.42827
1.42827
1.42827
1.42827
1.42827
1.42827
1.42827
1.42827
1.28584
1.28584
1.28584
1.28584
1.28584
1.28584
1.28584
1.28584
1.28584
1.28584
1.14646
1.14646
1.14646
1.14646
1.14646
1.14646
1.14646
1.14646
1.14646
1.14646
1.01203
1.01203
1.01203
1.01203
1.01203
1.01203
1.01203
1.01203
1.01203
1.01203
0.884224
0.884224
0.884223
0.884223
0.884223
0.884223
0.884224
0.884224
0.884225
0.884225
0.764456
0.764457
0.764456
0.764456
0.764456
0.764456
0.764456
0.764457
0.764458
0.764458
0.653826
0.653826
0.653825
0.653825
0.653825
0.653825
0.653826
0.653826
0.653828
0.653828
0.553091
0.553092
0.553091
0.553091
0.553091
0.553091
0.553092
0.553093
0.553094
0.553094
0.462674
0.462674
0.462674
0.462674
0.462674
0.462674
0.462675
0.462676
0.462677
0.462677
0.382669
0.382669
0.382669
0.382669
0.382669
0.382669
0.38267
0.382671
0.382672
0.382672
0.312879
0.312879
0.312879
0.312879
0.312879
0.312879
0.31288
0.312881
0.312882
0.312882
0.252859
0.252859
0.252859
0.252859
0.252859
0.252859
0.25286
0.252861
0.252862
0.252862
0.201967
0.201967
0.201967
0.201967
0.201967
0.201967
0.201968
0.201969
0.20197
0.20197
0.159419
0.15942
0.159419
0.159419
0.159419
0.15942
0.15942
0.159421
0.159422
0.159422
0.124344
0.124345
0.124344
0.124344
0.124344
0.124345
0.124345
0.124346
0.124347
0.124347
0.0958311
0.0958313
0.0958311
0.095831
0.0958311
0.0958314
0.0958319
0.0958326
0.0958334
0.0958335
0.0729726
0.0729728
0.0729726
0.0729726
0.0729727
0.072973
0.0729734
0.072974
0.0729747
0.0729748
0.0548996
0.0548998
0.0548997
0.0548996
0.0548997
0.0549
0.0549003
0.0549008
0.0549014
0.0549015
0.0408059
0.040806
0.0408059
0.0408059
0.040806
0.0408062
0.0408065
0.0408069
0.0408074
0.0408075
0.0299649
0.029965
0.0299649
0.0299649
0.029965
0.0299651
0.0299654
0.0299657
0.0299661
0.0299661
0.0217388
0.0217389
0.0217388
0.0217388
0.0217388
0.0217389
0.0217391
0.0217394
0.0217397
0.0217397
0.0155809
0.0155809
0.0155809
0.0155808
0.0155808
0.0155809
0.015581
0.0155812
0.0155814
0.0155814
0.0110328
0.0110328
0.0110328
0.0110327
0.0110327
0.0110327
0.0110327
0.0110327
0.0110328
0.0110328
0.00771835
0.00771835
0.00771826
0.00771817
0.00771806
0.00771794
0.00771782
0.00771772
0.00771768
0.00771758
0.00533477
0.00533475
0.00533463
0.00533447
0.00533425
0.00533397
0.00533363
0.00533328
0.00533298
0.00533275
0.0036431
0.00364304
0.00364288
0.00364261
0.00364222
0.00364168
0.00364098
0.00364018
0.00363942
0.00363889
0.0024581
0.002458
0.00245776
0.00245736
0.00245672
0.00245577
0.00245447
0.00245285
0.00245118
0.00244997
0.00163873
0.0016386
0.00163826
0.00163767
0.00163669
0.00163515
0.00163287
0.00162978
0.00162623
0.00162339
0.00107945
0.00107927
0.00107883
0.00107802
0.00107663
0.00107431
0.00107059
0.00106498
0.00105754
0.0010504
0.000702558
0.000702333
0.000701799
0.00070079
0.000698981
0.0006958
0.000690282
0.000680909
0.000665857
0.000646161
1.42827
1.42827
1.42827
1.42827
1.42827
1.42827
1.42827
1.42827
1.42827
1.42827
1.28584
1.28584
1.28584
1.28584
1.28584
1.28584
1.28584
1.28584
1.28584
1.28584
1.14646
1.14646
1.14646
1.14646
1.14646
1.14646
1.14646
1.14646
1.14646
1.14646
1.01203
1.01203
1.01203
1.01203
1.01203
1.01203
1.01203
1.01203
1.01203
1.01203
0.884224
0.884224
0.884223
0.884223
0.884223
0.884223
0.884224
0.884224
0.884225
0.884225
0.764456
0.764457
0.764456
0.764456
0.764456
0.764456
0.764457
0.764457
0.764458
0.764458
0.653825
0.653826
0.653825
0.653825
0.653825
0.653825
0.653826
0.653827
0.653828
0.653827
0.553091
0.553092
0.553091
0.553091
0.553091
0.553091
0.553092
0.553093
0.553094
0.553094
0.462674
0.462674
0.462674
0.462674
0.462674
0.462674
0.462675
0.462676
0.462677
0.462677
0.382669
0.382669
0.382669
0.382669
0.382669
0.382669
0.38267
0.382671
0.382672
0.382672
0.312879
0.312879
0.312879
0.312879
0.312879
0.312879
0.31288
0.312881
0.312882
0.312882
0.252859
0.252859
0.252859
0.252859
0.252859
0.252859
0.25286
0.252861
0.252862
0.252862
0.201967
0.201967
0.201967
0.201967
0.201967
0.201968
0.201968
0.201969
0.20197
0.20197
0.159419
0.15942
0.159419
0.159419
0.15942
0.15942
0.159421
0.159421
0.159422
0.159422
0.124344
0.124345
0.124344
0.124344
0.124345
0.124345
0.124345
0.124346
0.124347
0.124347
0.0958311
0.0958313
0.0958312
0.0958312
0.0958314
0.0958317
0.0958321
0.0958328
0.0958335
0.0958332
0.0729727
0.0729728
0.0729728
0.0729728
0.0729729
0.0729732
0.0729736
0.0729742
0.0729748
0.0729746
0.0548997
0.0548998
0.0548998
0.0548998
0.0548999
0.0549002
0.0549005
0.054901
0.0549015
0.0549013
0.0408059
0.040806
0.040806
0.040806
0.0408061
0.0408063
0.0408066
0.040807
0.0408075
0.0408073
0.0299649
0.029965
0.029965
0.029965
0.0299651
0.0299652
0.0299655
0.0299658
0.0299662
0.029966
0.0217388
0.0217389
0.0217389
0.0217389
0.0217389
0.021739
0.0217392
0.0217395
0.0217397
0.0217396
0.0155809
0.0155809
0.0155809
0.0155809
0.0155809
0.015581
0.0155811
0.0155812
0.0155814
0.0155813
0.0110328
0.0110328
0.0110328
0.0110328
0.0110327
0.0110327
0.0110327
0.0110328
0.0110329
0.0110328
0.00771837
0.00771837
0.00771831
0.00771822
0.00771812
0.007718
0.00771788
0.00771777
0.00771771
0.00771754
0.00533479
0.00533477
0.00533467
0.00533451
0.0053343
0.00533401
0.00533367
0.00533331
0.00533301
0.00533272
0.00364312
0.00364306
0.0036429
0.00364264
0.00364226
0.00364171
0.00364101
0.0036402
0.00363944
0.00363887
0.00245811
0.00245802
0.00245778
0.00245738
0.00245674
0.0024558
0.00245449
0.00245287
0.00245119
0.00244995
0.00163874
0.00163861
0.00163827
0.00163768
0.00163671
0.00163517
0.00163289
0.0016298
0.00162624
0.00162338
0.00107946
0.00107927
0.00107884
0.00107803
0.00107664
0.00107432
0.0010706
0.001065
0.00105755
0.00105039
0.000702563
0.000702339
0.000701807
0.000700799
0.000698991
0.00069581
0.000690291
0.000680918
0.000665862
0.000646155
0.000451762
0.000451509
0.00045091
0.000449764
0.000447666
0.000443848
0.000436829
0.000423543
0.000396814
0.000336497
0.000287046
0.00028679
0.000286185
0.000285025
0.000282901
0.000279053
0.00027207
0.000259307
0.000235836
0.000193281
0.000180212
0.000179974
0.000179415
0.000178356
0.00017645
0.000173088
0.000167241
0.000157246
0.000140704
0.000115166
0.000111794
0.000111589
0.000111114
0.000110229