/*--------------------------------*- C++ -*----------------------------------*\
| =========                 |                                                 |
| \\      /  F ield         | OpenFOAM: The Open Source CFD Toolbox           |
|  \\    /   O peration     | Version:  v1812                                 |
|   \\  /    A nd           | Web:      www.OpenFOAM.com                      |
|    \\/     M anipulation  |                                                 |
\*---------------------------------------------------------------------------*/
FoamFile
{
    version     2.0;
    format      ascii;
    class       surfaceScalarField;
    location    "100";
    object      phi;
}
// * * * * * * * * * * * * * * * * * * * * * * * * * * * * * * * * * * * * * //

dimensions      [0 3 -1 0 0 0 0];
oriented        oriented;


internalField   nonuniform List<scalar> 
1890
(
0.0092501688
0.00074983119
0.0082910045
0.00095916432
0.007362155
0.00092884952
0.0065322493
0.00082990566
0.0058250505
0.00070719881
0.0052477518
0.00057729867
0.0047933609
0.00045439097
0.0044450115
0.00034834934
0.0041822267
0.00026278481
0.0039852748
0.00019695192
0.0038371609
0.00014811388
0.0037244018
0.00011275911
0.0036367613
8.7640597e-05
0.0035668215
6.99398e-05
0.0035093761
5.744543e-05
0.0034608583
4.8517716e-05
0.0034188677
4.1990501e-05
0.0033818045
3.7063015e-05
0.0033486031
3.3201394e-05
0.003318545
3.0058219e-05
0.0032911338
2.7411494e-05
0.0032660131
2.5120921e-05
0.0032429152
2.3097961e-05
0.003221629
2.1286037e-05
0.0032019807
1.9647987e-05
0.003183822
1.8158323e-05
0.0031670233
1.6798554e-05
0.003151469
1.5554416e-05
0.0031370551
1.441418e-05
0.0031236878
1.3367716e-05
0.0031112819
1.2406027e-05
0.0030997609
1.152106e-05
0.003089055
1.0705656e-05
0.0030791013
9.9534817e-06
0.0030698422
9.2589252e-06
0.0030612252
8.6169691e-06
0.0030532022
8.0230704e-06
0.0030457292
7.4731028e-06
0.0030387659
6.963315e-06
0.0030322757
6.4903272e-06
0.0030262246
6.0511018e-06
0.0030205817
5.6429225e-06
0.0030153183
5.2633374e-06
0.0030104081
4.9101347e-06
0.0030058268
4.5813008e-06
0.0030015518
4.2750228e-06
0.0029975621
3.9896882e-06
0.0029938384
3.7238785e-06
0.0029903621
3.4763987e-06
0.0029871162
3.2461939e-06
0.002984084
3.0323893e-06
0.0029812502
2.8340897e-06
0.0029786001
2.6504372e-06
0.00297612
2.4803271e-06
0.0029737977
2.3225408e-06
0.0029716223
2.1754749e-06
0.002969585
2.0374005e-06
0.0029676787
1.9062742e-06
0.0029658984
1.7801363e-06
0.0029642412
1.6569834e-06
0.0029627057
1.5352668e-06
0.0029612917
1.4136829e-06
0.0029599997
1.291735e-06
0.0029588302
1.1692394e-06
0.002957783
1.0470126e-06
0.0029568569
9.2589429e-07
0.002956049
8.0775741e-07
0.002955355
6.9386689e-07
0.0029547684
5.8655236e-07
0.0029542815
4.8669161e-07
0.0029538848
3.9649516e-07
0.0029535688
3.1576347e-07
0.0029533222
2.4634598e-07
0.0029531352
1.8657577e-07
0.0029529967
1.3815585e-07
0.0029528985
9.7823098e-08
0.0029528304
6.7744646e-08
0.0029527869
4.298798e-08
0.0029527595
2.705112e-08
0.0029527461
1.3081062e-08
0.0029527389
6.9297951e-09
0.0029527394
-7.8495828e-10
0.0029527399
-7.0128192e-10
0.0029527454
-5.7640966e-09
0.0029527472
-1.7974317e-09
0.0029527537
-6.6862484e-09
0.0029527537
-8.3661196e-11
0.0029527598
-6.1712102e-09
0.0029527573
2.4866519e-09
0.0029527622
-4.9201757e-09
0.0029527571
5.1149357e-09
0.0029527587
-1.6820151e-09
0.002952751
7.594327e-09
0.002952743
7.4620162e-09
0.0029527332
9.5110803e-09
0.0029527043
2.8932557e-08
0.0029527026
1.9598575e-09
0.002952658
4.5246186e-08
0.0029527554
-9.7183055e-08
-8.3969654e-08
0.010379776
0.00037005492
0.010574967
0.00076397368
0.01062758
0.00087623601
0.01056664
0.00089084618
0.010429447
0.00084439178
0.010247193
0.00075955213
0.010042592
0.00065899279
0.009832618
0.00055832291
0.0096291833
0.00046621955
0.0094394518
0.00038668342
0.0092669477
0.00032061796
0.00911256
0.0002671468
0.008975635
0.00022456565
0.0088546744
0.00019090047
0.0087478447
0.00016427515
0.0086532849
0.00014307745
0.0085692703
0.00012600498
0.0084942838
0.00011204943
0.0084270322
0.00010045305
0.008366433
9.0657428e-05
0.0083115891
8.2255608e-05
0.0082617581
7.4952029e-05
0.008216325
6.8531134e-05
0.008174777
6.2833943e-05
0.0081366835
5.7741222e-05
0.0081016799
5.3161723e-05
0.0080694543
4.9024097e-05
0.0080397375
4.5271309e-05
0.0080122951
4.1856744e-05
0.0079869215
3.8741504e-05
0.0079634351
3.5892578e-05
0.0079416745
3.3281631e-05
0.0079214958
3.0884198e-05
0.0079027701
2.8679067e-05
0.0078853812
2.6647755e-05
0.0078692241
2.4774048e-05
0.0078542036
2.3043607e-05
0.0078402331
2.1443676e-05
0.0078272336
1.9962856e-05
0.007815133
1.859095e-05
0.0078038653
1.7318808e-05
0.00779337
1.6138223e-05
0.0077835915
1.5041799e-05
0.0077744787
1.4022893e-05
0.0077659845
1.3075537e-05
0.0077580651
1.2194435e-05
0.0077506799
1.1374912e-05
0.0077437909
1.0612888e-05
0.0077373626
9.9047773e-06
0.0077313616
9.2473174e-06
0.0077257567
8.6373967e-06
0.0077205193
8.0717337e-06
0.0077156231
7.5467488e-06
0.0077110454
7.0582124e-06
0.0077067666
6.6014016e-06
0.0077027713
6.170863e-06
0.0076990477
5.7610149e-06
0.0076955879
5.3660275e-06
0.0076923872
4.9808282e-06
0.0076894431
4.600891e-06
0.0076867548
4.2234285e-06
0.0076843215
3.84676e-06
0.0076821416
3.4714966e-06
0.0076802115
3.099211e-06
0.0076785247
2.733666e-06
0.0076770718
2.3786459e-06
0.0076758398
2.039594e-06
0.007674813
1.7205214e-06
0.0076739728
1.426679e-06
0.007673299
1.1603166e-06
0.0076727702
9.2517394e-07
0.0076723653
7.2050062e-07
0.0076720631
5.4830733e-07
0.0076718449
4.0454172e-07
0.0076716925
2.9035692e-07
0.0076715914
1.986871e-07
0.0076715275
1.3141316e-07
0.0076714916
7.8730484e-08
0.0076714733
4.5151265e-08
0.0076714684
1.7832112e-08
0.0076714692
5.9739752e-09
0.0076714758
-7.5653416e-09
0.0076714816
-6.5433989e-09
0.0076714906
-1.4851691e-08
0.0076714949
-6.184588e-09
0.0076715032
-1.4979266e-08
0.0076715038
-7.3392758e-10
0.0076715112
-1.3638475e-08
0.0076715072
6.4719138e-09
0.0076715149
-1.2621288e-08
0.007671505
1.509327e-08
0.0076715135
-1.0235645e-08
0.0076714938
2.7218658e-08
0.0076715005
5.8492287e-10
0.0076714612
4.8648662e-08
0.007671452
3.8138198e-08
0.007671362
9.2177151e-08
0.0076712689
1.3867329e-07
0.0076709903
1.8145681e-07
3.3352065e-07
0.010194547
0.00017550777
0.010510297
0.00044822425
0.010823883
0.00056264936
0.011103868
0.00061086184
0.011333741
0.00061451861
0.011509103
0.00058418988
0.011633657
0.0005344385
0.011714988
0.00047699172
0.011761891
0.00041931749
0.011782797
0.00036577672
0.011784951
0.00031846406
0.011774171
0.00027792662
0.011754925
0.00024381241
0.011730492
0.0002153331
0.011703199
0.00019156787
0.011674643
0.00017163334
0.011645887
0.00015476124
0.011617615
0.00014032181
0.011590249
0.00012781824
0.011564039
0.00011686793
0.011539115
0.0001071801
0.011515532
9.853463e-05
0.011493299
9.0764171e-05
0.011472393
8.3739989e-05
0.011452773
7.7361387e-05
0.011434386
7.1548042e-05
0.011417176
6.62346e-05
0.01140108
6.1366842e-05
0.011386038
5.6898913e-05
0.011371988
5.2791359e-05
0.011358871
4.9009746e-05
0.011346629
4.5523751e-05
0.011335207
4.2306545e-05
0.011324551
3.9334316e-05
0.011314613
3.6585868e-05
0.011305345
3.4042231e-05
0.011296702
3.1686343e-05
0.011288643
2.9502787e-05
0.011281129
2.7477585e-05
0.011274121
2.5598057e-05
0.011267588
2.3852679e-05
0.011261495
2.2230985e-05
0.011255813
2.072347e-05
0.011250514
1.9321533e-05
0.011245573
1.8017441e-05
0.011240963
1.6804285e-05
0.011236662
1.567595e-05
0.011232648
1.4626968e-05
0.0112289
1.3652395e-05
0.0112254
1.2747474e-05
0.01122213
1.1907428e-05
0.011219075
1.1127015e-05
0.011216221
1.040043e-05
0.011213558
9.7209806e-06
0.011211079
9.0813669e-06
0.011208776
8.4736569e-06
0.011206647
7.8900327e-06
0.01120469
7.3229909e-06
0.011202904
6.766385e-06
0.011201289
6.2154854e-06
0.011199845
5.6680143e-06
0.011198568
5.1236161e-06
0.011197455
4.5847226e-06
0.011196499
4.0551357e-06
0.011195691
3.5409208e-06
0.011195022
3.0480186e-06
0.011194478
2.5837181e-06
0.011194045
2.1532761e-06
0.011193709
1.762733e-06
0.011193455
1.4143096e-06
0.011193269
1.1114167e-06
0.011193137
8.5213581e-07
0.011193048
6.3741162e-07
0.011192991
4.613016e-07
0.011192957
3.2374492e-07
0.011192941
2.1546409e-07
0.011192934
1.3756703e-07
0.011192935
7.7865521e-08
0.011192939
4.1075245e-08
0.011192945
1.1544227e-08
0.011192951
2.6311152e-10
0.011192957
-1.3934783e-08
0.011192961
-1.043033e-08
0.011192966
-1.9943075e-08
0.011192967
-7.2702892e-09
0.011192972
-1.9420088e-08
0.01119297
1.2906074e-09
0.011192975
-1.9005524e-08
0.011192969
1.2391404e-08
0.011192978
-2.1143149e-08
0.011192966
2.6985686e-08
0.01119298
-2.4784731e-08
0.011192958
4.9465385e-08
0.011192981
-2.2331007e-08
0.011192938
9.0933543e-08
0.011192962
1.4874601e-08
0.011192868
1.8639195e-07
0.011192814
1.9278045e-07
0.011192531
4.6441631e-07
8.3539459e-07
0.010101125
7.4383135e-05
0.010347883
0.00020146599
0.010645913
0.00026461963
0.010960847
0.00029592755
0.011269219
0.00030614635
0.011554366
0.00029904323
0.011807917
0.00028088739
0.012027601
0.00025730764
0.012214837
0.00023208139
0.012373018
0.00020759574
0.012506297
0.00018518556
0.012618823
0.00016540055
0.012714342
0.0001482932
0.012796031
0.00013364393
0.012866483
0.00012111608
0.012927765
0.00011035161
0.012981504
0.00010102172
0.013028978
9.2848231e-05
0.013071188
8.5607734e-05
0.013108929
7.9126728e-05
0.013142836
7.327317e-05
0.013173424
6.7947453e-05
0.013201114
6.3074277e-05
0.013226257
5.8596026e-05
0.013249151
5.4467716e-05
0.013270046
5.0653333e-05
0.013289157
4.7123293e-05
0.013306671
4.3852639e-05
0.01332275
4.0819803e-05
0.013337536
3.8005724e-05
0.013351153
3.5393273e-05
0.013363709
3.2966918e-05
0.013375303
3.0712501e-05
0.013386021
2.8617111e-05
0.013395937
2.6668942e-05
0.013405122
2.4857165e-05
0.013413637
2.317181e-05
0.013421536
2.1603668e-05
0.01342887
2.014422e-05
0.013435682
1.8785591e-05
0.013442014
1.7520501e-05
0.013447903
1.6342236e-05
0.013453382
1.5244626e-05
0.013458481
1.4222029e-05
0.013463229
1.3269335e-05
0.013467652
1.2381941e-05
0.013471772
1.1555722e-05
0.013475612
1.0786926e-05
0.013479192
1.0072048e-05
0.013482532
9.407605e-06
0.01348565
8.7899457e-06
0.013488562
8.2149992e-06
0.013491284
7.6781833e-06
0.013493831
7.1742976e-06
0.013496214
6.6977263e-06
0.013498446
6.2425498e-06
0.013500532
5.8031019e-06
0.013502481
5.3741623e-06
0.013504296
4.9517275e-06
0.013505978
4.5329802e-06
0.013507529
4.1170489e-06
0.013508948
3.704453e-06
0.013510235
3.2977441e-06
0.01351139
2.9003011e-06
0.013512414
2.5169918e-06
0.01351331
2.1523616e-06
0.013514082
1.8116831e-06
0.013514737
1.4985942e-06
0.013515282
1.2170355e-06
0.013515729
9.6818986e-07
0.013516086
7.538648e-07
0.013516366
5.7221427e-07
0.01351658
4.2325437e-07
0.013516739
3.0237234e-07
0.013516854
2.0900418e-07
0.013516933
1.3633012e-07
0.013516986
8.4851325e-08
0.013517018
4.5780307e-08
0.013517036
2.2492634e-08
0.013517044
3.6344137e-09
0.013517047
-2.4877324e-09
0.013517045
-1.164497e-08
0.013517042
-7.8078691e-09
0.013517037
-1.4761125e-08
0.013517034
-4.3216501e-09
0.013517029
-1.4431189e-08
0.013517028
2.6776726e-09
0.013517024
-1.5127788e-08
0.013517024
1.1796101e-08
0.013517022
-1.8666984e-08
0.013517025
2.4275258e-08
0.013517025
-2.4664973e-08
0.01351703
4.3699249e-08
0.013517036
-2.7825914e-08
0.013517048
7.8530847e-08
0.013517068
-4.4125368e-09
0.013517096
1.5804282e-07
0.013517144
1.4516138e-07
0.013517202
4.0609038e-07
7.5162108e-07
0.010074383
1.9354723e-13
0.010275849
2.4306729e-13
0.010540469
5.735405e-13
0.010836396
1.0293362e-12
0.011142543
1.3189492e-12
0.011441586
1.386043e-12
0.011722473
1.0993296e-12
0.011979781
5.4086334e-13
0.012211862
-1.1060129e-13
0.012419458
-8.5843938e-13
0.012604644
-8.224634e-13
0.012770044
-7.0767159e-14
0.012918337
1.6387885e-12
0.013051981
4.1705655e-12
0.013173097
5.4497018e-12
0.013283449
5.1490447e-12
0.013384471
2.1896954e-12
0.013477319
-2.7232099e-12
0.013562926
-5.2873278e-12
0.013642053
-4.9512569e-12
0.013715327
6.3306476e-13
0.013783274
8.6072045e-12
0.013846348
1.3783049e-11
0.013904944
1.5910392e-11
0.013959412
1.2308249e-11
0.014010065
8.3019452e-12
0.014057188
6.7607655e-12
0.014101041
8.8936199e-12
0.014141861
1.5828852e-11
0.014179867
2.3823079e-11
0.01421526
3.2058595e-11
0.014248227
3.9765042e-11
0.014278939
4.6200535e-11
0.014307556
5.3479124e-11
0.014334225
5.9820391e-11
0.014359082
6.6815947e-11
0.014382254
7.2205381e-11
0.014403858
7.7276282e-11
0.014424002
8.0634495e-11
0.014442787
8.3583223e-11
0.014460308
8.5412829e-11
0.01447665
8.5194879e-11
0.014491894
8.3636333e-11
0.014506116
7.5612144e-11
0.014519386
6.5317822e-11
0.014531767
4.2328514e-11
0.014543323
1.6129898e-11
0.01455411
-2.8933346e-11
0.014564182
-7.7762826e-11
0.01457359
-1.4709047e-10
0.01458238
-2.1850844e-10
0.014590595
-3.053015e-10
0.014598274
-3.9126411e-10
0.014605449
-4.8113976e-10
0.014612147
-5.6688103e-10
0.01461839
-6.4122287e-10
0.014624194
-7.093133e-10
0.014629569
-7.5363655e-10
0.014634522
-7.9355696e-10
0.014639055
-8.0382819e-10
0.014643173
-8.1333835e-10
0.014646879
-7.9486988e-10
0.014650177
-7.8077866e-10
0.014653078
-7.4704532e-10
0.014655596
-7.2107933e-10
0.014657749
-6.8428075e-10
0.014659561
-6.5535375e-10
0.014661061
-6.2315852e-10
0.014662278
-5.9647964e-10
0.014663247
-5.6910698e-10
0.014664002
-5.4315442e-10
0.014664574
-5.1577562e-10
0.014664998
-4.8699862e-10
0.014665301
-4.53783e-10
0.014665511
-4.187898e-10
0.014665647
-3.7670069e-10
0.014665733
-3.3560895e-10
0.014665779
-2.8581626e-10
0.014665801
-2.4227799e-10
0.014665805
-1.9034183e-10
0.014665803
-1.5096475e-10
0.014665792
-1.0403286e-10
0.014665784
-7.5798676e-11
0.014665769
-4.1547214e-11
0.014665765
-3.0407705e-11
0.014665751
-1.1246389e-11
0.014665753
-1.6045153e-11
0.014665738
-5.1185604e-12
0.01466575
-1.6421575e-11
0.014665731
1.0247734e-12
0.014665756
-6.8487068e-12
0.014665731
2.6573465e-11
0.014665775
2.7229019e-11
0.014665747
7.9114579e-11
0.014665825
8.4743693e-11
0.014665821
1.0916841e-10
0.014665979
1.1451343e-10
0.014666124
4.0064927e-11
0.01466653
-9.0486688e-12
-1.510176e-11
0.010074383
-7.4383134e-05
0.010275849
-0.00020146599
0.010540469
-0.00026461962
0.010836396
-0.00029592755
0.011142543
-0.00030614635
0.011441586
-0.00029904322
0.011722473
-0.00028088739
0.011979781
-0.00025730764
0.012211862
-0.00023208139
0.012419458
-0.00020759574
0.012604644
-0.00018518556
0.012770044
-0.00016540055
0.012918337
-0.0001482932
0.013051981
-0.00013364392
0.013173097
-0.00012111607
0.013283449
-0.0001103516
0.013384471
-0.00010102171
0.013477319
-9.2848234e-05
0.013562927
-8.5607742e-05
0.013642053
-7.9126735e-05
0.013715327
-7.327317e-05
0.013783274
-6.7947444e-05
0.013846348
-6.3074258e-05
0.013904944
-5.8596002e-05
0.013959412
-5.4467692e-05
0.014010065
-5.0653311e-05
0.014057188
-4.7123273e-05
0.014101041
-4.3852618e-05
0.014141861
-4.0819775e-05
0.014179867
-3.8005686e-05
0.01421526
-3.5393221e-05
0.014248227
-3.2966848e-05
0.014278939
-3.0712414e-05
0.014307556
-2.8617008e-05
0.014334225
-2.6668826e-05
0.014359082
-2.4857038e-05
0.014382254
-2.3171674e-05
0.014403858
-2.1603523e-05
0.014424002
-2.0144068e-05
0.014442787
-1.8785429e-05
0.014460308
-1.7520332e-05
0.01447665
-1.6342061e-05
0.014491894
-1.524445e-05
0.014506116
-1.4221861e-05
0.014519386
-1.3269187e-05
0.014531767
-1.2381828e-05
0.014543323
-1.1555662e-05
0.01455411
-1.0786943e-05
0.014564182
-1.0072163e-05
0.01457359
-9.4078459e-06
0.01458238
-8.7903268e-06
0.014590595
-8.2155427e-06
0.014598273
-7.6788914e-06
0.014605448
-7.1751778e-06
0.014612146
-6.6987644e-06
0.014618389
-6.2437344e-06
0.014624193
-5.8044049e-06
0.014629568
-5.375559e-06
0.014634521
-4.9531857e-06
0.014639054
-4.534472e-06
0.014643172
-4.1185458e-06
0.014646877
-3.7059331e-06
0.014650176
-3.2991903e-06
0.014653077
-2.9017037e-06
0.014655595
-2.5183448e-06
0.014657748
-2.1536645e-06
0.01465956
-1.8129362e-06
0.01466106
-1.4998024e-06
0.014662277
-1.2181996e-06
0.014663246
-9.6931258e-07
0.014664001
-7.5494291e-07
0.014664573
-5.7324566e-07
0.014664997
-4.2423166e-07
0.0146653
-3.0328829e-07
0.01466551
-2.0984939e-07
0.014665646
-1.3709636e-07
0.014665732
-8.5531032e-08
0.014665778
-4.6368068e-08
0.014665801
-2.2985709e-08
0.014665805
-4.0347737e-09
0.014665802
2.1771735e-09
0.014665791
1.1413418e-08
0.014665783
7.6480069e-09
0.014665769
1.4651326e-08
0.014665765
4.2552504e-09
0.01466575
1.4379735e-08
0.014665753
-2.7101495e-09
0.014665738
1.5085546e-08
0.01466575
-1.1822767e-08
0.014665731
1.8631103e-08
0.014665756
-2.4274887e-08
0.014665731
2.4671857e-08
0.014665775
-4.3623008e-08
0.014665747
2.7910394e-08
0.014665825
-7.8359806e-08
0.014665821
4.5771587e-09
0.014665979
-1.5792233e-07
0.014666124
-1.4509918e-07
0.01466653
-4.0614131e-07
-7.5168941e-07
0.010101125
-0.00017550777
0.010347883
-0.00044822425
0.010645913
-0.00056264936
0.010960847
-0.00061086184
0.011269219
-0.0006145186
0.011554366
-0.00058418988
0.011807917
-0.0005344385
0.012027601
-0.00047699172
0.012214837
-0.00041931749
0.012373018
-0.00036577672
0.012506297
-0.00031846407
0.012618823
-0.00027792662
0.012714342
-0.00024381241
0.012796031
-0.0002153331
0.012866483
-0.00019156786
0.012927765
-0.00017163333
0.012981504
-0.00015476123
0.013028978
-0.0001403218
0.013071188
-0.00012781824
0.013108929
-0.00011686794
0.013142836
-0.00010718011
0.013173424
-9.8534639e-05
0.013201114
-9.0764165e-05
0.013226257
-8.3739969e-05
0.013249151
-7.7361356e-05
0.013270046
-7.1548011e-05
0.013289157
-6.6234575e-05
0.013306671
-6.1366822e-05
0.01332275
-5.6898896e-05
0.013337536
-5.2791336e-05
0.013351153
-4.9009712e-05
0.01336371
-4.5523701e-05
0.013375304
-4.2306478e-05
0.013386021
-3.9334237e-05
0.013395938
-3.6585778e-05
0.013405123
-3.4042133e-05
0.013413637
-3.1686237e-05
0.013421536
-2.950267e-05
0.01342887
-2.7477457e-05
0.013435682
-2.5597913e-05
0.013442015
-2.3852521e-05
0.013447903
-2.2230809e-05
0.013453382
-2.0723283e-05
0.013458481
-1.9321337e-05
0.01346323
-1.8017251e-05
0.013467652
-1.6804111e-05
0.013471772
-1.5675814e-05
0.013475612
-1.4626887e-05
0.013479192
-1.3652396e-05
0.013482531
-1.2747576e-05
0.013485649
-1.1907654e-05
0.01348856
-1.1127376e-05
0.013491282
-1.0400936e-05
0.013493829
-9.7216313e-06
0.013496212
-9.0821535e-06
0.013498443
-8.4745649e-06
0.01350053
-7.8910382e-06
0.013502479
-7.3240745e-06
0.013504293
-6.7675164e-06
0.013505975
-6.2166509e-06
0.013507526
-5.6691859e-06
0.013508945
-5.1247926e-06
0.013510232
-4.5858823e-06
0.013511387
-4.0562919e-06
0.013512411
-3.5420548e-06
0.013513307
-3.0491538e-06
0.013514079
-2.5848321e-06
0.013514733
-2.1543973e-06
0.013515279
-1.7638284e-06
0.013515725
-1.4154096e-06
0.013516083
-1.1124751e-06
0.013516363
-8.5318503e-07
0.013516577
-6.3839372e-07
0.013516736
-4.6225402e-07
0.013516851
-3.2460262e-07
0.01351693
-2.16273e-07
0.013516983
-1.3825978e-07
0.013517016
-7.8498323e-08
0.013517034
-4.1582956e-08
0.013517042
-1.1993413e-08
0.013517045
-5.9263604e-10
0.013517043
1.3649945e-08
0.013517041
1.0245599e-08
0.013517036
1.9778054e-08
0.013517033
7.1768678e-09
0.013517028
1.931731e-08
0.013517027
-1.3480864e-09
0.013517023
1.8918985e-08
0.013517024
-1.2439054e-08
0.013517021
2.1070252e-08
0.013517024
-2.700257e-08
0.013517024
2.4764405e-08
0.01351703
-4.9419935e-08
0.013517036
2.2382361e-08
0.013517048
-9.0872992e-08
0.013517067
-1.4849698e-08
0.013517096
-1.864316e-07
0.013517144
-1.9287901e-07
0.013517202
-4.6453405e-07
-8.355236e-07
0.010194547
-0.00037005492
0.010510297
-0.00076397368
0.010823883
-0.00087623601
0.011103868
-0.00089084618
0.011333741
-0.00084439178
0.011509103
-0.00075955213
0.011633657
-0.00065899279
0.011714988
-0.00055832291
0.011761891
-0.00046621955
0.011782797
-0.00038668342
0.011784951
-0.00032061796
0.011774171
-0.00026714681
0.011754925
-0.00022456566
0.011730492
-0.00019090047
0.011703199
-0.00016427514
0.011674643
-0.00014307744
0.011645887
-0.00012600496
0.011617615
-0.00011204942
0.011590249
-0.00010045305
0.011564039
-9.0657437e-05
0.011539115
-8.2255626e-05
0.011515532
-7.4952047e-05
0.011493299
-6.8531138e-05
0.011472393
-6.2833936e-05
0.011452773
-5.7741203e-05
0.011434386
-5.3161704e-05
0.011417176
-4.9024082e-05
0.01140108
-4.5271295e-05
0.011386038
-4.185673e-05
0.011371988
-3.8741483e-05
0.011358871
-3.5892549e-05
0.011346629
-3.3281597e-05
0.011335207
-3.0884161e-05
0.011324552
-2.8679031e-05
0.011314613
-2.6647719e-05
0.011305345
-2.4774006e-05
0.011296703
-2.3043555e-05
0.011288644
-2.1443608e-05
0.011281129
-1.9962772e-05
0.011274122
-1.8590843e-05
0.011267588
-1.7318683e-05
0.011261495
-1.6138074e-05
0.011255814
-1.5041631e-05
0.011250515
-1.4022702e-05
0.011245573
-1.3075337e-05
0.011240963
-1.2194223e-05
0.011236662
-1.1374714e-05
0.011232647
-1.0612709e-05
0.0112289
-9.9046487e-06
0.011225399
-9.2472495e-06
0.011222129
-8.637415e-06
0.011219073
-8.0718534e-06
0.011216219
-7.5469676e-06
0.011213556
-7.0585538e-06
0.011211076
-6.6018261e-06
0.011208773
-6.1714068e-06
0.011206644
-5.7616038e-06
0.011204686
-5.3667118e-06
0.011202901
-4.9815169e-06
0.011201286
-4.6016454e-06
0.011199841
-4.2241657e-06
0.011198564
-3.8475406e-06
0.01119745
-3.4722643e-06
0.011196494
-3.1000091e-06
0.011195687
-2.734474e-06
0.011195017
-2.3794769e-06
0.011194473
-2.0404605e-06
0.01119404
-1.7213988e-06
0.011193704
-1.4276026e-06
0.01119345
-1.1612304e-06
0.011193264
-9.2612567e-07
0.011193132
-7.2141429e-07
0.011193043
-5.4923363e-07
0.011192987
-4.0540082e-07
0.011192953
-2.9119876e-07
0.011192937
-1.9943914e-07
0.011192931
-1.3212189e-07
0.011192932
-7.9338767e-08
0.011192936
-4.5702487e-08
0.011192942
-1.8284704e-08
0.011192948
-6.3682032e-09
0.011192955
7.2561769e-09
0.011192959
6.2805663e-09
0.011192964
1.4652717e-08
0.011192965
6.0119101e-09
0.01119297
1.4845268e-08
0.011192968
6.0531179e-10
0.011192974
1.3531437e-08
0.011192968
-6.5804881e-09
0.011192977
1.2536878e-08
0.011192965
-1.5165791e-08
0.01119298
1.0217432e-08
0.011192957
-2.7224972e-08
0.01119298
-5.4291181e-10
0.011192938
-4.8724096e-08
0.011192961
-3.8260251e-08
0.011192867
-9.2369007e-08
0.011192813
-1.3879158e-07
0.011192531
-1.8158249e-07
-3.3360931e-07
0.010379776
-0.00074983119
0.010574967
-0.00095916431
0.01062758
-0.00092884952
0.01056664
-0.00082990566
0.010429447
-0.00070719881
0.010247193
-0.00057729867
0.010042592
-0.00045439097
0.009832618
-0.00034834934
0.0096291833
-0.00026278482
0.0094394518
-0.00019695192
0.0092669477
-0.00014811389
0.0091125601
-0.00011275911
0.008975635
-8.7640597e-05
0.0088546744
-6.9939798e-05
0.0087478447
-5.7445428e-05
0.0086532849
-4.8517716e-05
0.0085692703
-4.19905e-05
0.0084942838
-3.7063011e-05
0.0084270322
-3.3201386e-05
0.0083664331
-3.0058207e-05
0.0083115892
-2.741148e-05
0.0082617582
-2.5120911e-05
0.008216325
-2.3097966e-05
0.008174777
-2.128606e-05
0.0081366835
-1.964803e-05
0.0081016799
-1.8158369e-05
0.0080694543
-1.679858e-05
0.0080397375
-1.5554406e-05
0.0080122952
-1.4414127e-05
0.0079869216
-1.336764e-05
0.0079634352
-1.2405956e-05
0.0079416746
-1.152102e-05
0.007921496
-1.0705662e-05
0.0079027703
-9.953521e-06
0.0078853814
-9.2589779e-06
0.0078692243
-8.6170071e-06
0.0078542039
-8.0230777e-06
0.0078402334
-7.4730747e-06
0.007827234
-6.9632595e-06
0.0078151335
-6.4902538e-06
0.0078038658
-6.0510241e-06
0.0077933706
-5.6428393e-06
0.0077835921
-5.2632521e-06
0.0077744793
-4.9100388e-06
0.007765985
-4.5811917e-06
0.0077580655
-4.2749023e-06
0.0077506801
-3.9895477e-06
0.007743791
-3.7237393e-06
0.0077373624
-3.4762447e-06
0.0077313611
-3.2460669e-06
0.007725756
-3.0322675e-06
0.0077205182
-2.8340183e-06
0.0077156218
-2.6503942e-06
0.0077110437
-2.4803426e-06
0.0077067647
-2.3226111e-06
0.0077027691
-2.1755976e-06
0.0076990453
-2.0375965e-06
0.0076955853
-1.9064972e-06
0.0076923843
-1.780434e-06
0.00768944
-1.6572792e-06
0.0076867515
-1.5356278e-06
0.0076843181
-1.4140227e-06
0.0076821379
-1.2921201e-06
0.0076802076
-1.1696009e-06
0.0076785206
-1.0474018e-06
0.0076770676
-9.262791e-07
0.0076758355
-8.0815698e-07
0.0076748086
-6.942877e-07
0.0076739682
-5.8697774e-07
0.0076732944
-4.8716011e-07
0.0076727656
-3.9695799e-07
0.0076723607
-3.1627595e-07
0.0076720586
-2.4683808e-07
0.0076718405
-1.8710781e-07
0.0076716883
-1.3865043e-07
0.0076715873
-9.8337355e-08
0.0076715237
-6.8205351e-08
0.0076714879
-4.3446664e-08
0.0076714699
-2.7445095e-08
0.0076714651
-1.3457115e-08
0.0076714662
-7.2376156e-09
0.0076714731
4.9993592e-10
0.007671479
4.8163023e-10
0.0076714883
5.5617901e-09
0.0076714928
1.652078e-09
0.0076715012
6.5452309e-09
0.0076715021
-1.1688561e-11
0.0076715097
6.0660468e-09
0.007671506
-2.5556889e-09
0.0076715139
4.8365668e-09
0.0076715041
-5.1494108e-09
0.0076715128
1.6285309e-09
0.0076714931
-7.6143086e-09
0.0076714997
-7.6078465e-09
0.0076714602
-9.6508801e-09
0.0076714509
-2.9094118e-08
0.007671361
-2.0142672e-09
0.007671268
-4.5149334e-08
0.0076709896
9.732794e-08
8.3998509e-08
0.0092501688
0.0082910045
0.007362155
0.0065322493
0.0058250505
0.0052477518
0.0047933609
0.0044450115
0.0041822267
0.0039852748
0.0038371609
0.0037244018
0.0036367613
0.0035668215
0.003509376
0.0034608582
0.0034188676
0.0033818046
0.0033486033
0.0033185452
0.0032911339
0.0032660131
0.0032429151
0.0032216288
0.0032019805
0.003183822
0.0031670234
0.0031514692
0.0031370553
0.0031236878
0.0031112819
0.0030997609
0.0030890551
0.0030791014
0.0030698423
0.0030612253
0.0030532022
0.0030457292
0.0030387661
0.0030322758
0.0030262248
0.0030205819
0.0030153186
0.0030104084
0.003005827
0.003001552
0.0029975623
0.0029938385
0.0029903621
0.0029871161
0.0029840839
0.00298125
0.0029785997
0.0029761195
0.0029737971
0.0029716217
0.0029695842
0.0029676778
0.0029658974
0.0029642401
0.0029627045
0.0029612904
0.0029599983
0.0029588288
0.0029577814
0.0029568553
0.0029560473
0.0029553532
0.0029547665
0.0029542796
0.0029538828
0.0029535668
0.0029533201
0.0029531333
0.0029529947
0.0029528966
0.0029528285
0.0029527852
0.0029527578
0.0029527445
0.0029527373
0.0029527379
0.0029527385
0.0029527442
0.0029527459
0.0029527526
0.0029527528
0.002952759
0.0029527566
0.0029527616
0.0029527566
0.0029527582
0.0029527503
0.0029527423
0.0029527324
0.0029527035
0.0029527021
0.0029526575
0.002952755
)
;

boundaryField
{
    top
    {
        type            calculated;
        value           uniform 0;
    }
    inlet
    {
        type            calculated;
        value           nonuniform List<scalar> 10(-0.01 -0.01 -0.01 -0.01 -0.01 -0.01 -0.01 -0.01 -0.01 -0.01);
    }
    outlet
    {
        type            calculated;
        value           nonuniform List<scalar> 10(0.0029528394 0.0076705729 0.011192029 0.013517286 0.014667282 0.014667282 0.013517286 0.011192029 0.0076705722 0.002952839);
    }
    bottom
    {
        type            calculated;
        value           uniform 0;
    }
    back
    {
        type            empty;
        value           nonuniform 0();
    }
    front
    {
        type            empty;
        value           nonuniform 0();
    }
}


// ************************************************************************* //
