/*--------------------------------*- C++ -*----------------------------------*\
| =========                 |                                                 |
| \\      /  F ield         | OpenFOAM: The Open Source CFD Toolbox           |
|  \\    /   O peration     | Version:  v1812                                 |
|   \\  /    A nd           | Web:      www.OpenFOAM.com                      |
|    \\/     M anipulation  |                                                 |
\*---------------------------------------------------------------------------*/
FoamFile
{
    version     2.0;
    format      ascii;
    class       volVectorField;
    location    "11.5";
    object      U;
}
// * * * * * * * * * * * * * * * * * * * * * * * * * * * * * * * * * * * * * //

dimensions      [0 1 -1 0 0 0 0];


internalField   nonuniform List<vector> 
1000
(
(0.91890839 0.035821913 0)
(0.86271384 0.062195638 0)
(0.7870597 0.06251009 0)
(0.69536033 0.054550395 0)
(0.61089745 0.044531651 0)
(0.54411592 0.034015971 0)
(0.49343012 0.02418754 0)
(0.45479413 0.01614423 0)
(0.42544582 0.010265786 0)
(0.40347313 0.0063041452 0)
(0.38715766 0.0037976293 0)
(0.3749622 0.0023103381 0)
(0.36566193 0.0014930149 0)
(0.35836272 0.0010851183 0)
(0.35244268 0.00090607251 0)
(0.34748201 0.00084105196 0)
(0.34320348 0.0008237243 0)
(0.33942726 0.00081931044 0)
(0.33603793 0.00081185185 0)
(0.33296114 0.00079580098 0)
(0.33014778 0.0007708112 0)
(0.32756384 0.00073870932 0)
(0.3251842 0.00070188932 0)
(0.32298902 0.00066256585 0)
(0.32096172 0.0006224999 0)
(0.31908785 0.00058295783 0)
(0.31735449 0.0005447719 0)
(0.31574995 0.00050843432 0)
(0.3142636 0.00047419153 0)
(0.31288574 0.00044212434 0)
(0.31160755 0.00041220906 0)
(0.31042101 0.00038436121 0)
(0.30931883 0.00035846465 0)
(0.30829438 0.00033439017 0)
(0.30734165 0.00031200679 0)
(0.30645515 0.0002911879 0)
(0.30562991 0.00027181467 0)
(0.30486136 0.00025377717 0)
(0.30414535 0.0002369746 0)
(0.30347806 0.0002213149 0)
(0.302856 0.00020671399 0)
(0.30227596 0.00019309515 0)
(0.30173496 0.00018038809 0)
(0.30123029 0.00016852839 0)
(0.30075942 0.00015745686 0)
(0.30032002 0.00014711893 0)
(0.29990993 0.00013746433 0)
(0.29952715 0.00012844655 0)
(0.29916983 0.00012002258 0)
(0.29883624 0.00011215261 0)
(0.29852478 0.0001047996 0)
(0.29823396 9.7929275e-05 0)
(0.29796241 9.1509577e-05 0)
(0.29770882 8.5510708e-05 0)
(0.29747201 7.9904893e-05 0)
(0.29725085 7.4666116e-05 0)
(0.29704429 6.9770271e-05 0)
(0.29685138 6.5194747e-05 0)
(0.29667119 6.0918556e-05 0)
(0.2965029 5.6922225e-05 0)
(0.29634571 5.3187427e-05 0)
(0.29619889 4.9697304e-05 0)
(0.29606175 4.6435834e-05 0)
(0.29593366 4.3388095e-05 0)
(0.29581401 4.0540093e-05 0)
(0.29570224 3.7878508e-05 0)
(0.29559784 3.5391181e-05 0)
(0.29550031 3.3066524e-05 0)
(0.29540922 3.0893991e-05 0)
(0.29532412 2.8863828e-05 0)
(0.29524463 2.696683e-05 0)
(0.29517038 2.5194554e-05 0)
(0.29510103 2.3538934e-05 0)
(0.29503624 2.1992106e-05 0)
(0.29497572 2.0547122e-05 0)
(0.29491919 1.9196529e-05 0)
(0.29486637 1.7934603e-05 0)
(0.29481704 1.6754747e-05 0)
(0.29477095 1.5652519e-05 0)
(0.2947279 1.4622087e-05 0)
(0.29468769 1.366036e-05 0)
(0.29465013 1.2761084e-05 0)
(0.29461504 1.1922912e-05 0)
(0.29458228 1.1137674e-05 0)
(0.29455166 1.0406777e-05 0)
(0.29452307 9.7192692e-06 0)
(0.29449635 9.0811731e-06 0)
(0.29447142 8.4775366e-06 0)
(0.2944481 7.9215056e-06 0)
(0.29442636 7.3910183e-06 0)
(0.29440603 6.9093937e-06 0)
(0.29438709 6.4432933e-06 0)
(0.29436937 6.0288978e-06 0)
(0.29435285 5.6218965e-06 0)
(0.29433746 5.267713e-06 0)
(0.29432294 4.9313417e-06 0)
(0.29430972 4.636726e-06 0)
(0.29429647 4.4550004e-06 0)
(0.29428589 4.3056023e-06 0)
(0.29427014 4.8556332e-06 0)
(1.0016583 0.05381943 0)
(1.0359761 0.10128444 0)
(1.0597199 0.11073663 0)
(1.0628947 0.10592201 0)
(1.0515569 0.096228727 0)
(1.0340529 0.083934061 0)
(1.0142795 0.070327063 0)
(0.99360703 0.056981334 0)
(0.97292576 0.04510748 0)
(0.95310739 0.03523675 0)
(0.93479538 0.02740165 0)
(0.91829012 0.021387227 0)
(0.90362379 0.016884498 0)
(0.89068067 0.013569709 0)
(0.87928175 0.011147749 0)
(0.86923242 0.0093736596 0)
(0.86034423 0.008056929 0)
(0.85244667 0.007057128 0)
(0.84539241 0.0062752384 0)
(0.83905793 0.0056438281 0)
(0.83334126 0.0051180901 0)
(0.82815884 0.0046686713 0)
(0.82344212 0.0042764165 0)
(0.81913467 0.0039287384 0)
(0.81518962 0.0036172037 0)
(0.81156765 0.003335971 0)
(0.80823544 0.0030808048 0)
(0.8051644 0.0028484696 0)
(0.80232979 0.0026363694 0)
(0.79970999 0.0024423381 0)
(0.79728597 0.0022645178 0)
(0.79504086 0.0021012887 0)
(0.79295963 0.0019512243 0)
(0.79102881 0.0018130625 0)
(0.78923628 0.0016856838 0)
(0.7875711 0.0015680934 0)
(0.78602338 0.0014594071 0)
(0.78458412 0.0013588372 0)
(0.78324511 0.0012656813 0)
(0.78199889 0.0011793119 0)
(0.7808386 0.0010991665 0)
(0.77975798 0.0010247399 0)
(0.77875127 0.0009555771 0)
(0.77781318 0.00089126679 0)
(0.77693881 0.00083143637 0)
(0.77612368 0.0007757471 0)
(0.77536363 0.00072389046 0)
(0.77465481 0.00067558452 0)
(0.77399367 0.0006305713 0)
(0.77337693 0.00058861417 0)
(0.77280153 0.00054949556 0)
(0.77226463 0.00051301534 0)
(0.77176363 0.00047898879 0)
(0.77129606 0.00044724535 0)
(0.77085967 0.00041762729 0)
(0.77045234 0.00038998836 0)
(0.77007212 0.00036419317 0)
(0.76971717 0.00034011589 0)
(0.7693858 0.00031763989 0)
(0.76907643 0.00029665691 0)
(0.76878759 0.00027706628 0)
(0.7685179 0.00025877475 0)
(0.76826608 0.00024169536 0)
(0.76803095 0.00022574717 0)
(0.76781139 0.00021085478 0)
(0.76760635 0.00019694741 0)
(0.76741488 0.00018395943 0)
(0.76723607 0.00017182917 0)
(0.76706909 0.00016049964 0)
(0.76691314 0.00014991766 0)
(0.76676749 0.00014003401 0)
(0.76663148 0.00013080267 0)
(0.76650445 0.00012218119 0)
(0.76638581 0.00011412874 0)
(0.766275 0.00010660863 0)
(0.76617151 9.9583691e-05 0)
(0.76607485 9.302271e-05 0)
(0.76598456 8.6891921e-05 0)
(0.76590023 8.1166159e-05 0)
(0.76582147 7.5814283e-05 0)
(0.7657479 7.0818125e-05 0)
(0.76567921 6.6146319e-05 0)
(0.76561503 6.1789209e-05 0)
(0.76555512 5.7709997e-05 0)
(0.76549913 5.3910901e-05 0)
(0.76544688 5.0343623e-05 0)
(0.76539802 4.7029897e-05 0)
(0.76535247 4.3901518e-05 0)
(0.76530983 4.1013106e-05 0)
(0.76527016 3.8260956e-05 0)
(0.76523297 3.5752768e-05 0)
(0.76519842 3.332235e-05 0)
(0.76516606 3.1161198e-05 0)
(0.76513587 2.900267e-05 0)
(0.76510795 2.7168483e-05 0)
(0.76508113 2.5248688e-05 0)
(0.76505792 2.3760434e-05 0)
(0.7650324 2.2132642e-05 0)
(0.76501637 2.115182e-05 0)
(0.76498626 2.0327197e-05 0)
(1.0014244 0.026824854 0)
(1.0291272 0.062791352 0)
(1.0654292 0.077736552 0)
(1.098962 0.080597199 0)
(1.1253149 0.07828517 0)
(1.145053 0.073153899 0)
(1.1594858 0.066111278 0)
(1.1694287 0.058162064 0)
(1.1755354 0.050296755 0)
(1.1785738 0.043150709 0)
(1.1793571 0.036972826 0)
(1.1785949 0.031771632 0)
(1.1768304 0.027451839 0)
(1.1744518 0.023886767 0)
(1.1717287 0.020947619 0)
(1.1688444 0.01851578 0)
(1.1659195 0.016488085 0)
(1.1630317 0.014779503 0)
(1.1602295 0.013322986 0)
(1.1575415 0.012067133 0)
(1.1549828 0.010973001 0)
(1.1525601 0.010011061 0)
(1.1502747 0.0091587463 0)
(1.1481246 0.0083986037 0)
(1.1461059 0.0077169501 0)
(1.1442134 0.007102888 0)
(1.1424414 0.0065475919 0)
(1.1407838 0.0060437957 0)
(1.1392344 0.0055854266 0)
(1.1377869 0.0051673451 0)
(1.1364353 0.0047851573 0)
(1.1351738 0.0044350762 0)
(1.1339968 0.0041138166 0)
(1.1328987 0.0038185126 0)
(1.1318746 0.0035466528 0)
(1.1309195 0.0032960271 0)
(1.1300289 0.0030646834 0)
(1.1291985 0.0028508911 0)
(1.1284242 0.0026531109 0)
(1.1277022 0.0024699691 0)
(1.1270291 0.0023002358 0)
(1.1264014 0.002142807 0)
(1.1258161 0.0019966878 0)
(1.1252702 0.0018609803 0)
(1.1247612 0.0017348709 0)
(1.1242865 0.0016176211 0)
(1.1238437 0.0015085584 0)
(1.1234307 0.0014070695 0)
(1.1230455 0.0013125933 0)
(1.1226861 0.0012246158 0)
(1.1223509 0.0011426651 0)
(1.1220381 0.0010663076 0)
(1.1217462 0.00099514412 0)
(1.1214739 0.00092880684 0)
(1.1212198 0.00086695641 0)
(1.1209827 0.00080927954 0)
(1.1207614 0.00075548639 0)
(1.1205548 0.00070530842 0)
(1.1203621 0.00065849679 0)
(1.1201821 0.00061482027 0)
(1.1200142 0.00057406421 0)
(1.1198574 0.00053602928 0)
(1.1197111 0.00050053043 0)
(1.1195744 0.00046739606 0)
(1.1194469 0.00043646676 0)
(1.1193278 0.00040759442 0)
(1.1192167 0.00038064132 0)
(1.1191129 0.00035547863 0)
(1.119016 0.0003319868 0)
(1.1189255 0.00031005312 0)
(1.118841 0.0002895734 0)
(1.1187621 0.00027044924 0)
(1.1186884 0.00025259087 0)
(1.1186196 0.00023591284 0)
(1.1185554 0.00022033888 0)
(1.1184954 0.00020579366 0)
(1.1184394 0.00019221325 0)
(1.1183871 0.00017952847 0)
(1.1183382 0.00016768688 0)
(1.1182926 0.00015662156 0)
(1.11825 0.00014629364 0)
(1.1182102 0.00013663465 0)
(1.118173 0.0001276254 0)
(1.1181384 0.00011918767 0)
(1.1181059 0.0001113322 0)
(1.1180758 0.00010395431 0)
(1.1180474 9.7113033e-05 0)
(1.1180211 9.0647156e-05 0)
(1.1179963 8.4700739e-05 0)
(1.1179735 7.9004642e-05 0)
(1.1179517 7.3859897e-05 0)
(1.117932 6.8793579e-05 0)
(1.117913 6.4399016e-05 0)
(1.1178958 5.9817152e-05 0)
(1.1178793 5.6185765e-05 0)
(1.117864 5.1924063e-05 0)
(1.1178505 4.9180314e-05 0)
(1.1178356 4.5070364e-05 0)
(1.1178269 4.3535942e-05 0)
(1.1178094 3.9527334e-05 0)
(1.0007347 0.011814721 0)
(1.0178472 0.030860926 0)
(1.0462163 0.041434441 0)
(1.0799018 0.045193569 0)
(1.1132664 0.04550235 0)
(1.143782 0.044080307 0)
(1.1708941 0.041439982 0)
(1.1945687 0.037973678 0)
(1.2148582 0.03419573 0)
(1.2319652 0.030536888 0)
(1.2462683 0.027222046 0)
(1.2582339 0.024313921 0)
(1.2683135 0.021797888 0)
(1.2768875 0.019633659 0)
(1.2842554 0.017773825 0)
(1.2906479 0.016169651 0)
(1.296243 0.014775589 0)
(1.3011791 0.013552298 0)
(1.3055645 0.012467865 0)
(1.3094838 0.011497467 0)
(1.3130042 0.010622163 0)
(1.3161792 0.009827514 0)
(1.3190526 0.009102411 0)
(1.3216607 0.0084381759 0)
(1.3240343 0.0078279025 0)
(1.3261995 0.0072659731 0)
(1.3281786 0.0067477078 0)
(1.3299913 0.0062691165 0)
(1.3316544 0.0058267281 0)
(1.3331829 0.0054174746 0)
(1.3345896 0.0050386138 0)
(1.3358862 0.004687675 0)
(1.3370827 0.0043624202 0)
(1.3381882 0.0040608145 0)
(1.3392108 0.0037810035 0)
(1.3401576 0.0035212939 0)
(1.3410349 0.0032801373 0)
(1.3418486 0.0030561168 0)
(1.3426038 0.0028479341 0)
(1.3433051 0.0026543985 0)
(1.3439569 0.0024744176 0)
(1.3445629 0.002306988 0)
(1.3451267 0.0021511874 0)
(1.3456513 0.0020061677 0)
(1.3461398 0.001871148 0)
(1.3465947 0.0017454089 0)
(1.3470185 0.0016282865 0)
(1.3474135 0.0015191682 0)
(1.3477816 0.0014174875 0)
(1.3481249 0.0013227204 0)
(1.3484449 0.0012343817 0)
(1.3487435 0.001152022 0)
(1.349022 0.0010752255 0)
(1.3492818 0.0010036067 0)
(1.3495242 0.00093680876 0)
(1.3497505 0.00087450081 0)
(1.3499616 0.0008163757 0)
(1.3501587 0.00076214823 0)
(1.3503427 0.00071155289 0)
(1.3505145 0.00066434236 0)
(1.3506748 0.00062028606 0)
(1.3508245 0.0005791692 0)
(1.3509643 0.00054079239 0)
(1.3510948 0.00050497049 0)
(1.3512167 0.00047153188 0)
(1.3513305 0.00044031735 0)
(1.3514368 0.00041117892 0)
(1.3515361 0.00038397827 0)
(1.3516288 0.00035858645 0)
(1.3517153 0.0003348814 0)
(1.3517962 0.00031274966 0)
(1.3518717 0.00029208339 0)
(1.3519422 0.00027278488 0)
(1.3520081 0.00025476085 0)
(1.3520696 0.00023792965 0)
(1.3521271 0.00022221032 0)
(1.3521807 0.00020753582 0)
(1.3522309 0.00019383123 0)
(1.3522777 0.00018104184 0)
(1.3523215 0.00016909172 0)
(1.3523623 0.00015794151 0)
(1.3524005 0.00014750973 0)
(1.352436 0.00013778305 0)
(1.3524694 0.00012866479 0)
(1.3525004 0.00012018468 0)
(1.3525296 0.00011220711 0)
(1.3525565 0.00010483286 0)
(1.3525822 9.7838513e-05 0)
(1.3526053 9.1450547e-05 0)
(1.352628 8.5276252e-05 0)
(1.3526478 7.9778872e-05 0)
(1.3526681 7.4251731e-05 0)
(1.3526847 6.9599202e-05 0)
(1.3527032 6.4538461e-05 0)
(1.3527166 6.0766982e-05 0)
(1.3527342 5.5973684e-05 0)
(1.3527439 5.3227393e-05 0)
(1.3527617 4.8473169e-05 0)
(1.3527672 4.7000336e-05 0)
(1.3527872 4.2043707e-05 0)
(1.0005903 0.0034629153 0)
(1.0136865 0.0093660188 0)
(1.0370283 0.013046805 0)
(1.0674202 0.01456326 0)
(1.1000315 0.014854524 0)
(1.1316428 0.014564991 0)
(1.1610745 0.013888339 0)
(1.1880674 0.012919246 0)
(1.2125205 0.011806507 0)
(1.2343939 0.010696427 0)
(1.2538077 0.0096727422 0)
(1.2710339 0.0087628215 0)
(1.286401 0.0079659725 0)
(1.3002112 0.0072722133 0)
(1.3127102 0.0066688074 0)
(1.3240903 0.0061419247 0)
(1.3345036 0.0056780725 0)
(1.3440716 0.005265322 0)
(1.3528927 0.0048939366 0)
(1.3610463 0.0045563973 0)
(1.3685975 0.0042470707 0)
(1.3756004 0.003961776 0)
(1.3821012 0.0036973969 0)
(1.3881402 0.0034515812 0)
(1.3937533 0.0032225171 0)
(1.3989728 0.0030087687 0)
(1.403828 0.0028091576 0)
(1.4083456 0.0026226797 0)
(1.4125503 0.0024484508 0)
(1.4164646 0.0022856722 0)
(1.4201094 0.0021336088 0)
(1.423504 0.0019915768 0)
(1.426666 0.0018589362 0)
(1.4296121 0.0017350851 0)
(1.4323573 0.0016194574 0)
(1.4349159 0.0015115203 0)
(1.4373007 0.0014107724 0)
(1.4395241 0.0013167423 0)
(1.441597 0.0012289873 0)
(1.4435301 0.0011470923 0)
(1.4453328 0.0010706684 0)
(1.4470143 0.00099935143 0)
(1.4485827 0.00093280125 0)
(1.4500459 0.00087069974 0)
(1.451411 0.00081274981 0)
(1.4526846 0.00075867398 0)
(1.4538731 0.00070821294 0)
(1.4549822 0.00066112444 0)
(1.4560172 0.0006171819 0)
(1.4569831 0.00057617382 0)
(1.4578847 0.00053790298 0)
(1.4587262 0.0005021853 0)
(1.4595117 0.00046884947 0)
(1.460245 0.00043773579 0)
(1.4609295 0.00040869582 0)
(1.4615685 0.00038159112 0)
(1.4621651 0.00035629249 0)
(1.4627221 0.00033267923 0)
(1.4632422 0.00031063803 0)
(1.4637278 0.000290063 0)
(1.4641812 0.0002708555 0)
(1.4646045 0.00025292337 0)
(1.4649998 0.00023618128 0)
(1.4653689 0.00022054976 0)
(1.4657136 0.00020595557 0)
(1.4660355 0.00019233044 0)
(1.4663361 0.00017961063 0)
(1.4666168 0.00016773623 0)
(1.466879 0.00015665051 0)
(1.4671238 0.00014629974 0)
(1.4673524 0.00013663434 0)
(1.467566 0.00012760708 0)
(1.4677654 0.00011917591 0)
(1.4679516 0.00011130036 0)
(1.4681256 0.00010394613 0)
(1.468288 9.7078252e-05 0)
(1.4684398 9.0668141e-05 0)
(1.4685815 8.4682463e-05 0)
(1.4687138 7.9097143e-05 0)
(1.4688375 7.3877504e-05 0)
(1.4689529 6.9007003e-05 0)
(1.4690608 6.4447387e-05 0)
(1.4691614 6.0196415e-05 0)
(1.4692556 5.6208321e-05 0)
(1.4693433 5.2503806e-05 0)
(1.4694257 4.9015257e-05 0)
(1.4695019 4.5798746e-05 0)
(1.469574 4.2740136e-05 0)
(1.4696401 3.9959758e-05 0)
(1.4697035 3.7254671e-05 0)
(1.4697604 3.4866951e-05 0)
(1.4698167 3.243471e-05 0)
(1.4698648 3.0421959e-05 0)
(1.4699158 2.818323e-05 0)
(1.4699551 2.6567314e-05 0)
(1.470003 2.443812e-05 0)
(1.4700326 2.3279022e-05 0)
(1.4700808 2.115539e-05 0)
(1.4700978 2.0539185e-05 0)
(1.4701522 1.8301531e-05 0)
(1.0005903 -0.0034629165 0)
(1.0136865 -0.0093660208 0)
(1.0370283 -0.013046807 0)
(1.0674202 -0.014563262 0)
(1.1000315 -0.014854524 0)
(1.1316428 -0.014564989 0)
(1.1610745 -0.013888336 0)
(1.1880674 -0.012919244 0)
(1.2125205 -0.011806505 0)
(1.2343939 -0.010696427 0)
(1.2538077 -0.0096727439 0)
(1.2710339 -0.0087628245 0)
(1.286401 -0.0079659759 0)
(1.3002112 -0.007272216 0)
(1.3127102 -0.0066688085 0)
(1.3240903 -0.0061419239 0)
(1.3345036 -0.0056780699 0)
(1.3440716 -0.0052653185 0)
(1.3528927 -0.0048939333 0)
(1.3610463 -0.0045563953 0)
(1.3685975 -0.0042470708 0)
(1.3756004 -0.003961778 0)
(1.3821012 -0.0036974002 0)
(1.3881402 -0.0034515847 0)
(1.3937533 -0.0032225195 0)
(1.3989728 -0.0030087693 0)
(1.403828 -0.002809156 0)
(1.4083456 -0.0026226765 0)
(1.4125503 -0.002448447 0)
(1.4164646 -0.0022856689 0)
(1.4201094 -0.0021336071 0)
(1.423504 -0.0019915772 0)
(1.426666 -0.0018589385 0)
(1.4296121 -0.0017350884 0)
(1.4323573 -0.0016194606 0)
(1.4349159 -0.0015115221 0)
(1.4373007 -0.001410772 0)
(1.4395241 -0.0013167395 0)
(1.441597 -0.001228983 0)
(1.4435301 -0.0011470878 0)
(1.4453328 -0.001070665 0)
(1.4470143 -0.00099935027 0)
(1.4485827 -0.00093280247 0)
(1.4500459 -0.00087070271 0)
(1.451411 -0.00081275322 0)
(1.4526846 -0.00075867627 0)
(1.4538731 -0.0007082127 0)
(1.4549822 -0.00066112109 0)
(1.4560172 -0.00061717607 0)
(1.4569831 -0.00057616712 0)
(1.4578847 -0.00053789725 0)
(1.4587262 -0.00050218208 0)
(1.4595117 -0.00046884949 0)
(1.460245 -0.00043773864 0)
(1.4609295 -0.00040869983 0)
(1.4615685 -0.00038159405 0)
(1.4621651 -0.00035629212 0)
(1.4627221 -0.00033267438 0)
(1.4632422 -0.0003106293 0)
(1.4637278 -0.00029005266 0)
(1.4641812 -0.00027084635 0)
(1.4646045 -0.00025291788 0)
(1.4649998 -0.00023618075 0)
(1.4653689 -0.00022055382 0)
(1.4657136 -0.00020596193 0)
(1.4660355 -0.00019233578 0)
(1.4663361 -0.00017961162 0)
(1.4666168 -0.00016773089 0)
(1.466879 -0.00015663943 0)
(1.4671238 -0.00014628588 0)
(1.4673524 -0.00013662169 0)
(1.467566 -0.00012759935 0)
(1.4677654 -0.00011917514 0)
(1.4679516 -0.00011130632 0)
(1.4681256 -0.00010395571 0)
(1.468288 -9.7087103e-05 0)
(1.4684398 -9.0672065e-05 0)
(1.4685815 -8.4679349e-05 0)
(1.4687138 -7.9088191e-05 0)
(1.4688375 -7.3866045e-05 0)
(1.4689529 -6.8998088e-05 0)
(1.4690608 -6.4445551e-05 0)
(1.4691614 -6.02038e-05 0)
(1.4692557 -5.622364e-05 0)
(1.4693433 -5.2522345e-05 0)
(1.4694257 -4.9032063e-05 0)
(1.4695019 -4.5810134e-05 0)
(1.469574 -4.274459e-05 0)
(1.4696401 -3.9959496e-05 0)
(1.4697035 -3.7254052e-05 0)
(1.4697604 -3.4871457e-05 0)
(1.4698167 -3.2447658e-05 0)
(1.4698648 -3.0444443e-05 0)
(1.4699158 -2.8211592e-05 0)
(1.4699551 -2.6596492e-05 0)
(1.470003 -2.4461771e-05 0)
(1.4700326 -2.3296121e-05 0)
(1.4700808 -2.1164293e-05 0)
(1.4700978 -2.05402e-05 0)
(1.4701522 -1.8297546e-05 0)
(1.0007347 -0.011814722 0)
(1.0178472 -0.030860928 0)
(1.0462163 -0.041434442 0)
(1.0799018 -0.045193569 0)
(1.1132664 -0.045502349 0)
(1.143782 -0.044080305 0)
(1.1708941 -0.04143998 0)
(1.1945687 -0.037973677 0)
(1.2148582 -0.03419573 0)
(1.2319652 -0.030536889 0)
(1.2462683 -0.027222048 0)
(1.2582339 -0.024313923 0)
(1.2683135 -0.021797889 0)
(1.2768875 -0.019633659 0)
(1.2842554 -0.017773824 0)
(1.2906479 -0.016169649 0)
(1.296243 -0.014775587 0)
(1.3011791 -0.013552296 0)
(1.3055645 -0.012467864 0)
(1.3094838 -0.011497467 0)
(1.3130042 -0.010622164 0)
(1.3161792 -0.0098275161 0)
(1.3190526 -0.0091024131 0)
(1.3216607 -0.0084381773 0)
(1.3240343 -0.0078279027 0)
(1.3261995 -0.007265972 0)
(1.3281786 -0.0067477057 0)
(1.3299913 -0.0062691142 0)
(1.3316544 -0.0058267261 0)
(1.3331829 -0.0054174737 0)
(1.3345896 -0.0050386142 0)
(1.3358862 -0.0046876765 0)
(1.3370827 -0.0043624222 0)
(1.3381882 -0.0040608163 0)
(1.3392108 -0.0037810043 0)
(1.3401576 -0.0035212933 0)
(1.3410349 -0.0032801354 0)
(1.3418486 -0.0030561141 0)
(1.3426038 -0.0028479312 0)
(1.3433051 -0.0026543965 0)
(1.3439569 -0.0024744169 0)
(1.3445629 -0.0023069887 0)
(1.3451267 -0.0021511891 0)
(1.3456513 -0.0020061693 0)
(1.3461398 -0.0018711487 0)
(1.3465947 -0.0017454079 0)
(1.3470185 -0.0016282838 0)
(1.3474135 -0.0015191643 0)
(1.3477816 -0.0014174833 0)
(1.3481249 -0.0013227169 0)
(1.3484449 -0.0012343797 0)
(1.3487435 -0.001152022 0)
(1.349022 -0.0010752268 0)
(1.3492818 -0.0010036083 0)
(1.3495242 -0.00093680922 0)
(1.3497505 -0.00087449898 0)
(1.3499617 -0.00081637139 0)
(1.3501588 -0.00076214209 0)
(1.3503427 -0.00071154624 0)
(1.3505145 -0.00066433671 0)
(1.3506748 -0.0006202827 0)
(1.3508245 -0.00057916874 0)
(1.3509643 -0.00054079422 0)
(1.3510948 -0.00050497294 0)
(1.3512167 -0.00047153312 0)
(1.3513305 -0.00044031573 0)
(1.3514368 -0.00041117399 0)
(1.3515361 -0.0003839708 0)
(1.3516288 -0.00035857796 0)
(1.3517154 -0.0003348739 0)
(1.3517962 -0.00031274495 0)
(1.3518717 -0.00029208245 0)
(1.3519422 -0.00027278732 0)
(1.3520081 -0.00025476482 0)
(1.3520696 -0.00023793311 0)
(1.3521271 -0.00022221124 0)
(1.3521808 -0.00020753345 0)
(1.3522309 -0.00019382634 0)
(1.3522777 -0.00018103622 0)
(1.3523215 -0.00016908831 0)
(1.3523623 -0.00015794216 0)
(1.3524005 -0.00014751504 0)
(1.352436 -0.00013779182 0)
(1.3524694 -0.00012867494 0)
(1.3525004 -0.00012019433 0)
(1.3525296 -0.00011221463 0)
(1.3525565 -0.00010483767 0)
(1.3525822 -9.7842206e-05 0)
(1.3526054 -9.1454985e-05 0)
(1.352628 -8.5283922e-05 0)
(1.3526478 -7.9790792e-05 0)
(1.3526681 -7.4268219e-05 0)
(1.3526847 -6.9618589e-05 0)
(1.3527032 -6.4558855e-05 0)
(1.3527166 -6.0786374e-05 0)
(1.3527342 -5.5990328e-05 0)
(1.3527439 -5.3239943e-05 0)
(1.3527617 -4.848209e-05 0)
(1.3527672 -4.7008056e-05 0)
(1.3527871 -4.2048629e-05 0)
(1.0014244 -0.026824855 0)
(1.0291272 -0.062791353 0)
(1.0654292 -0.077736552 0)
(1.098962 -0.080597198 0)
(1.1253149 -0.078285168 0)
(1.145053 -0.073153897 0)
(1.1594858 -0.066111278 0)
(1.1694287 -0.058162065 0)
(1.1755354 -0.050296757 0)
(1.1785738 -0.043150712 0)
(1.1793571 -0.036972827 0)
(1.1785949 -0.031771632 0)
(1.1768304 -0.027451837 0)
(1.1744518 -0.023886765 0)
(1.1717287 -0.020947617 0)
(1.1688444 -0.018515779 0)
(1.1659195 -0.016488085 0)
(1.1630317 -0.014779504 0)
(1.1602295 -0.013322988 0)
(1.1575415 -0.012067135 0)
(1.1549828 -0.010973002 0)
(1.1525601 -0.010011062 0)
(1.1502747 -0.0091587455 0)
(1.1481246 -0.0083986018 0)
(1.1461059 -0.0077169478 0)
(1.1442134 -0.007102886 0)
(1.1424414 -0.006547591 0)
(1.1407838 -0.006043796 0)
(1.1392344 -0.005585428 0)
(1.1377869 -0.0051673471 0)
(1.1364353 -0.0047851592 0)
(1.1351738 -0.0044350773 0)
(1.1339968 -0.0041138164 0)
(1.1328987 -0.003818511 0)
(1.1318746 -0.0035466503 0)
(1.1309195 -0.0032960245 0)
(1.1300289 -0.0030646815 0)
(1.1291985 -0.0028508905 0)
(1.1284242 -0.0026531117 0)
(1.1277022 -0.002469971 0)
(1.1270291 -0.0023002381 0)
(1.1264014 -0.0021428086 0)
(1.1258161 -0.0019966879 0)
(1.1252702 -0.0018609785 0)
(1.1247612 -0.0017348676 0)
(1.1242865 -0.001617617 0)
(1.1238437 -0.001508555 0)
(1.1234308 -0.0014070676 0)
(1.1230455 -0.0013125935 0)
(1.1226861 -0.0012246178 0)
(1.1223509 -0.0011426679 0)
(1.1220381 -0.0010663098 0)
(1.1217462 -0.00099514432 0)
(1.1214739 -0.00092880431 0)
(1.1212198 -0.00086695146 0)
(1.1209827 -0.00080927329 0)
(1.1207614 -0.00075548071 0)
(1.1205548 -0.00070530502 0)
(1.1203621 -0.00065849656 0)
(1.1201821 -0.00061482292 0)
(1.1200142 -0.00057406824 0)
(1.1198574 -0.00053603262 0)
(1.1197111 -0.00050053103 0)
(1.1195745 -0.0004673928 0)
(1.1194469 -0.00043646011 0)
(1.1193279 -0.00040758606 0)
(1.1192167 -0.00038063392 0)
(1.1191129 -0.00035547456 0)
(1.119016 -0.00033198708 0)
(1.1189255 -0.00031005719 0)
(1.118841 -0.00028957908 0)
(1.1187621 -0.00027045377 0)
(1.1186884 -0.00025259182 0)
(1.1186197 -0.00023590908 0)
(1.1185554 -0.00022033154 0)
(1.1184955 -0.00020578528 0)
(1.1184395 -0.00019220725 0)
(1.1183871 -0.00017952741 0)
(1.1183383 -0.00016769141 0)
(1.1182927 -0.00015663036 0)
(1.11825 -0.00014630362 0)
(1.1182102 -0.00013664239 0)
(1.1181731 -0.00012762872 0)
(1.1181384 -0.00011918636 0)
(1.1181059 -0.00011132861 0)
(1.1180758 -0.00010395157 0)
(1.1180474 -9.711447e-05 0)
(1.1180211 -9.0654381e-05 0)
(1.1179963 -8.471351e-05 0)
(1.1179735 -7.9020216e-05 0)
(1.1179517 -7.3875634e-05 0)
(1.117932 -6.8806257e-05 0)
(1.1179129 -6.4408361e-05 0)
(1.1178958 -5.9823346e-05 0)
(1.1178793 -5.6191901e-05 0)
(1.117864 -5.1931344e-05 0)
(1.1178505 -4.9190343e-05 0)
(1.1178356 -4.5082197e-05 0)
(1.1178269 -4.3550796e-05 0)
(1.1178093 -3.9539392e-05 0)
(1.0016583 -0.053819431 0)
(1.0359761 -0.10128444 0)
(1.0597199 -0.11073663 0)
(1.0628947 -0.10592201 0)
(1.0515569 -0.096228726 0)
(1.0340529 -0.083934061 0)
(1.0142795 -0.070327064 0)
(0.99360702 -0.056981336 0)
(0.97292576 -0.045107482 0)
(0.95310739 -0.035236751 0)
(0.93479538 -0.02740165 0)
(0.91829012 -0.021387225 0)
(0.90362379 -0.016884496 0)
(0.89068068 -0.013569707 0)
(0.87928175 -0.011147748 0)
(0.86923242 -0.0093736596 0)
(0.86034423 -0.0080569303 0)
(0.85244667 -0.00705713 0)
(0.84539241 -0.0062752405 0)
(0.83905792 -0.0056438294 0)
(0.83334126 -0.0051180903 0)
(0.82815884 -0.0046686702 0)
(0.82344212 -0.0042764145 0)
(0.81913467 -0.0039287362 0)
(0.81518962 -0.003617202 0)
(0.81156765 -0.0033359705 0)
(0.80823544 -0.0030808055 0)
(0.8051644 -0.0028484713 0)
(0.80232979 -0.0026363716 0)
(0.79970999 -0.0024423399 0)
(0.79728597 -0.0022645187 0)
(0.79504086 -0.0021012882 0)
(0.79295963 -0.0019512226 0)
(0.79102881 -0.0018130601 0)
(0.78923628 -0.0016856814 0)
(0.78757111 -0.001568092 0)
(0.78602339 -0.001459407 0)
(0.78458412 -0.0013588385 0)
(0.78324511 -0.0012656836 0)
(0.78199888 -0.0011793143 0)
(0.7808386 -0.001099168 0)
(0.77975798 -0.00102474 0)
(0.77875128 -0.00095557545 0)
(0.77781318 -0.0008912639 0)
(0.77693882 -0.00083143308 0)
(0.77612369 -0.00077574458 0)
(0.77536363 -0.00072388951 0)
(0.77465481 -0.00067558552 0)
(0.77399367 -0.00063057386 0)
(0.77337693 -0.00058861722 0)
(0.77280153 -0.0005494979 0)
(0.77226464 -0.00051301575 0)
(0.77176363 -0.0004789868 0)
(0.77129607 -0.00044724136 0)
(0.77085968 -0.00041762241 0)
(0.77045236 -0.00038998431 0)
(0.77007213 -0.00036419128 0)
(0.76971718 -0.00034011691 0)
(0.76938581 -0.00031764341 0)
(0.76907644 -0.00029666139 0)
(0.76878759 -0.00027706993 0)
(0.76851791 -0.0002587757 0)
(0.7682661 -0.00024169285 0)
(0.76803097 -0.00022574176 0)
(0.76781141 -0.00021084805 0)
(0.76760638 -0.00019694187 0)
(0.76741491 -0.00018395698 0)
(0.76723609 -0.0001718308 0)
(0.7670691 -0.00016050473 0)
(0.76691315 -0.00014992402 0)
(0.76676751 -0.00014003914 0)
(0.76663149 -0.00013080412 0)
(0.76650447 -0.0001221781 0)
(0.76638583 -0.00011412207 0)
(0.76627503 -0.00010660068 0)
(0.76617154 -9.9577824e-05 0)
(0.76607487 -9.3021247e-05 0)
(0.76598459 -8.6895717e-05 0)
(0.76590025 -8.1173925e-05 0)
(0.76582149 -7.5822973e-05 0)
(0.76574791 -7.0824642e-05 0)
(0.76567922 -6.6148239e-05 0)
(0.76561505 -6.1786181e-05 0)
(0.76555514 -5.7703998e-05 0)
(0.76549914 -5.3904912e-05 0)
(0.7654469 -5.0341139e-05 0)
(0.76539802 -4.7032718e-05 0)
(0.76535247 -4.3909524e-05 0)
(0.76530982 -4.1024232e-05 0)
(0.76527014 -3.8271869e-05 0)
(0.76523295 -3.5760793e-05 0)
(0.7651984 -3.3326168e-05 0)
(0.76516604 -3.1161378e-05 0)
(0.76513585 -2.9001495e-05 0)
(0.76510793 -2.7168519e-05 0)
(0.76508111 -2.5251827e-05 0)
(0.76505789 -2.376729e-05 0)
(0.76503237 -2.2142375e-05 0)
(0.76501633 -2.116337e-05 0)
(0.76498622 -2.033752e-05 0)
(0.91890839 -0.035821913 0)
(0.86271384 -0.062195638 0)
(0.7870597 -0.06251009 0)
(0.69536033 -0.054550395 0)
(0.61089745 -0.044531651 0)
(0.54411592 -0.034015972 0)
(0.49343012 -0.02418754 0)
(0.45479413 -0.01614423 0)
(0.42544582 -0.010265786 0)
(0.40347313 -0.0063041452 0)
(0.38715767 -0.003797629 0)
(0.3749622 -0.0023103376 0)
(0.36566193 -0.0014930144 0)
(0.35836273 -0.001085118 0)
(0.35244268 -0.00090607244 0)
(0.34748201 -0.0008410522 0)
(0.34320348 -0.00082372478 0)
(0.33942725 -0.00081931098 0)
(0.33603793 -0.00081185227 0)
(0.33296114 -0.0007958011 0)
(0.33014778 -0.00077081099 0)
(0.32756384 -0.00073870882 0)
(0.3251842 -0.00070188869 0)
(0.32298902 -0.00066256532 0)
(0.32096172 -0.00062249964 0)
(0.31908785 -0.00058295792 0)
(0.31735449 -0.00054477231 0)
(0.31574995 -0.0005084349 0)
(0.3142636 -0.0004741921 0)
(0.31288574 -0.00044212467 0)
(0.31160755 -0.00041220905 0)
(0.31042101 -0.00038436084 0)
(0.30931883 -0.00035846404 0)
(0.30829438 -0.00033438953 0)
(0.30734165 -0.0003120063 0)
(0.30645516 -0.00029118778 0)
(0.30562991 -0.00027181494 0)
(0.30486136 -0.00025377775 0)
(0.30414535 -0.00023697529 0)
(0.30347806 -0.00022131542 0)
(0.302856 -0.00020671417 0)
(0.30227596 -0.00019309485 0)
(0.30173496 -0.00018038742 0)
(0.30123029 -0.00016852756 0)
(0.30075942 -0.00015745613 0)
(0.30032002 -0.00014711859 0)
(0.29990993 -0.00013746447 0)
(0.29952715 -0.00012844715 0)
(0.29916983 -0.00012002342 0)
(0.29883624 -0.00011215333 0)
(0.29852478 -0.00010479995 0)
(0.29823397 -9.7928991e-05 0)
(0.29796241 -9.1508737e-05 0)
(0.29770883 -8.550956e-05 0)
(0.29747202 -7.9903795e-05 0)
(0.29725085 -7.4665531e-05 0)
(0.29704429 -6.9770361e-05 0)
(0.29685138 -6.5195541e-05 0)
(0.29667119 -6.0919767e-05 0)
(0.2965029 -5.692332e-05 0)
(0.29634572 -5.3188039e-05 0)
(0.2961989 -4.9697035e-05 0)
(0.29606176 -4.6434778e-05 0)
(0.29593367 -4.3386584e-05 0)
(0.29581402 -4.0538614e-05 0)
(0.29570225 -3.7877717e-05 0)
(0.29559784 -3.5391297e-05 0)
(0.29550032 -3.3067599e-05 0)
(0.29540922 -3.0895638e-05 0)
(0.29532412 -2.8865332e-05 0)
(0.29524464 -2.6967694e-05 0)
(0.29517039 -2.5194279e-05 0)
(0.29510104 -2.3537616e-05 0)
(0.29503625 -2.199024e-05 0)
(0.29497573 -2.0545304e-05 0)
(0.2949192 -1.9195643e-05 0)
(0.29486638 -1.7934893e-05 0)
(0.29481704 -1.6756204e-05 0)
(0.29477095 -1.5654613e-05 0)
(0.29472791 -1.4623926e-05 0)
(0.29468769 -1.3661343e-05 0)
(0.29465014 -1.27608e-05 0)
(0.29461505 -1.1921482e-05 0)
(0.29458229 -1.1135894e-05 0)
(0.29455166 -1.0405254e-05 0)
(0.29452307 -9.7189732e-06 0)
(0.29449635 -9.0821649e-06 0)
(0.29447141 -8.479739e-06 0)
(0.29444809 -7.9241257e-06 0)
(0.29442635 -7.3934092e-06 0)
(0.29440602 -6.9107418e-06 0)
(0.29438708 -6.44379e-06 0)
(0.29436937 -6.0283117e-06 0)
(0.29435284 -5.6214126e-06 0)
(0.29433745 -5.2673126e-06 0)
(0.29432292 -4.9322013e-06 0)
(0.29430971 -4.6384973e-06 0)
(0.29429645 -4.458278e-06 0)
(0.29428586 -4.3097415e-06 0)
(0.29427011 -4.8595727e-06 0)
)
;

boundaryField
{
    top
    {
        type            fixedValue;
        value           uniform (0 0 0);
    }
    inlet
    {
        type            fixedValue;
        value           uniform (1 0 0);
    }
    outlet
    {
        type            zeroGradient;
    }
    bottom
    {
        type            fixedValue;
        value           uniform (0 0 0);
    }
    back
    {
        type            empty;
    }
    front
    {
        type            empty;
    }
}


// ************************************************************************* //
