/*--------------------------------*- C++ -*----------------------------------*\
| =========                 |                                                 |
| \\      /  F ield         | OpenFOAM: The Open Source CFD Toolbox           |
|  \\    /   O peration     | Version:  v1812                                 |
|   \\  /    A nd           | Web:      www.OpenFOAM.com                      |
|    \\/     M anipulation  |                                                 |
\*---------------------------------------------------------------------------*/
FoamFile
{
    version     2.0;
    format      ascii;
    class       volVectorField;
    location    "11.1";
    object      U;
}
// * * * * * * * * * * * * * * * * * * * * * * * * * * * * * * * * * * * * * //

dimensions      [0 1 -1 0 0 0 0];


internalField   nonuniform List<vector> 
1000
(
(0.91890839 0.035821913 0)
(0.86271384 0.062195638 0)
(0.7870597 0.06251009 0)
(0.69536033 0.054550395 0)
(0.61089745 0.044531651 0)
(0.54411592 0.034015971 0)
(0.49343012 0.024187539 0)
(0.45479414 0.01614423 0)
(0.42544582 0.010265786 0)
(0.40347313 0.0063041456 0)
(0.38715766 0.0037976296 0)
(0.3749622 0.002310338 0)
(0.36566192 0.0014930146 0)
(0.35836272 0.0010851178 0)
(0.35244268 0.00090607206 0)
(0.34748201 0.00084105175 0)
(0.34320348 0.00082372442 0)
(0.33942726 0.00081931082 0)
(0.33603793 0.00081185238 0)
(0.33296114 0.00079580145 0)
(0.33014778 0.00077081146 0)
(0.32756384 0.00073870927 0)
(0.3251842 0.00070188898 0)
(0.32298902 0.00066256535 0)
(0.32096172 0.0006224994 0)
(0.31908785 0.00058295749 0)
(0.31735449 0.00054477184 0)
(0.31574995 0.00050843455 0)
(0.3142636 0.00047419199 0)
(0.31288574 0.00044212487 0)
(0.31160755 0.00041220948 0)
(0.31042101 0.00038436139 0)
(0.30931883 0.00035846451 0)
(0.30829438 0.00033438977 0)
(0.30734165 0.00031200622 0)
(0.30645515 0.00029118738 0)
(0.30562991 0.00027181436 0)
(0.30486136 0.00025377719 0)
(0.30414535 0.00023697496 0)
(0.30347806 0.0002213155 0)
(0.302856 0.00020671465 0)
(0.30227596 0.00019309563 0)
(0.30173496 0.00018038821 0)
(0.30123029 0.00016852809 0)
(0.30075942 0.00015745621 0)
(0.30032002 0.00014711815 0)
(0.29990993 0.00013746368 0)
(0.29952715 0.00012844629 0)
(0.29916983 0.00012002285 0)
(0.29883624 0.00011215335 0)
(0.29852478 0.0001048006 0)
(0.29823396 9.7930142e-05 0)
(0.29796241 9.1509996e-05 0)
(0.29770882 8.5510479e-05 0)
(0.29747201 7.9904021e-05 0)
(0.29725084 7.466491e-05 0)
(0.29704429 6.9769136e-05 0)
(0.29685138 6.5194164e-05 0)
(0.2966712 6.0918834e-05 0)
(0.2965029 5.6923314e-05 0)
(0.29634571 5.3189045e-05 0)
(0.29619889 4.969881e-05 0)
(0.29606175 4.643667e-05 0)
(0.29593365 4.3387892e-05 0)
(0.295814 4.0538863e-05 0)
(0.29570224 3.7876794e-05 0)
(0.29559784 3.538969e-05 0)
(0.29550031 3.3066063e-05 0)
(0.29540922 3.0895009e-05 0)
(0.29532412 2.8866178e-05 0)
(0.29524463 2.6969935e-05 0)
(0.29517038 2.5197391e-05 0)
(0.29510102 2.3540623e-05 0)
(0.29503623 2.1992242e-05 0)
(0.2949757 2.0545833e-05 0)
(0.29491917 1.9194806e-05 0)
(0.29486636 1.7933426e-05 0)
(0.29481703 1.6755102e-05 0)
(0.29477095 1.5654557e-05 0)
(0.2947279 1.4625162e-05 0)
(0.29468768 1.3663037e-05 0)
(0.29465013 1.2761826e-05 0)
(0.29461505 1.1920198e-05 0)
(0.29458229 1.1131314e-05 0)
(0.29455169 1.039674e-05 0)
(0.29452313 9.7069351e-06 0)
(0.29449645 9.0669068e-06 0)
(0.29447155 8.4618769e-06 0)
(0.29444829 7.9030002e-06 0)
(0.29442662 7.3680828e-06 0)
(0.29440636 6.8792535e-06 0)
(0.29438752 6.40425e-06 0)
(0.29436992 5.9799125e-06 0)
(0.29435354 5.5624162e-06 0)
(0.2943383 5.1997592e-06 0)
(0.29432399 4.8518556e-06 0)
(0.29431096 4.5501297e-06 0)
(0.29429801 4.3473615e-06 0)
(0.29428762 4.1819749e-06 0)
(0.29427245 4.6480438e-06 0)
(1.0016583 0.05381943 0)
(1.0359761 0.10128444 0)
(1.0597199 0.11073663 0)
(1.0628947 0.10592202 0)
(1.0515569 0.096228728 0)
(1.0340529 0.08393406 0)
(1.0142795 0.070327062 0)
(0.99360703 0.056981333 0)
(0.97292577 0.045107479 0)
(0.9531074 0.035236751 0)
(0.93479538 0.027401651 0)
(0.91829012 0.021387228 0)
(0.90362379 0.016884499 0)
(0.89068067 0.013569708 0)
(0.87928174 0.011147748 0)
(0.86923242 0.0093736584 0)
(0.86034423 0.0080569283 0)
(0.85244667 0.007057128 0)
(0.84539241 0.0062752392 0)
(0.83905793 0.0056438292 0)
(0.83334126 0.0051180913 0)
(0.82815884 0.004668672 0)
(0.82344212 0.0042764165 0)
(0.81913467 0.0039287377 0)
(0.81518961 0.0036172026 0)
(0.81156765 0.0033359699 0)
(0.80823544 0.003080804 0)
(0.8051644 0.0028484694 0)
(0.80232979 0.0026363699 0)
(0.79970999 0.0024423391 0)
(0.79728597 0.002264519 0)
(0.79504086 0.0021012897 0)
(0.79295963 0.0019512248 0)
(0.7910288 0.0018130623 0)
(0.78923627 0.0016856829 0)
(0.7875711 0.0015680922 0)
(0.78602338 0.0014594059 0)
(0.78458412 0.0013588364 0)
(0.78324511 0.0012656813 0)
(0.78199889 0.0011793127 0)
(0.7808386 0.0010991679 0)
(0.77975799 0.0010247415 0)
(0.77875128 0.00095557829 0)
(0.77781318 0.0008912672 0)
(0.77693881 0.00083143579 0)
(0.77612368 0.0007757457 0)
(0.77536362 0.00072388868 0)
(0.77465481 0.00067558302 0)
(0.77399367 0.00063057068 0)
(0.77337693 0.00058861473 0)
(0.77280153 0.00054949726 0)
(0.77226464 0.00051301762 0)
(0.77176363 0.0004789909 0)
(0.77129606 0.0004472465 0)
(0.77085966 0.00041762694 0)
(0.77045233 0.00038998656 0)
(0.77007211 0.00036419044 0)
(0.76971717 0.0003401133 0)
(0.7693858 0.00031763852 0)
(0.76907644 0.00029665745 0)
(0.76878759 0.00027706886 0)
(0.7685179 0.00025877856 0)
(0.76826608 0.0002416991 0)
(0.76803095 0.00022574946 0)
(0.76781138 0.00021085464 0)
(0.76760634 0.00019694496 0)
(0.76741487 0.00018395564 0)
(0.76723607 0.00017182588 0)
(0.76706908 0.00016049864 0)
(0.76691314 0.00014991997 0)
(0.7667675 0.00014003948 0)
(0.76663148 0.00013080974 0)
(0.76650444 0.0001221875 0)
(0.76638579 0.00011413209 0)
(0.76627498 0.00010660748 0)
(0.76617149 9.9578498e-05 0)
(0.76607483 9.3014751e-05 0)
(0.76598456 8.688366e-05 0)
(0.76590024 8.1158873e-05 0)
(0.7658215 7.5808196e-05 0)
(0.76574795 7.0810539e-05 0)
(0.76567927 6.6133515e-05 0)
(0.76561511 6.1765336e-05 0)
(0.76555522 5.7671512e-05 0)
(0.76549927 5.3853795e-05 0)
(0.76544708 5.0268457e-05 0)
(0.7653983 4.6935516e-05 0)
(0.76535285 4.3789752e-05 0)
(0.76531034 4.0880601e-05 0)
(0.76527081 3.810516e-05 0)
(0.76523379 3.556543e-05 0)
(0.76519944 3.3096974e-05 0)
(0.76516729 3.089057e-05 0)
(0.7651374 2.8681062e-05 0)
(0.76510976 2.6798623e-05 0)
(0.76508337 2.4821033e-05 0)
(0.76506047 2.3293521e-05 0)
(0.7650356 2.1585618e-05 0)
(0.7650198 2.058022e-05 0)
(0.7649907 1.9581075e-05 0)
(1.0014244 0.026824854 0)
(1.0291272 0.062791352 0)
(1.0654292 0.077736553 0)
(1.098962 0.0805972 0)
(1.1253149 0.078285171 0)
(1.145053 0.073153899 0)
(1.1594858 0.066111278 0)
(1.1694287 0.058162063 0)
(1.1755354 0.050296754 0)
(1.1785738 0.043150709 0)
(1.1793571 0.036972826 0)
(1.1785949 0.031771633 0)
(1.1768304 0.02745184 0)
(1.1744518 0.023886768 0)
(1.1717287 0.020947619 0)
(1.1688444 0.01851578 0)
(1.1659195 0.016488084 0)
(1.1630317 0.014779502 0)
(1.1602295 0.013322985 0)
(1.1575415 0.012067133 0)
(1.1549828 0.010973001 0)
(1.1525601 0.010011062 0)
(1.1502747 0.009158747 0)
(1.1481246 0.008398604 0)
(1.1461059 0.00771695 0)
(1.1442134 0.0071028875 0)
(1.1424414 0.0065475912 0)
(1.1407838 0.006043795 0)
(1.1392344 0.0055854262 0)
(1.1377869 0.005167345 0)
(1.1364353 0.0047851576 0)
(1.1351738 0.0044350769 0)
(1.1339968 0.0041138173 0)
(1.1328987 0.0038185132 0)
(1.1318746 0.003546653 0)
(1.1309195 0.003296027 0)
(1.1300289 0.0030646829 0)
(1.1291985 0.0028508904 0)
(1.1284242 0.0026531102 0)
(1.1277022 0.0024699687 0)
(1.1270291 0.002300236 0)
(1.1264014 0.0021428076 0)
(1.1258161 0.0019966888 0)
(1.1252702 0.0018609813 0)
(1.1247612 0.0017348717 0)
(1.1242865 0.0016176213 0)
(1.1238437 0.0015085581 0)
(1.1234307 0.0014070687 0)
(1.1230455 0.0013125923 0)
(1.1226861 0.001224615 0)
(1.1223509 0.0011426649 0)
(1.1220381 0.0010663082 0)
(1.1217462 0.00099514541 0)
(1.1214739 0.00092880849 0)
(1.1212198 0.00086695795 0)
(1.1209827 0.00080928041 0)
(1.1207614 0.00075548624 0)
(1.1205548 0.00070530736 0)
(1.120362 0.0006584952 0)
(1.1201821 0.00061481886 0)
(1.1200142 0.00057406373 0)
(1.1198574 0.00053603018 0)
(1.1197111 0.00050053274 0)
(1.1195744 0.00046739917 0)
(1.1194469 0.00043646979 0)
(1.1193278 0.00040759644 0)
(1.1192167 0.00038064178 0)
(1.1191129 0.00035547781 0)
(1.119016 0.00033198539 0)
(1.1189255 0.00031005233 0)
(1.118841 0.00028957422 0)
(1.1187621 0.00027045224 0)
(1.1186884 0.00025259552 0)
(1.1186196 0.00023591784 0)
(1.1185554 0.00022034218 0)
(1.1184954 0.0002057937 0)
(1.1184394 0.0001922083 0)
(1.1183871 0.0001795186 0)
(1.1183382 0.00016767156 0)
(1.1182926 0.00015660177 0)
(1.11825 0.00014626771 0)
(1.1182103 0.00013660137 0)
(1.1181731 0.00012757895 0)
(1.1181385 0.00011912414 0)
(1.118106 0.00011124289 0)
(1.1180758 0.00010383593 0)
(1.1180475 9.6956969e-05 0)
(1.1180213 9.0453167e-05 0)
(1.1179965 8.4460425e-05 0)
(1.1179738 7.8718029e-05 0)
(1.1179521 7.3515666e-05 0)
(1.1179324 6.8387926e-05 0)
(1.1179135 6.3918442e-05 0)
(1.1178964 5.9253115e-05 0)
(1.11788 5.5533288e-05 0)
(1.1178648 5.1164689e-05 0)
(1.1178515 4.8336659e-05 0)
(1.1178368 4.4087159e-05 0)
(1.1178282 4.2491963e-05 0)
(1.117811 3.8277195e-05 0)
(1.0007347 0.011814721 0)
(1.0178472 0.030860926 0)
(1.0462163 0.041434441 0)
(1.0799018 0.04519357 0)
(1.1132664 0.045502351 0)
(1.143782 0.044080307 0)
(1.1708941 0.041439982 0)
(1.1945687 0.037973678 0)
(1.2148582 0.034195729 0)
(1.2319652 0.030536887 0)
(1.2462683 0.027222045 0)
(1.2582339 0.024313921 0)
(1.2683135 0.021797888 0)
(1.2768875 0.01963366 0)
(1.2842554 0.017773826 0)
(1.2906479 0.016169651 0)
(1.296243 0.014775589 0)
(1.3011791 0.013552297 0)
(1.3055645 0.012467863 0)
(1.3094838 0.011497466 0)
(1.3130042 0.010622162 0)
(1.3161792 0.009827514 0)
(1.3190526 0.0091024117 0)
(1.3216607 0.0084381771 0)
(1.3240343 0.0078279038 0)
(1.3261995 0.007265974 0)
(1.3281786 0.0067477081 0)
(1.3299913 0.0062691161 0)
(1.3316544 0.0058267271 0)
(1.3331829 0.0054174733 0)
(1.3345896 0.0050386127 0)
(1.3358862 0.0046876744 0)
(1.3370827 0.0043624203 0)
(1.3381882 0.0040608154 0)
(1.3392108 0.0037810049 0)
(1.3401576 0.0035212954 0)
(1.3410349 0.0032801384 0)
(1.3418486 0.0030561171 0)
(1.3426038 0.0028479335 0)
(1.3433051 0.0026543972 0)
(1.3439569 0.002474416 0)
(1.3445629 0.0023069867 0)
(1.3451267 0.002151187 0)
(1.3456513 0.0020061683 0)
(1.3461398 0.0018711496 0)
(1.3465947 0.001745411 0)
(1.3470185 0.0016282886 0)
(1.3474135 0.0015191695 0)
(1.3477816 0.0014174876 0)
(1.3481249 0.0013227191 0)
(1.3484449 0.0012343795 0)
(1.3487435 0.0011520199 0)
(1.349022 0.0010752242 0)
(1.3492818 0.001003607 0)
(1.3495242 0.00093681082 0)
(1.3497505 0.00087450406 0)
(1.3499616 0.00081637918 0)
(1.3501587 0.00076215078 0)
(1.3503427 0.00071155355 0)
(1.3505145 0.00066434078 0)
(1.3506748 0.00062028284 0)
(1.3508245 0.00057916575 0)
(1.3509643 0.00054079031 0)
(1.3510948 0.00050497099 0)
(1.3512167 0.00047153537 0)
(1.3513305 0.00044032305 0)
(1.3514368 0.00041118516 0)
(1.3515361 0.00038398311 0)
(1.3516288 0.00035858823 0)
(1.3517153 0.00033487963 0)
(1.3517962 0.00031274524 0)
(1.3518717 0.00029207869 0)
(1.3519422 0.00027278217 0)
(1.3520081 0.00025476189 0)
(1.3520696 0.00023793422 0)
(1.3521271 0.00022221675 0)
(1.3521807 0.00020754003 0)
(1.3522309 0.00019382988 0)
(1.3522777 0.00018103096 0)
(1.3523215 0.00016907117 0)
(1.3523623 0.00015791038 0)
(1.3524005 0.00014747085 0)
(1.352436 0.00013773463 0)
(1.3524694 0.00012860766 0)
(1.3525003 0.00012011116 0)
(1.3525295 0.00011211343 0)
(1.3525563 0.00010470535 0)
(1.3525819 9.7674035e-05 0)
(1.3526051 9.1236291e-05 0)
(1.3526276 8.5014367e-05 0)
(1.3526474 7.9459609e-05 0)
(1.3526675 7.3878479e-05 0)
(1.3526841 6.9161951e-05 0)
(1.3527023 6.4031412e-05 0)
(1.3527156 6.0183845e-05 0)
(1.3527328 5.5288979e-05 0)
(1.3527425 5.2459925e-05 0)
(1.3527598 4.7568219e-05 0)
(1.3527652 4.602826e-05 0)
(1.3527844 4.0896017e-05 0)
(1.0005903 0.0034629154 0)
(1.0136865 0.0093660194 0)
(1.0370283 0.013046806 0)
(1.0674202 0.014563261 0)
(1.1000315 0.014854524 0)
(1.1316428 0.01456499 0)
(1.1610745 0.013888338 0)
(1.1880674 0.012919245 0)
(1.2125205 0.011806506 0)
(1.2343939 0.010696427 0)
(1.2538077 0.0096727425 0)
(1.2710339 0.0087628224 0)
(1.286401 0.0079659737 0)
(1.3002112 0.0072722144 0)
(1.3127102 0.0066688082 0)
(1.3240903 0.0061419247 0)
(1.3345036 0.0056780716 0)
(1.3440716 0.0052653206 0)
(1.3528927 0.0048939351 0)
(1.3610463 0.0045563962 0)
(1.3685975 0.0042470704 0)
(1.3756004 0.0039617766 0)
(1.3821012 0.0036973983 0)
(1.3881402 0.0034515829 0)
(1.3937533 0.0032225186 0)
(1.3989728 0.0030087695 0)
(1.403828 0.0028091573 0)
(1.4083456 0.0026226785 0)
(1.4125503 0.0024484492 0)
(1.4164646 0.0022856706 0)
(1.4201094 0.0021336077 0)
(1.423504 0.0019915768 0)
(1.426666 0.0018589371 0)
(1.4296121 0.0017350868 0)
(1.4323573 0.0016194593 0)
(1.4349159 0.0015115219 0)
(1.4373007 0.001410773 0)
(1.4395241 0.0013167418 0)
(1.441597 0.0012289859 0)
(1.4435301 0.0011470905 0)
(1.4453328 0.0010706668 0)
(1.4470143 0.00099935071 0)
(1.4485827 0.00093280174 0)
(1.4500459 0.00087070142 0)
(1.451411 0.00081275225 0)
(1.4526846 0.00075867643 0)
(1.4538731 0.00070821462 0)
(1.4549822 0.00066112474 0)
(1.4560172 0.00061718077 0)
(1.4569831 0.00057617178 0)
(1.4578847 0.00053790076 0)
(1.4587262 0.00050218387 0)
(1.4595117 0.00046884954 0)
(1.460245 0.00043773767 0)
(1.4609295 0.00040869911 0)
(1.4615685 0.0003815949 0)
(1.4621651 0.00035629558 0)
(1.4627221 0.00033268045 0)
(1.4632422 0.00031063699 0)
(1.4637278 0.00029006024 0)
(1.4641811 0.00027085205 0)
(1.4646045 0.00025292079 0)
(1.4649998 0.00023618084 0)
(1.4653689 0.0002205522 0)
(1.4657136 0.00020596047 0)
(1.4660355 0.0001923364 0)
(1.4663361 0.00017961576 0)
(1.4666168 0.00016773863 0)
(1.466879 0.00015664928 0)
(1.4671238 0.00014629554 0)
(1.4673524 0.0001366287 0)
(1.467566 0.00012760238 0)
(1.4677654 0.00011917409 0)
(1.4679516 0.00011130261 0)
(1.4681256 0.00010395157 0)
(1.468288 9.708463e-05 0)
(1.4684398 9.0672184e-05 0)
(1.4685815 8.4681508e-05 0)
(1.4687138 7.9089374e-05 0)
(1.4688375 7.3863711e-05 0)
(1.4689529 6.8988347e-05 0)
(1.4690608 6.4427379e-05 0)
(1.4691613 6.0175809e-05 0)
(1.4692555 5.6187983e-05 0)
(1.4693431 5.2478822e-05 0)
(1.4694254 4.8982456e-05 0)
(1.4695016 4.5750444e-05 0)
(1.4695736 4.2673838e-05 0)
(1.4696395 3.9870226e-05 0)
(1.4697027 3.7144586e-05 0)
(1.4697595 3.4734918e-05 0)
(1.4698154 3.2284345e-05 0)
(1.4698634 3.0251135e-05 0)
(1.4699138 2.7988173e-05 0)
(1.4699531 2.6344305e-05 0)
(1.4700002 2.4172177e-05 0)
(1.4700296 2.2978778e-05 0)
(1.4700768 2.0796687e-05 0)
(1.4700936 2.0149927e-05 0)
(1.4701466 1.784378e-05 0)
(1.0005903 -0.0034629162 0)
(1.0136865 -0.0093660199 0)
(1.0370283 -0.013046806 0)
(1.0674202 -0.014563261 0)
(1.1000315 -0.014854525 0)
(1.1316428 -0.014564991 0)
(1.1610745 -0.013888338 0)
(1.1880674 -0.012919245 0)
(1.2125205 -0.011806506 0)
(1.2343939 -0.010696426 0)
(1.2538077 -0.0096727419 0)
(1.2710339 -0.0087628222 0)
(1.286401 -0.0079659741 0)
(1.3002112 -0.0072722153 0)
(1.3127102 -0.0066688092 0)
(1.3240903 -0.0061419257 0)
(1.3345036 -0.0056780723 0)
(1.3440716 -0.0052653207 0)
(1.3528927 -0.0048939346 0)
(1.3610463 -0.0045563952 0)
(1.3685975 -0.0042470692 0)
(1.3756004 -0.0039617755 0)
(1.3821012 -0.0036973976 0)
(1.3881402 -0.0034515828 0)
(1.3937533 -0.0032225191 0)
(1.3989728 -0.0030087704 0)
(1.403828 -0.0028091584 0)
(1.4083456 -0.0026226792 0)
(1.4125503 -0.0024484493 0)
(1.4164646 -0.0022856699 0)
(1.4201094 -0.0021336064 0)
(1.423504 -0.0019915751 0)
(1.426666 -0.0018589355 0)
(1.4296121 -0.0017350856 0)
(1.4323573 -0.0016194589 0)
(1.4349159 -0.0015115221 0)
(1.4373007 -0.0014107737 0)
(1.4395241 -0.0013167425 0)
(1.441597 -0.0012289861 0)
(1.4435301 -0.0011470898 0)
(1.4453328 -0.0010706652 0)
(1.4470143 -0.00099934833 0)
(1.4485827 -0.00093279898 0)
(1.4500459 -0.00087069876 0)
(1.451411 -0.00081275018 0)
(1.4526846 -0.00075867516 0)
(1.4538731 -0.00070821402 0)
(1.4549822 -0.00066112442 0)
(1.4560172 -0.00061718015 0)
(1.4569831 -0.00057617029 0)
(1.4578847 -0.00053789811 0)
(1.4587262 -0.00050218004 0)
(1.4595117 -0.0004688449 0)
(1.460245 -0.0004377329 0)
(1.4609295 -0.00040869492 0)
(1.4615685 -0.0003815917 0)
(1.4621651 -0.00035629332 0)
(1.4627221 -0.00033267883 0)
(1.4632422 -0.00031063531 0)
(1.4637278 -0.00029005771 0)
(1.4641812 -0.00027084816 0)
(1.4646045 -0.00025291538 0)
(1.4649998 -0.00023617437 0)
(1.4653689 -0.00022054557 0)
(1.4657136 -0.0002059548 0)
(1.4660355 -0.00019233247 0)
(1.4663361 -0.00017961366 0)
(1.4666168 -0.00016773789 0)
(1.466879 -0.00015664895 0)
(1.4671238 -0.00014629434 0)
(1.4673524 -0.0001366258 0)
(1.467566 -0.00012759769 0)
(1.4677654 -0.00011916832 0)
(1.4679516 -0.00011129723 0)
(1.4681256 -0.00010394823 0)
(1.4682881 -9.7084794e-05 0)
(1.4684398 -9.0675976e-05 0)
(1.4685815 -8.4688231e-05 0)
(1.4687138 -7.9097498e-05 0)
(1.4688375 -7.3871398e-05 0)
(1.4689529 -6.8994593e-05 0)
(1.4690608 -6.4431987e-05 0)
(1.4691614 -6.0179685e-05 0)
(1.4692555 -5.6192926e-05 0)
(1.4693431 -5.2486892e-05 0)
(1.4694254 -4.8994972e-05 0)
(1.4695016 -4.5767365e-05 0)
(1.4695736 -4.2694135e-05 0)
(1.4696395 -3.9891556e-05 0)
(1.4697027 -3.7164804e-05 0)
(1.4697595 -3.4752336e-05 0)
(1.4698154 -3.2298706e-05 0)
(1.4698634 -3.0263428e-05 0)
(1.4699138 -2.7999793e-05 0)
(1.4699531 -2.6357264e-05 0)
(1.4700002 -2.4185992e-05 0)
(1.4700296 -2.2992398e-05 0)
(1.4700768 -2.0806475e-05 0)
(1.4700936 -2.0155853e-05 0)
(1.4701466 -1.7838809e-05 0)
(1.0007347 -0.011814722 0)
(1.0178472 -0.030860927 0)
(1.0462163 -0.041434441 0)
(1.0799018 -0.04519357 0)
(1.1132664 -0.045502351 0)
(1.143782 -0.044080308 0)
(1.1708941 -0.041439982 0)
(1.1945687 -0.037973677 0)
(1.2148582 -0.034195728 0)
(1.2319652 -0.030536886 0)
(1.2462683 -0.027222045 0)
(1.2582339 -0.024313921 0)
(1.2683135 -0.021797889 0)
(1.2768875 -0.019633661 0)
(1.2842554 -0.017773827 0)
(1.2906479 -0.016169652 0)
(1.296243 -0.014775589 0)
(1.3011791 -0.013552296 0)
(1.3055645 -0.012467863 0)
(1.3094838 -0.011497465 0)
(1.3130042 -0.010622161 0)
(1.3161792 -0.0098275135 0)
(1.3190526 -0.0091024116 0)
(1.3216607 -0.0084381775 0)
(1.3240343 -0.0078279045 0)
(1.3261995 -0.0072659747 0)
(1.3281786 -0.0067477085 0)
(1.3299913 -0.0062691161 0)
(1.3316544 -0.0058267266 0)
(1.3331829 -0.0054174724 0)
(1.3345896 -0.0050386116 0)
(1.3358862 -0.0046876734 0)
(1.3370827 -0.0043624196 0)
(1.3381883 -0.0040608151 0)
(1.3392108 -0.0037810051 0)
(1.3401576 -0.0035212957 0)
(1.3410349 -0.0032801387 0)
(1.3418486 -0.0030561171 0)
(1.3426038 -0.0028479328 0)
(1.3433051 -0.002654396 0)
(1.3439569 -0.0024744143 0)
(1.3445629 -0.0023069848 0)
(1.3451267 -0.0021511851 0)
(1.3456513 -0.0020061669 0)
(1.3461398 -0.0018711486 0)
(1.3465947 -0.0017454103 0)
(1.3470185 -0.0016282879 0)
(1.3474135 -0.0015191686 0)
(1.3477816 -0.001417486 0)
(1.3481249 -0.0013227169 0)
(1.3484449 -0.0012343766 0)
(1.3487435 -0.0011520165 0)
(1.349022 -0.0010752209 0)
(1.3492818 -0.001003604 0)
(1.3495242 -0.00093680831 0)
(1.3497505 -0.00087450202 0)
(1.3499617 -0.0008163774 0)
(1.3501587 -0.00076214874 0)
(1.3503427 -0.00071155086 0)
(1.3505145 -0.00066433723 0)
(1.3506748 -0.00062027844 0)
(1.3508245 -0.00057916092 0)
(1.3509643 -0.00054078559 0)
(1.3510949 -0.00050496694 0)
(1.3512167 -0.00047153229 0)
(1.3513306 -0.0004403209 0)
(1.3514368 -0.00041118366 0)
(1.3515361 -0.00038398162 0)
(1.3516288 -0.00035858608 0)
(1.3517153 -0.00033487658 0)
(1.3517962 -0.00031274131 0)
(1.3518717 -0.00029207446 0)
(1.3519422 -0.00027277857 0)
(1.3520081 -0.00025475989 0)
(1.3520696 -0.00023793445 0)
(1.3521271 -0.00022221908 0)
(1.3521808 -0.00020754415 0)
(1.3522309 -0.00019383484 0)
(1.3522777 -0.00018103586 0)
(1.3523215 -0.00016907561 0)
(1.3523623 -0.00015791433 0)
(1.3524005 -0.00014747507 0)
(1.352436 -0.00013774018 0)
(1.3524694 -0.00012861546 0)
(1.3525004 -0.00012012158 0)
(1.3525295 -0.00011212643 0)
(1.3525564 -0.00010472016 0)
(1.3525819 -9.7689672e-05 0)
(1.3526051 -9.1251598e-05 0)
(1.3526276 -8.5028857e-05 0)
(1.3526474 -7.9473142e-05 0)
(1.3526675 -7.3891235e-05 0)
(1.352684 -6.9175044e-05 0)
(1.3527023 -6.4044497e-05 0)
(1.3527156 -6.0197797e-05 0)
(1.3527328 -5.5302166e-05 0)
(1.3527425 -5.2472084e-05 0)
(1.3527597 -4.7577002e-05 0)
(1.3527652 -4.603374e-05 0)
(1.3527844 -4.0896182e-05 0)
(1.0014244 -0.026824855 0)
(1.0291272 -0.062791352 0)
(1.0654292 -0.077736553 0)
(1.098962 -0.0805972 0)
(1.1253149 -0.078285171 0)
(1.145053 -0.073153899 0)
(1.1594858 -0.066111277 0)
(1.1694287 -0.058162062 0)
(1.1755354 -0.050296754 0)
(1.1785738 -0.043150709 0)
(1.1793571 -0.036972826 0)
(1.178595 -0.031771633 0)
(1.1768304 -0.02745184 0)
(1.1744518 -0.023886768 0)
(1.1717287 -0.020947619 0)
(1.1688444 -0.018515779 0)
(1.1659195 -0.016488084 0)
(1.1630317 -0.014779502 0)
(1.1602295 -0.013322985 0)
(1.1575415 -0.012067133 0)
(1.1549828 -0.010973001 0)
(1.1525601 -0.010011063 0)
(1.1502747 -0.0091587475 0)
(1.1481246 -0.0083986044 0)
(1.1461059 -0.0077169501 0)
(1.1442134 -0.0071028873 0)
(1.1424414 -0.0065475907 0)
(1.1407838 -0.0060437944 0)
(1.1392344 -0.0055854255 0)
(1.1377869 -0.0051673445 0)
(1.1364353 -0.0047851574 0)
(1.1351738 -0.004435077 0)
(1.1339968 -0.0041138176 0)
(1.1328987 -0.0038185134 0)
(1.1318746 -0.0035466531 0)
(1.1309195 -0.0032960267 0)
(1.1300289 -0.0030646823 0)
(1.1291985 -0.0028508894 0)
(1.1284242 -0.0026531091 0)
(1.1277022 -0.0024699677 0)
(1.1270291 -0.0023002351 0)
(1.1264014 -0.002142807 0)
(1.1258161 -0.0019966885 0)
(1.1252702 -0.0018609811 0)
(1.1247612 -0.0017348713 0)
(1.1242865 -0.0016176206 0)
(1.1238437 -0.0015085568 0)
(1.1234307 -0.001407067 0)
(1.1230455 -0.0013125903 0)
(1.1226861 -0.001224613 0)
(1.1223509 -0.0011426632 0)
(1.1220381 -0.0010663068 0)
(1.1217462 -0.00099514438 0)
(1.1214739 -0.00092880759 0)
(1.1212198 -0.00086695686 0)
(1.1209827 -0.00080927887 0)
(1.1207614 -0.00075548412 0)
(1.1205548 -0.00070530466 0)
(1.1203621 -0.00065849216 0)
(1.1201821 -0.00061481586 0)
(1.1200142 -0.00057406114 0)
(1.1198574 -0.00053602829 0)
(1.1197111 -0.00050053149 0)
(1.1195745 -0.00046739831 0)
(1.1194469 -0.00043646885 0)
(1.1193279 -0.00040759499 0)
(1.1192167 -0.00038063965 0)
(1.1191129 -0.00035547498 0)
(1.119016 -0.00033198223 0)
(1.1189255 -0.00031004946 0)
(1.118841 -0.00028957228 0)
(1.1187621 -0.00027045165 0)
(1.1186885 -0.0002525963 0)
(1.1186197 -0.00023591961 0)
(1.1185555 -0.00022034431 0)
(1.1184955 -0.00020579553 0)
(1.1184394 -0.00019220963 0)
(1.1183871 -0.00017951956 0)
(1.1183383 -0.00016767273 0)
(1.1182927 -0.00015660392 0)
(1.1182501 -0.00014627136 0)
(1.1182103 -0.00013660684 0)
(1.1181731 -0.00012758611 0)
(1.1181385 -0.00011913245 0)
(1.118106 -0.00011125157 0)
(1.1180758 -0.00010384437 0)
(1.1180475 -9.696492e-05 0)
(1.1180213 -9.0460873e-05 0)
(1.1179965 -8.4468379e-05 0)
(1.1179737 -7.8726813e-05 0)
(1.1179521 -7.3525631e-05 0)
(1.1179324 -6.8398725e-05 0)
(1.1179134 -6.3929905e-05 0)
(1.1178964 -5.9263912e-05 0)
(1.11788 -5.5543257e-05 0)
(1.1178648 -5.1172827e-05 0)
(1.1178514 -4.8343315e-05 0)
(1.1178368 -4.4092691e-05 0)
(1.1178281 -4.249727e-05 0)
(1.117811 -3.8284067e-05 0)
(1.0016583 -0.05381943 0)
(1.0359761 -0.10128444 0)
(1.0597199 -0.11073663 0)
(1.0628947 -0.10592202 0)
(1.0515569 -0.096228728 0)
(1.0340529 -0.08393406 0)
(1.0142795 -0.070327062 0)
(0.99360703 -0.056981333 0)
(0.97292577 -0.04510748 0)
(0.9531074 -0.035236751 0)
(0.93479539 -0.027401651 0)
(0.91829012 -0.021387228 0)
(0.90362379 -0.016884498 0)
(0.89068067 -0.013569708 0)
(0.87928174 -0.011147747 0)
(0.86923241 -0.009373658 0)
(0.86034423 -0.0080569281 0)
(0.85244667 -0.0070571281 0)
(0.84539242 -0.0062752395 0)
(0.83905793 -0.0056438297 0)
(0.83334126 -0.0051180917 0)
(0.82815884 -0.0046686722 0)
(0.82344212 -0.0042764165 0)
(0.81913467 -0.0039287374 0)
(0.81518961 -0.0036172021 0)
(0.81156765 -0.0033359693 0)
(0.80823544 -0.0030808035 0)
(0.8051644 -0.0028484692 0)
(0.80232979 -0.00263637 0)
(0.79970999 -0.0024423394 0)
(0.79728597 -0.0022645195 0)
(0.79504086 -0.0021012901 0)
(0.79295963 -0.0019512249 0)
(0.7910288 -0.001813062 0)
(0.78923627 -0.0016856823 0)
(0.7875711 -0.0015680914 0)
(0.78602338 -0.0014594051 0)
(0.78458412 -0.0013588359 0)
(0.78324511 -0.0012656812 0)
(0.78199889 -0.0011793129 0)
(0.78083861 -0.0010991682 0)
(0.77975799 -0.0010247418 0)
(0.77875128 -0.00095557831 0)
(0.77781318 -0.00089126681 0)
(0.77693881 -0.00083143496 0)
(0.77612368 -0.00077574459 0)
(0.77536363 -0.00072388751 0)
(0.77465481 -0.00067558207 0)
(0.77399368 -0.00063057012 0)
(0.77337694 -0.00058861459 0)
(0.77280154 -0.00054949743 0)
(0.77226465 -0.00051301781 0)
(0.77176364 -0.00047899078 0)
(0.77129607 -0.00044724584 0)
(0.77085967 -0.00041762566 0)
(0.77045234 -0.00038998488 0)
(0.77007212 -0.00036418869 0)
(0.76971718 -0.00034011187 0)
(0.76938582 -0.0003176377 0)
(0.76907645 -0.0002966573 0)
(0.76878761 -0.00027706921 0)
(0.76851793 -0.00025877897 0)
(0.76826611 -0.00024169916 0)
(0.76803097 -0.00022574882 0)
(0.7678114 -0.00021085319 0)
(0.76760636 -0.00019694299 0)
(0.76741489 -0.0001839536 0)
(0.76723609 -0.00017182435 0)
(0.76706911 -0.00016049805 0)
(0.76691317 -0.00014992044 0)
(0.76676753 -0.00014004083 0)
(0.76663151 -0.00013081139 0)
(0.76650447 -0.00012218884 0)
(0.76638582 -0.00011413265 0)
(0.76627501 -0.00010660713 0)
(0.76617151 -9.9577636e-05 0)
(0.76607485 -9.3014019e-05 0)
(0.76598458 -8.6883801e-05 0)
(0.76590027 -8.1160365e-05 0)
(0.76582152 -7.5810997e-05 0)
(0.76574797 -7.0814282e-05 0)
(0.76567929 -6.6137471e-05 0)
(0.76561512 -6.1768951e-05 0)
(0.76555523 -5.7674437e-05 0)
(0.76549927 -5.3856064e-05 0)
(0.76544708 -5.0270485e-05 0)
(0.76539829 -4.6937909e-05 0)
(0.76535285 -4.3792959e-05 0)
(0.76531033 -4.0884984e-05 0)
(0.7652708 -3.8110385e-05 0)
(0.76523378 -3.5571275e-05 0)
(0.76519942 -3.3102512e-05 0)
(0.76516727 -3.0895681e-05 0)
(0.76513737 -2.868512e-05 0)
(0.76510972 -2.6802144e-05 0)
(0.76508333 -2.4823931e-05 0)
(0.76506043 -2.3296953e-05 0)
(0.76503556 -2.1590221e-05 0)
(0.76501976 -2.0587623e-05 0)
(0.76499065 -1.9590538e-05 0)
(0.91890839 -0.035821913 0)
(0.86271384 -0.062195638 0)
(0.7870597 -0.06251009 0)
(0.69536033 -0.054550395 0)
(0.61089745 -0.044531651 0)
(0.54411592 -0.034015971 0)
(0.49343012 -0.024187539 0)
(0.45479414 -0.01614423 0)
(0.42544582 -0.010265786 0)
(0.40347313 -0.0063041459 0)
(0.38715766 -0.0037976296 0)
(0.3749622 -0.0023103378 0)
(0.36566192 -0.0014930142 0)
(0.35836272 -0.0010851175 0)
(0.35244268 -0.00090607187 0)
(0.34748201 -0.00084105173 0)
(0.34320348 -0.00082372457 0)
(0.33942726 -0.0008193111 0)
(0.33603793 -0.00081185269 0)
(0.33296114 -0.00079580168 0)
(0.33014778 -0.00077081154 0)
(0.32756384 -0.00073870916 0)
(0.3251842 -0.00070188872 0)
(0.32298902 -0.00066256502 0)
(0.32096172 -0.0006224991 0)
(0.31908785 -0.00058295732 0)
(0.31735449 -0.00054477185 0)
(0.31574996 -0.00050843474 0)
(0.3142636 -0.00047419229 0)
(0.31288574 -0.00044212517 0)
(0.31160755 -0.00041220968 0)
(0.31042101 -0.0003843614 0)
(0.30931883 -0.00035846433 0)
(0.30829438 -0.00033438943 0)
(0.30734165 -0.00031200583 0)
(0.30645516 -0.00029118707 0)
(0.30562991 -0.00027181423 0)
(0.30486137 -0.00025377729 0)
(0.30414535 -0.00023697525 0)
(0.30347807 -0.00022131585 0)
(0.30285601 -0.00020671493 0)
(0.30227596 -0.0001930957 0)
(0.30173496 -0.00018038803 0)
(0.30123029 -0.00016852769 0)
(0.30075942 -0.00015745569 0)
(0.30032002 -0.0001471177 0)
(0.29990993 -0.00013746343 0)
(0.29952715 -0.00012844633 0)
(0.29916983 -0.00012002315 0)
(0.29883624 -0.00011215377 0)
(0.29852478 -0.00010480098 0)
(0.29823397 -9.7930269e-05 0)
(0.29796241 -9.1509772e-05 0)
(0.29770882 -8.5509923e-05 0)
(0.29747201 -7.9903284e-05 0)
(0.29725085 -7.4664253e-05 0)
(0.2970443 -6.9768775e-05 0)
(0.29685138 -6.5194238e-05 0)
(0.2966712 -6.0919306e-05 0)
(0.29650291 -5.6923978e-05 0)
(0.29634572 -5.3189637e-05 0)
(0.2961989 -4.9699041e-05 0)
(0.29606176 -4.6436409e-05 0)
(0.29593366 -4.3387185e-05 0)
(0.29581401 -4.0537922e-05 0)
(0.29570225 -3.7875982e-05 0)
(0.29559785 -3.5389291e-05 0)
(0.29550032 -3.3066261e-05 0)
(0.29540923 -3.089575e-05 0)
(0.29532413 -2.886718e-05 0)
(0.29524464 -2.6970852e-05 0)
(0.29517039 -2.5197851e-05 0)
(0.29510102 -2.3540471e-05 0)
(0.29503623 -2.1991575e-05 0)
(0.29497571 -2.0544942e-05 0)
(0.29491918 -1.9194142e-05 0)
(0.29486637 -1.7933322e-05 0)
(0.29481704 -1.6755686e-05 0)
(0.29477095 -1.5655695e-05 0)
(0.2947279 -1.4626445e-05 0)
(0.29468769 -1.3664104e-05 0)
(0.29465013 -1.2762362e-05 0)
(0.29461505 -1.19202e-05 0)
(0.29458229 -1.1130992e-05 0)
(0.29455169 -1.0396453e-05 0)
(0.29452313 -9.7070204e-06 0)
(0.29449644 -9.0675838e-06 0)
(0.29447155 -8.4630492e-06 0)
(0.29444828 -7.9045319e-06 0)
(0.29442661 -7.3695533e-06 0)
(0.29440635 -6.8805685e-06 0)
(0.2943875 -6.4051899e-06 0)
(0.2943699 -5.980775e-06 0)
(0.29435352 -5.5631136e-06 0)
(0.29433828 -5.2005844e-06 0)
(0.29432397 -4.8527141e-06 0)
(0.29431094 -4.5520119e-06 0)
(0.29429798 -4.3506282e-06 0)
(0.29428758 -4.1864633e-06 0)
(0.29427241 -4.6522322e-06 0)
)
;

boundaryField
{
    top
    {
        type            fixedValue;
        value           uniform (0 0 0);
    }
    inlet
    {
        type            fixedValue;
        value           uniform (1 0 0);
    }
    outlet
    {
        type            zeroGradient;
    }
    bottom
    {
        type            fixedValue;
        value           uniform (0 0 0);
    }
    back
    {
        type            empty;
    }
    front
    {
        type            empty;
    }
}


// ************************************************************************* //
