/*--------------------------------*- C++ -*----------------------------------*\
| =========                 |                                                 |
| \\      /  F ield         | OpenFOAM: The Open Source CFD Toolbox           |
|  \\    /   O peration     | Version:  v1812                                 |
|   \\  /    A nd           | Web:      www.OpenFOAM.com                      |
|    \\/     M anipulation  |                                                 |
\*---------------------------------------------------------------------------*/
FoamFile
{
    version     2.0;
    format      ascii;
    class       volVectorField;
    location    "8";
    object      U;
}
// * * * * * * * * * * * * * * * * * * * * * * * * * * * * * * * * * * * * * //

dimensions      [0 1 -1 0 0 0 0];


internalField   nonuniform List<vector> 
1000
(
(0.91890839 0.035821913 0)
(0.86271384 0.062195638 0)
(0.7870597 0.06251009 0)
(0.69536033 0.054550395 0)
(0.61089745 0.044531651 0)
(0.54411592 0.034015971 0)
(0.49343012 0.024187539 0)
(0.45479413 0.016144229 0)
(0.42544582 0.010265785 0)
(0.40347313 0.0063041453 0)
(0.38715766 0.0037976296 0)
(0.3749622 0.0023103383 0)
(0.36566192 0.001493015 0)
(0.35836272 0.0010851183 0)
(0.35244268 0.00090607237 0)
(0.34748201 0.00084105176 0)
(0.34320348 0.00082372414 0)
(0.33942726 0.00081931037 0)
(0.33603793 0.00081185194 0)
(0.33296114 0.0007958012 0)
(0.33014778 0.00077081153 0)
(0.32756384 0.00073870966 0)
(0.3251842 0.00070188959 0)
(0.32298902 0.000662566 0)
(0.32096172 0.00062249991 0)
(0.31908785 0.00058295772 0)
(0.31735449 0.00054477174 0)
(0.31574995 0.00050843421 0)
(0.3142636 0.00047419158 0)
(0.31288574 0.00044212459 0)
(0.31160755 0.00041220955 0)
(0.310421 0.00038436191 0)
(0.30931882 0.00035846548 0)
(0.30829437 0.00033439106 0)
(0.30734164 0.00031200766 0)
(0.30645514 0.00029118879 0)
(0.3056299 0.00027181567 0)
(0.30486135 0.00025377849 0)
(0.30414534 0.0002369765 0)
(0.30347805 0.00022131768 0)
(0.30285598 0.00020671798 0)
(0.30227593 0.00019310059 0)
(0.30173492 0.00018039522 0)
(0.30123024 0.00016853738 0)
(0.30075936 0.00015746786 0)
(0.30031994 0.0001471321 0)
(0.29990984 0.00013747976 0)
(0.29952704 0.00012846424 0)
(0.2991697 0.00012004231 0)
(0.29883609 0.00011217371 0)
(0.29852462 0.00010482082 0)
(0.2982338 9.7948408e-05 0)
(0.29796225 9.1523358e-05 0)
(0.29770869 8.5514504e-05 0)
(0.29747194 7.9892535e-05 0)
(0.29725091 7.4629743e-05 0)
(0.29704456 6.9700114e-05 0)
(0.29685196 6.5079037e-05 0)
(0.29667224 6.0743451e-05 0)
(0.29650458 5.667153e-05 0)
(0.29634824 5.2842919e-05 0)
(0.29620255 4.9238439e-05 0)
(0.29606686 4.5840466e-05 0)
(0.29594061 4.2632558e-05 0)
(0.29582326 3.9600084e-05 0)
(0.29571432 3.67297e-05 0)
(0.29561333 3.4010032e-05 0)
(0.29551987 3.1431035e-05 0)
(0.29543355 2.8984511e-05 0)
(0.29535398 2.6663403e-05 0)
(0.29528083 2.4462177e-05 0)
(0.29521376 2.2376066e-05 0)
(0.29515245 2.0401636e-05 0)
(0.29509658 1.8535891e-05 0)
(0.29504586 1.6777043e-05 0)
(0.29499999 1.512358e-05 0)
(0.29495867 1.3574794e-05 0)
(0.29492161 1.2129934e-05 0)
(0.29488851 1.0788257e-05 0)
(0.29485908 9.548493e-06 0)
(0.29483306 8.4087869e-06 0)
(0.29481015 7.3664024e-06 0)
(0.29479011 6.4181577e-06 0)
(0.29477267 5.5601291e-06 0)
(0.29475758 4.7884816e-06 0)
(0.29474461 4.098908e-06 0)
(0.29473351 3.4872791e-06 0)
(0.29472408 2.9488852e-06 0)
(0.2947161 2.4789961e-06 0)
(0.2947094 2.071636e-06 0)
(0.29470379 1.7216061e-06 0)
(0.29469915 1.4215201e-06 0)
(0.29469532 1.1674008e-06 0)
(0.29469219 9.5108453e-07 0)
(0.29468965 7.7229305e-07 0)
(0.29468761 6.2167922e-07 0)
(0.29468595 5.0405275e-07 0)
(0.29468462 4.0747552e-07 0)
(0.29468356 3.406583e-07 0)
(0.29468255 2.8668042e-07 0)
(1.0016583 0.05381943 0)
(1.0359761 0.10128444 0)
(1.0597199 0.11073663 0)
(1.0628947 0.10592202 0)
(1.0515569 0.096228728 0)
(1.0340529 0.083934061 0)
(1.0142795 0.070327063 0)
(0.99360703 0.056981333 0)
(0.97292577 0.045107479 0)
(0.95310739 0.03523675 0)
(0.93479538 0.02740165 0)
(0.91829012 0.021387228 0)
(0.90362379 0.016884499 0)
(0.89068067 0.013569709 0)
(0.87928174 0.011147749 0)
(0.86923242 0.009373659 0)
(0.86034423 0.0080569284 0)
(0.85244667 0.0070571276 0)
(0.84539241 0.0062752385 0)
(0.83905793 0.0056438287 0)
(0.83334126 0.0051180911 0)
(0.82815883 0.0046686725 0)
(0.82344212 0.0042764176 0)
(0.81913466 0.0039287391 0)
(0.81518961 0.003617204 0)
(0.81156765 0.003335971 0)
(0.80823544 0.0030808046 0)
(0.8051644 0.0028484695 0)
(0.80232979 0.0026363698 0)
(0.79970998 0.0024423391 0)
(0.79728596 0.0022645195 0)
(0.79504085 0.002101291 0)
(0.79295961 0.001951227 0)
(0.79102879 0.0018130654 0)
(0.78923626 0.0016856865 0)
(0.78757108 0.001568096 0)
(0.78602336 0.0014594096 0)
(0.7845841 0.00135884 0)
(0.78324509 0.0012656851 0)
(0.78199886 0.0011793172 0)
(0.78083857 0.0010991738 0)
(0.77975795 0.0010247496 0)
(0.77875123 0.00095558899 0)
(0.77781312 0.0008912805 0)
(0.77693875 0.00083145097 0)
(0.77612362 0.00077576122 0)
(0.77536357 0.00072390195 0)
(0.77465476 0.00067559028 0)
(0.77399366 0.00063056658 0)
(0.77337696 0.00058859181 0)
(0.77280163 0.00054944514 0)
(0.77226485 0.00051292185 0)
(0.77176401 0.00047883169 0)
(0.77129669 0.00044699734 0)
(0.77086065 0.00041725324 0)
(0.77045383 0.00038944454 0)
(0.77007431 0.00036342629 0)
(0.7697203 0.0003390627 0)
(0.76939018 0.00031622668 0)
(0.76908244 0.00029479929 0)
(0.76879567 0.00027466965 0)
(0.76852861 0.00025573473 0)
(0.76828006 0.0002378995 0)
(0.76804895 0.00022107698 0)
(0.76783427 0.00020518862 0)
(0.7676351 0.00019016426 0)
(0.76745058 0.0001759425 0)
(0.76727993 0.00016247018 0)
(0.76712239 0.00014970239 0)
(0.76697727 0.00013760155 0)
(0.76684391 0.00012613699 0)
(0.76672169 0.00011528391 0)
(0.76661 0.00010502291 0)
(0.76650827 9.5339e-05 0)
(0.76641593 8.6221123e-05 0)
(0.76633243 7.766097e-05 0)
(0.76625721 6.9652335e-05 0)
(0.76618975 6.2189331e-05 0)
(0.7661295 5.5265693e-05 0)
(0.76607595 4.8873044e-05 0)
(0.76602857 4.3000644e-05 0)
(0.76598688 3.763452e-05 0)
(0.76595039 3.2758129e-05 0)
(0.76591863 2.8352082e-05 0)
(0.76589113 2.439573e-05 0)
(0.76586748 2.0865828e-05 0)
(0.76584724 1.7739108e-05 0)
(0.76583002 1.4988609e-05 0)
(0.76581546 1.258858e-05 0)
(0.76580322 1.0507325e-05 0)
(0.76579299 8.7183972e-06 0)
(0.76578452 7.1857058e-06 0)
(0.76577752 5.8887988e-06 0)
(0.76577182 4.7872413e-06 0)
(0.76576716 3.8772551e-06 0)
(0.76576342 3.1060644e-06 0)
(0.7657604 2.5043572e-06 0)
(0.76575794 1.9757085e-06 0)
(0.76575614 1.643201e-06 0)
(0.76575419 1.2381849e-06 0)
(1.0014244 0.026824855 0)
(1.0291272 0.062791352 0)
(1.0654292 0.077736553 0)
(1.098962 0.0805972 0)
(1.1253149 0.078285171 0)
(1.145053 0.073153899 0)
(1.1594858 0.066111278 0)
(1.1694287 0.058162063 0)
(1.1755354 0.050296754 0)
(1.1785738 0.043150708 0)
(1.1793571 0.036972825 0)
(1.1785949 0.031771632 0)
(1.1768304 0.02745184 0)
(1.1744518 0.023886768 0)
(1.1717287 0.02094762 0)
(1.1688444 0.018515781 0)
(1.1659195 0.016488085 0)
(1.1630317 0.014779503 0)
(1.1602295 0.013322985 0)
(1.1575415 0.012067133 0)
(1.1549828 0.010973001 0)
(1.1525601 0.010011062 0)
(1.1502747 0.0091587478 0)
(1.1481246 0.0083986054 0)
(1.1461059 0.0077169517 0)
(1.1442134 0.0071028894 0)
(1.1424414 0.006547593 0)
(1.1407838 0.0060437966 0)
(1.1392344 0.0055854276 0)
(1.1377869 0.0051673465 0)
(1.1364353 0.0047851594 0)
(1.1351738 0.0044350793 0)
(1.1339968 0.0041138206 0)
(1.1328987 0.0038185174 0)
(1.1318746 0.0035466583 0)
(1.1309195 0.003296033 0)
(1.1300289 0.0030646895 0)
(1.1291985 0.0028508976 0)
(1.1284242 0.0026531181 0)
(1.1277022 0.0024699775 0)
(1.127029 0.0023002461 0)
(1.1264013 0.0021428197 0)
(1.125816 0.0019967031 0)
(1.1252702 0.0018609976 0)
(1.1247612 0.0017348888 0)
(1.1242865 0.0016176368 0)
(1.1238437 0.0015085679 0)
(1.1234307 0.0014070665 0)
(1.1230455 0.0013125688 0)
(1.1226862 0.0012245568 0)
(1.122351 0.0011425536 0)
(1.1220382 0.0010661183 0)
(1.1217465 0.0009948429 0)
(1.1214742 0.00092834823 0)
(1.1212203 0.00086628146 0)
(1.1209834 0.00080831368 0)
(1.1207624 0.0007541376 0)
(1.1205562 0.00070346606 0)
(1.1203639 0.00065603031 0)
(1.1201846 0.00061157925 0)
(1.1200174 0.0005698784 0)
(1.1198616 0.00053070978 0)
(1.1197164 0.00049387145 0)
(1.1195813 0.00045917795 0)
(1.1194555 0.00042646011 0)
(1.1193386 0.00039556568 0)
(1.11923 0.0003663591 0)
(1.1191293 0.00033872159 0)
(1.1190359 0.00031255053 0)
(1.1189495 0.00028775885 0)
(1.1188698 0.00026427385 0)
(1.1187963 0.00024203618 0)
(1.1187287 0.00022099825 0)
(1.1186667 0.00020112306 0)
(1.11861 0.00018238238 0)
(1.1185583 0.00016475497 0)
(1.1185114 0.0001482247 0)
(1.1184689 0.00013277773 0)
(1.1184305 0.00011840095 0)
(1.1183961 0.00010507902 0)
(1.1183653 9.2793608e-05 0)
(1.1183379 8.1521403e-05 0)
(1.1183136 7.1234761e-05 0)
(1.1182922 6.1900396e-05 0)
(1.1182735 5.3481778e-05 0)
(1.1182572 4.5936207e-05 0)
(1.118243 3.9219969e-05 0)
(1.1182308 3.3281062e-05 0)
(1.1182204 2.8070438e-05 0)
(1.1182115 2.3525923e-05 0)
(1.1182039 1.959871e-05 0)
(1.1181976 1.621494e-05 0)
(1.1181923 1.3341324e-05 0)
(1.1181879 1.088322e-05 0)
(1.1181843 8.8550992e-06 0)
(1.1181813 7.1014424e-06 0)
(1.1181789 5.761786e-06 0)
(1.1181769 4.4933645e-06 0)
(1.1181755 3.7764766e-06 0)
(1.1181738 2.7215211e-06 0)
(1.0007347 0.011814722 0)
(1.0178472 0.030860927 0)
(1.0462163 0.041434441 0)
(1.0799018 0.04519357 0)
(1.1132664 0.045502351 0)
(1.143782 0.044080308 0)
(1.1708941 0.041439982 0)
(1.1945687 0.037973678 0)
(1.2148582 0.034195729 0)
(1.2319652 0.030536887 0)
(1.2462683 0.027222045 0)
(1.2582339 0.024313921 0)
(1.2683135 0.021797888 0)
(1.2768875 0.01963366 0)
(1.2842554 0.017773827 0)
(1.2906479 0.016169652 0)
(1.296243 0.01477559 0)
(1.3011791 0.013552298 0)
(1.3055645 0.012467864 0)
(1.3094838 0.011497467 0)
(1.3130042 0.010622163 0)
(1.3161792 0.0098275145 0)
(1.3190526 0.0091024124 0)
(1.3216607 0.0084381783 0)
(1.3240343 0.0078279054 0)
(1.3261995 0.007265976 0)
(1.3281786 0.0067477104 0)
(1.3299913 0.0062691186 0)
(1.3316544 0.0058267298 0)
(1.3331829 0.0054174762 0)
(1.3345896 0.0050386159 0)
(1.3358862 0.004687678 0)
(1.3370827 0.0043624245 0)
(1.3381882 0.0040608204 0)
(1.3392108 0.0037810107 0)
(1.3401576 0.0035213021 0)
(1.3410349 0.0032801461 0)
(1.3418486 0.0030561259 0)
(1.3426038 0.0028479433 0)
(1.3433051 0.0026544083 0)
(1.3439569 0.0024744285 0)
(1.3445629 0.0023070008 0)
(1.3451267 0.0021512026 0)
(1.3456513 0.0020061853 0)
(1.3461398 0.0018711669 0)
(1.3465947 0.0017454267 0)
(1.3470185 0.0016282994 0)
(1.3474135 0.0015191701 0)
(1.3477816 0.00141747 0)
(1.3481248 0.0013226718 0)
(1.3484449 0.0012342862 0)
(1.3487433 0.0011518584 0)
(1.3490217 0.0010749646 0)
(1.3492814 0.0010032098 0)
(1.3495237 0.00093622505 0)
(1.3497496 0.00087366509 0)
(1.3499604 0.00081520666 0)
(1.350157 0.00076054693 0)
(1.3503403 0.00070940174 0)
(1.3505111 0.00066150493 0)
(1.3506702 0.0006166071 0)
(1.3508183 0.00057447557 0)
(1.3509562 0.00053489361 0)
(1.3510843 0.00049766102 0)
(1.3512032 0.0004625935 0)
(1.3513134 0.00042952367 0)
(1.3514155 0.00039830023 0)
(1.3515097 0.00036878889 0)
(1.3515966 0.00034087117 0)
(1.3516765 0.00031444481 0)
(1.3517498 0.0002894222 0)
(1.3518168 0.00026573029 0)
(1.3518778 0.00024330869 0)
(1.3519333 0.00022210932 0)
(1.3519834 0.00020209394 0)
(1.3520286 0.0001832335 0)
(1.3520691 0.00016550502 0)
(1.3521052 0.00014889032 0)
(1.3521373 0.00013337314 0)
(1.3521657 0.00011893729 0)
(1.3521906 0.00010556518 0)
(1.3522123 9.3235798e-05 0)
(1.3522312 8.1925036e-05 0)
(1.3522475 7.1603516e-05 0)
(1.3522615 6.2239039e-05 0)
(1.3522734 5.3792736e-05 0)
(1.3522835 4.6224868e-05 0)
(1.352292 3.9485494e-05 0)
(1.3522991 3.3530007e-05 0)
(1.352305 2.8294543e-05 0)
(1.3523098 2.3738014e-05 0)
(1.3523138 1.9776136e-05 0)
(1.3523169 1.6393623e-05 0)
(1.3523196 1.3463473e-05 0)
(1.3523216 1.1048013e-05 0)
(1.3523234 8.9065505e-06 0)
(1.3523245 7.3023338e-06 0)
(1.3523258 5.6930174e-06 0)
(1.3523262 4.8389227e-06 0)
(1.3523273 3.4569439e-06 0)
(1.0005903 0.0034629158 0)
(1.0136865 0.0093660197 0)
(1.0370283 0.013046806 0)
(1.0674202 0.014563261 0)
(1.1000315 0.014854525 0)
(1.1316428 0.014564991 0)
(1.1610745 0.013888338 0)
(1.1880674 0.012919245 0)
(1.2125205 0.011806506 0)
(1.2343939 0.010696427 0)
(1.2538077 0.0096727423 0)
(1.2710339 0.0087628223 0)
(1.286401 0.0079659739 0)
(1.3002112 0.0072722148 0)
(1.3127102 0.0066688087 0)
(1.3240903 0.0061419255 0)
(1.3345036 0.0056780725 0)
(1.3440716 0.0052653214 0)
(1.3528927 0.0048939358 0)
(1.3610463 0.0045563968 0)
(1.3685975 0.004247071 0)
(1.3756004 0.0039617773 0)
(1.3821012 0.0036973991 0)
(1.3881402 0.003451584 0)
(1.3937533 0.0032225201 0)
(1.3989728 0.0030087715 0)
(1.403828 0.0028091598 0)
(1.4083456 0.0026226814 0)
(1.4125503 0.0024484524 0)
(1.4164646 0.0022856741 0)
(1.4201094 0.0021336115 0)
(1.423504 0.0019915808 0)
(1.426666 0.0018589416 0)
(1.4296121 0.0017350918 0)
(1.4323573 0.001619465 0)
(1.4349159 0.0015115284 0)
(1.4373007 0.0014107805 0)
(1.4395241 0.0013167502 0)
(1.441597 0.0012289952 0)
(1.4435301 0.0011471007 0)
(1.4453329 0.0010706779 0)
(1.4470143 0.00099936268 0)
(1.4485827 0.00093281452 0)
(1.4500459 0.00087071487 0)
(1.451411 0.000812766 0)
(1.4526846 0.00075868973 0)
(1.4538731 0.00070822609 0)
(1.4549821 0.00066113219 0)
(1.4560171 0.0006171809 0)
(1.456983 0.00057615981 0)
(1.4578845 0.00053787009 0)
(1.4587259 0.00050212551 0)
(1.4595112 0.0004687516 0)
(1.4602442 0.00043758463 0)
(1.4609283 0.00040847103 0)
(1.4615667 0.00038126652 0)
(1.4621625 0.00035583549 0)
(1.4627184 0.00033205024 0)
(1.463237 0.00030979075 0)
(1.4637207 0.00028894408 0)
(1.4641716 0.00026940425 0)
(1.4645918 0.0002510719 0)
(1.4649832 0.0002338544 0)
(1.4653475 0.00021766568 0)
(1.4656862 0.00020242637 0)
(1.4660009 0.00018806375 0)
(1.4662929 0.00017451183 0)
(1.4665635 0.00016171131 0)
(1.4668138 0.00014960949 0)
(1.4670449 0.00013816013 0)
(1.4672578 0.00012732334 0)
(1.4674536 0.00011706517 0)
(1.4676331 0.00010735742 0)
(1.4677972 9.81771e-05 0)
(1.4679468 8.9505811e-05 0)
(1.4680827 8.1329201e-05 0)
(1.4682057 7.363568e-05 0)
(1.4683166 6.6415939e-05 0)
(1.4684162 5.9661712e-05 0)
(1.4685052 5.3365125e-05 0)
(1.4685843 4.75183e-05 0)
(1.4686545 4.2112252e-05 0)
(1.4687163 3.7137482e-05 0)
(1.4687705 3.2582629e-05 0)
(1.4688177 2.843535e-05 0)
(1.4688587 2.468044e-05 0)
(1.4688941 2.1302526e-05 0)
(1.4689244 1.828117e-05 0)
(1.4689502 1.5599325e-05 0)
(1.468972 1.3229366e-05 0)
(1.4689904 1.1157304e-05 0)
(1.4690058 9.3439531e-06 0)
(1.4690185 7.7904186e-06 0)
(1.4690292 6.4321979e-06 0)
(1.4690377 5.3132462e-06 0)
(1.4690451 4.30454e-06 0)
(1.4690503 3.5572328e-06 0)
(1.4690557 2.7825765e-06 0)
(1.4690583 2.3840436e-06 0)
(1.469063 1.7076405e-06 0)
(1.0005903 -0.0034629159 0)
(1.0136865 -0.0093660198 0)
(1.0370283 -0.013046806 0)
(1.0674202 -0.014563261 0)
(1.1000315 -0.014854525 0)
(1.1316428 -0.014564991 0)
(1.1610745 -0.013888338 0)
(1.1880674 -0.012919245 0)
(1.2125205 -0.011806506 0)
(1.2343939 -0.010696427 0)
(1.2538077 -0.0096727419 0)
(1.2710339 -0.0087628221 0)
(1.286401 -0.0079659738 0)
(1.3002112 -0.0072722148 0)
(1.3127102 -0.0066688086 0)
(1.3240903 -0.006141925 0)
(1.3345036 -0.0056780716 0)
(1.3440716 -0.00526532 0)
(1.3528927 -0.0048939339 0)
(1.3610463 -0.0045563945 0)
(1.3685975 -0.0042470685 0)
(1.3756004 -0.0039617747 0)
(1.3821012 -0.0036973966 0)
(1.3881402 -0.0034515816 0)
(1.3937533 -0.0032225175 0)
(1.3989728 -0.0030087684 0)
(1.403828 -0.0028091559 0)
(1.4083456 -0.0026226764 0)
(1.4125503 -0.0024484462 0)
(1.4164646 -0.0022856666 0)
(1.4201094 -0.0021336029 0)
(1.423504 -0.0019915713 0)
(1.426666 -0.0018589314 0)
(1.4296121 -0.0017350811 0)
(1.4323573 -0.0016194539 0)
(1.4349159 -0.0015115166 0)
(1.4373007 -0.0014107676 0)
(1.4395241 -0.0013167359 0)
(1.4415971 -0.0012289792 0)
(1.4435301 -0.0011470827 0)
(1.4453329 -0.001070658 0)
(1.4470143 -0.00099934122 0)
(1.4485827 -0.00093279189 0)
(1.4500459 -0.0008706915 0)
(1.451411 -0.00081274234 0)
(1.4526847 -0.00075866613 0)
(1.4538731 -0.00070820273 0)
(1.4549822 -0.00066110923 0)
(1.4560171 -0.00061715849 0)
(1.456983 -0.00057613822 0)
(1.4578845 -0.00053784985 0)
(1.4587259 -0.00050210737 0)
(1.4595112 -0.00046873651 0)
(1.4602442 -0.00043757368 0)
(1.4609283 -0.00040846522 0)
(1.4615667 -0.00038126672 0)
(1.4621625 -0.00035584225 0)
(1.4627185 -0.00033206432 0)
(1.4632371 -0.00030981262 0)
(1.4637207 -0.00028897444 0)
(1.4641717 -0.00026944348 0)
(1.4645919 -0.00025112062 0)
(1.4649832 -0.0002339125 0)
(1.4653475 -0.00021773314 0)
(1.4656862 -0.00020250205 0)
(1.4660009 -0.00018814671 0)
(1.4662929 -0.00017460004 0)
(1.4665635 -0.00016180327 0)
(1.4668138 -0.00014970319 0)
(1.4670449 -0.0001382544 0)
(1.4672578 -0.00012741673 0)
(1.4674536 -0.00011715706 0)
(1.4676331 -0.00010744632 0)
(1.4677972 -9.8262062e-05 0)
(1.4679468 -8.9584373e-05 0)
(1.4680826 -8.1399362e-05 0)
(1.4682056 -7.3694664e-05 0)
(1.4683165 -6.6462011e-05 0)
(1.4684161 -5.9693896e-05 0)
(1.4685051 -5.3383745e-05 0)
(1.4685842 -4.7524679e-05 0)
(1.4686544 -4.2108442e-05 0)
(1.4687162 -3.7125292e-05 0)
(1.4687704 -3.256344e-05 0)
(1.4688176 -2.8409652e-05 0)
(1.4688586 -2.4648383e-05 0)
(1.468894 -2.126412e-05 0)
(1.4689243 -1.8236448e-05 0)
(1.4689501 -1.5549227e-05 0)
(1.468972 -1.3174825e-05 0)
(1.4689903 -1.1100081e-05 0)
(1.4690057 -9.2854297e-06 0)
(1.4690184 -7.7317853e-06 0)
(1.4690292 -6.3744041e-06 0)
(1.4690376 -5.2562777e-06 0)
(1.469045 -4.249549e-06 0)
(1.4690503 -3.5034073e-06 0)
(1.4690557 -2.7323856e-06 0)
(1.4690582 -2.3354171e-06 0)
(1.469063 -1.6621077e-06 0)
(1.0007347 -0.011814722 0)
(1.0178472 -0.030860927 0)
(1.0462163 -0.041434441 0)
(1.0799018 -0.04519357 0)
(1.1132664 -0.045502351 0)
(1.143782 -0.044080308 0)
(1.1708941 -0.041439982 0)
(1.1945687 -0.037973677 0)
(1.2148582 -0.034195729 0)
(1.2319652 -0.030536886 0)
(1.2462683 -0.027222045 0)
(1.2582339 -0.024313921 0)
(1.2683135 -0.021797888 0)
(1.2768875 -0.01963366 0)
(1.2842554 -0.017773826 0)
(1.2906479 -0.016169651 0)
(1.296243 -0.014775589 0)
(1.3011791 -0.013552296 0)
(1.3055645 -0.012467862 0)
(1.3094838 -0.011497464 0)
(1.3130042 -0.01062216 0)
(1.3161792 -0.0098275123 0)
(1.3190526 -0.0091024104 0)
(1.3216607 -0.0084381762 0)
(1.3240343 -0.0078279032 0)
(1.3261995 -0.0072659734 0)
(1.3281786 -0.0067477069 0)
(1.3299913 -0.0062691142 0)
(1.3316544 -0.0058267242 0)
(1.3331829 -0.0054174695 0)
(1.3345896 -0.0050386083 0)
(1.3358862 -0.0046876698 0)
(1.3370827 -0.0043624158 0)
(1.3381883 -0.0040608114 0)
(1.3392108 -0.0037810014 0)
(1.3401576 -0.0035212921 0)
(1.3410349 -0.0032801352 0)
(1.3418486 -0.0030561137 0)
(1.3426038 -0.0028479295 0)
(1.3433052 -0.0026543929 0)
(1.3439569 -0.0024744116 0)
(1.344563 -0.0023069827 0)
(1.3451267 -0.0021511837 0)
(1.3456514 -0.0020061661 0)
(1.3461398 -0.0018711477 0)
(1.3465948 -0.0017454078 0)
(1.3470186 -0.0016282809 0)
(1.3474135 -0.0015191522 0)
(1.3477817 -0.0014174527 0)
(1.3481249 -0.0013226554 0)
(1.348445 -0.0012342712 0)
(1.3487434 -0.0011518454 0)
(1.3490218 -0.0010749545 0)
(1.3492815 -0.0010032034 0)
(1.3495238 -0.00093622315 0)
(1.3497498 -0.00087366837 0)
(1.3499605 -0.00081521581 0)
(1.3501571 -0.00076056225 0)
(1.3503404 -0.0007094237 0)
(1.3505112 -0.00066153379 0)
(1.3506703 -0.00061664338 0)
(1.3508184 -0.00057451935 0)
(1.3509563 -0.00053494509 0)
(1.3510843 -0.00049771955 0)
(1.3512032 -0.00046265848 0)
(1.3513135 -0.00042959358 0)
(1.3514155 -0.00039837377 0)
(1.3515097 -0.00036886431 0)
(1.3515966 -0.00034094729 0)
(1.3516765 -0.00031452041 0)
(1.3517497 -0.00028949676 0)
(1.3518167 -0.00026580293 0)
(1.3518777 -0.00024337896 0)
(1.3519331 -0.00022217573 0)
(1.3519832 -0.00020215508 0)
(1.3520284 -0.00018328703 0)
(1.3520689 -0.00016554907 0)
(1.352105 -0.00014892338 0)
(1.3521371 -0.00013339478 0)
(1.3521654 -0.00011894819 0)
(1.3521903 -0.00010556683 0)
(1.352212 -9.3229898e-05 0)
(1.3522309 -8.1913163e-05 0)
(1.3522472 -7.1586593e-05 0)
(1.3522612 -6.2217363e-05 0)
(1.3522732 -5.3766148e-05 0)
(1.3522833 -4.619299e-05 0)
(1.3522918 -3.9448675e-05 0)
(1.3522989 -3.348856e-05 0)
(1.3523048 -2.8250011e-05 0)
(1.3523096 -2.3691401e-05 0)
(1.3523136 -1.9729245e-05 0)
(1.3523168 -1.6346946e-05 0)
(1.3523195 -1.3418106e-05 0)
(1.3523214 -1.1003438e-05 0)
(1.3523233 -8.863703e-06 0)
(1.3523244 -7.2603034e-06 0)
(1.3523257 -5.6538451e-06 0)
(1.3523261 -4.8005174e-06 0)
(1.3523273 -3.421225e-06 0)
(1.0014244 -0.026824855 0)
(1.0291272 -0.062791352 0)
(1.0654292 -0.077736553 0)
(1.098962 -0.0805972 0)
(1.1253149 -0.078285171 0)
(1.145053 -0.073153899 0)
(1.1594858 -0.066111278 0)
(1.1694287 -0.058162063 0)
(1.1755354 -0.050296754 0)
(1.1785738 -0.043150708 0)
(1.1793571 -0.036972825 0)
(1.1785949 -0.031771632 0)
(1.1768304 -0.02745184 0)
(1.1744518 -0.023886768 0)
(1.1717287 -0.02094762 0)
(1.1688444 -0.01851578 0)
(1.1659195 -0.016488084 0)
(1.1630317 -0.014779502 0)
(1.1602295 -0.013322984 0)
(1.1575415 -0.012067131 0)
(1.1549828 -0.010973 0)
(1.1525601 -0.010011061 0)
(1.1502747 -0.0091587465 0)
(1.1481246 -0.0083986041 0)
(1.1461059 -0.0077169502 0)
(1.1442134 -0.0071028874 0)
(1.1424415 -0.0065475904 0)
(1.1407838 -0.0060437932 0)
(1.1392344 -0.0055854233 0)
(1.1377869 -0.0051673415 0)
(1.1364353 -0.004785154 0)
(1.1351738 -0.0044350736 0)
(1.1339968 -0.0041138148 0)
(1.1328987 -0.0038185115 0)
(1.1318746 -0.0035466521 0)
(1.1309195 -0.0032960264 0)
(1.1300289 -0.0030646822 0)
(1.1291985 -0.0028508892 0)
(1.1284242 -0.0026531086 0)
(1.1277023 -0.002469967 0)
(1.1270291 -0.0023002348 0)
(1.1264014 -0.0021428078 0)
(1.1258161 -0.0019966911 0)
(1.1252703 -0.0018609858 0)
(1.1247613 -0.0017348773 0)
(1.1242866 -0.0016176259 0)
(1.1238438 -0.0015085575 0)
(1.1234308 -0.0014070566 0)
(1.1230456 -0.0013125595 0)
(1.1226863 -0.0012245485 0)
(1.1223511 -0.0011425466 0)
(1.1220383 -0.0010661132 0)
(1.1217466 -0.00099484025 0)
(1.1214744 -0.00092834857 0)
(1.1212204 -0.00086628534 0)
(1.1209835 -0.00080832135 0)
(1.1207625 -0.00075414936 0)
(1.1205563 -0.00070348188 0)
(1.120364 -0.0006560505 0)
(1.1201847 -0.00061160385 0)
(1.1200175 -0.00056990782 0)
(1.1198617 -0.00053074385 0)
(1.1197165 -0.00049391029 0)
(1.1195813 -0.00045922064 0)
(1.1194556 -0.00042650618 0)
(1.1193386 -0.0003956136 0)
(1.11923 -0.0003664081 0)
(1.1191292 -0.00033877033 0)
(1.1190358 -0.00031259869 0)
(1.1189494 -0.00028780575 0)
(1.1188696 -0.00026431972 0)
(1.1187961 -0.00024208035 0)
(1.1187284 -0.00022104077 0)
(1.1186664 -0.00020116234 0)
(1.1186097 -0.00018241759 0)
(1.118558 -0.00016478407 0)
(1.1185111 -0.00014824678 0)
(1.1184685 -0.00013279205 0)
(1.1184302 -0.00011840791 0)
(1.1183957 -0.00010507974 0)
(1.1183649 -9.278959e-05 0)
(1.1183375 -8.1513945e-05 0)
(1.1183133 -7.1224855e-05 0)
(1.1182919 -6.1888026e-05 0)
(1.1182732 -5.3466673e-05 0)
(1.1182568 -4.5917866e-05 0)
(1.1182427 -3.9198002e-05 0)
(1.1182305 -3.3256148e-05 0)
(1.1182201 -2.8042931e-05 0)
(1.1182112 -2.349749e-05 0)
(1.1182037 -1.956987e-05 0)
(1.1181974 -1.6186999e-05 0)
(1.1181921 -1.3314107e-05 0)
(1.1181877 -1.0857224e-05 0)
(1.1181841 -8.8296149e-06 0)
(1.1181812 -7.0766683e-06 0)
(1.1181788 -5.737806e-06 0)
(1.1181768 -4.4709291e-06 0)
(1.1181754 -3.7545187e-06 0)
(1.1181738 -2.7010543e-06 0)
(1.0016583 -0.05381943 0)
(1.0359761 -0.10128444 0)
(1.0597199 -0.11073663 0)
(1.0628947 -0.10592202 0)
(1.0515569 -0.096228728 0)
(1.0340529 -0.083934061 0)
(1.0142795 -0.070327062 0)
(0.99360703 -0.056981333 0)
(0.97292577 -0.045107479 0)
(0.95310739 -0.03523675 0)
(0.93479538 -0.02740165 0)
(0.91829012 -0.021387228 0)
(0.90362379 -0.016884499 0)
(0.89068067 -0.013569709 0)
(0.87928175 -0.011147748 0)
(0.86923242 -0.0093736585 0)
(0.86034424 -0.0080569277 0)
(0.85244667 -0.0070571269 0)
(0.84539242 -0.0062752378 0)
(0.83905793 -0.0056438281 0)
(0.83334126 -0.0051180907 0)
(0.82815884 -0.0046686721 0)
(0.82344212 -0.0042764171 0)
(0.81913467 -0.0039287385 0)
(0.81518962 -0.0036172031 0)
(0.81156766 -0.0033359697 0)
(0.80823545 -0.0030808029 0)
(0.80516441 -0.0028484675 0)
(0.8023298 -0.0026363676 0)
(0.79971 -0.0024423369 0)
(0.79728598 -0.0022645174 0)
(0.79504087 -0.0021012889 0)
(0.79295963 -0.0019512249 0)
(0.79102881 -0.0018130631 0)
(0.78923628 -0.0016856839 0)
(0.78757111 -0.0015680929 0)
(0.7860234 -0.0014594061 0)
(0.78458414 -0.0013588361 0)
(0.78324513 -0.0012656809 0)
(0.78199891 -0.0011793128 0)
(0.78083863 -0.0010991695 0)
(0.779758 -0.0010247454 0)
(0.77875129 -0.00095558508 0)
(0.77781319 -0.00089127683 0)
(0.77693883 -0.00083144745 0)
(0.7761237 -0.00077575785 0)
(0.77536365 -0.00072389873 0)
(0.77465486 -0.00067558733 0)
(0.77399375 -0.0006305641 0)
(0.77337706 -0.00058859007 0)
(0.77280173 -0.00054944439 0)
(0.77226495 -0.00051292236 0)
(0.77176411 -0.00047883355 0)
(0.77129679 -0.00044700062 0)
(0.77086075 -0.0004172578 0)
(0.77045393 -0.00038945037 0)
(0.77007439 -0.00036343328 0)
(0.76972038 -0.00033907103 0)
(0.76939025 -0.00031623642 0)
(0.76908249 -0.00029481084 0)
(0.7687957 -0.000274683 0)
(0.76852862 -0.00025574999 0)
(0.76828005 -0.0002379161 0)
(0.76804891 -0.00022109457 0)
(0.76783421 -0.00020520626 0)
(0.76763502 -0.00019018157 0)
(0.76745047 -0.00017595892 0)
(0.76727979 -0.00016248593 0)
(0.76712222 -0.00014971756 0)
(0.76697708 -0.0001376167 0)
(0.76684369 -0.00012615204 0)
(0.76672145 -0.00011529891 0)
(0.76660974 -0.00010503685 0)
(0.76650799 -9.5351147e-05 0)
(0.76641564 -8.6230215e-05 0)
(0.76633213 -7.766657e-05 0)
(0.76625691 -6.9654376e-05 0)
(0.76618944 -6.2188561e-05 0)
(0.76612919 -5.5263285e-05 0)
(0.76607563 -4.8870078e-05 0)
(0.76602826 -4.2997753e-05 0)
(0.76598658 -3.7631583e-05 0)
(0.7659501 -3.2754351e-05 0)
(0.76591834 -2.8346524e-05 0)
(0.76589087 -2.4387738e-05 0)
(0.76586723 -2.0855408e-05 0)
(0.76584701 -1.7727231e-05 0)
(0.76582981 -1.4976302e-05 0)
(0.76581527 -1.2577254e-05 0)
(0.76580305 -1.0497268e-05 0)
(0.76579284 -8.7097068e-06 0)
(0.76578438 -7.1774185e-06 0)
(0.7657774 -5.8803867e-06 0)
(0.76577171 -4.7780003e-06 0)
(0.76576707 -3.8673672e-06 0)
(0.76576335 -3.0960319e-06 0)
(0.76576034 -2.4958284e-06 0)
(0.76575789 -1.9686155e-06 0)
(0.7657561 -1.6362427e-06 0)
(0.76575417 -1.2305168e-06 0)
(0.91890839 -0.035821913 0)
(0.86271384 -0.062195638 0)
(0.7870597 -0.06251009 0)
(0.69536033 -0.054550395 0)
(0.61089745 -0.044531651 0)
(0.54411592 -0.034015971 0)
(0.49343012 -0.024187539 0)
(0.45479413 -0.016144229 0)
(0.42544582 -0.010265786 0)
(0.40347313 -0.0063041454 0)
(0.38715766 -0.0037976297 0)
(0.37496219 -0.0023103384 0)
(0.36566192 -0.001493015 0)
(0.35836272 -0.0010851182 0)
(0.35244268 -0.00090607216 0)
(0.34748201 -0.0008410515 0)
(0.34320348 -0.00082372388 0)
(0.33942726 -0.00081931016 0)
(0.33603793 -0.00081185183 0)
(0.33296114 -0.0007958012 0)
(0.33014778 -0.00077081159 0)
(0.32756384 -0.00073870973 0)
(0.3251842 -0.00070188957 0)
(0.32298902 -0.00066256585 0)
(0.32096172 -0.00062249958 0)
(0.31908785 -0.00058295723 0)
(0.3173545 -0.00054477118 0)
(0.31574996 -0.00050843364 0)
(0.31426361 -0.00047419112 0)
(0.31288575 -0.00044212427 0)
(0.31160756 -0.00041220938 0)
(0.31042101 -0.00038436183 0)
(0.30931883 -0.00035846538 0)
(0.30829438 -0.00033439086 0)
(0.30734165 -0.00031200726 0)
(0.30645516 -0.00029118819 0)
(0.30562992 -0.0002718149 0)
(0.30486137 -0.00025377765 0)
(0.30414536 -0.00023697574 0)
(0.30347807 -0.00022131709 0)
(0.30285601 -0.00020671763 0)
(0.30227595 -0.00019310047 0)
(0.30173495 -0.00018039525 0)
(0.30123027 -0.00016853748 0)
(0.30075939 -0.00015746788 0)
(0.30031997 -0.00014713199 0)
(0.29990987 -0.00013747951 0)
(0.29952708 -0.00012846393 0)
(0.29916974 -0.00012004206 0)
(0.29883613 -0.00011217366 0)
(0.29852466 -0.00010482107 0)
(0.29823383 -9.7948979e-05 0)
(0.29796228 -9.1524156e-05 0)
(0.29770872 -8.5515437e-05 0)
(0.29747198 -7.9893367e-05 0)
(0.29725094 -7.4630439e-05 0)
(0.29704459 -6.9700524e-05 0)
(0.29685198 -6.507935e-05 0)
(0.29667225 -6.0743694e-05 0)
(0.29650458 -5.6672037e-05 0)
(0.29634824 -5.2843611e-05 0)
(0.29620254 -4.923953e-05 0)
(0.29606684 -4.5841539e-05 0)
(0.29594058 -4.2633655e-05 0)
(0.29582322 -3.960061e-05 0)
(0.29571427 -3.6729827e-05 0)
(0.29561328 -3.4009502e-05 0)
(0.29551981 -3.1430411e-05 0)
(0.29543347 -2.8983848e-05 0)
(0.2953539 -2.6663366e-05 0)
(0.29528074 -2.4462554e-05 0)
(0.29521366 -2.237712e-05 0)
(0.29515234 -2.0402483e-05 0)
(0.29509647 -1.8536402e-05 0)
(0.29504575 -1.6776372e-05 0)
(0.29499988 -1.5121918e-05 0)
(0.29495856 -1.3572225e-05 0)
(0.2949215 -1.2127233e-05 0)
(0.2948884 -1.0786112e-05 0)
(0.29485897 -9.5474656e-06 0)
(0.29483295 -8.4088576e-06 0)
(0.29481004 -7.3671577e-06 0)
(0.29479 -6.4186445e-06 0)
(0.29477257 -5.5596254e-06 0)
(0.29475749 -4.7865464e-06 0)
(0.29474452 -4.0956478e-06 0)
(0.29473344 -3.4836091e-06 0)
(0.29472402 -2.9454557e-06 0)
(0.29471605 -2.4769143e-06 0)
(0.29470935 -2.0707553e-06 0)
(0.29470375 -1.7218967e-06 0)
(0.29469911 -1.4219046e-06 0)
(0.29469528 -1.1674917e-06 0)
(0.29469217 -9.5001866e-07 0)
(0.29468963 -7.7040682e-07 0)
(0.29468758 -6.1943174e-07 0)
(0.29468593 -5.0257302e-07 0)
(0.2946846 -4.0654842e-07 0)
(0.29468355 -3.3976568e-07 0)
(0.29468255 -2.8513151e-07 0)
)
;

boundaryField
{
    top
    {
        type            fixedValue;
        value           uniform (0 0 0);
    }
    inlet
    {
        type            fixedValue;
        value           uniform (1 0 0);
    }
    outlet
    {
        type            zeroGradient;
    }
    bottom
    {
        type            fixedValue;
        value           uniform (0 0 0);
    }
    back
    {
        type            empty;
    }
    front
    {
        type            empty;
    }
}


// ************************************************************************* //
