/*--------------------------------*- C++ -*----------------------------------*\
| =========                 |                                                 |
| \\      /  F ield         | OpenFOAM: The Open Source CFD Toolbox           |
|  \\    /   O peration     | Version:  v1812                                 |
|   \\  /    A nd           | Web:      www.OpenFOAM.com                      |
|    \\/     M anipulation  |                                                 |
\*---------------------------------------------------------------------------*/
FoamFile
{
    version     2.0;
    format      ascii;
    class       volVectorField;
    location    "19.3";
    object      U;
}
// * * * * * * * * * * * * * * * * * * * * * * * * * * * * * * * * * * * * * //

dimensions      [0 1 -1 0 0 0 0];


internalField   nonuniform List<vector> 
1000
(
(0.91890839 0.035821912 0)
(0.86271384 0.062195638 0)
(0.7870597 0.062510089 0)
(0.69536033 0.054550394 0)
(0.61089745 0.04453165 0)
(0.54411592 0.034015971 0)
(0.49343012 0.02418754 0)
(0.45479414 0.01614423 0)
(0.42544583 0.010265786 0)
(0.40347313 0.0063041453 0)
(0.38715767 0.0037976293 0)
(0.3749622 0.0023103382 0)
(0.36566193 0.001493015 0)
(0.35836272 0.0010851183 0)
(0.35244268 0.00090607198 0)
(0.34748201 0.00084105104 0)
(0.34320348 0.00082372347 0)
(0.33942726 0.00081930988 0)
(0.33603793 0.00081185196 0)
(0.33296114 0.00079580153 0)
(0.33014778 0.0007708122 0)
(0.32756384 0.00073871018 0)
(0.3251842 0.00070188973 0)
(0.32298902 0.00066256561 0)
(0.32096172 0.00062249903 0)
(0.31908785 0.0005829564 0)
(0.31735449 0.00054477061 0)
(0.31574996 0.00050843327 0)
(0.3142636 0.00047419133 0)
(0.31288575 0.00044212469 0)
(0.31160756 0.00041221008 0)
(0.31042101 0.00038436244 0)
(0.30931883 0.00035846568 0)
(0.30829438 0.00033439065 0)
(0.30734165 0.00031200639 0)
(0.30645515 0.00029118669 0)
(0.30562991 0.00027181287 0)
(0.30486136 0.00025377538 0)
(0.30414535 0.00023697352 0)
(0.30347807 0.00022131462 0)
(0.30285601 0.00020671488 0)
(0.30227596 0.00019309668 0)
(0.30173497 0.00018038992 0)
(0.30123029 0.00016852984 0)
(0.30075942 0.00015745722 0)
(0.30032002 0.00014711817 0)
(0.29990993 0.00013746225 0)
(0.29952715 0.00012844398 0)
(0.29916983 0.00012002043 0)
(0.29883624 0.00011215128 0)
(0.29852479 0.00010480004 0)
(0.29823397 9.7931117e-05 0)
(0.29796241 9.1512399e-05 0)
(0.29770883 8.5513685e-05 0)
(0.29747201 7.99065e-05 0)
(0.29725084 7.4665996e-05 0)
(0.29704429 6.976761e-05 0)
(0.29685137 6.5190844e-05 0)
(0.2966712 6.0914772e-05 0)
(0.29650291 5.6919809e-05 0)
(0.29634572 5.3187715e-05 0)
(0.2961989 4.9700054e-05 0)
(0.29606176 4.644042e-05 0)
(0.29593366 4.3392891e-05 0)
(0.295814 4.0542946e-05 0)
(0.29570223 3.787846e-05 0)
(0.29559783 3.538762e-05 0)
(0.29550031 3.3060329e-05 0)
(0.29540922 3.0887979e-05 0)
(0.29532413 2.8859705e-05 0)
(0.29524465 2.69668e-05 0)
(0.2951704 2.5198753e-05 0)
(0.29510104 2.3545422e-05 0)
(0.29503625 2.1998322e-05 0)
(0.29497572 2.0549882e-05 0)
(0.29491918 1.9194123e-05 0)
(0.29486637 1.7927506e-05 0)
(0.29481705 1.6744382e-05 0)
(0.29477097 1.5643068e-05 0)
(0.29472793 1.4616427e-05 0)
(0.29468773 1.3660594e-05 0)
(0.29465016 1.2766832e-05 0)
(0.29461507 1.1930713e-05 0)
(0.29458229 1.1144681e-05 0)
(0.29455167 1.0407794e-05 0)
(0.29452308 9.7132546e-06 0)
(0.29449635 9.0725453e-06 0)
(0.29447142 8.4703276e-06 0)
(0.2944481 7.9182827e-06 0)
(0.29442633 7.3969366e-06 0)
(0.29440598 6.9261017e-06 0)
(0.294387 6.4726596e-06 0)
(0.2943692 6.0618042e-06 0)
(0.29435259 5.6504087e-06 0)
(0.29433714 5.2891261e-06 0)
(0.29432249 4.9685561e-06 0)
(0.29430919 4.6878112e-06 0)
(0.29429569 4.5388817e-06 0)
(0.29428502 4.4055949e-06 0)
(0.29426874 5.0574809e-06 0)
(1.0016583 0.05381943 0)
(1.0359761 0.10128443 0)
(1.0597199 0.11073663 0)
(1.0628947 0.10592201 0)
(1.0515569 0.096228725 0)
(1.0340529 0.083934059 0)
(1.0142795 0.070327062 0)
(0.99360703 0.056981334 0)
(0.97292577 0.045107479 0)
(0.9531074 0.03523675 0)
(0.93479539 0.02740165 0)
(0.91829012 0.021387227 0)
(0.90362379 0.016884499 0)
(0.89068068 0.013569709 0)
(0.87928175 0.011147748 0)
(0.86923242 0.0093736578 0)
(0.86034424 0.0080569271 0)
(0.85244667 0.0070571265 0)
(0.84539242 0.0062752379 0)
(0.83905793 0.0056438286 0)
(0.83334127 0.0051180915 0)
(0.82815884 0.0046686728 0)
(0.82344213 0.0042764175 0)
(0.81913467 0.0039287383 0)
(0.81518962 0.0036172024 0)
(0.81156765 0.0033359687 0)
(0.80823544 0.0030808023 0)
(0.8051644 0.0028484673 0)
(0.80232979 0.0026363682 0)
(0.79971 0.002442338 0)
(0.79728598 0.0022645189 0)
(0.79504087 0.0021012905 0)
(0.79295963 0.0019512261 0)
(0.79102881 0.0018130636 0)
(0.78923628 0.0016856835 0)
(0.78757111 0.0015680917 0)
(0.78602339 0.0014594041 0)
(0.78458412 0.0013588338 0)
(0.78324512 0.0012656787 0)
(0.78199889 0.0011793105 0)
(0.78083861 0.0010991669 0)
(0.77975799 0.0010247419 0)
(0.77875128 0.00095557989 0)
(0.77781318 0.00089126946 0)
(0.77693882 0.00083143764 0)
(0.77612368 0.00077574637 0)
(0.77536363 0.00072388749 0)
(0.77465481 0.00067558006 0)
(0.77399368 0.00063056676 0)
(0.77337694 0.00058861072 0)
(0.77280154 0.00054949458 0)
(0.77226465 0.00051301722 0)
(0.77176364 0.0004789929 0)
(0.77129607 0.00044725051 0)
(0.77085967 0.00041763109 0)
(0.77045235 0.00038998926 0)
(0.77007212 0.00036418988 0)
(0.76971718 0.00034010946 0)
(0.76938581 0.00031763257 0)
(0.76907645 0.00029665117 0)
(0.76878761 0.00027706452 0)
(0.76851792 0.00025877781 0)
(0.7682661 0.00024170233 0)
(0.76803096 0.00022575574 0)
(0.76781139 0.00021086134 0)
(0.76760636 0.00019694921 0)
(0.76741489 0.00018395496 0)
(0.76723608 0.00017181925 0)
(0.7670691 0.00016048792 0)
(0.76691316 0.00014990814 0)
(0.76676752 0.00014003071 0)
(0.7666315 0.00013080689 0)
(0.76650447 0.00012219104 0)
(0.76638582 0.0001141398 0)
(0.76627501 0.00010661546 0)
(0.76617152 9.9582121e-05 0)
(0.76607486 9.3012153e-05 0)
(0.76598458 8.6874592e-05 0)
(0.76590026 8.1148609e-05 0)
(0.76582151 7.5802613e-05 0)
(0.76574794 7.0817816e-05 0)
(0.76567924 6.6157761e-05 0)
(0.76561504 6.1809034e-05 0)
(0.76555512 5.7732733e-05 0)
(0.7654991 5.3930421e-05 0)
(0.76544684 5.035517e-05 0)
(0.76539796 4.7038017e-05 0)
(0.76535239 4.3921157e-05 0)
(0.7653097 4.1053407e-05 0)
(0.76526997 3.8323202e-05 0)
(0.76523272 3.5844677e-05 0)
(0.76519804 3.346389e-05 0)
(0.76516555 3.1331989e-05 0)
(0.76513516 2.9189437e-05 0)
(0.76510713 2.7364198e-05 0)
(0.76507997 2.5517267e-05 0)
(0.76505663 2.4071198e-05 0)
(0.76503057 2.2554814e-05 0)
(0.76501445 2.1596981e-05 0)
(0.76498346 2.0993332e-05 0)
(1.0014244 0.026824854 0)
(1.0291272 0.06279135 0)
(1.0654292 0.077736549 0)
(1.098962 0.080597196 0)
(1.1253149 0.078285167 0)
(1.145053 0.073153897 0)
(1.1594858 0.066111277 0)
(1.1694287 0.058162063 0)
(1.1755354 0.050296754 0)
(1.1785738 0.043150707 0)
(1.1793571 0.036972824 0)
(1.178595 0.031771631 0)
(1.1768304 0.027451838 0)
(1.1744518 0.023886766 0)
(1.1717287 0.020947618 0)
(1.1688444 0.018515779 0)
(1.1659195 0.016488084 0)
(1.1630317 0.014779502 0)
(1.1602295 0.013322985 0)
(1.1575415 0.012067132 0)
(1.1549828 0.010973 0)
(1.1525601 0.010011061 0)
(1.1502747 0.0091587463 0)
(1.1481246 0.0083986033 0)
(1.1461059 0.0077169491 0)
(1.1442134 0.0071028865 0)
(1.1424414 0.0065475903 0)
(1.1407838 0.0060437942 0)
(1.1392344 0.0055854253 0)
(1.1377869 0.0051673441 0)
(1.1364353 0.0047851569 0)
(1.1351738 0.0044350763 0)
(1.1339968 0.0041138169 0)
(1.1328987 0.0038185127 0)
(1.1318746 0.0035466524 0)
(1.1309195 0.0032960259 0)
(1.1300289 0.0030646815 0)
(1.1291985 0.002850889 0)
(1.1284242 0.002653109 0)
(1.1277022 0.0024699677 0)
(1.1270291 0.0023002353 0)
(1.1264014 0.0021428071 0)
(1.1258161 0.0019966884 0)
(1.1252702 0.0018609809 0)
(1.1247612 0.001734871 0)
(1.1242865 0.0016176203 0)
(1.1238437 0.0015085567 0)
(1.1234307 0.001407067 0)
(1.1230455 0.0013125904 0)
(1.1226861 0.001224613 0)
(1.1223509 0.0011426633 0)
(1.1220381 0.0010663073 0)
(1.1217462 0.0009951452 0)
(1.1214739 0.00092880869 0)
(1.1212198 0.00086695798 0)
(1.1209827 0.00080927959 0)
(1.1207614 0.00075548433 0)
(1.1205548 0.0007053047 0)
(1.1203621 0.00065849234 0)
(1.1201821 0.00061481629 0)
(1.1200142 0.00057406208 0)
(1.1198574 0.00053602973 0)
(1.1197111 0.00050053337 0)
(1.1195745 0.00046740015 0)
(1.1194469 0.00043647033 0)
(1.1193278 0.00040759555 0)
(1.1192167 0.00038063885 0)
(1.1191129 0.00035547287 0)
(1.119016 0.00033197929 0)
(1.1189255 0.00031004614 0)
(1.118841 0.00028956948 0)
(1.1187621 0.0002704491 0)
(1.1186884 0.00025259411 0)
(1.1186197 0.0002359168 0)
(1.1185554 0.00022034118 0)
(1.1184954 0.00020579153 0)
(1.1184394 0.00019220609 0)
(1.1183871 0.0001795171 0)
(1.1183382 0.00016767544 0)
(1.1182926 0.00015661381 0)
(1.11825 0.00014629406 0)
(1.1182103 0.00013664299 0)
(1.1181731 0.00012764278 0)
(1.1181384 0.00011921053 0)
(1.1181059 0.00011135915 0)
(1.1180758 0.00010398428 0)
(1.1180473 9.7152594e-05 0)
(1.1180211 9.0704489e-05 0)
(1.1179963 8.4786107e-05 0)
(1.1179734 7.9128447e-05 0)
(1.1179516 7.4027812e-05 0)
(1.1179318 6.9017472e-05 0)
(1.1179128 6.4661419e-05 0)
(1.1178955 6.0140427e-05 0)
(1.117879 5.6561454e-05 0)
(1.1178635 5.2425897e-05 0)
(1.11785 4.9743761e-05 0)
(1.1178349 4.5806932e-05 0)
(1.1178261 4.431957e-05 0)
(1.1178083 4.0574971e-05 0)
(1.0007347 0.011814721 0)
(1.0178472 0.030860924 0)
(1.0462163 0.041434438 0)
(1.0799018 0.045193566 0)
(1.1132664 0.045502348 0)
(1.143782 0.044080305 0)
(1.1708941 0.04143998 0)
(1.1945687 0.037973676 0)
(1.2148582 0.034195728 0)
(1.2319652 0.030536886 0)
(1.2462683 0.027222043 0)
(1.2582339 0.024313918 0)
(1.2683135 0.021797886 0)
(1.2768875 0.019633657 0)
(1.2842554 0.017773824 0)
(1.2906479 0.01616965 0)
(1.296243 0.014775589 0)
(1.3011791 0.013552297 0)
(1.3055645 0.012467863 0)
(1.3094838 0.011497465 0)
(1.3130042 0.01062216 0)
(1.3161792 0.0098275118 0)
(1.3190526 0.0091024095 0)
(1.3216607 0.0084381753 0)
(1.3240343 0.0078279024 0)
(1.3261995 0.0072659729 0)
(1.3281786 0.0067477075 0)
(1.3299913 0.0062691159 0)
(1.3316544 0.0058267269 0)
(1.3331829 0.0054174728 0)
(1.3345896 0.0050386117 0)
(1.3358862 0.0046876729 0)
(1.3370827 0.0043624185 0)
(1.3381883 0.0040608135 0)
(1.3392108 0.003781003 0)
(1.3401576 0.0035212937 0)
(1.3410349 0.0032801371 0)
(1.3418486 0.0030561164 0)
(1.3426038 0.0028479334 0)
(1.3433051 0.0026543974 0)
(1.3439569 0.0024744161 0)
(1.3445629 0.0023069861 0)
(1.3451267 0.0021511855 0)
(1.3456513 0.0020061659 0)
(1.3461398 0.0018711465 0)
(1.3465947 0.0017454079 0)
(1.3470185 0.0016282861 0)
(1.3474135 0.0015191682 0)
(1.3477816 0.0014174873 0)
(1.3481249 0.0013227194 0)
(1.3484449 0.00123438 0)
(1.3487435 0.0011520198 0)
(1.349022 0.0010752231 0)
(1.3492818 0.0010036044 0)
(1.3495242 0.00093680671 0)
(1.3497505 0.0008744994 0)
(1.3499616 0.00081637505 0)
(1.3501587 0.00076214813 0)
(1.3503427 0.00071155276 0)
(1.3505145 0.00066434149 0)
(1.3506748 0.00062028424 0)
(1.3508245 0.00057916666 0)
(1.3509643 0.00054078983 0)
(1.3510948 0.00050496835 0)
(1.3512167 0.00047153063 0)
(1.3513305 0.00044031704 0)
(1.3514368 0.00041117946 0)
(1.3515361 0.00038397886 0)
(1.3516288 0.00035858641 0)
(1.3517153 0.00033487997 0)
(1.3517962 0.00031274666 0)
(1.3518717 0.00029207868 0)
(1.3519422 0.00027277944 0)
(1.3520081 0.00025475514 0)
(1.3520696 0.00023792554 0)
(1.3521271 0.00022220794 0)
(1.3521807 0.00020753587 0)
(1.3522309 0.00019383181 0)
(1.3522777 0.00018104257 0)
(1.3523214 0.00016909143 0)
(1.3523622 0.00015794151 0)
(1.3524005 0.00014750944 0)
(1.3524361 0.00013778634 0)
(1.3524694 0.0001286727 0)
(1.3525004 0.00012020305 0)
(1.3525297 0.00011223982 0)
(1.3525565 0.00010488181 0)
(1.3525822 9.7899928e-05 0)
(1.3526054 9.1534033e-05 0)
(1.3526282 8.5399908e-05 0)
(1.3526479 7.9930583e-05 0)
(1.3526683 7.4427743e-05 0)
(1.352685 6.9804915e-05 0)
(1.3527037 6.4828275e-05 0)
(1.352717 6.1118342e-05 0)
(1.3527348 5.6441254e-05 0)
(1.3527446 5.3742294e-05 0)
(1.3527628 4.9141108e-05 0)
(1.3527683 4.7702849e-05 0)
(1.3527888 4.2957357e-05 0)
(1.0005903 0.0034629152 0)
(1.0136865 0.009366018 0)
(1.0370283 0.013046804 0)
(1.0674202 0.014563259 0)
(1.1000315 0.014854523 0)
(1.1316428 0.014564989 0)
(1.1610745 0.013888337 0)
(1.1880674 0.012919244 0)
(1.2125205 0.011806505 0)
(1.2343939 0.010696425 0)
(1.2538077 0.0096727405 0)
(1.2710339 0.0087628202 0)
(1.286401 0.0079659716 0)
(1.3002111 0.0072722127 0)
(1.3127102 0.006668807 0)
(1.3240903 0.006141924 0)
(1.3345036 0.0056780711 0)
(1.3440716 0.0052653201 0)
(1.3528927 0.0048939343 0)
(1.3610463 0.0045563948 0)
(1.3685975 0.0042470684 0)
(1.3756004 0.0039617742 0)
(1.3821012 0.0036973961 0)
(1.3881402 0.0034515812 0)
(1.3937533 0.0032225174 0)
(1.3989728 0.0030087686 0)
(1.403828 0.0028091567 0)
(1.4083456 0.0026226781 0)
(1.4125503 0.0024484489 0)
(1.4164646 0.0022856701 0)
(1.4201094 0.0021336066 0)
(1.423504 0.001991575 0)
(1.426666 0.001858935 0)
(1.4296121 0.0017350846 0)
(1.4323573 0.0016194575 0)
(1.4349159 0.0015115204 0)
(1.4373007 0.0014107721 0)
(1.4395241 0.0013167412 0)
(1.441597 0.0012289857 0)
(1.4435301 0.0011470906 0)
(1.4453328 0.0010706667 0)
(1.4470143 0.00099935001 0)
(1.4485827 0.00093280006 0)
(1.4500459 0.00087069868 0)
(1.451411 0.0008127488 0)
(1.4526846 0.00075867298 0)
(1.4538731 0.00070821198 0)
(1.4549822 0.00066112337 0)
(1.4560172 0.0006171807 0)
(1.4569831 0.00057617264 0)
(1.4578847 0.00053790164 0)
(1.4587262 0.00050218393 0)
(1.4595117 0.00046884789 0)
(1.460245 0.00043773398 0)
(1.4609295 0.0004086939 0)
(1.4615685 0.00038158949 0)
(1.4621651 0.00035629139 0)
(1.4627221 0.00033267816 0)
(1.4632422 0.00031063674 0)
(1.4637278 0.00029006144 0)
(1.4641812 0.00027085334 0)
(1.4646045 0.00025292094 0)
(1.4649998 0.00023617902 0)
(1.4653689 0.00022054831 0)
(1.4657136 0.00020595501 0)
(1.4660355 0.00019233067 0)
(1.4663361 0.00017961154 0)
(1.4666168 0.00016773694 0)
(1.466879 0.00015665043 0)
(1.4671238 0.00014629858 0)
(1.4673524 0.00013663183 0)
(1.467566 0.00012760324 0)
(1.4677653 0.00011917138 0)
(1.4679516 0.0001112962 0)
(1.4681256 0.00010394345 0)
(1.4682881 9.7077647e-05 0)
(1.4684397 9.0670566e-05 0)
(1.4685815 8.4686357e-05 0)
(1.4687139 7.9100948e-05 0)
(1.4688375 7.3878648e-05 0)
(1.4689528 6.9006005e-05 0)
(1.4690609 6.44448e-05 0)
(1.4691615 6.0194316e-05 0)
(1.4692556 5.6208175e-05 0)
(1.4693432 5.2513184e-05 0)
(1.4694258 4.9036535e-05 0)
(1.469502 4.5825126e-05 0)
(1.469574 4.2768091e-05 0)
(1.46964 4.0003253e-05 0)
(1.469704 3.7315222e-05 0)
(1.4697607 3.49216e-05 0)
(1.469817 3.2490153e-05 0)
(1.4698652 3.0500421e-05 0)
(1.4699168 2.8308667e-05 0)
(1.4699561 2.6717607e-05 0)
(1.4700044 2.4635784e-05 0)
(1.470034 2.3494803e-05 0)
(1.4700832 2.142183e-05 0)
(1.4701001 2.0809107e-05 0)
(1.4701556 1.8649414e-05 0)
(1.0005903 -0.0034629162 0)
(1.0136865 -0.0093660206 0)
(1.0370283 -0.013046807 0)
(1.0674202 -0.014563262 0)
(1.1000315 -0.014854525 0)
(1.1316428 -0.014564991 0)
(1.1610745 -0.013888338 0)
(1.1880674 -0.012919246 0)
(1.2125205 -0.011806507 0)
(1.2343939 -0.010696428 0)
(1.2538077 -0.0096727436 0)
(1.2710339 -0.0087628233 0)
(1.286401 -0.0079659746 0)
(1.3002111 -0.0072722154 0)
(1.3127102 -0.0066688092 0)
(1.3240903 -0.006141926 0)
(1.3345036 -0.0056780731 0)
(1.3440716 -0.0052653217 0)
(1.3528927 -0.0048939357 0)
(1.3610463 -0.0045563964 0)
(1.3685975 -0.0042470706 0)
(1.3756004 -0.0039617769 0)
(1.3821012 -0.0036973986 0)
(1.3881402 -0.0034515834 0)
(1.3937533 -0.0032225194 0)
(1.3989728 -0.0030087709 0)
(1.403828 -0.0028091591 0)
(1.4083456 -0.00262268 0)
(1.4125503 -0.00244845 0)
(1.4164646 -0.0022856707 0)
(1.4201094 -0.0021336076 0)
(1.423504 -0.0019915766 0)
(1.426666 -0.0018589369 0)
(1.4296121 -0.0017350869 0)
(1.4323573 -0.0016194598 0)
(1.4349158 -0.0015115228 0)
(1.4373007 -0.0014107743 0)
(1.439524 -0.0013167432 0)
(1.441597 -0.0012289868 0)
(1.4435301 -0.0011470904 0)
(1.4453328 -0.0010706658 0)
(1.4470143 -0.00099934937 0)
(1.4485827 -0.00093280048 0)
(1.4500459 -0.00087070079 0)
(1.451411 -0.00081275252 0)
(1.4526846 -0.00075867747 0)
(1.4538731 -0.00070821588 0)
(1.4549821 -0.00066112554 0)
(1.4560171 -0.00061718052 0)
(1.4569831 -0.00057617022 0)
(1.4578847 -0.00053789826 0)
(1.4587262 -0.00050218111 0)
(1.4595117 -0.00046884725 0)
(1.460245 -0.00043773645 0)
(1.4609295 -0.0004086989 0)
(1.4615685 -0.00038159515 0)
(1.4621651 -0.00035629564 0)
(1.4627221 -0.00033268008 0)
(1.4632422 -0.00031063583 0)
(1.4637278 -0.00029005798 0)
(1.4641812 -0.00027084894 0)
(1.4646045 -0.00025291735 0)
(1.4649998 -0.00023617739 0)
(1.4653689 -0.000220549 0)
(1.4657136 -0.00020595796 0)
(1.4660355 -0.0001923345 0)
(1.4663361 -0.00017961389 0)
(1.4666168 -0.00016773632 0)
(1.466879 -0.00015664648 0)
(1.4671238 -0.00014629199 0)
(1.4673524 -0.0001366248 0)
(1.467566 -0.00012759843 0)
(1.4677653 -0.00011917071 0)
(1.4679516 -0.00011129981 0)
(1.4681256 -0.00010395005 0)
(1.4682881 -9.7083705e-05 0)
(1.4684397 -9.0671621e-05 0)
(1.4685815 -8.4681179e-05 0)
(1.4687139 -7.9092187e-05 0)
(1.4688375 -7.3870221e-05 0)
(1.4689528 -6.9000371e-05 0)
(1.4690609 -6.4444292e-05 0)
(1.4691615 -6.0201391e-05 0)
(1.4692556 -5.6219937e-05 0)
(1.4693432 -5.2518113e-05 0)
(1.4694258 -4.903365e-05 0)
(1.469502 -4.5824156e-05 0)
(1.469574 -4.2764283e-05 0)
(1.4696401 -3.9980884e-05 0)
(1.469704 -3.7294343e-05 0)
(1.4697607 -3.4935368e-05 0)
(1.469817 -3.2519118e-05 0)
(1.4698652 -3.0507422e-05 0)
(1.4699168 -2.8299997e-05 0)
(1.4699561 -2.6714581e-05 0)
(1.4700044 -2.4629751e-05 0)
(1.470034 -2.3485801e-05 0)
(1.4700832 -2.1426892e-05 0)
(1.4701001 -2.0824566e-05 0)
(1.4701556 -1.8663104e-05 0)
(1.0007347 -0.011814722 0)
(1.0178472 -0.030860927 0)
(1.0462163 -0.041434442 0)
(1.0799018 -0.04519357 0)
(1.1132664 -0.045502351 0)
(1.143782 -0.044080308 0)
(1.1708941 -0.041439982 0)
(1.1945687 -0.037973678 0)
(1.2148582 -0.03419573 0)
(1.2319652 -0.030536888 0)
(1.2462683 -0.027222046 0)
(1.2582339 -0.024313921 0)
(1.2683135 -0.021797888 0)
(1.2768875 -0.01963366 0)
(1.2842554 -0.017773826 0)
(1.2906479 -0.016169652 0)
(1.296243 -0.01477559 0)
(1.3011791 -0.013552298 0)
(1.3055645 -0.012467864 0)
(1.3094838 -0.011497466 0)
(1.3130042 -0.010622162 0)
(1.3161792 -0.0098275136 0)
(1.3190526 -0.0091024113 0)
(1.3216607 -0.008438177 0)
(1.3240343 -0.0078279043 0)
(1.3261995 -0.0072659751 0)
(1.3281786 -0.0067477095 0)
(1.3299913 -0.0062691172 0)
(1.3316544 -0.0058267276 0)
(1.3331829 -0.0054174734 0)
(1.3345896 -0.0050386125 0)
(1.3358862 -0.0046876741 0)
(1.3370827 -0.0043624199 0)
(1.3381882 -0.0040608152 0)
(1.3392108 -0.0037810049 0)
(1.3401576 -0.0035212958 0)
(1.3410349 -0.0032801393 0)
(1.3418486 -0.0030561181 0)
(1.3426038 -0.0028479341 0)
(1.3433051 -0.0026543972 0)
(1.3439569 -0.0024744154 0)
(1.3445629 -0.0023069857 0)
(1.3451267 -0.002151186 0)
(1.3456513 -0.0020061677 0)
(1.3461398 -0.0018711495 0)
(1.3465947 -0.0017454113 0)
(1.3470185 -0.001628289 0)
(1.3474135 -0.0015191695 0)
(1.3477816 -0.001417487 0)
(1.3481249 -0.0013227179 0)
(1.3484449 -0.0012343781 0)
(1.3487435 -0.0011520185 0)
(1.349022 -0.0010752232 0)
(1.3492818 -0.0010036063 0)
(1.3495242 -0.00093681005 0)
(1.3497505 -0.00087450305 0)
(1.3499616 -0.00081637814 0)
(1.3501587 -0.00076214971 0)
(1.3503427 -0.00071155237 0)
(1.3505145 -0.00066433926 0)
(1.3506748 -0.00062028091 0)
(1.3508245 -0.00057916341 0)
(1.3509643 -0.00054078768 0)
(1.3510948 -0.00050496814 0)
(1.3512167 -0.00047153237 0)
(1.3513305 -0.00044031973 0)
(1.3514368 -0.00041118165 0)
(1.3515361 -0.00038397931 0)
(1.3516288 -0.00035858462 0)
(1.3517153 -0.00033487619 0)
(1.3517962 -0.00031274211 0)
(1.3518717 -0.00029207511 0)
(1.3519422 -0.00027277815 0)
(1.3520081 -0.00025475674 0)
(1.3520696 -0.00023792893 0)
(1.3521271 -0.00022221117 0)
(1.3521807 -0.00020753699 0)
(1.3522309 -0.0001938303 0)
(1.3522777 -0.00018103953 0)
(1.3523214 -0.00016908757 0)
(1.3523622 -0.00015793789 0)
(1.3524005 -0.00014750838 0)
(1.3524361 -0.00013778904 0)
(1.3524694 -0.00012867637 0)
(1.3525004 -0.00012020575 0)
(1.3525297 -0.00011224198 0)
(1.3525565 -0.00010488271 0)
(1.3525821 -9.7894431e-05 0)
(1.3526054 -9.1525553e-05 0)
(1.3526282 -8.5396751e-05 0)
(1.352648 -7.9932881e-05 0)
(1.3526683 -7.4429515e-05 0)
(1.352685 -6.980358e-05 0)
(1.3527038 -6.4831343e-05 0)
(1.352717 -6.1125415e-05 0)
(1.3527348 -5.6442306e-05 0)
(1.3527446 -5.3741069e-05 0)
(1.3527629 -4.9143646e-05 0)
(1.3527683 -4.7706695e-05 0)
(1.3527888 -4.2960583e-05 0)
(1.0014244 -0.026824855 0)
(1.0291272 -0.062791352 0)
(1.0654292 -0.077736552 0)
(1.098962 -0.0805972 0)
(1.1253149 -0.07828517 0)
(1.145053 -0.073153899 0)
(1.1594858 -0.066111278 0)
(1.1694287 -0.058162063 0)
(1.1755354 -0.050296754 0)
(1.1785738 -0.043150708 0)
(1.1793571 -0.036972825 0)
(1.1785949 -0.031771633 0)
(1.1768304 -0.02745184 0)
(1.1744518 -0.023886768 0)
(1.1717287 -0.02094762 0)
(1.1688444 -0.01851578 0)
(1.1659195 -0.016488084 0)
(1.1630317 -0.014779502 0)
(1.1602295 -0.013322985 0)
(1.1575415 -0.012067133 0)
(1.1549828 -0.010973001 0)
(1.1525601 -0.010011062 0)
(1.1502747 -0.0091587472 0)
(1.1481246 -0.0083986045 0)
(1.1461059 -0.0077169507 0)
(1.1442134 -0.0071028882 0)
(1.1424414 -0.0065475916 0)
(1.1407838 -0.006043795 0)
(1.1392344 -0.0055854258 0)
(1.1377869 -0.0051673446 0)
(1.1364353 -0.0047851573 0)
(1.1351738 -0.0044350767 0)
(1.1339968 -0.0041138175 0)
(1.1328987 -0.0038185136 0)
(1.1318746 -0.0035466535 0)
(1.1309195 -0.0032960275 0)
(1.1300289 -0.0030646833 0)
(1.1291985 -0.0028508904 0)
(1.1284242 -0.0026531098 0)
(1.1277022 -0.002469968 0)
(1.1270291 -0.0023002351 0)
(1.1264014 -0.0021428069 0)
(1.1258161 -0.0019966886 0)
(1.1252702 -0.0018609817 0)
(1.1247612 -0.0017348725 0)
(1.1242865 -0.0016176221 0)
(1.1238437 -0.0015085583 0)
(1.1234307 -0.001407068 0)
(1.1230455 -0.0013125909 0)
(1.1226861 -0.0012246133 0)
(1.1223509 -0.0011426634 0)
(1.1220381 -0.0010663072 0)
(1.1217462 -0.0009951452 0)
(1.1214739 -0.00092880883 0)
(1.1212198 -0.00086695841 0)
(1.1209827 -0.00080928068 0)
(1.1207614 -0.00075548619 0)
(1.1205548 -0.0007053065 0)
(1.1203621 -0.00065849331 0)
(1.1201821 -0.00061481623 0)
(1.1200142 -0.00057406074 0)
(1.1198574 -0.0005360273 0)
(1.1197111 -0.00050053071 0)
(1.1195745 -0.00046739837 0)
(1.1194469 -0.00043646975 0)
(1.1193278 -0.00040759616 0)
(1.1192167 -0.00038064052 0)
(1.1191129 -0.00035547477 0)
(1.119016 -0.00033198064 0)
(1.1189255 -0.00031004658 0)
(1.118841 -0.00028956841 0)
(1.1187621 -0.00027044676 0)
(1.1186884 -0.00025259126 0)
(1.1186197 -0.00023591437 0)
(1.1185554 -0.00022033989 0)
(1.1184954 -0.00020579192 0)
(1.1184394 -0.00019220869 0)
(1.1183871 -0.00017952113 0)
(1.1183383 -0.0001676793 0)
(1.1182926 -0.00015661541 0)
(1.11825 -0.00014629246 0)
(1.1182103 -0.00013663929 0)
(1.118173 -0.00012763793 0)
(1.1181384 -0.00011920573 0)
(1.1181059 -0.00011135906 0)
(1.1180758 -0.00010398924 0)
(1.1180473 -9.7156216e-05 0)
(1.1180211 -9.0704727e-05 0)
(1.1179963 -8.4791552e-05 0)
(1.1179734 -7.9138327e-05 0)
(1.1179516 -7.4020298e-05 0)
(1.1179318 -6.8989747e-05 0)
(1.1179128 -6.4647754e-05 0)
(1.1178955 -6.0158692e-05 0)
(1.117879 -5.6584499e-05 0)
(1.1178635 -5.2430323e-05 0)
(1.11785 -4.9737269e-05 0)
(1.1178349 -4.5801393e-05 0)
(1.1178261 -4.4314023e-05 0)
(1.1178083 -4.0569937e-05 0)
(1.0016583 -0.05381943 0)
(1.0359761 -0.10128444 0)
(1.0597199 -0.11073663 0)
(1.0628947 -0.10592202 0)
(1.0515569 -0.096228728 0)
(1.0340529 -0.083934061 0)
(1.0142795 -0.070327063 0)
(0.99360703 -0.056981334 0)
(0.97292577 -0.045107479 0)
(0.9531074 -0.03523675 0)
(0.93479538 -0.02740165 0)
(0.91829012 -0.021387228 0)
(0.90362379 -0.0168845 0)
(0.89068067 -0.01356971 0)
(0.87928174 -0.011147749 0)
(0.86923242 -0.0093736586 0)
(0.86034423 -0.0080569274 0)
(0.85244667 -0.0070571267 0)
(0.84539241 -0.006275238 0)
(0.83905793 -0.0056438286 0)
(0.83334126 -0.0051180914 0)
(0.82815884 -0.0046686728 0)
(0.82344212 -0.0042764176 0)
(0.81913467 -0.0039287387 0)
(0.81518961 -0.0036172032 0)
(0.81156765 -0.0033359698 0)
(0.80823544 -0.0030808032 0)
(0.8051644 -0.0028484682 0)
(0.80232979 -0.0026363689 0)
(0.79970999 -0.0024423385 0)
(0.79728597 -0.0022645191 0)
(0.79504086 -0.0021012904 0)
(0.79295963 -0.0019512259 0)
(0.7910288 -0.0018130634 0)
(0.78923627 -0.0016856837 0)
(0.7875711 -0.0015680924 0)
(0.78602338 -0.0014594054 0)
(0.78458411 -0.0013588354 0)
(0.78324511 -0.0012656801 0)
(0.78199889 -0.0011793116 0)
(0.7808386 -0.0010991673 0)
(0.77975799 -0.0010247416 0)
(0.77875127 -0.00095557925 0)
(0.77781317 -0.00089126873 0)
(0.77693881 -0.00083143735 0)
(0.77612367 -0.00077574668 0)
(0.77536362 -0.00072388849 0)
(0.77465481 -0.00067558157 0)
(0.77399367 -0.0006305685 0)
(0.77337693 -0.00058861261 0)
(0.77280153 -0.00054949589 0)
(0.77226464 -0.00051301744 0)
(0.77176363 -0.000478992 0)
(0.77129606 -0.00044724841 0)
(0.77085966 -0.00041762895 0)
(0.77045234 -0.00038998804 0)
(0.77007211 -0.00036419066 0)
(0.76971717 -0.00034011173 0)
(0.76938581 -0.00031763545 0)
(0.76907644 -0.00029665379 0)
(0.7687876 -0.00027706568 0)
(0.76851791 -0.00025877683 0)
(0.76826609 -0.0002416996 0)
(0.76803095 -0.00022575194 0)
(0.76781139 -0.00021085783 0)
(0.76760635 -0.00019694719 0)
(0.76741488 -0.00018395547 0)
(0.76723608 -0.00017182254 0)
(0.7670691 -0.00016049276 0)
(0.76691316 -0.00014991298 0)
(0.76676752 -0.00014003337 0)
(0.7666315 -0.00013080581 0)
(0.76650446 -0.00012218661 0)
(0.76638582 -0.00011413338 0)
(0.76627501 -0.00010660975 0)
(0.76617152 -9.9579936e-05 0)
(0.76607486 -9.3014824e-05 0)
(0.76598459 -8.6881973e-05 0)
(0.76590026 -8.1157604e-05 0)
(0.76582151 -7.5809244e-05 0)
(0.76574794 -7.0819011e-05 0)
(0.76567924 -6.6152745e-05 0)
(0.76561504 -6.1799762e-05 0)
(0.76555512 -5.7722257e-05 0)
(0.76549911 -5.3925547e-05 0)
(0.76544685 -5.0358139e-05 0)
(0.76539796 -4.7043946e-05 0)
(0.76535239 -4.3930028e-05 0)
(0.76530971 -4.1069345e-05 0)
(0.76526996 -3.8332807e-05 0)
(0.7652327 -3.5828566e-05 0)
(0.76519805 -3.3433218e-05 0)
(0.76516559 -3.1318631e-05 0)
(0.76513516 -2.9204158e-05 0)
(0.7651071 -2.7385707e-05 0)
(0.76507997 -2.5524305e-05 0)
(0.76505665 -2.4063906e-05 0)
(0.76503057 -2.254516e-05 0)
(0.76501445 -2.1587716e-05 0)
(0.76498346 -2.0984986e-05 0)
(0.91890839 -0.035821913 0)
(0.86271384 -0.062195638 0)
(0.7870597 -0.06251009 0)
(0.69536033 -0.054550395 0)
(0.61089745 -0.044531651 0)
(0.54411592 -0.034015972 0)
(0.49343012 -0.02418754 0)
(0.45479413 -0.01614423 0)
(0.42544582 -0.010265785 0)
(0.40347313 -0.006304145 0)
(0.38715766 -0.0037976294 0)
(0.3749622 -0.0023103384 0)
(0.36566192 -0.0014930154 0)
(0.35836272 -0.0010851186 0)
(0.35244268 -0.0009060723 0)
(0.34748201 -0.00084105135 0)
(0.34320348 -0.00082372362 0)
(0.33942726 -0.00081931007 0)
(0.33603793 -0.00081185199 0)
(0.33296114 -0.00079580153 0)
(0.33014778 -0.00077081194 0)
(0.32756384 -0.00073870994 0)
(0.3251842 -0.00070188955 0)
(0.32298902 -0.00066256563 0)
(0.32096172 -0.00062249931 0)
(0.31908785 -0.00058295704 0)
(0.31735449 -0.00054477116 0)
(0.31574995 -0.00050843392 0)
(0.3142636 -0.00047419168 0)
(0.31288574 -0.00044212494 0)
(0.31160755 -0.0004122099 0)
(0.31042101 -0.00038436204 0)
(0.30931883 -0.00035846518 0)
(0.30829438 -0.00033439022 0)
(0.30734165 -0.00031200633 0)
(0.30645515 -0.00029118713 0)
(0.30562991 -0.00027181379 0)
(0.30486136 -0.00025377647 0)
(0.30414535 -0.00023697438 0)
(0.30347807 -0.00022131525 0)
(0.302856 -0.00020671482 0)
(0.30227596 -0.0001930962 0)
(0.30173496 -0.00018038906 0)
(0.30123029 -0.00016852894 0)
(0.30075942 -0.00015745675 0)
(0.30032002 -0.00014711816 0)
(0.29990993 -0.00013746304 0)
(0.29952715 -0.00012844522 0)
(0.29916983 -0.00012002181 0)
(0.29883624 -0.0001121527 0)
(0.29852478 -0.00010480056 0)
(0.29823396 -9.7930758e-05 0)
(0.29796241 -9.1511085e-05 0)
(0.29770882 -8.5511649e-05 0)
(0.29747201 -7.9904877e-05 0)
(0.29725084 -7.4665186e-05 0)
(0.29704429 -6.9768588e-05 0)
(0.29685138 -6.5192824e-05 0)
(0.2966712 -6.0917179e-05 0)
(0.29650291 -5.6921938e-05 0)
(0.29634572 -5.3188424e-05 0)
(0.2961989 -4.969923e-05 0)
(0.29606176 -4.6438102e-05 0)
(0.29593366 -4.3389753e-05 0)
(0.29581401 -4.0540305e-05 0)
(0.29570224 -3.7877171e-05 0)
(0.29559784 -3.5388626e-05 0)
(0.29550032 -3.3063694e-05 0)
(0.29540922 -3.089205e-05 0)
(0.29532413 -2.8863451e-05 0)
(0.29524464 -2.6968219e-05 0)
(0.29517039 -2.5197005e-05 0)
(0.29510103 -2.3541359e-05 0)
(0.29503624 -2.1993208e-05 0)
(0.29497572 -2.0546079e-05 0)
(0.29491919 -1.9193524e-05 0)
(0.29486638 -1.7930368e-05 0)
(0.29481705 -1.6750434e-05 0)
(0.29477097 -1.5649371e-05 0)
(0.29472793 -1.4620424e-05 0)
(0.29468771 -1.3660382e-05 0)
(0.29465016 -1.2762064e-05 0)
(0.29461507 -1.1923768e-05 0)
(0.2945823 -1.1137517e-05 0)
(0.29455168 -1.0405468e-05 0)
(0.29452309 -9.716173e-06 0)
(0.29449637 -9.0770722e-06 0)
(0.29447142 -8.479006e-06 0)
(0.29444808 -7.9300844e-06 0)
(0.29442632 -7.3961103e-06 0)
(0.29440599 -6.909765e-06 0)
(0.294387 -6.4602779e-06 0)
(0.2943692 -6.0628323e-06 0)
(0.29435259 -5.6565878e-06 0)
(0.29433715 -5.2937152e-06 0)
(0.2943225 -4.9716245e-06 0)
(0.29430919 -4.6856576e-06 0)
(0.29429569 -4.5322747e-06 0)
(0.29428502 -4.4001519e-06 0)
(0.29426875 -5.0536219e-06 0)
)
;

boundaryField
{
    top
    {
        type            fixedValue;
        value           uniform (0 0 0);
    }
    inlet
    {
        type            fixedValue;
        value           uniform (1 0 0);
    }
    outlet
    {
        type            zeroGradient;
    }
    bottom
    {
        type            fixedValue;
        value           uniform (0 0 0);
    }
    back
    {
        type            empty;
    }
    front
    {
        type            empty;
    }
}


// ************************************************************************* //
