/*--------------------------------*- C++ -*----------------------------------*\
| =========                 |                                                 |
| \\      /  F ield         | OpenFOAM: The Open Source CFD Toolbox           |
|  \\    /   O peration     | Version:  v1812                                 |
|   \\  /    A nd           | Web:      www.OpenFOAM.com                      |
|    \\/     M anipulation  |                                                 |
\*---------------------------------------------------------------------------*/
FoamFile
{
    version     2.0;
    format      ascii;
    class       surfaceScalarField;
    location    "6.55";
    object      phi;
}
// * * * * * * * * * * * * * * * * * * * * * * * * * * * * * * * * * * * * * //

dimensions      [0 3 -1 0 0 0 0];
oriented        oriented;


internalField   nonuniform List<scalar> 
1890
(
0.0093061957
0.00069380425
0.0082843931
0.0010218027
0.0073298986
0.00095449449
0.0064869553
0.00084294334
0.0057695845
0.0007173708
0.00518986
0.00057972444
0.004738168
0.00045169205
0.00439519
0.00034297801
0.0041390268
0.00025616318
0.0039491069
0.00018991983
0.003807888
0.00014121897
0.0037013782
0.0001065098
0.003619058
8.2320221e-05
0.0035534117
6.5646246e-05
0.0034992845
5.4127258e-05
0.0034532444
4.6040054e-05
0.0034130501
4.01943e-05
0.0033772573
3.5792764e-05
0.0033449386
3.2318767e-05
0.0033154893
2.9449288e-05
0.0032885007
2.6988583e-05
0.0032636804
2.4820309e-05
0.0032408049
2.2875493e-05
0.0032196925
2.1112438e-05
0.0032001878
1.9504685e-05
0.0031821537
1.8034057e-05
0.0031654669
1.6686779e-05
0.0031500155
1.5451428e-05
0.0031356976
1.4317941e-05
0.0031224204
1.3277167e-05
0.0031100997
1.232071e-05
0.0030986588
1.1440868e-05
0.0030880282
1.0630615e-05
0.0030781446
9.8835777e-06
0.0030689506
9.1940027e-06
0.0030603939
8.556713e-06
0.0030524269
7.967058e-06
0.003045006
7.420858e-06
0.0030380917
6.9143491e-06
0.0030316476
6.4441289e-06
0.0030256405
6.0071092e-06
0.0030200401
5.6004703e-06
0.0030148185
5.2216275e-06
0.0030099504
4.8681941e-06
0.0030054125
4.5379662e-06
0.0030011837
4.2288947e-06
0.0029972447
3.9390884e-06
0.0029935781
3.6667902e-06
0.0029901679
3.4103974e-06
0.0029869996
3.1684407e-06
0.0029840602
2.939615e-06
0.0029813376
2.7227552e-06
0.0029788209
2.5168729e-06
0.0029765
2.3211238e-06
0.0029743654
2.1348433e-06
0.002972408
1.9575028e-06
0.0029706195
1.78874e-06
0.0029689913
1.6283023e-06
0.0029675154
1.4760702e-06
0.0029661835
1.3319936e-06
0.0029649875
1.1961073e-06
0.0029639191
1.0684653e-06
0.0029629699
9.4915195e-07
0.0029621317
8.3822458e-07
0.0029613959
7.3572105e-07
0.0029607543
6.416167e-07
0.0029601984
5.5583105e-07
0.0029597201
4.7820608e-07
0.0029593115
4.0851064e-07
0.0029589649
3.4643959e-07
0.0029586732
2.9161558e-07
0.0029584295
2.436086e-07
0.0029582274
2.0193188e-07
0.0029580613
1.6607595e-07
0.0029579257
1.3549732e-07
0.002957816
1.0966328e-07
0.0029577279
8.8029341e-08
0.0029576578
7.0089363e-08
0.0029576024
5.5341819e-08
0.002957559
4.3342416e-08
0.0029575253
3.3661014e-08
0.0029574994
2.5931167e-08
0.0029574796
1.9805691e-08
0.0029574646
1.5002861e-08
0.0029574533
1.1262133e-08
0.002957445
8.3829139e-09
0.0029574388
6.18245e-09
0.0029574343
4.5259811e-09
0.002957431
3.2898956e-09
0.0029574286
2.3814481e-09
0.0029574268
1.7192557e-09
0.0029574256
1.2387694e-09
0.0029574247
8.959264e-10
0.0029574241
6.5252193e-10
0.0029574236
5.0436876e-10
0.0029574232
4.3426978e-10
0.0029574227
4.6432434e-10
0.0029574221
6.1701632e-10
0.0029574211
1.0196757e-09
1.48471e-09
0.010339525
0.00035427932
0.010570754
0.00079057335
0.010606301
0.00091894821
0.010547572
0.00090167137
0.010422317
0.00084262624
0.010244356
0.00075768559
0.010039421
0.00065662744
0.0098287427
0.00055365586
0.009625135
0.00045977083
0.0094353013
0.00037975354
0.0092624277
0.00031409259
0.0091075332
0.00026140426
0.0089701539
0.00021969949
0.0088489023
0.00018689787
0.0087419715
0.00016105804
0.0086474926
0.00014051896
0.0085636939
0.00012399298
0.0084890107
0.00011047602
0.0084221096
9.9219887e-05
0.0083618774
8.9681419e-05
0.0083073953
8.1470685e-05
0.0082579078
7.4307868e-05
0.0082127927
6.7990526e-05
0.0081715352
6.237003e-05
0.0081337048
5.7335065e-05
0.0080989386
5.2800243e-05
0.008066927
4.8698329e-05
0.0080374035
4.4975016e-05
0.0080101359
4.1585442e-05
0.0079849212
3.8491877e-05
0.0079615798
3.5662147e-05
0.0079399521
3.3068537e-05
0.0079198957
3.0686983e-05
0.0079012829
2.8496467e-05
0.0078839983
2.6478536e-05
0.0078679381
2.4616914e-05
0.007853008
2.2897185e-05
0.0078391223
2.1306517e-05
0.0078262033
1.9833436e-05
0.0078141797
1.8467629e-05
0.0078029871
1.7199772e-05
0.0077925662
1.6021393e-05
0.007782863
1.492475e-05
0.0077738285
1.3902741e-05
0.0077654177
1.2948816e-05
0.0077575897
1.2056942e-05
0.0077503073
1.122154e-05
0.0077435366
1.0437486e-05
0.007737247
9.7000763e-06
0.0077314104
9.0050587e-06
0.0077260015
8.348602e-06
0.007720997
7.7273448e-06
0.0077163755
7.1383597e-06
0.0077121175
6.5792023e-06
0.0077082045
6.0478557e-06
0.0077046193
5.5427657e-06
0.0077013453
5.0627589e-06
0.0076983666
4.6070561e-06
0.0076956675
4.1751679e-06
0.0076932325
3.7668849e-06
0.0076910464
3.3821606e-06
0.0076890937
3.0210854e-06
0.007687359
2.6837763e-06
0.0076858268
2.3703434e-06
0.0076844816
2.0808032e-06
0.007683308
1.8150486e-06
0.0076822909
1.5727998e-06
0.0076814154
1.3535844e-06
0.007680667
1.156731e-06
0.0076800319
9.8136047e-07
0.0076794969
8.2641825e-07
0.0076790497
6.9067465e-07
0.0076786787
5.7278602e-07
0.0076783734
4.7129595e-07
0.0076781241
3.8471283e-07
0.0076779222
3.1150499e-07
0.00767776
2.5018313e-07
0.0076776307
1.9927945e-07
0.0076775286
1.5742887e-07
0.0076774486
1.2333014e-07
0.0076773864
9.582055e-08
0.0076773384
7.3819383e-08
0.0076773018
5.6399765e-08
0.0076772741
4.2718165e-08
0.0076772533
3.2087136e-08
0.0076772378
2.388446e-08
0.0076772264
1.7636584e-08
0.007677218
1.2904664e-08
0.0076772119
9.3835058e-09
0.0076772075
6.7665992e-09
0.0076772043
4.8679729e-09
0.0076772021
3.4765577e-09
0.0076772005
2.4965363e-09
0.0076771994
1.7993482e-09
0.0076771986
1.3496009e-09
0.0076771979
1.1011641e-09
0.0076771974
1.0219024e-09
0.0076771968
1.1831395e-09
0.0076771964
1.4587875e-09
1.9323198e-09
0.010188704
0.00016557515
0.010530487
0.000448791
0.010851453
0.00059798178
0.011124174
0.00062895025
0.011350581
0.00061621887
0.011524486
0.00058378056
0.01164633
0.00053478421
0.011724155
0.0004758305
0.011767999
0.00041592666
0.011786639
0.000361114
0.011787114
0.00031361712
0.011775058
0.00027346027
0.011754861
0.0002398972
0.011729768
0.00021199033
0.011702054
0.00018877262
0.011673239
0.0001693339
0.011644339
0.00015289298
0.011616003
0.00013881185
0.011588629
0.00012659382
0.011562446
0.00011586448
0.011537571
0.00010634497
0.011514052
9.7827043e-05
0.011491889
9.0153412e-05
0.011471056
8.3203423e-05
0.011451508
7.6882677e-05
0.011433193
7.1115629e-05
0.011416051
6.5840359e-05
0.011400021
6.1004966e-05
0.011385041
5.6565106e-05
0.011371051
5.2482333e-05
0.01135799
4.8722949e-05
0.011345801
4.5257187e-05
0.01133443
4.205859e-05
0.011323823
3.910354e-05
0.01131393
3.6370876e-05
0.011304706
3.3841568e-05
0.011296104
3.1498457e-05
0.011288085
2.9326016e-05
0.011280608
2.7310143e-05
0.011273638
2.543799e-05
0.01126714
2.3697799e-05
0.011261082
2.2078771e-05
0.011255436
2.0570947e-05
0.011250174
1.9165114e-05
0.01124527
1.7852722e-05
0.011240701
1.6625832e-05
0.011236446
1.5477072e-05
0.011232484
1.4399609e-05
0.011228797
1.3387142e-05
0.011225368
1.24339e-05
0.011222182
1.1534654e-05
0.011219225
1.0684723e-05
0.011216483
9.8800017e-06
0.011213945
9.1169459e-06
0.011211601
8.3926026e-06
0.011209439
7.7045613e-06
0.011207451
7.0509714e-06
0.011205627
6.4304541e-06
0.01120396
5.8420977e-06
0.011202442
5.2853354e-06
0.011201064
4.7599206e-06
0.011199819
4.265786e-06
0.0111987
3.8030062e-06
0.011197699
3.371661e-06
0.011196808
2.971799e-06
0.011196019
2.6033263e-06
0.011195326
2.2659826e-06
0.01119472
1.9592712e-06
0.011194194
1.6824553e-06
0.011193741
1.4345369e-06
0.011193353
1.2142703e-06
0.011193023
1.020184e-06
0.011192745
8.5061169e-07
0.011192513
7.0374196e-07
0.01119232
5.7765268e-07
0.011192161
4.7037636e-07
0.011192031
3.7992856e-07
0.011191926
3.0437262e-07
0.011191841
2.4183492e-07
0.011191774
1.9055788e-07
0.011191721
1.4890173e-07
0.011191679
1.1537967e-07
0.011191647
8.8651877e-08
0.011191622
6.753949e-08
0.011191603
5.1017331e-08
0.011191589
3.8206483e-08
0.011191578
2.8371136e-08
0.01119157
2.0890374e-08
0.011191564
1.5263137e-08
0.01119156
1.1068106e-08
0.011191557
7.9764529e-09
0.011191555
5.7200028e-09
0.011191553
4.0905506e-09
0.011191552
2.9518596e-09
0.011191551
2.1574094e-09
0.011191551
1.6914008e-09
0.01119155
1.4041351e-09
0.01119155
1.4167368e-09
0.01119155
1.4954514e-09
1.744878e-09
0.010097182
6.8393556e-05
0.010346961
0.00019901112
0.010662469
0.00028247387
0.010982753
0.00030866649
0.011290229
0.00030874342
0.011575251
0.00029875789
0.011829022
0.00028101346
0.012047865
0.00025698756
0.012233272
0.00023051982
0.01238924
0.0002051459
0.012520295
0.00018256236
0.012630755
0.00016299958
0.012724428
0.00014622492
0.012804515
0.00013190314
0.012873613
0.00011967428
0.012933772
0.00010917463
0.012986596
0.00010006909
0.013033332
9.2076394e-05
0.01307495
8.4975288e-05
0.013112216
7.8598656e-05
0.013145739
7.2822353e-05
0.013176012
6.7553995e-05
0.013203441
6.2723988e-05
0.013228366
5.8278966e-05
0.013251071
5.4177064e-05
0.013271802
5.0384515e-05
0.013290769
4.6873251e-05
0.013308155
4.3619267e-05
0.013324119
4.0601541e-05
0.0133388
3.7801339e-05
0.013352321
3.5201766e-05
0.013364791
3.2787459e-05
0.013376305
3.0544378e-05
0.013386949
2.8459644e-05
0.013396798
2.6521412e-05
0.013405921
2.4718769e-05
0.013414378
2.3041647e-05
0.013422223
2.1480733e-05
0.013429506
2.0027406e-05
0.01343627
1.867366e-05
0.013442556
1.7412046e-05
0.013448399
1.6235618e-05
0.013453832
1.5137882e-05
0.013458884
1.4112751e-05
0.013463583
1.3154518e-05
0.013467951
1.2257826e-05
0.01347201
1.1417653e-05
0.01347578
1.0629307e-05
0.013479279
9.8884059e-06
0.013482522
9.1909194e-06
0.013485524
8.5331303e-06
0.013488297
7.9117053e-06
0.013490853
7.32364e-06
0.013493204
6.7663471e-06
0.013495359
6.237574e-06
0.013497328
5.7354981e-06
0.01349912
5.2586104e-06
0.013500745
4.805807e-06
0.013502211
4.3762407e-06
0.013503527
3.9694011e-06
0.013504702
3.5849442e-06
0.013505745
3.2227568e-06
0.013506665
2.8827812e-06
0.013507472
2.5650667e-06
0.013508174
2.2696093e-06
0.013508781
1.9963915e-06
0.013509301
1.7452573e-06
0.013509745
1.5159446e-06
0.013510119
1.3080102e-06
0.013510433
1.1208525e-06
0.013510693
9.5368703e-07
0.013510908
8.0556608e-07
0.013511083
6.7540481e-07
0.013511225
5.6198294e-07
0.013511338
4.6401017e-07
0.013511428
3.8011207e-07
0.013511499
3.0892166e-07
0.013511555
2.4904178e-07
0.013511598
1.9915269e-07
0.01351163
1.5794729e-07
0.013511655
1.2424907e-07
0.013511673
9.6921439e-08
0.013511687
7.4988445e-08
0.013511697
5.7522751e-08
0.013511704
4.3768504e-08
0.01351171
3.3011615e-08
0.013511713
2.4705789e-08
0.013511716
1.8325677e-08
0.013511718
1.3500853e-08
0.013511719
9.8604446e-09
0.01351172
7.1665165e-09
0.01351172
5.1722935e-09
0.01351172
3.7323499e-09
0.013511721
2.6983305e-09
0.013511721
1.9820896e-09
0.013511721
1.5063432e-09
0.013511721
1.2133606e-09
0.013511722
1.098569e-09
0.013511722
1.075004e-09
1.1372207e-09
0.010068394
1.0007497e-14
0.010267405
2.6892028e-13
0.010549879
6.2845066e-13
0.010858545
1.0849831e-12
0.011167288
1.6248894e-12
0.011466046
2.2628061e-12
0.01174706
2.9745036e-12
0.012004047
3.7835692e-12
0.012234567
4.7179194e-12
0.012439713
5.8446375e-12
0.012622275
7.2584691e-12
0.012785275
9.0655521e-12
0.0129315
1.1350789e-11
0.013063403
1.4217111e-11
0.013183077
1.7637112e-11
0.013292252
2.1715058e-11
0.013392321
2.629288e-11
0.013484397
3.1519503e-11
0.013569373
3.7201574e-11
0.013647971
4.3575723e-11
0.013720793
5.0546088e-11
0.013788347
5.8501176e-11
0.013851071
6.744647e-11
0.01390935
7.7895848e-11
0.013963527
8.9663311e-11
0.014013912
1.0324115e-10
0.014060785
1.1798943e-10
0.014104404
1.3437387e-10
0.014145005
1.5121511e-10
0.014182806
1.6897344e-10
0.014218008
1.8617384e-10
0.014250795
2.0329589e-10
0.014281339
2.1876845e-10
0.014309799
2.3296751e-10
0.01433632
2.4444824e-10
0.014361038
2.5339951e-10
0.01438408
2.5812012e-10
0.01440556
2.5822549e-10
0.014425587
2.5220677e-10
0.014444261
2.3898972e-10
0.014461673
2.176202e-10
0.014477908
1.8636969e-10
0.014493046
1.4635214e-10
0.014507158
9.56105e-11
0.014520313
4.0148467e-11
0.014532571
-3.7267039e-11
0.014543988
-1.1312633e-10
0.014554618
-1.9792227e-10
0.014564506
-2.8024348e-10
0.014573698
-3.6803898e-10
0.014582231
-4.4617452e-10
0.014590144
-5.2523677e-10
0.014597468
-5.8726097e-10
0.014604235
-6.4682811e-10
0.014610473
-6.8401467e-10
0.014616209
-7.1570518e-10
0.014621469
-7.2178575e-10
0.014626275
-7.2220834e-10
0.014630652
-6.9809664e-10
0.014634622
-6.6876868e-10
0.014638208
-6.18188e-10
0.014641431
-5.6499472e-10
0.014644314
-4.9676688e-10
0.01464688
-4.280359e-10
0.01464915
-3.5041859e-10
0.014651147
-2.7500597e-10
0.014652892
-1.9774167e-10
0.014654408
-1.2497642e-10
0.014655716
-5.7145802e-11
0.014656837
9.7289777e-12
0.014657791
6.6835975e-11
0.014658596
1.1767387e-10
0.014659272
1.5709437e-10
0.014659834
1.9344665e-10
0.014660297
2.1797025e-10
0.014660677
2.4248939e-10
0.014660986
2.5466857e-10
0.014661235
2.6975131e-10
0.014661434
2.7112002e-10
0.014661592
2.7520804e-10
0.014661716
2.6407045e-10
0.014661812
2.5781048e-10
0.014661887
2.3860078e-10
0.014661944
2.2740498e-10
0.014661988
2.0607492e-10
0.014662021
1.9708147e-10
0.014662046
1.7915533e-10
0.014662064
1.7337644e-10
0.014662077
1.5656919e-10
0.014662087
1.5201218e-10
0.014662094
1.3743237e-10
0.014662099
1.3714116e-10
0.014662102
1.2913775e-10
0.014662105
1.3454369e-10
0.014662107
1.3443923e-10
0.014662108
1.2976759e-10
0.014662109
1.3042898e-10
0.01466211
1.1192646e-10
0.014662112
1.0317535e-10
1.3212766e-10
0.010068394
-6.8393556e-05
0.010267405
-0.00019901112
0.010549879
-0.00028247387
0.010858545
-0.00030866649
0.011167288
-0.00030874342
0.011466046
-0.00029875788
0.01174706
-0.00028101345
0.012004047
-0.00025698755
0.012234567
-0.00023051981
0.012439713
-0.00020514589
0.012622275
-0.00018256235
0.012785275
-0.00016299956
0.0129315
-0.0001462249
0.013063403
-0.00013190311
0.013183077
-0.00011967425
0.013292252
-0.00010917459
0.013392321
-0.00010006904
0.013484397
-9.2076334e-05
0.013569373
-8.4975217e-05
0.013647971
-7.8598573e-05
0.013720794
-7.2822258e-05
0.013788347
-6.7553885e-05
0.013851071
-6.2723861e-05
0.01390935
-5.827882e-05
0.013963527
-5.4176896e-05
0.014013912
-5.0384322e-05
0.014060785
-4.6873031e-05
0.014104404
-4.3619018e-05
0.014145005
-4.0601261e-05
0.014182807
-3.7801027e-05
0.014218008
-3.5201422e-05
0.014250795
-3.2787085e-05
0.01428134
-3.0543977e-05
0.014309799
-2.8459218e-05
0.01433632
-2.6520966e-05
0.014361039
-2.4718308e-05
0.01438408
-2.3041178e-05
0.014405561
-2.1480265e-05
0.014425588
-2.0026949e-05
0.014444261
-1.8673225e-05
0.014461673
-1.741165e-05
0.014477909
-1.6235276e-05
0.014493046
-1.5137609e-05
0.014507159
-1.4112567e-05
0.014520313
-1.315444e-05
0.014532571
-1.2257875e-05
0.014543989
-1.1417836e-05
0.014554618
-1.0629635e-05
0.014564507
-9.8888804e-06
0.014573698
-9.1915443e-06
0.014582232
-8.5338956e-06
0.014590144
-7.9126061e-06
0.014597468
-7.3246558e-06
0.014604235
-6.7674662e-06
0.014610473
-6.2387665e-06
0.014616209
-5.736747e-06
0.014621468
-5.2598812e-06
0.014626274
-4.807082e-06
0.014630651
-4.377485e-06
0.014634621
-3.9705985e-06
0.014638207
-3.5860642e-06
0.01464143
-3.2237885e-06
0.014644313
-2.8837014e-06
0.014646879
-2.5658696e-06
0.014649149
-2.2702806e-06
0.014651145
-1.9969315e-06
0.014652891
-1.7456617e-06
0.014654407
-1.5162194e-06
0.014655715
-1.3081585e-06
0.014656836
-1.1208815e-06
0.01465779
-9.5361001e-07
0.014658595
-8.053959e-07
0.014659271
-6.7515735e-07
0.014659833
-5.6166759e-07
0.014660297
-4.6364309e-07
0.014660677
-3.7969901e-07
0.014660985
-3.0847795e-07
0.014661234
-2.4857042e-07
0.014661433
-1.9867177e-07
0.014661591
-1.5746106e-07
0.014661715
-1.2377673e-07
0.014661812
-9.6464073e-08
0.014661887
-7.4561094e-08
0.014661944
-5.7119932e-08
0.014661988
-4.3397996e-08
0.014662021
-3.2661551e-08
0.014662045
-2.4382316e-08
0.014662064
-1.8018193e-08
0.014662077
-1.3217295e-08
0.014662087
-9.59109e-09
0.014662094
-6.9177622e-09
0.014662099
-4.9317777e-09
0.014662102
-3.4996701e-09
0.014662105
-2.4618679e-09
0.014662107
-1.7437024e-09
0.014662108
-1.2734705e-09
0.014662109
-9.7925013e-10
0.01466211
-8.8623175e-10
0.014662112
-8.7984832e-10
-9.1120101e-10
0.010097182
-0.00016557515
0.010346961
-0.000448791
0.010662469
-0.00059798177
0.010982753
-0.00062895025
0.011290229
-0.00061621886
0.011575251
-0.00058378055
0.011829022
-0.0005347842
0.012047865
-0.00047583049
0.012233272
-0.00041592665
0.01238924
-0.00036111399
0.012520295
-0.00031361711
0.012630755
-0.00027346025
0.012724428
-0.00023989718
0.012804515
-0.0002119903
0.012873613
-0.00018877259
0.012933772
-0.00016933387
0.012986596
-0.00015289294
0.013033332
-0.0001388118
0.01307495
-0.00012659376
0.013112216
-0.00011586441
0.013145739
-0.0001063449
0.013176012
-9.7826954e-05
0.013203441
-9.0153311e-05
0.013228366
-8.3203307e-05
0.013251071
-7.6882544e-05
0.013271803
-7.1115477e-05
0.01329077
-6.5840187e-05
0.013308156
-6.1004772e-05
0.013324119
-5.656489e-05
0.0133388
-5.2482095e-05
0.013352321
-4.872269e-05
0.013364791
-4.5256908e-05
0.013376306
-4.2058294e-05
0.01338695
-3.9103232e-05
0.013396799
-3.6370557e-05
0.013405922
-3.3841244e-05
0.013414379
-3.1498133e-05
0.013422224
-2.9325698e-05
0.013429507
-2.730984e-05
0.013436272
-2.543771e-05
0.013442558
-2.3697555e-05
0.013448401
-2.2078572e-05
0.013453834
-2.0570809e-05
0.013458886
-1.9165042e-05
0.013463585
-1.7852736e-05
0.013467953
-1.6625934e-05
0.013472012
-1.5477279e-05
0.013475782
-1.4399911e-05
0.013479281
-1.3387558e-05
0.013482524
-1.2434407e-05
0.013485525
-1.1535268e-05
0.013488298
-1.0685413e-05
0.013490854
-9.8807816e-06
0.013493204
-9.1177757e-06
0.013495359
-8.3934936e-06
0.013497327
-7.7054687e-06
0.013499119
-7.0519069e-06
0.013500744
-6.4313714e-06
0.013502209
-5.8430074e-06
0.013503525
-5.2861948e-06
0.013504699
-4.7607412e-06
0.013505742
-4.2665314e-06
0.013506662
-3.8036871e-06
0.013507468
-3.3722504e-06
0.01350817
-2.9723065e-06
0.013508777
-2.6037362e-06
0.013509298
-2.266302e-06
0.013509741
-1.9594964e-06
0.013510115
-1.6825915e-06
0.013510429
-1.4345914e-06
0.01351069
-1.2142456e-06
0.013510904
-1.0200983e-06
0.01351108
-8.5046259e-07
0.013511222
-7.0355206e-07
0.013511335
-5.7741349e-07
0.013511426
-4.7011362e-07
0.013511497
-3.7962731e-07
0.013511553
-3.0406355e-07
0.013511596
-2.4150192e-07
0.013511628
-1.9023626e-07
0.013511653
-1.4857308e-07
0.013511672
-1.150793e-07
0.013511686
-8.8356663e-08
0.013511696
-6.7279387e-08
0.013511703
-5.0760559e-08
0.013511709
-3.7981249e-08
0.013511713
-2.8143226e-08
0.013511715
-2.0691478e-08
0.013511717
-1.5058275e-08
0.013511718
-1.0892169e-08
0.013511719
-7.7943527e-09
0.01351172
-5.5668136e-09
0.01351172
-3.9237115e-09
0.013511721
-2.8068046e-09
0.013511721
-1.9907502e-09
0.013511721
-1.5329903e-09
0.013511721
-1.2366771e-09
0.013511722
-1.250898e-09
0.013511722
-1.3427744e-09
-1.5973603e-09
0.010188704
-0.00035427932
0.010530487
-0.00079057335
0.010851453
-0.00091894821
0.011124174
-0.00090167137
0.011350581
-0.00084262624
0.011524486
-0.00075768559
0.01164633
-0.00065662744
0.011724155
-0.00055365586
0.011767999
-0.00045977083
0.011786639
-0.00037975353
0.011787114
-0.00031409258
0.011775058
-0.00026140425
0.011754861
-0.00021969948
0.011729768
-0.00018689786
0.011702054
-0.00016105802
0.011673239
-0.00014051894
0.011644339
-0.00012399295
0.011616003
-0.00011047599
0.011588629
-9.921985e-05
0.011562446
-8.9681377e-05
0.011537572
-8.1470638e-05
0.011514052
-7.4307814e-05
0.01149189
-6.7990465e-05
0.011471056
-6.236996e-05
0.011451509
-5.7334986e-05
0.011433193
-5.2800153e-05
0.011416051
-4.8698229e-05
0.011400022
-4.4974904e-05
0.011385042
-4.158532e-05
0.011371052
-3.8491745e-05
0.011357991
-3.5662007e-05
0.011345802
-3.306839e-05
0.011334431
-3.0686831e-05
0.011323824
-2.8496313e-05
0.011313932
-2.6478382e-05
0.011304707
-2.4616763e-05
0.011296106
-2.289704e-05
0.011288087
-2.1306383e-05
0.01128061
-1.9833318e-05
0.01127364
-1.8467532e-05
0.011267142
-1.7199702e-05
0.011261085
-1.6021357e-05
0.011255439
-1.4924754e-05
0.011250176
-1.3902789e-05
0.011245272
-1.2948917e-05
0.011240703
-1.2057095e-05
0.011236448
-1.122175e-05
0.011232486
-1.0437748e-05
0.011228798
-9.7003958e-06
0.011225369
-9.0054244e-06
0.011222183
-8.3490164e-06
0.011219225
-7.7277942e-06
0.011216483
-7.1388454e-06
0.011213945
-6.5797064e-06
0.0112116
-6.0483794e-06
0.011209437
-5.5432906e-06
0.011207449
-5.0632861e-06
0.011205625
-4.607567e-06
0.011203957
-4.1756646e-06
0.011202439
-3.7673513e-06
0.01120106
-3.3825991e-06
0.011199815
-3.0214833e-06
0.011198696
-2.6841359e-06
0.011197694
-2.3706559e-06
0.011196803
-2.0810705e-06
0.011196014
-1.8152669e-06
0.011195321
-1.5729707e-06
0.011194715
-1.3537088e-06
0.011194189
-1.1568106e-06
0.011193736
-9.814015e-07
0.011193348
-8.2642169e-07
0.011193019
-6.9064898e-07
0.011192741
-5.7273041e-07
0.011192509
-4.7122006e-07
0.011192316
-3.8461279e-07
0.011192157
-3.113894e-07
0.011192028
-2.5004753e-07
0.011191923
-1.9913712e-07
0.011191839
-1.5727724e-07
0.011191772
-1.2318353e-07
0.011191719
-9.5675429e-08
0.011191677
-7.3688786e-08
0.011191645
-5.6274986e-08
0.011191621
-4.2605512e-08
0.011191602
-3.1973874e-08
0.011191588
-2.377924e-08
0.011191577
-1.7528926e-08
0.01119157
-1.2806241e-08
0.011191564
-9.2853534e-09
0.01119156
-6.6821194e-09
0.011191557
-4.7857727e-09
0.011191554
-3.406693e-09
0.011191553
-2.4256375e-09
0.011191552
-1.737924e-09
0.011191551
-1.2782414e-09
0.011191551
-1.017035e-09
0.01119155
-9.4461892e-10
0.01119155
-1.0884604e-09
0.01119155
-1.3580173e-09
-1.8529634e-09
0.010339525
-0.00069380425
0.010570754
-0.0010218027
0.010606301
-0.00095449449
0.010547572
-0.00084294334
0.010422317
-0.0007173708
0.010244356
-0.00057972444
0.010039421
-0.00045169204
0.0098287427
-0.00034297801
0.009625135
-0.00025616318
0.0094353013
-0.00018991983
0.0092624277
-0.00014121897
0.0091075332
-0.00010650979
0.008970154
-8.2320216e-05
0.0088489024
-6.564624e-05
0.0087419716
-5.412725e-05
0.0086474927
-4.6040045e-05
0.008563694
-4.019429e-05
0.0084890108
-3.5792754e-05
0.0084221097
-3.2318755e-05
0.0083618776
-2.9449275e-05
0.0083073955
-2.6988568e-05
0.008257908
-2.4820292e-05
0.008212793
-2.2875473e-05
0.0081715355
-2.1112415e-05
0.0081337052
-1.9504659e-05
0.008098939
-1.8034029e-05
0.0080669276
-1.6686748e-05
0.008037404
-1.5451397e-05
0.0080101366
-1.4317908e-05
0.007984922
-1.3277133e-05
0.0079615806
-1.2320675e-05
0.0079399531
-1.1440832e-05
0.0079198968
-1.0630578e-05
0.007901284
-9.8835405e-06
0.0078839996
-9.1939648e-06
0.0078679395
-8.5566757e-06
0.0078530095
-7.9670216e-06
0.0078391239
-7.4208245e-06
0.0078262048
-6.9143187e-06
0.0078141814
-6.4441037e-06
0.0078029887
-6.0070879e-06
0.0077925677
-5.600456e-06
0.0077828645
-5.2216165e-06
0.0077738299
-4.868191e-06
0.0077654189
-4.5379644e-06
0.0077575907
-4.2289021e-06
0.007750308
-3.9390957e-06
0.0077435371
-3.6668084e-06
0.0077372471
-3.4104139e-06
0.0077314102
-3.1684704e-06
0.0077260009
-2.9396427e-06
0.007720996
-2.7227984e-06
0.0077163741
-2.5169126e-06
0.0077121157
-2.3211798e-06
0.0077082023
-2.1348948e-06
0.0077046167
-1.957571e-06
0.0077013423
-1.788802e-06
0.0076983632
-1.6283795e-06
0.0076956638
-1.4761407e-06
0.0076932287
-1.3320776e-06
0.0076910424
-1.196184e-06
0.0076890895
-1.0685513e-06
0.0076873547
-9.4923025e-07
0.0076858225
-8.3830719e-07
0.0076844773
-7.3579605e-07
0.0076833037
-6.416899e-07
0.0076822867
-5.5589747e-07
0.0076814113
-4.7826612e-07
0.0076806631
-4.085671e-07
0.0076800282
-3.4648587e-07
0.0076794934
-2.9166019e-07
0.0076790464
-2.4363869e-07
0.0076786757
-2.0196127e-07
0.0076783706
-1.660849e-07
0.0076781215
-1.3550467e-07
0.0076779198
-1.0964711e-07
0.0076777579
-8.80175e-08
0.0076776289
-7.0059437e-08
0.0076775269
-5.5325915e-08
0.0076774471
-4.3315617e-08
0.007677385
-3.3653053e-08
0.0076773373
-2.5909876e-08
0.0076773008
-1.979517e-08
0.0076772733
-1.4969526e-08
0.0076772526
-1.1235273e-08
0.0076772373
-8.3350504e-09
0.007677226
-6.1506123e-09
0.0076772177
-4.4858833e-09
0.0076772116
-3.2765331e-09
0.0076772073
-2.3626375e-09
0.0076772042
-1.7202421e-09
0.007677202
-1.223878e-09
0.0076772005
-8.9500037e-10
0.0076771994
-6.2950791e-10
0.0076771987
-4.8988493e-10
0.0076771981
-4.1040653e-10
0.0076771975
-4.5387025e-10
0.007677197
-5.8301481e-10
0.0076771966
-9.7519462e-10
-1.4562073e-09
0.0093061957
0.0082843931
0.0073298986
0.0064869553
0.0057695845
0.00518986
0.004738168
0.00439519
0.0041390268
0.003949107
0.003807888
0.0037013782
0.003619058
0.0035534117
0.0034992845
0.0034532445
0.0034130502
0.0033772574
0.0033449386
0.0033154894
0.0032885008
0.0032636805
0.003240805
0.0032196926
0.003200188
0.0031821539
0.0031654672
0.0031500158
0.0031356979
0.0031224207
0.0031101
0.0030986592
0.0030880286
0.0030781451
0.0030689511
0.0030603944
0.0030524274
0.0030450066
0.0030380922
0.0030316481
0.003025641
0.0030200405
0.0030148189
0.0030099507
0.0030054128
0.0030011839
0.0029972448
0.0029935781
0.0029901677
0.0029869994
0.0029840598
0.0029813371
0.0029788203
0.0029764992
0.0029743644
0.002972407
0.0029706183
0.0029689901
0.002967514
0.0029661821
0.002964986
0.0029639175
0.0029629684
0.0029621302
0.0029613944
0.0029607528
0.0029601969
0.0029597187
0.0029593101
0.0029589637
0.002958672
0.0029584284
0.0029582264
0.0029580604
0.0029579249
0.0029578153
0.0029577273
0.0029576572
0.0029576019
0.0029575586
0.002957525
0.0029574991
0.0029574793
0.0029574644
0.0029574532
0.0029574449
0.0029574388
0.0029574343
0.002957431
0.0029574286
0.0029574269
0.0029574256
0.0029574248
0.0029574242
0.0029574237
0.0029574232
0.0029574228
0.0029574222
0.0029574212
)
;

boundaryField
{
    top
    {
        type            calculated;
        value           uniform 0;
    }
    inlet
    {
        type            calculated;
        value           nonuniform List<scalar> 10(-0.01 -0.01 -0.01 -0.01 -0.01 -0.01 -0.01 -0.01 -0.01 -0.01);
    }
    outlet
    {
        type            calculated;
        value           nonuniform List<scalar> 10(0.0029574196 0.007677196 0.01119155 0.013511723 0.014662113 0.014662113 0.013511723 0.011191551 0.0076771963 0.0029574198);
    }
    bottom
    {
        type            calculated;
        value           uniform 0;
    }
    back
    {
        type            empty;
        value           nonuniform 0();
    }
    front
    {
        type            empty;
        value           nonuniform 0();
    }
}


// ************************************************************************* //
