/*--------------------------------*- C++ -*----------------------------------*\
| =========                 |                                                 |
| \\      /  F ield         | OpenFOAM: The Open Source CFD Toolbox           |
|  \\    /   O peration     | Version:  2112                                  |
|   \\  /    A nd           | Website:  www.openfoam.com                      |
|    \\/     M anipulation  |                                                 |
\*---------------------------------------------------------------------------*/
FoamFile
{
    version     2.0;
    format      ascii;
    arch        "LSB;label=32;scalar=64";
    class       volScalarField;
    location    "17";
    object      p;
}
// * * * * * * * * * * * * * * * * * * * * * * * * * * * * * * * * * * * * * //

dimensions      [0 2 -2 0 0 0 0];

internalField   nonuniform List<scalar> 
1000
(
1.526858
1.5103953
1.4942
1.4782048
1.4623463
1.4465812
1.430883
1.4152364
1.3996322
1.3840634
1.3685243
1.3530102
1.3375173
1.3220428
1.3065848
1.2911417
1.2757122
1.2602952
1.2448895
1.2294944
1.214109
1.1987326
1.1833646
1.1680044
1.1526514
1.1373053
1.1219654
1.1066315
1.091303
1.0759798
1.0606613
1.0453474
1.0300378
1.0147321
0.99943013
0.98413168
0.9688365
0.9535444
0.93825518
0.92296868
0.90768473
0.89240316
0.87712383
0.8618466
0.84657135
0.83129796
0.8160263
0.80075627
0.78548777
0.77022071
0.754955
0.73969055
0.72442728
0.70916513
0.69390401
0.67864387
0.66338464
0.64812627
0.63286871
0.61761189
0.60235577
0.58710031
0.57184547
0.55659121
0.54133748
0.52608425
0.51083149
0.49557918
0.48032727
0.46507574
0.44982457
0.43457374
0.41932322
0.40407298
0.38882302
0.3735733
0.35832382
0.34307456
0.3278255
0.31257663
0.29732794
0.28207941
0.26683102
0.25158278
0.23633467
0.22108668
0.20583881
0.19059103
0.17534335
0.16009576
0.14484826
0.12960082
0.11435346
0.099106164
0.083858926
0.068611743
0.05336461
0.038117522
0.022870481
0.0076234674
1.5266139
1.5101189
1.4940977
1.4782552
1.4624516
1.4466781
1.4309569
1.4152948
1.3996833
1.3841102
1.3685666
1.3530475
1.3375498
1.3220714
1.3066103
1.2911647
1.2757332
1.2603143
1.244907
1.2295105
1.2141238
1.1987463
1.1833773
1.1680162
1.1526625
1.1373155
1.121975
1.1066404
1.0913114
1.0759876
1.0606686
1.0453542
1.0300441
1.014738
0.9994357
0.98413688
0.96884137
0.95354895
0.93825945
0.92297267
0.90768846
0.89240665
0.8771271
0.86184966
0.84657421
0.83130063
0.8160288
0.80075861
0.78548996
0.77022275
0.7549569
0.73969233
0.72442894
0.70916668
0.69390546
0.67864522
0.6633859
0.64812745
0.6328698
0.61761291
0.60235672
0.5871012
0.57184629
0.55659197
0.54133819
0.52608491
0.51083211
0.49557975
0.4803278
0.46507623
0.44982503
0.43457416
0.41932361
0.40407334
0.38882335
0.37357361
0.35832411
0.34307482
0.32782575
0.31257686
0.29732814
0.2820796
0.2668312
0.25158294
0.23633482
0.22108682
0.20583893
0.19059114
0.17534346
0.16009586
0.14484834
0.1296009
0.11435353
0.09910623
0.083858986
0.068611796
0.053364659
0.038117564
0.022870519
0.0076234861
1.5261738
1.5095604
1.4937738
1.4781977
1.4625301
1.4467748
1.4310259
1.4153396
1.3997192
1.3841454
1.3686014
1.3530793
1.3375774
1.3220949
1.3066308
1.291183
1.2757497
1.2603293
1.2449207
1.2295229
1.2141352
1.1987568
1.1833869
1.1680251
1.1526707
1.1373231
1.121982
1.1066469
1.0913174
1.0759932
1.0606739
1.0453592
1.0300487
1.0147423
0.9994397
0.98414062
0.96884486
0.95355222
0.9382625
0.92297553
0.90769113
0.89240914
0.87712943
0.86185184
0.84657625
0.83130254
0.81603058
0.80076028
0.78549152
0.77022421
0.75495827
0.7396936
0.72443013
0.70916779
0.6939065
0.67864619
0.66338681
0.64812829
0.63287059
0.61761364
0.60235741
0.58710184
0.57184689
0.55659252
0.5413387
0.52608539
0.51083255
0.49558016
0.48032818
0.46507659
0.44982536
0.43457447
0.41932389
0.40407361
0.3888236
0.37357384
0.35832432
0.34307502
0.32782593
0.31257702
0.2973283
0.28207974
0.26683133
0.25158307
0.23633493
0.22108692
0.20583902
0.19059123
0.17534354
0.16009593
0.14484841
0.12960096
0.11435359
0.099106281
0.083859032
0.068611838
0.053364696
0.038117596
0.02287054
0.0076234993
1.5257359
1.5089592
1.4933701
1.4780732
1.4625766
1.4468638
1.4310942
1.4153826
1.3997526
1.3841798
1.3686376
1.3531141
1.3376082
1.3221214
1.3066537
1.2912033
1.275768
1.2603459
1.2449357
1.2295365
1.2141476
1.1987681
1.1833973
1.1680347
1.1526795
1.1373313
1.1219896
1.106654
1.091324
1.0759993
1.0606796
1.0453644
1.0300537
1.0147469
0.999444
0.98414464
0.96884862
0.95355574
0.9382658
0.92297861
0.90769402
0.89241185
0.87713197
0.86185422
0.84657848
0.83130462
0.81603254
0.80076211
0.78549323
0.77022582
0.75495977
0.73969501
0.72443145
0.70916902
0.69390765
0.67864727
0.66338782
0.64812924
0.63287147
0.61761447
0.60235818
0.58710256
0.57184756
0.55659315
0.54133929
0.52608594
0.51083307
0.49558064
0.48032863
0.46507701
0.44982575
0.43457483
0.41932423
0.40407392
0.38882389
0.37357411
0.35832457
0.34307525
0.32782614
0.31257722
0.29732848
0.28207991
0.26683149
0.25158321
0.23633507
0.22108705
0.20583914
0.19059134
0.17534364
0.16009602
0.14484849
0.12960104
0.11435366
0.099106348
0.083859092
0.068611895
0.053364744
0.038117642
0.022870571
0.0076235295
1.525472
1.5085834
1.4931016
1.4779769
1.4625961
1.446918
1.4311384
1.4154105
1.3997739
1.384202
1.3686618
1.3531381
1.3376299
1.3221403
1.3066703
1.2912182
1.2757815
1.2603582
1.2449469
1.2295468
1.214157
1.1987767
1.1834053
1.168042
1.1526863
1.1373376
1.1219954
1.1066594
1.091329
1.076004
1.060684
1.0453685
1.0300575
1.0147505
0.99944736
0.98414778
0.96885156
0.95355849
0.93826838
0.92298103
0.90769628
0.89241398
0.87713396
0.86185609
0.84658023
0.83130626
0.81603407
0.80076355
0.78549458
0.77022708
0.75496096
0.73969612
0.7244325
0.70917
0.69390857
0.67864813
0.66338862
0.64812999
0.63287218
0.61761513
0.6023588
0.58710314
0.5718481
0.55659366
0.54133976
0.52608638
0.51083348
0.49558102
0.48032899
0.46507734
0.44982606
0.43457512
0.4193245
0.40407417
0.38882412
0.37357433
0.35832477
0.34307544
0.32782632
0.31257739
0.29732864
0.28208005
0.26683162
0.25158334
0.23633518
0.22108715
0.20583924
0.19059143
0.17534372
0.1600961
0.14484856
0.12960111
0.11435372
0.099106404
0.083859143
0.068611943
0.053364785
0.038117682
0.0228706
0.0076235594
1.525472
1.5085834
1.4931016
1.4779769
1.4625961
1.446918
1.4311384
1.4154105
1.3997739
1.384202
1.3686618
1.3531381
1.3376299
1.3221403
1.3066703
1.2912182
1.2757815
1.2603582
1.2449469
1.2295468
1.214157
1.1987767
1.1834053
1.168042
1.1526863
1.1373376
1.1219954
1.1066594
1.091329
1.076004
1.060684
1.0453685
1.0300575
1.0147505
0.99944736
0.98414778
0.96885156
0.95355849
0.93826838
0.92298103
0.90769628
0.89241398
0.87713396
0.86185609
0.84658023
0.83130626
0.81603407
0.80076355
0.78549458
0.77022708
0.75496096
0.73969612
0.7244325
0.70917
0.69390857
0.67864813
0.66338862
0.64812999
0.63287218
0.61761513
0.6023588
0.58710314
0.5718481
0.55659366
0.54133976
0.52608638
0.51083348
0.49558102
0.48032899
0.46507734
0.44982606
0.43457512
0.4193245
0.40407417
0.38882412
0.37357433
0.35832477
0.34307544
0.32782632
0.31257739
0.29732864
0.28208005
0.26683162
0.25158334
0.23633518
0.22108715
0.20583924
0.19059143
0.17534372
0.1600961
0.14484857
0.12960111
0.11435372
0.099106404
0.083859143
0.068611943
0.053364785
0.038117682
0.022870601
0.0076235599
1.5257359
1.5089592
1.4933701
1.4780732
1.4625765
1.4468637
1.4310942
1.4153826
1.3997526
1.3841798
1.3686376
1.3531141
1.3376082
1.3221214
1.3066537
1.2912033
1.275768
1.2603459
1.2449357
1.2295366
1.2141476
1.1987681
1.1833974
1.1680347
1.1526795
1.1373313
1.1219896
1.106654
1.091324
1.0759993
1.0606796
1.0453644
1.0300537
1.0147469
0.999444
0.98414464
0.96884862
0.95355574
0.9382658
0.92297861
0.90769402
0.89241185
0.87713197
0.86185422
0.84657848
0.83130462
0.81603253
0.8007621
0.78549323
0.77022582
0.75495977
0.73969501
0.72443145
0.70916902
0.69390765
0.67864727
0.66338782
0.64812924
0.63287147
0.61761447
0.60235818
0.58710256
0.57184756
0.55659315
0.54133929
0.52608594
0.51083306
0.49558064
0.48032863
0.46507701
0.44982575
0.43457483
0.41932423
0.40407392
0.38882389
0.37357411
0.35832457
0.34307525
0.32782614
0.31257722
0.29732848
0.28207991
0.26683149
0.25158321
0.23633507
0.22108705
0.20583914
0.19059134
0.17534364
0.16009602
0.14484849
0.12960104
0.11435366
0.099106348
0.083859093
0.068611895
0.053364744
0.038117642
0.022870573
0.0076235308
1.5261738
1.5095604
1.4937738
1.4781977
1.4625301
1.4467748
1.4310259
1.4153396
1.3997192
1.3841454
1.3686014
1.3530793
1.3375774
1.3220949
1.3066308
1.291183
1.2757497
1.2603293
1.2449207
1.2295229
1.2141352
1.1987568
1.1833869
1.1680251
1.1526707
1.1373231
1.121982
1.1066469
1.0913175
1.0759932
1.0606739
1.0453592
1.0300487
1.0147423
0.9994397
0.98414062
0.96884486
0.95355222
0.9382625
0.92297553
0.90769113
0.89240914
0.87712943
0.86185184
0.84657625
0.83130254
0.81603058
0.80076028
0.78549152
0.77022421
0.75495827
0.7396936
0.72443013
0.70916779
0.6939065
0.67864619
0.66338681
0.64812829
0.63287059
0.61761364
0.60235741
0.58710184
0.57184689
0.55659252
0.5413387
0.52608539
0.51083255
0.49558016
0.48032818
0.46507659
0.44982536
0.43457447
0.41932389
0.40407361
0.3888236
0.37357384
0.35832432
0.34307502
0.32782593
0.31257702
0.2973283
0.28207974
0.26683133
0.25158307
0.23633493
0.22108692
0.20583902
0.19059123
0.17534354
0.16009593
0.14484841
0.12960096
0.11435359
0.099106282
0.083859033
0.068611839
0.053364696
0.038117597
0.022870542
0.0076235005
1.5266139
1.5101189
1.4940977
1.4782553
1.4624516
1.4466781
1.4309569
1.4152948
1.3996833
1.3841102
1.3685666
1.3530475
1.3375498
1.3220714
1.3066103
1.2911647
1.2757332
1.2603143
1.244907
1.2295105
1.2141238
1.1987463
1.1833773
1.1680162
1.1526625
1.1373155
1.121975
1.1066404
1.0913114
1.0759876
1.0606686
1.0453542
1.0300441
1.014738
0.9994357
0.98413688
0.96884137
0.95354895
0.93825945
0.92297267
0.90768846
0.89240665
0.8771271
0.86184966
0.84657421
0.83130063
0.8160288
0.8007586
0.78548996
0.77022275
0.7549569
0.73969233
0.72442894
0.70916668
0.69390546
0.67864522
0.6633859
0.64812745
0.6328698
0.61761291
0.60235672
0.5871012
0.57184629
0.55659197
0.54133819
0.52608491
0.51083211
0.49557974
0.4803278
0.46507623
0.44982503
0.43457416
0.4193236
0.40407334
0.38882335
0.37357361
0.35832411
0.34307482
0.32782575
0.31257686
0.29732814
0.2820796
0.2668312
0.25158294
0.23633482
0.22108682
0.20583893
0.19059115
0.17534346
0.16009586
0.14484834
0.1296009
0.11435353
0.099106231
0.083858987
0.068611797
0.053364659
0.038117564
0.02287052
0.0076234868
1.5268579
1.5103953
1.4942001
1.4782049
1.4623463
1.4465812
1.430883
1.4152364
1.3996321
1.3840634
1.3685243
1.3530102
1.3375173
1.3220428
1.3065848
1.2911418
1.2757123
1.2602952
1.2448895
1.2294944
1.214109
1.1987326
1.1833646
1.1680044
1.1526514
1.1373053
1.1219654
1.1066315
1.091303
1.0759798
1.0606613
1.0453474
1.0300378
1.0147321
0.99943014
0.98413168
0.9688365
0.9535444
0.93825518
0.92296868
0.90768473
0.89240316
0.87712383
0.8618466
0.84657135
0.83129795
0.8160263
0.80075627
0.78548777
0.77022071
0.754955
0.73969055
0.72442728
0.70916512
0.69390401
0.67864387
0.66338464
0.64812627
0.6328687
0.61761189
0.60235577
0.58710031
0.57184547
0.5565912
0.54133747
0.52608425
0.51083149
0.49557917
0.48032727
0.46507574
0.44982457
0.43457374
0.41932321
0.40407298
0.38882301
0.3735733
0.35832382
0.34307456
0.3278255
0.31257663
0.29732794
0.28207941
0.26683102
0.25158278
0.23633467
0.22108668
0.20583881
0.19059103
0.17534335
0.16009576
0.14484826
0.12960082
0.11435346
0.099106166
0.083858927
0.068611744
0.053364611
0.038117523
0.022870481
0.0076234679
)
;

boundaryField
{
    top
    {
        type            zeroGradient;
    }
    inlet
    {
        type            fixedValue;
        value           uniform 1.5352;
    }
    outlet
    {
        type            fixedValue;
        value           uniform 0;
    }
    bottom
    {
        type            zeroGradient;
    }
    back
    {
        type            empty;
    }
    front
    {
        type            empty;
    }
}


// ************************************************************************* //
