/*--------------------------------*- C++ -*----------------------------------*\
| =========                 |                                                 |
| \\      /  F ield         | OpenFOAM: The Open Source CFD Toolbox           |
|  \\    /   O peration     | Version:  2112                                  |
|   \\  /    A nd           | Website:  www.openfoam.com                      |
|    \\/     M anipulation  |                                                 |
\*---------------------------------------------------------------------------*/
FoamFile
{
    version     2.0;
    format      ascii;
    arch        "LSB;label=32;scalar=64";
    class       surfaceScalarField;
    location    "17";
    object      phi;
}
// * * * * * * * * * * * * * * * * * * * * * * * * * * * * * * * * * * * * * //

dimensions      [0 3 -1 0 0 0 0];

oriented        oriented;

internalField   nonuniform List<scalar> 
1890
(
0.0032867572
1.6657161e-06
0.0032810374
5.7208483e-06
0.0032738339
7.2038148e-06
0.0032671864
6.647227e-06
0.0032618154
5.3706034e-06
0.00325757
4.2450231e-06
0.0032540851
3.4845374e-06
0.0032510972
2.9875591e-06
0.0032484782
2.6187216e-06
0.0032461716
2.3063207e-06
0.0032441376
2.0337372e-06
0.0032423338
1.8035184e-06
0.0032407184
1.6152212e-06
0.0032392565
1.4616989e-06
0.0032379229
1.3335104e-06
0.0032366997
1.2230433e-06
0.0032355739
1.1256654e-06
0.0032345349
1.0388756e-06
0.0032335737
9.6112224e-07
0.0032326825
8.9113532e-07
0.0032318546
8.2776967e-07
0.0032310845
7.7005099e-07
0.0032303673
7.1721219e-07
0.0032296985
6.686623e-07
0.0032290746
6.2393318e-07
0.0032284919
5.8263096e-07
0.0032279474
5.4441576e-07
0.0032274384
5.0898855e-07
0.0032269623
4.7609056e-07
0.0032265168
4.4549429e-07
0.0032260997
4.1700259e-07
0.0032257093
3.9043898e-07
0.0032253436
3.6564882e-07
0.0032250011
3.4249141e-07
0.0032246802
3.2084303e-07
0.0032243796
3.0058968e-07
0.003224098
2.8163108e-07
0.0032238341
2.6387361e-07
0.0032235869
2.4723489e-07
0.0032233552
2.3163689e-07
0.0032231382
2.1701105e-07
0.0032229349
2.0329159e-07
0.0032227445
1.9042087e-07
0.0032225661
1.7834279e-07
0.0032223991
1.670084e-07
0.0032222427
1.5636942e-07
0.0032220964
1.4638401e-07
0.0032219593
1.3701023e-07
0.0032218311
1.28212e-07
0.0032217112
1.199527e-07
0.003221599
1.1220109e-07
0.0032214941
1.0492495e-07
0.003221396
9.8097097e-08
0.0032213043
9.1689097e-08
0.0032212186
8.5677266e-08
0.0032211386
8.0036366e-08
0.0032210638
7.4745691e-08
0.003220994
6.9782836e-08
0.0032209289
6.5129718e-08
0.0032208682
6.0766344e-08
0.0032208115
5.6676884e-08
0.0032207586
5.2843521e-08
0.0032207094
4.9252431e-08
0.0032206635
4.5887651e-08
0.0032206208
4.2737082e-08
0.003220581
3.9786448e-08
0.003220544
3.7025205e-08
0.0032205095
3.4440503e-08
0.0032204775
3.2023131e-08
0.0032204477
2.9761551e-08
0.0032204201
2.7647774e-08
0.0032203944
2.5671353e-08
0.0032203706
2.3825354e-08
0.0032203485
2.2100339e-08
0.003220328
2.0490371e-08
0.003220309
1.8986821e-08
0.0032202915
1.7584651e-08
0.0032202752
1.6275939e-08
0.0032202601
1.5056584e-08
0.0032202462
1.3919105e-08
0.0032202334
1.2860386e-08
0.0032202215
1.1873145e-08
0.0032202105
1.0955535e-08
0.0032202004
1.0099911e-08
0.0032201911
9.3061764e-09
0.0032201826
8.5655404e-09
0.0032201747
7.8806781e-09
0.0032201675
7.2401548e-09
0.0032201608
6.6511518e-09
0.0032201547
6.0972479e-09
0.0032201491
5.5931022e-09
0.003220144
5.1135341e-09
0.0032201393
4.6850217e-09
0.0032201351
4.2686205e-09
0.0032201311
3.9073504e-09
0.0032201276
3.5454759e-09
0.0032201244
3.2435033e-09
0.0032201214
2.9422258e-09
0.0032201187
2.7045655e-09
2.6275514e-09
0.0082754521
1.7840048e-06
0.008273295
7.8792493e-06
0.0082692374
1.1261908e-05
0.0082643794
1.1505153e-05
0.008259562
1.0187603e-05
0.0082550443
8.7623307e-06
0.0082508098
7.7187032e-06
0.0082468164
6.9807304e-06
0.0082430654
6.3694821e-06
0.0082395784
5.7930624e-06
0.0082363645
5.2474196e-06
0.0082334118
4.7560287e-06
0.0082306965
4.3303361e-06
0.0082281934
3.9646906e-06
0.0082258805
3.6462281e-06
0.0082237399
3.3635794e-06
0.0082217559
3.1096012e-06
0.0082199144
2.8802084e-06
0.0082182029
2.6725325e-06
0.00821661
2.4839654e-06
0.0082151257
2.3120357e-06
0.0082137411
2.1545792e-06
0.0082124485
2.0098252e-06
0.0082112407
1.8763565e-06
0.0082101116
1.7530059e-06
0.0082090554
1.6387798e-06
0.008208067
1.5328086e-06
0.0082071416
1.4343326e-06
0.008206275
1.3426842e-06
0.0082054632
1.2572806e-06
0.0082047026
1.1776056e-06
0.0082039898
1.1032031e-06
0.0082033218
1.0336628e-06
0.0082026956
9.6861874e-07
0.0082021087
9.0773833e-07
0.0082015586
8.5072341e-07
0.0082010429
7.9730033e-07
0.0082005595
7.4722285e-07
0.0082001065
7.0026284e-07
0.0081996819
6.5621416e-07
0.008199284
6.1488422e-07
0.0081989112
5.7609871e-07
0.0081985619
5.396935e-07
0.0081982347
5.055197e-07
0.0081979283
4.734361e-07
0.0081976414
4.4331469e-07
0.0081973727
4.1503315e-07
0.0081971212
3.8848055e-07
0.0081968859
3.6355019e-07
0.0081966657
3.4014556e-07
0.0081964597
3.1817321e-07
0.0081962671
2.9754866e-07
0.008196087
2.7818963e-07
0.0081959187
2.6002209e-07
0.0081957614
2.4297343e-07
0.0081956145
2.2697847e-07
0.0081954772
2.1197292e-07
0.0081953491
1.9789944e-07
0.0081952295
1.8470104e-07
0.008195118
1.723271e-07
0.0081950139
1.6072697e-07
0.0081949169
1.4985606e-07
0.0081948265
1.3966937e-07
0.0081947423
1.3012748e-07
0.0081946638
1.2119031e-07
0.0081945908
1.1282311e-07
0.0081945228
1.0499022e-07
0.0081944596
9.7660912e-08
0.0081944008
9.0803356e-08
0.0081943462
8.4390468e-08
0.0081942954
7.839393e-08
0.0081942483
7.2789743e-08
0.0081942046
6.7552636e-08
0.008194164
6.2661432e-08
0.0081941264
5.8093722e-08
0.0081940916
5.3830618e-08
0.0081940593
4.9852295e-08
0.0081940295
4.614185e-08
0.0081940019
4.2682115e-08
0.0081939763
3.9457457e-08
0.0081939527
3.6453489e-08
0.008193931
3.3655143e-08
0.0081939109
3.105159e-08
0.0081938923
2.8626762e-08
0.0081938753
2.6374822e-08
0.0081938596
2.4276292e-08
0.0081938451
2.2333527e-08
0.0081938318
2.0518842e-08
0.0081938196
1.8848749e-08
0.0081938085
1.7278828e-08
0.0081937982
1.5851398e-08
0.0081937888
1.4489045e-08
0.0081937802
1.3281713e-08
0.0081937724
1.2088384e-08
0.0081937652
1.1089528e-08
0.0081937587
1.0022384e-08
0.0081937527
9.2460587e-09
0.0081937474
8.2606083e-09
0.0081937423
7.7952307e-09
6.8061244e-09
0.011831464
1.2930037e-06
0.0118328
6.5438141e-06
0.011833997
1.0065488e-05
0.011834601
1.090102e-05
0.011834735
1.005279e-05
0.01183457
8.9271118e-06
0.011834171
8.1169819e-06
0.011833578
7.5740579e-06
0.011832834
7.1136056e-06
0.011831991
6.635842e-06
0.011831093
6.1453023e-06
0.011830169
5.6791737e-06
0.01182924
5.2598598e-06
0.011828316
4.8879084e-06
0.011827409
4.5535745e-06
0.011826525
4.2476985e-06
0.011825669
3.9652565e-06
0.011824845
3.7040579e-06
0.011824055
3.4626778e-06
0.011823299
3.2394883e-06
0.011822578
3.0326708e-06
0.011821892
2.8405164e-06
0.011821241
2.661597e-06
0.011820622
2.4947506e-06
0.011820036
2.3389976e-06
0.011819481
2.1934684e-06
0.011818957
2.0573757e-06
0.011818461
1.9300037e-06
0.011817993
1.810709e-06
0.011817551
1.6989102e-06
0.011817135
1.5940832e-06
0.011816742
1.495749e-06
0.011816373
1.4034712e-06
0.011816024
1.3168473e-06
0.011815697
1.2355087e-06
0.011815388
1.159114e-06
0.011815098
1.0873497e-06
0.011814825
1.0199235e-06
0.011814569
9.565665e-07
0.011814328
8.9702651e-07
0.011814102
8.4107114e-07
0.01181389
7.8848153e-07
0.01181369
7.3905566e-07
0.011813503
6.926025e-07
0.011813328
6.4894566e-07
0.011813163
6.0791768e-07
0.011813009
5.6936388e-07
0.011812864
5.3313686e-07
0.011812729
4.9910059e-07
0.011812602
4.6712499e-07
0.011812483
4.3709005e-07
0.011812371
4.0888064e-07
0.011812267
3.8239074e-07
0.01181217
3.5751831e-07
0.011812078
3.3416952e-07
0.011811993
3.1225373e-07
0.011811913
2.9168786e-07
0.011811839
2.723914e-07
0.011811769
2.5429069e-07
0.011811704
2.3731409e-07
0.011811644
2.2139635e-07
0.011811587
2.0647374e-07
0.011811534
1.9248838e-07
0.011811485
1.7938352e-07
0.011811439
1.6710789e-07
0.011811396
1.5561097e-07
0.011811356
1.448473e-07
0.011811319
1.3477184e-07
0.011811285
1.2534436e-07
0.011811253
1.1652473e-07
0.011811223
1.0827734e-07
0.011811195
1.0056632e-07
0.011811169
9.3360274e-08
0.011811145
8.6627134e-08
0.011811123
8.0339292e-08
0.011811102
7.4467856e-08
0.011811083
6.8988874e-08
0.011811065
6.3876028e-08
0.011811049
5.9108992e-08
0.011811034
5.4663098e-08
0.01181102
5.0522159e-08
0.011811007
4.6661822e-08
0.011810995
4.3071259e-08
0.011810984
3.9723914e-08
0.011810973
3.661724e-08
0.011810964
3.3717881e-08
0.011810955
3.103751e-08
0.011810947
2.8526922e-08
0.01181094
2.6224274e-08
0.011810933
2.4046883e-08
0.011810927
2.2083745e-08
0.011810921
2.0183974e-08
0.011810916
1.85354e-08
0.011810911
1.685161e-08
0.011810907
1.5514091e-08
0.011810903
1.3973159e-08
0.011810899
1.2981727e-08
0.011810896
1.1493421e-08
0.011810893
1.0941131e-08
9.4513361e-09
0.01410654
6.5893553e-07
0.014109511
3.5742438e-06
0.014113864
5.7128024e-06
0.014118381
6.3834589e-06
0.014122429
6.0037078e-06
0.014125965
5.3909629e-06
0.01412912
4.9621295e-06
0.014131996
4.6979105e-06
0.014134629
4.4800618e-06
0.014137027
4.2380809e-06
0.014139198
3.9739592e-06
0.014141163
3.7142878e-06
0.014142946
3.4763303e-06
0.014144571
3.2622693e-06
0.014146058
3.0667889e-06
0.014147421
2.8846679e-06
0.014148673
2.7134031e-06
0.014149825
2.5523353e-06
0.014150886
2.4012086e-06
0.014151866
2.259504e-06
0.014152772
2.12647e-06
0.014153611
2.0013543e-06
0.014154389
1.8835327e-06
0.014155111
1.7725142e-06
0.014155782
1.6678833e-06
0.014156407
1.5692646e-06
0.014156988
1.4763002e-06
0.014157529
1.3886581e-06
0.014158034
1.3060257e-06
0.014158504
1.2281185e-06
0.014158944
1.1546663e-06
0.014159354
1.085422e-06
0.014159737
1.0201472e-06
0.014160096
9.5862323e-07
0.01416043
9.0063772e-07
0.014160744
8.4599681e-07
0.014161036
7.9451088e-07
0.01416131
7.4600766e-07
0.014161567
7.0031741e-07
0.014161806
6.5728686e-07
0.014162031
6.1676388e-07
0.01416224
5.7861189e-07
0.014162437
5.4269445e-07
0.01416262
5.0888993e-07
0.014162792
4.7707592e-07
0.014162953
4.4714406e-07
0.014163103
4.1898442e-07
0.014163244
3.925006e-07
0.014163376
3.6759391e-07
0.014163499
3.4417851e-07
0.014163613
3.2216576e-07
0.014163721
3.0147941e-07
0.014163821
2.8203985e-07
0.014163915
2.6377931e-07
0.014164003
2.4662624e-07
0.014164084
2.3052061e-07
0.014164161
2.1539816e-07
0.014164232
2.0120563e-07
0.014164298
1.878853e-07
0.01416436
1.7539009e-07
0.014164418
1.6366816e-07
0.014164472
1.5267789e-07
0.014164522
1.4237265e-07
0.014164568
1.3271578e-07
0.014164612
1.236654e-07
0.014164652
1.1518918e-07
0.01416469
1.0724943e-07
0.014164725
9.9817761e-08
0.014164757
9.2860305e-08
0.014164787
8.6352093e-08
0.014164815
8.0262626e-08
0.014164841
7.4570058e-08
0.014164866
6.9247e-08
0.014164888
6.4274228e-08
0.014164909
5.9627172e-08
0.014164928
5.5288924e-08
0.014164946
5.1237661e-08
0.014164962
4.7458222e-08
0.014164977
4.3931556e-08
0.014164991
4.064353e-08
0.014165004
3.7578459e-08
0.014165016
3.472195e-08
0.014165027
3.2062855e-08
0.014165037
2.9584359e-08
0.014165047
2.7282646e-08
0.014165055
2.5134036e-08
0.014165063
2.3147745e-08
0.01416507
2.1284808e-08
0.014165077
1.9579166e-08
0.014165083
1.7959759e-08
0.014165089
1.6508217e-08
0.014165094
1.5089069e-08
0.014165098
1.3875815e-08
0.014165103
1.2608583e-08
0.014165107
1.1634912e-08
0.01416511
1.0462466e-08
0.014165113
9.7554289e-09
0.014165116
8.6039439e-09
0.014165119
8.2215266e-09
7.1070115e-09
0.015214039
3.4726345e-11
0.015217614
1.0719111e-10
0.015223327
4.794998e-11
0.01522971
-4.3102534e-12
0.015235713
2.8487705e-12
0.015241103
6.8140388e-11
0.015246065
1.4171674e-10
0.015250762
1.8543845e-10
0.015255242
1.9695512e-10
0.01525948
1.988029e-10
0.015263453
2.0118621e-10
0.015267167
2.0530247e-10
0.015270643
2.0494658e-10
0.015273905
1.9962282e-10
0.015276972
1.8901662e-10
0.015279856
1.756155e-10
0.015282569
1.6025066e-10
0.015285121
1.4368872e-10
0.015287522
1.2649063e-10
0.015289782
1.0864725e-10
0.015291908
9.1198601e-11
0.015293909
7.3726958e-11
0.015295792
5.755885e-11
0.015297565
4.1809547e-11
0.015299233
2.785427e-11
0.015300802
1.4500044e-11
0.015302278
3.5272547e-12
0.015303667
-7.8243276e-12
0.015304973
-1.6637887e-11
0.015306201
-2.5048952e-11
0.015307356
-3.1361349e-11
0.015308441
-3.7631396e-11
0.015309461
-4.1847914e-11
0.01531042
-4.6418968e-11
0.015311321
-4.9135445e-11
0.015312167
-5.2410827e-11
0.015312961
-5.3937457e-11
0.015313707
-5.6338258e-11
0.015314408
-5.7121265e-11
0.015315065
-5.8821384e-11
0.015315682
-5.8902994e-11
0.01531626
-6.0080056e-11
0.015316803
-5.968869e-11
0.015317312
-6.0333601e-11
0.015317789
-5.936556e-11
0.015318236
-5.9566063e-11
0.015318656
-5.8211798e-11
0.015319048
-5.7958293e-11
0.015319416
-5.6143527e-11
0.01531976
-5.5573037e-11
0.015320082
-5.3542682e-11
0.015320384
-5.2702469e-11
0.015320666
-5.0416667e-11
0.01532093
-4.9462341e-11
0.015321176
-4.7159683e-11
0.015321407
-4.6112866e-11
0.015321622
-4.3704203e-11
0.015321824
-4.265224e-11
0.015322011
-4.0297843e-11
0.015322187
-3.9183928e-11
0.015322351
-3.6719215e-11
0.015322503
-3.5559681e-11
0.015322646
-3.3087497e-11
0.015322778
-3.1790795e-11
0.015322902
-2.9134784e-11
0.015323017
-2.7720014e-11
0.015323125
-2.5002878e-11
0.015323225
-2.3421131e-11
0.015323317
-2.0527785e-11
0.015323404
-1.8861036e-11
0.015323484
-1.5979032e-11
0.015323559
-1.4248387e-11
0.015323628
-1.133742e-11
0.015323692
-9.6765776e-12
0.015323752
-6.9651445e-12
0.015323807
-5.4227777e-12
0.015323858
-2.9305769e-12
0.015323906
-1.6445298e-12
0.01532395
5.4969935e-13
0.01532399
1.4984713e-12
0.015324028
3.4059036e-12
0.015324063
3.9120825e-12
0.015324095
5.3791958e-12
0.015324124
5.4843066e-12
0.015324152
6.631001e-12
0.015324177
6.3075548e-12
0.0153242
7.0214446e-12
0.015324221
6.3341485e-12
0.015324241
6.7691566e-12
0.015324259
5.6863299e-12
0.015324275
5.6271454e-12
0.01532429
3.9387281e-12
0.015324304
3.2868744e-12
0.015324317
1.2549321e-12
0.015324328
4.3201956e-13
0.015324339
-5.5618874e-13
0.015324349
-1.6142439e-12
0.015324357
-1.9081258e-12
0.015324365
-6.1392019e-12
-9.1836675e-12
0.015214037
-6.5899851e-07
0.015217613
-3.5745963e-06
0.015223326
-5.713155e-06
0.015229709
-6.3836384e-06
0.015235712
-6.0037025e-06
0.015241102
-5.390856e-06
0.015246064
-4.9619502e-06
0.015250762
-4.6976731e-06
0.015255242
-4.4797827e-06
0.015259479
-4.2377683e-06
0.015263453
-3.9736233e-06
0.015267167
-3.7139372e-06
0.015270643
-3.4759767e-06
0.015273905
-3.2619218e-06
0.015276972
-3.0664563e-06
0.015279856
-2.8843558e-06
0.015282569
-2.7131163e-06
0.015285121
-2.5520772e-06
0.015287522
-2.4009811e-06
0.015289782
-2.2593084e-06
0.015291908
-2.1263061e-06
0.015293909
-2.0012218e-06
0.015295793
-1.8834299e-06
0.015297565
-1.7724398e-06
0.015299233
-1.6678347e-06
0.015300802
-1.5692401e-06
0.015302278
-1.4762967e-06
0.015303667
-1.3886744e-06
0.015304973
-1.3060585e-06
0.015306201
-1.2281662e-06
0.015307356
-1.1547259e-06
0.015308441
-1.0854924e-06
0.015309461
-1.0202258e-06
0.01531042
-9.5870951e-07
0.015311321
-9.0072931e-07
0.015312167
-8.4609363e-07
0.015312961
-7.9461095e-07
0.015313707
-7.4611134e-07
0.015314408
-7.004229e-07
0.015315065
-6.5739464e-07
0.015315682
-6.1687232e-07
0.01531626
-5.787217e-07
0.015316803
-5.4280396e-07
0.015317312
-5.0899982e-07
0.015317789
-4.771846e-07
0.015318236
-4.4725234e-07
0.015318656
-4.1909069e-07
0.015319048
-3.9260563e-07
0.015319416
-3.676962e-07
0.01531976
-3.4427904e-07
0.015320082
-3.2226305e-07
0.015320384
-3.0157444e-07
0.015320666
-2.8213129e-07
0.01532093
-2.6386832e-07
0.015321176
-2.4671155e-07
0.015321407
-2.3060331e-07
0.015321622
-2.1547708e-07
0.015321823
-2.0128199e-07
0.015322011
-1.8795787e-07
0.015322187
-1.7545997e-07
0.01532235
-1.6373418e-07
0.015322503
-1.5274118e-07
0.015322646
-1.4243195e-07
0.015322778
-1.327721e-07
0.015322902
-1.2371751e-07
0.015323017
-1.1523812e-07
0.015323124
-1.0729393e-07
0.015323224
-9.9858796e-08
0.015323317
-9.2896679e-08
0.015323404
-8.6384886e-08
0.015323484
-8.029067e-08
0.015323558
-7.459441e-08
0.015323628
-6.9266636e-08
0.015323692
-6.4290362e-08
0.015323752
-5.9638846e-08
0.015323807
-5.5297354e-08
0.015323858
-5.1242057e-08
0.015323906
-4.7459884e-08
0.01532395
-4.3929711e-08
0.01532399
-4.0639529e-08
0.015324028
-3.757163e-08
0.015324062
-3.4713763e-08
0.015324095
-3.2052587e-08
0.015324124
-2.9573419e-08
0.015324151
-2.7270339e-08
0.015324177
-2.5121848e-08
0.0153242
-2.3134904e-08
0.015324221
-2.1272712e-08
0.015324241
-1.9567047e-08
0.015324258
-1.7949119e-08
0.015324275
-1.6498344e-08
0.01532429
-1.508159e-08
0.015324304
-1.387015e-08
0.015324317
-1.2606129e-08
0.015324328
-1.1634019e-08
0.015324339
-1.046362e-08
0.015324348
-9.757736e-09
0.015324357
-8.6064345e-09
0.015324365
-8.2302089e-09
-7.1196626e-09
0.014106541
-1.2929922e-06
0.014109511
-6.5437264e-06
0.014113863
-1.0065436e-05
0.01411838
-1.090105e-05
0.014122429
-1.005283e-05
0.014125965
-8.9271252e-06
0.01412912
-8.1169358e-06
0.014131996
-7.5739592e-06
0.014134629
-7.1134561e-06
0.014137027
-6.6356568e-06
0.014139198
-6.1450855e-06
0.014141163
-5.6789382e-06
0.014142946
-5.2596113e-06
0.014144572
-4.887658e-06
0.014146058
-4.5533284e-06
0.014147421
-4.2474646e-06
0.014148673
-3.9650392e-06
0.014149825
-3.703861e-06
0.014150886
-3.462504e-06
0.014151866
-3.2393382e-06
0.014152772
-3.0325458e-06
0.014153612
-2.8404148e-06
0.01415439
-2.6615196e-06
0.014155112
-2.4946942e-06
0.014155783
-2.3389628e-06
0.014156407
-2.1934509e-06
0.014156988
-2.0573762e-06
0.014157529
-1.9300176e-06
0.014158034
-1.8107373e-06
0.014158505
-1.698948e-06
0.014158944
-1.5941319e-06
0.014159354
-1.4958037e-06
0.014159738
-1.403534e-06
0.014160096
-1.3169134e-06
0.014160431
-1.2355807e-06
0.014160744
-1.1591873e-06
0.014161037
-1.0874274e-06
0.014161311
-1.0200013e-06
0.014161567
-9.5664752e-07
0.014161806
-8.9710651e-07
0.014162031
-8.4115373e-07
0.014162241
-7.8856236e-07
0.014162437
-7.3913834e-07
0.014162621
-6.9268272e-07
0.014162792
-6.4902722e-07
0.014162953
-6.079962e-07
0.014163103
-5.6944308e-07
0.014163244
-5.3321244e-07
0.014163376
-4.9917647e-07
0.014163498
-4.6719684e-07
0.014163613
-4.3716174e-07
0.014163721
-4.0894799e-07
0.014163821
-3.824578e-07
0.014163915
-3.5758094e-07
0.014164002
-3.3423166e-07
0.014164084
-3.1231137e-07
0.01416416
-2.917451e-07
0.014164231
-2.7244419e-07
0.014164298
-2.5434298e-07
0.01416436
-2.3736192e-07
0.014164417
-2.2144374e-07
0.014164471
-2.0651666e-07
0.014164521
-1.9253066e-07
0.014164568
-1.7942121e-07
0.014164611
-1.6714487e-07
0.014164652
-1.5564324e-07
0.014164689
-1.4487859e-07
0.014164724
-1.3479824e-07
0.014164757
-1.2536971e-07
0.014164787
-1.1654513e-07
0.014164815
-1.082965e-07
0.014164841
-1.005805e-07
0.014164865
-9.3373345e-08
0.014164887
-8.6635393e-08
0.014164908
-8.0346536e-08
0.014164927
-7.4470539e-08
0.014164945
-6.899094e-08
0.014164961
-6.3873969e-08
0.014164977
-5.9106655e-08
0.014164991
-5.4657114e-08
0.014165004
-5.0516511e-08
0.014165016
-4.6653135e-08
0.014165027
-4.3063387e-08
0.014165037
-3.9713554e-08
0.014165046
-3.6608341e-08
0.014165055
-3.370707e-08
0.014165063
-3.1028621e-08
0.01416507
-2.8516578e-08
0.014165076
-2.6216449e-08
0.014165083
-2.4038115e-08
0.014165088
-2.2077975e-08
0.014165093
-2.0177534e-08
0.014165098
-1.853264e-08
0.014165102
-1.6848453e-08
0.014165106
-1.5514636e-08
0.01416511
-1.3973337e-08
0.014165113
-1.2983041e-08
0.014165116
-1.1493331e-08
0.014165118
-1.094027e-08
-9.4514144e-09
0.011831463
-1.7839755e-06
0.0118328
-7.8790707e-06
0.011833997
-1.1261683e-05
0.011834601
-1.1505048e-05
0.011834735
-1.0187679e-05
0.01183457
-8.7625173e-06
0.011834171
-7.7188971e-06
0.011833578
-6.9808653e-06
0.011832834
-6.3695402e-06
0.011831991
-5.7930569e-06
0.011831093
-5.2473681e-06
0.01183017
-4.7559453e-06
0.01182924
-4.3302289e-06
0.011828317
-3.9645675e-06
0.011827409
-3.646097e-06
0.011826525
-3.3634481e-06
0.011825669
-3.1094758e-06
0.011824846
-2.8800929e-06
0.011824055
-2.6724299e-06
0.0118233
-2.4838766e-06
0.011822579
-2.3119621e-06
0.011821893
-2.1545199e-06
0.011821241
-2.0097806e-06
0.011820623
-1.8763251e-06
0.011820037
-1.7529875e-06
0.011819482
-1.638772e-06
0.011818958
-1.5328113e-06
0.011818462
-1.4343435e-06
0.011817994
-1.3427032e-06
0.011817552
-1.2573054e-06
0.011817136
-1.177636e-06
0.011816743
-1.1032371e-06
0.011816373
-1.0337006e-06
0.011816025
-9.6865846e-07
0.011815697
-9.0778046e-07
0.011815389
-8.5076632e-07
0.011815098
-7.9734484e-07
0.011814826
-7.4726728e-07
0.011814569
-7.0030818e-07
0.011814328
-6.5625902e-07
0.011814102
-6.1492972e-07
0.01181389
-5.7614329e-07
0.01181369
-5.397383e-07
0.011813503
-5.0556338e-07
0.011813328
-4.7347984e-07
0.011813163
-4.4335694e-07
0.011813009
-4.1507506e-07
0.011812864
-3.8852079e-07
0.011812728
-3.6358998e-07
0.011812601
-3.4018338e-07
0.011812482
-3.1821027e-07
0.011812371
-2.9758371e-07
0.011812267
-2.7822395e-07
0.011812169
-2.6005426e-07
0.011812078
-2.4300472e-07
0.011811993
-2.2700774e-07
0.011811913
-2.1200146e-07
0.011811839
-1.979259e-07
0.011811769
-1.8472671e-07
0.011811704
-1.7235083e-07
0.011811643
-1.6075004e-07
0.011811587
-1.498771e-07
0.011811534
-1.3968961e-07
0.011811484
-1.3014575e-07
0.011811439
-1.2120781e-07
0.011811396
-1.1283847e-07
0.011811356
-1.0500461e-07
0.011811319
-9.7673168e-08
0.011811284
-9.0814658e-08
0.011811252
-8.4399489e-08
0.011811222
-7.8401845e-08
0.011811194
-7.2795465e-08
0.011811169
-6.7557387e-08
0.011811145
-6.2663985e-08
0.011811122
-5.8095315e-08
0.011811102
-5.3830268e-08
0.011811083
-4.9851296e-08
0.011811065
-4.6139076e-08
0.011811048
-4.2678851e-08
0.011811033
-3.9452807e-08
0.011811019
-3.6448784e-08
0.011811006
-3.3649314e-08
0.011810994
-3.1045945e-08
0.011810983
-2.8620418e-08
0.011810973
-2.6369098e-08
0.011810963
-2.4270101e-08
0.011810955
-2.2328171e-08
0.011810947
-2.0513379e-08
0.011810939
-1.8844516e-08
0.011810933
-1.7274634e-08
0.011810926
-1.5848535e-08
0.011810921
-1.4486193e-08
0.011810915
-1.3280126e-08
0.011810911
-1.208644e-08
0.011810906
-1.1089278e-08
0.011810902
-1.0022882e-08
0.011810899
-9.2458425e-09
0.011810895
-8.2589957e-09
0.011810892
-7.786763e-09
-6.7956072e-09
0.0082754525
-1.6656266e-06
0.0082732954
-5.7207055e-06
0.0082692379
-7.2037055e-06
0.00826438
-6.6472194e-06
0.0082595626
-5.370761e-06
0.0082550448
-4.2453032e-06
0.0082508103
-3.4848517e-06
0.0082468168
-2.9878215e-06
0.0082430658
-2.6189078e-06
0.0082395788
-2.3064381e-06
0.0082363648
-2.0338105e-06
0.0082334121
-1.8035614e-06
0.0082306969
-1.6152436e-06
0.0082281938
-1.4617043e-06
0.0082258809
-1.3335044e-06
0.0082237403
-1.2230307e-06
0.0082217563
-1.1256505e-06
0.0082199149
-1.0388616e-06
0.0082182035
-9.611102e-07
0.0082166106
-8.9112696e-07
0.0082151263
-8.2776419e-07
0.0082137417
-7.7004991e-07
0.0082124491
-7.1721387e-07
0.0082112413
-6.6866824e-07
0.0082101122
-6.2394106e-07
0.008209056
-5.8264246e-07
0.0082080676
-5.4442829e-07
0.0082071422
-5.09004e-07
0.0082062756
-4.7610608e-07
0.0082054637
-4.4551206e-07
0.0082047031
-4.1701965e-07
0.0082039903
-3.9045773e-07
0.0082033222
-3.6566618e-07
0.008202696
-3.4251005e-07
0.0082021091
-3.2085993e-07
0.0082015589
-3.0060769e-07
0.0082010432
-2.8164708e-07
0.0082005598
-2.6389062e-07
0.0082001067
-2.4724987e-07
0.0081996821
-2.3165294e-07
0.0081992842
-2.1702501e-07
0.0081989113
-2.0330662e-07
0.008198562
-1.9043387e-07
0.0081982348
-1.783569e-07
0.0081979283
-1.6702038e-07
0.0081976414
-1.5638248e-07
0.0081973727
-1.4639495e-07
0.0081971212
-1.3702222e-07
0.0081968858
-1.2822178e-07
0.0081966656
-1.1996346e-07
0.0081964596
-1.1220968e-07
0.0081962669
-1.0493455e-07
0.0081960868
-9.8104489e-08
0.0081959185
-9.1697505e-08
0.0081957611
-8.5683577e-08
0.0081956142
-8.0043781e-08
0.0081954769
-7.4751039e-08
0.0081953488
-6.9789324e-08
0.0081952292
-6.5134268e-08
0.0081951176
-6.0772112e-08
0.0081950136
-5.6680719e-08
0.0081949165
-5.2848561e-08
0.0081948261
-4.9255609e-08
0.0081947419
-4.5892039e-08
0.0081946634
-4.2739543e-08
0.0081945904
-3.9790041e-08
0.0081945224
-3.7026884e-08
0.0081944592
-3.4443277e-08
0.0081944004
-3.2023904e-08
0.0081943457
-2.976334e-08
0.008194295
-2.7647589e-08
0.0081942479
-2.5672185e-08
0.0081942041
-2.3824177e-08
0.0081941636
-2.2100168e-08
0.008194126
-2.0488297e-08
0.0081940911
-1.8985836e-08
0.0081940589
-1.758181e-08
0.008194029
-1.6274257e-08
0.0081940014
-1.5053218e-08
0.0081939759
-1.3917044e-08
0.0081939523
-1.2856741e-08
0.0081939305
-1.1870912e-08
0.0081939104
-1.095191e-08
0.0081938919
-1.0097845e-08
0.0081938748
-9.3028004e-09
0.0081938591
-8.5638047e-09
0.0081938447
-7.8777911e-09
0.0081938314
-7.239016e-09
0.0081938192
-6.6489234e-09
0.008193808
-6.0967771e-09
0.0081937978
-5.5914789e-09
0.0081937884
-5.1133645e-09
0.0081937798
-4.6830446e-09
0.008193772
-4.2679272e-09
0.0081937648
-3.905682e-09
0.0081937584
-3.5445225e-09
0.0081937524
-3.2421083e-09
0.008193747
-2.9412011e-09
0.008193742
-2.6981301e-09
-2.6178899e-09
0.0032867582
0.0032810379
0.0032738343
0.0032671869
0.0032618158
0.0032575703
0.0032540852
0.0032510971
0.003248478
0.0032461713
0.0032441374
0.0032423336
0.0032407183
0.0032392564
0.0032379228
0.0032366997
0.0032355739
0.003234535
0.0032335738
0.0032326826
0.0032318548
0.0032310847
0.0032303675
0.0032296988
0.0032290748
0.0032284921
0.0032279476
0.0032274386
0.0032269625
0.003226517
0.0032260999
0.0032257094
0.0032253438
0.0032250012
0.0032246804
0.0032243797
0.0032240981
0.0032238342
0.0032235869
0.0032233553
0.0032231382
0.0032229349
0.0032227445
0.0032225661
0.0032223991
0.0032222427
0.0032220963
0.0032219593
0.0032218311
0.0032217111
0.0032215989
0.003221494
0.0032213959
0.0032213042
0.0032212185
0.0032211385
0.0032210637
0.0032209939
0.0032209288
0.003220868
0.0032208113
0.0032207585
0.0032207092
0.0032206634
0.0032206206
0.0032205808
0.0032205438
0.0032205094
0.0032204773
0.0032204476
0.0032204199
0.0032203943
0.0032203704
0.0032203483
0.0032203279
0.0032203089
0.0032202913
0.003220275
0.00322026
0.0032202461
0.0032202332
0.0032202213
0.0032202104
0.0032202003
0.003220191
0.0032201824
0.0032201746
0.0032201673
0.0032201607
0.0032201546
0.003220149
0.0032201439
0.0032201392
0.0032201349
0.003220131
0.0032201275
0.0032201242
0.0032201213
0.0032201186
)
;

boundaryField
{
    top
    {
        type            calculated;
        value           uniform 0;
    }
    inlet
    {
        type            calculated;
        value           nonuniform List<scalar> 10(-0.0032884218 -0.0082755694 -0.011830971 -0.014105905 -0.015213379 -0.015213377 -0.014105906 -0.011830971 -0.0082755699 -0.0032884232);
    }
    outlet
    {
        type            calculated;
        value           nonuniform List<scalar> 10(0.0032201161 0.0081937382 0.01181089 0.014165121 0.015324373 0.015324372 0.014165121 0.01181089 0.0081937378 0.003220116);
    }
    bottom
    {
        type            calculated;
        value           uniform 0;
    }
    back
    {
        type            empty;
        value           nonuniform List<scalar> 0();
    }
    front
    {
        type            empty;
        value           nonuniform List<scalar> 0();
    }
}


// ************************************************************************* //
