/*--------------------------------*- C++ -*----------------------------------*\
| =========                 |                                                 |
| \\      /  F ield         | OpenFOAM: The Open Source CFD Toolbox           |
|  \\    /   O peration     | Version:  2112                                  |
|   \\  /    A nd           | Website:  www.openfoam.com                      |
|    \\/     M anipulation  |                                                 |
\*---------------------------------------------------------------------------*/
FoamFile
{
    version     2.0;
    format      ascii;
    arch        "LSB;label=32;scalar=64";
    class       volVectorField;
    location    "17";
    object      U;
}
// * * * * * * * * * * * * * * * * * * * * * * * * * * * * * * * * * * * * * //

dimensions      [0 1 -1 0 0 0 0];

internalField   nonuniform List<vector> 
1000
(
(0.32880214 0.00014518336 0)
(0.32849211 0.00044076588 0)
(0.32778441 0.00050136184 0)
(0.32704704 0.00039726846 0)
(0.32643424 0.00026679901 0)
(0.3259558 0.00017836621 0)
(0.32557369 0.00013303704 0)
(0.32525278 0.00010993906 0)
(0.32497361 9.3972494e-05 0)
(0.32472787 8.0151402e-05 0)
(0.32451131 6.8508229e-05 0)
(0.32431997 5.9626625e-05 0)
(0.32414956 5.3213436e-05 0)
(0.32399616 4.8445008e-05 0)
(0.32385674 4.4575388e-05 0)
(0.32372917 4.1186183e-05 0)
(0.32361193 3.8123431e-05 0)
(0.32350387 3.5347916e-05 0)
(0.32340402 3.2837049e-05 0)
(0.32331153 3.0557298e-05 0)
(0.32322569 2.847191e-05 0)
(0.32314589 2.6551475e-05 0)
(0.32307161 2.477635e-05 0)
(0.32300239 2.3133169e-05 0)
(0.32293782 2.1611169e-05 0)
(0.32287755 2.0200149e-05 0)
(0.32282125 1.8890447e-05 0)
(0.32276863 1.7673075e-05 0)
(0.32271942 1.6540147e-05 0)
(0.32267338 1.5484589e-05 0)
(0.32263029 1.4500224e-05 0)
(0.32258995 1.3581361e-05 0)
(0.32255218 1.2722985e-05 0)
(0.3225168 1.1920424e-05 0)
(0.32248366 1.1169597e-05 0)
(0.32245261 1.0466661e-05 0)
(0.32242352 9.8082804e-06 0)
(0.32239627 9.1912679e-06 0)
(0.32237073 8.6128686e-06 0)
(0.32234681 8.070401e-06 0)
(0.32232439 7.5615646e-06 0)
(0.32230339 7.0840849e-06 0)
(0.32228372 6.6360257e-06 0)
(0.3222653 6.2154327e-06 0)
(0.32224805 5.8206604e-06 0)
(0.32223189 5.4500193e-06 0)
(0.32221677 5.1021023e-06 0)
(0.32220261 4.7754311e-06 0)
(0.32218936 4.4687932e-06 0)
(0.32217696 4.1808914e-06 0)
(0.32216536 3.9106778e-06 0)
(0.32215451 3.6570023e-06 0)
(0.32214437 3.4189545e-06 0)
(0.32213489 3.1955159e-06 0)
(0.32212603 2.985896e-06 0)
(0.32211775 2.7891845e-06 0)
(0.32211002 2.604693e-06 0)
(0.3221028 2.4316115e-06 0)
(0.32209606 2.2693423e-06 0)
(0.32208977 2.1171577e-06 0)
(0.3220839 1.9745379e-06 0)
(0.32207843 1.8408329e-06 0)
(0.32207333 1.7155929e-06 0)
(0.32206858 1.5982309e-06 0)
(0.32206415 1.4883564e-06 0)
(0.32206003 1.3854432e-06 0)
(0.32205619 1.2891545e-06 0)
(0.32205263 1.1990123e-06 0)
(0.32204931 1.1147251e-06 0)
(0.32204622 1.0358622e-06 0)
(0.32204335 9.6217446e-07 0)
(0.32204069 8.9326732e-07 0)
(0.32203822 8.2892744e-07 0)
(0.32203592 7.6879709e-07 0)
(0.3220338 7.126976e-07 0)
(0.32203182 6.6029747e-07 0)
(0.32203 6.1144898e-07 0)
(0.32202831 5.6584692e-07 0)
(0.32202674 5.2337695e-07 0)
(0.3220253 4.8374705e-07 0)
(0.32202396 4.4687783e-07 0)
(0.32202272 4.1248495e-07 0)
(0.32202158 3.8053524e-07 0)
(0.32202053 3.507283e-07 0)
(0.32201956 3.2309428e-07 0)
(0.32201867 2.9729195e-07 0)
(0.32201785 2.7345134e-07 0)
(0.3220171 2.5113569e-07 0)
(0.3220164 2.3063119e-07 0)
(0.32201577 2.1133604e-07 0)
(0.32201518 1.9377844e-07 0)
(0.32201465 1.7709328e-07 0)
(0.32201416 1.6213339e-07 0)
(0.32201371 1.477257e-07 0)
(0.3220133 1.3498401e-07 0)
(0.32201293 1.2274922e-07 0)
(0.3220126 1.1178062e-07 0)
(0.32201227 1.0275324e-07 0)
(0.32201203 9.3912869e-08 0)
(0.32201167 9.8294124e-08 0)
(0.8274407 0.00015829205 0)
(0.82772412 0.00072144265 0)
(0.82731187 0.0010460996 0)
(0.82671395 0.0010583672 0)
(0.82617289 0.00091036103 0)
(0.8257111 0.00074713261 0)
(0.82528917 0.00062622503 0)
(0.82488389 0.00054398694 0)
(0.82449487 0.00048122549 0)
(0.82412953 0.00042634261 0)
(0.8237926 0.00037704552 0)
(0.82348403 0.0003345285 0)
(0.82320111 0.00029929727 0)
(0.82294071 0.00027037827 0)
(0.82270026 0.00024618755 0)
(0.82247782 0.00022537745 0)
(0.82227179 0.00020710081 0)
(0.82208074 0.00019088088 0)
(0.82190332 0.00017640863 0)
(0.82173831 0.00016342815 0)
(0.82158464 0.00015171074 0)
(0.82144135 0.00014106371 0)
(0.82130764 0.00013133572 0)
(0.82118275 0.00012241075 0)
(0.82106603 0.00011419718 0)
(0.82095688 0.00010661905 0)
(0.82085475 9.961127e-05 0)
(0.82075915 9.3117482e-05 0)
(0.82066964 8.7088982e-05 0)
(0.82058579 8.1483542e-05 0)
(0.82050724 7.6264384e-05 0)
(0.82043364 7.139908e-05 0)
(0.82036466 6.6858911e-05 0)
(0.82030001 6.2618195e-05 0)
(0.82023941 5.8653985e-05 0)
(0.82018261 5.4945577e-05 0)
(0.82012936 5.1474351e-05 0)
(0.82007945 4.8223368e-05 0)
(0.82003268 4.5177294e-05 0)
(0.81998883 4.2322062e-05 0)
(0.81994775 3.9644868e-05 0)
(0.81990924 3.7133889e-05 0)
(0.81987317 3.4778324e-05 0)
(0.81983938 3.2568123e-05 0)
(0.81980773 3.0494076e-05 0)
(0.81977808 2.8547569e-05 0)
(0.81975033 2.6720689e-05 0)
(0.81972434 2.5005988e-05 0)
(0.81970002 2.3396611e-05 0)
(0.81967727 2.1886083e-05 0)
(0.81965598 2.0468437e-05 0)
(0.81963607 1.9138008e-05 0)
(0.81961745 1.7889573e-05 0)
(0.81960004 1.6718157e-05 0)
(0.81958378 1.5619181e-05 0)
(0.81956858 1.4588258e-05 0)
(0.81955438 1.3621354e-05 0)
(0.81954113 1.2714599e-05 0)
(0.81952876 1.1864439e-05 0)
(0.81951721 1.1067448e-05 0)
(0.81950644 1.0320485e-05 0)
(0.8194964 9.6205178e-06 0)
(0.81948704 8.9647769e-06 0)
(0.81947831 8.3505695e-06 0)
(0.81947019 7.7754434e-06 0)
(0.81946262 7.2370115e-06 0)
(0.81945558 6.7331095e-06 0)
(0.81944902 6.2616128e-06 0)
(0.81944293 5.8206031e-06 0)
(0.81943727 5.4081934e-06 0)
(0.819432 5.0226916e-06 0)
(0.81942711 4.662413e-06 0)
(0.81942258 4.3258597e-06 0)
(0.81941837 4.0115298e-06 0)
(0.81941446 3.7181099e-06 0)
(0.81941085 3.4442486e-06 0)
(0.8194075 3.1887964e-06 0)
(0.81940439 2.9505309e-06 0)
(0.81940152 2.7284719e-06 0)
(0.81939887 2.5214846e-06 0)
(0.81939641 2.3287624e-06 0)
(0.81939415 2.149214e-06 0)
(0.81939206 1.9822519e-06 0)
(0.81939013 1.8267395e-06 0)
(0.81938835 1.6823828e-06 0)
(0.81938671 1.5478677e-06 0)
(0.81938521 1.4233636e-06 0)
(0.81938382 1.3071312e-06 0)
(0.81938255 1.2000932e-06 0)
(0.81938138 1.0996767e-06 0)
(0.81938031 1.0080896e-06 0)
(0.81937933 9.2121925e-07 0)
(0.81937844 8.4344267e-07 0)
(0.81937761 7.6794075e-07 0)
(0.81937687 7.0278699e-07 0)
(0.81937617 6.3655971e-07 0)
(0.81937559 5.8386789e-07 0)
(0.81937495 5.255555e-07 0)
(0.81937457 4.8885853e-07 0)
(0.81937386 4.4359135e-07 0)
(1.1828644 0.00012573479 0)
(1.1836646 0.00066506154 0)
(1.183682 0.0010685077 0)
(1.1835019 0.0011955754 0)
(1.1834121 0.0011334403 0)
(1.1834148 0.0010144275 0)
(1.1834279 0.00091205657 0)
(1.1834027 0.00083767345 0)
(1.1833376 0.00077728898 0)
(1.1832506 0.00071933652 0)
(1.1831572 0.00066156902 0)
(1.1830637 0.00060662964 0)
(1.1829709 0.00055696816 0)
(1.1828786 0.0005130825 0)
(1.1827871 0.00047415799 0)
(1.1826971 0.00043915046 0)
(1.1826097 0.00040732762 0)
(1.1825255 0.0003782784 0)
(1.1824447 0.00035173804 0)
(1.1823673 0.00032746473 0)
(1.1822935 0.00030521179 0)
(1.1822231 0.00028474671 0)
(1.1821562 0.00026586927 0)
(1.1820927 0.00024841419 0)
(1.1820324 0.00023224349 0)
(1.1819754 0.00021723835 0)
(1.1819214 0.00020329389 0)
(1.1818704 0.00019031702 0)
(1.1818223 0.00017822518 0)
(1.1817768 0.00016694533 0)
(1.1817339 0.00015641254 0)
(1.1816935 0.00014656888 0)
(1.1816554 0.0001373622 0)
(1.1816195 0.00012874554 0)
(1.1815857 0.00012067629 0)
(1.1815539 0.00011311581 0)
(1.181524 0.00010602884 0)
(1.1814959 9.9383224e-05 0)
(1.1814694 9.3149434e-05 0)
(1.1814446 8.7300397e-05 0)
(1.1814213 8.1811096e-05 0)
(1.1813993 7.6658514e-05 0)
(1.1813788 7.1821277e-05 0)
(1.1813595 6.7279641e-05 0)
(1.1813413 6.3015195e-05 0)
(1.1813243 5.9010886e-05 0)
(1.1813084 5.5250751e-05 0)
(1.1812935 5.171997e-05 0)
(1.1812795 4.840462e-05 0)
(1.1812664 4.5291757e-05 0)
(1.1812541 4.2369188e-05 0)
(1.1812426 3.9625558e-05 0)
(1.1812318 3.7050145e-05 0)
(1.1812217 3.4632962e-05 0)
(1.1812123 3.2364553e-05 0)
(1.1812035 3.023611e-05 0)
(1.1811952 2.8239275e-05 0)
(1.1811875 2.6366267e-05 0)
(1.1811803 2.4609691e-05 0)
(1.1811736 2.296266e-05 0)
(1.1811673 2.141862e-05 0)
(1.1811615 1.9971476e-05 0)
(1.181156 1.8615416e-05 0)
(1.1811509 1.7345037e-05 0)
(1.1811461 1.6155181e-05 0)
(1.1811417 1.5041061e-05 0)
(1.1811376 1.39981e-05 0)
(1.1811337 1.302205e-05 0)
(1.1811302 1.2108844e-05 0)
(1.1811268 1.1254717e-05 0)
(1.1811237 1.0456062e-05 0)
(1.1811209 9.7095308e-06 0)
(1.1811182 9.0119247e-06 0)
(1.1811157 8.3602662e-06 0)
(1.1811134 7.7517318e-06 0)
(1.1811112 7.1836566e-06 0)
(1.1811093 6.6535635e-06 0)
(1.1811074 6.159047e-06 0)
(1.1811057 5.6979783e-06 0)
(1.1811041 5.2681262e-06 0)
(1.1811027 4.8677359e-06 0)
(1.1811013 4.4946427e-06 0)
(1.1811001 4.147568e-06 0)
(1.1810989 3.8242076e-06 0)
(1.1810978 3.523972e-06 0)
(1.1810969 3.2440576e-06 0)
(1.181096 2.9850279e-06 0)
(1.1810951 2.7428796e-06 0)
(1.1810943 2.5202531e-06 0)
(1.1810936 2.3105964e-06 0)
(1.181093 2.1204944e-06 0)
(1.1810924 1.9381754e-06 0)
(1.1810918 1.7778847e-06 0)
(1.1810914 1.6173376e-06 0)
(1.1810909 1.4859488e-06 0)
(1.1810905 1.3405681e-06 0)
(1.1810901 1.2405819e-06 0)
(1.1810897 1.1022891e-06 0)
(1.1810895 1.0426975e-06 0)
(1.181089 9.047134e-07 0)
(1.4102548 7.8714551e-05 0)
(1.4113834 0.00044960044 0)
(1.4116608 0.00075888047 0)
(1.4117374 0.00088651996 0)
(1.4119574 0.00087110542 0)
(1.4123247 0.00080237182 0)
(1.4127228 0.00073860193 0)
(1.413072 0.00069317675 0)
(1.4133584 0.00065722259 0)
(1.4136011 0.00062147584 0)
(1.4138193 0.00058356197 0)
(1.4140216 0.00054551102 0)
(1.4142089 0.00050968594 0)
(1.4143803 0.00047699241 0)
(1.4145363 0.00044715776 0)
(1.4146783 0.00041958124 0)
(1.4148083 0.00039383555 0)
(1.4149279 0.00036972588 0)
(1.4150382 0.0003471646 0)
(1.41514 0.00032606843 0)
(1.4152341 0.00030633118 0)
(1.4153212 0.00028783943 0)
(1.4154019 0.00027049057 0)
(1.4154767 0.00025419887 0)
(1.4155462 0.00023889176 0)
(1.4156109 0.00022450503 0)
(1.415671 0.00021097939 0)
(1.415727 0.00019825986 0)
(1.4157792 0.00018629539 0)
(1.4158279 0.00017503911 0)
(1.4158734 0.00016444757 0)
(1.4159158 0.00015448068 0)
(1.4159554 0.00014510088 0)
(1.4159924 0.00013627334 0)
(1.416027 0.00012796523 0)
(1.4160594 0.00012014609 0)
(1.4160896 0.00011278711 0)
(1.4161179 0.00010586156 0)
(1.4161444 9.9344078e-05 0)
(1.4161691 9.3211104e-05 0)
(1.4161923 8.7440241e-05 0)
(1.416214 8.2010688e-05 0)
(1.4162343 7.690261e-05 0)
(1.4162532 7.2097604e-05 0)
(1.416271 6.7578078e-05 0)
(1.4162876 6.3327725e-05 0)
(1.4163031 5.9330913e-05 0)
(1.4163177 5.5573177e-05 0)
(1.4163313 5.2040611e-05 0)
(1.416344 4.8720373e-05 0)
(1.4163559 4.5600079e-05 0)
(1.416367 4.2668319e-05 0)
(1.4163773 3.9914058e-05 0)
(1.416387 3.7327156e-05 0)
(1.4163961 3.4897773e-05 0)
(1.4164045 3.2616897e-05 0)
(1.4164124 3.0475753e-05 0)
(1.4164198 2.8466331e-05 0)
(1.4164266 2.6580804e-05 0)
(1.416433 2.4812055e-05 0)
(1.416439 2.3153103e-05 0)
(1.4164446 2.1597626e-05 0)
(1.4164498 2.0139396e-05 0)
(1.4164546 1.8772801e-05 0)
(1.4164591 1.7492287e-05 0)
(1.4164633 1.6292872e-05 0)
(1.4164672 1.5169603e-05 0)
(1.4164708 1.4118059e-05 0)
(1.4164742 1.3133824e-05 0)
(1.4164773 1.2212979e-05 0)
(1.4164802 1.1351585e-05 0)
(1.4164829 1.0546165e-05 0)
(1.4164854 9.7932168e-06 0)
(1.4164877 9.089647e-06 0)
(1.4164899 8.4323527e-06 0)
(1.4164919 7.8185673e-06 0)
(1.4164937 7.2455682e-06 0)
(1.4164954 6.7108465e-06 0)
(1.416497 6.212071e-06 0)
(1.4164985 5.746891e-06 0)
(1.4164998 5.3134204e-06 0)
(1.416501 4.9093076e-06 0)
(1.4165022 4.5332713e-06 0)
(1.4165032 4.1826676e-06 0)
(1.4165042 3.857169e-06 0)
(1.4165051 3.5532821e-06 0)
(1.4165059 3.2723631e-06 0)
(1.4165067 3.00898e-06 0)
(1.4165074 2.7676564e-06 0)
(1.416508 2.5388916e-06 0)
(1.4165086 2.333303e-06 0)
(1.4165091 2.133207e-06 0)
(1.4165096 1.9609371e-06 0)
(1.4165101 1.7829044e-06 0)
(1.4165104 1.6436889e-06 0)
(1.4165109 1.4799117e-06 0)
(1.4165111 1.3768946e-06 0)
(1.4165115 1.2178992e-06 0)
(1.4165117 1.158848e-06 0)
(1.4165121 9.9458386e-07 0)
(1.5209441 2.6633884e-05 0)
(1.5222328 0.00015719513 0)
(1.5226285 0.00027094105 0)
(1.5228162 0.00032227302 0)
(1.5231753 0.00032096883 0)
(1.5237169 0.00029841388 0)
(1.5243091 0.00027661592 0)
(1.5248549 0.00026139689 0)
(1.5253318 0.00024976368 0)
(1.5257585 0.00023814118 0)
(1.5261565 0.00022546766 0)
(1.5265351 0.00021244618 0)
(1.5268945 0.00020000225 0)
(1.527233 0.0001885354 0)
(1.5275501 0.00017798061 0)
(1.5278473 0.00016812788 0)
(1.5281265 0.00015882538 0)
(1.5283891 0.00015001086 0)
(1.5286363 0.00014166566 0)
(1.5288691 0.00013377353 0)
(1.5290882 0.00012630862 0)
(1.5292943 0.0001192407 0)
(1.5294883 0.00011254236 0)
(1.5296709 0.00010619148 0)
(1.5298427 0.00010017005 0)
(1.5300044 9.4462262e-05 0)
(1.5301565 8.9053266e-05 0)
(1.5302996 8.3928867e-05 0)
(1.5304342 7.9075533e-05 0)
(1.5305608 7.4480433e-05 0)
(1.5306798 7.0131382e-05 0)
(1.5307917 6.6016756e-05 0)
(1.5308969 6.2125383e-05 0)
(1.5309957 5.8446523e-05 0)
(1.5310886 5.4969824e-05 0)
(1.5311758 5.1685354e-05 0)
(1.5312578 4.8583548e-05 0)
(1.5313347 4.5655241e-05 0)
(1.531407 4.2891621e-05 0)
(1.5314748 4.0284268e-05 0)
(1.5315384 3.7825094e-05 0)
(1.5315981 3.5506383e-05 0)
(1.5316541 3.3320737e-05 0)
(1.5317067 3.1261121e-05 0)
(1.5317559 2.9320796e-05 0)
(1.5318021 2.7493362e-05 0)
(1.5318453 2.5772696e-05 0)
(1.5318859 2.4153001e-05 0)
(1.5319239 2.2628733e-05 0)
(1.5319594 2.1194646e-05 0)
(1.5319927 1.9845731e-05 0)
(1.5320238 1.8577262e-05 0)
(1.532053 1.7384725e-05 0)
(1.5320803 1.6263863e-05 0)
(1.5321058 1.5210614e-05 0)
(1.5321296 1.422116e-05 0)
(1.5321519 1.3291856e-05 0)
(1.5321727 1.2419274e-05 0)
(1.5321921 1.1600145e-05 0)
(1.5322103 1.0831406e-05 0)
(1.5322272 1.0110133e-05 0)
(1.532243 9.4335818e-06 0)
(1.5322577 8.7991362e-06 0)
(1.5322715 8.2043509e-06 0)
(1.5322843 7.64689e-06 0)
(1.5322962 7.1245669e-06 0)
(1.5323073 6.6352952e-06 0)
(1.5323177 6.1771292e-06 0)
(1.5323273 5.74821e-06 0)
(1.5323362 5.3467977e-06 0)
(1.5323446 4.9712363e-06 0)
(1.5323523 4.6199775e-06 0)
(1.5323595 4.2915526e-06 0)
(1.5323661 3.9845717e-06 0)
(1.5323723 3.6977379e-06 0)
(1.5323781 3.4298029e-06 0)
(1.5323834 3.1796397e-06 0)
(1.5323883 2.9461005e-06 0)
(1.5323929 2.7282296e-06 0)
(1.5323971 2.5249424e-06 0)
(1.532401 2.3355001e-06 0)
(1.5324046 2.158786e-06 0)
(1.5324079 1.994357e-06 0)
(1.532411 1.8409211e-06 0)
(1.5324139 1.6985275e-06 0)
(1.5324165 1.5654015e-06 0)
(1.5324189 1.4424757e-06 0)
(1.5324211 1.3269259e-06 0)
(1.5324231 1.2213505e-06 0)
(1.532425 1.1207633e-06 0)
(1.5324267 1.0309229e-06 0)
(1.5324283 9.4261249e-07 0)
(1.5324297 8.6753083e-07 0)
(1.5324311 7.8853013e-07 0)
(1.5324322 7.2820548e-07 0)
(1.5324335 6.551396e-07 0)
(1.5324343 6.1094488e-07 0)
(1.5324355 5.3966467e-07 0)
(1.5324359 5.1435193e-07 0)
(1.5324372 4.4002635e-07 0)
(1.5209439 -2.6632923e-05 0)
(1.5222327 -0.00015719202 0)
(1.5226284 -0.00027094171 0)
(1.5228161 -0.00032227634 0)
(1.5231753 -0.00032096785 0)
(1.5237168 -0.00029840098 0)
(1.5243091 -0.00027659055 0)
(1.5248548 -0.0002613627 0)
(1.5253317 -0.0002497254 0)
(1.5257585 -0.00023810104 0)
(1.5261565 -0.00022542662 0)
(1.5265351 -0.00021240453 0)
(1.5268945 -0.0001999608 0)
(1.527233 -0.00018849501 0)
(1.5275501 -0.00017794223 0)
(1.5278473 -0.00016809212 0)
(1.5281265 -0.00015879266 0)
(1.5283891 -0.00014998148 0)
(1.5286363 -0.00014163973 0)
(1.5288691 -0.00013375119 0)
(1.5290882 -0.0001262898 0)
(1.5292943 -0.00011922539 0)
(1.5294884 -0.00011253033 0)
(1.5296709 -0.00010618262 0)
(1.5298428 -0.00010016405 0)
(1.5300044 -9.4458994e-05 0)
(1.5301565 -8.9052353e-05 0)
(1.5302996 -8.3930157e-05 0)
(1.5304342 -7.9078614e-05 0)
(1.5305608 -7.4485193e-05 0)
(1.5306798 -7.013745e-05 0)
(1.5307917 -6.6024069e-05 0)
(1.5308969 -6.2133601e-05 0)
(1.5309957 -5.8455637e-05 0)
(1.5310886 -5.4979537e-05 0)
(1.5311758 -5.16957e-05 0)
(1.5312578 -4.8594261e-05 0)
(1.5313347 -4.5666401e-05 0)
(1.531407 -4.2902992e-05 0)
(1.5314748 -4.0295946e-05 0)
(1.5315384 -3.7836851e-05 0)
(1.5315981 -3.5518335e-05 0)
(1.5316541 -3.3332665e-05 0)
(1.5317067 -3.1273142e-05 0)
(1.5317559 -2.9332688e-05 0)
(1.5318021 -2.7505252e-05 0)
(1.5318453 -2.578437e-05 0)
(1.5318859 -2.4164585e-05 0)
(1.5319238 -2.2640016e-05 0)
(1.5319594 -2.1205771e-05 0)
(1.5319927 -1.98565e-05 0)
(1.5320238 -1.858782e-05 0)
(1.532053 -1.7394882e-05 0)
(1.5320802 -1.6273781e-05 0)
(1.5321057 -1.5220117e-05 0)
(1.5321296 -1.4230408e-05 0)
(1.5321519 -1.3300674e-05 0)
(1.5321727 -1.2427833e-05 0)
(1.5321921 -1.1608276e-05 0)
(1.5322102 -1.083927e-05 0)
(1.5322272 -1.0117554e-05 0)
(1.532243 -9.4407236e-06 0)
(1.5322577 -8.8058255e-06 0)
(1.5322715 -8.210739e-06 0)
(1.5322843 -7.6527965e-06 0)
(1.5322962 -7.1301465e-06 0)
(1.5323073 -6.6403722e-06 0)
(1.5323176 -6.1818504e-06 0)
(1.5323273 -5.752399e-06 0)
(1.5323362 -5.3506117e-06 0)
(1.5323445 -4.97451e-06 0)
(1.5323523 -4.6228676e-06 0)
(1.5323594 -4.2938991e-06 0)
(1.5323661 -3.9865471e-06 0)
(1.5323723 -3.6991968e-06 0)
(1.532378 -3.4309208e-06 0)
(1.5323834 -3.1802766e-06 0)
(1.5323883 -2.9464461e-06 0)
(1.5323929 -2.7281628e-06 0)
(1.5323971 -2.5246551e-06 0)
(1.532401 -2.3348676e-06 0)
(1.5324046 -2.1580082e-06 0)
(1.5324079 -1.9933171e-06 0)
(1.532411 -1.8398146e-06 0)
(1.5324138 -1.6972318e-06 0)
(1.5324165 -1.5641208e-06 0)
(1.5324189 -1.4410856e-06 0)
(1.5324211 -1.3256265e-06 0)
(1.5324231 -1.2200056e-06 0)
(1.532425 -1.1195854e-06 0)
(1.5324267 -1.0297804e-06 0)
(1.5324283 -9.4174695e-07 0)
(1.5324297 -8.6682317e-07 0)
(1.5324311 -7.8819902e-07 0)
(1.5324322 -7.2808149e-07 0)
(1.5324335 -6.5521979e-07 0)
(1.5324343 -6.112122e-07 0)
(1.5324355 -5.3992708e-07 0)
(1.5324359 -5.1528052e-07 0)
(1.5324372 -4.4171301e-07 0)
(1.4102548 -7.8714972e-05 0)
(1.4113834 -0.00044961057 0)
(1.4116608 -0.00075889945 0)
(1.4117373 -0.0008865409 0)
(1.4119574 -0.00087111999 0)
(1.4123247 -0.00080237577 0)
(1.4127228 -0.00073859502 0)
(1.413072 -0.0006931617 0)
(1.4133584 -0.00065720184 0)
(1.4136011 -0.0006214512 0)
(1.4138193 -0.00058353432 0)
(1.4140216 -0.00054548131 0)
(1.4142089 -0.00050965513 0)
(1.4143804 -0.00047696159 0)
(1.4145363 -0.00044712782 0)
(1.4146783 -0.0004195529 0)
(1.4148083 -0.00039380933 0)
(1.4149279 -0.00036970213 0)
(1.4150382 -0.00034714359 0)
(1.4151401 -0.00032605024 0)
(1.4152342 -0.00030631592 0)
(1.4153212 -0.00028782699 0)
(1.4154019 -0.00027048092 0)
(1.4154768 -0.00025419178 0)
(1.4155463 -0.00023888714 0)
(1.4156109 -0.00022450258 0)
(1.4156711 -0.00021097898 0)
(1.4157271 -0.00019826117 0)
(1.4157793 -0.00018629831 0)
(1.415828 -0.00017504333 0)
(1.4158734 -0.00016445299 0)
(1.4159158 -0.00015448701 0)
(1.4159554 -0.00014510807 0)
(1.4159924 -0.00013628114 0)
(1.416027 -0.00012797363 0)
(1.4160594 -0.00012015485 0)
(1.4160896 -0.00011279628 0)
(1.4161179 -0.00010587094 0)
(1.4161444 -9.9353721e-05 0)
(1.4161692 -9.3220835e-05 0)
(1.4161923 -8.7450138e-05 0)
(1.416214 -8.2020584e-05 0)
(1.4162343 -7.6912587e-05 0)
(1.4162533 -7.2107492e-05 0)
(1.416271 -6.7587966e-05 0)
(1.4162876 -6.3337451e-05 0)
(1.4163032 -5.9340566e-05 0)
(1.4163177 -5.5582594e-05 0)
(1.4163313 -5.2049893e-05 0)
(1.416344 -4.8729369e-05 0)
(1.4163558 -4.5608892e-05 0)
(1.4163669 -4.2676803e-05 0)
(1.4163773 -3.9922329e-05 0)
(1.416387 -3.7335081e-05 0)
(1.416396 -3.4905472e-05 0)
(1.4164045 -3.2624237e-05 0)
(1.4164124 -3.0482862e-05 0)
(1.4164197 -2.8473085e-05 0)
(1.4164266 -2.6587326e-05 0)
(1.416433 -2.4818215e-05 0)
(1.416439 -2.3159024e-05 0)
(1.4164446 -2.1603183e-05 0)
(1.4164497 -2.0144703e-05 0)
(1.4164546 -1.8777725e-05 0)
(1.4164591 -1.7496942e-05 0)
(1.4164633 -1.6297129e-05 0)
(1.4164671 -1.5173568e-05 0)
(1.4164708 -1.4121601e-05 0)
(1.4164741 -1.3137056e-05 0)
(1.4164773 -1.2215778e-05 0)
(1.4164802 -1.1354064e-05 0)
(1.4164829 -1.0548204e-05 0)
(1.4164854 -9.7949391e-06 0)
(1.4164877 -9.0909462e-06 0)
(1.4164898 -8.4333568e-06 0)
(1.4164918 -7.8191736e-06 0)
(1.4164937 -7.2459183e-06 0)
(1.4164954 -6.7108525e-06 0)
(1.4164969 -6.2118707e-06 0)
(1.4164984 -5.7463953e-06 0)
(1.4164998 -5.3127782e-06 0)
(1.416501 -4.9084421e-06 0)
(1.4165021 -4.5323277e-06 0)
(1.4165032 -4.1815649e-06 0)
(1.4165042 -3.8560558e-06 0)
(1.4165051 -3.5520808e-06 0)
(1.4165059 -3.2712165e-06 0)
(1.4165066 -3.0078019e-06 0)
(1.4165073 -2.7665931e-06 0)
(1.416508 -2.5378593e-06 0)
(1.4165085 -2.3324544e-06 0)
(1.4165091 -2.1324571e-06 0)
(1.4165096 -1.96045e-06 0)
(1.41651 -1.782592e-06 0)
(1.4165104 -1.6436289e-06 0)
(1.4165108 -1.4799795e-06 0)
(1.4165111 -1.3770878e-06 0)
(1.4165115 -1.2180452e-06 0)
(1.4165116 -1.1592647e-06 0)
(1.4165121 -9.952656e-07 0)
(1.1828643 -0.00012573449 0)
(1.1836646 -0.00066505279 0)
(1.183682 -0.0010684944 0)
(1.1835018 -0.0011955666 0)
(1.183412 -0.0011334379 0)
(1.1834148 -0.00101443 0)
(1.1834279 -0.00091205935 0)
(1.1834027 -0.00083767336 0)
(1.1833376 -0.00077728408 0)
(1.1832507 -0.00071932711 0)
(1.1831572 -0.00066155583 0)
(1.1830637 -0.00060661387 0)
(1.182971 -0.00055695062 0)
(1.1828787 -0.00051306406 0)
(1.1827871 -0.00047413933 0)
(1.1826972 -0.00043913228 0)
(1.1826098 -0.00040731048 0)
(1.1825256 -0.00037826271 0)
(1.1824447 -0.0003517241 0)
(1.1823674 -0.00032745264 0)
(1.1822935 -0.00030520171 0)
(1.1822232 -0.00028473854 0)
(1.1821563 -0.00026586306 0)
(1.1820927 -0.00024840971 0)
(1.1820325 -0.00023224076 0)
(1.1819755 -0.00021723707 0)
(1.1819215 -0.00020329403 0)
(1.1818705 -0.00019031828 0)
(1.1818223 -0.00017822756 0)
(1.1817769 -0.00016694852 0)
(1.181734 -0.00015641656 0)
(1.1816935 -0.0001465734 0)
(1.1816554 -0.00013736732 0)
(1.1816195 -0.00012875094 0)
(1.1815857 -0.00012068209 0)
(1.1815539 -0.00011312173 0)
(1.181524 -0.00010603503 0)
(1.1814959 -9.9389433e-05 0)
(1.1814695 -9.3155825e-05 0)
(1.1814446 -8.7306725e-05 0)
(1.1814213 -8.1817553e-05 0)
(1.1813994 -7.6664856e-05 0)
(1.1813788 -7.1827691e-05 0)
(1.1813595 -6.7285888e-05 0)
(1.1813413 -6.3021476e-05 0)
(1.1813243 -5.9016959e-05 0)
(1.1813084 -5.525681e-05 0)
(1.1812935 -5.1725777e-05 0)
(1.1812795 -4.8410383e-05 0)
(1.1812663 -4.5297242e-05 0)
(1.1812541 -4.2374596e-05 0)
(1.1812425 -3.9630664e-05 0)
(1.1812318 -3.7055167e-05 0)
(1.1812217 -3.4637676e-05 0)
(1.1812123 -3.2369172e-05 0)
(1.1812034 -3.0240418e-05 0)
(1.1811952 -2.8243497e-05 0)
(1.1811875 -2.6370186e-05 0)
(1.1811803 -2.4613519e-05 0)
(1.1811736 -2.2966185e-05 0)
(1.1811673 -2.1422061e-05 0)
(1.1811614 -1.9974616e-05 0)
(1.181156 -1.8618459e-05 0)
(1.1811509 -1.734777e-05 0)
(1.1811461 -1.6157813e-05 0)
(1.1811417 -1.5043375e-05 0)
(1.1811375 -1.4000292e-05 0)
(1.1811337 -1.3023909e-05 0)
(1.1811301 -1.2110577e-05 0)
(1.1811268 -1.1256113e-05 0)
(1.1811237 -1.045732e-05 0)
(1.1811208 -9.7104487e-06 0)
(1.1811181 -9.0127155e-06 0)
(1.1811156 -8.3607331e-06 0)
(1.1811133 -7.7520813e-06 0)
(1.1811112 -7.1837024e-06 0)
(1.1811092 -6.653527e-06 0)
(1.1811073 -6.1587431e-06 0)
(1.1811056 -5.6976187e-06 0)
(1.1811041 -5.2675363e-06 0)
(1.1811026 -4.8671426e-06 0)
(1.1811013 -4.4938707e-06 0)
(1.1811 -4.1468326e-06 0)
(1.1810988 -3.8233362e-06 0)
(1.1810978 -3.5231896e-06 0)
(1.1810968 -3.2431858e-06 0)
(1.1810959 -2.9842822e-06 0)
(1.1810951 -2.7420786e-06 0)
(1.1810943 -2.5196258e-06 0)
(1.1810936 -2.3099515e-06 0)
(1.1810929 -2.1200613e-06 0)
(1.1810923 -1.9377398e-06 0)
(1.1810918 -1.7776857e-06 0)
(1.1810913 -1.6171452e-06 0)
(1.1810908 -1.4859573e-06 0)
(1.1810904 -1.3406544e-06 0)
(1.1810901 -1.2406791e-06 0)
(1.1810897 -1.1023459e-06 0)
(1.1810894 -1.0425075e-06 0)
(1.181089 -9.0417315e-07 0)
(0.82744074 -0.00015828737 0)
(0.82772417 -0.00072142491 0)
(0.82731192 -0.001046078 0)
(0.826714 -0.0010583547 0)
(0.82617295 -0.00091036617 0)
(0.82571116 -0.00074715394 0)
(0.82528923 -0.00062625418 0)
(0.82488394 -0.00054401442 0)
(0.82449491 -0.00048124619 0)
(0.82412957 -0.00042635571 0)
(0.82379263 -0.00037705269 0)
(0.82348406 -0.00033453143 0)
(0.82320114 -0.00029929719 0)
(0.82294074 -0.00027037594 0)
(0.8227003 -0.00024618372 0)
(0.82247786 -0.00022537282 0)
(0.82227184 -0.000207096 0)
(0.82208079 -0.00019087636 0)
(0.82190337 -0.00017640464 0)
(0.82173836 -0.0001634249 0)
(0.82158469 -0.00015170824 0)
(0.82144142 -0.00014106204 0)
(0.8213077 -0.00013133479 0)
(0.82118281 -0.00012241058 0)
(0.82106609 -0.00011419762 0)
(0.82095694 -0.00010662011 0)
(0.82085481 -9.961277e-05 0)
(0.82075921 -9.311945e-05 0)
(0.82066969 -8.7091235e-05 0)
(0.82058585 -8.148611e-05 0)
(0.82050729 -7.6267083e-05 0)
(0.82043369 -7.1401972e-05 0)
(0.8203647 -6.6861826e-05 0)
(0.82030005 -6.262121e-05 0)
(0.82023945 -5.8656944e-05 0)
(0.82018264 -5.4948588e-05 0)
(0.82012939 -5.1477269e-05 0)
(0.82007948 -4.8226304e-05 0)
(0.8200327 -4.5180109e-05 0)
(0.81998885 -4.2324888e-05 0)
(0.81994776 -3.964757e-05 0)
(0.81990926 -3.7136591e-05 0)
(0.81987318 -3.4780888e-05 0)
(0.81983939 -3.2570686e-05 0)
(0.81980773 -3.0496499e-05 0)
(0.81977808 -2.8549977e-05 0)
(0.81975032 -2.6722941e-05 0)
(0.81972434 -2.5008219e-05 0)
(0.81970002 -2.3398683e-05 0)
(0.81967726 -2.1888122e-05 0)
(0.81965597 -2.0470306e-05 0)
(0.81963605 -1.9139845e-05 0)
(0.81961743 -1.7891246e-05 0)
(0.81960002 -1.6719796e-05 0)
(0.81958375 -1.5620656e-05 0)
(0.81956855 -1.458971e-05 0)
(0.81955436 -1.3622657e-05 0)
(0.8195411 -1.2715883e-05 0)
(0.81952872 -1.1865576e-05 0)
(0.81951718 -1.1068577e-05 0)
(0.81950641 -1.0321479e-05 0)
(0.81949636 -9.6215017e-06 0)
(0.819487 -8.9656206e-06 0)
(0.81947827 -8.3514051e-06 0)
(0.81947014 -7.7761415e-06 0)
(0.81946258 -7.2376913e-06 0)
(0.81945553 -6.7336401e-06 0)
(0.81944898 -6.262122e-06 0)
(0.81944288 -5.8209633e-06 0)
(0.81943722 -5.4085224e-06 0)
(0.81943196 -5.0228633e-06 0)
(0.81942707 -4.6625567e-06 0)
(0.81942253 -4.3258548e-06 0)
(0.81941832 -4.0114978e-06 0)
(0.81941442 -3.7179328e-06 0)
(0.8194108 -3.4440596e-06 0)
(0.81940745 -3.1884828e-06 0)
(0.81940435 -2.950218e-06 0)
(0.81940147 -2.7280491e-06 0)
(0.81939882 -2.5210883e-06 0)
(0.81939637 -2.3282858e-06 0)
(0.8193941 -2.1487826e-06 0)
(0.81939201 -1.981758e-06 0)
(0.81939008 -1.8263162e-06 0)
(0.81938831 -1.6819245e-06 0)
(0.81938667 -1.5474951e-06 0)
(0.81938516 -1.4229701e-06 0)
(0.81938378 -1.3068428e-06 0)
(0.81938251 -1.1998081e-06 0)
(0.81938134 -1.0995065e-06 0)
(0.81938027 -1.007924e-06 0)
(0.81937929 -9.2114911e-07 0)
(0.81937839 -8.4333904e-07 0)
(0.81937757 -7.6786468e-07 0)
(0.81937683 -7.0272575e-07 0)
(0.81937614 -6.3655115e-07 0)
(0.81937555 -5.8377686e-07 0)
(0.81937492 -5.2549186e-07 0)
(0.81937454 -4.8820096e-07 0)
(0.81937382 -4.4240481e-07 0)
(0.32880227 -0.00014517656 0)
(0.3284922 -0.00044075382 0)
(0.32778446 -0.0005013538 0)
(0.32704708 -0.00039727056 0)
(0.32643428 -0.00026681427 0)
(0.32595584 -0.0001783902 0)
(0.3255737 -0.00013306247 0)
(0.32525278 -0.00010995959 0)
(0.3249736 -9.3986484e-05 0)
(0.32472785 -8.0159966e-05 0)
(0.32451129 -6.851362e-05 0)
(0.32431995 -5.963015e-05 0)
(0.32414954 -5.3215827e-05 0)
(0.32399615 -4.8446493e-05 0)
(0.32385673 -4.4576273e-05 0)
(0.32372917 -4.118674e-05 0)
(0.32361194 -3.8123889e-05 0)
(0.32350388 -3.5348436e-05 0)
(0.32340403 -3.2837648e-05 0)
(0.32331154 -3.055804e-05 0)
(0.32322571 -2.8472717e-05 0)
(0.32314591 -2.6552417e-05 0)
(0.32307163 -2.4777323e-05 0)
(0.32300241 -2.3134259e-05 0)
(0.32293784 -2.1612239e-05 0)
(0.32287757 -2.0201302e-05 0)
(0.32282127 -1.889154e-05 0)
(0.32276865 -1.767423e-05 0)
(0.32271944 -1.6541204e-05 0)
(0.3226734 -1.5485684e-05 0)
(0.32263031 -1.4501199e-05 0)
(0.32258997 -1.3582366e-05 0)
(0.32255219 -1.272385e-05 0)
(0.32251681 -1.1921312e-05 0)
(0.32248367 -1.1170343e-05 0)
(0.32245262 -1.0467438e-05 0)
(0.32242353 -9.8089125e-06 0)
(0.32239628 -9.1919344e-06 0)
(0.32237074 -8.6133997e-06 0)
(0.32234681 -8.0709819e-06 0)
(0.3223244 -7.5620135e-06 0)
(0.3223034 -7.0845863e-06 0)
(0.32228373 -6.6364037e-06 0)
(0.3222653 -6.2158738e-06 0)
(0.32224805 -5.8209769e-06 0)
(0.32223189 -5.4503954e-06 0)
(0.32221676 -5.1023579e-06 0)
(0.3222026 -4.7757522e-06 0)
(0.32218935 -4.4689904e-06 0)
(0.32217695 -4.1811492e-06 0)
(0.32216536 -3.9108168e-06 0)
(0.32215451 -3.6572095e-06 0)
(0.32214436 -3.4190432e-06 0)
(0.32213488 -3.1956713e-06 0)
(0.32212602 -2.9859418e-06 0)
(0.32211774 -2.7893074e-06 0)
(0.32211001 -2.6047091e-06 0)
(0.32210279 -2.4317039e-06 0)
(0.32209605 -2.2693368e-06 0)
(0.32208976 -2.117237e-06 0)
(0.32208389 -1.9745196e-06 0)
(0.32207842 -1.8408951e-06 0)
(0.32207332 -1.7155618e-06 0)
(0.32206857 -1.598284e-06 0)
(0.32206414 -1.4883121e-06 0)
(0.32206002 -1.3854747e-06 0)
(0.32205618 -1.2890898e-06 0)
(0.32205261 -1.1990246e-06 0)
(0.32204929 -1.1146359e-06 0)
(0.3220462 -1.0358418e-06 0)
(0.32204334 -9.6205483e-07 0)
(0.32204067 -8.9322004e-07 0)
(0.3220382 -8.2877865e-07 0)
(0.32203591 -7.687163e-07 0)
(0.32203378 -7.1252157e-07 0)
(0.32203181 -6.6019725e-07 0)
(0.32202998 -6.1125566e-07 0)
(0.32202829 -5.6572921e-07 0)
(0.32202673 -5.2317564e-07 0)
(0.32202528 -4.8363168e-07 0)
(0.32202394 -4.4668278e-07 0)
(0.32202271 -4.1237654e-07 0)
(0.32202157 -3.8035659e-07 0)
(0.32202052 -3.5064576e-07 0)
(0.32201955 -3.2294392e-07 0)
(0.32201866 -2.972366e-07 0)
(0.32201784 -2.7333527e-07 0)
(0.32201708 -2.5112177e-07 0)
(0.32201639 -2.3055824e-07 0)
(0.32201575 -2.1136007e-07 0)
(0.32201517 -1.9373375e-07 0)
(0.32201463 -1.7712122e-07 0)
(0.32201414 -1.6203967e-07 0)
(0.3220137 -1.4768595e-07 0)
(0.32201329 -1.3489162e-07 0)
(0.32201292 -1.226692e-07 0)
(0.32201258 -1.1167038e-07 0)
(0.32201226 -1.0262628e-07 0)
(0.32201202 -9.3391958e-08 0)
(0.32201166 -9.7603212e-08 0)
)
;

boundaryField
{
    top
    {
        type            fixedValue;
        value           uniform (0 0 0);
    }
    inlet
    {
        type            pressureNormalInletOutletVelocity;
        phi             phi;
        rho             rho;