# Region type : patch outlet
# Faces         : 10
# Area          : 1.00000000e-01
# Scale factor  : 1.00000000e+00
# Time          	sum(phi)
0.05            	7.18907515e-04
0.1             	1.45760238e-03
0.15            	2.18027124e-03
0.2             	2.89205476e-03
0.25            	3.59363625e-03
0.3             	4.28584212e-03
0.35            	4.96927632e-03
0.4             	5.64449626e-03
0.45            	6.31197073e-03
0.5             	6.97212973e-03
0.55            	7.62535390e-03
0.6             	8.27198038e-03
0.65            	8.91231029e-03
0.7             	9.54661473e-03
0.75            	1.01751418e-02
0.8             	1.07981177e-02
0.85            	1.14157478e-02
0.9             	1.20282085e-02
0.95            	1.26356907e-02
1               	1.32383385e-02
1.05            	1.38363046e-02
1.1             	1.44297003e-02
1.15            	1.50186725e-02
1.2             	1.56033289e-02
1.25            	1.61837534e-02
1.3             	1.67600745e-02
1.35            	1.73323791e-02
1.4             	1.79007287e-02
1.45            	1.84652347e-02
1.5             	1.90259667e-02
1.55            	1.95829721e-02
1.6             	2.01363506e-02
1.65            	2.06861592e-02
1.7             	2.12324340e-02
1.75            	2.17752650e-02
1.8             	2.23146993e-02
1.85            	2.28507648e-02
1.9             	2.33835441e-02
1.95            	2.39130765e-02
2               	2.44393834e-02
2.05            	2.49625416e-02
2.1             	2.54825836e-02
2.15            	2.59995391e-02
2.2             	2.65134503e-02
2.25            	2.70243568e-02
2.3             	2.75322949e-02
2.35            	2.80372993e-02
2.4             	2.85394031e-02
2.45            	2.90386384e-02
2.5             	2.95350367e-02
2.55            	3.00286279e-02
2.6             	3.05194416e-02
2.65            	3.10075060e-02
2.7             	3.14928486e-02
2.75            	3.19754962e-02
2.8             	3.24554748e-02
2.85            	3.29328095e-02
2.9             	3.34075249e-02
2.95            	3.38796449e-02
3               	3.43491927e-02
3.05            	3.48161911e-02
3.1             	3.52806622e-02
3.15            	3.57426275e-02
3.2             	3.62021081e-02
3.25            	3.66591246e-02
3.3             	3.71136971e-02
3.35            	3.75658451e-02
3.4             	3.80155881e-02
3.45            	3.84629447e-02
3.5             	3.89079334e-02
3.55            	3.93505723e-02
3.6             	3.97908789e-02
3.65            	4.02288707e-02
3.7             	4.06645648e-02
3.75            	4.10979776e-02
3.8             	4.15291257e-02
3.85            	4.19580250e-02
3.9             	4.23846915e-02
3.95            	4.28091405e-02
4               	4.32313875e-02
4.05            	4.36514473e-02
4.1             	4.40693348e-02
4.15            	4.44850644e-02
4.2             	4.48986505e-02
4.25            	4.53101073e-02
4.3             	4.57194484e-02
4.35            	4.61266876e-02
4.4             	4.65318383e-02
4.45            	4.69349139e-02
4.5             	4.73359273e-02
4.55            	4.77348917e-02
4.6             	4.81318196e-02
4.65            	4.85267238e-02
4.7             	4.89196165e-02
4.75            	4.93105100e-02
4.8             	4.96994165e-02
4.85            	5.00863480e-02
4.9             	5.04713162e-02
4.95            	5.08543328e-02
5               	5.12354094e-02
5.05            	5.16145574e-02
5.1             	5.19917881e-02
5.15            	5.23671126e-02
5.2             	5.27405421e-02
5.25            	5.31120875e-02
5.3             	5.34817595e-02
5.35            	5.38495689e-02
5.4             	5.42155264e-02
5.45            	5.45796424e-02
5.5             	5.49419273e-02
5.55            	5.53023914e-02
5.6             	5.56610450e-02
5.65            	5.60178984e-02
5.7             	5.63729610e-02
5.75            	5.67262433e-02
5.8             	5.70777547e-02
5.85            	5.74275055e-02
5.9             	5.77755050e-02
5.95            	5.81217630e-02
6               	5.84662889e-02
6.05            	5.88090922e-02
6.1             	5.91501822e-02
6.15            	5.94895683e-02
6.2             	5.98272598e-02
6.25            	6.01632656e-02
6.3             	6.04975948e-02
6.35            	6.08302564e-02
6.4             	6.11612595e-02
6.45            	6.14906129e-02
6.5             	6.18183254e-02
6.55            	6.21444058e-02
6.6             	6.24688628e-02
6.65            	6.27917050e-02
6.7             	6.31129409e-02
6.75            	6.34325791e-02
6.8             	6.37506280e-02
6.85            	6.40670960e-02
6.9             	6.43819913e-02
6.95            	6.46953225e-02
7               	6.50070975e-02
7.05            	6.53173246e-02
7.1             	6.56260118e-02
7.15            	6.59331672e-02
7.2             	6.62387989e-02
7.25            	6.65429148e-02
7.3             	6.68455228e-02
7.35            	6.71466310e-02
7.4             	6.74462469e-02
7.45            	6.77443784e-02
7.5             	6.80410332e-02
7.55            	6.83362189e-02
7.6             	6.86299432e-02
7.65            	6.89222137e-02
7.7             	6.92130379e-02
7.75            	6.95024232e-02
7.8             	6.97903771e-02
7.85            	7.00769071e-02
7.9             	7.03620204e-02
7.95            	7.06457243e-02
8               	7.09280263e-02
8.05            	7.12089335e-02
8.1             	7.14884531e-02
8.15            	7.17665919e-02
8.2             	7.20433572e-02
8.25            	7.23187559e-02
8.3             	7.25927957e-02
8.35            	7.28654833e-02
8.4             	7.31368255e-02
8.45            	7.34068293e-02
8.5             	7.36755014e-02
8.55            	7.39428486e-02
8.6             	7.42088778e-02
8.65            	7.44735958e-02
8.7             	7.47370092e-02
8.75            	7.49991248e-02
8.8             	7.52599491e-02
8.85            	7.55194888e-02
8.9             	7.57777505e-02
8.95            	7.60347406e-02
9               	7.62904657e-02
9.05            	7.65449322e-02
9.1             	7.67981466e-02
9.15            	7.70501152e-02
9.2             	7.73008444e-02
9.25            	7.75503406e-02
9.3             	7.77986100e-02
9.35            	7.80456588e-02
9.4             	7.82914933e-02
9.45            	7.85361200e-02
9.5             	7.87795444e-02
9.55            	7.90217728e-02
9.6             	7.92628114e-02
9.65            	7.95026662e-02
9.7             	7.97413434e-02
9.75            	7.99788493e-02
9.8             	8.02151896e-02
9.85            	8.04503699e-02
9.9             	8.06843961e-02
9.95            	8.09172742e-02
10              	8.11490101e-02
10.05           	8.13796097e-02
10.1            	8.16090787e-02
10.15           	8.18374228e-02
10.2            	8.20646477e-02
10.25           	8.22907590e-02
10.3            	8.25157625e-02
10.35           	8.27396637e-02
10.4            	8.29624683e-02
10.45           	8.31841818e-02
10.5            	8.34048098e-02
10.55           	8.36243576e-02
10.6            	8.38428309e-02
10.65           	8.40602351e-02
10.7            	8.42765756e-02
10.75           	8.44918577e-02
10.8            	8.47060868e-02
10.85           	8.49192683e-02
10.9            	8.51314075e-02
10.95           	8.53425096e-02
11              	8.55525799e-02
11.05           	8.57616241e-02
11.1            	8.59696467e-02
11.15           	8.61766530e-02
11.2            	8.63826478e-02
11.25           	8.65876363e-02
11.3            	8.67916234e-02
11.35           	8.69946156e-02
11.4            	8.71966175e-02
11.45           	8.73976336e-02
11.5            	8.75976685e-02
11.55           	8.77967274e-02
11.6            	8.79948154e-02
11.65           	8.81919374e-02
11.7            	8.83880983e-02
11.75           	8.85833029e-02
11.8            	8.87775560e-02
11.85           	8.89708625e-02
11.9            	8.91632270e-02
11.95           	8.93546544e-02
12              	8.95451494e-02
12.05           	8.97347166e-02
12.1            	8.99233608e-02
12.15           	9.01110866e-02
12.2            	9.02978986e-02
12.25           	9.04838015e-02
12.3            	9.06687998e-02
12.35           	9.08528981e-02
12.4            	9.10361009e-02
12.45           	9.12184127e-02
12.5            	9.13998380e-02
12.55           	9.15803812e-02
12.6            	9.17600469e-02
12.65           	9.19388394e-02
12.7            	9.21167630e-02
12.75           	9.22938223e-02
12.8            	9.24700215e-02
12.85           	9.26453649e-02
12.9            	9.28198569e-02
12.95           	9.29935017e-02
13              	9.31663036e-02
13.05           	9.33382669e-02
13.1            	9.35093956e-02
13.15           	9.36796941e-02
13.2            	9.38491665e-02
13.25           	9.40178169e-02
13.3            	9.41856494e-02
13.35           	9.43526683e-02
13.4            	9.45188775e-02
13.45           	9.46842811e-02
13.5            	9.48488832e-02
13.55           	9.50126877e-02
13.6            	9.51756987e-02
13.65           	9.53379202e-02
13.7            	9.54993560e-02
13.75           	9.56600102e-02
13.8            	9.58198867e-02
13.85           	9.59789893e-02
13.9            	9.61373220e-02
13.95           	9.62948885e-02
14              	9.64516927e-02
14.05           	9.66077385e-02
14.1            	9.67630296e-02
14.15           	9.69175698e-02
14.2            	9.70713629e-02
14.25           	9.72244126e-02
14.3            	9.73767226e-02
14.35           	9.75282966e-02
14.4            	9.76791382e-02
14.45           	9.78292513e-02
14.5            	9.79786393e-02
14.55           	9.81273059e-02
14.6            	9.82752548e-02
14.65           	9.84224894e-02
14.7            	9.85690134e-02
14.75           	9.87148304e-02
14.8            	9.88599437e-02
14.85           	9.90043570e-02
14.9            	9.91480738e-02
14.95           	9.92910974e-02
15              	9.94334315e-02
15.05           	9.95750793e-02
15.1            	9.97160444e-02
15.15           	9.98563301e-02
15.2            	9.99959398e-02
15.25           	1.00134877e-01
15.3            	1.00273145e-01
15.35           	1.00410747e-01
15.4            	1.00547686e-01
15.45           	1.00683966e-01
15.5            	1.00819590e-01
15.55           	1.00954561e-01
15.6            	1.01088883e-01
15.65           	1.01222558e-01
15.7            	1.01355590e-01
15.75           	1.01487983e-01
15.8            	1.01619738e-01
15.85           	1.01750860e-01
15.9            	1.01881352e-01
15.95           	1.02011216e-01
16              	1.02140457e-01
16.05           	1.02269076e-01
16.1            	1.02397077e-01
16.15           	1.02524464e-01
16.2            	1.02651238e-01
16.25           	1.02777404e-01
16.3            	1.02902964e-01
16.35           	1.03027921e-01
16.4            	1.03152278e-01
16.45           	1.03276039e-01
16.5            	1.03399205e-01
16.55           	1.03521781e-01
16.6            	1.03643768e-01
16.65           	1.03765171e-01
16.7            	1.03885991e-01
16.75           	1.04006232e-01
16.8            	1.04125897e-01
16.85           	1.04244988e-01
16.9            	1.04363508e-01
16.95           	1.04481461e-01
17              	1.04598848e-01
17.05           	1.04715673e-01
17.1            	1.04831938e-01
17.15           	1.04947646e-01
17.2            	1.05062801e-01
17.25           	1.05177404e-01
17.3            	1.05291459e-01
17.35           	1.05404967e-01
17.4            	1.05517933e-01
17.45           	1.05630358e-01
17.5            	1.05742245e-01
17.55           	1.05853597e-01
17.6            	1.05964416e-01
17.65           	1.06074706e-01
17.7            	1.06184468e-01
17.75           	1.06293706e-01
17.8            	1.06402421e-01
17.85           	1.06510617e-01
17.9            	1.06618296e-01
17.95           	1.06725460e-01
18              	1.06832113e-01
18.05           	1.06938256e-01
18.1            	1.07043892e-01
18.15           	1.07149024e-01
18.2            	1.07253654e-01
18.25           	1.07357785e-01
18.3            	1.07461418e-01
18.35           	1.07564557e-01
18.4            	1.07667204e-01
18.45           	1.07769361e-01
18.5            	1.07871031e-01
18.55           	1.07972216e-01
18.6            	1.08072919e-01
18.65           	1.08173141e-01
18.7            	1.08272886e-01
18.75           	1.08372155e-01
18.8            	1.08470951e-01
18.85           	1.08569276e-01
18.9            	1.08667133e-01
18.95           	1.08764523e-01
19              	1.08861450e-01
19.05           	1.08957915e-01
19.1            	1.09053921e-01
19.15           	1.09149469e-01
19.2            	1.09244563e-01
19.25           	1.09339204e-01
19.3            	1.09433394e-01
19.35           	1.09527137e-01
19.4            	1.09620433e-01
19.45           	1.09713285e-01
19.5            	1.09805696e-01
19.55           	1.09897667e-01
19.6            	1.09989201e-01
19.65           	1.10080300e-01
19.7            	1.10170965e-01
19.75           	1.10261200e-01
19.8            	1.10351005e-01
19.85           	1.10440384e-01
19.9            	1.10529338e-01
19.95           	1.10617870e-01
20              	1.10705981e-01
