# Field minima and maxima
# Time          	field           	min             	location(min)   	max             	location(max)   
0.05            	U               	(8.38386892e-01 1.09709047e-02 0.00000000e+00)	(5.00000000e-02 -4.50000000e-01 5.00000000e-02)	(8.38386892e-01 1.09709047e-02 0.00000000e+00)	(5.00000000e-02 -4.50000000e-01 5.00000000e-02)
0.05            	p               	0.00000000e+00	(1.00000000e+01 -4.50000000e-01 5.00000000e-02)	2.40049599e+02	(5.00000000e-02 -4.50000000e-01 5.00000000e-02)
0.1             	U               	(8.20233541e-01 2.65014324e-02 0.00000000e+00)	(5.00000000e-02 -4.50000000e-01 5.00000000e-02)	(8.20233541e-01 2.65014324e-02 0.00000000e+00)	(5.00000000e-02 -4.50000000e-01 5.00000000e-02)
0.1             	p               	-4.02958571e+01	(2.50000000e-01 -5.00000000e-02 5.00000000e-02)	0.00000000e+00	(1.00000000e+01 -4.50000000e-01 5.00000000e-02)
0.15            	U               	(8.59471666e-01 3.16109390e-02 0.00000000e+00)	(5.00000000e-02 -4.50000000e-01 5.00000000e-02)	(8.59471666e-01 3.16109390e-02 0.00000000e+00)	(5.00000000e-02 -4.50000000e-01 5.00000000e-02)
0.15            	p               	0.00000000e+00	(1.00000000e+01 -4.50000000e-01 5.00000000e-02)	1.13226662e+01	(5.00000000e-02 -4.50000000e-01 5.00000000e-02)
0.2             	U               	(8.88334920e-01 3.44507162e-02 0.00000000e+00)	(5.00000000e-02 -4.50000000e-01 5.00000000e-02)	(8.88334920e-01 3.44507162e-02 0.00000000e+00)	(5.00000000e-02 -4.50000000e-01 5.00000000e-02)
0.2             	p               	0.00000000e+00	(1.00000000e+01 -4.50000000e-01 5.00000000e-02)	1.86825986e+00	(5.00000000e-02 4.50000000e-01 5.00000000e-02)
0.25            	U               	(9.04533482e-01 3.59629342e-02 0.00000000e+00)	(5.00000000e-02 -4.50000000e-01 5.00000000e-02)	(9.04533482e-01 3.59629342e-02 0.00000000e+00)	(5.00000000e-02 -4.50000000e-01 5.00000000e-02)
0.25            	p               	0.00000000e+00	(1.00000000e+01 -4.50000000e-01 5.00000000e-02)	3.34670420e+00	(5.00000000e-02 -4.50000000e-01 5.00000000e-02)
0.3             	U               	(9.13455663e-01 3.66545351e-02 0.00000000e+00)	(5.00000000e-02 -4.50000000e-01 5.00000000e-02)	(9.13455663e-01 3.66545351e-02 0.00000000e+00)	(5.00000000e-02 -4.50000000e-01 5.00000000e-02)
0.3             	p               	0.00000000e+00	(1.00000000e+01 -4.50000000e-01 5.00000000e-02)	2.89533094e+00	(5.00000000e-02 4.50000000e-01 5.00000000e-02)
0.35            	U               	(9.18202428e-01 3.68793752e-02 0.00000000e+00)	(5.00000000e-02 -4.50000000e-01 5.00000000e-02)	(9.18202428e-01 3.68793752e-02 0.00000000e+00)	(5.00000000e-02 -4.50000000e-01 5.00000000e-02)
0.35            	p               	0.00000000e+00	(1.00000000e+01 -4.50000000e-01 5.00000000e-02)	2.81975936e+00	(5.00000000e-02 -4.50000000e-01 5.00000000e-02)
0.4             	U               	(9.20477783e-01 3.68628430e-02 0.00000000e+00)	(5.00000000e-02 -4.50000000e-01 5.00000000e-02)	(9.20477783e-01 3.68628430e-02 0.00000000e+00)	(5.00000000e-02 -4.50000000e-01 5.00000000e-02)
0.4             	p               	0.00000000e+00	(1.00000000e+01 -4.50000000e-01 5.00000000e-02)	2.69745275e+00	(5.00000000e-02 4.50000000e-01 5.00000000e-02)
0.45            	U               	(9.21340075e-01 3.67330607e-02 0.00000000e+00)	(5.00000000e-02 -4.50000000e-01 5.00000000e-02)	(9.21340075e-01 3.67330607e-02 0.00000000e+00)	(5.00000000e-02 -4.50000000e-01 5.00000000e-02)
0.45            	p               	0.00000000e+00	(1.00000000e+01 -4.50000000e-01 5.00000000e-02)	2.60108440e+00	(5.00000000e-02 4.50000000e-01 5.00000000e-02)
0.5             	U               	(9.21443891e-01 3.65615957e-02 0.00000000e+00)	(5.00000000e-02 -4.50000000e-01 5.00000000e-02)	(9.21443891e-01 3.65615957e-02 0.00000000e+00)	(5.00000000e-02 -4.50000000e-01 5.00000000e-02)
0.5             	p               	0.00000000e+00	(1.00000000e+01 -4.50000000e-01 5.00000000e-02)	2.51481942e+00	(5.00000000e-02 4.50000000e-01 5.00000000e-02)
0.55            	U               	(9.21179940e-01 3.63874080e-02 0.00000000e+00)	(5.00000000e-02 -4.50000000e-01 5.00000000e-02)	(9.21179940e-01 3.63874080e-02 0.00000000e+00)	(5.00000000e-02 -4.50000000e-01 5.00000000e-02)
0.55            	p               	0.00000000e+00	(1.00000000e+01 -4.50000000e-01 5.00000000e-02)	2.43917297e+00	(5.00000000e-02 4.50000000e-01 5.00000000e-02)
0.6             	U               	(9.20773414e-01 3.62300049e-02 0.00000000e+00)	(5.00000000e-02 -4.50000000e-01 5.00000000e-02)	(9.20773414e-01 3.62300049e-02 0.00000000e+00)	(5.00000000e-02 -4.50000000e-01 5.00000000e-02)
0.6             	p               	0.00000000e+00	(1.00000000e+01 -4.50000000e-01 5.00000000e-02)	2.37218953e+00	(5.00000000e-02 4.50000000e-01 5.00000000e-02)
0.65            	U               	(9.20347147e-01 3.60975845e-02 0.00000000e+00)	(5.00000000e-02 -4.50000000e-01 5.00000000e-02)	(9.20347147e-01 3.60975845e-02 0.00000000e+00)	(5.00000000e-02 -4.50000000e-01 5.00000000e-02)
0.65            	p               	0.00000000e+00	(1.00000000e+01 -4.50000000e-01 5.00000000e-02)	2.31269203e+00	(5.00000000e-02 4.50000000e-01 5.00000000e-02)
0.7             	U               	(9.19961786e-01 3.59920325e-02 0.00000000e+00)	(5.00000000e-02 -4.50000000e-01 5.00000000e-02)	(9.19961786e-01 3.59920325e-02 0.00000000e+00)	(5.00000000e-02 -4.50000000e-01 5.00000000e-02)
0.7             	p               	0.00000000e+00	(1.00000000e+01 -4.50000000e-01 5.00000000e-02)	2.25962959e+00	(5.00000000e-02 4.50000000e-01 5.00000000e-02)
0.75            	U               	(9.19641564e-01 3.59118851e-02 0.00000000e+00)	(5.00000000e-02 -4.50000000e-01 5.00000000e-02)	(9.19641564e-01 3.59118851e-02 0.00000000e+00)	(5.00000000e-02 -4.50000000e-01 5.00000000e-02)
0.75            	p               	0.00000000e+00	(1.00000000e+01 -4.50000000e-01 5.00000000e-02)	2.21213995e+00	(5.00000000e-02 4.50000000e-01 5.00000000e-02)
0.8             	U               	(9.19390615e-01 3.58540549e-02 0.00000000e+00)	(5.00000000e-02 -4.50000000e-01 5.00000000e-02)	(9.19390615e-01 3.58540549e-02 0.00000000e+00)	(5.00000000e-02 -4.50000000e-01 5.00000000e-02)
0.8             	p               	0.00000000e+00	(1.00000000e+01 -4.50000000e-01 5.00000000e-02)	2.16949769e+00	(5.00000000e-02 4.50000000e-01 5.00000000e-02)
0.85            	U               	(9.19203002e-01 3.58148244e-02 0.00000000e+00)	(5.00000000e-02 -4.50000000e-01 5.00000000e-02)	(9.19203002e-01 3.58148244e-02 0.00000000e+00)	(5.00000000e-02 -4.50000000e-01 5.00000000e-02)
0.85            	p               	0.00000000e+00	(1.00000000e+01 -4.50000000e-01 5.00000000e-02)	2.13109299e+00	(5.00000000e-02 4.50000000e-01 5.00000000e-02)
0.9             	U               	(9.19068638e-01 3.57904380e-02 0.00000000e+00)	(5.00000000e-02 -4.50000000e-01 5.00000000e-02)	(9.19068638e-01 3.57904380e-02 0.00000000e+00)	(5.00000000e-02 -4.50000000e-01 5.00000000e-02)
0.9             	p               	0.00000000e+00	(1.00000000e+01 -4.50000000e-01 5.00000000e-02)	2.09640545e+00	(5.00000000e-02 -4.50000000e-01 5.00000000e-02)
0.95            	U               	(9.18976594e-01 3.57774056e-02 0.00000000e+00)	(5.00000000e-02 -4.50000000e-01 5.00000000e-02)	(9.18976594e-01 3.57774056e-02 0.00000000e+00)	(5.00000000e-02 -4.50000000e-01 5.00000000e-02)
0.95            	p               	0.00000000e+00	(1.00000000e+01 -4.50000000e-01 5.00000000e-02)	2.06499195e+00	(5.00000000e-02 4.50000000e-01 5.00000000e-02)
1               	U               	(9.18916874e-01 3.57726486e-02 0.00000000e+00)	(5.00000000e-02 -4.50000000e-01 5.00000000e-02)	(9.18916874e-01 3.57726486e-02 0.00000000e+00)	(5.00000000e-02 -4.50000000e-01 5.00000000e-02)
1               	p               	0.00000000e+00	(1.00000000e+01 -4.50000000e-01 5.00000000e-02)	2.03649467e+00	(5.00000000e-02 4.50000000e-01 5.00000000e-02)
1.05            	U               	(9.18880662e-01 3.57735897e-02 0.00000000e+00)	(5.00000000e-02 -4.50000000e-01 5.00000000e-02)	(9.18880662e-01 3.57735897e-02 0.00000000e+00)	(5.00000000e-02 -4.50000000e-01 5.00000000e-02)
1.05            	p               	0.00000000e+00	(1.00000000e+01 -4.50000000e-01 5.00000000e-02)	2.01051550e+00	(5.00000000e-02 -4.50000000e-01 5.00000000e-02)
1.1             	U               	(9.18861319e-01 3.57781151e-02 0.00000000e+00)	(5.00000000e-02 -4.50000000e-01 5.00000000e-02)	(9.18861319e-01 3.57781151e-02 0.00000000e+00)	(5.00000000e-02 -4.50000000e-01 5.00000000e-02)
1.1             	p               	0.00000000e+00	(1.00000000e+01 -4.50000000e-01 5.00000000e-02)	1.98685359e+00	(5.00000000e-02 4.50000000e-01 5.00000000e-02)
1.15            	U               	(9.18853510e-01 3.57845919e-02 0.00000000e+00)	(5.00000000e-02 -4.50000000e-01 5.00000000e-02)	(9.18853510e-01 3.57845919e-02 0.00000000e+00)	(5.00000000e-02 -4.50000000e-01 5.00000000e-02)
1.15            	p               	0.00000000e+00	(1.00000000e+01 -4.50000000e-01 5.00000000e-02)	1.96522609e+00	(5.00000000e-02 4.50000000e-01 5.00000000e-02)
1.2             	U               	(9.18853230e-01 3.57918065e-02 0.00000000e+00)	(5.00000000e-02 -4.50000000e-01 5.00000000e-02)	(9.18853230e-01 3.57918065e-02 0.00000000e+00)	(5.00000000e-02 -4.50000000e-01 5.00000000e-02)
1.2             	p               	0.00000000e+00	(1.00000000e+01 -4.50000000e-01 5.00000000e-02)	1.94542534e+00	(5.00000000e-02 4.50000000e-01 5.00000000e-02)
1.25            	U               	(9.18857549e-01 3.57989103e-02 0.00000000e+00)	(5.00000000e-02 -4.50000000e-01 5.00000000e-02)	(9.18857549e-01 3.57989103e-02 0.00000000e+00)	(5.00000000e-02 -4.50000000e-01 5.00000000e-02)
1.25            	p               	0.00000000e+00	(1.00000000e+01 -4.50000000e-01 5.00000000e-02)	1.92726229e+00	(5.00000000e-02 4.50000000e-01 5.00000000e-02)
1.3             	U               	(9.18864366e-01 3.58053592e-02 0.00000000e+00)	(5.00000000e-02 -4.50000000e-01 5.00000000e-02)	(9.18864366e-01 3.58053592e-02 0.00000000e+00)	(5.00000000e-02 -4.50000000e-01 5.00000000e-02)
1.3             	p               	0.00000000e+00	(1.00000000e+01 -4.50000000e-01 5.00000000e-02)	1.91057221e+00	(5.00000000e-02 4.50000000e-01 5.00000000e-02)
1.35            	U               	(9.18872214e-01 3.58108515e-02 0.00000000e+00)	(5.00000000e-02 -4.50000000e-01 5.00000000e-02)	(9.18872214e-01 3.58108515e-02 0.00000000e+00)	(5.00000000e-02 -4.50000000e-01 5.00000000e-02)
1.35            	p               	0.00000000e+00	(1.00000000e+01 -4.50000000e-01 5.00000000e-02)	1.89520951e+00	(5.00000000e-02 4.50000000e-01 5.00000000e-02)
1.4             	U               	(9.18880106e-01 3.58152683e-02 0.00000000e+00)	(5.00000000e-02 -4.50000000e-01 5.00000000e-02)	(9.18880106e-01 3.58152683e-02 0.00000000e+00)	(5.00000000e-02 -4.50000000e-01 5.00000000e-02)
1.4             	p               	0.00000000e+00	(1.00000000e+01 -4.50000000e-01 5.00000000e-02)	1.88104526e+00	(5.00000000e-02 4.50000000e-01 5.00000000e-02)
1.45            	U               	(9.18887417e-01 3.58186210e-02 0.00000000e+00)	(5.00000000e-02 -4.50000000e-01 5.00000000e-02)	(9.18887417e-01 3.58186210e-02 0.00000000e+00)	(5.00000000e-02 -4.50000000e-01 5.00000000e-02)
1.45            	p               	0.00000000e+00	(1.00000000e+01 -4.50000000e-01 5.00000000e-02)	1.86796560e+00	(5.00000000e-02 4.50000000e-01 5.00000000e-02)
1.5             	U               	(9.18893786e-01 3.58210050e-02 0.00000000e+00)	(5.00000000e-02 -4.50000000e-01 5.00000000e-02)	(9.18893786e-01 3.58210050e-02 0.00000000e+00)	(5.00000000e-02 -4.50000000e-01 5.00000000e-02)
1.5             	p               	0.00000000e+00	(1.00000000e+01 -4.50000000e-01 5.00000000e-02)	1.85586915e+00	(5.00000000e-02 4.50000000e-01 5.00000000e-02)
1.55            	U               	(9.18899049e-01 3.58225639e-02 0.00000000e+00)	(5.00000000e-02 -4.50000000e-01 5.00000000e-02)	(9.18899049e-01 3.58225639e-02 0.00000000e+00)	(5.00000000e-02 -4.50000000e-01 5.00000000e-02)
1.55            	p               	0.00000000e+00	(1.00000000e+01 -4.50000000e-01 5.00000000e-02)	1.84466563e+00	(5.00000000e-02 4.50000000e-01 5.00000000e-02)
1.6             	U               	(9.18903181e-01 3.58234606e-02 0.00000000e+00)	(5.00000000e-02 -4.50000000e-01 5.00000000e-02)	(9.18903181e-01 3.58234606e-02 0.00000000e+00)	(5.00000000e-02 -4.50000000e-01 5.00000000e-02)
1.6             	p               	0.00000000e+00	(1.00000000e+01 -4.50000000e-01 5.00000000e-02)	1.83427486e+00	(5.00000000e-02 4.50000000e-01 5.00000000e-02)
1.65            	U               	(9.18906292e-01 3.58238502e-02 0.00000000e+00)	(5.00000000e-02 -4.50000000e-01 5.00000000e-02)	(9.18906292e-01 3.58238502e-02 0.00000000e+00)	(5.00000000e-02 -4.50000000e-01 5.00000000e-02)
1.65            	p               	0.00000000e+00	(1.00000000e+01 -4.50000000e-01 5.00000000e-02)	1.82463275e+00	(5.00000000e-02 4.50000000e-01 5.00000000e-02)
1.7             	U               	(9.18908385e-01 3.58238974e-02 0.00000000e+00)	(5.00000000e-02 -4.50000000e-01 5.00000000e-02)	(9.18908385e-01 3.58238974e-02 0.00000000e+00)	(5.00000000e-02 -4.50000000e-01 5.00000000e-02)
1.7             	p               	0.00000000e+00	(1.00000000e+01 -4.50000000e-01 5.00000000e-02)	1.81564964e+00	(5.00000000e-02 4.50000000e-01 5.00000000e-02)
1.75            	U               	(9.18909725e-01 3.58237157e-02 0.00000000e+00)	(5.00000000e-02 -4.50000000e-01 5.00000000e-02)	(9.18909725e-01 3.58237157e-02 0.00000000e+00)	(5.00000000e-02 -4.50000000e-01 5.00000000e-02)
1.75            	p               	0.00000000e+00	(1.00000000e+01 -4.50000000e-01 5.00000000e-02)	1.80729728e+00	(5.00000000e-02 4.50000000e-01 5.00000000e-02)
1.8             	U               	(9.18910459e-01 3.58234085e-02 0.00000000e+00)	(5.00000000e-02 -4.50000000e-01 5.00000000e-02)	(9.18910459e-01 3.58234085e-02 0.00000000e+00)	(5.00000000e-02 -4.50000000e-01 5.00000000e-02)
1.8             	p               	0.00000000e+00	(1.00000000e+01 -4.50000000e-01 5.00000000e-02)	1.79950959e+00	(5.00000000e-02 4.50000000e-01 5.00000000e-02)
1.85            	U               	(9.18910742e-01 3.58230517e-02 0.00000000e+00)	(5.00000000e-02 -4.50000000e-01 5.00000000e-02)	(9.18910742e-01 3.58230517e-02 0.00000000e+00)	(5.00000000e-02 -4.50000000e-01 5.00000000e-02)
1.85            	p               	0.00000000e+00	(1.00000000e+01 -4.50000000e-01 5.00000000e-02)	1.79224296e+00	(5.00000000e-02 4.50000000e-01 5.00000000e-02)
1.9             	U               	(9.18910713e-01 3.58226982e-02 0.00000000e+00)	(5.00000000e-02 -4.50000000e-01 5.00000000e-02)	(9.18910713e-01 3.58226982e-02 0.00000000e+00)	(5.00000000e-02 -4.50000000e-01 5.00000000e-02)
1.9             	p               	0.00000000e+00	(1.00000000e+01 -4.50000000e-01 5.00000000e-02)	1.78545505e+00	(5.00000000e-02 4.50000000e-01 5.00000000e-02)
1.95            	U               	(9.18910488e-01 3.58223814e-02 0.00000000e+00)	(5.00000000e-02 -4.50000000e-01 5.00000000e-02)	(9.18910488e-01 3.58223814e-02 0.00000000e+00)	(5.00000000e-02 -4.50000000e-01 5.00000000e-02)
1.95            	p               	0.00000000e+00	(1.00000000e+01 -4.50000000e-01 5.00000000e-02)	1.77910789e+00	(5.00000000e-02 4.50000000e-01 5.00000000e-02)
2               	U               	(9.18910160e-01 3.58221191e-02 0.00000000e+00)	(5.00000000e-02 -4.50000000e-01 5.00000000e-02)	(9.18910160e-01 3.58221191e-02 0.00000000e+00)	(5.00000000e-02 -4.50000000e-01 5.00000000e-02)
2               	p               	0.00000000e+00	(1.00000000e+01 -4.50000000e-01 5.00000000e-02)	1.77316732e+00	(5.00000000e-02 4.50000000e-01 5.00000000e-02)
2.05            	U               	(9.18909797e-01 3.58219176e-02 0.00000000e+00)	(5.00000000e-02 -4.50000000e-01 5.00000000e-02)	(9.18909797e-01 3.58219176e-02 0.00000000e+00)	(5.00000000e-02 -4.50000000e-01 5.00000000e-02)
2.05            	p               	0.00000000e+00	(1.00000000e+01 -4.50000000e-01 5.00000000e-02)	1.76760233e+00	(5.00000000e-02 -4.50000000e-01 5.00000000e-02)
2.1             	U               	(9.18909446e-01 3.58217752e-02 0.00000000e+00)	(5.00000000e-02 -4.50000000e-01 5.00000000e-02)	(9.18909446e-01 3.58217752e-02 0.00000000e+00)	(5.00000000e-02 -4.50000000e-01 5.00000000e-02)
2.1             	p               	0.00000000e+00	(1.00000000e+01 -4.50000000e-01 5.00000000e-02)	1.76238473e+00	(5.00000000e-02 -4.50000000e-01 5.00000000e-02)
2.15            	U               	(9.18909134e-01 3.58216850e-02 0.00000000e+00)	(5.00000000e-02 -4.50000000e-01 5.00000000e-02)	(9.18909134e-01 3.58216850e-02 0.00000000e+00)	(5.00000000e-02 -4.50000000e-01 5.00000000e-02)
2.15            	p               	0.00000000e+00	(1.00000000e+01 -4.50000000e-01 5.00000000e-02)	1.75748890e+00	(5.00000000e-02 -4.50000000e-01 5.00000000e-02)
2.2             	U               	(9.18908876e-01 3.58216380e-02 0.00000000e+00)	(5.00000000e-02 -4.50000000e-01 5.00000000e-02)	(9.18908876e-01 3.58216380e-02 0.00000000e+00)	(5.00000000e-02 -4.50000000e-01 5.00000000e-02)
2.2             	p               	0.00000000e+00	(1.00000000e+01 -4.50000000e-01 5.00000000e-02)	1.75289161e+00	(5.00000000e-02 -4.50000000e-01 5.00000000e-02)
2.25            	U               	(9.18908675e-01 3.58216242e-02 0.00000000e+00)	(5.00000000e-02 -4.50000000e-01 5.00000000e-02)	(9.18908675e-01 3.58216242e-02 0.00000000e+00)	(5.00000000e-02 -4.50000000e-01 5.00000000e-02)
2.25            	p               	0.00000000e+00	(1.00000000e+01 -4.50000000e-01 5.00000000e-02)	1.74857130e+00	(5.00000000e-02 -4.50000000e-01 5.00000000e-02)
2.3             	U               	(9.18908528e-01 3.58216340e-02 0.00000000e+00)	(5.00000000e-02 -4.50000000e-01 5.00000000e-02)	(9.18908528e-01 3.58216340e-02 0.00000000e+00)	(5.00000000e-02 -4.50000000e-01 5.00000000e-02)
2.3             	p               	0.00000000e+00	(1.00000000e+01 -4.50000000e-01 5.00000000e-02)	1.74450890e+00	(5.00000000e-02 -4.50000000e-01 5.00000000e-02)
2.35            	U               	(9.18908429e-01 3.58216591e-02 0.00000000e+00)	(5.00000000e-02 -4.50000000e-01 5.00000000e-02)	(9.18908429e-01 3.58216591e-02 0.00000000e+00)	(5.00000000e-02 -4.50000000e-01 5.00000000e-02)
2.35            	p               	0.00000000e+00	(1.00000000e+01 -4.50000000e-01 5.00000000e-02)	1.74068644e+00	(5.00000000e-02 -4.50000000e-01 5.00000000e-02)
2.4             	U               	(9.18908368e-01 3.58216927e-02 0.00000000e+00)	(5.00000000e-02 -4.50000000e-01 5.00000000e-02)	(9.18908368e-01 3.58216927e-02 0.00000000e+00)	(5.00000000e-02 -4.50000000e-01 5.00000000e-02)
2.4             	p               	0.00000000e+00	(1.00000000e+01 -4.50000000e-01 5.00000000e-02)	1.73708760e+00	(5.00000000e-02 -4.50000000e-01 5.00000000e-02)
2.45            	U               	(9.18908335e-01 3.58217294e-02 0.00000000e+00)	(5.00000000e-02 -4.50000000e-01 5.00000000e-02)	(9.18908335e-01 3.58217294e-02 0.00000000e+00)	(5.00000000e-02 -4.50000000e-01 5.00000000e-02)
2.45            	p               	0.00000000e+00	(1.00000000e+01 -4.50000000e-01 5.00000000e-02)	1.73369741e+00	(5.00000000e-02 -4.50000000e-01 5.00000000e-02)
2.5             	U               	(9.18908323e-01 3.58217657e-02 0.00000000e+00)	(5.00000000e-02 -4.50000000e-01 5.00000000e-02)	(9.18908323e-01 3.58217657e-02 0.00000000e+00)	(5.00000000e-02 -4.50000000e-01 5.00000000e-02)
2.5             	p               	0.00000000e+00	(1.00000000e+01 -4.50000000e-01 5.00000000e-02)	1.73050210e+00	(5.00000000e-02 -4.50000000e-01 5.00000000e-02)
2.55            	U               	(9.18908323e-01 3.58217991e-02 0.00000000e+00)	(5.00000000e-02 -4.50000000e-01 5.00000000e-02)	(9.18908323e-01 3.58217991e-02 0.00000000e+00)	(5.00000000e-02 -4.50000000e-01 5.00000000e-02)
2.55            	p               	0.00000000e+00	(1.00000000e+01 -4.50000000e-01 5.00000000e-02)	1.72748898e+00	(5.00000000e-02 -4.50000000e-01 5.00000000e-02)
2.6             	U               	(9.18908332e-01 3.58218282e-02 0.00000000e+00)	(5.00000000e-02 -4.50000000e-01 5.00000000e-02)	(9.18908332e-01 3.58218282e-02 0.00000000e+00)	(5.00000000e-02 -4.50000000e-01 5.00000000e-02)
2.6             	p               	0.00000000e+00	(1.00000000e+01 -4.50000000e-01 5.00000000e-02)	1.72464635e+00	(5.00000000e-02 -4.50000000e-01 5.00000000e-02)
2.65            	U               	(9.18908344e-01 3.58218525e-02 0.00000000e+00)	(5.00000000e-02 -4.50000000e-01 5.00000000e-02)	(9.18908344e-01 3.58218525e-02 0.00000000e+00)	(5.00000000e-02 -4.50000000e-01 5.00000000e-02)
2.65            	p               	0.00000000e+00	(1.00000000e+01 -4.50000000e-01 5.00000000e-02)	1.72196340e+00	(5.00000000e-02 -4.50000000e-01 5.00000000e-02)
2.7             	U               	(9.18908356e-01 3.58218720e-02 0.00000000e+00)	(5.00000000e-02 -4.50000000e-01 5.00000000e-02)	(9.18908356e-01 3.58218720e-02 0.00000000e+00)	(5.00000000e-02 -4.50000000e-01 5.00000000e-02)
2.7             	p               	0.00000000e+00	(1.00000000e+01 -4.50000000e-01 5.00000000e-02)	1.71943015e+00	(5.00000000e-02 -4.50000000e-01 5.00000000e-02)
2.75            	U               	(9.18908368e-01 3.58218870e-02 0.00000000e+00)	(5.00000000e-02 -4.50000000e-01 5.00000000e-02)	(9.18908368e-01 3.58218870e-02 0.00000000e+00)	(5.00000000e-02 -4.50000000e-01 5.00000000e-02)
2.75            	p               	0.00000000e+00	(1.00000000e+01 -4.50000000e-01 5.00000000e-02)	1.71703733e+00	(5.00000000e-02 -4.50000000e-01 5.00000000e-02)
2.8             	U               	(9.18908373e-01 3.58219017e-02 0.00000000e+00)	(5.00000000e-02 -4.50000000e-01 5.00000000e-02)	(9.18908373e-01 3.58219017e-02 0.00000000e+00)	(5.00000000e-02 -4.50000000e-01 5.00000000e-02)
2.8             	p               	0.00000000e+00	(1.00000000e+01 -4.50000000e-01 5.00000000e-02)	1.71478872e+00	(5.00000000e-02 -4.50000000e-01 5.00000000e-02)
2.85            	U               	(9.18908385e-01 3.58219083e-02 0.00000000e+00)	(5.00000000e-02 -4.50000000e-01 5.00000000e-02)	(9.18908385e-01 3.58219083e-02 0.00000000e+00)	(5.00000000e-02 -4.50000000e-01 5.00000000e-02)
2.85            	p               	0.00000000e+00	(1.00000000e+01 -4.50000000e-01 5.00000000e-02)	1.71263679e+00	(5.00000000e-02 -4.50000000e-01 5.00000000e-02)
2.9             	U               	(9.18908391e-01 3.58219130e-02 0.00000000e+00)	(5.00000000e-02 -4.50000000e-01 5.00000000e-02)	(9.18908391e-01 3.58219130e-02 0.00000000e+00)	(5.00000000e-02 -4.50000000e-01 5.00000000e-02)
2.9             	p               	0.00000000e+00	(1.00000000e+01 -4.50000000e-01 5.00000000e-02)	1.71061876e+00	(5.00000000e-02 -4.50000000e-01 5.00000000e-02)
2.95            	U               	(9.18908396e-01 3.58219160e-02 0.00000000e+00)	(5.00000000e-02 -4.50000000e-01 5.00000000e-02)	(9.18908396e-01 3.58219160e-02 0.00000000e+00)	(5.00000000e-02 -4.50000000e-01 5.00000000e-02)
2.95            	p               	0.00000000e+00	(1.00000000e+01 -4.50000000e-01 5.00000000e-02)	1.70870747e+00	(5.00000000e-02 -4.50000000e-01 5.00000000e-02)
3               	U               	(9.18908398e-01 3.58219176e-02 0.00000000e+00)	(5.00000000e-02 -4.50000000e-01 5.00000000e-02)	(9.18908398e-01 3.58219176e-02 0.00000000e+00)	(5.00000000e-02 -4.50000000e-01 5.00000000e-02)
3               	p               	0.00000000e+00	(1.00000000e+01 -4.50000000e-01 5.00000000e-02)	1.70689983e+00	(5.00000000e-02 -4.50000000e-01 5.00000000e-02)
3.05            	U               	(9.18908400e-01 3.58219182e-02 0.00000000e+00)	(5.00000000e-02 -4.50000000e-01 5.00000000e-02)	(9.18908400e-01 3.58219182e-02 0.00000000e+00)	(5.00000000e-02 -4.50000000e-01 5.00000000e-02)
3.05            	p               	0.00000000e+00	(1.00000000e+01 -4.50000000e-01 5.00000000e-02)	1.70518934e+00	(5.00000000e-02 -4.50000000e-01 5.00000000e-02)
3.1             	U               	(9.18908400e-01 3.58219182e-02 0.00000000e+00)	(5.00000000e-02 -4.50000000e-01 5.00000000e-02)	(9.18908400e-01 3.58219182e-02 0.00000000e+00)	(5.00000000e-02 -4.50000000e-01 5.00000000e-02)
3.1             	p               	0.00000000e+00	(1.00000000e+01 -4.50000000e-01 5.00000000e-02)	1.70357050e+00	(5.00000000e-02 -4.50000000e-01 5.00000000e-02)
3.15            	U               	(9.18908399e-01 3.58219177e-02 0.00000000e+00)	(5.00000000e-02 -4.50000000e-01 5.00000000e-02)	(9.18908399e-01 3.58219177e-02 0.00000000e+00)	(5.00000000e-02 -4.50000000e-01 5.00000000e-02)
3.15            	p               	0.00000000e+00	(1.00000000e+01 -4.50000000e-01 5.00000000e-02)	1.70203809e+00	(5.00000000e-02 -4.50000000e-01 5.00000000e-02)
3.2             	U               	(9.18908399e-01 3.58219172e-02 0.00000000e+00)	(5.00000000e-02 -4.50000000e-01 5.00000000e-02)	(9.18908399e-01 3.58219172e-02 0.00000000e+00)	(5.00000000e-02 -4.50000000e-01 5.00000000e-02)
3.2             	p               	0.00000000e+00	(1.00000000e+01 -4.50000000e-01 5.00000000e-02)	1.70058728e+00	(5.00000000e-02 -4.50000000e-01 5.00000000e-02)
3.25            	U               	(9.18908398e-01 3.58219164e-02 0.00000000e+00)	(5.00000000e-02 -4.50000000e-01 5.00000000e-02)	(9.18908398e-01 3.58219164e-02 0.00000000e+00)	(5.00000000e-02 -4.50000000e-01 5.00000000e-02)
3.25            	p               	0.00000000e+00	(1.00000000e+01 -4.50000000e-01 5.00000000e-02)	1.69921343e+00	(5.00000000e-02 -4.50000000e-01 5.00000000e-02)
3.3             	U               	(9.18908397e-01 3.58219157e-02 0.00000000e+00)	(5.00000000e-02 -4.50000000e-01 5.00000000e-02)	(9.18908397e-01 3.58219157e-02 0.00000000e+00)	(5.00000000e-02 -4.50000000e-01 5.00000000e-02)
3.3             	p               	0.00000000e+00	(1.00000000e+01 -4.50000000e-01 5.00000000e-02)	1.69791232e+00	(5.00000000e-02 -4.50000000e-01 5.00000000e-02)
3.35            	U               	(9.18908396e-01 3.58219151e-02 0.00000000e+00)	(5.00000000e-02 -4.50000000e-01 5.00000000e-02)	(9.18908396e-01 3.58219151e-02 0.00000000e+00)	(5.00000000e-02 -4.50000000e-01 5.00000000e-02)
3.35            	p               	0.00000000e+00	(1.00000000e+01 -4.50000000e-01 5.00000000e-02)	1.69667993e+00	(5.00000000e-02 -4.50000000e-01 5.00000000e-02)
3.4             	U               	(9.18908396e-01 3.58219145e-02 0.00000000e+00)	(5.00000000e-02 -4.50000000e-01 5.00000000e-02)	(9.18908396e-01 3.58219145e-02 0.00000000e+00)	(5.00000000e-02 -4.50000000e-01 5.00000000e-02)
3.4             	p               	0.00000000e+00	(1.00000000e+01 -4.50000000e-01 5.00000000e-02)	1.69551248e+00	(5.00000000e-02 -4.50000000e-01 5.00000000e-02)
3.45            	U               	(9.18908395e-01 3.58219140e-02 0.00000000e+00)	(5.00000000e-02 -4.50000000e-01 5.00000000e-02)	(9.18908395e-01 3.58219140e-02 0.00000000e+00)	(5.00000000e-02 -4.50000000e-01 5.00000000e-02)
3.45            	p               	0.00000000e+00	(1.00000000e+01 -4.50000000e-01 5.00000000e-02)	1.69440659e+00	(5.00000000e-02 -4.50000000e-01 5.00000000e-02)
3.5             	U               	(9.18908394e-01 3.58219136e-02 0.00000000e+00)	(5.00000000e-02 -4.50000000e-01 5.00000000e-02)	(9.18908394e-01 3.58219136e-02 0.00000000e+00)	(5.00000000e-02 -4.50000000e-01 5.00000000e-02)
3.5             	p               	0.00000000e+00	(1.00000000e+01 -4.50000000e-01 5.00000000e-02)	1.69335860e+00	(5.00000000e-02 -4.50000000e-01 5.00000000e-02)
3.55            	U               	(9.18908394e-01 3.58219133e-02 0.00000000e+00)	(5.00000000e-02 -4.50000000e-01 5.00000000e-02)	(9.18908394e-01 3.58219133e-02 0.00000000e+00)	(5.00000000e-02 -4.50000000e-01 5.00000000e-02)
3.55            	p               	0.00000000e+00	(1.00000000e+01 -4.50000000e-01 5.00000000e-02)	1.69236582e+00	(5.00000000e-02 -4.50000000e-01 5.00000000e-02)
3.6             	U               	(9.18908393e-01 3.58219131e-02 0.00000000e+00)	(5.00000000e-02 -4.50000000e-01 5.00000000e-02)	(9.18908393e-01 3.58219131e-02 0.00000000e+00)	(5.00000000e-02 -4.50000000e-01 5.00000000e-02)
3.6             	p               	0.00000000e+00	(1.00000000e+01 -4.50000000e-01 5.00000000e-02)	1.69142494e+00	(5.00000000e-02 -4.50000000e-01 5.00000000e-02)
3.65            	U               	(9.18908393e-01 3.58219129e-02 0.00000000e+00)	(5.00000000e-02 -4.50000000e-01 5.00000000e-02)	(9.18908393e-01 3.58219129e-02 0.00000000e+00)	(5.00000000e-02 -4.50000000e-01 5.00000000e-02)
3.65            	p               	0.00000000e+00	(1.00000000e+01 -4.50000000e-01 5.00000000e-02)	1.69053349e+00	(5.00000000e-02 -4.50000000e-01 5.00000000e-02)
3.7             	U               	(9.18908393e-01 3.58219128e-02 0.00000000e+00)	(5.00000000e-02 -4.50000000e-01 5.00000000e-02)	(9.18908393e-01 3.58219128e-02 0.00000000e+00)	(5.00000000e-02 -4.50000000e-01 5.00000000e-02)
3.7             	p               	0.00000000e+00	(1.00000000e+01 -4.50000000e-01 5.00000000e-02)	1.68968868e+00	(5.00000000e-02 -4.50000000e-01 5.00000000e-02)
3.75            	U               	(9.18908392e-01 3.58219127e-02 0.00000000e+00)	(5.00000000e-02 -4.50000000e-01 5.00000000e-02)	(9.18908392e-01 3.58219127e-02 0.00000000e+00)	(5.00000000e-02 -4.50000000e-01 5.00000000e-02)
3.75            	p               	0.00000000e+00	(1.00000000e+01 -4.50000000e-01 5.00000000e-02)	1.68888813e+00	(5.00000000e-02 -4.50000000e-01 5.00000000e-02)
3.8             	U               	(9.18908392e-01 3.58219127e-02 0.00000000e+00)	(5.00000000e-02 -4.50000000e-01 5.00000000e-02)	(9.18908392e-01 3.58219127e-02 0.00000000e+00)	(5.00000000e-02 -4.50000000e-01 5.00000000e-02)
3.8             	p               	0.00000000e+00	(1.00000000e+01 -4.50000000e-01 5.00000000e-02)	1.68812951e+00	(5.00000000e-02 -4.50000000e-01 5.00000000e-02)
3.85            	U               	(9.18908392e-01 3.58219126e-02 0.00000000e+00)	(5.00000000e-02 -4.50000000e-01 5.00000000e-02)	(9.18908392e-01 3.58219126e-02 0.00000000e+00)	(5.00000000e-02 -4.50000000e-01 5.00000000e-02)
3.85            	p               	0.00000000e+00	(1.00000000e+01 -4.50000000e-01 5.00000000e-02)	1.68741064e+00	(5.00000000e-02 -4.50000000e-01 5.00000000e-02)
3.9             	U               	(9.18908392e-01 3.58219126e-02 0.00000000e+00)	(5.00000000e-02 -4.50000000e-01 5.00000000e-02)	(9.18908392e-01 3.58219126e-02 0.00000000e+00)	(5.00000000e-02 -4.50000000e-01 5.00000000e-02)