/*--------------------------------*- C++ -*----------------------------------*\
| =========                 |                                                 |
| \\      /  F ield         | OpenFOAM: The Open Source CFD Toolbox           |
|  \\    /   O peration     | Version:  v1812                                 |
|   \\  /    A nd           | Web:      www.OpenFOAM.com                      |
|    \\/     M anipulation  |                                                 |
\*---------------------------------------------------------------------------*/
FoamFile
{
    version     2.0;
    format      ascii;
    class       surfaceScalarField;
    location    "1";
    object      phi;
}
// * * * * * * * * * * * * * * * * * * * * * * * * * * * * * * * * * * * * * //

dimensions      [0 3 -1 0 0 0 0];
oriented        oriented;


internalField   nonuniform List<scalar> 
1890
(
0.00079034798
3.0128647e-06
0.00078812851
2.2196306e-06
0.00078859373
-4.6545451e-07
0.00078935918
-7.6588596e-07
0.00078954786
-1.8905191e-07
0.00078950807
3.9586414e-08
0.00078941734
9.071808e-08
0.00078932727
9.0158916e-08
0.0007892586
6.8811774e-08
0.00078921521
4.3546747e-08
0.00078918963
2.5729114e-08
0.00078917479
1.4971667e-08
0.00078916633
8.5640208e-09
0.00078916158
4.8326137e-09
0.00078915895
2.6984466e-09
0.00078915749
1.4966929e-09
0.0007891567
8.2443668e-10
0.00078915627
4.5094274e-10
0.00078915604
2.4456577e-10
0.00078915592
1.3203866e-10
0.00078915585
7.0662362e-11
0.00078915582
3.7914002e-11
0.0007891558
2.0050517e-11
0.00078915579
1.0720334e-11
0.00078915579
5.3352636e-12
0.00078915578
2.4105916e-12
0.00078915578
4.899315e-13
0.00078915578
-3.6078263e-13
0.00078915579
-1.0579874e-12
0.00078915579
-1.3057631e-12
0.00078915579
-1.5678887e-12
0.00078915579
-1.3461462e-12
0.00078915579
-1.2265911e-12
0.00078915579
-6.7677912e-13
0.00078915579
-3.5788073e-13
0.00078915579
2.0582456e-13
0.00078915579
6.1000974e-13
0.00078915579
1.0431705e-12
0.00078915579
1.1495497e-12
0.00078915579
1.3138894e-12
0.00078915579
1.1225798e-12
0.00078915578
9.8899577e-13
0.00078915578
5.1593499e-13
0.00078915578
1.3288249e-13
0.00078915578
-4.5600747e-13
0.00078915579
-8.0749789e-13
0.00078915579
-1.3246801e-12
0.00078915579
-1.544653e-12
0.00078915579
-1.8503638e-12
0.00078915579
-1.7718738e-12
0.0007891558
-1.7840961e-12
0.0007891558
-1.4217e-12
0.0007891558
-1.1268626e-12
0.0007891558
-5.4259193e-13
0.0007891558
-5.598963e-14
0.0007891558
5.9273314e-13
0.0007891558
1.0440607e-12
0.00078915579
1.6688783e-12
0.00078915579
1.9472363e-12
0.00078915579
2.3711903e-12
0.00078915579
2.4125953e-12
0.00078915578
2.5571668e-12
0.00078915578
2.2727754e-12
0.00078915578
2.1084249e-12
0.00078915578
1.5701357e-12
0.00078915578
1.182669e-12
0.00078915578
4.6634148e-13
0.00078915578
-1.5366505e-13
0.00078915578
-8.3932022e-13
0.00078915578
-1.3571092e-12
0.00078915578
-2.0802778e-12
0.00078915579
-2.4794618e-12
0.00078915579
-2.9810024e-12
0.00078915579
-3.1394174e-12
0.0007891558
-3.3894104e-12
0.0007891558
-3.2873242e-12
0.0007891558
-3.2245078e-12
0.0007891558
-2.8301141e-12
0.0007891558
-2.5463158e-12
0.00078915581
-1.9351487e-12
0.00078915581
-1.4443989e-12
0.00078915581
-6.868122e-13
0.00078915581
4.2772901e-14
0.0007891558
9.1225809e-13
0.0007891558
1.7267212e-12
0.0007891558
2.6786132e-12
0.0007891558
3.076378e-12
0.00078915579
3.0902128e-12
0.00078915579
1.8019613e-12
0.0007891558
-1.0688301e-12
0.0007891558
-6.5198749e-12
0.00078915582
-1.798136e-11
0.00078915587
-4.561809e-11
0.00078915598
-1.0655386e-10
0.0007891562
-2.2322499e-10
0.0007891568
-5.9658336e-10
0.00078915869
-1.8905851e-09
0.00078916143
-2.7368015e-09
0.00078916032
1.1092406e-09
4.4400346e-09
0.0013229353
2.1598008e-06
0.0013243748
7.801364e-07
0.0013257148
-1.8057915e-06
0.0013266585
-1.7100643e-06
0.0013272315
-7.6243818e-07
0.0013274988
-2.2786551e-07
0.0013276069
-1.7341235e-08
0.0013276417
5.5387367e-08
0.0013276461
6.4634325e-08
0.0013276402
4.9572928e-08
0.0013276329
3.3193906e-08
0.0013276271
2.0964019e-08
0.001327623
1.2758155e-08
0.0013276203
7.5774498e-09
0.0013276187
4.4098341e-09
0.0013276177
2.5350796e-09
0.0013276171
1.4376761e-09
0.0013276168
8.0668996e-10
0.0013276166
4.4779455e-10
0.0013276165
2.4564392e-10
0.0013276164
1.3350893e-10
0.0013276164
7.1645566e-11
0.0013276164
3.8090704e-11
0.0013276164
1.9628558e-11
0.0013276164
9.8552174e-12
0.0013276164
4.3093593e-12
0.0013276164
1.4137863e-12
0.0013276164
-4.1451829e-13
0.0013276164
-1.1118633e-12
0.0013276164
-1.77079e-12
0.0013276164
-1.7237601e-12
0.0013276164
-1.7950315e-12
0.0013276164
-1.2953007e-12
0.0013276164
-1.0042486e-12
0.0013276164
-3.5658467e-13
0.0013276164
7.6103179e-14
0.0013276164
6.5331583e-13
0.0013276164
1.0255402e-12
0.0013276164
1.2800445e-12
0.0013276164
1.2626608e-12
0.0013276164
1.2689311e-12
0.0013276164
9.0843686e-13
0.0013276164
5.8604142e-13
0.0013276164
4.5045232e-14
0.0013276164
-4.7712711e-13
0.0013276164
-1.0012501e-12
0.0013276164
-1.3934623e-12
0.0013276164
-1.8543048e-12
0.0013276164
-1.9094016e-12
0.0013276164
-2.110395e-12
0.0013276164
-1.8402951e-12
0.0013276164
-1.7284566e-12
0.0013276164
-1.1498266e-12
0.0013276164
-7.3122162e-13
0.0013276164
-5.8325378e-14
0.0013276164
5.5692951e-13
0.0013276164
1.2322798e-12
0.0013276164
1.6789375e-12
0.0013276164
2.2986679e-12
0.0013276164
2.4523796e-12
0.0013276164
2.8594678e-12
0.0013276164
2.6900702e-12
0.0013276164
2.7574797e-12
0.0013276164
2.2568758e-12
0.0013276164
2.0180761e-12
0.0013276164
1.301523e-12
0.0013276164
7.5451307e-13
0.0013276164
-2.8773072e-14
0.0013276164
-7.3151681e-13
0.0013276164
-1.5042259e-12
0.0013276164
-2.0434715e-12
0.0013276164
-2.7987195e-12
0.0013276164
-3.0779146e-12
0.0013276164
-3.6047959e-12
0.0013276164
-3.6007494e-12
0.0013276164
-3.8530712e-12
0.0013276164
-3.5071621e-12
0.0013276164
-3.4507221e-12
0.0013276164
-2.8670299e-12
0.0013276164
-2.5831228e-12
0.0013276164
-1.8049681e-12
0.0013276164
-1.2700441e-12
0.0013276164
-4.0592968e-13
0.0013276164
4.3055264e-13
0.0013276164
1.3799927e-12
0.0013276164
1.8620573e-12
0.0013276164
1.9087015e-12
0.0013276164
5.8621841e-13
0.0013276164
-3.0561807e-12
0.0013276164
-1.0673099e-11
0.0013276164
-2.4817925e-11
0.0013276165
-5.3218316e-11
0.0013276165
-1.1183454e-10
0.0013276167
-2.336946e-10
0.0013276169
-4.5826179e-10
0.0013276173
-9.7549152e-10
0.0013276178
-2.3977072e-09
0.0013276184
-3.34684e-09
0.0013276175
2.0112879e-09
6.7672545e-09
0.0014746828
1.0322751e-06
0.0014756321
-1.6894511e-07
0.0014755393
-1.7131283e-06
0.0014753993
-1.5704275e-06
0.0014754673
-8.3073779e-07
0.0014755764
-3.3713751e-07
0.0014756608
-1.0166574e-07
0.0014757188
-2.5729592e-09
0.0014757554
2.826284e-08
0.0014757742
3.0906568e-08
0.0014757836
2.3952299e-08
0.0014757882
1.6518726e-08
0.0014757904
1.0683756e-08
0.0014757914
6.6307149e-09
0.0014757919
4.0020446e-09
0.0014757921
2.3629225e-09
0.0014757922
1.372426e-09
0.0014757922
7.8484861e-10
0.0014757923
4.4241846e-10
0.0014757923
2.4610483e-10
0.0014757923
1.3508941e-10
0.0014757923
7.3162037e-11
0.0014757923
3.8884769e-11
0.0014757923
2.017227e-11
0.0014757923
1.0085089e-11
0.0014757923
4.6317583e-12
0.0014757923
1.5856391e-12
0.0014757923
1.0784432e-13
0.0014757923
-8.4261829e-13
0.0014757923
-1.1056616e-12
0.0014757923
-1.312662e-12
0.0014757923
-1.1166497e-12
0.0014757923
-9.433441e-13
0.0014757923
-5.5312986e-13
0.0014757923
-1.995268e-13
0.0014757923
1.8499007e-13
0.0014757923
5.9437954e-13
0.0014757923
7.5615769e-13
0.0014757923
1.0331369e-12
0.0014757923
9.6052489e-13
0.0014757923
9.4268973e-13
0.0014757923
7.0281681e-13
0.0014757923
4.3626008e-13
0.0014757923
2.8281858e-14
0.0014757923
-2.9742169e-13
0.0014757923
-7.5718998e-13
0.0014757923
-9.642992e-13
0.0014757923
-1.3568448e-12
0.0014757923
-1.4519191e-12
0.0014757923
-1.5225173e-12
0.0014757923
-1.4700589e-12
0.0014757923
-1.2607314e-12
0.0014757923
-9.9290326e-13
0.0014757923
-6.0124549e-13
0.0014757923
-1.3853581e-13
0.0014757923
2.6693256e-13
0.0014757923
8.3119236e-13
0.0014757923
1.1324045e-12
0.0014757923
1.5830303e-12
0.0014757923
1.871784e-12
0.0014757923
2.0110138e-12
0.0014757923
2.1556218e-12
0.0014757923
2.0190021e-12
0.0014757923
1.9341481e-12
0.0014757923
1.577933e-12
0.0014757923
1.2621694e-12
0.0014757923
7.7763814e-13
0.0014757923
2.233256e-13
0.0014757923
-2.272816e-13
0.0014757923
-8.5571933e-13
0.0014757923
-1.3404571e-12
0.0014757923
-1.7822987e-12
0.0014757923
-2.2550296e-12
0.0014757923
-2.4594356e-12
0.0014757923
-2.7837806e-12
0.0014757923
-2.7533246e-12
0.0014757923
-2.8629328e-12
0.0014757923
-2.6205538e-12
0.0014757923
-2.5404141e-12
0.0014757923
-2.1495977e-12
0.0014757923
-1.9022238e-12
0.0014757923
-1.4142553e-12
0.0014757923
-9.7314723e-13
0.0014757923
-4.7075993e-13
0.0014757923
1.2047217e-13
0.0014757923
1.5332484e-13
0.0014757923
-3.050901e-13
0.0014757923
-2.1718891e-12
0.0014757923
-6.7239169e-12
0.0014757923
-1.5302483e-11
0.0014757923
-3.1959141e-11
0.0014757923
-6.3072139e-11
0.0014757923
-1.2372943e-10
0.0014757923
-2.3987961e-10
0.0014757923
-4.4736927e-10
0.0014757922
-8.4389102e-10
0.0014757915
-1.6793038e-09
0.0014757902
-2.0864772e-09
0.001475791
1.2514555e-09
4.5106491e-09
0.0015118496
3.9807128e-07
0.0015119077
-2.2652878e-07
0.0015110953
-9.0090279e-07
0.0015103625
-8.3789944e-07
0.0015100186
-4.872099e-07
0.0015099056
-2.2419179e-07
0.0015098878
-8.3848728e-08
0.0015099038
-1.8499161e-08
0.0015099267
5.5786984e-09
0.0015099455
1.2278002e-08
0.0015099584
1.1170197e-08
0.0015099667
8.3272439e-09
0.0015099719
5.649661e-09
0.001509975
3.6202237e-09
0.0015099768
2.2391747e-09
0.0015099779
1.3452838e-09
0.0015099785
7.9058642e-10
0.0015099789
4.5538656e-10
0.0015099791
2.5825355e-10
0.0015099792
1.434392e-10
0.0015099793
7.8640667e-11
0.0015099793
4.1824797e-11
0.0015099793
2.2118497e-11
0.0015099793
1.0910809e-11
0.0015099793
5.4864365e-12
0.0015099793
2.0485097e-12
0.0015099793
8.5480142e-13
0.0015099793
-3.1570286e-13
0.0015099793
-3.1181419e-13
0.0015099793
-7.4166081e-13
0.0015099793
-4.7428502e-13
0.0015099793
-5.7517194e-13
0.0015099793
-2.1859846e-13
0.0015099793
-1.8458172e-13
0.0015099793
1.8921353e-13
0.0015099793
2.3519001e-13
0.0015099793
5.8322123e-13
0.0015099793
5.5759752e-13
0.0015099793
7.3180014e-13
0.0015099793
6.3850548e-13
0.0015099793
6.9213276e-13
0.0015099793
4.221267e-13
0.0015099793
4.1500864e-13
0.0015099793
1.2031331e-14
0.0015099793
-3.864731e-14
0.0015099793
-4.0848137e-13
0.0015099793
-4.7867486e-13
0.0015099793
-7.2868257e-13
0.0015099793
-7.9394342e-13
0.0015099793
-9.496004e-13
0.0015099793
-8.4079242e-13
0.0015099793
-9.0948595e-13
0.0015099793
-6.1129816e-13
0.0015099793
-5.9435547e-13
0.0015099793
-1.6719824e-13
0.0015099793
-8.1156107e-14
0.0015099793
3.2868538e-13
0.0015099793
4.7350509e-13
0.0015099793
8.0235357e-13
0.0015099793
9.5126855e-13
0.0015099793
1.2307306e-12
0.0015099793
1.1979614e-12
0.0015099793
1.4187752e-12
0.0015099793
1.180992e-12
0.0015099793
1.2922828e-12
0.0015099793
9.0506875e-13
0.0015099793
9.063041e-13
0.0015099793
4.1848698e-13
0.0015099793
2.7710686e-13
0.0015099793
-1.3933205e-13
0.0015099793
-3.9687883e-13
0.0015099793
-8.144897e-13
0.0015099793
-1.0190955e-12
0.0015099793
-1.4024613e-12
0.0015099793
-1.4147561e-12
0.0015099793
-1.7801907e-12
0.0015099793
-1.6249655e-12
0.0015099793
-1.9086129e-12
0.0015099793
-1.6276867e-12
0.0015099793
-1.8419639e-12
0.0015099793
-1.5005107e-12
0.0015099793
-1.626426e-12
0.0015099793
-1.228919e-12
0.0015099793
-1.2552314e-12
0.0015099793
-8.6308546e-13
0.0015099793
-1.0710282e-12
0.0015099793
-1.2302202e-12
0.0015099793
-2.8008243e-12
0.0015099793
-5.2236706e-12
0.0015099793
-1.1313268e-11
0.0015099793
-2.124406e-11
0.0015099793
-4.1246747e-11
0.0015099792
-7.68243e-11
0.0015099791
-1.4384558e-10
0.001509979
-2.572283e-10
0.0015099786
-4.5388915e-10
0.0015099777
-7.9900551e-10
0.0015099765
-9.0772682e-10
0.0015099772
5.446783e-10
2.0438871e-09
0.0015193486
1.4552292e-11
0.0015191226
-3.1961002e-10
0.001518222
-3.4796832e-10
0.0015173843
-5.1247721e-10
0.0015168972
-4.64907e-10
0.0015166732
-3.144354e-10
0.0015165896
-2.4805465e-10
0.0015165714
-1.9229031e-10
0.0015165773
-1.7031904e-10
0.0015165899
-1.4480915e-10
0.0015166014
-1.2203347e-10
0.00151661
-1.0173856e-10
0.0015166159
-8.4638308e-11
0.0015166196
-6.7946062e-11
0.001516622
-5.4713407e-11
0.0015166234
-4.2538742e-11
0.0015166243
-3.364299e-11
0.0015166248
-2.5377761e-11
0.0015166251
-1.9429858e-11
0.0015166253
-1.4088626e-11
0.0015166254
-1.0686844e-11
0.0015166254
-7.4352387e-12
0.0015166255
-5.6686115e-12
0.0015166255
-3.6859656e-12
0.0015166255
-2.9150434e-12
0.0015166255
-1.7220903e-12
0.0015166255
-1.4667447e-12
0.0015166255
-7.4253969e-13
0.0015166255
-6.6485829e-13
0.0015166255
-1.2402135e-13
0.0015166255
-2.0335209e-13
0.0015166255
2.1396429e-13
0.0015166255
4.8468973e-14
0.0015166255
4.2339751e-13
0.0015166255
2.0862554e-13
0.0015166255
5.4364528e-13
0.0015166255
2.6587508e-13
0.0015166255
5.9966173e-13
0.0015166255
2.8413774e-13
0.0015166255
5.4549448e-13
0.0015166255
2.0441778e-13
0.0015166255
4.7318841e-13
0.0015166255
9.2173397e-14
0.0015166255
3.2892121e-13
0.0015166255
-5.7100702e-14
0.0015166255
1.8189985e-13
0.0015166255
-2.0563621e-13
0.0015166255
-2.1620766e-14
0.0015166255
-3.6898296e-13
0.0015166255
-1.6897328e-13
0.0015166255
-5.0967037e-13
0.0015166255
-2.6936111e-13
0.0015166255
-5.7492834e-13
0.0015166255
-2.4290112e-13
0.0015166255
-5.0189826e-13
0.0015166255
-1.3365071e-13
0.0015166255
-3.5879203e-13
0.0015166255
8.4796529e-14
0.0015166255
-9.0454949e-14
0.0015166255
3.439558e-13
0.0015166255
1.7022634e-13
0.0015166255
6.2174221e-13
0.0015166255
4.5295745e-13
0.0015166255
8.3428918e-13
0.0015166255
5.7487082e-13
0.0015166255
9.3409521e-13
0.0015166255
5.942803e-13
0.0015166255
8.5457197e-13
0.0015166255
4.433208e-13
0.0015166255
6.5291103e-13
0.0015166255
2.0289524e-13
0.0015166255
2.9203424e-13
0.0015166255
-1.5377413e-13
0.0015166255
-6.5434645e-14
0.0015166255
-5.1262607e-13
0.0015166255
-4.401171e-13
0.0015166255
-8.6251775e-13
0.0015166255
-7.2928626e-13
0.0015166255
-1.1393631e-12
0.0015166255
-9.8936462e-13
0.0015166255
-1.4277095e-12
0.0015166255
-1.2310999e-12
0.0015166255
-1.6638528e-12
0.0015166255
-1.3950033e-12
0.0015166255
-1.7064251e-12
0.0015166255
-1.2448824e-12
0.0015166255
-1.3672995e-12
0.0015166255
-8.1664842e-13
0.0015166255
-8.9084851e-13
0.0015166255
-3.8133131e-13
0.0015166254
-4.2500415e-13
0.0015166254
3.1573183e-13
0.0015166253
7.5610045e-13
0.0015166252
1.9483298e-12
0.0015166249
2.1197985e-12
0.0015166245
2.5593155e-12
0.0015166237
1.710284e-12
0.0015166228
1.1742345e-12
0.0015166233
2.7393978e-13
-5.7045305e-14
0.0015193482
-3.9827158e-07
0.0015191224
2.2613166e-07
0.0015182219
9.0021274e-07
0.0015173842
8.3706044e-07
0.0015168971
4.8647701e-07
0.0015166731
2.2364499e-07
0.0015165896
8.3433131e-08
0.0015165714
1.8179318e-08
0.0015165773
-5.8861813e-09
0.00151659
-1.2538294e-08
0.0015166014
-1.1379248e-08
0.00151661
-8.5084436e-09
0.0015166159
-5.8021518e-09
0.0015166197
-3.7436469e-09
0.001516622
-2.3390561e-09
0.0015166235
-1.4251987e-09
0.0015166243
-8.5273682e-10
0.0015166248
-5.0318157e-10
0.0015166251
-2.9444401e-10
0.0015166253
-1.702876e-10
0.0015166254
-9.8605711e-11
0.0015166254
-5.6320883e-11
0.0015166255
-3.2789732e-11
0.0015166255
-1.829382e-11
0.0015166255
-1.0903828e-11
0.0015166255
-5.723533e-12
0.0015166255
-3.4984103e-12
0.0015166255
-1.6336026e-12
0.0015166255
-6.8908826e-13
0.0015166255
-1.0231498e-16
0.0015166255
2.7153405e-13
0.0015166255
5.1148509e-13
0.0015166255
5.1537481e-13
0.0015166255
5.8018582e-13
0.0015166255
4.0425336e-13
0.0015166255
4.297544e-13
0.0015166255
2.0245578e-13
0.0015166255
2.9262815e-13
0.0015166255
7.3260749e-14
0.0015166255
1.7633137e-13
0.0015166255
3.4171937e-14
0.0015166255
2.4704702e-13
0.0015166255
8.8794016e-14
0.0015166255
3.5821559e-13
0.0015166255
1.9747361e-13
0.0015166255
4.9356262e-13
0.0015166255
2.7453767e-13
0.0015166255
4.4435313e-13
0.0015166255
2.6130424e-13
0.0015166255
2.9953179e-13
0.0015166255
5.0951316e-14
0.0015166255
2.1167428e-14
0.0015166255
-2.4832501e-13
0.0015166255
-1.8297674e-13
0.0015166255
-5.5318747e-13
0.0015166255
-4.1626259e-13
0.0015166255
-7.3578363e-13
0.0015166255
-4.7334279e-13
0.0015166255
-7.1605859e-13
0.0015166255
-4.4903934e-13
0.0015166255
-5.2494995e-13
0.0015166255
-2.1849772e-13
0.0015166255
-1.3743137e-13
0.0015166255
1.6595368e-13
0.0015166255
1.9481117e-13
0.0015166255
6.2473266e-13
0.0015166255
5.1755903e-13
0.0015166255
9.246915e-13
0.0015166255
7.696714e-13
0.0015166255
1.1236008e-12
0.0015166255
8.6955543e-13
0.0015166255
1.0506357e-12
0.0015166255
8.0931678e-13
0.0015166255
8.5003242e-13
0.0015166255
6.1832932e-13
0.0015166255
4.5248599e-13
0.0015166255
2.3942401e-13
0.0015166255
4.5795906e-14
0.0015166255
-2.863885e-13
0.0015166255
-4.0507881e-13
0.0015166255
-9.1194935e-13
0.0015166255
-1.0030958e-12
0.0015166255
-1.6425638e-12
0.0015166255
-1.6138357e-12
0.0015166255
-2.0103783e-12
0.0015166255
-1.4530199e-12
0.0015166255
-8.5326071e-13
0.0015166255
1.1893483e-12
0.0015166255
4.1710845e-12
0.0015166255
1.0712779e-11
0.0015166254
2.0885595e-11
0.0015166254
4.1903854e-11
0.0015166253
7.8573679e-11
0.0015166252
1.4750353e-10
0.0015166249
2.6158925e-10
0.0015166245
4.5865919e-10
0.0015166237
8.0275703e-10
0.0015166228
9.0929804e-10
0.0015166233
-5.4435891e-10
-2.0441466e-09
0.0015118494
-1.0325564e-06
0.0015119075
1.687267e-07
0.0015110953
1.7128053e-06
0.0015103623
1.5701132e-06
0.0015100185
8.3037724e-07
0.0015099055
3.3684604e-07
0.0015098878
1.014559e-07
0.0015099038
2.4692838e-09
0.0015099267
-2.846243e-08
0.0015099455
-3.1063752e-08
0.0015099585
-2.4086416e-08
0.0015099668
-1.6637099e-08
0.001509972
-1.0788512e-08
0.0015099751
-6.7209979e-09
0.0015099769
-4.0781587e-09
0.0015099779
-2.426091e-09
0.0015099786
-1.4227529e-09
0.0015099789
-8.2457919e-10
0.0015099791
-4.7225756e-10
0.0015099792
-2.6949053e-10
0.0015099793
-1.5183567e-10
0.0015099793
-8.6227518e-11
0.0015099793
-4.7659563e-11
0.0015099793
-2.7330534e-11
0.0015099793
-1.4506566e-11
0.0015099793
-8.4119716e-12
0.0015099793
-4.0667406e-12
0.0015099793
-2.0588863e-12
0.0015099793
-2.9050966e-13
0.0015099793
4.7328677e-15
0.0015099793
8.6083853e-13
0.0015099793
5.835821e-13
0.0015099793
1.0341693e-12
0.0015099793
4.9568656e-13
0.0015099793
6.8058374e-13
0.0015099793
-4.1793012e-15
0.0015099793
2.9150323e-13
0.0015099793
-3.005897e-13
0.0015099793
-5.4405628e-15
0.0015099793
-4.2668512e-13
0.0015099793
6.9132737e-14
0.0015099793
-2.7280774e-13
0.0015099793
3.8935837e-13
0.0015099793
7.453867e-14
0.0015099793
7.8245167e-13
0.0015099793
4.8535314e-13
0.0015099793
1.0381304e-12
0.0015099793
6.8793539e-13
0.0015099793
1.058466e-12
0.0015099793
6.1140957e-13
0.0015099793
7.5384572e-13
0.0015099793
1.2897964e-13
0.0015099793
3.507488e-13
0.0015099793
-4.4260492e-13
0.0015099793
-2.6050019e-13
0.0015099793
-1.0346771e-12
0.0015099793
-7.1052677e-13
0.0015099793
-1.4134768e-12
0.0015099793
-9.7577995e-13
0.0015099793
-1.50324e-12
0.0015099793
-9.5669569e-13
0.0015099793
-1.2483528e-12
0.0015099793
-5.3894877e-13
0.0015099793
-8.05925e-13
0.0015099793
1.057635e-13
0.0015099793
-9.3298102e-14
0.0015099793
7.7213884e-13
0.0015099793
5.716892e-13
0.0015099793
1.4165888e-12
0.0015099793
1.1384732e-12
0.0015099793
1.8409287e-12
0.0015099793
1.4337297e-12
0.0015099793
1.9792525e-12
0.0015099793
1.5103827e-12
0.0015099793
1.822689e-12
0.0015099793
1.2339202e-12
0.0015099793
1.4392717e-12
0.0015099793
7.8392878e-13
0.0015099793
7.9539021e-13
0.0015099793
1.5937118e-14
0.0015099793
-7.4126501e-15
0.0015099793
-1.0251755e-12
0.0015099793
-1.1193904e-12
0.0015099793
-2.2296261e-12
0.0015099793
-1.9218719e-12
0.0015099793
-2.305873e-12
0.0015099793
-7.9762376e-13
0.0015099793
1.4339815e-12
0.0015099793
7.0326239e-12
0.0015099793
1.4985467e-11
0.0015099793
3.2885904e-11
0.0015099793
6.3392465e-11
0.0015099792
1.2618012e-10
0.0015099791
2.4250459e-10
0.001509979
4.5231829e-10
0.0015099786
8.4816269e-10
0.0015099777
1.6818354e-09
0.0015099765
2.0876232e-09
0.0015099772
-1.251593e-09
-4.5110469e-09
0.0014746831
-2.1594518e-06
0.001475632
-7.7963629e-07
0.0014755393
1.8056216e-06
0.0014753992
1.7101465e-06
0.0014754672
7.6232659e-07
0.0014755763
2.2775835e-07
0.0014756607
1.7304423e-08
0.0014757189
-5.5429598e-08
0.0014757554
-6.469987e-08
0.0014757743
-4.9634254e-08
0.0014757837
-3.3242289e-08
0.0014757882
-2.1009884e-08
0.0014757904
-1.2802813e-08
0.0014757915
-7.6208323e-09
0.0014757919
-4.4490039e-09
0.0014757921
-2.5701696e-09
0.0014757922
-1.4681526e-09
0.0014757923
-8.3122347e-10
0.0014757923
-4.669942e-10
0.0014757923
-2.6077227e-10
0.0014757923
-1.4491384e-10
0.0014757923
-8.037127e-11
0.0014757923
-4.4455891e-11
0.0014757923
-2.4441333e-11
0.0014757923
-1.3129341e-11
0.0014757923
-6.9229047e-12
0.0014757923
-3.4738599e-12
0.0014757923
-1.2845904e-12
0.0014757923
1.1156628e-13
0.0014757923
6.809681e-13
0.0014757923
1.0134361e-12
0.0014757923
1.132878e-12
0.0014757923
1.0025236e-12
0.0014757923
7.2920982e-13
0.0014757923
3.8816599e-13
0.0014757923
1.6603865e-14
0.0014757923
-2.3235574e-13
0.0014757923
-5.0513652e-13
0.0014757923
-6.3673505e-13
0.0014757923
-6.3091912e-13
0.0014757923
-4.7560751e-13
0.0014757923
-3.1786674e-13
0.0014757923
3.1853065e-15
0.0014757923
3.5352517e-13
0.0014757923
6.9551116e-13
0.0014757923
1.0312135e-12
0.0014757923
1.2246515e-12
0.0014757923
1.4137229e-12
0.0014757923
1.4240899e-12
0.0014757923
1.2833577e-12
0.0014757923
1.0779021e-12
0.0014757923
7.9717023e-13
0.0014757923
4.1706565e-13
0.0014757923
-5.6395438e-14
0.0014757923
-5.2670208e-13
0.0014757923
-9.1067755e-13
0.0014757923
-1.3447014e-12
0.0014757923
-1.6576328e-12
0.0014757923
-1.8624137e-12
0.0014757923
-1.9439392e-12
0.0014757923
-1.9097015e-12
0.0014757923
-1.7803648e-12
0.0014757923
-1.5198918e-12
0.0014757923
-1.1523751e-12
0.0014757923
-7.0118878e-13
0.0014757923
-2.1929534e-13
0.0014757923
3.0362366e-13
0.0014757923
8.2081084e-13
0.0014757923
1.3099484e-12
0.0014757923
1.7866038e-12
0.0014757923
2.1216614e-12
0.0014757923
2.4149823e-12
0.0014757923
2.5742108e-12
0.0014757923
2.6105639e-12
0.0014757923
2.5516503e-12
0.0014757923
2.4608373e-12
0.0014757923
2.2134946e-12
0.0014757923
1.8763824e-12
0.0014757923
1.4359635e-12
0.0014757923
9.9077605e-13
0.0014757923
3.5749661e-13
0.0014757923
-3.6665102e-13
0.0014757923
-1.2372956e-12
0.0014757923
-2.0251262e-12
0.0014757923
-2.6422263e-12
0.0014757923
-2.8858004e-12
0.0014757923
-2.1868625e-12
0.0014757923
-2.4048881e-13
0.0014757923
3.9796555e-12
0.0014757923
1.1485393e-11
0.0014757923
2.5798323e-11
0.0014757923
5.4035742e-11
0.0014757923
1.134762e-10
0.0014757923
2.3596473e-10
0.0014757923
4.6200737e-10
0.0014757922
9.7880067e-10
0.0014757915
2.3996812e-09
0.0014757902
3.3469568e-09
0.001475791
-2.0117251e-09
-6.7679406e-09
0.0013229353
-3.0121329e-06
0.001324375
-2.219386e-06
0.0013257151
4.6510911e-07
0.0013266585
7.6627772e-07
0.0013272316
1.8883838e-07
0.0013274989
-3.9700598e-08
0.0013276069
-9.0689388e-08
0.0013276418
-9.0228254e-08
0.0013276462
-6.8835727e-08
0.0013276403
-4.353982e-08
0.001327633
-2.5706989e-08
0.0013276272
-1.4944976e-08
0.0013276231
-8.5419516e-09
0.0013276204
-4.8176282e-09
0.0013276188
-2.6910923e-09
0.0013276178
-1.4935009e-09
0.0013276172
-8.2509365e-10
0.0013276168
-4.5252022e-10
0.0013276166
-2.4763628e-10
0.0013276165
-1.3442774e-10
0.0013276165
-7.3502556e-11
0.0013276164
-4.032874e-11
0.0013276164
-2.2630688e-11
0.0013276164
-1.1971589e-11
0.0013276164
-6.7280007e-12
0.0013276164
-3.1760131e-12
0.0013276164
-1.693767e-12
0.0013276164
-5.0918848e-14
0.0013276164
2.3724961e-13
0.0013276164
1.0021231e-12
0.0013276164
7.5845541e-13
0.0013276164
1.172046e-12
0.0013276164
5.4767059e-13
0.0013276164
6.5606276e-13
0.0013276164
-1.4433258e-13
0.0013276164
-9.0277547e-14
0.0013276164
-8.0907636e-13
0.0013276164
-6.2711256e-13
0.0013276164
-1.1707628e-12
0.0013276164
-6.9251372e-13
0.0013276164
-9.6420575e-13
0.0013276164
-2.8288733e-13
0.0013276164
-3.6349793e-13
0.0013276164
4.6982156e-13
0.0013276164
4.3560365e-13
0.0013276164
1.2105792e-12
0.0013276164
1.0525395e-12
0.0013276164
1.7019482e-12
0.0013276164
1.3329491e-12
0.0013276164
1.5733052e-12
0.0013276164
1.0434981e-12
0.0013276164
1.1223574e-12
0.0013276164
3.0991942e-13
0.0013276164
2.597758e-13
0.0013276164
-6.4470284e-13
0.0013276164
-6.3490914e-13
0.0013276164
-1.5491913e-12
0.0013276164
-1.4221115e-12
0.0013276164
-2.1372695e-12
0.0013276164
-1.794193e-12
0.0013276164
-2.1838458e-12
0.0013276164
-1.6762419e-12
0.0013276164
-1.8604712e-12
0.0013276164
-1.0840724e-12
0.0013276164
-1.0759947e-12
0.0013276164
-1.6352398e-13
0.0013276164
-7.1317172e-14
0.0013276164
8.8899903e-13
0.0013276164
9.4257468e-13
0.0013276164
1.877059e-12
0.0013276164
1.86138e-12
0.0013276164
2.531296e-12
0.0013276164
2.3566405e-12
0.0013276164
2.741981e-12
0.0013276164
2.4129179e-12
0.0013276164
2.6538274e-12
0.0013276164
2.0914415e-12
0.0013276164
2.1256031e-12
0.0013276164
1.4085567e-12
0.0013276164
1.3012982e-12
0.0013276164
3.6866421e-13
0.0013276164
1.0095667e-13
0.0013276164
-1.0482485e-12
0.0013276164
-1.4565718e-12
0.0013276164
-2.4865006e-12
0.0013276164
-2.5619023e-12
0.0013276164
-3.0482615e-12
0.0013276164
-2.0353346e-12
0.0013276164
-8.7040598e-13
0.0013276164
2.373159e-12
0.0013276164
7.1152575e-12
0.0013276165
1.8914153e-11
0.0013276165
4.5810064e-11
0.0013276167
1.0779132e-10
0.0013276169
2.2493999e-10
0.0013276173
5.9905281e-10
0.0013276178
1.8914027e-09
0.0013276184
2.7363223e-09
0.0013276175
-1.1101508e-09
-4.4406688e-09
0.00079034826
0.00078812865
0.00078859343
0.00078935941
0.00078954805
0.00078950827
0.0007894176
0.00078932746
0.00078925874
0.00078921531
0.00078918972
0.00078917487
0.00078916641
0.00078916165
0.000789159
0.00078915754
0.00078915674
0.0007891563
0.00078915607
0.00078915594
0.00078915587
0.00078915583
0.00078915581
0.0007891558
0.00078915579
0.00078915579
0.00078915579
0.00078915579
0.00078915579
0.00078915579
0.00078915579
0.00078915579
0.00078915579
0.00078915579
0.00078915579
0.00078915579
0.00078915579
0.00078915579
0.00078915579
0.00078915579
0.00078915579
0.00078915578
0.00078915579
0.00078915578
0.00078915579
0.00078915579
0.00078915579
0.00078915579
0.00078915579
0.00078915579
0.0007891558
0.0007891558
0.0007891558
0.0007891558
0.0007891558
0.00078915579
0.00078915579
0.00078915579
0.00078915579
0.00078915579
0.00078915579
0.00078915578
0.00078915578
0.00078915578
0.00078915578
0.00078915578
0.00078915578
0.00078915578
0.00078915578
0.00078915578
0.00078915579
0.00078915579
0.00078915579
0.00078915579
0.0007891558
0.0007891558
0.0007891558
0.0007891558
0.0007891558
0.0007891558
0.0007891558
0.0007891558
0.0007891558
0.0007891558
0.0007891558
0.0007891558
0.0007891558
0.00078915579
0.0007891558
0.0007891558
0.00078915581
0.00078915582
0.00078915587
0.00078915598
0.0007891562
0.0007891568
0.00078915869
0.00078916143
0.00078916032
)
;

boundaryField
{
    top
    {
        type            calculated;
        value           uniform 0;
    }
    inlet
    {
        type            calculated;
        value           nonuniform List<scalar> 10(-0.00079336064 -0.0013220821 -0.0014735549 -0.001511215 -0.0015189499 -0.0015189497 -0.0015112142 -0.0014735557 -0.0013220823 -0.00079336045);
    }
    outlet
    {
        type            calculated;
        value           nonuniform List<scalar> 10(0.00078915587 0.0013276152 0.0014757932 0.0015099797 0.0015166253 0.0015166253 0.0015099797 0.0014757932 0.0013276152 0.00078915587);
    }
    bottom
    {
        type            calculated;
        value           uniform 0;
    }
    back
    {
        type            empty;
        value           nonuniform 0();
    }
    front
    {
        type            empty;
        value           nonuniform 0();
    }
}


// ************************************************************************* //
