/*--------------------------------*- C++ -*----------------------------------*\
| =========                 |                                                 |
| \\      /  F ield         | OpenFOAM: The Open Source CFD Toolbox           |
|  \\    /   O peration     | Version:  v1812                                 |
|   \\  /    A nd           | Web:      www.OpenFOAM.com                      |
|    \\/     M anipulation  |                                                 |
\*---------------------------------------------------------------------------*/
FoamFile
{
    version     2.0;
    format      ascii;
    class       volVectorField;
    location    "2.85";
    object      U;
}
// * * * * * * * * * * * * * * * * * * * * * * * * * * * * * * * * * * * * * //

dimensions      [0 1 -1 0 0 0 0];


internalField   nonuniform List<vector> 
1000
(
(0.91890838 0.035821908 0)
(0.86271384 0.062195536 0)
(0.7870599 0.062510014 0)
(0.69536079 0.054549767 0)
(0.6108995 0.044530417 0)
(0.54412025 0.034013831 0)
(0.49343877 0.024182404 0)
(0.45480974 0.016135688 0)
(0.42546974 0.010255637 0)
(0.40350743 0.0062910847 0)
(0.38720762 0.0037765474 0)
(0.37503647 0.0022776465 0)
(0.36577206 0.0014488218 0)
(0.35852322 0.0010299293 0)
(0.35267195 0.00083824065 0)
(0.34780399 0.00075784951 0)
(0.34364981 0.00072310972 0)
(0.3400384 0.00069999939 0)
(0.33686349 0.000672267 0)
(0.33405993 0.0006337724 0)
(0.33158773 0.00058433975 0)
(0.32942086 0.00052683128 0)
(0.32753967 0.00046493741 0)
(0.32592607 0.00040202365 0)
(0.32456119 0.00034081439 0)
(0.3234244 0.00028342245 0)
(0.32249319 0.00023133554 0)
(0.32174369 0.00018538991 0)
(0.32115139 0.00014584379 0)
(0.32069207 0.00011257928 0)
(0.32034273 8.5230332e-05 0)
(0.32008232 6.3254124e-05 0)
(0.31989215 4.5999185e-05 0)
(0.31975618 3.2758074e-05 0)
(0.31966106 2.2831147e-05 0)
(0.319596 1.55597e-05 0)
(0.31955253 1.0360147e-05 0)
(0.31952419 6.7298449e-06 0)
(0.31950618 4.2583851e-06 0)
(0.31949506 2.617656e-06 0)
(0.31948839 1.5594027e-06 0)
(0.31948454 8.955611e-07 0)
(0.31948239 4.9305929e-07 0)
(0.31948126 2.569685e-07 0)
(0.31948069 1.2508204e-07 0)
(0.31948044 5.4125948e-08 0)
(0.31948035 1.8930546e-08 0)
(0.31948033 2.3657347e-09 0)
(0.31948034 -2.9931032e-09 0)
(0.31948036 -4.6090997e-09 0)
(0.31948037 -3.6942978e-09 0)
(0.31948038 -2.9003381e-09 0)
(0.31948039 -1.4847795e-09 0)
(0.3194804 -9.96894e-10 0)
(0.3194804 -5.9266727e-11 0)
(0.3194804 -1.0785853e-10 0)
(0.3194804 5.4059462e-10 0)
(0.3194804 1.3439588e-10 0)
(0.3194804 6.663811e-10 0)
(0.3194804 -9.941027e-12 0)
(0.3194804 7.3608254e-10 0)
(0.3194804 -2.6633798e-10 0)
(0.31948039 8.8840735e-10 0)
(0.3194804 -6.5309962e-10 0)
(0.31948039 1.2193731e-09 0)
(0.3194804 -1.1749753e-09 0)
(0.31948039 1.6660481e-09 0)
(0.3194804 -1.7329986e-09 0)
(0.31948038 2.1013038e-09 0)
(0.31948041 -2.0561191e-09 0)
(0.31948037 2.1075662e-09 0)
(0.31948042 -1.6887329e-09 0)
(0.31948036 1.2211693e-09 0)
(0.31948043 -1.5806833e-10 0)
(0.31948035 -9.2554539e-10 0)
(0.31948044 2.3949335e-09 0)
(0.31948035 -3.6657747e-09 0)
(0.31948044 5.012529e-09 0)
(0.31948034 -5.5723745e-09 0)
(0.31948044 5.9524608e-09 0)
(0.31948034 -4.9916735e-09 0)
(0.31948045 4.1880572e-09 0)
(0.31948033 -1.655131e-09 0)
(0.31948045 8.9981904e-10 0)
(0.31948032 2.0541721e-09 0)
(0.31948046 -1.2328633e-09 0)
(0.31948031 5.6420901e-09 0)
(0.31948046 -1.4373935e-09 0)
(0.3194803 1.1667954e-08 0)
(0.31948044 8.6358358e-10 0)
(0.31948028 2.6161158e-08 0)
(0.3194804 1.5887384e-08 0)
(0.3194802 6.0204534e-08 0)
(0.31948029 7.3441202e-08 0)
(0.31947996 1.5813847e-07 0)
(0.31947998 2.4890277e-07 0)
(0.31947922 4.5803517e-07 0)
(0.31947887 7.558232e-07 0)
(0.31947658 1.271641e-06 0)
(0.31947506 1.7375187e-06 0)
(1.0016584 0.05381944 0)
(1.035976 0.10128424 0)
(1.0597199 0.11073614 0)
(1.0628944 0.105921 0)
(1.0515573 0.096226446 0)
(1.0340544 0.083930009 0)
(1.0142831 0.07032041 0)
(0.99361577 0.056970094 0)
(0.97294311 0.045090386 0)
(0.95313622 0.035213859 0)
(0.93484099 0.027370566 0)
(0.9183639 0.021340721 0)
(0.90374321 0.016813767 0)
(0.89086733 0.013467243 0)
(0.87956291 0.011004173 0)
(0.86964525 0.0091735354 0)
(0.8609405 0.0077801779 0)
(0.85329428 0.006683336 0)
(0.84657576 0.0057854705 0)
(0.84067874 0.0050202343 0)
(0.83551909 0.0043448636 0)
(0.8310292 0.003734985 0)
(0.827152 0.0031790345 0)
(0.82383637 0.0026728262 0)
(0.82103391 0.0022157149 0)
(0.81869682 0.0018084192 0)
(0.8167767 0.0014516454 0)
(0.81522443 0.0011450992 0)
(0.81399096 0.00088700901 0)
(0.81302844 0.00067422616 0)
(0.81229151 0.0005025473 0)
(0.81173835 0.00036707742 0)
(0.81133153 0.00026258534 0)
(0.81103861 0.00018383102 0)
(0.81083225 0.00012585555 0)
(0.81069013 8.4185316e-05 0)
(0.81059452 5.4959352e-05 0)
(0.81053177 3.4968548e-05 0)
(0.81049163 2.1646135e-05 0)
(0.81046667 1.3002902e-05 0)
(0.8104516 7.5536342e-06 0)
(0.81044281 4.2209761e-06 0)
(0.81043787 2.2517286e-06 0)
(0.81043523 1.1308465e-06 0)
(0.8104339 5.2215185e-07 0)
(0.81043328 2.0963024e-07 0)
(0.81043303 6.1803368e-08 0)
(0.81043296 -2.4952027e-09 0)
(0.81043296 -2.2955515e-08 0)
(0.81043299 -2.4891873e-08 0)
(0.81043302 -1.8843505e-08 0)
(0.81043304 -1.2402122e-08 0)
(0.81043306 -6.3213547e-09 0)
(0.81043307 -2.723276e-09 0)
(0.81043307 3.1362431e-10 0)
(0.81043308 1.1798303e-09 0)
(0.81043307 2.5894632e-09 0)
(0.81043307 1.8885166e-09 0)
(0.81043307 2.991748e-09 0)
(0.81043307 1.2233766e-09 0)
(0.81043306 3.0956379e-09 0)
(0.81043307 5.2566496e-12 0)
(0.81043306 3.5543429e-09 0)
(0.81043307 -1.6235028e-09 0)
(0.81043304 4.5887875e-09 0)
(0.81043308 -3.5859984e-09 0)
(0.81043303 5.9586626e-09 0)
(0.8104331 -5.3621753e-09 0)
(0.810433 6.8399052e-09 0)
(0.81043313 -5.7498782e-09 0)
(0.81043297 5.5904484e-09 0)
(0.81043316 -2.895476e-09 0)
(0.81043293 3.8729978e-10 0)
(0.8104332 4.5150782e-09 0)
(0.8104329 -9.0548159e-09 0)
(0.81043322 1.5023072e-08 0)
(0.81043288 -1.9212179e-08 0)
(0.81043323 2.2762967e-08 0)
(0.81043288 -2.2247133e-08 0)
(0.81043323 1.9629723e-08 0)
(0.81043288 -1.1435573e-08 0)
(0.81043322 2.8815024e-09 0)
(0.81043288 1.0095496e-08 0)
(0.81043322 -1.7492648e-08 0)
(0.81043288 2.7984514e-08 0)
(0.81043322 -2.5352472e-08 0)
(0.81043287 3.1594919e-08 0)
(0.81043322 -1.4967464e-08 0)
(0.81043287 2.9223201e-08 0)
(0.8104332 5.0808688e-09 0)
(0.81043284 4.7399988e-08 0)
(0.81043319 3.9300587e-08 0)
(0.8104327 1.1146685e-07 0)
(0.8104332 1.4349575e-07 0)
(0.81043235 2.9576727e-07 0)
(0.81043314 4.7403601e-07 0)
(0.81043148 8.2369873e-07 0)
(0.81043268 1.3783459e-06 0)
(0.81042872 2.1126539e-06 0)
(0.81043182 3.2162657e-06 0)
(1.0014245 0.026824838 0)
(1.029127 0.06279117 0)
(1.0654288 0.07773582 0)
(1.098961 0.080595855 0)
(1.125313 0.078282443 0)
(1.1450505 0.073148849 0)
(1.1594823 0.066103475 0)
(1.1694242 0.058149699 0)
(1.1755311 0.05027681 0)
(1.17857 0.043121367 0)
(1.1793514 0.036931355 0)
(1.1785867 0.031709678 0)
(1.1768237 0.027356681 0)
(1.1744522 0.023746114 0)
(1.1717387 0.020748327 0)
(1.1688659 0.018237701 0)
(1.1659602 0.016102632 0)
(1.1631058 0.014253797 0)
(1.160354 0.012622922 0)
(1.1577358 0.011157248 0)
(1.1552721 0.0098173837 0)
(1.1529785 0.0085776763 0)
(1.1508656 0.0074248325 0)
(1.1489409 0.0063543571 0)
(1.1472091 0.0053670817 0)
(1.1456729 0.004466731 0)
(1.1443315 0.0036579315 0)
(1.1431802 0.0029443345 0)
(1.1422098 0.0023271994 0)
(1.1414076 0.0018047306 0)
(1.1407575 0.0013721288 0)
(1.1402417 0.0010220668 0)
(1.139841 0.00074538058 0)
(1.1395364 0.0005318629 0)
(1.1393101 0.0003710468 0)
(1.1391456 0.00025287399 0)
(1.1390288 0.00016818819 0)
(1.1389479 0.00010903428 0)
(1.1388931 6.8787628e-05 0)
(1.138857 4.2140439e-05 0)
(1.1388337 2.4993358e-05 0)
(1.1388192 1.4288473e-05 0)
(1.1388104 7.8223824e-06 0)
(1.1388052 4.056815e-06 0)
(1.1388023 1.9549168e-06 0)
(1.1388007 8.406118e-07 0)
(1.1387999 2.892158e-07 0)
(1.1387995 4.1532419e-08 0)
(1.1387993 -5.0177002e-08 0)
(1.1387992 -6.8584826e-08 0)
(1.1387992 -5.8408752e-08 0)
(1.1387993 -4.094935e-08 0)
(1.1387993 -2.4305605e-08 0)
(1.1387993 -1.2171208e-08 0)
(1.1387993 -3.5182738e-09 0)
(1.1387993 9.0015353e-10 0)
(1.1387993 4.3025435e-09 0)
(1.1387993 4.2631005e-09 0)
(1.1387993 6.2086337e-09 0)
(1.1387993 3.5963469e-09 0)
(1.1387993 6.539528e-09 0)
(1.1387993 1.3488392e-09 0)
(1.1387993 7.1329739e-09 0)
(1.1387993 -1.5892689e-09 0)
(1.1387992 8.4380687e-09 0)
(1.1387993 -4.7174125e-09 0)
(1.1387992 9.840158e-09 0)
(1.1387994 -6.7703119e-09 0)
(1.1387991 9.4983964e-09 0)
(1.1387994 -5.3768421e-09 0)
(1.1387991 4.5240065e-09 0)
(1.1387995 2.3336884e-09 0)
(1.138799 -7.2669301e-09 0)
(1.1387996 1.6821626e-08 0)
(1.138799 -2.3743372e-08 0)
(1.1387996 3.2156468e-08 0)
(1.138799 -3.4631044e-08 0)
(1.1387996 3.4502893e-08 0)
(1.138799 -2.499636e-08 0)
(1.1387995 1.1681747e-08 0)
(1.1387991 9.7722283e-09 0)
(1.1387995 -2.8464033e-08 0)
(1.1387991 4.8747446e-08 0)
(1.1387994 -5.3319764e-08 0)
(1.1387991 5.5685973e-08 0)
(1.1387994 -3.3889106e-08 0)
(1.1387991 2.5408699e-08 0)
(1.1387995 9.2153708e-09 0)
(1.1387991 8.5542537e-09 0)
(1.1387995 3.1124503e-08 0)
(1.138799 4.8677789e-08 0)
(1.1387996 5.0684045e-08 0)
(1.1387988 1.3859574e-07 0)
(1.1387998 1.7773285e-07 0)
(1.1387985 3.3304711e-07 0)
(1.1388002 5.806904e-07 0)
(1.1387979 8.9156772e-07 0)
(1.1388007 1.5240121e-06 0)
(1.1387962 2.1074619e-06 0)
(1.1388022 3.0693317e-06 0)
(1.0007347 0.01181469 0)
(1.017847 0.030860815 0)
(1.0462158 0.041433896 0)
(1.0799003 0.04519245 0)
(1.1132632 0.045500193 0)
(1.1437772 0.044076335 0)
(1.1708869 0.041433801 0)
(1.1945568 0.037964073 0)
(1.2148408 0.034180108 0)
(1.2319397 0.03051284 0)
(1.2462261 0.027186472 0)
(1.2581638 0.024259688 0)
(1.2682078 0.021714292 0)
(1.2767374 0.019510051 0)
(1.2840406 0.017599138 0)
(1.2903365 0.015927597 0)
(1.2957979 0.014442691 0)
(1.3005592 0.01310096 0)
(1.3047171 0.011869158 0)
(1.3083407 0.010720922 0)
(1.311484 0.009635719 0)
(1.314192 0.008600303 0)
(1.3165027 0.0076089914 0)
(1.3184489 0.0066618638 0)
(1.3200628 0.0057627554 0)
(1.3213776 0.0049179539 0)
(1.3224283 0.0041350575 0)
(1.3232503 0.0034215394 0)
(1.3238785 0.0027833632 0)
(1.3243466 0.0022240355 0)
(1.324686 0.0017441997 0)
(1.3249249 0.0013416314 0)
(1.3250876 0.0010115471 0)
(1.3251944 0.00074715339 0)
(1.3252615 0.00054033975 0)
(1.3253014 0.00038239789 0)
(1.3253236 0.00026466258 0)
(1.3253346 0.0001790183 0)
(1.325339 0.00011824029 0)
(1.3253399 7.6179294e-05 0)
(1.3253391 4.7809244e-05 0)
(1.3253377 2.9173188e-05 0)
(1.3253362 1.7264135e-05 0)
(1.3253349 9.8720647e-06 0)
(1.3253339 5.425606e-06 0)
(1.3253331 2.841325e-06 0)
(1.3253326 1.3980406e-06 0)
(1.3253323 6.2995891e-07 0)
(1.3253321 2.458904e-07 0)
(1.325332 6.9444984e-08 0)
(1.3253319 -9.9844336e-10 0)
(1.3253319 -2.1779495e-08 0)
(1.3253318 -2.1138649e-08 0)
(1.3253318 -1.4437086e-08 0)
(1.3253318 -6.343217e-09 0)
(1.3253318 -1.1119985e-09 0)
(1.3253318 3.7011429e-09 0)
(1.3253318 4.5517306e-09 0)
(1.3253318 7.4047679e-09 0)
(1.3253318 4.9651342e-09 0)
(1.3253318 8.31523e-09 0)
(1.3253319 2.9300183e-09 0)
(1.3253318 8.7912352e-09 0)
(1.3253319 -1.5930037e-11 0)
(1.3253318 9.5124148e-09 0)
(1.3253319 -2.8709606e-09 0)
(1.3253317 9.8394005e-09 0)
(1.325332 -4.026218e-09 0)
(1.3253316 7.7801563e-09 0)
(1.3253321 -1.1275286e-09 0)
(1.3253315 8.231803e-10 0)
(1.3253322 7.9386586e-09 0)
(1.3253314 -1.1878071e-08 0)
(1.3253322 2.1658269e-08 0)
(1.3253314 -2.5630145e-08 0)
(1.3253322 3.1382852e-08 0)
(1.3253314 -2.8345478e-08 0)
(1.3253322 2.3578403e-08 0)
(1.3253315 -8.2285347e-09 0)
(1.325332 -7.1773092e-09 0)
(1.3253317 2.9655129e-08 0)
(1.325332 -4.3441474e-08 0)
(1.3253317 5.6098446e-08 0)
(1.3253319 -4.8248109e-08 0)
(1.3253317 4.0117949e-08 0)
(1.325332 -9.9814845e-09 0)
(1.3253317 5.8478975e-10 0)
(1.325332 2.958874e-08 0)
(1.3253316 -3.9649083e-09 0)
(1.3253322 3.1406876e-08 0)
(1.3253315 4.658335e-08 0)
(1.3253324 3.6878382e-08 0)
(1.3253313 1.1733692e-07 0)
(1.3253327 1.5094261e-07 0)
(1.3253311 2.5700135e-07 0)
(1.3253334 4.7531471e-07 0)
(1.3253309 6.8060632e-07 0)
(1.3253345 1.1405564e-06 0)
(1.3253299 1.5117273e-06 0)
(1.3253373 2.0904808e-06 0)
(1.0005903 0.0034629085 0)
(1.0136862 0.0093660045 0)
(1.0370277 0.013046639 0)
(1.0674186 0.014562855 0)
(1.1000278 0.014853737 0)
(1.1316371 0.014563543 0)
(1.1610658 0.013886037 0)
(1.1880528 0.01291565 0)
(1.2124981 0.011800662 0)
(1.2343601 0.010687266 0)
(1.2537506 0.0096588391 0)
(1.2709379 0.0087413677 0)
(1.2862536 0.0079329358 0)
(1.2999978 0.007223575 0)
(1.3124 0.0066003407 0)
(1.3236345 0.006047392 0)
(1.3338432 0.0055484894 0)
(1.3431389 0.0050901681 0)
(1.3516009 0.0046622911 0)
(1.3592829 0.0042568061 0)
(1.3662259 0.0038673396 0)
(1.372464 0.0034898276 0)
(1.378026 0.0031227681 0)
(1.382937 0.0027666423 0)
(1.3872235 0.0024232605 0)
(1.3909168 0.002095386 0)
(1.3940545 0.0017864159 0)
(1.3966797 0.0014998918 0)
(1.3988401 0.0012389676 0)
(1.4005875 0.0010059952 0)
(1.4019752 0.00080228085 0)
(1.4030566 0.00062799487 0)
(1.4038831 0.00048220081 0)
(1.4045022 0.00036301014 0)
(1.4049564 0.00026780732 0)
(1.4052827 0.00019353051 0)
(1.405512 0.00013693138 0)
(1.4056697 9.481677e-05 0)
(1.4057757 6.4217861e-05 0)
(1.4058452 4.251596e-05 0)
(1.4058897 2.7492507e-05 0)
(1.4059175 1.7347507e-05 0)
(1.4059344 1.0666181e-05 0)
(1.4059443 6.3804863e-06 0)
(1.4059499 3.7037127e-06 0)
(1.405953 2.0804795e-06 0)
(1.4059546 1.1248599e-06 0)
(1.4059554 5.8294745e-07 0)
(1.4059558 2.8587079e-07 0)
(1.4059559 1.3136239e-07 0)
(1.405956 5.5155841e-08 0)
(1.405956 2.159832e-08 0)
(1.405956 7.9246611e-09 0)
(1.405956 4.5323771e-09 0)
(1.4059559 4.1862267e-09 0)
(1.4059559 5.4158438e-09 0)
(1.4059559 6.2270156e-09 0)
(1.4059559 6.746754e-09 0)
(1.4059559 7.1737753e-09 0)
(1.405956 6.3944279e-09 0)
(1.4059559 6.9916854e-09 0)
(1.405956 4.9494749e-09 0)
(1.4059559 6.5410488e-09 0)
(1.405956 3.1383825e-09 0)
(1.4059559 6.1320489e-09 0)
(1.4059561 1.4857061e-09 0)
(1.4059558 5.5421027e-09 0)
(1.4059562 7.6703543e-10 0)
(1.4059557 3.9021499e-09 0)
(1.4059563 1.9100912e-09 0)
(1.4059556 3.3686859e-10 0)
(1.4059564 5.5962933e-09 0)
(1.4059555 -5.2471097e-09 0)
(1.4059564 1.0723852e-08 0)
(1.4059555 -1.0241629e-08 0)
(1.4059564 1.3317385e-08 0)
(1.4059556 -9.6269407e-09 0)
(1.4059563 8.0805957e-09 0)
(1.4059557 5.5630344e-10 0)
(1.4059561 -5.3304156e-09 0)
(1.4059558 1.6198765e-08 0)
(1.405956 -1.850926e-08 0)
(1.4059559 2.3926288e-08 0)
(1.405956 -1.5710592e-08 0)
(1.4059559 1.3762779e-08 0)
(1.4059561 3.2444192e-09 0)
(1.4059558 -1.7698013e-09 0)
(1.4059562 1.8694678e-08 0)
(1.4059557 5.0569534e-10 0)
(1.4059564 1.6144545e-08 0)
(1.4059555 2.4999744e-08 0)
(1.4059566 1.7759676e-08 0)
(1.4059554 5.0319549e-08 0)
(1.405957 6.4271415e-08 0)
(1.4059553 1.0007713e-07 0)
(1.4059579 1.8640658e-07 0)
(1.4059552 2.5711427e-07 0)
(1.4059593 4.1898236e-07 0)
(1.4059546 5.4518182e-07 0)
(1.4059625 7.3272143e-07 0)
(1.0005903 -0.003462882 0)
(1.0136862 -0.0093659417 0)
(1.0370277 -0.013046562 0)
(1.0674186 -0.014562772 0)
(1.1000278 -0.01485365 0)
(1.1316372 -0.014563454 0)
(1.1610658 -0.013885951 0)
(1.1880528 -0.012915569 0)
(1.2124981 -0.011800589 0)
(1.2343601 -0.010687203 0)
(1.2537506 -0.009658787 0)
(1.2709379 -0.0087413299 0)
(1.2862536 -0.0079329127 0)
(1.2999978 -0.0072235705 0)
(1.3123999 -0.0066003551 0)
(1.3236344 -0.0060474292 0)
(1.3338432 -0.0055485503 0)
(1.3431388 -0.0050902525 0)
(1.3516008 -0.0046623966 0)
(1.3592829 -0.004256926 0)
(1.3662258 -0.0038674688 0)
(1.3724639 -0.0034899568 0)
(1.3780259 -0.0031228936 0)
(1.382937 -0.002766758 0)
(1.3872234 -0.0024233669 0)
(1.3909168 -0.0020954824 0)
(1.3940545 -0.0017865067 0)
(1.3966796 -0.001499981 0)
(1.3988401 -0.0012390604 0)
(1.4005874 -0.0010060956 0)
(1.4019751 -0.00080239082 0)
(1.4030566 -0.00062811529 0)
(1.403883 -0.00048232934 0)
(1.4045021 -0.00036314405 0)
(1.4049563 -0.00026794165 0)
(1.4052826 -0.00019366086 0)
(1.405512 -0.00013705301 0)
(1.4056697 -9.4926139e-05 0)
(1.4057756 -6.4312666e-05 0)
(1.4058452 -4.2594718e-05 0)
(1.4058897 -2.7555637e-05 0)
(1.4059174 -1.7395371e-05 0)
(1.4059343 -1.0700995e-05 0)
(1.4059442 -6.4033394e-06 0)
(1.4059498 -3.717481e-06 0)
(1.4059529 -2.0861414e-06 0)
(1.4059546 -1.1251262e-06 0)
(1.4059554 -5.7773013e-07 0)
(1.4059557 -2.7761527e-07 0)
(1.4059559 -1.2009202e-07 0)
(1.4059559 -4.2278061e-08 0)
(1.4059559 -6.7592808e-09 0)
(1.4059559 7.4097163e-09 0)
(1.4059559 1.1794093e-08 0)
(1.4059559 1.1783128e-08 0)
(1.4059559 1.0724639e-08 0)
(1.4059559 8.847768e-09 0)
(1.4059559 7.9997421e-09 0)
(1.4059559 6.1650465e-09 0)
(1.4059559 6.3561335e-09 0)
(1.4059559 4.1731732e-09 0)
(1.405956 5.6156997e-09 0)
(1.4059559 2.511633e-09 0)
(1.405956 5.3718361e-09 0)
(1.4059558 9.39922e-10 0)
(1.4059561 5.2236412e-09 0)
(1.4059558 -8.0760714e-11 0)
(1.4059561 4.4796139e-09 0)
(1.4059557 2.0482609e-10 0)
(1.4059562 2.1808961e-09 0)
(1.4059556 2.794326e-09 0)
(1.4059563 -2.3318653e-09 0)
(1.4059555 7.6193197e-09 0)
(1.4059564 -8.0305769e-09 0)
(1.4059555 1.2224582e-08 0)
(1.4059564 -1.0891204e-08 0)
(1.4059555 1.1455114e-08 0)
(1.4059563 -5.6196595e-09 0)
(1.4059557 1.5065858e-09 0)
(1.4059561 8.1639409e-09 0)
(1.4059558 -1.3574505e-08 0)
(1.405956 2.2201573e-08 0)
(1.4059559 -2.0192618e-08 0)
(1.405956 2.0636502e-08 0)
(1.4059559 -8.4320278e-09 0)
(1.4059561 3.725511e-09 0)
(1.4059558 9.7327089e-09 0)
(1.4059562 -8.460788e-09 0)
(1.4059556 1.1412601e-08 0)
(1.4059564 -1.5046499e-09 0)
(1.4059555 -9.1994603e-09 0)
(1.4059566 -1.2838405e-09 0)
(1.4059554 -3.4844713e-08 0)
(1.405957 -4.8950613e-08 0)
(1.4059553 -8.5206041e-08 0)
(1.4059579 -1.7060026e-07 0)
(1.4059552 -2.4263159e-07 0)
(1.4059593 -4.0727433e-07 0)
(1.4059546 -5.366009e-07 0)
(1.4059625 -7.2481135e-07 0)
(1.0007347 -0.011814667 0)
(1.017847 -0.030860761 0)
(1.0462158 -0.041433829 0)
(1.0799003 -0.045192378 0)
(1.1132632 -0.045500119 0)
(1.1437772 -0.044076259 0)
(1.1708869 -0.041433728 0)
(1.1945569 -0.037964004 0)
(1.2148408 -0.034180046 0)
(1.2319397 -0.030512784 0)
(1.2462261 -0.027186424 0)
(1.2581638 -0.024259649 0)
(1.2682077 -0.021714264 0)
(1.2767373 -0.019510034 0)
(1.2840406 -0.017599136 0)
(1.2903364 -0.015927611 0)
(1.2957978 -0.014442724 0)
(1.3005591 -0.013101009 0)
(1.304717 -0.011869223 0)
(1.3083406 -0.010720999 0)
(1.3114839 -0.009635802 0)
(1.3141919 -0.0086003881 0)
(1.3165025 -0.0076090743 0)
(1.3184488 -0.0066619436 0)
(1.3200626 -0.0057628313 0)
(1.3213775 -0.0049180288 0)
(1.3224282 -0.004135134 0)
(1.3232501 -0.0034216221 0)
(1.3238783 -0.0027834549 0)
(1.3243464 -0.0022241389 0)
(1.3246859 -0.0017443145 0)
(1.3249248 -0.0013417565 0)
(1.3250875 -0.0010116783 0)
(1.3251943 -0.00074728701 0)
(1.3252614 -0.00054046986 0)
(1.3253013 -0.0003825208 0)
(1.3253234 -0.00026477323 0)
(1.3253344 -0.00017911529 0)
(1.3253389 -0.00011832092 0)
(1.3253398 -7.624493e-05 0)
(1.3253389 -4.7859246e-05 0)
(1.3253375 -2.921085e-05 0)
(1.325336 -1.7289809e-05 0)
(1.3253347 -9.8894981e-06 0)
(1.3253337 -5.4349765e-06 0)
(1.325333 -2.8463771e-06 0)
(1.3253325 -1.3982629e-06 0)
(1.3253322 -6.2832641e-07 0)
(1.325332 -2.4026632e-07 0)
(1.3253319 -6.2250014e-08 0)
(1.3253318 1.0941682e-08 0)
(1.3253318 3.2023587e-08 0)
(1.3253318 3.3146689e-08 0)
(1.3253318 2.594165e-08 0)
(1.3253318 1.8917527e-08 0)
(1.3253318 1.2500717e-08 0)
(1.3253318 8.2160847e-09 0)
(1.3253318 5.7785149e-09 0)
(1.3253318 3.1898506e-09 0)
(1.3253318 3.8475303e-09 0)
(1.3253318 6.2747039e-10 0)
(1.3253318 4.2276901e-09 0)
(1.3253318 -1.4521796e-09 0)
(1.3253319 5.5908614e-09 0)
(1.3253317 -3.6800752e-09 0)
(1.3253319 7.094006e-09 0)
(1.3253317 -5.2059871e-09 0)
(1.325332 7.1575047e-09 0)
(1.3253316 -4.1229231e-09 0)
(1.3253321 3.4202041e-09 0)
(1.3253315 2.1723799e-09 0)
(1.3253322 -6.2191454e-09 0)
(1.3253314 1.4477959e-08 0)
(1.3253322 -2.026778e-08 0)
(1.3253314 2.7927454e-08 0)
(1.3253322 -3.0159139e-08 0)
(1.3253314 3.0606487e-08 0)
(1.3253322 -2.2239578e-08 0)
(1.3253315 1.0758178e-08 0)
(1.325332 8.8534324e-09 0)
(1.3253317 -2.6581225e-08 0)
(1.3253319 4.5932275e-08 0)
(1.3253317 -5.2055602e-08 0)
(1.3253319 5.1975485e-08 0)
(1.3253317 -3.4661129e-08 0)
(1.325332 1.5407368e-08 0)
(1.3253317 6.9925991e-09 0)
(1.325332 -2.1196837e-08 0)
(1.3253316 1.5438874e-08 0)
(1.3253322 -1.9356263e-08 0)
(1.3253315 -3.2332402e-08 0)
(1.3253324 -2.3679302e-08 0)
(1.3253313 -1.0401065e-07 0)
(1.3253327 -1.3925684e-07 0)
(1.3253311 -2.4498049e-07 0)
(1.3253334 -4.6313711e-07 0)
(1.3253309 -6.6837584e-07 0)
(1.3253345 -1.1302503e-06 0)
(1.3253299 -1.5029959e-06 0)
(1.3253373 -2.0820263e-06 0)
(1.0014245 -0.026824821 0)
(1.029127 -0.062791131 0)
(1.0654288 -0.077735772 0)
(1.098961 -0.080595803 0)
(1.125313 -0.07828239 0)
(1.1450505 -0.073148795 0)
(1.1594824 -0.066103422 0)
(1.1694242 -0.058149649 0)
(1.1755312 -0.050276765 0)
(1.17857 -0.043121326 0)
(1.1793514 -0.036931317 0)
(1.1785867 -0.031709642 0)
(1.1768237 -0.02735665 0)
(1.1744521 -0.02374609 0)
(1.1717386 -0.02074831 0)
(1.1688658 -0.018237692 0)
(1.1659602 -0.016102629 0)
(1.1631057 -0.014253805 0)
(1.1603539 -0.012622936 0)
(1.1577356 -0.011157271 0)
(1.155272 -0.0098174096 0)
(1.1529783 -0.0085777081 0)
(1.1508655 -0.0074248658 0)
(1.1489407 -0.0063543963 0)
(1.1472089 -0.0053671255 0)
(1.1456727 -0.0044667837 0)
(1.1443313 -0.0036579946 0)
(1.14318 -0.00294441 0)
(1.1422096 -0.002327289 0)
(1.1414074 -0.0018048322 0)
(1.1407573 -0.0013722422 0)
(1.1402415 -0.0010221859 0)
(1.1398408 -0.00074550325 0)
(1.1395362 -0.00053198165 0)
(1.1393099 -0.00037115951 0)
(1.1391454 -0.00025297465 0)
(1.1390286 -0.00016827641 0)
(1.1389477 -0.00010910704 0)
(1.1388929 -6.8846577e-05 0)
(1.1388567 -4.2185301e-05 0)
(1.1388335 -2.5027165e-05 0)
(1.138819 -1.4312212e-05 0)
(1.1388102 -7.8390522e-06 0)
(1.138805 -4.0677063e-06 0)
(1.1388021 -1.9624842e-06 0)
(1.1388005 -8.4492006e-07 0)
(1.1387997 -2.9136472e-07 0)
(1.1387993 -4.1386829e-08 0)
(1.1387992 5.1508113e-08 0)
(1.1387991 7.1836248e-08 0)
(1.1387991 6.234539e-08 0)
(1.1387992 4.6019823e-08 0)
(1.1387992 2.9576649e-08 0)
(1.1387992 1.8155741e-08 0)
(1.1387992 9.2328205e-09 0)
(1.1387992 5.1956394e-09 0)
(1.1387992 1.1870054e-09 0)
(1.1387992 1.4066955e-09 0)
(1.1387992 -1.3200575e-09 0)
(1.1387993 1.3004886e-09 0)
(1.1387992 -2.4911479e-09 0)
(1.1387993 2.6687435e-09 0)
(1.1387992 -3.948662e-09 0)
(1.1387993 4.7463951e-09 0)
(1.1387992 -6.0023389e-09 0)
(1.1387993 7.1807135e-09 0)
(1.1387992 -8.0267735e-09 0)
(1.1387994 8.6649728e-09 0)
(1.1387991 -8.1521602e-09 0)
(1.1387994 6.8842391e-09 0)
(1.1387991 -3.5184723e-09 0)
(1.1387995 -1.1279666e-09 0)
(1.138799 8.0069932e-09 0)
(1.1387996 -1.570294e-08 0)
(1.138799 2.4537597e-08 0)
(1.1387996 -3.0988345e-08 0)
(1.138799 3.5549993e-08 0)
(1.1387996 -3.3156593e-08 0)
(1.138799 2.6158528e-08 0)
(1.1387995 -9.9673608e-09 0)
(1.1387991 -8.2191802e-09 0)
(1.1387995 3.0672027e-08 0)
(1.1387991 -4.6428369e-08 0)
(1.1387994 5.6515639e-08 0)
(1.1387991 -5.2238023e-08 0)
(1.1387994 3.8418034e-08 0)
(1.1387991 -2.0203737e-08 0)
(1.1387995 -2.4982058e-09 0)
(1.1387991 -7.282444e-10 0)
(1.1387995 -2.1771459e-08 0)
(1.138799 -3.922765e-08 0)
(1.1387996 -4.1063512e-08 0)
(1.1387988 -1.3029622e-07 0)
(1.1387998 -1.7092835e-07 0)
(1.1387985 -3.2674867e-07 0)
(1.1388002 -5.732319e-07 0)
(1.138798 -8.8273035e-07 0)
(1.1388007 -1.5165313e-06 0)
(1.1387962 -2.102244e-06 0)
(1.1388023 -3.0634398e-06 0)
(1.0016584 -0.053819432 0)
(1.035976 -0.10128423 0)
(1.0597199 -0.11073611 0)
(1.0628944 -0.10592098 0)
(1.0515573 -0.096226419 0)
(1.0340544 -0.083929981 0)
(1.0142832 -0.07032038 0)
(0.99361578 -0.056970066 0)
(0.9729431 -0.04509036 0)
(0.9531362 -0.035213835 0)
(0.93484095 -0.027370541 0)
(0.91836385 -0.021340696 0)
(0.90374315 -0.016813742 0)
(0.89086725 -0.013467218 0)
(0.87956284 -0.011004146 0)
(0.86964517 -0.0091735063 0)
(0.86094042 -0.0077801479 0)
(0.85329419 -0.0066833074 0)
(0.84657566 -0.0057854475 0)
(0.84067863 -0.0050202169 0)
(0.83551897 -0.0043448551 0)
(0.83102906 -0.0037349839 0)
(0.82715185 -0.003179043 0)
(0.8238362 -0.0026728427 0)
(0.82103373 -0.0022157407 0)
(0.81869662 -0.0018084536 0)
(0.8167765 -0.0014516889 0)
(0.81522423 -0.0011451517 0)
(0.81399075 -0.00088706971 0)
(0.81302825 -0.00067429442 0)
(0.81229132 -0.00050262061 0)
(0.81173816 -0.00036715415 0)
(0.81133135 -0.00026266181 0)
(0.81103843 -0.00018390524 0)
(0.81083208 -0.00012592425 0)
(0.81068996 -8.424722e-05 0)
(0.81059435 -5.5012665e-05 0)
(0.81053161 -3.5013239e-05 0)
(0.81049148 -2.1681988e-05 0)
(0.81046652 -1.3031127e-05 0)
(0.81045146 -7.5750086e-06 0)
(0.81044268 -4.2368646e-06 0)
(0.81043775 -2.2631426e-06 0)
(0.81043512 -1.139207e-06 0)
(0.8104338 -5.2793943e-07 0)
(0.81043319 -2.1320672e-07 0)
(0.81043295 -6.3289617e-08 0)
(0.81043289 2.0822754e-09 0)
(0.8104329 2.2823508e-08 0)
(0.81043293 2.4995885e-08 0)
(0.81043297 1.9333317e-08 0)
(0.810433 1.3224021e-08 0)
(0.81043302 7.4685638e-09 0)
(0.81043303 4.0346741e-09 0)
(0.81043304 1.1687436e-09 0)
(0.81043305 3.3773488e-10 0)
(0.81043305 -9.9292329e-10 0)
(0.81043306 -3.8564663e-10 0)
(0.81043306 -1.581829e-09 0)
(0.81043306 1.0464703e-11 0)
(0.81043306 -1.9261248e-09 0)
(0.81043307 9.5201057e-10 0)
(0.81043305 -2.7009581e-09 0)
(0.81043307 2.3717843e-09 0)
(0.81043304 -3.9189184e-09 0)
(0.81043308 4.1476704e-09 0)
(0.81043303 -5.4857208e-09 0)
(0.8104331 5.7842665e-09 0)
(0.81043301 -6.4518779e-09 0)
(0.81043313 6.0869231e-09 0)
(0.81043298 -5.3032122e-09 0)
(0.81043317 3.179109e-09 0)
(0.81043294 -1.4886552e-10 0)
(0.8104332 -4.2381093e-09 0)
(0.81043291 9.4100516e-09 0)
(0.81043323 -1.4613182e-08 0)
(0.81043289 1.9691703e-08 0)
(0.81043324 -2.222914e-08 0)
(0.81043289 2.2883332e-08 0)
(0.81043324 -1.884816e-08 0)
(0.81043289 1.2393695e-08 0)
(0.81043323 -1.8240208e-09 0)
(0.8104329 -8.8559553e-09 0)
(0.81043323 1.893385e-08 0)
(0.81043289 -2.6217695e-08 0)
(0.81043324 2.7532758e-08 0)
(0.81043289 -2.8821372e-08 0)
(0.81043324 1.8265398e-08 0)
(0.81043289 -2.5361215e-08 0)
(0.81043322 -8.2714431e-10 0)
(0.81043286 -4.3146375e-08 0)
(0.81043321 -3.5528041e-08 0)
(0.81043272 -1.0874127e-07 0)
(0.81043322 -1.4169241e-07 0)
(0.81043238 -2.9222235e-07 0)
(0.81043317 -4.6786265e-07 0)
(0.81043151 -8.1792383e-07 0)
(0.8104327 -1.3777596e-06 0)
(0.81042875 -2.1151776e-06 0)
(0.81043186 -3.2159677e-06 0)
(0.91890838 -0.035821907 0)
(0.86271384 -0.062195533 0)
(0.7870599 -0.062510008 0)
(0.69536079 -0.05454976 0)
(0.6108995 -0.044530409 0)
(0.54412026 -0.034013822 0)
(0.49343877 -0.024182395 0)
(0.45480974 -0.016135681 0)
(0.42546974 -0.010255631 0)
(0.40350742 -0.0062910786 0)
(0.3872076 -0.0037765391 0)
(0.37503644 -0.0022776367 0)
(0.36577202 -0.0014488101 0)
(0.35852317 -0.0010299144 0)
(0.35267191 -0.00083822223 0)
(0.34780395 -0.0007578267 0)
(0.34364977 -0.00072308738 0)
(0.34003837 -0.00069997692 0)
(0.33686346 -0.00067225053 0)
(0.3340599 -0.00063375871 0)
(0.33158768 -0.00058433414 0)
(0.32942081 -0.0005268291 0)
(0.3275396 -0.0004649419 0)
(0.32592599 -0.00040203039 0)
(0.3245611 -0.00034082485 0)
(0.32342429 -0.00028343456 0)
(0.32249309 -0.00023134941 0)
(0.32174359 -0.00018540588 0)
(0.3211513 -0.0001458606 0)
(0.32069198 -0.00011259885 0)
(0.32034266 -8.5250205e-05 0)
(0.32008225 -6.32766e-05 0)
(0.31989209 -4.6020889e-05 0)
(0.31975613 -3.2781114e-05 0)
(0.31966101 -2.2852045e-05 0)
(0.31959596 -1.5580371e-05 0)
(0.31955249 -1.0377629e-05 0)
(0.31952415 -6.7460933e-06 0)
(0.31950614 -4.2711297e-06 0)
(0.31949502 -2.628848e-06 0)
(0.31948836 -1.5673662e-06 0)
(0.3194845 -9.023607e-07 0)
(0.31948236 -4.9734111e-07 0)
(0.31948123 -2.6047189e-07 0)
(0.31948067 -1.2669522e-07 0)
(0.31948042 -5.583879e-08 0)
(0.31948033 -1.9433058e-08 0)
(0.31948031 -3.4436568e-09 0)
(0.31948032 2.8643192e-09 0)
(0.31948034 3.912591e-09 0)
(0.31948036 3.8397821e-09 0)
(0.31948037 2.4406538e-09 0)
(0.31948038 1.8271569e-09 0)
(0.31948039 6.6744915e-10 0)
(0.31948039 5.5059614e-10 0)
(0.3194804 -1.4804083e-10 0)
(0.3194804 7.3251195e-11 0)
(0.3194804 -3.8165056e-10 0)
(0.3194804 -1.3832087e-10 0)
(0.3194804 -3.0277601e-10 0)
(0.3194804 -2.4896886e-10 0)
(0.3194804 -9.5003471e-11 0)
(0.3194804 -4.9765032e-10 0)
(0.3194804 3.3672177e-10 0)
(0.31948039 -8.276229e-10 0)
(0.3194804 8.4821553e-10 0)
(0.31948039 -1.3069621e-09 0)
(0.31948041 1.4188327e-09 0)
(0.31948038 -1.7223011e-09 0)
(0.31948041 1.736283e-09 0)
(0.31948038 -1.7392117e-09 0)
(0.31948042 1.3931826e-09 0)
(0.31948037 -7.3360137e-10 0)
(0.31948043 -1.5973433e-10 0)
(0.31948036 1.3097544e-09 0)
(0.31948044 -2.6581207e-09 0)
(0.31948035 4.1163837e-09 0)
(0.31948045 -5.2174946e-09 0)
(0.31948035 6.0743436e-09 0)
(0.31948045 -6.0755266e-09 0)
(0.31948034 5.592566e-09 0)
(0.31948045 -4.3383201e-09 0)
(0.31948034 2.2639512e-09 0)
(0.31948046 -9.2839423e-10 0)
(0.31948033 -1.3111459e-09 0)
(0.31948047 1.3936648e-09 0)
(0.31948032 -4.5668868e-09 0)
(0.31948047 2.0026979e-09 0)
(0.31948032 -1.0163248e-08 0)
(0.31948046 -2.0326453e-10 0)
(0.31948029 -2.4857912e-08 0)
(0.31948041 -1.5910805e-08 0)
(0.31948021 -6.0528372e-08 0)
(0.3194803 -7.3975056e-08 0)
(0.31947998 -1.561716e-07 0)
(0.31947999 -2.4543341e-07 0)
(0.31947923 -4.5618208e-07 0)
(0.31947887 -7.5747724e-07 0)
(0.31947659 -1.2747964e-06 0)
(0.31947508 -1.7383613e-06 0)
)
;

boundaryField
{
    top
    {
        type            fixedValue;
        value           uniform (0 0 0);
    }
    inlet
    {
        type            fixedValue;
        value           uniform (1 0 0);
    }
    outlet
    {
        type            zeroGradient;
    }
    bottom
    {
        type            fixedValue;
        value           uniform (0 0 0);
    }
    back
    {
        type            empty;
    }
    front
    {
        type            empty;
    }
}


// ************************************************************************* //
