/*--------------------------------*- C++ -*----------------------------------*\
| =========                 |                                                 |
| \\      /  F ield         | OpenFOAM: The Open Source CFD Toolbox           |
|  \\    /   O peration     | Version:  v1812                                 |
|   \\  /    A nd           | Web:      www.OpenFOAM.com                      |
|    \\/     M anipulation  |                                                 |
\*---------------------------------------------------------------------------*/
FoamFile
{
    version     2.0;
    format      ascii;
    class       volScalarField;
    location    "4.45";
    object      p;
}
// * * * * * * * * * * * * * * * * * * * * * * * * * * * * * * * * * * * * * //

dimensions      [0 2 -2 0 0 0 0];


internalField   nonuniform List<scalar> 
1000
(
1.681235
1.5601571
1.4641766
1.4005205
1.352011
1.3095389
1.2720037
1.239832
1.2124316
1.1885941
1.1671997
1.147436
1.1287589
1.1108194
1.0934042
1.0763901
1.0597095
1.0433257
1.027218
1.0113728
0.99577891
0.98042537
0.96530091
0.95039387
0.9356924
0.92118476
0.90685962
0.89270622
0.87871453
0.86487527
0.85117996
0.83762085
0.8241908
0.81088322
0.7976919
0.7846109
0.77163439
0.75875659
0.74597164
0.73327354
0.72065615
0.70811321
0.69563831
0.68322502
0.67086693
0.65855775
0.64629141
0.63406214
0.62186455
0.60969367
0.59754503
0.58541466
0.57329909
0.56119534
0.54910092
0.53701373
0.5249321
0.51285467
0.50078036
0.48870834
0.47663798
0.46456881
0.45250048
0.44043272
0.42836536
0.41629826
0.40423134
0.39216453
0.38009779
0.36803111
0.35596445
0.34389781
0.33183118
0.31976456
0.30769794
0.29563132
0.2835647
0.27149809
0.25943147
0.24736486
0.23529824
0.22323163
0.21116502
0.1990984
0.18703179
0.17496517
0.16289856
0.15083195
0.13876533
0.12669872
0.11463211
0.10256549
0.090498882
0.078432273
0.066365663
0.054299061
0.042232463
0.0301659
0.018099375
0.0060330056
1.5640153
1.5090862
1.4481337
1.396566
1.353296
1.3143277
1.2787414
1.2469688
1.2190079
1.19423
1.1718282
1.1511268
1.1316453
1.1130573
1.0951438
1.0777591
1.0608075
1.0442264
1.0279741
1.0120212
0.99634508
0.98092682
0.96574983
0.95079884
0.93605962
0.92151883
0.90716404
0.89298375
0.87896737
0.86510523
0.85138856
0.83780936
0.82436037
0.81103487
0.79782661
0.78472964
0.77173814
0.75884637
0.74604851
0.7333386
0.72071055
0.70815809
0.69567482
0.68325427
0.67088999
0.65857563
0.64630502
0.63407229
0.62187195
0.60969893
0.59754866
0.58541708
0.57330063
0.56119626
0.54910142
0.53701396
0.52493217
0.51285464
0.50078028
0.48870825
0.47663789
0.46456873
0.45250041
0.44043267
0.42836532
0.41629823
0.40423131
0.39216451
0.38009778
0.3680311
0.35596444
0.34389781
0.33183118
0.31976455
0.30769794
0.29563132
0.2835647
0.27149809
0.25943147
0.24736486
0.23529824
0.22323163
0.21116502
0.1990984
0.18703179
0.17496517
0.16289856
0.15083195
0.13876533
0.12669872
0.1146321
0.10256549
0.090498878
0.078432268
0.06636565
0.054299038
0.042232415
0.030165824
0.018099244
0.006032902
1.5031941
1.477019
1.4386221
1.3974892
1.3584039
1.3218131
1.2875155
1.2557979
1.2269419
1.2008408
1.1770868
1.1551968
1.134747
1.1154062
1.0969261
1.0791252
1.0618736
1.0450782
1.0286726
1.0126081
0.99684858
0.98136614
0.96613809
0.95114521
0.93637069
0.9217995
0.9074181
0.8932142
0.8791767
0.8652955
0.85156149
0.83796642
0.82450277
0.81116368
0.79794273
0.78483386
0.77183119
0.75892891
0.7461212
0.73340209
0.72076551
0.70820519
0.69571477
0.68328778
0.67091777
0.65859837
0.6463234
0.63408695
0.62188349
0.60970789
0.59755552
0.58542225
0.57330447
0.56119908
0.54910345
0.5370154
0.52493317
0.51285532
0.50078074
0.48870855
0.47663809
0.46456886
0.45250049
0.44043271
0.42836534
0.41629824
0.40423132
0.39216452
0.38009779
0.3680311
0.35596445
0.34389781
0.33183118
0.31976455
0.30769794
0.29563132
0.2835647
0.27149809
0.25943147
0.24736486
0.23529824
0.22323163
0.21116502
0.1990984
0.18703179
0.17496517
0.16289856
0.15083195
0.13876533
0.12669872
0.1146321
0.10256549
0.090498864
0.078432246
0.066365605
0.054298964
0.042232287
0.03016564
0.018099014
0.0060327468
1.4737855
1.4582874
1.4314175
1.3974936
1.3616926
1.3267413
1.2934394
1.2620863
1.2329557
1.2061642
1.1815767
1.1588845
1.1377327
1.117804
1.0988459
1.0806664
1.0631208
1.0461002
1.029522
1.0133247
0.9974617
0.98189736
0.9666034
0.95155661
0.93673729
0.92212833
0.90771468
0.89348298
0.8794213
0.86551894
0.85176627
0.83815459
0.82467603
0.8113234
0.79809002
0.78496957
0.771956
0.75904335
0.7462257
0.73349702
0.7208512
0.70828199
0.69578305
0.68334796
0.67097031
0.65864378
0.64636225
0.63411982
0.62191099
0.60973063
0.5975741
0.58543726
0.57331644
0.56120851
0.54911078
0.53702104
0.52493745
0.51285853
0.50078311
0.48871028
0.47663934
0.46456974
0.45250111
0.44043314
0.42836564
0.41629844
0.40423146
0.39216461
0.38009784
0.36803114
0.35596447
0.34389782
0.33183119
0.31976456
0.30769794
0.29563132
0.2835647
0.27149809
0.25943147
0.24736486
0.23529824
0.22323163
0.21116502
0.1990984
0.18703179
0.17496517
0.16289856
0.15083194
0.13876533
0.12669871
0.11463209
0.10256548
0.090498845
0.078432214
0.066365547
0.05429887
0.04223214
0.030165445
0.018098802
0.0060326145
1.461054
1.4491006
1.4268663
1.3965787
1.3627175
1.3287219
1.2960244
1.2650188
1.2359214
1.2089096
1.1839825
1.160933
1.1394515
1.119234
1.1000305
1.0816485
1.0639398
1.0467897
1.0301093
1.013831
0.99790308
0.98228608
0.96694877
0.95186578
0.93701582
0.92238059
0.9079442
0.89369264
0.87961352
0.86569578
0.85192946
0.83830559
0.82481608
0.8114535
0.79821098
0.78508203
0.77206043
0.75914011
0.74631504
0.73357914
0.72092625
0.70835012
0.69584442
0.68340276
0.67101879
0.65868625
0.64639904
0.63415135
0.62193769
0.60975298
0.59759259
0.58545235
0.57332861
0.56121819
0.5491184
0.53702694
0.52494197
0.51286194
0.50078565
0.48871215
0.47664069
0.46457072
0.4525018
0.44043362
0.42836597
0.41629867
0.40423161
0.3921647
0.38009791
0.36803118
0.35596449
0.34389784
0.3318312
0.31976457
0.30769794
0.29563132
0.28356471
0.27149809
0.25943147
0.24736486
0.23529824
0.22323163
0.21116501
0.1990984
0.18703179
0.17496517
0.16289856
0.15083194
0.13876532
0.12669871
0.11463209
0.10256547
0.090498831
0.078432191
0.066365507
0.054298808
0.042232048
0.030165329
0.018098683
0.0060325435
1.461054
1.4491006
1.4268663
1.3965787
1.3627175
1.3287219
1.2960244
1.2650188
1.2359214
1.2089096
1.1839825
1.160933
1.1394515
1.119234
1.1000305
1.0816485
1.0639398
1.0467897
1.0301093
1.013831
0.99790308
0.98228608
0.96694878
0.95186579
0.93701582
0.9223806
0.9079442
0.89369265
0.87961353
0.86569579
0.85192946
0.8383056
0.82481608
0.8114535
0.79821098
0.78508202
0.77206043
0.75914011
0.74631504
0.73357914
0.72092625
0.70835012
0.69584442
0.68340276
0.67101879
0.65868624
0.64639904
0.63415135
0.62193769
0.60975298
0.59759258
0.58545235
0.57332861
0.56121819
0.54911839
0.53702694
0.52494196
0.51286194
0.50078565
0.48871215
0.47664069
0.46457072
0.4525018
0.44043362
0.42836597
0.41629867
0.40423161
0.3921647
0.38009791
0.36803118
0.3559645
0.34389784
0.3318312
0.31976457
0.30769794
0.29563132
0.28356471
0.27149809
0.25943147
0.24736486
0.23529824
0.22323163
0.21116501
0.1990984
0.18703179
0.17496517
0.16289856
0.15083194
0.13876532
0.12669871
0.11463209
0.10256547
0.090498831
0.078432192
0.066365507
0.054298808
0.042232049
0.03016533
0.018098684
0.0060325441
1.4737855
1.4582874
1.4314175
1.3974936
1.3616926
1.3267413
1.2934394
1.2620863
1.2329557
1.2061642
1.1815767
1.1588845
1.1377327
1.117804
1.0988459
1.0806664
1.0631208
1.0461002
1.029522
1.0133247
0.99746171
0.98189737
0.96660341
0.95155663
0.93673731
0.92212835
0.9077147
0.893483
0.87942132
0.86551896
0.85176628
0.8381546
0.82467604
0.81132341
0.79809002
0.78496957
0.77195599
0.75904334
0.74622568
0.733497
0.72085118
0.70828198
0.69578304
0.68334794
0.6709703
0.65864377
0.64636223
0.63411981
0.62191098
0.60973062
0.5975741
0.58543725
0.57331643
0.5612085
0.54911078
0.53702103
0.52493744
0.51285852
0.50078311
0.48871028
0.47663933
0.46456974
0.45250111
0.44043314
0.42836564
0.41629844
0.40423146
0.39216461
0.38009784
0.36803114
0.35596447
0.34389782
0.33183119
0.31976456
0.30769794
0.29563132
0.2835647
0.27149809
0.25943147
0.24736486
0.23529824
0.22323163
0.21116501
0.1990984
0.18703179
0.17496517
0.16289856
0.15083194
0.13876533
0.12669871
0.11463209
0.10256548
0.090498845
0.078432215
0.066365547
0.054298871
0.042232141
0.030165448
0.018098805
0.0060326159
1.503194
1.4770189
1.4386221
1.3974892
1.3584039
1.3218131
1.2875155
1.2557979
1.2269418
1.2008408
1.1770868
1.1551968
1.134747
1.1154062
1.0969261
1.0791252
1.0618736
1.0450782
1.0286726
1.0126081
0.99684859
0.98136616
0.96613811
0.95114523
0.93637071
0.92179953
0.90741813
0.89321423
0.87917672
0.86529552
0.85156151
0.83796643
0.82450278
0.81116368
0.79794273
0.78483385
0.77183118
0.7589289
0.74612118
0.73340207
0.72076549
0.70820517
0.69571475
0.68328776
0.67091775
0.65859835
0.64632338
0.63408694
0.62188347
0.60970787
0.59755551
0.58542224
0.57330446
0.56119907
0.54910344
0.5370154
0.52493316
0.51285532
0.50078074
0.48870855
0.47663809
0.46456886
0.45250049
0.44043271
0.42836534
0.41629825
0.40423133
0.39216452
0.38009779
0.3680311
0.35596445
0.34389781
0.33183118
0.31976456
0.30769794
0.29563132
0.2835647
0.27149809
0.25943147
0.24736486
0.23529824
0.22323163
0.21116501
0.1990984
0.18703179
0.17496517
0.16289856
0.15083194
0.13876533
0.12669871
0.1146321
0.10256549
0.090498865
0.078432247
0.066365607
0.054298965
0.042232288
0.030165643
0.018099018
0.0060327483
1.5640153
1.5090862
1.4481337
1.396566
1.353296
1.3143277
1.2787414
1.2469688
1.2190079
1.19423
1.1718282
1.1511268
1.1316453
1.1130573
1.0951438
1.0777591
1.0608075
1.0442264
1.0279741
1.0120213
0.9963451
0.98092684
0.96574985
0.95079887
0.93605965
0.92151886
0.90716407
0.89298378
0.87896739
0.86510526
0.85138858
0.83780938
0.82436038
0.81103487
0.79782661
0.78472963
0.77173813
0.75884636
0.74604849
0.73333858
0.72071053
0.70815807
0.6956748
0.68325425
0.67088997
0.65857561
0.646305
0.63407227
0.62187193
0.60969892
0.59754865
0.58541707
0.57330062
0.56119625
0.54910141
0.53701396
0.52493216
0.51285463
0.50078028
0.48870824
0.47663789
0.46456873
0.45250041
0.44043267
0.42836532
0.41629823
0.40423132
0.39216452
0.38009779
0.3680311
0.35596445
0.34389781
0.33183118
0.31976456
0.30769794
0.29563132
0.2835647
0.27149809
0.25943147
0.24736486
0.23529824
0.22323163
0.21116502
0.1990984
0.18703179
0.17496517
0.16289856
0.15083194
0.13876533
0.12669872
0.1146321
0.10256549
0.090498879
0.07843227
0.066365652
0.054299039
0.042232417
0.030165828
0.018099249
0.0060329036
1.681235
1.5601571
1.4641766
1.4005205
1.352011
1.3095389
1.2720037
1.239832
1.2124316
1.188594
1.1671997
1.1474359
1.1287589
1.1108194
1.0934042
1.0763901
1.0597095
1.0433257
1.027218
1.0113728
0.99577893
0.98042539
0.96530094
0.9503939
0.93569242
0.92118479
0.90685965
0.89270625
0.87871455
0.86487529
0.85117998
0.83762086
0.8241908
0.81088322
0.7976919
0.78461089
0.77163438
0.75875658
0.74597162
0.73327351
0.72065613
0.70811318
0.69563829
0.68322499
0.6708669
0.65855773
0.64629139
0.63406212
0.62186453
0.60969365
0.59754502
0.58541465
0.57329908
0.56119534
0.54910091
0.53701373
0.5249321
0.51285466
0.50078035
0.48870834
0.47663798
0.46456881
0.45250048
0.44043272
0.42836536
0.41629826
0.40423134
0.39216453
0.3800978
0.36803111
0.35596445
0.34389781
0.33183118
0.31976456
0.30769794
0.29563132
0.2835647
0.27149809
0.25943147
0.24736486
0.23529824
0.22323163
0.21116502
0.1990984
0.18703179
0.17496517
0.16289856
0.15083194
0.13876533
0.12669872
0.1146321
0.10256549
0.090498883
0.078432274
0.066365664
0.054299062
0.042232467
0.030165906
0.01809938
0.0060330072
)
;

boundaryField
{
    top
    {
        type            zeroGradient;
    }
    inlet
    {
        type            zeroGradient;
    }
    outlet
    {
        type            fixedValue;
        value           uniform 0;
    }
    bottom
    {
        type            zeroGradient;
    }
    back
    {
        type            empty;
    }
    front
    {
        type            empty;
    }
}


// ************************************************************************* //
