/*--------------------------------*- C++ -*----------------------------------*\
| =========                 |                                                 |
| \\      /  F ield         | OpenFOAM: The Open Source CFD Toolbox           |
|  \\    /   O peration     | Version:  v1812                                 |
|   \\  /    A nd           | Web:      www.OpenFOAM.com                      |
|    \\/     M anipulation  |                                                 |
\*---------------------------------------------------------------------------*/
FoamFile
{
    version     2.0;
    format      ascii;
    class       surfaceScalarField;
    location    "4.45";
    object      phi;
}
// * * * * * * * * * * * * * * * * * * * * * * * * * * * * * * * * * * * * * //

dimensions      [0 3 -1 0 0 0 0];
oriented        oriented;


internalField   nonuniform List<scalar> 
1890
(
0.0093061957
0.00069380425
0.0082843931
0.0010218027
0.0073298986
0.00095449449
0.0064869553
0.00084294333
0.0057695845
0.00071737078
0.0051898601
0.0005797244
0.0047381681
0.00045169198
0.0043951902
0.0003429779
0.0041390272
0.000256163
0.0039491076
0.00018991956
0.0038078891
0.00014121859
0.0037013798
0.00010650925
0.0036190604
8.2319402e-05
0.0035534154
6.5645031e-05
0.0034992898
5.4125562e-05
0.0034532521
4.6037754e-05
0.0034130609
4.0191166e-05
0.0033772725
3.5788461e-05
0.0033449597
3.2312829e-05
0.0033155187
2.9441022e-05
0.0032885417
2.6976965e-05
0.0032637379
2.4803903e-05
0.0032408856
2.2852297e-05
0.0032198061
2.1079595e-05
0.003200348
1.945814e-05
0.0031823799
1.796825e-05
0.0031657856
1.6594378e-05
0.0031504627
1.5323073e-05
0.0031363207
1.4142056e-05
0.0031232809
1.3039982e-05
0.0031112744
1.2006518e-05
0.003100242
1.1032562e-05
0.0030901317
1.0110404e-05
0.0030808979
9.2339075e-06
0.0030724994
8.3985582e-06
0.0030648979
7.6015029e-06
0.0030580566
6.8413841e-06
0.0030519385
6.1181806e-06
0.0030465056
5.4328735e-06
0.0030417184
4.7871734e-06
0.0030375353
4.1831263e-06
0.0030339124
3.6228213e-06
0.0030308043
3.108046e-06
0.0030281642
2.6400661e-06
0.0030259447
2.2194218e-06
0.0030240988
1.8458343e-06
0.0030225806
1.5181747e-06
0.003021346
1.234495e-06
0.0030203538
9.9214364e-07
0.0030195658
7.8787946e-07
0.0030189476
6.1810103e-07
0.0030184685
4.7894713e-07
0.0030181019
3.6650299e-07
0.0030178249
2.7691637e-07
0.0030176183
2.0656151e-07
0.0030174661
1.5208953e-07
0.0030173555
1.1052501e-07
0.0030172762
7.925768e-08
0.0030172201
5.6081381e-08
0.0030171809
3.9145224e-08
0.003017154
2.6954078e-08
0.0030171356
1.8301842e-08
0.0030171234
1.2256225e-08
0.0030171153
8.090335e-09
0.00301711
5.2671397e-09
0.0030171066
3.3783153e-09
0.0030171045
2.1386406e-09
0.0030171032
1.3329006e-09
0.0030171024
8.2244714e-10
0.0030171019
4.9879002e-10
0.0030171016
3.0226236e-10
0.0030171014
1.7927285e-10
0.0030171013
1.0920469e-10
0.0030171012
6.3929221e-11
0.0030171012
4.1259661e-11
0.0030171012
2.3991046e-11
0.0030171011
1.8402602e-11
0.0030171011
1.0178826e-11
0.0030171011
1.0587343e-11
0.0030171011
4.9501915e-12
0.0030171011
8.1101812e-12
0.0030171011
2.6516492e-12
0.0030171011
7.5055448e-12
0.0030171011
1.4315879e-12
0.0030171011
8.7493383e-12
0.0030171011
1.5274731e-12
0.0030171011
1.322049e-11
0.0030171011
5.5773935e-12
0.0030171011
2.692333e-11
0.003017101
2.2138484e-11
0.003017101
6.2673003e-11
0.0030171009
7.1092267e-11
0.0030171007
1.5687519e-10
0.0030171005
2.2539877e-10
0.0030171001
4.6770793e-10
0.0030170993
8.1391048e-10
0.0030170977
1.5917413e-09
0.0030170948
2.8431353e-09
0.0030170896
5.0860297e-09
7.4315413e-09
0.010339525
0.00035427932
0.010570754
0.00079057335
0.010606301
0.00091894821
0.010547573
0.00090167137
0.010422317
0.00084262621
0.010244356
0.00075768554
0.010039421
0.00065662732
0.0098287428
0.00055365566
0.0096251353
0.00045977048
0.0094353019
0.00037975297
0.0092624288
0.00031409172
0.0091075351
0.00026140296
0.008970157
0.00021969747
0.0088489074
0.00018689466
0.0087419796
0.00016105331
0.0086475052
0.00014051216
0.0085637133
0.00012398311
0.00848904
0.00011046178
0.0084221534
9.9199484e-05
0.0083619422
8.9652233e-05
0.0083074902
8.1428966e-05
0.0082580456
7.4248499e-05
0.0082129913
6.7906601e-05
0.0081718188
6.2252167e-05
0.0081341064
5.7170593e-05
0.0080995022
5.2572507e-05
0.0080677106
4.8386072e-05
0.0080384819
4.4551811e-05
0.0080116048
4.1019294e-05
0.0079868996
3.7745276e-05
0.0079642134
3.4692748e-05
0.0079434156
3.1830436e-05
0.0079243935
2.9132576e-05
0.0079070486
2.6578756e-05
0.0078912934
2.4153825e-05
0.0078770473
2.1847606e-05
0.0078642342
1.9654493e-05
0.0078527796
1.7572764e-05
0.0078426086
1.5603816e-05
0.0078336446
1.3751217e-05
0.0078258079
1.2019772e-05
0.0078190161
1.0414537e-05
0.0078131841
8.9399803e-06
0.0078082249
7.5992329e-06
0.0078040506
6.3935657e-06
0.0078005743
5.3220523e-06
0.007797711
4.3814509e-06
0.0077953791
3.5662908e-06
0.007793502
2.869111e-06
0.007792009
2.2808456e-06
0.0077908357
1.7912674e-06
0.0077899251
1.3894762e-06
0.0077892271
1.0643515e-06
0.007788699
8.0498629e-07
0.0077883044
6.0102179e-07
0.0077880135
4.4292093e-07
0.0077878019
3.2212877e-07
0.0077876499
2.311747e-07
0.0077875423
1.636772e-07
0.0077874671
1.1431799e-07
0.0077874153
7.874782e-08
0.0077873801
5.3494035e-08
0.0077873565
3.5827994e-08
0.0077873409
2.3656291e-08
0.0077873308
1.5395639e-08
0.0077873243
9.875348e-09
0.0077873202
6.2438856e-09
0.0077873177
3.8910852e-09
0.0077873161
2.3930005e-09
0.0077873151
1.4517006e-09
0.0077873146
8.7293056e-10
0.0077873142
5.1914719e-10
0.007787314
3.0997759e-10
0.0077873139
1.8407681e-10
0.0077873139
1.1349072e-10
0.0077873138
6.9455613e-11
0.0077873138
4.7773028e-11
0.0077873138
3.0621133e-11
0.0077873138
2.6069124e-11
0.0077873137
1.6430655e-11
0.0077873137
1.8849158e-11
0.0077873137
1.0296224e-11
0.0077873137
1.7252019e-11
0.0077873137
7.3979954e-12
0.0077873137
1.9498363e-11
0.0077873137
7.7260442e-12
0.0077873137
2.8236607e-11
0.0077873137
1.6254351e-11
0.0077873137
5.2745305e-11
0.0077873136
4.9589489e-11
0.0077873136
1.1843758e-10
0.0077873135
1.5198836e-10
0.0077873133
2.962871e-10
0.0077873131
4.6970839e-10
0.0077873128
8.5482986e-10
0.0077873121
1.5362243e-09
0.0077873111
2.6364968e-09
0.0077873092
4.5888666e-09
0.0077873075
6.7439316e-09
9.444732e-09
0.010188704
0.00016557515
0.010530487
0.000448791
0.010851453
0.00059798177
0.011124174
0.00062895025
0.011350581
0.00061621886
0.011524486
0.00058378052
0.01164633
0.00053478412
0.011724155
0.00047583032
0.011767999
0.00041592634
0.011786639
0.00036111346
0.011787114
0.00031361625
0.011775058
0.0002734589
0.011754861
0.00023989503
0.011729768
0.00021198694
0.011702054
0.00018876751
0.01167324
0.00016932629
0.011644341
0.00015288172
0.011616008
0.00013879534
0.011588637
0.00012656981
0.01156246
0.00011582973
0.011537594
0.00010629485
0.011514087
9.7755206e-05
0.011491943
9.005141e-05
0.011471135
8.3059875e-05
0.011451623
7.6682345e-05
0.011433357
7.083862e-05
0.011416282
6.5461453e-05
0.011400341
6.0492929e-05
0.011385478
5.5882149e-05
0.011371639
5.1583996e-05
0.011358773
4.7558643e-05
0.011346832
4.3771389e-05
0.011335772
4.0192671e-05
0.011325553
3.67982e-05
0.011316138
3.3569089e-05
0.011307493
3.04919e-05
0.011299589
2.75584e-05
0.011292397
2.4765126e-05
0.011285888
2.2112655e-05
0.011280035
1.960474e-05
0.011274807
1.7247232e-05
0.011270175
1.5046989e-05
0.011266104
1.3010741e-05
0.011262559
1.1144111e-05
0.011259502
9.4507632e-06
0.011256892
7.931808e-06
0.011254688
6.58545e-06
0.011252847
5.4068957e-06
0.011251328
4.3885188e-06
0.011250089
3.520205e-06
0.01124909
2.7898805e-06
0.011248295
2.1840853e-06
0.011247671
1.6886166e-06
0.011247187
1.2891039e-06
0.011246816
9.7155641e-07
0.011246536
7.2277277e-07
0.011246328
5.3067237e-07
0.011246174
3.8448443e-07
0.011246063
2.7485166e-07
0.011245984
1.9383121e-07
0.011245928
1.3483157e-07
0.011245889
9.2499506e-08
0.011245862
6.257535e-08
0.011245844
4.1736758e-08
0.011245832
2.7444123e-08
0.011245824
1.7787485e-08
0.011245819
1.1366166e-08
0.011245816
7.1582231e-09
0.011245814
4.4488162e-09
0.011245812
2.7262005e-09
0.011245811
1.6542311e-09
0.011245811
9.9173283e-10
0.011245811
5.9454376e-10
0.011245811
3.5388178e-10
0.01124581
2.160621e-10
0.01124581
1.3149845e-10
0.01124581
8.7471684e-11
0.01124581
5.5879356e-11
0.01124581
4.4656503e-11
0.01124581
2.9119278e-11
0.01124581
3.045166e-11
0.01124581
1.8507069e-11
0.01124581
2.6225307e-11
0.01124581
1.4302671e-11
0.01124581
2.7741936e-11
0.01124581
1.5327698e-11
0.01124581
3.6367486e-11
0.01124581
2.6898987e-11
0.01124581
6.1011718e-11
0.01124581
6.722664e-11
0.01124581
1.260378e-10
0.01124581
1.8511684e-10
0.01124581
3.0685361e-10
0.01124581
5.3986213e-10
0.01124581
8.7341589e-10
0.01124581
1.616997e-09
0.01124581
2.4944472e-09
0.011245811
4.2263614e-09
0.011245812
5.678204e-09
7.7169588e-09
0.010097182
6.8393557e-05
0.010346961
0.00019901112
0.010662469
0.00028247388
0.010982753
0.0003086665
0.011290229
0.00030874343
0.011575251
0.00029875788
0.011829022
0.00028101344
0.012047865
0.00025698749
0.012233271
0.00023051968
0.012389239
0.00020514564
0.012520294
0.00018256191
0.012630754
0.00016299882
0.012724425
0.00014622369
0.012804511
0.00013190119
0.012873607
0.00011967126
0.012933763
0.00010917004
0.012986583
0.00010006218
0.013033312
9.2066121e-05
0.013074922
8.4960183e-05
0.013112175
7.8576587e-05
0.013145679
7.2790269e-05
0.013175927
6.7507741e-05
0.01320332
6.2658033e-05
0.013228194
5.8185909e-05
0.013250829
5.4047015e-05
0.013271463
5.0204594e-05
0.013290298
4.6627139e-05
0.013307504
4.3286778e-05
0.013323228
4.0158206e-05
0.013337594
3.7218272e-05
0.013350706
3.4445887e-05
0.013362656
3.1822152e-05
0.013373518
2.9330509e-05
0.013383359
2.6956979e-05
0.013392238
2.4690416e-05
0.013400207
2.2522662e-05
0.013407317
2.0448601e-05
0.013413616
1.8465995e-05
0.013419153
1.6575221e-05
0.013423979
1.4778796e-05
0.013428146
1.3080842e-05
0.013431706
1.1486384e-05
0.013434716
1.0000691e-05
0.013437232
8.6285614e-06
0.013439309
7.3737475e-06
0.013441002
6.2384409e-06
0.013442365
5.2229557e-06
0.013443446
4.3255418e-06
0.013444292
3.5423961e-06
0.013444944
2.8678131e-06
0.01344544
2.294463e-06
0.01344581
1.8137686e-06
0.013446082
1.4163107e-06
0.013446279
1.0922681e-06
0.013446419
8.318001e-07
0.013446516
6.254093e-07
0.013446583
4.6419818e-07
0.013446627
3.4008428e-07
0.013446656
2.4590027e-07
0.013446675
1.754612e-07
0.013446686
1.235384e-07
0.013446693
8.5820631e-08
0.013446696
5.8817904e-08
0.013446698
3.9768068e-08
0.013446699
2.652571e-08
0.0134467
1.7453876e-08
0.0134467
1.1333368e-08
0.0134467
7.2614521e-09
0.0134467
4.5967444e-09
0.013446699
2.8740665e-09
0.013446699
1.7816103e-09
0.013446699
1.0938018e-09
0.013446699
6.7139256e-10
0.013446699
4.106594e-10
0.013446699
2.5625323e-10
0.013446699
1.6048264e-10
0.013446699
1.0705254e-10
0.013446699
7.065866e-11
0.013446699
5.4381572e-11
0.013446699
3.7764521e-11
0.013446699
3.5406699e-11
0.013446699
2.4851198e-11
0.013446699
2.8978102e-11
0.013446699
2.0483106e-11
0.013446699
2.8717618e-11
0.013446699
2.1845879e-11
0.013446699
3.4739691e-11
0.013446699
3.2614557e-11
0.013446699
5.2216641e-11
0.013446699
6.426679e-11
0.013446699
9.5690385e-11
0.013446699
1.4647592e-10
0.013446699
2.0963895e-10
0.013446699
3.7458484e-10
0.0134467
5.5537647e-10
0.0134467
1.0185694e-09
0.013446701
1.4846564e-09
0.013446703
2.4447205e-09
0.013446705
3.1607119e-09
4.2223176e-09
0.010068394
1.7900177e-12
0.010267405
6.4018919e-12
0.010549879
1.1798382e-11
0.010858545
1.8585588e-11
0.011167288
2.7103092e-11
0.011466046
3.8141675e-11
0.01174706
5.1678398e-11
0.012004047
6.8270242e-11
0.012234567
8.776747e-11
0.012439712
1.1115873e-10
0.012622274
1.3851311e-10
0.012785273
1.706268e-10
0.012931496
2.06505e-10
0.013063397
2.4541862e-10
0.013183068
2.844083e-10
0.013292238
3.2034902e-10
0.013392299
3.485985e-10
0.013484365
3.6505406e-10
0.013569325
3.6576509e-10
0.013647901
3.4729688e-10
0.013720691
3.0692914e-10
0.013788199
2.4387992e-10
0.013850856
1.5834629e-10
0.013909042
5.6123044e-11
0.013963089
-7.0024892e-11
0.014013294
-2.0277234e-10
0.014059922
-3.3512376e-10
0.014103209
-4.6674193e-10
0.014143368
-5.8086282e-10
0.014180587
-6.8139664e-10
0.014215033
-7.5185296e-10
0.014246856
-8.0035002e-10
0.014276188
-8.1340442e-10
0.014303145
-8.0327216e-10
0.014327837
-7.6181208e-10
0.01435036
-7.0284682e-10
0.014370809
-6.2281589e-10
0.014389276
-5.3481305e-10
0.014405851
-4.3893019e-10
0.01442063
-3.4612131e-10
0.014433712
-2.5746244e-10
0.014445198
-1.7949059e-10
0.014455199
-1.12897e-10
0.014463827
-6.0183929e-11
0.014471201
-2.0860063e-11
0.01447744
6.3876274e-12
0.014482663
2.5186001e-11
0.014486988
3.6595265e-11
0.01449053
4.3597326e-11
0.014493398
5.0450205e-11
0.014495693
5.6313699e-11
0.014497506
6.6982518e-11
0.014498922
7.7748984e-11
0.014500015
9.480529e-11
0.014500846
1.1030177e-10
0.014501472
1.3142539e-10
0.014501936
1.4781028e-10
0.014502276
1.6796405e-10
0.014502521
1.8015622e-10
0.014502697
1.9477081e-10
0.01450282
1.9932189e-10
0.014502906
2.0587055e-10
0.014502964
2.018099e-10
0.014503004
2.0043854e-10
0.01450303
1.890229e-10
0.014503048
1.8159016e-10
0.014503059
1.6544055e-10
0.014503066
1.5471348e-10
0.01450307
1.3654581e-10
0.014503073
1.2497078e-10
0.014503075
1.0712324e-10
0.014503076
9.6633144e-11
0.014503076
8.0549097e-11
0.014503077
7.2227211e-11
0.014503077
5.8766626e-11
0.014503077
5.299469e-11
0.014503077
4.2148167e-11
0.014503077
3.9004699e-11
0.014503077
3.0880076e-11
0.014503077
2.9805615e-11
0.014503077
2.3834375e-11
0.014503077
2.4617103e-11
0.014503077
2.0530374e-11
0.014503077
2.305338e-11
0.014503077
2.0543295e-11
0.014503077
2.4772005e-11
0.014503077
2.4011472e-11
0.014503077
3.0500929e-11
0.014503077
3.2165652e-11
0.014503077
4.0648803e-11
0.014503077
4.2653467e-11
0.014503077
4.8604615e-11
0.014503078
4.5500678e-11
0.014503078
4.7508695e-11
0.014503079
4.155068e-11
0.01450308
4.1568026e-11
0.014503081
4.0375912e-11
0.014503083
3.6476754e-11
0.014503086
2.3650394e-11
1.9487719e-11
0.010068394
-6.8393554e-05
0.010267405
-0.00019901111
0.010549879
-0.00028247386
0.010858545
-0.00030866646
0.011167288
-0.00030874337
0.011466046
-0.00029875781
0.01174706
-0.00028101334
0.012004047
-0.00025698736
0.012234567
-0.00023051951
0.012439712
-0.00020514542
0.012622274
-0.00018256164
0.012785273
-0.0001629985
0.012931496
-0.0001462233
0.013063397
-0.00013190073
0.013183068
-0.00011967073
0.013292238
-0.00010916945
0.0133923
-0.00010006154
0.013484365
-9.2065451e-05
0.013569325
-8.4959516e-05
0.013647902
-7.8575957e-05
0.013720692
-7.2789715e-05
0.013788199
-6.7507303e-05
0.013850857
-6.265775e-05
0.013909043
-5.8185814e-05
0.01396309
-5.4047137e-05
0.014013295
-5.0204946e-05
0.014059922
-4.6627723e-05
0.014103209
-4.3287582e-05
0.014143368
-4.015921e-05
0.014180586
-3.7219438e-05
0.014215033
-3.4447178e-05
0.014246856
-3.1823516e-05
0.014276187
-2.9331902e-05
0.014303144
-2.6958349e-05
0.014327835
-2.4691729e-05
0.014350359
-2.2523873e-05
0.014370808
-2.0449694e-05
0.014389274
-1.846694e-05
0.01440585
-1.6576021e-05
0.014420629
-1.4779441e-05
0.01443371
-1.3081349e-05
0.014445197
-1.1486758e-05
0.014455198
-1.0000956e-05
0.014463826
-8.628732e-06
0.0144712
-7.3738463e-06
0.014477439
-6.2384838e-06
0.014482662
-5.2229555e-06
0.014486987
-4.3255113e-06
0.014490529
-3.5423383e-06
0.014493397
-2.8677347e-06
0.014495692
-2.2943584e-06
0.014497505
-1.8136412e-06
0.014498922
-1.416151e-06
0.014500014
-1.0920798e-06
0.014500846
-8.3157439e-07
0.014501471
-6.2515297e-07
0.014501935
-4.6390607e-07
0.014502275
-3.3976686e-07
0.014502521
-2.4555591e-07
0.014502696
-1.7510327e-07
0.014502819
-1.2316752e-07
0.014502905
-8.5450698e-08
0.014502964
-5.8449461e-08
0.014503003
-3.9414056e-08
0.01450303
-2.6185358e-08
0.014503047
-1.7137596e-08
0.014503058
-1.1038018e-08
0.014503066
-6.9951557e-09
0.01450307
-4.3543614e-09
0.014503073
-2.6614209e-09
0.014503075
-1.5917576e-09
0.014503076
-9.3132678e-10
0.014503076
-5.2859083e-10
0.014503077
-2.909151e-10
0.014503077
-1.5141611e-10
0.014503077
-7.3968375e-11
0.014503077
-3.1304695e-11
0.014503077
-8.2606468e-12
0.014503077
2.5825808e-12
0.014503077
9.0912635e-12
0.014503077
9.7627037e-12
0.014503077
1.3570626e-11
0.014503077
1.1233251e-11
0.014503077
1.5853222e-11
0.014503077
1.2200816e-11
0.014503077
1.8178555e-11
0.014503077
1.3187821e-11
0.014503077
1.8347413e-11
0.014503077
9.8709093e-12
0.014503077
6.0511483e-12
0.014503077
-1.3848515e-11
0.014503077
-6.295787e-11
0.014503078
-1.2247503e-10
0.014503078
-2.9402234e-10
0.014503079
-4.7540624e-10
0.01450308
-9.4237394e-10
0.014503081
-1.4116347e-09
0.014503083
-2.3865019e-09
0.014503086
-3.1068575e-09
-4.1837551e-09
0.010097182
-0.00016557515
0.010346961
-0.00044879099
0.010662469
-0.00059798175
0.010982753
-0.00062895021
0.011290229
-0.00061621881
0.011575251
-0.00058378046
0.011829022
-0.00053478403
0.012047865
-0.00047583021
0.012233271
-0.0004159262
0.012389239
-0.00036111328
0.012520294
-0.00031361603
0.012630754
-0.00027345863
0.012724425
-0.00023989471
0.012804511
-0.00021198657
0.012873607
-0.00018876709
0.012933764
-0.00016932583
0.012986583
-0.00015288124
0.013033313
-0.00013879484
0.013074922
-0.00012656933
0.013112176
-0.00011582928
0.01314568
-0.00010629446
0.013175928
-9.77549e-05
0.013203321
-9.0051215e-05
0.013228195
-8.3059806e-05
0.013250831
-7.6682422e-05
0.013271464
-7.0838841e-05
0.013290299
-6.5461822e-05
0.013307504
-6.049343e-05
0.013323228
-5.5882772e-05
0.013337593
-5.1584714e-05
0.013350706
-4.7559437e-05
0.013362654
-4.377223e-05
0.013373516
-4.0193536e-05
0.013383357
-3.6799064e-05
0.013392235
-3.3569932e-05
0.013400204
-3.0492708e-05
0.013407314
-2.7559153e-05
0.013413613
-2.476582e-05
0.01341915
-2.2113276e-05
0.013423976
-1.9605291e-05
0.013428142
-1.7247705e-05
0.013431703
-1.504739e-05
0.013434713
-1.3011068e-05
0.013437229
-1.1144373e-05
0.013439306
-9.4509609e-06
0.013440999
-7.93195e-06
0.013442362
-6.5855395e-06
0.013443443
-5.4069383e-06
0.01344429
-4.3885187e-06
0.013444942
-3.5201648e-06
0.013445437
-2.7898041e-06
0.013445808
-2.1839738e-06
0.01344608
-1.6884738e-06
0.013446277
-1.2889311e-06
0.013446417
-9.7135735e-07
0.013446514
-7.2255058e-07
0.013446581
-5.3043116e-07
0.013446625
-3.8422912e-07
0.013446654
-2.7458626e-07
0.013446673
-1.9356202e-07
0.013446684
-1.3456172e-07
0.013446691
-9.2235588e-08
0.013446695
-6.2319106e-08
0.013446697
-4.1494276e-08
0.013446698
-2.7215258e-08
0.013446699
-1.7577175e-08
0.013446699
-1.1172707e-08
0.013446699
-6.9852908e-09
0.013446699
-4.2932377e-09
0.013446699
-2.5906082e-09
0.013446699
-1.5345426e-09
0.013446699
-8.8997799e-10
0.013446699
-5.0587163e-10
0.013446699
-2.7992609e-10
0.013446699
-1.5193274e-10
0.013446699
-7.8829045e-11
0.013446699
-4.1349912e-11
0.013446699
-1.7829148e-11
0.013446699
-1.0056808e-11
0.013446699
-8.9975526e-14
0.013446699
-2.2318352e-12
0.013446699
6.5907384e-12
0.013446699
1.8410457e-13
0.013446699
1.0768075e-11
0.013446699
8.4529657e-13
0.013446699
1.3586187e-11
0.013446699
-1.1042819e-12
0.013446699
1.0547085e-11
0.013446699
-1.4920551e-11
0.013446699
-1.582082e-11
0.013446699
-6.7886855e-11
0.013446699
-1.2650275e-10
0.013446699
-2.4810462e-10
0.013446699
-4.8658302e-10
0.0134467
-8.2351469e-10
0.0134467
-1.5697559e-09
0.013446701
-2.4422829e-09
0.013446703
-4.1752491e-09
0.013446706
-5.641847e-09
-7.6901013e-09
0.010188704
-0.00035427932
0.010530487
-0.00079057334
0.010851453
-0.00091894819
0.011124174
-0.00090167134
0.011350581
-0.00084262618
0.011524486
-0.00075768549
0.01164633
-0.00065662726
0.011724155
-0.00055365558
0.011767999
-0.00045977039
0.011786639
-0.00037975285
0.011787114
-0.00031409158
0.011775059
-0.0002614028
0.011754861
-0.00021969729
0.011729769
-0.00018689445
0.011702055
-0.00016105308
0.011673241
-0.00014051191
0.011644342
-0.00012398285
0.011616009
-0.00011046152
0.011588639
-9.9199234e-05
0.011562462
-8.9652002e-05
0.011537596
-8.1428767e-05
0.011514089
-7.4248338e-05
0.011491944
-6.7906489e-05
0.011471137
-6.225211e-05
0.011451625
-5.7170595e-05
0.011433359
-5.257257e-05
0.011416283
-4.8386194e-05
0.011400341
-4.4551991e-05
0.011385478
-4.1019522e-05
0.011371639
-3.7745554e-05
0.011358773
-3.4693057e-05
0.011346831
-3.1830782e-05
0.011335771
-2.9132939e-05
0.011325551
-2.6579143e-05
0.011316135
-2.4154215e-05
0.011307491
-2.1848009e-05
0.011299586
-1.9654887e-05
0.011292394
-1.7573157e-05
0.011285885
-1.5604189e-05
0.011280031
-1.3751575e-05
0.011274803
-1.2020099e-05
0.011270171
-1.0414836e-05
0.0112661
-8.9402425e-06
0.011262555
-7.5994576e-06
0.011259498
-6.3937519e-06
0.011256888
-5.3221973e-06
0.011254684
-4.3815602e-06
0.011252844
-3.5663604e-06
0.011251324
-2.8691503e-06
0.011250085
-2.2808496e-06
0.011249087
-1.7912481e-06
0.011248292
-1.389428e-06
0.011247668
-1.0642867e-06
0.011247184
-8.0489913e-07
0.011246813
-6.0092462e-07
0.011246534
-4.4280804e-07
0.011246325
-3.2201175e-07
0.011246172
-2.3104812e-07
0.011246061
-1.6355198e-07
0.011245982
-1.1418864e-07
0.011245926
-7.8624144e-08
0.011245887
-5.3370601e-08
0.011245861
-3.5713731e-08
0.011245843
-2.3545407e-08
0.011245831
-1.5295845e-08
0.011245823
-9.7807382e-09
0.011245818
-6.1613933e-09
0.011245815
-3.8144314e-09
0.011245813
-2.3281342e-09
0.011245812
-1.3922549e-09
0.011245811
-8.2447421e-10
0.011245811
-4.7507694e-10
0.01124581
-2.7524234e-10
0.01124581
-1.5221421e-10
0.01124581
-8.9424814e-11
0.01124581
-4.6686744e-11
0.01124581
-3.1030715e-11
0.01124581
-1.3634792e-11
0.01124581
-1.3584541e-11
0.01124581
-2.7654416e-12
0.01124581
-8.0610823e-12
0.01124581
3.1040922e-12
0.01124581
-6.1368013e-12
0.01124581
7.3220865e-12
0.01124581
-6.0258249e-12
0.01124581
1.0347413e-11
0.01124581
-1.0595307e-11
0.01124581
6.5557413e-12
0.01124581
-3.0489136e-11
0.01124581
-2.2261354e-11
0.01124581
-9.3742042e-11
0.01124581
-1.2366852e-10
0.01124581
-2.7215492e-10
0.01124581
-4.4827405e-10
0.01124581
-8.3227206e-10
0.01124581
-1.5045894e-09
0.01124581
-2.6060935e-09
0.011245811
-4.5744683e-09
0.011245812
-6.7395109e-09
-9.4442084e-09
0.010339525
-0.00069380425
0.010570754
-0.0010218027
0.010606301
-0.00095449448
0.010547573
-0.00084294332
0.010422317
-0.00071737076
0.010244356
-0.00057972438
0.010039421
-0.00045169195
0.009828743
-0.00034297787
0.0096251355
-0.00025616296
0.0094353022
-0.00018991952
0.0092624292
-0.00014121855
0.0091075356
-0.00010650921
0.0089701576
-8.2319353e-05
0.0088489081
-6.5644978e-05
0.0087419805
-5.4125505e-05
0.0086475063
-4.6037693e-05
0.0085637145
-4.01911e-05
0.0084890413
-3.5788392e-05
0.0084221548
-3.2312757e-05
0.0083619437
-2.944095e-05
0.0083074917
-2.6976892e-05
0.0082580472
-2.4803832e-05
0.0082129929
-2.2852229e-05
0.0081718203
-2.1079534e-05
0.0081341077
-1.9458088e-05
0.0080995033
-1.796821e-05
0.0080677115
-1.6594349e-05
0.0080384826
-1.5323058e-05
0.0080116051
-1.4142057e-05
0.0079868996
-1.3039994e-05
0.0079642131
-1.2006547e-05
0.0079434149
-1.1032599e-05
0.0079243924
-1.0110459e-05
0.0079070473
-9.2339662e-06
0.0078912917
-8.3986333e-06
0.0078770453
-7.6015773e-06
0.0078642318
-6.8414733e-06
0.0078527769
-6.1182662e-06
0.0078426057
-5.4329696e-06
0.0078336414
-4.7872627e-06
0.0078258045
-4.1832202e-06
0.0078190126
-3.622908e-06
0.0078131805
-3.1081313e-06
0.0078082212
-2.6401445e-06
0.007804047
-2.2194932e-06
0.0078005707
-1.8459009e-06
0.0077977074
-1.5182311e-06
0.0077953756
-1.2345485e-06
0.0077934987
-9.9218459e-07
0.0077920058
-7.879188e-07
0.0077908327
-6.1812745e-07
0.0077899223
-4.7897269e-07
0.0077892246
-3.6651582e-07
0.0077886966
-2.769288e-07
0.0077883023
-2.065623e-07
0.0077880116
-1.5209019e-07
0.0077878001
-1.1051547e-07
0.0077876483
-7.9248804e-08
0.0077875409
-5.6064301e-08
0.0077874658
-3.9129628e-08
0.0077874142
-2.693219e-08
0.0077873791
-1.8282731e-08
0.0077873557
-1.2232752e-08
0.0077873402
-8.0705391e-09
0.0077873302
-5.2443383e-09
0.0077873238
-3.3601561e-09
0.0077873198
-2.1185281e-09
0.0077873173
-1.3177307e-09
0.0077873158
-8.0570097e-10
0.0077873149
-4.8728447e-10
0.0077873144
-2.8927627e-10
0.0077873141
-1.712752e-10
0.007787314
-9.9311314e-11
0.0077873139
-5.8900957e-11
0.0077873138
-3.3965368e-11
0.0077873138
-2.0994167e-11
0.0077873138
-1.2738612e-11
0.0077873138
-8.3504258e-12
0.0077873138
-5.992147e-12
0.0077873138
-3.3953057e-12
0.0077873138
-3.5798784e-12
0.0077873138
-4.6001569e-13
0.0077873138
-2.5933463e-12
0.0077873138
1.6206421e-12
0.0077873138
-2.510086e-12
0.0077873138
3.1054277e-12
0.0077873138
-5.9182732e-12
0.0077873138
-7.7377435e-13
0.0077873138
-2.1974376e-11
0.0077873138
-2.2316092e-11
0.0077873137
-6.1425259e-11
0.0077873137
-7.1042359e-11
0.0077873135
-1.4994096e-10
0.0077873133
-2.1024077e-10
0.007787313
-4.4059806e-10
0.0077873123
-7.9219645e-10
0.0077873113
-1.5923041e-09
0.0077873094
-2.8641234e-09
0.0077873077
-5.1076534e-09
-7.4442436e-09
0.0093061957
0.0082843931
0.0073298986
0.0064869553
0.0057695845
0.0051898601
0.0047381682
0.0043951903
0.0041390273
0.0039491078
0.0038078893
0.0037013801
0.0036190607
0.0035534157
0.0034992902
0.0034532525
0.0034130614
0.0033772729
0.0033449602
0.0033155192
0.0032885423
0.0032637384
0.0032408862
0.0032198066
0.0032003485
0.0031823803
0.003165786
0.003150463
0.0031363209
0.0031232809
0.0031112744
0.0031002418
0.0030901314
0.0030808974
0.0030724987
0.0030648971
0.0030580557
0.0030519374
0.0030465044
0.0030417171
0.0030375339
0.003033911
0.0030308029
0.0030281628
0.0030259433
0.0030240974
0.0030225792
0.0030213447
0.0030203525
0.0030195646
0.0030189465
0.0030184675
0.003018101
0.0030178241
0.0030176176
0.0030174655
0.003017355
0.0030172757
0.0030172197
0.0030171806
0.0030171536
0.0030171354
0.0030171232
0.0030171151
0.0030171099
0.0030171065
0.0030171044
0.0030171031
0.0030171023
0.0030171018
0.0030171015
0.0030171014
0.0030171013
0.0030171012
0.0030171012
0.0030171012
0.0030171012
0.0030171012
0.0030171012
0.0030171012
0.0030171012
0.0030171012
0.0030171012
0.0030171012
0.0030171012
0.0030171012
0.0030171011
0.0030171011
0.0030171011
0.0030171011
0.003017101
0.0030171009
0.0030171008
0.0030171006
0.0030171002
0.0030170994
0.0030170978
0.0030170949
0.0030170897
)
;

boundaryField
{
    top
    {
        type            calculated;
        value           uniform 0;
    }
    inlet
    {
        type            calculated;
        value           nonuniform List<scalar> 10(-0.01 -0.01 -0.01 -0.01 -0.01 -0.01 -0.01 -0.01 -0.01 -0.01);
    }
    outlet
    {
        type            calculated;
        value           nonuniform List<scalar> 10(0.0030170822 0.0077873054 0.011245813 0.013446709 0.014503091 0.014503091 0.013446709 0.011245814 0.0077873057 0.0030170823);
    }
    bottom
    {
        type            calculated;
        value           uniform 0;
    }
    back
    {
        type            empty;
        value           nonuniform 0();
    }
    front
    {
        type            empty;
        value           nonuniform 0();
    }
}


// ************************************************************************* //
