/*--------------------------------*- C++ -*----------------------------------*\
| =========                 |                                                 |
| \\      /  F ield         | OpenFOAM: The Open Source CFD Toolbox           |
|  \\    /   O peration     | Version:  v1812                                 |
|   \\  /    A nd           | Web:      www.OpenFOAM.com                      |
|    \\/     M anipulation  |                                                 |
\*---------------------------------------------------------------------------*/
FoamFile
{
    version     2.0;
    format      ascii;
    class       surfaceScalarField;
    location    "13.9";
    object      phi;
}
// * * * * * * * * * * * * * * * * * * * * * * * * * * * * * * * * * * * * * //

dimensions      [0 3 -1 0 0 0 0];
oriented        oriented;


internalField   nonuniform List<scalar> 
1890
(
0.0093061958
0.00069380425
0.0082843931
0.0010218027
0.0073298986
0.00095449447
0.0064869552
0.00084294332
0.0057695844
0.00071737079
0.00518986
0.00057972444
0.004738168
0.00045169206
0.00439519
0.00034297802
0.0041390268
0.00025616318
0.003949107
0.00018991983
0.003807888
0.00014121897
0.0037013782
0.0001065098
0.003619058
8.232022e-05
0.0035534117
6.5646243e-05
0.0034992845
5.4127249e-05
0.0034532444
4.6040043e-05
0.0034130501
4.0194291e-05
0.0033772574
3.5792757e-05
0.0033449386
3.2318764e-05
0.0033154893
2.9449285e-05
0.0032885008
2.6988581e-05
0.0032636805
2.4820301e-05
0.003240805
2.2875477e-05
0.0032196926
2.1112413e-05
0.0032001879
1.9504652e-05
0.0031821539
1.8034014e-05
0.0031654671
1.668673e-05
0.0031500158
1.5451369e-05
0.0031356979
1.4317871e-05
0.0031224209
1.3277076e-05
0.0031101003
1.2320594e-05
0.0030986596
1.1440719e-05
0.0030880291
1.0630429e-05
0.0030781458
9.8833592e-06
0.003068952
9.1937657e-06
0.0030603955
8.5564934e-06
0.0030524285
7.9669199e-06
0.0030450076
7.42091e-06
0.0030380929
6.9147567e-06
0.0030316478
6.4451325e-06
0.0030256387
6.0090591e-06
0.0030200349
5.603842e-06
0.0030148078
5.227063e-06
0.0030099313
4.8765244e-06
0.0030053811
4.5502368e-06
0.0030011347
4.2463948e-06
0.0029971713
3.9633406e-06
0.0029934717
3.6995726e-06
0.002990018
3.4536995e-06
0.0029867936
3.2244416e-06
0.002983783
3.0106328e-06
0.0029809718
2.8111774e-06
0.0029783468
2.6250816e-06
0.0029758953
2.4514191e-06
0.002973606
2.2893318e-06
0.0029714679
2.138042e-06
0.0029694711
1.9968084e-06
0.0029676061
1.8649719e-06
0.0029658642
1.7418911e-06
0.0029642372
1.6269759e-06
0.0029627176
1.5196782e-06
0.0029612981
1.4194736e-06
0.0029599723
1.3258892e-06
0.0029587338
1.2384746e-06
0.002957577
1.1568189e-06
0.0029564964
1.0805514e-06
0.002955487
1.0093161e-06
0.0029545442
9.4279156e-07
0.0029536635
8.8068173e-07
0.0029528408
8.226752e-07
0.0029520724
7.6850974e-07
0.0029513545
7.1790739e-07
0.002950684
6.7062089e-07
0.0029500576
6.2642791e-07
0.0029494724
5.8512846e-07
0.0029489258
5.4653747e-07
0.0029484152
5.1050831e-07
0.0029479383
4.7685573e-07
0.0029474928
4.4547155e-07
0.0029470767
4.1615364e-07
0.0029466879
3.888008e-07
0.0029463248
3.632063e-07
0.0029459856
3.3930522e-07
0.0029456688
3.1689975e-07
0.0029453727
2.960008e-07
0.0029450962
2.7638318e-07
0.0029448379
2.582398e-07
0.0029445966
2.4113816e-07
0.0029443711
2.2540872e-07
0.0029441609
2.1047065e-07
0.0029439641
1.9689222e-07
0.0029437804
1.8374604e-07
0.0029436085
1.7197017e-07
0.0029434482
1.602481e-07
0.0029432978
1.5019983e-07
0.0029431574
1.4037718e-07
0.0029430254
1.3214357e-07
0.0029429003
1.2510895e-07
0.0029427808
1.1943128e-07
1.2579303e-07
0.010339525
0.00035427931
0.010570754
0.00079057333
0.010606301
0.00091894818
0.010547572
0.00090167135
0.010422317
0.00084262623
0.010244356
0.0007576856
0.010039421
0.00065662746
0.0098287427
0.00055365588
0.009625135
0.00045977084
0.0094353013
0.00037975354
0.0092624277
0.00031409258
0.0091075332
0.00026140425
0.008970154
0.00021969948
0.0088489023
0.00018689786
0.0087419716
0.00016105802
0.0086474927
0.00014051894
0.008563694
0.00012399297
0.0084890108
0.00011047601
0.0084221096
9.9219876e-05
0.0083618775
8.9681409e-05
0.0083073954
8.1470669e-05
0.0082579079
7.4307844e-05
0.0082127929
6.799049e-05
0.0081715353
6.2369982e-05
0.0081337049
5.7335009e-05
0.0080989388
5.2800184e-05
0.0080669272
4.8698272e-05
0.0080374036
4.4974966e-05
0.0080101361
4.1585402e-05
0.0079849213
3.8491856e-05
0.0079615798
3.5662158e-05
0.0079399519
3.3068609e-05
0.0079198952
3.0687164e-05
0.0079012817
2.8496839e-05
0.0078839962
2.6479233e-05
0.0078679345
2.461814e-05
0.0078530022
2.2899248e-05
0.0078391132
2.1309858e-05
0.0078261893
1.9838678e-05
0.0078141589
1.8475626e-05
0.0078029563
1.7211674e-05
0.0077925214
1.6038724e-05
0.007782799
1.4949469e-05
0.0077737382
1.3937321e-05
0.0077652921
1.2996303e-05
0.0077574175
1.2120992e-05
0.0077500744
1.130645e-05
0.0077432258
1.054816e-05
0.0077368375
9.8419921e-06
0.0077308778
9.1841559e-06
0.0077253173
8.5711638e-06
0.0077201287
7.9998173e-06
0.0077152866
7.4671549e-06
0.0077107676
6.9704591e-06
0.0077065496
6.5072182e-06
0.0077026125
6.0751118e-06
0.0076989373
5.6720077e-06
0.0076955064
5.2959142e-06
0.0076923033
4.9449894e-06
0.0076893128
4.6175072e-06
0.0076865206
4.3118643e-06
0.0076839135
4.0265754e-06
0.0076814792
3.7602467e-06
0.0076792061
3.5116029e-06
0.0076770834
3.2794555e-06
0.0076751012
3.0627059e-06
0.0076732501
2.8603423e-06
0.0076715215
2.6714135e-06
0.0076699071
2.4950273e-06
0.0076683995
2.3303473e-06
0.0076669915
2.1765728e-06
0.0076656765
2.0329535e-06
0.0076644483
1.8988079e-06
0.0076633013
1.7734834e-06
0.0076622299
1.6564276e-06
0.0076612293
1.5470867e-06
0.0076602948
1.445005e-06
0.0076594219
1.3496809e-06
0.0076586067
1.2607278e-06
0.0076578452
1.1776307e-06
0.007657134
1.1000862e-06
0.0076564698
1.0275313e-06
0.0076558493
9.5984291e-07
0.0076552697
8.9640924e-07
0.0076547283
8.373439e-07
0.0076542228
7.8186841e-07
0.0076537504
7.3051732e-07
0.0076533093
6.8219053e-07
0.0076528971
6.3767653e-07
0.0076525125
5.951062e-07
0.0076521528
5.5675529e-07
0.0076518173
5.1937929e-07
0.0076515029
4.8623545e-07
0.0076512105
4.5244032e-07
0.0076509354
4.2516324e-07
0.0076506807
3.9526248e-07
0.0076504387
3.7433518e-07
0.0076502166
3.471397e-07
0.0076499999
3.3608727e-07
3.1079276e-07
0.010188704
0.00016557514
0.010530487
0.00044879098
0.010851453
0.00059798175
0.011124174
0.00062895023
0.011350581
0.00061621886
0.011524486
0.00058378056
0.01164633
0.00053478422
0.011724155
0.00047583051
0.011767999
0.00041592666
0.011786639
0.000361114
0.011787114
0.00031361711
0.011775058
0.00027346025
0.011754861
0.00023989718
0.011729768
0.00021199031
0.011702054
0.00018877261
0.011673239
0.00016933388
0.011644339
0.00015289297
0.011616003
0.00013881183
0.011588629
0.0001265938
0.011562446
0.00011586445
0.011537572
0.00010634494
0.011514052
9.7826997e-05
0.01149189
9.0153357e-05
0.011471056
8.3203361e-05
0.011451509
7.6882609e-05
0.011433193
7.1115562e-05
0.011416051
6.5840299e-05
0.011400021
6.1004916e-05
0.011385042
5.6565079e-05
0.011371051
5.2482345e-05
0.01135799
4.8723032e-05
0.011345801
4.5257389e-05
0.01133443
4.2058991e-05
0.011323822
3.9104266e-05
0.011313929
3.6372113e-05
0.011304704
3.38436e-05
0.011296101
3.1501691e-05
0.01128808
2.9331021e-05
0.011280601
2.7317709e-05
0.011273628
2.5449188e-05
0.011267125
2.371406e-05
0.011261062
2.2101959e-05
0.011255408
2.0603457e-05
0.011250135
1.9209944e-05
0.011245218
1.7913558e-05
0.011240632
1.6707105e-05
0.011236354
1.5583978e-05
0.011232364
1.4538118e-05
0.011228643
1.3563942e-05
0.01122517
1.2656314e-05
0.011221931
1.1810499e-05
0.011218909
1.1022116e-05
0.011216089
1.0287133e-05
0.011213457
9.6018119e-06
0.011211002
8.9627017e-06
0.01120871
8.3666154e-06
0.011206572
7.8105925e-06
0.011204576
7.2918887e-06
0.011202713
6.807939e-06
0.011200974
6.3563696e-06
0.011199351
5.9349732e-06
0.011197836
5.5416847e-06
0.011196422
5.1746083e-06
0.011195101
4.8319644e-06
0.011193868
4.5121194e-06
0.011192718
4.2135457e-06
0.011191643
3.9348273e-06
0.01119064
3.6746381e-06
0.011189703
3.4317417e-06
0.011188829
3.2049595e-06
0.011188012
2.9932188e-06
0.01118725
2.795477e-06
0.011186538
2.6108163e-06
0.011185873
2.4383487e-06
0.011185252
2.2773065e-06
0.011184672
2.1269058e-06
0.01118413
1.9865115e-06
0.011183625
1.8553897e-06
0.011183152
1.7330255e-06
0.011182711
1.6186748e-06
0.0111823
1.5119604e-06
0.011181915
1.4121211e-06
0.011181556
1.3190433e-06
0.01118122
1.2318046e-06
0.011180907
1.1506774e-06
0.011180614
1.0745138e-06
0.011180341
1.0040856e-06
0.011180086
9.3729527e-07
0.011179847
8.7628261e-07
0.011179624
8.1776807e-07
0.011179416
7.6522684e-07
0.011179223
7.1270818e-07
0.01117904
6.6817077e-07
0.011178871
6.2103598e-07
0.011178712
5.8523066e-07
0.011178566
5.4113891e-07
0.011178425
5.152234e-07
0.0111783
4.7223689e-07
0.011178177
4.5901441e-07
4.1608927e-07
0.010097182
6.8393548e-05
0.010346961
0.0001990111
0.010662469
0.00028247386
0.010982753
0.00030866648
0.011290229
0.00030874342
0.011575251
0.00029875789
0.011829022
0.00028101347
0.012047865
0.00025698756
0.012233272
0.00023051983
0.01238924
0.0002051459
0.012520295
0.00018256235
0.012630755
0.00016299957
0.012724428
0.0001462249
0.012804515
0.00013190312
0.012873613
0.00011967426
0.012933772
0.00010917461
0.012986596
0.00010006907
0.013033332
9.2076371e-05
0.01307495
8.4975256e-05
0.013112216
7.8598615e-05
0.013145739
7.2822303e-05
0.013176012
6.7553937e-05
0.013203441
6.2723921e-05
0.013228366
5.8278892e-05
0.013251071
5.4176986e-05
0.013271802
5.0384433e-05
0.01329077
4.6873167e-05
0.013308155
4.3619185e-05
0.013324119
4.0601467e-05
0.0133388
3.7801288e-05
0.013352321
3.5201759e-05
0.013364791
3.2787535e-05
0.013376306
3.0544593e-05
0.01338695
2.8460086e-05
0.0133968
2.6522216e-05
0.013405923
2.4720131e-05
0.013414381
2.3043842e-05
0.013422228
2.1484146e-05
0.013429513
2.0032564e-05
0.013436281
1.8681276e-05
0.013442572
1.7423067e-05
0.013448423
1.6251281e-05
0.013453866
1.5159763e-05
0.013458933
1.4142828e-05
0.013463652
1.3195218e-05
0.013468047
1.2312069e-05
0.013472142
1.148887e-05
0.013475958
1.0721443e-05
0.013479517
1.0005917e-05
0.013482834
9.3386967e-06
0.013485928
8.716446e-06
0.013488814
8.1360746e-06
0.013491507
7.5947021e-06
0.013494019
7.0896659e-06
0.013496363
6.6184923e-06
0.013498551
6.1788834e-06
0.013500593
5.7686951e-06
0.013502499
5.385926e-06
0.013504278
5.0287186e-06
0.013505939
4.6953404e-06
0.01350749
4.3841756e-06
0.013508938
4.0937329e-06
0.01351029
3.822614e-06
0.013511552
3.5695287e-06
0.013512731
3.3332713e-06
0.013513832
3.1127209e-06
0.01351486
2.9068321e-06
0.01351582
2.714617e-06
0.013516716
2.5351621e-06
0.013517554
2.3676036e-06
0.013518336
2.211134e-06
0.013519066
2.0650124e-06
0.013519749
1.9285641e-06
0.013520386
1.8011365e-06
0.013520981
1.6821748e-06
0.013521536
1.5710831e-06
0.013522056
1.4673886e-06
0.013522541
1.3705293e-06
0.013522994
1.280123e-06
0.013523417
1.1956056e-06
0.013523812
1.1167382e-06
0.013524181
1.0429387e-06
0.013524526
9.741787e-07
0.013524848
9.097105e-07
0.013525148
8.4990897e-07
0.013525429
7.936608e-07
0.013525692
7.4162213e-07
0.013525937
6.9217734e-07
0.013526166
6.4740258e-07
0.01352638
6.0395069e-07
0.01352658
5.6505996e-07
0.013526767
5.2581451e-07
0.013526941
4.9375926e-07
0.013527103
4.5844391e-07
0.013527256
4.3261784e-07
0.013527399
3.9888598e-07
0.013527533
3.8078868e-07
0.013527658
3.4707017e-07
0.013527779
3.3798583e-07
3.0563298e-07
0.010068394
-5.8055732e-12
0.010267405
-1.1845311e-11
0.010549879
-8.1912634e-12
0.010858545
-2.0667686e-12
0.011167288
3.4475979e-12
0.011466046
3.6993487e-12
0.01174706
2.5330812e-12
0.012004047
1.104369e-12
0.012234567
-7.1386791e-13
0.012439713
-2.4438449e-12
0.012622275
-2.6598152e-12
0.012785275
-1.7552184e-12
0.0129315
-8.2361604e-13
0.013063403
1.9970627e-12
0.013183077
3.9409084e-12
0.013292252
3.6740183e-12
0.013392321
2.7095549e-12
0.013484397
2.0825361e-12
0.013569373
1.5772874e-12
0.013647971
8.545292e-14
0.013720793
-1.7223298e-12
0.013788347
-2.8911753e-12
0.013851071
-2.6924177e-12
0.01390935
-2.1665194e-12
0.013963527
-1.1515491e-13
0.014013912
2.0927968e-12
0.014060785
2.7900105e-12
0.014104404
3.3549819e-12
0.014145005
4.9643371e-12
0.014182807
4.4291222e-12
0.014218009
2.2400068e-12
0.014250796
-8.2785178e-13
0.014281341
-4.3558898e-12
0.014309801
-7.662127e-12
0.014336323
-8.2535492e-12
0.014361043
-4.8068981e-12
0.014384087
5.34168e-13
0.014405571
5.2762003e-12
0.014425604
8.6586529e-12
0.014444285
9.3858299e-12
0.014461708
6.6586238e-12
0.014477959
1.5780957e-12
0.014493119
-3.4497301e-12
0.014507262
-7.6880226e-12
0.014520457
-9.0278484e-12
0.014532769
-6.653764e-12
0.014544258
-2.4789849e-12
0.014554979
3.3676472e-12
0.014564985
1.0766247e-11
0.014574324
1.6935451e-11
0.014583041
1.6462337e-11
0.014591177
8.1492487e-12
0.014598771
-2.5757766e-12
0.014605861
-1.3935859e-11
0.014612479
-1.940769e-11
0.014618658
-1.4112173e-11
0.014624427
-1.3871232e-12
0.014629813
1.2251157e-11
0.014634842
2.4081686e-11
0.014639537
2.6752669e-11
0.014643921
1.9517623e-11
0.014648015
5.3837599e-12
0.014651837
-8.4993244e-12
0.014655407
-1.909998e-11
0.01465874
-2.2977042e-11
0.014661853
-1.5445659e-11
0.01466476
1.0683631e-12
0.014667474
2.1326562e-11
0.01467001
3.8101168e-11
0.014672377
4.043305e-11
0.014674588
2.8937133e-11
0.014676653
5.2367619e-12
0.014678582
-2.1894814e-11
0.014680383
-3.7407323e-11
0.014682065
-3.9113783e-11
0.014683636
-1.6670323e-11
0.014685104
1.8754042e-11
0.014686474
4.947836e-11
0.014687754
6.280925e-11
0.01468895
4.5053907e-11
0.014690067
1.0577395e-11
0.01469111
-2.2495582e-11
0.014692084
-5.3220819e-11
0.014692993
-5.7347574e-11
0.014693843
-1.2463621e-11
0.014694637
3.1893297e-11
0.014695379
2.5985839e-11
0.014696071
5.5494954e-11
0.014696718
1.2776728e-10
0.014697322
4.5732992e-11
0.014697888
-1.5221779e-10
0.014698413
-1.5413403e-10
0.014698906
-4.1535911e-11
0.014699365
8.8285104e-11
0.014699799
1.272243e-10
0.014700197
2.4974729e-11
0.014700577
-6.4187121e-11
0.014700925
-9.2317465e-11
0.014701263
-9.6107986e-11
-7.2177502e-11
0.010068394
-6.8393558e-05
0.010267405
-0.00019901113
0.010549879
-0.00028247388
0.010858545
-0.00030866649
0.011167288
-0.00030874342
0.011466046
-0.00029875788
0.01174706
-0.00028101346
0.012004047
-0.00025698756
0.012234567
-0.00023051982
0.012439713
-0.0002051459
0.012622275
-0.00018256236
0.012785275
-0.00016299957
0.0129315
-0.00014622491
0.013063403
-0.00013190312
0.013183077
-0.00011967426
0.013292252
-0.00010917461
0.013392321
-0.00010006907
0.013484397
-9.2076363e-05
0.013569373
-8.4975251e-05
0.013647971
-7.8598614e-05
0.013720793
-7.2822305e-05
0.013788347
-6.755394e-05
0.013851071
-6.2723926e-05
0.01390935
-5.8278897e-05
0.013963527
-5.4176987e-05
0.014013912
-5.0384431e-05
0.014060785
-4.6873163e-05
0.014104404
-4.3619177e-05
0.014145005
-4.0601458e-05
0.014182807
-3.7801279e-05
0.014218009
-3.5201756e-05
0.014250796
-3.2787537e-05
0.014281341
-3.0544602e-05
0.014309801
-2.84601e-05
0.014336323
-2.6522229e-05
0.014361043
-2.4720138e-05
0.014384087
-2.304384e-05
0.014405571
-2.1484137e-05
0.014425604
-2.0032549e-05
0.014444285
-1.8681259e-05
0.014461708
-1.7423057e-05
0.014477959
-1.6251277e-05
0.014493119
-1.5159767e-05
0.014507262
-1.414284e-05
0.014520457
-1.3195234e-05
0.014532769
-1.2312082e-05
0.014544258
-1.1488875e-05
0.014554979
-1.0721437e-05
0.014564985
-1.0005897e-05
0.014574324
-9.3386691e-06
0.014583041
-8.7164232e-06
0.014591177
-8.1360603e-06
0.014598771
-7.5947056e-06
0.014605861
-7.0896859e-06
0.014612479
-6.6185186e-06
0.014618658
-6.1789013e-06
0.014624427
-5.7686944e-06
0.014629813
-5.3859088e-06
0.014634842
-5.0286863e-06
0.014639537
-4.6952987e-06
0.014643921
-4.3841444e-06
0.014648015
-4.0937196e-06
0.014651837
-3.8226245e-06
0.014655407
-3.569556e-06
0.01465874
-3.3333076e-06
0.014661853
-3.1127484e-06
0.01466476
-2.906832e-06
0.014667475
-2.7145867e-06
0.01467001
-2.5351082e-06
0.014672377
-2.3675379e-06
0.014674588
-2.2110926e-06
0.014676653
-2.0650038e-06
0.014678582
-1.9285927e-06
0.014680383
-1.8011915e-06
0.014682065
-1.6822228e-06
0.014683636
-1.5711005e-06
0.014685104
-1.4673603e-06
0.014686474
-1.3704618e-06
0.014687755
-1.2800453e-06
0.01468895
-1.1955451e-06
0.014690067
-1.1167228e-06
0.014691109
-1.0429723e-06
0.014692084
-9.7424015e-07
0.014692993
-9.0977911e-07
0.014693843
-8.4993116e-07
0.014694637
-7.9362164e-07
0.014695379
-7.4157469e-07
0.014696071
-6.921187e-07
0.014696718
-6.4727175e-07
0.014697323
-6.0383571e-07
0.014697888
-5.6527187e-07
0.014698412
-5.261381e-07
0.014698905
-4.9366238e-07
0.014699366
-4.5818939e-07
0.014699799
-4.3266875e-07
0.014700197
-3.9907148e-07
0.014700577
-3.8084933e-07
0.014700924
-3.470638e-07
0.014701263
-3.3805455e-07
-3.0572829e-07
0.010097182
-0.00016557515
0.010346961
-0.000448791
0.010662469
-0.00059798177
0.010982753
-0.00062895025
0.011290229
-0.00061621886
0.011575251
-0.00058378055
0.011829022
-0.00053478421
0.012047865
-0.0004758305
0.012233272
-0.00041592666
0.01238924
-0.000361114
0.012520295
-0.00031361712
0.012630755
-0.00027346026
0.012724428
-0.00023989719
0.012804515
-0.00021199031
0.012873613
-0.0001887726
0.012933772
-0.00016933388
0.012986596
-0.00015289296
0.013033332
-0.00013881183
0.01307495
-0.00012659379
0.013112216
-0.00011586445
0.013145739
-0.00010634494
0.013176012
-9.7827001e-05
0.013203441
-9.0153362e-05
0.013228366
-8.3203366e-05
0.013251071
-7.6882614e-05
0.013271802
-7.1115562e-05
0.01329077
-6.5840294e-05
0.013308155
-6.100491e-05
0.013324119
-5.6565071e-05
0.0133388
-5.248234e-05
0.013352321
-4.8723029e-05
0.013364791
-4.5257391e-05
0.013376306
-4.2058997e-05
0.01338695
-3.9104273e-05
0.0133968
-3.6372122e-05
0.013405923
-3.3843608e-05
0.013414381
-3.1501694e-05
0.013422228
-2.9331016e-05
0.013429513
-2.7317699e-05
0.013436281
-2.5449176e-05
0.013442572
-2.3714046e-05
0.013448423
-2.2101952e-05
0.013453866
-2.0603457e-05
0.013458933
-1.9209952e-05
0.013463652
-1.7913572e-05
0.013468047
-1.6707117e-05
0.013472142
-1.5583986e-05
0.013475959
-1.4538114e-05
0.013479517
-1.3563931e-05
0.013482834
-1.2656299e-05
0.013485928
-1.1810481e-05
0.013488814
-1.1022105e-05
0.013491507
-1.0287128e-05
0.013494019
-9.6018158e-06
0.013496363
-8.9627143e-06
0.013498551
-8.3666316e-06
0.013500593
-7.8106072e-06
0.013502499
-7.2918873e-06
0.013504278
-6.8079242e-06
0.013505939
-6.3563455e-06
0.01350749
-5.9349412e-06
0.013508938
-5.5416616e-06
0.01351029
-5.1745992e-06
0.013511552
-4.8319757e-06
0.013512731
-4.5121409e-06
0.013513832
-4.2135689e-06
0.01351486
-3.9348432e-06
0.01351582
-3.6746341e-06
0.013516716
-3.4317175e-06
0.013517554
-3.2049276e-06
0.013518336
-2.9931794e-06
0.013519066
-2.7954504e-06
0.013519748
-2.6108096e-06
0.013520386
-2.4383608e-06
0.013520981
-2.2773306e-06
0.013521537
-2.1269329e-06
0.013522056
-1.9865292e-06
0.013522541
-1.8553862e-06
0.013522994
-1.7329965e-06
0.013523417
-1.6186287e-06
0.013523812
-1.5119134e-06
0.013524181
-1.4120904e-06
0.013524526
-1.3190364e-06
0.013524848
-1.2318258e-06
0.013525149
-1.1507462e-06
0.01352543
-1.0745562e-06
0.013525692
-1.0040432e-06
0.013525937
-9.3726367e-07
0.013526166
-8.7634618e-07
0.01352638
-8.177695e-07
0.01352658
-7.6503032e-07
0.013526766
-7.1258062e-07
0.013526941
-6.6834278e-07
0.013527105
-6.21261e-07
0.013527257
-5.8527523e-07
0.013527398
-5.4111885e-07
0.013527533
-5.1519806e-07
0.013527658
-4.7219626e-07
0.01352778
-4.5901149e-07
-4.1611555e-07
0.010188704
-0.00035427932
0.010530487
-0.00079057335
0.010851453
-0.00091894821
0.011124174
-0.00090167137
0.011350581
-0.00084262624
0.011524487
-0.0007576856
0.01164633
-0.00065662744
0.011724155
-0.00055365586
0.011767999
-0.00045977083
0.011786639
-0.00037975354
0.011787114
-0.00031409259
0.011775058
-0.00026140426
0.011754861
-0.00021969949
0.011729768
-0.00018689786
0.011702054
-0.00016105802
0.011673239
-0.00014051894
0.011644339
-0.00012399296
0.011616003
-0.000110476
0.011588629
-9.9219871e-05
0.011562446
-8.9681405e-05
0.011537572
-8.1470668e-05
0.011514052
-7.4307845e-05
0.01149189
-6.7990494e-05
0.011471056
-6.2369987e-05
0.011451509
-5.7335014e-05
0.011433193
-5.2800187e-05
0.011416051
-4.8698271e-05
0.011400021
-4.4974961e-05
0.011385042
-4.1585398e-05
0.011371051
-3.8491851e-05
0.01135799
-3.5662156e-05
0.011345801
-3.3068608e-05
0.01133443
-3.0687165e-05
0.011323822
-2.8496842e-05
0.011313929
-2.6479237e-05
0.011304704
-2.4618147e-05
0.011296101
-2.2899253e-05
0.01128808
-2.1309859e-05
0.011280601
-1.9838674e-05
0.011273628
-1.8475617e-05
0.011267125
-1.7211665e-05
0.011261062
-1.6038714e-05
0.011255408
-1.4949465e-05
0.011250135
-1.3937322e-05
0.011245218
-1.299631e-05
0.011240632
-1.2121003e-05
0.011236354
-1.1306457e-05
0.011232364
-1.0548163e-05
0.011228643
-9.8419911e-06
0.01122517
-9.1841504e-06
0.011221931
-8.5711565e-06
0.011218909
-7.9998046e-06
0.011216089
-7.4671433e-06
0.011213457
-6.9704501e-06
0.011211002
-6.5072169e-06
0.01120871
-6.0751248e-06
0.011206572
-5.6720255e-06
0.011204576
-5.2959302e-06
0.011202713
-4.9449941e-06
0.011200974
-4.6174993e-06
0.011199351
-4.3118459e-06
0.011197836
-4.0265473e-06
0.011196421
-3.7602247e-06
0.011195101
-3.5115915e-06
0.011193868
-3.279458e-06
0.011192718
-3.0627227e-06
0.011191643
-2.8603667e-06
0.01119064
-2.6714351e-06
0.011189703
-2.4950409e-06
0.011188829
-2.3303399e-06
0.011188012
-2.1765472e-06
0.011187249
-2.032914e-06
0.011186537
-1.8987687e-06
0.011185873
-1.7734603e-06
0.011185252
-1.6564296e-06
0.011184672
-1.5471148e-06
0.01118413
-1.445054e-06
0.011183625
-1.349726e-06
0.011183152
-1.2607486e-06
0.011182711
-1.177608e-06
0.0111823
-1.1000269e-06
0.011181915
-1.0274632e-06
0.011181556
-9.5978117e-07
0.01118122
-8.9639172e-07
0.011180907
-8.3739005e-07
0.011180614
-7.8194964e-07
0.011180341
-7.3057543e-07
0.011180086
-6.822187e-07
0.011179847
-6.3772612e-07
0.011179624
-5.9510533e-07
0.011179416
-5.5653936e-07
0.011179223
-5.1910356e-07
0.011179041
-4.862946e-07
0.011178872
-4.5281603e-07
0.011178712
-4.2539109e-07
0.011178566
-3.9514641e-07
0.011178425
-3.7417643e-07
0.0111783
-3.4711026e-07
0.011178177
-3.3605455e-07
-3.1077212e-07
0.010339525
-0.00069380425
0.010570754
-0.0010218027
0.010606301
-0.00095449448
0.010547572
-0.00084294334
0.010422317
-0.0007173708
0.010244356
-0.00057972444
0.010039421
-0.00045169205
0.0098287427
-0.00034297801
0.009625135
-0.00025616317
0.0094353013
-0.00018991983
0.0092624277
-0.00014121897
0.0091075332
-0.0001065098
0.008970154
-8.2320222e-05
0.0088489024
-6.5646244e-05
0.0087419716
-5.4127251e-05
0.0086474927
-4.6040044e-05
0.008563694
-4.019429e-05
0.0084890107
-3.5792757e-05
0.0084221096
-3.2318762e-05
0.0083618775
-2.9449284e-05
0.0083073954
-2.6988577e-05
0.0082579079
-2.4820299e-05
0.0082127929
-2.2875476e-05
0.0081715353
-2.1112414e-05
0.0081337049
-1.9504655e-05
0.0080989388
-1.8034019e-05
0.0080669272
-1.6686732e-05
0.0080374036
-1.5451372e-05
0.0080101361
-1.431787e-05
0.0079849213
-1.3277075e-05
0.0079615798
-1.232059e-05
0.0079399519
-1.1440714e-05
0.0079198952
-1.0630426e-05
0.0079012817
-9.8833572e-06
0.0078839962
-9.1937674e-06
0.0078679345
-8.5564984e-06
0.0078530022
-7.966927e-06
0.0078391133
-7.4209154e-06
0.0078261893
-6.9147583e-06
0.0078141589
-6.4451322e-06
0.0078029562
-6.009053e-06
0.0077925214
-5.6038354e-06
0.007782799
-5.2270553e-06
0.0077737382
-4.876519e-06
0.0077652921
-4.5502368e-06
0.0077574175
-4.2463978e-06
0.0077500744
-3.9633495e-06
0.0077432258
-3.6995812e-06
0.0077368375
-3.4537062e-06
0.0077308778
-3.2244473e-06
0.0077253172
-3.0106289e-06
0.0077201286
-2.811169e-06
0.0077152866
-2.6250683e-06
0.0077107675
-2.4514041e-06
0.0077065497
-2.2893251e-06
0.0077026126
-2.138043e-06
0.0076989374
-1.9968241e-06
0.0076955064
-1.8649889e-06
0.0076923033
-1.7419062e-06
0.0076893128
-1.6269847e-06
0.0076865206
-1.5196726e-06
0.0076839135
-1.4194584e-06
0.0076814792
-1.3258663e-06
0.0076792061
-1.2384519e-06
0.0076770834
-1.1568066e-06
0.0076751013
-1.0805521e-06
0.0076732502
-1.009335e-06
0.0076715216
-9.4282328e-07
0.0076699072
-8.8070797e-07
0.0076683995
-8.2269236e-07
0.0076669915
-7.6850211e-07
0.0076656765
-7.178768e-07
0.0076644483
-6.7058178e-07
0.0076633013
-6.2639115e-07
0.00766223
-5.8511289e-07
0.0076612295
-5.4655116e-07
0.0076602949
-5.1054429e-07
0.007659422
-4.7690782e-07
0.0076586067
-4.4550918e-07
0.0076578453
-4.1616237e-07
0.007657134
-3.8877313e-07
0.0076564698
-3.6314998e-07
0.0076558493
-3.3924761e-07
0.0076552698
-3.1685444e-07
0.0076547284
-2.9601472e-07
0.007654223
-2.7643304e-07
0.0076537506
-2.5827891e-07
0.0076533094
-2.4121295e-07
0.007652897
-2.2549902e-07
0.0076525125
-2.1040773e-07
0.0076521531
-1.9671012e-07
0.0076518175
-1.8367414e-07
0.0076515028
-1.7204127e-07
0.0076512104
-1.6033198e-07
0.0076509356
-1.5024227e-07
0.007650681
-1.4039558e-07
0.0076504387
-1.3210635e-07
0.0076502165
-1.2505183e-07
0.0076499999
-1.1940656e-07
-1.2578069e-07
0.0093061957
0.0082843931
0.0073298986
0.0064869553
0.0057695845
0.00518986
0.004738168
0.00439519
0.0041390268
0.0039491069
0.003807888
0.0037013782
0.003619058
0.0035534117
0.0034992845
0.0034532444
0.0034130501
0.0033772574
0.0033449386
0.0033154893
0.0032885008
0.0032636805
0.003240805
0.0032196926
0.0032001879
0.0031821539
0.0031654672
0.0031500158
0.0031356979
0.0031224208
0.0031101003
0.0030986596
0.0030880291
0.0030781458
0.003068952
0.0030603955
0.0030524286
0.0030450076
0.0030380929
0.0030316478
0.0030256387
0.0030200349
0.0030148078
0.0030099313
0.0030053811
0.0030011347
0.0029971713
0.0029934717
0.002990018
0.0029867936
0.0029837829
0.0029809718
0.0029783467
0.0029758953
0.002973606
0.002971468
0.0029694711
0.0029676061
0.0029658642
0.0029642372
0.0029627175
0.0029612981
0.0029599723
0.0029587338
0.002957577
0.0029564965
0.0029554871
0.0029545442
0.0029536635
0.0029528408
0.0029520723
0.0029513545
0.002950684
0.0029500576
0.0029494725
0.0029489259
0.0029484153
0.0029479383
0.0029474928
0.0029470767
0.0029466879
0.0029463248
0.0029459856
0.0029456688
0.0029453728
0.0029450963
0.0029448379
0.0029445965
0.0029443712
0.002944161
0.0029439641
0.0029437802
0.0029436084
0.0029434484
0.002943298
0.0029431574
0.0029430253
0.0029429002
0.0029427808
)
;

boundaryField
{
    top
    {
        type            calculated;
        value           uniform 0;
    }
    inlet
    {
        type            calculated;
        value           nonuniform List<scalar> 10(-0.01 -0.01 -0.01 -0.01 -0.01 -0.01 -0.01 -0.01 -0.01 -0.01);
    }
    outlet
    {
        type            calculated;
        value           nonuniform List<scalar> 10(0.002942655 0.0076498148 0.011178072 0.01352789 0.014701569 0.014701569 0.01352789 0.011178072 0.0076498149 0.0029426551);
    }
    bottom
    {
        type            calculated;
        value           uniform 0;
    }
    back
    {
        type            empty;
        value           nonuniform 0();
    }
    front
    {
        type            empty;
        value           nonuniform 0();
    }
}


// ************************************************************************* //
