/*--------------------------------*- C++ -*----------------------------------*\
| =========                 |                                                 |
| \\      /  F ield         | OpenFOAM: The Open Source CFD Toolbox           |
|  \\    /   O peration     | Version:  v1812                                 |
|   \\  /    A nd           | Web:      www.OpenFOAM.com                      |
|    \\/     M anipulation  |                                                 |
\*---------------------------------------------------------------------------*/
FoamFile
{
    version     2.0;
    format      ascii;
    class       volVectorField;
    location    "13.9";
    object      U;
}
// * * * * * * * * * * * * * * * * * * * * * * * * * * * * * * * * * * * * * //

dimensions      [0 1 -1 0 0 0 0];


internalField   nonuniform List<vector> 
1000
(
(0.91890839 0.035821912 0)
(0.86271384 0.062195638 0)
(0.7870597 0.06251009 0)
(0.69536033 0.054550394 0)
(0.61089744 0.044531651 0)
(0.54411591 0.034015972 0)
(0.49343012 0.02418754 0)
(0.45479414 0.01614423 0)
(0.42544583 0.010265786 0)
(0.40347313 0.0063041452 0)
(0.38715766 0.0037976294 0)
(0.3749622 0.0023103383 0)
(0.36566192 0.0014930149 0)
(0.35836272 0.0010851182 0)
(0.35244268 0.00090607213 0)
(0.34748201 0.00084105152 0)
(0.34320348 0.0008237241 0)
(0.33942726 0.00081931048 0)
(0.33603793 0.00081185226 0)
(0.33296114 0.00079580147 0)
(0.33014778 0.00077081176 0)
(0.32756384 0.00073870958 0)
(0.3251842 0.00070188923 0)
(0.32298902 0.00066256545 0)
(0.32096172 0.0006224993 0)
(0.31908785 0.00058295716 0)
(0.31735449 0.00054477156 0)
(0.31574995 0.00050843422 0)
(0.3142636 0.00047419193 0)
(0.31288574 0.00044212488 0)
(0.31160755 0.00041220976 0)
(0.31042101 0.00038436174 0)
(0.30931883 0.00035846487 0)
(0.30829438 0.00033439001 0)
(0.30734165 0.00031200621 0)
(0.30645515 0.00029118711 0)
(0.30562991 0.00027181386 0)
(0.30486136 0.00025377668 0)
(0.30414535 0.00023697466 0)
(0.30347807 0.00022131533 0)
(0.30285601 0.00020671488 0)
(0.30227596 0.00019309602 0)
(0.30173496 0.00018038881 0)
(0.30123029 0.00016852863 0)
(0.30075942 0.00015745641 0)
(0.30032002 0.00014711804 0)
(0.29990993 0.00013746304 0)
(0.29952715 0.00012844548 0)
(0.29916983 0.00012002212 0)
(0.29883624 0.00011215273 0)
(0.29852478 0.00010480061 0)
(0.29823397 9.7930614e-05 0)
(0.29796241 9.1510921e-05 0)
(0.29770883 8.5511604e-05 0)
(0.29747201 7.9904684e-05 0)
(0.29725084 7.4665062e-05 0)
(0.29704429 6.976823e-05 0)
(0.29685137 6.519283e-05 0)
(0.29667119 6.0917407e-05 0)
(0.29650291 5.692219e-05 0)
(0.29634572 5.3188852e-05 0)
(0.2961989 4.9699495e-05 0)
(0.29606176 4.6438213e-05 0)
(0.29593366 4.3389686e-05 0)
(0.29581401 4.0539991e-05 0)
(0.29570224 3.7876858e-05 0)
(0.29559784 3.5388191e-05 0)
(0.29550031 3.3063215e-05 0)
(0.29540922 3.0892051e-05 0)
(0.29532413 2.8863569e-05 0)
(0.29524464 2.696881e-05 0)
(0.29517039 2.5197854e-05 0)
(0.29510104 2.354192e-05 0)
(0.29503625 2.1993465e-05 0)
(0.29497573 2.0545671e-05 0)
(0.29491919 1.9192415e-05 0)
(0.29486638 1.7929035e-05 0)
(0.29481705 1.674896e-05 0)
(0.29477097 1.5648901e-05 0)
(0.29472792 1.4621224e-05 0)
(0.29468772 1.3662338e-05 0)
(0.29465016 1.2764483e-05 0)
(0.29461507 1.1925342e-05 0)
(0.2945823 1.1137984e-05 0)
(0.29455168 1.0402956e-05 0)
(0.29452308 9.7130594e-06 0)
(0.29449636 9.076751e-06 0)
(0.29447141 8.4763331e-06 0)
(0.29444808 7.9240182e-06 0)
(0.29442633 7.4013711e-06 0)
(0.29440598 6.9270463e-06 0)
(0.29438699 6.4661129e-06 0)
(0.29436922 6.0500613e-06 0)
(0.29435261 5.6444084e-06 0)
(0.29433715 5.2931376e-06 0)
(0.29432248 4.9749372e-06 0)
(0.29430919 4.6900407e-06 0)
(0.29429569 4.5387579e-06 0)
(0.29428501 4.4064848e-06 0)
(0.29426873 5.0583128e-06 0)
(1.0016583 0.05381943 0)
(1.0359761 0.10128443 0)
(1.0597199 0.11073663 0)
(1.0628947 0.10592201 0)
(1.0515569 0.096228727 0)
(1.0340529 0.083934061 0)
(1.0142795 0.070327064 0)
(0.99360703 0.056981335 0)
(0.97292577 0.04510748 0)
(0.9531074 0.03523675 0)
(0.93479538 0.02740165 0)
(0.91829012 0.021387227 0)
(0.90362379 0.016884499 0)
(0.89068067 0.013569709 0)
(0.87928174 0.011147748 0)
(0.86923242 0.0093736585 0)
(0.86034423 0.0080569282 0)
(0.85244667 0.0070571278 0)
(0.84539241 0.0062752391 0)
(0.83905793 0.0056438292 0)
(0.83334126 0.0051180914 0)
(0.82815884 0.0046686721 0)
(0.82344212 0.0042764166 0)
(0.81913467 0.0039287376 0)
(0.81518962 0.0036172024 0)
(0.81156765 0.0033359695 0)
(0.80823544 0.0030808038 0)
(0.8051644 0.0028484693 0)
(0.80232979 0.00263637 0)
(0.79970999 0.0024423392 0)
(0.79728597 0.0022645194 0)
(0.79504086 0.00210129 0)
(0.79295963 0.001951225 0)
(0.79102881 0.0018130623 0)
(0.78923627 0.0016856826 0)
(0.7875711 0.0015680916 0)
(0.78602338 0.0014594051 0)
(0.78458411 0.0013588358 0)
(0.78324511 0.0012656811 0)
(0.78199889 0.0011793128 0)
(0.78083861 0.0010991683 0)
(0.77975799 0.001024742 0)
(0.77875128 0.00095557883 0)
(0.77781318 0.00089126755 0)
(0.77693881 0.00083143564 0)
(0.77612368 0.00077574506 0)
(0.77536362 0.00072388753 0)
(0.77465481 0.00067558172 0)
(0.77399367 0.0006305696 0)
(0.77337693 0.000588614 0)
(0.77280153 0.00054949726 0)
(0.77226464 0.00051301832 0)
(0.77176363 0.00047899204 0)
(0.77129607 0.00044724774 0)
(0.77085967 0.00041762745 0)
(0.77045234 0.00038998604 0)
(0.77007212 0.00036418859 0)
(0.76971717 0.00034011088 0)
(0.76938581 0.00031763627 0)
(0.76907644 0.00029665592 0)
(0.7687876 0.00027706858 0)
(0.76851791 0.00025877956 0)
(0.7682661 0.00024170098 0)
(0.76803096 0.00022575147 0)
(0.76781139 0.00021085557 0)
(0.76760636 0.00019694406 0)
(0.76741488 0.00018395249 0)
(0.76723608 0.0001718209 0)
(0.76706909 0.00016049338 0)
(0.76691315 0.0001499156 0)
(0.76676751 0.00014003735 0)
(0.7666315 0.00013080983 0)
(0.76650447 0.0001221889 0)
(0.76638582 0.00011413316 0)
(0.76627501 0.00010660685 0)
(0.76617152 9.9575169e-05 0)
(0.76607485 9.300981e-05 0)
(0.76598458 8.687834e-05 0)
(0.76590025 8.115735e-05 0)
(0.7658215 7.5813061e-05 0)
(0.76574793 7.0825822e-05 0)
(0.76567924 6.6159686e-05 0)
(0.76561505 6.1804228e-05 0)
(0.76555513 5.7722671e-05 0)
(0.76549911 5.3918715e-05 0)
(0.76544684 5.0347456e-05 0)
(0.76539796 4.7039724e-05 0)
(0.76535238 4.3930428e-05 0)
(0.76530969 4.1062802e-05 0)
(0.76526996 3.8331477e-05 0)
(0.76523272 3.5853902e-05 0)
(0.76519805 3.3464026e-05 0)
(0.76516557 3.1314566e-05 0)
(0.76513517 2.9170135e-05 0)
(0.76510712 2.736224e-05 0)
(0.76507997 2.5526152e-05 0)
(0.76505664 2.4076443e-05 0)
(0.76503058 2.2555733e-05 0)
(0.76501446 2.1599507e-05 0)
(0.76498346 2.0996215e-05 0)
(1.0014244 0.026824854 0)
(1.0291272 0.06279135 0)
(1.0654292 0.07773655 0)
(1.098962 0.080597198 0)
(1.1253149 0.07828517 0)
(1.145053 0.0731539 0)
(1.1594858 0.06611128 0)
(1.1694287 0.058162065 0)
(1.1755354 0.050296755 0)
(1.1785738 0.043150708 0)
(1.1793571 0.036972825 0)
(1.1785949 0.031771632 0)
(1.1768304 0.027451839 0)
(1.1744518 0.023886767 0)
(1.1717287 0.020947619 0)
(1.1688444 0.01851578 0)
(1.1659195 0.016488085 0)
(1.1630317 0.014779503 0)
(1.1602295 0.013322986 0)
(1.1575415 0.012067133 0)
(1.1549828 0.010973001 0)
(1.1525601 0.010011061 0)
(1.1502747 0.0091587461 0)
(1.1481246 0.0083986032 0)
(1.1461059 0.0077169495 0)
(1.1442134 0.0071028875 0)
(1.1424414 0.0065475918 0)
(1.1407838 0.0060437959 0)
(1.1392344 0.005585427 0)
(1.1377869 0.0051673456 0)
(1.1364353 0.0047851578 0)
(1.1351738 0.0044350766 0)
(1.1339968 0.0041138165 0)
(1.1328987 0.0038185121 0)
(1.1318746 0.0035466519 0)
(1.1309195 0.003296026 0)
(1.1300289 0.0030646825 0)
(1.1291985 0.0028508907 0)
(1.1284242 0.002653111 0)
(1.1277022 0.0024699696 0)
(1.1270291 0.0023002367 0)
(1.1264014 0.0021428078 0)
(1.1258161 0.0019966883 0)
(1.1252702 0.0018609801 0)
(1.1247612 0.00173487 0)
(1.1242865 0.0016176196 0)
(1.1238437 0.0015085567 0)
(1.1234307 0.001407068 0)
(1.1230455 0.0013125923 0)
(1.1226861 0.0012246155 0)
(1.1223509 0.0011426657 0)
(1.1220381 0.0010663088 0)
(1.1217462 0.00099514545 0)
(1.1214739 0.00092880752 0)
(1.1212198 0.00086695587 0)
(1.1209827 0.00080927748 0)
(1.1207614 0.00075548335 0)
(1.1205548 0.00070530548 0)
(1.1203621 0.00065849468 0)
(1.1201821 0.00061481948 0)
(1.1200142 0.00057406502 0)
(1.1198574 0.00053603124 0)
(1.1197111 0.00050053272 0)
(1.1195745 0.00046739739 0)
(1.1194469 0.00043646637 0)
(1.1193278 0.00040759178 0)
(1.1192167 0.00038063679 0)
(1.1191129 0.0003554736 0)
(1.119016 0.00033198277 0)
(1.1189255 0.00031005123 0)
(1.118841 0.00028957426 0)
(1.1187621 0.00027045157 0)
(1.1186885 0.00025259315 0)
(1.1186197 0.00023591266 0)
(1.1185554 0.00022033545 0)
(1.1184954 0.00020578649 0)
(1.1184394 0.000192204 0)
(1.1183871 0.00017951931 0)
(1.1183382 0.0001676815 0)
(1.1182926 0.00015662131 0)
(1.11825 0.00014629992 0)
(1.1182103 0.00013664494 0)
(1.1181731 0.00012764012 0)
(1.1181384 0.00011920374 0)
(1.1181059 0.00011135138 0)
(1.1180757 0.00010397956 0)
(1.1180473 9.7152868e-05 0)
(1.1180211 9.0709585e-05 0)
(1.1179963 8.4794541e-05 0)
(1.1179734 7.9135815e-05 0)
(1.1179516 7.4030214e-05 0)
(1.1179319 6.9013738e-05 0)
(1.1179128 6.4653064e-05 0)
(1.1178955 6.0132004e-05 0)
(1.1178789 5.6559663e-05 0)
(1.1178635 5.2429427e-05 0)
(1.1178501 4.9747455e-05 0)
(1.1178349 4.580775e-05 0)
(1.1178262 4.431939e-05 0)
(1.1178083 4.0576697e-05 0)
(1.0007347 0.011814721 0)
(1.0178472 0.030860925 0)
(1.0462163 0.041434439 0)
(1.0799018 0.045193568 0)
(1.1132664 0.045502351 0)
(1.143782 0.044080308 0)
(1.1708941 0.041439983 0)
(1.1945687 0.037973679 0)
(1.2148582 0.03419573 0)
(1.2319652 0.030536887 0)
(1.2462683 0.027222044 0)
(1.2582339 0.02431392 0)
(1.2683135 0.021797887 0)
(1.2768875 0.019633659 0)
(1.2842554 0.017773826 0)
(1.2906479 0.016169652 0)
(1.296243 0.014775591 0)
(1.3011791 0.013552298 0)
(1.3055645 0.012467864 0)
(1.3094838 0.011497466 0)
(1.3130042 0.010622161 0)
(1.3161792 0.0098275127 0)
(1.3190526 0.0091024104 0)
(1.3216607 0.0084381761 0)
(1.3240343 0.0078279035 0)
(1.3261995 0.0072659745 0)
(1.3281786 0.0067477092 0)
(1.3299913 0.0062691174 0)
(1.3316544 0.0058267282 0)
(1.3331829 0.0054174739 0)
(1.3345896 0.0050386126 0)
(1.3358862 0.0046876737 0)
(1.3370827 0.004362419 0)
(1.3381882 0.0040608137 0)
(1.3392108 0.0037810033 0)
(1.3401576 0.0035212944 0)
(1.3410349 0.0032801384 0)
(1.3418486 0.003056118 0)
(1.3426038 0.0028479349 0)
(1.3433051 0.0026543985 0)
(1.3439569 0.0024744168 0)
(1.3445629 0.0023069865 0)
(1.3451267 0.0021511857 0)
(1.3456513 0.0020061661 0)
(1.3461398 0.001871147 0)
(1.3465947 0.0017454087 0)
(1.3470185 0.0016282872 0)
(1.3474135 0.0015191693 0)
(1.3477816 0.0014174884 0)
(1.3481249 0.0013227204 0)
(1.3484449 0.0012343807 0)
(1.3487435 0.0011520203 0)
(1.349022 0.0010752232 0)
(1.3492818 0.0010036042 0)
(1.3495242 0.00093680654 0)
(1.3497505 0.00087449961 0)
(1.3499616 0.00081637597 0)
(1.3501587 0.00076214972 0)
(1.3503427 0.00071155457 0)
(1.3505145 0.000664343 0)
(1.3506748 0.00062028496 0)
(1.3508245 0.00057916632 0)
(1.3509643 0.00054078843 0)
(1.3510948 0.00050496626 0)
(1.3512167 0.00047152863 0)
(1.3513305 0.00044031592 0)
(1.3514368 0.00041117968 0)
(1.3515361 0.00038398046 0)
(1.3516288 0.00035858893 0)
(1.3517153 0.00033488241 0)
(1.3517962 0.00031274787 0)
(1.3518717 0.00029207812 0)
(1.3519422 0.00027277727 0)
(1.3520081 0.00025475228 0)
(1.3520696 0.00023792326 0)
(1.3521271 0.00022220711 0)
(1.3521807 0.00020753676 0)
(1.3522309 0.00019383442 0)
(1.3522777 0.00018104649 0)
(1.3523215 0.00016909474 0)
(1.3523623 0.00015794235 0)
(1.3524005 0.00014750807 0)
(1.3524361 0.0001377839 0)
(1.3524695 0.00012866875 0)
(1.3525004 0.00012020015 0)
(1.3525296 0.0001122419 0)
(1.3525565 0.00010488558 0)
(1.3525822 9.7900591e-05 0)
(1.3526054 9.1538078e-05 0)
(1.3526281 8.5407391e-05 0)
(1.352648 7.9926057e-05 0)
(1.3526684 7.4411871e-05 0)
(1.352685 6.9799714e-05 0)
(1.3527036 6.4837547e-05 0)
(1.3527169 6.1125877e-05 0)
(1.3527349 5.6439497e-05 0)
(1.3527447 5.3739809e-05 0)
(1.3527628 4.9141548e-05 0)
(1.3527683 4.77009e-05 0)
(1.3527889 4.295683e-05 0)
(1.0005903 0.0034629151 0)
(1.0136865 0.0093660182 0)
(1.0370283 0.013046805 0)
(1.0674202 0.014563261 0)
(1.1000315 0.014854525 0)
(1.1316428 0.014564991 0)
(1.1610745 0.013888339 0)
(1.1880674 0.012919246 0)
(1.2125205 0.011806506 0)
(1.2343939 0.010696427 0)
(1.2538077 0.0096727418 0)
(1.2710339 0.0087628216 0)
(1.286401 0.0079659732 0)
(1.3002112 0.0072722146 0)
(1.3127102 0.006668809 0)
(1.3240903 0.0061419259 0)
(1.3345036 0.0056780728 0)
(1.3440716 0.0052653214 0)
(1.3528927 0.0048939352 0)
(1.3610463 0.0045563957 0)
(1.3685975 0.0042470694 0)
(1.3756004 0.0039617755 0)
(1.3821012 0.0036973973 0)
(1.3881402 0.0034515823 0)
(1.3937533 0.0032225186 0)
(1.3989728 0.0030087702 0)
(1.403828 0.0028091584 0)
(1.4083456 0.0026226796 0)
(1.4125503 0.00244845 0)
(1.4164646 0.0022856709 0)
(1.4201094 0.0021336074 0)
(1.423504 0.0019915758 0)
(1.4266661 0.0018589357 0)
(1.4296121 0.0017350851 0)
(1.4323573 0.001619458 0)
(1.4349159 0.0015115212 0)
(1.4373007 0.0014107733 0)
(1.4395241 0.0013167428 0)
(1.441597 0.0012289872 0)
(1.4435301 0.0011470915 0)
(1.4453328 0.001070667 0)
(1.4470143 0.00099934995 0)
(1.4485827 0.00093280006 0)
(1.4500459 0.0008706991 0)
(1.451411 0.00081274983 0)
(1.4526846 0.00075867458 0)
(1.4538731 0.00070821375 0)
(1.4549822 0.00066112481 0)
(1.4560172 0.00061718165 0)
(1.4569831 0.00057617302 0)
(1.4578847 0.00053790148 0)
(1.4587262 0.00050218343 0)
(1.4595117 0.00046884745 0)
(1.460245 0.00043773398 0)
(1.4609295 0.00040869456 0)
(1.4615685 0.00038159094 0)
(1.4621651 0.00035629341 0)
(1.4627221 0.00033268029 0)
(1.4632422 0.00031063853 0)
(1.4637278 0.00029006237 0)
(1.4641812 0.00027085313 0)
(1.4646045 0.00025291973 0)
(1.4649998 0.00023617729 0)
(1.4653689 0.00022054664 0)
(1.4657136 0.000205954 0)
(1.4660355 0.0001923308 0)
(1.4663361 0.00017961275 0)
(1.4666168 0.00016773872 0)
(1.466879 0.00015665221 0)
(1.4671238 0.00014629954 0)
(1.4673524 0.00013663124 0)
(1.467566 0.00012760121 0)
(1.4677654 0.00011916876 0)
(1.4679516 0.00011129405 0)
(1.4681255 0.00010394285 0)
(1.468288 9.7078933e-05 0)
(1.4684397 9.0672842e-05 0)
(1.4685815 8.4688647e-05 0)
(1.4687138 7.9102893e-05 0)
(1.4688375 7.387936e-05 0)
(1.4689529 6.9004352e-05 0)
(1.4690608 6.4442065e-05 0)
(1.4691614 6.0192538e-05 0)
(1.4692557 5.6207261e-05 0)
(1.4693433 5.2513481e-05 0)
(1.4694257 4.9039597e-05 0)
(1.4695019 4.5828648e-05 0)
(1.4695742 4.2768933e-05 0)
(1.4696402 4.0004152e-05 0)
(1.4697038 3.7315538e-05 0)
(1.4697607 3.4914784e-05 0)
(1.4698172 3.2479002e-05 0)
(1.4698652 3.0498398e-05 0)
(1.4699166 2.8318859e-05 0)
(1.4699561 2.6727792e-05 0)
(1.4700046 2.4634302e-05 0)
(1.470034 2.3486914e-05 0)
(1.4700831 2.1418721e-05 0)
(1.4701001 2.0807614e-05 0)
(1.4701557 1.8648864e-05 0)
(1.0005903 -0.0034629163 0)
(1.0136865 -0.0093660206 0)
(1.0370283 -0.013046807 0)
(1.0674202 -0.014563261 0)
(1.1000315 -0.014854524 0)
(1.1316428 -0.01456499 0)
(1.1610745 -0.013888338 0)
(1.1880674 -0.012919245 0)
(1.2125205 -0.011806506 0)
(1.2343939 -0.010696427 0)
(1.2538077 -0.0096727423 0)
(1.2710339 -0.0087628221 0)
(1.286401 -0.0079659735 0)
(1.3002112 -0.0072722144 0)
(1.3127102 -0.0066688083 0)
(1.3240903 -0.0061419251 0)
(1.3345036 -0.0056780721 0)
(1.3440716 -0.0052653208 0)
(1.3528927 -0.0048939349 0)
(1.3610463 -0.0045563957 0)
(1.3685975 -0.0042470698 0)
(1.3756004 -0.003961776 0)
(1.3821012 -0.0036973978 0)
(1.3881402 -0.0034515828 0)
(1.3937533 -0.0032225187 0)
(1.3989728 -0.0030087698 0)
(1.403828 -0.0028091578 0)
(1.4083456 -0.0026226788 0)
(1.4125503 -0.0024484491 0)
(1.4164646 -0.00228567 0)
(1.4201094 -0.002133607 0)
(1.423504 -0.001991576 0)
(1.4266661 -0.0018589365 0)
(1.4296121 -0.0017350866 0)
(1.4323573 -0.0016194595 0)
(1.4349159 -0.0015115221 0)
(1.4373007 -0.0014107733 0)
(1.4395241 -0.0013167419 0)
(1.441597 -0.0012289856 0)
(1.4435301 -0.0011470896 0)
(1.4453328 -0.0010706657 0)
(1.4470143 -0.00099934953 0)
(1.4485827 -0.00093280057 0)
(1.4500459 -0.00087070045 0)
(1.451411 -0.00081275159 0)
(1.4526846 -0.00075867604 0)
(1.4538731 -0.00070821433 0)
(1.4549822 -0.00066112427 0)
(1.4560172 -0.00061717969 0)
(1.4569831 -0.00057616994 0)
(1.4578847 -0.00053789856 0)
(1.4587262 -0.00050218171 0)
(1.4595117 -0.00046884768 0)
(1.460245 -0.00043773627 0)
(1.4609295 -0.00040869797 0)
(1.4615685 -0.00038159358 0)
(1.4621651 -0.00035629381 0)
(1.4627221 -0.00033267838 0)
(1.4632422 -0.00031063451 0)
(1.4637278 -0.00029005735 0)
(1.4641812 -0.00027084922 0)
(1.4646045 -0.00025291834 0)
(1.4649998 -0.00023617859 0)
(1.4653689 -0.00022054995 0)
(1.4657136 -0.00020595836 0)
(1.4660355 -0.00019233414 0)
(1.4663361 -0.00017961296 0)
(1.4666168 -0.00016773527 0)
(1.466879 -0.00015664566 0)
(1.4671238 -0.00014629184 0)
(1.4673524 -0.00013662562 0)
(1.467566 -0.0001275999 0)
(1.4677654 -0.00011917216 0)
(1.4679516 -0.00011130064 0)
(1.4681255 -0.00010394976 0)
(1.468288 -9.708237e-05 0)
(1.4684397 -9.0670204e-05 0)
(1.4685815 -8.4680461e-05 0)
(1.4687138 -7.9092105e-05 0)
(1.4688375 -7.3870711e-05 0)
(1.4689529 -6.9001663e-05 0)
(1.4690608 -6.4445388e-05 0)
(1.4691614 -6.020106e-05 0)
(1.4692557 -5.621792e-05 0)
(1.4693433 -5.2516826e-05 0)
(1.4694257 -4.9034226e-05 0)
(1.4695019 -4.5823237e-05 0)
(1.4695742 -4.2761627e-05 0)
(1.4696402 -3.9983806e-05 0)
(1.4697038 -3.7302647e-05 0)
(1.4697607 -3.4937676e-05 0)
(1.4698172 -3.2514491e-05 0)
(1.4698651 -3.0505504e-05 0)
(1.4699166 -2.8299288e-05 0)
(1.4699562 -2.6711481e-05 0)
(1.4700046 -2.4633429e-05 0)
(1.470034 -2.349461e-05 0)
(1.470083 -2.1428927e-05 0)
(1.4701001 -2.0822422e-05 0)
(1.4701557 -1.866283e-05 0)
(1.0007347 -0.011814722 0)
(1.0178472 -0.030860927 0)
(1.0462163 -0.041434442 0)
(1.0799018 -0.04519357 0)
(1.1132664 -0.045502351 0)
(1.143782 -0.044080308 0)
(1.1708941 -0.041439982 0)
(1.1945687 -0.037973678 0)
(1.2148582 -0.034195729 0)
(1.2319652 -0.030536887 0)
(1.2462683 -0.027222045 0)
(1.2582339 -0.02431392 0)
(1.2683135 -0.021797888 0)
(1.2768875 -0.019633659 0)
(1.2842554 -0.017773826 0)
(1.2906479 -0.016169652 0)
(1.296243 -0.01477559 0)
(1.3011791 -0.013552297 0)
(1.3055645 -0.012467863 0)
(1.3094838 -0.011497466 0)
(1.3130042 -0.010622161 0)
(1.3161792 -0.0098275131 0)
(1.3190526 -0.0091024109 0)
(1.3216607 -0.0084381766 0)
(1.3240343 -0.0078279038 0)
(1.3261995 -0.0072659745 0)
(1.3281786 -0.0067477088 0)
(1.3299913 -0.0062691167 0)
(1.3316544 -0.0058267274 0)
(1.3331829 -0.0054174733 0)
(1.3345896 -0.0050386123 0)
(1.3358862 -0.0046876739 0)
(1.3370827 -0.0043624197 0)
(1.3381882 -0.0040608149 0)
(1.3392108 -0.0037810045 0)
(1.3401576 -0.0035212951 0)
(1.3410349 -0.0032801384 0)
(1.3418486 -0.0030561173 0)
(1.3426038 -0.0028479336 0)
(1.3433051 -0.002654397 0)
(1.3439569 -0.0024744155 0)
(1.3445629 -0.0023069859 0)
(1.3451267 -0.0021511859 0)
(1.3456513 -0.0020061672 0)
(1.3461398 -0.0018711485 0)
(1.3465947 -0.0017454101 0)
(1.3470185 -0.0016282879 0)
(1.3474135 -0.0015191688 0)
(1.3477816 -0.0014174867 0)
(1.3481249 -0.0013227182 0)
(1.3484449 -0.0012343786 0)
(1.3487435 -0.0011520189 0)
(1.349022 -0.0010752231 0)
(1.3492818 -0.0010036055 0)
(1.3495242 -0.00093680859 0)
(1.3497505 -0.0008745014 0)
(1.3499616 -0.0008163767 0)
(1.3501587 -0.00076214875 0)
(1.3503427 -0.00071155205 0)
(1.3505145 -0.00066433963 0)
(1.3506748 -0.00062028178 0)
(1.3508245 -0.00057916442 0)
(1.3509643 -0.00054078839 0)
(1.3510948 -0.0005049682 0)
(1.3512167 -0.00047153166 0)
(1.3513305 -0.00044031854 0)
(1.3514368 -0.00041118051 0)
(1.3515361 -0.00038397873 0)
(1.3516288 -0.00035858488 0)
(1.3517153 -0.0003348773 0)
(1.3517962 -0.00031274364 0)
(1.3518717 -0.00029207629 0)
(1.3519422 -0.00027277838 0)
(1.3520081 -0.00025475583 0)
(1.3520696 -0.00023792714 0)
(1.3521271 -0.00022220935 0)
(1.3521807 -0.0002075361 0)
(1.3522309 -0.00019383063 0)
(1.3522777 -0.00018104082 0)
(1.3523215 -0.0001690892 0)
(1.3523623 -0.00015793907 0)
(1.3524005 -0.00014750832 0)
(1.352436 -0.00013778717 0)
(1.3524695 -0.00012867314 0)
(1.3525004 -0.00012020423 0)
(1.3525297 -0.0001122431 0)
(1.3525565 -0.00010488157 0)
(1.3525822 -9.7893121e-05 0)
(1.3526054 -9.1533897e-05 0)
(1.3526282 -8.5405979e-05 0)
(1.352648 -7.9926773e-05 0)
(1.3526683 -7.4418239e-05 0)
(1.3526849 -6.9805244e-05 0)
(1.3527038 -6.4837749e-05 0)
(1.3527171 -6.1126722e-05 0)
(1.3527348 -5.6445243e-05 0)
(1.3527446 -5.3745174e-05 0)
(1.3527628 -4.9143083e-05 0)
(1.3527684 -4.7704455e-05 0)
(1.3527889 -4.2962115e-05 0)
(1.0014244 -0.026824855 0)
(1.0291272 -0.062791352 0)
(1.0654292 -0.077736552 0)
(1.098962 -0.0805972 0)
(1.1253149 -0.078285171 0)
(1.145053 -0.0731539 0)
(1.1594858 -0.066111279 0)
(1.1694287 -0.058162063 0)
(1.1755354 -0.050296754 0)
(1.1785738 -0.043150708 0)
(1.1793571 -0.036972825 0)
(1.1785949 -0.031771632 0)
(1.1768304 -0.02745184 0)
(1.1744518 -0.023886768 0)
(1.1717287 -0.02094762 0)
(1.1688444 -0.01851578 0)
(1.1659195 -0.016488084 0)
(1.1630317 -0.014779502 0)
(1.1602295 -0.013322985 0)
(1.1575415 -0.012067133 0)
(1.1549828 -0.010973001 0)
(1.1525601 -0.010011062 0)
(1.1502747 -0.0091587466 0)
(1.1481246 -0.0083986037 0)
(1.1461059 -0.00771695 0)
(1.1442134 -0.0071028878 0)
(1.1424414 -0.0065475916 0)
(1.1407838 -0.0060437954 0)
(1.1392344 -0.0055854264 0)
(1.1377869 -0.0051673452 0)
(1.1364353 -0.0047851575 0)
(1.1351738 -0.0044350766 0)
(1.1339968 -0.0041138169 0)
(1.1328987 -0.0038185126 0)
(1.1318746 -0.0035466525 0)
(1.1309195 -0.0032960267 0)
(1.1300289 -0.0030646829 0)
(1.1291985 -0.0028508905 0)
(1.1284242 -0.0026531103 0)
(1.1277022 -0.0024699687 0)
(1.1270291 -0.0023002356 0)
(1.1264014 -0.0021428069 0)
(1.1258161 -0.0019966881 0)
(1.1252702 -0.0018609807 0)
(1.1247612 -0.001734871 0)
(1.1242865 -0.0016176207 0)
(1.1238437 -0.0015085574 0)
(1.1234307 -0.0014070679 0)
(1.1230455 -0.0013125916 0)
(1.1226861 -0.0012246145 0)
(1.1223509 -0.0011426645 0)
(1.1220381 -0.0010663077 0)
(1.1217462 -0.0009951447 0)
(1.1214739 -0.00092880731 0)
(1.1212198 -0.00086695631 0)
(1.1209827 -0.00080927874 0)
(1.1207614 -0.0007554849 0)
(1.1205548 -0.0007053062 0)
(1.1203621 -0.0006584942 0)
(1.1201821 -0.00061481803 0)
(1.1200142 -0.0005740627 0)
(1.1198574 -0.00053602873 0)
(1.1197111 -0.00050053111 0)
(1.1195745 -0.00046739734 0)
(1.1194469 -0.00043646746 0)
(1.1193278 -0.00040759353 0)
(1.1192167 -0.00038063865 0)
(1.1191129 -0.00035547443 0)
(1.119016 -0.00033198223 0)
(1.1189255 -0.00031004951 0)
(1.118841 -0.00028957137 0)
(1.1187621 -0.00027044847 0)
(1.1186884 -0.00025259093 0)
(1.1186197 -0.00023591194 0)
(1.1185554 -0.00022033629 0)
(1.1184954 -0.00020578869 0)
(1.1184394 -0.00019220701 0)
(1.1183871 -0.00017952151 0)
(1.1183383 -0.00016768158 0)
(1.1182927 -0.00015661857 0)
(1.11825 -0.00014629512 0)
(1.1182103 -0.00013664031 0)
(1.1181731 -0.00012763646 0)
(1.1181384 -0.00011920266 0)
(1.1181059 -0.00011135618 0)
(1.1180757 -0.00010398619 0)
(1.1180473 -9.7153786e-05 0)
(1.1180211 -9.0708303e-05 0)
(1.1179963 -8.4800593e-05 0)
(1.1179734 -7.9139953e-05 0)
(1.1179516 -7.4013305e-05 0)
(1.1179319 -6.898953e-05 0)
(1.1179129 -6.4656722e-05 0)
(1.1178955 -6.0161833e-05 0)
(1.1178789 -5.6579736e-05 0)
(1.1178635 -5.242586e-05 0)
(1.11785 -4.9736674e-05 0)
(1.1178349 -4.5803587e-05 0)
(1.1178262 -4.4318394e-05 0)
(1.1178083 -4.0576412e-05 0)
(1.0016583 -0.05381943 0)
(1.0359761 -0.10128444 0)
(1.0597199 -0.11073663 0)
(1.0628947 -0.10592202 0)
(1.0515569 -0.096228728 0)
(1.0340529 -0.083934061 0)
(1.0142795 -0.070327063 0)
(0.99360703 -0.056981333 0)
(0.97292577 -0.045107479 0)
(0.95310739 -0.03523675 0)
(0.93479538 -0.02740165 0)
(0.91829012 -0.021387228 0)
(0.90362379 -0.016884499 0)
(0.89068067 -0.013569709 0)
(0.87928174 -0.011147748 0)
(0.86923242 -0.0093736584 0)
(0.86034423 -0.0080569278 0)
(0.85244667 -0.0070571275 0)
(0.84539241 -0.0062752387 0)
(0.83905793 -0.005643829 0)
(0.83334126 -0.0051180912 0)
(0.82815884 -0.0046686721 0)
(0.82344212 -0.0042764167 0)
(0.81913467 -0.0039287379 0)
(0.81518962 -0.0036172027 0)
(0.81156765 -0.0033359699 0)
(0.80823544 -0.0030808039 0)
(0.8051644 -0.0028484692 0)
(0.80232979 -0.0026363698 0)
(0.79970999 -0.002442339 0)
(0.79728597 -0.002264519 0)
(0.79504086 -0.0021012897 0)
(0.79295963 -0.0019512248 0)
(0.7910288 -0.0018130623 0)
(0.78923627 -0.0016856828 0)
(0.7875711 -0.0015680921 0)
(0.78602338 -0.0014594057 0)
(0.78458412 -0.0013588362 0)
(0.78324511 -0.0012656811 0)
(0.78199889 -0.0011793124 0)
(0.7808386 -0.0010991676 0)
(0.77975799 -0.0010247412 0)
(0.77875128 -0.00095557826 0)
(0.77781318 -0.00089126732 0)
(0.77693881 -0.00083143592 0)
(0.77612368 -0.00077574566 0)
(0.77536363 -0.00072388826 0)
(0.77465481 -0.0006755823 0)
(0.77399368 -0.00063056995 0)
(0.77337693 -0.00058861414 0)
(0.77280153 -0.00054949682 0)
(0.77226464 -0.00051301739 0)
(0.77176363 -0.00047899084 0)
(0.77129606 -0.00044724646 0)
(0.77085967 -0.00041762689 0)
(0.77045234 -0.00038998654 0)
(0.77007212 -0.00036419017 0)
(0.76971718 -0.00034011251 0)
(0.76938581 -0.00031763738 0)
(0.76907644 -0.00029665618 0)
(0.7687876 -0.00027706759 0)
(0.76851791 -0.0002587776 0)
(0.76826609 -0.00024169883 0)
(0.76803096 -0.00022574967 0)
(0.76781139 -0.0002108548 0)
(0.76760636 -0.00019694462 0)
(0.76741489 -0.00018395442 0)
(0.76723609 -0.00017182357 0)
(0.7670691 -0.00016049562 0)
(0.76691315 -0.00014991655 0)
(0.76676751 -0.00014003612 0)
(0.76663149 -0.0001308066 0)
(0.76650446 -0.00012218497 0)
(0.76638582 -0.00011412982 0)
(0.76627502 -0.00010660567 0)
(0.76617153 -9.9576883e-05 0)
(0.76607487 -9.3013881e-05 0)
(0.76598459 -8.6883414e-05 0)
(0.76590026 -8.1160818e-05 0)
(0.76582151 -7.5813046e-05 0)
(0.76574793 -7.0822032e-05 0)
(0.76567924 -6.6153573e-05 0)
(0.76561505 -6.1797902e-05 0)
(0.76555513 -5.7718876e-05 0)
(0.76549912 -5.3921224e-05 0)
(0.76544686 -5.0353491e-05 0)
(0.76539797 -4.7044144e-05 0)
(0.7653524 -4.3936567e-05 0)
(0.76530969 -4.1072164e-05 0)
(0.76526994 -3.8328983e-05 0)
(0.76523272 -3.5832153e-05 0)
(0.76519808 -3.3445375e-05 0)
(0.76516558 -3.1321589e-05 0)
(0.76513514 -2.9193666e-05 0)
(0.76510712 -2.7375859e-05 0)
(0.76508001 -2.5521357e-05 0)
(0.76505666 -2.4066249e-05 0)
(0.76503057 -2.2551192e-05 0)
(0.76501445 -2.1596659e-05 0)
(0.76498346 -2.0993914e-05 0)
(0.91890839 -0.035821913 0)
(0.86271384 -0.062195638 0)
(0.7870597 -0.06251009 0)
(0.69536033 -0.054550395 0)
(0.61089745 -0.044531651 0)
(0.54411592 -0.034015972 0)
(0.49343012 -0.024187539 0)
(0.45479413 -0.01614423 0)
(0.42544582 -0.010265785 0)
(0.40347313 -0.0063041451 0)
(0.38715766 -0.0037976295 0)
(0.3749622 -0.0023103384 0)
(0.36566193 -0.0014930151 0)
(0.35836272 -0.0010851182 0)
(0.35244268 -0.00090607216 0)
(0.34748201 -0.00084105153 0)
(0.34320348 -0.00082372404 0)
(0.33942726 -0.00081931048 0)
(0.33603793 -0.00081185218 0)
(0.33296114 -0.00079580141 0)
(0.33014778 -0.00077081158 0)
(0.32756384 -0.00073870947 0)
(0.3251842 -0.00070188918 0)
(0.32298902 -0.00066256549 0)
(0.32096172 -0.00062249944 0)
(0.31908785 -0.00058295741 0)
(0.31735449 -0.00054477166 0)
(0.31574995 -0.00050843436 0)
(0.3142636 -0.00047419188 0)
(0.31288574 -0.00044212483 0)
(0.31160755 -0.00041220953 0)
(0.31042101 -0.00038436152 0)
(0.30931883 -0.00035846467 0)
(0.30829438 -0.00033438989 0)
(0.30734165 -0.00031200629 0)
(0.30645515 -0.00029118737 0)
(0.30562991 -0.00027181423 0)
(0.30486136 -0.00025377698 0)
(0.30414535 -0.00023697476 0)
(0.30347806 -0.00022131533 0)
(0.30285601 -0.00020671457 0)
(0.30227596 -0.00019309569 0)
(0.30173496 -0.00018038841 0)
(0.30123029 -0.00016852834 0)
(0.30075942 -0.00015745639 0)
(0.30032002 -0.00014711818 0)
(0.29990993 -0.00013746348 0)
(0.29952715 -0.00012844595 0)
(0.29916983 -0.00012002251 0)
(0.29883624 -0.00011215307 0)
(0.29852478 -0.00010480045 0)
(0.29823397 -9.7930183e-05 0)
(0.29796241 -9.1510209e-05 0)
(0.29770883 -8.5510778e-05 0)
(0.29747201 -7.990432e-05 0)
(0.29725085 -7.4665114e-05 0)
(0.29704429 -6.976906e-05 0)
(0.29685138 -6.5193755e-05 0)
(0.2966712 -6.091824e-05 0)
(0.29650291 -5.6922702e-05 0)
(0.29634572 -5.3188599e-05 0)
(0.2961989 -4.9698725e-05 0)
(0.29606176 -4.6437015e-05 0)
(0.29593366 -4.3388446e-05 0)
(0.29581401 -4.0539307e-05 0)
(0.29570224 -3.787689e-05 0)
(0.29559784 -3.5389217e-05 0)
(0.29550032 -3.3064982e-05 0)
(0.29540922 -3.0893541e-05 0)
(0.29532413 -2.8864538e-05 0)
(0.29524464 -2.6968439e-05 0)
(0.29517039 -2.5196212e-05 0)
(0.29510104 -2.3539802e-05 0)
(0.29503625 -2.1991482e-05 0)
(0.29497573 -2.0544852e-05 0)
(0.2949192 -1.9193211e-05 0)
(0.29486638 -1.7931054e-05 0)
(0.29481705 -1.6751844e-05 0)
(0.29477097 -1.5650978e-05 0)
(0.29472792 -1.4621688e-05 0)
(0.29468771 -1.3660822e-05 0)
(0.29465016 -1.2761374e-05 0)
(0.29461507 -1.1922214e-05 0)
(0.29458231 -1.11357e-05 0)
(0.29455168 -1.040379e-05 0)
(0.29452309 -9.715701e-06 0)
(0.29449637 -9.0790331e-06 0)
(0.29447141 -8.4808231e-06 0)
(0.29444808 -7.9288284e-06 0)
(0.29442634 -7.3968665e-06 0)
(0.29440599 -6.9164048e-06 0)
(0.29438698 -6.4633526e-06 0)
(0.2943692 -6.0557455e-06 0)
(0.29435261 -5.6488555e-06 0)
(0.29433717 -5.2935781e-06 0)
(0.2943225 -4.9749138e-06 0)
(0.29430918 -4.6885576e-06 0)
(0.29429568 -4.5358579e-06 0)
(0.29428501 -4.4047117e-06 0)
(0.29426874 -5.0575187e-06 0)
)
;

boundaryField
{
    top
    {
        type            fixedValue;
        value           uniform (0 0 0);
    }
    inlet
    {
        type            fixedValue;
        value           uniform (1 0 0);
    }
    outlet
    {
        type            zeroGradient;
    }
    bottom
    {
        type            fixedValue;
        value           uniform (0 0 0);
    }
    back
    {
        type            empty;
    }
    front
    {
        type            empty;
    }
}


// ************************************************************************* //
