/*--------------------------------*- C++ -*----------------------------------*\
| =========                 |                                                 |
| \\      /  F ield         | OpenFOAM: The Open Source CFD Toolbox           |
|  \\    /   O peration     | Version:  v1812                                 |
|   \\  /    A nd           | Web:      www.OpenFOAM.com                      |
|    \\/     M anipulation  |                                                 |
\*---------------------------------------------------------------------------*/
FoamFile
{
    version     2.0;
    format      ascii;
    class       volScalarField;
    location    "20";
    object      p;
}
// * * * * * * * * * * * * * * * * * * * * * * * * * * * * * * * * * * * * * //

dimensions      [0 2 -2 0 0 0 0];


internalField   nonuniform List<scalar> 
1000
(
1.5148702
1.4987746
1.4828786
1.4671347
1.4514967
1.4359319
1.4204198
1.4049484
1.3895104
1.3741005
1.3587143
1.3433481
1.327999
1.3126648
1.2973439
1.282035
1.266737
1.2514492
1.2361706
1.2209006
1.2056386
1.1903839
1.1751361
1.1598947
1.1446593
1.1294295
1.1142049
1.0989853
1.0837702
1.0685595
1.0533528
1.03815
1.0229507
1.0077548
0.99256205
0.9773723
0.96218536
0.94700107
0.93181927
0.91663982
0.90146259
0.88628745
0.87111427
0.85594295
0.84077338
0.82560546
0.81043909
0.79527419
0.78011068
0.76494846
0.74978748
0.73462765
0.71946892
0.70431122
0.68915449
0.67399867
0.65884372
0.64368958
0.62853621
0.61338356
0.59823159
0.58308026
0.56792953
0.55277938
0.53762975
0.52248063
0.50733199
0.49218379
0.47703602
0.46188864
0.44674163
0.43159497
0.41644864
0.40130262
0.38615689
0.37101143
0.35586623
0.34072127
0.32557654
0.31043203
0.29528771
0.28014358
0.26499963
0.24985584
0.23471221
0.21956873
0.20442538
0.18928216
0.17413906
0.15899607
0.14385319
0.12871041
0.11356772
0.098425117
0.083282596
0.068140151
0.052997778
0.037855468
0.02271323
0.0075710301
1.5146816
1.498559
1.482796
1.4671715
1.4515781
1.436008
1.4204779
1.404994
1.3895502
1.3741371
1.3587476
1.3433777
1.3280249
1.3126876
1.2973643
1.2820534
1.2667539
1.2514646
1.2361848
1.2209137
1.2056507
1.1903952
1.1751466
1.1599045
1.1446684
1.1294381
1.1142129
1.0989928
1.0837773
1.0685661
1.053359
1.0381558
1.0229562
1.0077599
0.99256687
0.97737683
0.96218962
0.94700508
0.93182304
0.91664337
0.90146593
0.88629059
0.87111723
0.85594573
0.840776
0.82560792
0.81044141
0.79527638
0.78011273
0.7649504
0.7497893
0.73462936
0.71947053
0.70431273
0.68915591
0.67400001
0.65884498
0.64369077
0.62853732
0.6133846
0.59823257
0.58308118
0.5679304
0.55278019
0.53763052
0.52248135
0.50733266
0.49218442
0.47703661
0.46188919
0.44674215
0.43159545
0.41644909
0.40130304
0.38615729
0.37101181
0.35586658
0.3407216
0.32557685
0.31043232
0.29528798
0.28014383
0.26499987
0.24985606
0.23471242
0.21956892
0.20442556
0.18928233
0.17413922
0.15899622
0.14385333
0.12871054
0.11356784
0.098425228
0.083282699
0.068140245
0.052997866
0.037855545
0.0227133
0.0075710663
1.5143385
1.4981201
1.4825359
1.4671203
1.4516375
1.436085
1.4205339
1.40503
1.3895781
1.3741643
1.3587748
1.343403
1.328047
1.3127066
1.2973807
1.282068
1.2667671
1.2514767
1.2361959
1.2209238
1.20566
1.1904037
1.1751545
1.1599118
1.1446752
1.1294444
1.1142188
1.0989983
1.0837824
1.0685709
1.0533635
1.03816
1.0229601
1.0077636
0.99257031
0.97738006
0.96219266
0.94700793
0.93182572
0.91664589
0.90146829
0.88629281
0.87111932
0.8559477
0.84077785
0.82560966
0.81044305
0.79527791
0.78011418
0.76495176
0.74979058
0.73463057
0.71947166
0.7043138
0.68915692
0.67400096
0.65884587
0.6436916
0.62853811
0.61338534
0.59823326
0.58308183
0.56793101
0.55278076
0.53763106
0.52248186
0.50733314
0.49218487
0.47703703
0.46188959
0.44674252
0.4315958
0.41644942
0.40130335
0.38615757
0.37101207
0.35586684
0.34072184
0.32557707
0.31043252
0.29528817
0.28014402
0.26500004
0.24985622
0.23471257
0.21956906
0.20442569
0.18928245
0.17413933
0.15899633
0.14385343
0.12871063
0.11356792
0.098425308
0.083282773
0.068140314
0.052997927
0.037855598
0.022713333
0.0075710879
1.5139939
1.497644
1.48221
1.4670139
1.4516702
1.4361555
1.4205896
1.4050649
1.3896041
1.3741905
1.3588029
1.3434305
1.3280718
1.3127279
1.2973992
1.2820844
1.2667819
1.2514902
1.2362081
1.220935
1.2056701
1.190413
1.175163
1.1599197
1.1446825
1.1294511
1.1142251
1.0990041
1.0837878
1.068576
1.0533683
1.0381644
1.0229642
1.0077675
0.99257399
0.97738351
0.96219589
0.94701097
0.93182858
0.91664858
0.90147082
0.88629519
0.87112156
0.85594981
0.84077983
0.82561153
0.81044481
0.79527957
0.78011574
0.76495323
0.74979196
0.73463187
0.71947289
0.70431495
0.689158
0.67400198
0.65884683
0.64369251
0.62853896
0.61338615
0.59823402
0.58308255
0.56793168
0.55278139
0.53763165
0.52248242
0.50733367
0.49218537
0.47703749
0.46189002
0.44674293
0.43159619
0.41644978
0.40130369
0.38615789
0.37101238
0.35586712
0.3407221
0.32557732
0.31043276
0.29528839
0.28014422
0.26500023
0.2498564
0.23471274
0.21956922
0.20442584
0.18928259
0.17413946
0.15899645
0.14385354
0.12871074
0.11356802
0.098425402
0.083282858
0.068140395
0.052997995
0.037855665
0.022713377
0.0075711352
1.5137849
1.4973447
1.4819922
1.4669318
1.4516825
1.4361983
1.4206257
1.4050875
1.3896207
1.3742075
1.3588216
1.3434494
1.3280891
1.3127431
1.2974125
1.2820964
1.2667928
1.2515001
1.2362172
1.2209433
1.2056778
1.19042
1.1751695
1.1599257
1.1446881
1.1294563
1.11423
1.0990086
1.0837921
1.0685799
1.0533719
1.0381679
1.0229675
1.0077705
0.99257685
0.9773862
0.96219842
0.94701334
0.93183081
0.91665068
0.9014728
0.88629705
0.87112331
0.85595146
0.84078139
0.82561299
0.81044619
0.79528087
0.78011696
0.76495438
0.74979305
0.7346329
0.71947386
0.70431586
0.68915886
0.67400279
0.65884759
0.64369322
0.62853964
0.61338678
0.59823462
0.58308311
0.56793221
0.5527819
0.53763212
0.52248286
0.50733408
0.49218576
0.47703786
0.46189037
0.44674325
0.4315965
0.41645007
0.40130396
0.38615815
0.37101262
0.35586734
0.34072232
0.32557752
0.31043294
0.29528857
0.28014439
0.26500038
0.24985655
0.23471287
0.21956934
0.20442596
0.1892827
0.17413956
0.15899655
0.14385363
0.12871082
0.1135681
0.098425479
0.083282927
0.068140462
0.052998051
0.037855722
0.022713417
0.0075711818
1.5137849
1.4973447
1.4819922
1.4669318
1.4516825
1.4361983
1.4206256
1.4050875
1.3896207
1.3742075
1.3588216
1.3434494
1.3280891
1.3127431
1.2974125
1.2820964
1.2667928
1.2515001
1.2362172
1.2209433
1.2056778
1.19042
1.1751695
1.1599257
1.1446881
1.1294563
1.11423
1.0990086
1.0837921
1.0685799
1.053372
1.0381679
1.0229675
1.0077705
0.99257685
0.9773862
0.96219842
0.94701334
0.93183081
0.91665068
0.9014728
0.88629705
0.87112331
0.85595146
0.84078139
0.82561299
0.81044619
0.79528087
0.78011696
0.76495438
0.74979305
0.7346329
0.71947386
0.70431586
0.68915886
0.67400279
0.65884759
0.64369322
0.62853964
0.61338678
0.59823462
0.58308311
0.56793221
0.55278189
0.53763212
0.52248286
0.50733408
0.49218576
0.47703786
0.46189037
0.44674325
0.4315965
0.41645007
0.40130396
0.38615815
0.37101262
0.35586734
0.34072232
0.32557752
0.31043294
0.29528857
0.28014438
0.26500038
0.24985655
0.23471287
0.21956934
0.20442596
0.1892827
0.17413956
0.15899655
0.14385363
0.12871082
0.1135681
0.098425479
0.083282927
0.068140462
0.052998051
0.037855722
0.022713418
0.0075711827
1.5139939
1.497644
1.48221
1.4670139
1.4516702
1.4361555
1.4205896
1.4050648
1.3896041
1.3741905
1.3588029
1.3434305
1.3280718
1.3127279
1.2973992
1.2820844
1.2667819
1.2514902
1.2362081
1.220935
1.2056701
1.190413
1.175163
1.1599197
1.1446825
1.1294511
1.1142251
1.0990041
1.0837878
1.068576
1.0533683
1.0381644
1.0229642
1.0077675
0.99257399
0.97738351
0.9621959
0.94701097
0.93182858
0.91664858
0.90147082
0.88629519
0.87112156
0.85594981
0.84077983
0.82561153
0.81044481
0.79527957
0.78011574
0.76495322
0.74979196
0.73463187
0.71947289
0.70431495
0.689158
0.67400198
0.65884683
0.64369251
0.62853896
0.61338615
0.59823402
0.58308255
0.56793168
0.55278139
0.53763165
0.52248242
0.50733367
0.49218537
0.47703749
0.46189002
0.44674293
0.43159619
0.41644978
0.40130369
0.38615789
0.37101238
0.35586712
0.3407221
0.32557732
0.31043276
0.29528839
0.28014422
0.26500023
0.2498564
0.23471274
0.21956922
0.20442584
0.18928259
0.17413946
0.15899645
0.14385354
0.12871074
0.11356802
0.098425403
0.083282859
0.068140396
0.052997996
0.037855666
0.022713379
0.0075711373
1.5143385
1.4981202
1.4825359
1.4671203
1.4516375
1.436085
1.4205339
1.40503
1.3895781
1.3741643
1.3587748
1.343403
1.328047
1.3127066
1.2973807
1.282068
1.2667672
1.2514767
1.2361959
1.2209238
1.20566
1.1904037
1.1751545
1.1599118
1.1446752
1.1294444
1.1142188
1.0989983
1.0837824
1.0685709
1.0533635
1.03816
1.0229601
1.0077636
0.99257031
0.97738006
0.96219266
0.94700793
0.93182572
0.91664589
0.90146829
0.88629281
0.87111932
0.8559477
0.84077785
0.82560966
0.81044305
0.79527791
0.78011418
0.76495176
0.74979058
0.73463057
0.71947166
0.7043138
0.68915692
0.67400096
0.65884587
0.6436916
0.62853811
0.61338534
0.59823326
0.58308183
0.56793101
0.55278076
0.53763106
0.52248186
0.50733314
0.49218487
0.47703703
0.46188958
0.44674252
0.4315958
0.41644942
0.40130335
0.38615757
0.37101207
0.35586683
0.34072184
0.32557707
0.31043252
0.29528817
0.28014402
0.26500003
0.24985622
0.23471257
0.21956906
0.20442569
0.18928245
0.17413933
0.15899633
0.14385343
0.12871063
0.11356793
0.098425309
0.083282774
0.068140315
0.052997927
0.037855599
0.022713336
0.0075710899
1.5146816
1.498559
1.482796
1.4671715
1.4515781
1.4360079
1.4204779
1.404994
1.3895502
1.3741371
1.3587476
1.3433777
1.3280249
1.3126876
1.2973643
1.2820534
1.2667539
1.2514647
1.2361849
1.2209138
1.2056507
1.1903952
1.1751466
1.1599045
1.1446685
1.1294381
1.1142129
1.0989928
1.0837773
1.0685661
1.053359
1.0381558
1.0229562
1.0077599
0.99256687
0.97737684
0.96218963
0.94700508
0.93182305
0.91664337
0.90146593
0.88629059
0.87111723
0.85594573
0.840776
0.82560792
0.81044141
0.79527637
0.78011273
0.76495039
0.7497893
0.73462936
0.71947053
0.70431273
0.68915591
0.67400001
0.65884498
0.64369076
0.62853732
0.6133846
0.59823257
0.58308118
0.5679304
0.55278019
0.53763052
0.52248135
0.50733266
0.49218442
0.47703661
0.46188919
0.44674215
0.43159545
0.41644909
0.40130304
0.38615729
0.37101181
0.35586658
0.3407216
0.32557685
0.31043231
0.29528798
0.28014383
0.26499987
0.24985606
0.23471242
0.21956892
0.20442556
0.18928233
0.17413922
0.15899622
0.14385333
0.12871054
0.11356784
0.098425229
0.0832827
0.068140246
0.052997867
0.037855546
0.022713302
0.0075710675
1.5148702
1.4987746
1.4828786
1.4671347
1.4514967
1.4359319
1.4204198
1.4049484
1.3895104
1.3741005
1.3587143
1.3433481
1.327999
1.3126648
1.2973439
1.282035
1.266737
1.2514492
1.2361706
1.2209006
1.2056386
1.1903839
1.1751361
1.1598947
1.1446593
1.1294295
1.1142049
1.0989853
1.0837702
1.0685595
1.0533528
1.03815
1.0229507
1.0077548
0.99256205
0.9773723
0.96218536
0.94700107
0.93181927
0.91663982
0.90146259
0.88628745
0.87111427
0.85594295
0.84077338
0.82560546
0.81043909
0.79527419
0.78011067
0.76494846
0.74978748
0.73462765
0.71946892
0.70431122
0.68915449
0.67399867
0.65884372
0.64368958
0.62853621
0.61338356
0.59823159
0.58308026
0.56792953
0.55277937
0.53762975
0.52248063
0.50733199
0.49218379
0.47703602
0.46188863
0.44674163
0.43159497
0.41644864
0.40130261
0.38615689
0.37101143
0.35586623
0.34072127
0.32557654
0.31043203
0.29528771
0.28014358
0.26499963
0.24985584
0.23471221
0.21956873
0.20442538
0.18928216
0.17413906
0.15899607
0.14385319
0.12871041
0.11356772
0.098425118
0.083282597
0.068140151
0.052997778
0.037855468
0.02271323
0.0075710307
)
;

boundaryField
{
    top
    {
        type            zeroGradient;
    }
    inlet
    {
        type            fixedValue;
        value           uniform 1.523;
    }
    outlet
    {
        type            fixedValue;
        value           uniform 0;
    }
    bottom
    {
        type            zeroGradient;
    }
    back
    {
        type            empty;
    }
    front
    {
        type            empty;
    }
}


// ************************************************************************* //
