/*--------------------------------*- C++ -*----------------------------------*\
| =========                 |                                                 |
| \\      /  F ield         | OpenFOAM: The Open Source CFD Toolbox           |
|  \\    /   O peration     | Version:  v1812                                 |
|   \\  /    A nd           | Web:      www.OpenFOAM.com                      |
|    \\/     M anipulation  |                                                 |
\*---------------------------------------------------------------------------*/
FoamFile
{
    version     2.0;
    format      ascii;
    class       surfaceScalarField;
    location    "20";
    object      phi;
}
// * * * * * * * * * * * * * * * * * * * * * * * * * * * * * * * * * * * * * //

dimensions      [0 3 -1 0 0 0 0];
oriented        oriented;


internalField   nonuniform List<scalar> 
1890
(
0.0033978545
1.2338948e-06
0.0033935741
4.281248e-06
0.0033881186
5.4557954e-06
0.0033830287
5.0898873e-06
0.0033788793
4.1491015e-06
0.0033755825
3.2964845e-06
0.0033728702
2.7120189e-06
0.0033705394
2.330578e-06
0.0033684881
2.0510813e-06
0.0033666722
1.8156714e-06
0.0033650631
1.6088751e-06
0.0033636306
1.4322734e-06
0.0033623439
1.2866158e-06
0.0033611762
1.1675362e-06
0.0033601078
1.0682651e-06
0.0033591248
9.8289722e-07
0.003358217
9.0764951e-07
0.0033573765
8.4046367e-07
0.0033565963
7.8013513e-07
0.0033558705
7.2573223e-07
0.003355194
6.7641003e-07
0.0033545625
6.3142815e-07
0.0033539723
5.9018909e-07
0.00335342
5.5223102e-07
0.0033529027
5.1719224e-07
0.0033524179
4.847733e-07
0.0033519632
4.5471685e-07
0.0033515363
4.2679613e-07
0.0033511355
4.0081373e-07
0.0033507589
3.7659587e-07
0.0033504049
3.5399183e-07
0.003350072
3.3286699e-07
0.0033497588
3.1310342e-07
0.0033494642
2.9459387e-07
0.003349187
2.77244e-07
0.003348926
2.609669e-07
0.0033486803
2.4568616e-07
0.0033484489
2.3133047e-07
0.0033482311
2.1783723e-07
0.0033480259
2.0514706e-07
0.0033478327
1.9320799e-07
0.0033476507
1.8197002e-07
0.0033474793
1.7138962e-07
0.0033473179
1.6142413e-07
0.0033471658
1.520367e-07
0.0033470226
1.4319066e-07
0.0033468878
1.3485457e-07
0.0033467608
1.2699656e-07
0.0033466412
1.195896e-07
0.0033465286
1.126058e-07
0.0033464225
1.0602185e-07
0.0033463227
9.9813126e-08
0.0033462288
9.3959374e-08
0.0033461403
8.8438816e-08
0.0033460571
8.3233832e-08
0.0033459788
7.8325006e-08
0.0033459051
7.369695e-08
0.0033458357
6.9332353e-08
0.0033457705
6.5217799e-08
0.0033457092
6.1337739e-08
0.0033456515
5.7680441e-08
0.0033455972
5.4231962e-08
0.0033455463
5.0982081e-08
0.0033454983
4.7918195e-08
0.0033454533
4.5031377e-08
0.003345411
4.2310257e-08
0.0033453713
3.9747092e-08
0.0033453339
3.7331523e-08
0.0033452989
3.5056829e-08
0.0033452659
3.2913579e-08
0.0033452351
3.0896026e-08
0.0033452061
2.8995456e-08
0.0033451789
2.7207004e-08
0.0033451533
2.5522577e-08
0.0033451294
2.3938235e-08
0.0033451069
2.2446246e-08
0.0033450859
2.1043627e-08
0.0033450662
1.972281e-08
0.0033450477
1.8482005e-08
0.0033450304
1.7313338e-08
0.0033450142
1.621656e-08
0.003344999
1.5182924e-08
0.0033449848
1.4214462e-08
0.0033449715
1.3300475e-08
0.003344959
1.244642e-08
0.0033449474
1.1638107e-08
0.0033449365
1.0886382e-08
0.0033449263
1.0171024e-08
0.0033449168
9.5111807e-09
0.003344908
8.8770905e-09
0.0033448997
8.3003271e-09
0.0033448919
7.7370979e-09
0.0033448847
7.2358048e-09
0.0033448779
6.7353675e-09
0.0033448716
6.301521e-09
0.0033448658
5.8632492e-09
0.0033448603
5.4879493e-09
0.0033448552
5.1472312e-09
0.0033448503
4.8579281e-09
4.996648e-09
0.0086292989
1.3225436e-06
0.008627678
5.9033339e-06
0.0086246201
8.5143038e-06
0.0086209347
8.775183e-06
0.008617263
7.8205055e-06
0.0086138098
6.7493838e-06
0.0086105648
5.9567656e-06
0.0086074931
5.4021412e-06
0.0086045938
4.9502305e-06
0.0086018841
4.5251893e-06
0.0085993739
4.1188711e-06
0.0085970574
3.7486435e-06
0.0085949185
3.4253612e-06
0.0085929391
3.1468249e-06
0.0085911031
2.9041657e-06
0.0085893972
2.6887114e-06
0.00858781
2.4947473e-06
0.0085863314
2.3190469e-06
0.0085849519
2.1595086e-06
0.0085836633
2.0142927e-06
0.008582458
1.8816225e-06
0.0085813295
1.7598912e-06
0.0085802719
1.6477571e-06
0.00857928
1.5441426e-06
0.008578349
1.4481678e-06
0.0085774746
1.3590901e-06
0.008576653
1.2762605e-06
0.0085758807
1.1991102e-06
0.0085751543
1.1271371e-06
0.008574471
1.0599024e-06
0.008573828
9.9701714e-07
0.0085732227
9.3813826e-07
0.0085726528
8.8295704e-07
0.0085721162
8.3119849e-07
0.0085716108
7.8261229e-07
0.0085711348
7.3697439e-07
0.0085706864
6.9407895e-07
0.0085702639
6.5374115e-07
0.008569866
6.1578954e-07
0.008569491
5.8006963e-07
0.0085691378
5.464368e-07
0.008568805
5.147606e-07
0.0085684915
4.8491784e-07
0.0085681961
4.5679726e-07
0.0085679178
4.3029287e-07
0.0085676557
4.053091e-07
0.0085674088
3.8175416e-07
0.0085671762
3.5954525e-07
0.0085669572
3.386022e-07
0.008566751
3.1885304e-07
0.0085665568
3.0022741e-07
0.0085663739
2.826623e-07
0.0085662018
2.6609562e-07
0.0085660397
2.5047209e-07
0.0085658872
2.3573678e-07
0.0085657437
2.2184097e-07
0.0085656087
2.0873581e-07
0.0085654816
1.9637836e-07
0.0085653621
1.8472519e-07
0.0085652497
1.7373827e-07
0.008565144
1.6337881e-07
0.0085650446
1.5361324e-07
0.0085649512
1.4440693e-07
0.0085648634
1.3573008e-07
0.0085647809
1.2755166e-07
0.0085647033
1.1984531e-07
0.0085646305
1.1258331e-07
0.0085645621
1.0574218e-07
0.0085644978
9.9297053e-08
0.0085644375
9.3227073e-08
0.0085643809
8.7510114e-08
0.0085643278
8.2127382e-08
0.0085642779
7.7059231e-08
0.0085642312
7.2288654e-08
0.0085641873
6.7798568e-08
0.0085641462
6.3573075e-08
0.0085641076
5.9597746e-08
0.0085640715
5.5857202e-08
0.0085640376
5.2340293e-08
0.0085640059
4.9030895e-08
0.0085639762
4.5922123e-08
0.0085639484
4.299544e-08
0.0085639224
4.0250368e-08
0.008563898
3.7662785e-08
0.0085638752
3.52422e-08
0.0085638539
3.2953905e-08
0.008563834
3.0823981e-08
0.0085638153
2.8798224e-08
0.0085637979
2.6930443e-08
0.0085637817
2.5132147e-08
0.0085637664
2.3504362e-08
0.0085637523
2.1898773e-08
0.008563739
2.0496911e-08
0.0085637267
1.9046831e-08
0.0085637151
1.7870129e-08
0.0085637045
1.6535684e-08
0.0085636943
1.5618785e-08
0.0085636851
1.4376725e-08
0.0085636761
1.3861686e-08
1.264619e-08
0.012410641
9.6569907e-07
0.012411624
4.9216779e-06
0.012412516
7.622757e-06
0.012412972
8.3187597e-06
0.012413079
7.7124493e-06
0.012412969
6.8593862e-06
0.012412685
6.240666e-06
0.012412254
5.8335657e-06
0.012411704
5.4992765e-06
0.012411076
5.1537063e-06
0.012410401
4.7939291e-06
0.012409702
4.447289e-06
0.012408994
4.1329633e-06
0.012408287
3.8536016e-06
0.012407589
3.6027026e-06
0.012406904
3.3731464e-06
0.012406238
3.1607191e-06
0.012405593
2.9636075e-06
0.012404972
2.7808376e-06
0.012404375
2.6113611e-06
0.012403803
2.4539328e-06
0.012403255
2.3073176e-06
0.012402732
2.1704543e-06
0.012402234
2.0424807e-06
0.012401759
1.9226816e-06
0.012401308
1.8104308e-06
0.012400879
1.7051616e-06
0.012400472
1.6063567e-06
0.012400085
1.5135482e-06
0.012399719
1.4263128e-06
0.012399372
1.344269e-06
0.012399043
1.2670682e-06
0.012398731
1.194393e-06
0.012398437
1.1259501e-06
0.012398158
1.0614711e-06
0.012397894
1.0007069e-06
0.012397645
9.4342866e-07
0.012397409
8.8942301e-07
0.012397186
8.3849352e-07
0.012396976
7.9045578e-07
0.012396777
7.4513991e-07
0.012396589
7.0238559e-07
0.012396412
6.6204497e-07
0.012396245
6.2397784e-07
0.012396087
5.8805495e-07
0.012395939
5.5415312e-07
0.012395798
5.2215877e-07
0.012395666
4.9196323e-07
0.012395541
4.6346641e-07
0.012395423
4.3657208e-07
0.012395312
4.1119176e-07
0.012395208
3.8723997e-07
0.012395109
3.6463833e-07
0.012395016
3.433108e-07
0.012394929
3.2318775e-07
0.012394846
3.0420137e-07
0.012394769
2.8628982e-07
0.012394696
2.6939253e-07
0.012394627
2.534545e-07
0.012394562
2.3842154e-07
0.012394501
2.2424474e-07
0.012394444
2.1087562e-07
0.01239439
1.9827063e-07
0.01239434
1.8638629e-07
0.012394292
1.751839e-07
0.012394247
1.6462444e-07
0.012394205
1.5467352e-07
0.012394166
1.45296e-07
0.012394128
1.3646143e-07
0.012394094
1.281381e-07
0.012394061
1.2029914e-07
0.01239403
1.1291565e-07
0.012394001
1.059643e-07
0.012393974
9.9418431e-08
0.012393948
9.3258174e-08
0.012393925
8.745832e-08
0.012393902
8.2002913e-08
0.012393881
7.686706e-08
0.012393861
7.2039605e-08
0.012393843
6.7494086e-08
0.012393826
6.3226155e-08
0.01239381
5.920469e-08
0.012393794
5.5435827e-08
0.01239378
5.1878241e-08
0.012393767
4.8555601e-08
0.012393754
4.5406593e-08
0.012393743
4.2485219e-08
0.012393732
3.9692429e-08
0.012393722
3.7136152e-08
0.012393712
3.4647652e-08
0.012393703
3.2431546e-08
0.012393695
3.0191723e-08
0.012393687
2.830658e-08
0.01239368
2.625014e-08
0.012393673
2.4713299e-08
0.012393667
2.2763193e-08
0.012393661
2.1639264e-08
0.012393655
1.970878e-08
0.01239365
1.9110846e-08
1.7180224e-08
0.014857573
4.9526005e-07
0.014859798
2.6976379e-06
0.014863085
4.3354401e-06
0.014866525
4.8785374e-06
0.014869626
4.6113022e-06
0.014872342
4.1426816e-06
0.014874771
3.8118354e-06
0.014876992
3.6122025e-06
0.014879036
3.4555232e-06
0.014880907
3.2826037e-06
0.01488261
3.0903902e-06
0.014884159
2.8983321e-06
0.014885571
2.7208903e-06
0.014886863
2.5611649e-06
0.01488805
2.41568e-06
0.014889143
2.2802925e-06
0.014890151
2.1527682e-06
0.014891082
2.0324575e-06
0.014891943
1.9192112e-06
0.014892742
1.8127414e-06
0.014893483
1.7125546e-06
0.014894173
1.6181078e-06
0.014894814
1.5289342e-06
0.014895412
1.4446678e-06
0.014895969
1.36501e-06
0.01489649
1.2896975e-06
0.014896977
1.2184813e-06
0.014897432
1.1511286e-06
0.014897858
1.0874188e-06
0.014898257
1.0271517e-06
0.014898631
9.7013747e-07
0.014898982
9.1620262e-07
0.014899311
8.651799e-07
0.01489962
8.1691601e-07
0.014899911
7.7126147e-07
0.014900183
7.2808006e-07
0.014900439
6.8723787e-07
0.01490068
6.4861356e-07
0.014900907
6.1208677e-07
0.014901119
5.7754931e-07
0.01490132
5.4489275e-07
0.014901508
5.1402039e-07
0.014901685
4.8483444e-07
0.014901852
4.5724854e-07
0.014902009
4.3117444e-07
0.014902157
4.0653493e-07
0.014902295
3.8325026e-07
0.014902426
3.6125153e-07
0.014902549
3.4046666e-07
0.014902665
3.2083411e-07
0.014902774
3.0228866e-07
0.014902876
2.8477547e-07
0.014902973
2.6823557e-07
0.014903063
2.5262004e-07
0.014903149
2.3787548e-07
0.014903229
2.2395842e-07
0.014903304
2.1082053e-07
0.014903375
1.9842315e-07
0.014903442
1.8672247e-07
0.014903505
1.7568424e-07
0.014903564
1.652688e-07
0.014903619
1.5544577e-07
0.014903671
1.4617918e-07
0.01490372
1.3744219e-07
0.014903766
1.2920224e-07
0.014903809
1.2143554e-07
0.01490385
1.1411255e-07
0.014903888
1.0721232e-07
0.014903924
1.0070813e-07
0.014903957
9.458135e-08
0.014903989
8.8807872e-08
0.014904018
8.3371125e-08
0.014904046
7.8249576e-08
0.014904072
7.3428127e-08
0.014904096
6.8887872e-08
0.014904119
6.461466e-08
0.014904141
6.0592656e-08
0.014904161
5.6807555e-08
0.01490418
5.3247442e-08
0.014904197
4.9896343e-08
0.014904214
4.6748148e-08
0.014904229
4.3782242e-08
0.014904243
4.1001791e-08
0.014904257
3.8376543e-08
0.01490427
3.5925608e-08
0.014904281
3.3599732e-08
0.014904292
3.1446134e-08
0.014904303
2.937993e-08
0.014904312
2.749875e-08
0.014904321
2.5651949e-08
0.01490433
2.4027352e-08
0.014904338
2.2355593e-08
0.014904345
2.0984313e-08
0.014904352
1.9435696e-08
0.014904358
1.8334883e-08
0.014904364
1.6848884e-08
0.01490437
1.6063565e-08
0.014904375
1.4562187e-08
0.01490438
1.4152863e-08
1.2712512e-08
0.016057634
3.2732155e-11
0.016060333
1.0206798e-10
0.016064668
4.8226141e-11
0.016069546
-9.2546583e-12
0.016074157
-2.4015656e-11
0.016078299
1.7555254e-11
0.016082111
7.4558432e-11
0.016085723
1.1322993e-10
0.016089178
1.2492378e-10
0.016092461
1.2661977e-10
0.016095551
1.2790277e-10
0.016098449
1.3270747e-10
0.016101169
1.3517743e-10
0.01610373
1.3497476e-10
0.016106146
1.3005894e-10
0.016108426
1.2293306e-10
0.016110578
1.1353115e-10
0.016112611
1.0334561e-10
0.01611453
9.2158801e-11
0.016116342
8.0519636e-11
0.016118055
6.8628376e-11
0.016119673
5.6673724e-11
0.016121202
4.5269716e-11
0.016122646
3.4141503e-11
0.016124011
2.4061845e-11
0.016125301
1.4361232e-11
0.016126519
6.1151571e-12
0.01612767
-1.473442e-12
0.016128758
-8.4778327e-12
0.016129785
-1.4695167e-11
0.016130755
-1.9368077e-11
0.016131671
-2.3998788e-11
0.016132536
-2.7118756e-11
0.016133353
-3.0501994e-11
0.016134125
-3.2464297e-11
0.016134853
-3.4867828e-11
0.01613554
-3.5899965e-11
0.016136189
-3.7652121e-11
0.016136801
-3.8102813e-11
0.016137378
-3.9332042e-11
0.016137923
-3.9234339e-11
0.016138437
-4.0094089e-11
0.016138922
-3.9646501e-11
0.016139379
-4.0134626e-11
0.016139811
-3.9260869e-11
0.016140217
-3.9472589e-11
0.0161406
-3.8354701e-11
0.016140962
-3.8291618e-11
0.016141302
-3.6875378e-11
0.016141623
-3.6673029e-11
0.016141925
-3.5189073e-11
0.01614221
-3.4890353e-11
0.016142479
-3.3302765e-11
0.016142731
-3.3052258e-11
0.016142969
-3.1582485e-11
0.016143193
-3.1393554e-11
0.016143404
-2.9949978e-11
0.016143602
-2.9900999e-11
0.016143789
-2.8633107e-11
0.016143965
-2.8659044e-11
0.01614413
-2.7395738e-11
0.016144286
-2.7503082e-11
0.016144432
-2.633527e-11
0.016144569
-2.6414519e-11
0.016144698
-2.5142557e-11
0.01614482
-2.5189043e-11
0.016144934
-2.3909747e-11
0.016145041
-2.3836769e-11
0.016145142
-2.2386797e-11
0.016145237
-2.2234397e-11
0.016145325
-2.0761262e-11
0.016145409
-2.0498793e-11
0.016145487
-1.88932e-11
0.016145561
-1.8610603e-11
0.016145629
-1.7060673e-11
0.016145694
-1.6763542e-11
0.016145755
-1.5184263e-11
0.016145812
-1.4976405e-11
0.016145865
-1.3557978e-11
0.016145915
-1.3443849e-11
0.016145961
-1.2089325e-11
0.016146005
-1.2157536e-11
0.016146046
-1.1036765e-11
0.016146085
-1.127554e-11
0.016146121
-1.02714e-11
0.016146154
-1.0752131e-11
0.016146186
-1.0022431e-11
0.016146215
-1.0726369e-11
0.016146243
-1.0161411e-11
0.016146268
-1.1170902e-11
0.016146292
-1.1078525e-11
0.016146315
-1.269846e-11
0.016146336
-1.3248149e-11
0.016146355
-1.5300695e-11
0.016146373
-1.6053398e-11
0.01614639
-1.6988381e-11
0.016146406
-1.821732e-11
0.016146421
-1.8678995e-11
0.016146435
-2.3556427e-11
-2.8268605e-11
0.016057633
-4.9530822e-07
0.016060332
-2.6979203e-06
0.016064668
-4.3357429e-06
0.016069546
-4.8787269e-06
0.016074157
-4.611359e-06
0.016078299
-4.1426578e-06
0.016082111
-3.8117562e-06
0.016085723
-3.6120775e-06
0.016089178
-3.4553665e-06
0.01609246
-3.2824203e-06
0.016095551
-3.0901863e-06
0.016098449
-2.8981114e-06
0.016101169
-2.7206611e-06
0.01610373
-2.5609334e-06
0.016106146
-2.4154539e-06
0.016108426
-2.2800763e-06
0.016110578
-2.1525665e-06
0.016112611
-2.0322728e-06
0.01611453
-1.9190459e-06
0.016116342
-1.8125966e-06
0.016118055
-1.7124312e-06
0.016119673
-1.6180058e-06
0.016121202
-1.528853e-06
0.016122646
-1.4446065e-06
0.016124011
-1.3649673e-06
0.016125301
-1.2896723e-06
0.016126519
-1.2184714e-06
0.01612767
-1.1511328e-06
0.016128758
-1.0874355e-06
0.016129785
-1.0271796e-06
0.016130755
-9.7017417e-07
0.016131671
-9.1624734e-07
0.016132537
-8.6523066e-07
0.016133353
-8.1697246e-07
0.016134125
-7.713218e-07
0.016134853
-7.2814422e-07
0.01613554
-6.873043e-07
0.016136189
-6.4868261e-07
0.016136801
-6.1215698e-07
0.016137378
-5.7762113e-07
0.016137923
-5.4496485e-07
0.016138437
-5.1409343e-07
0.016138922
-4.8490706e-07
0.016139379
-4.573214e-07
0.016139811
-4.3124622e-07
0.016140217
-4.0660646e-07
0.0161406
-3.8332019e-07
0.016140962
-3.6132069e-07
0.016141302
-3.4053381e-07
0.016141623
-3.2090025e-07
0.016141925
-3.0235258e-07
0.01614221
-2.848382e-07
0.016142478
-2.6829601e-07
0.016142731
-2.5267941e-07
0.016142969
-2.3793268e-07
0.016143193
-2.2401465e-07
0.016143404
-2.1087477e-07
0.016143602
-1.9847669e-07
0.016143789
-1.8677424e-07
0.016143965
-1.7573545e-07
0.01614413
-1.6531838e-07
0.016144285
-1.5549495e-07
0.016144432
-1.4622679e-07
0.016144569
-1.3748933e-07
0.016144698
-1.2924773e-07
0.01614482
-1.2148052e-07
0.016144934
-1.1415576e-07
0.016145041
-1.0725478e-07
0.016145142
-1.0074861e-07
0.016145237
-9.4620959e-08
0.016145325
-8.8845341e-08
0.016145409
-8.3407501e-08
0.016145487
-7.8283673e-08
0.01614556
-7.3461122e-08
0.016145629
-6.891858e-08
0.016145694
-6.4644222e-08
0.016145755
-6.0619987e-08
0.016145811
-5.6833935e-08
0.016145865
-5.3271786e-08
0.016145915
-4.9919887e-08
0.016145961
-4.6769892e-08
0.016146005
-4.3803546e-08
0.016146046
-4.1021634e-08
0.016146084
-3.8396227e-08
0.01614612
-3.5944178e-08
0.016146154
-3.3618599e-08
0.016146185
-3.1464311e-08
0.016146215
-2.9398769e-08
0.016146242
-2.7517345e-08
0.016146268
-2.5671792e-08
0.016146292
-2.4047707e-08
0.016146314
-2.2378093e-08
0.016146335
-2.1008518e-08
0.016146355
-1.9462944e-08
0.016146373
-1.8363749e-08
0.01614639
-1.6879523e-08
0.016146406
-1.6095899e-08
0.016146421
-1.4594532e-08
0.016146435
-1.4192941e-08
-1.2758868e-08
0.014857573
-9.656946e-07
0.014859798
-4.9216166e-06
0.014863085
-7.62272e-06
0.014866525
-8.3187932e-06
0.014869626
-7.7125007e-06
0.014872342
-6.8594308e-06
0.014874771
-6.2406725e-06
0.014876992
-5.8335362e-06
0.014879036
-5.4992066e-06
0.014880907
-5.1536075e-06
0.01488261
-4.7938023e-06
0.014884159
-4.4471451e-06
0.014885571
-4.1328045e-06
0.014886863
-3.8534373e-06
0.01488805
-3.602536e-06
0.014889143
-3.3729847e-06
0.014890151
-3.160565e-06
0.014891082
-2.9634655e-06
0.014891944
-2.7807094e-06
0.014892742
-2.6112484e-06
0.014893484
-2.4538365e-06
0.014894173
-2.3072376e-06
0.014894814
-2.1703908e-06
0.014895412
-2.0424323e-06
0.01489597
-1.9226486e-06
0.014896491
-1.8104105e-06
0.014896977
-1.7051544e-06
0.014897432
-1.6063595e-06
0.014897858
-1.5135617e-06
0.014898258
-1.4263336e-06
0.014898632
-1.344298e-06
0.014898982
-1.2671018e-06
0.014899312
-1.1944327e-06
0.014899621
-1.1259923e-06
0.014899911
-1.0615178e-06
0.014900183
-1.0007545e-06
0.01490044
-9.4347974e-07
0.01490068
-8.8947391e-07
0.014900907
-8.3854699e-07
0.01490112
-7.9050825e-07
0.01490132
-7.4519448e-07
0.014901508
-7.0243856e-07
0.014901685
-6.6209951e-07
0.014901852
-6.2403025e-07
0.014902009
-5.8810864e-07
0.014902157
-5.5420425e-07
0.014902295
-5.2221077e-07
0.014902426
-4.9201228e-07
0.014902549
-4.6351619e-07
0.014902665
-4.3661871e-07
0.014902774
-4.1123891e-07
0.014902876
-3.8728384e-07
0.014902972
-3.6468283e-07
0.014903063
-3.4335208e-07
0.014903148
-3.232297e-07
0.014903229
-3.042402e-07
0.014903304
-2.8632959e-07
0.014903375
-2.6942939e-07
0.014903442
-2.5349239e-07
0.014903504
-2.3845664e-07
0.014903563
-2.2428111e-07
0.014903619
-2.1090931e-07
0.014903671
-1.9830553e-07
0.01490372
-1.8641848e-07
0.014903766
-1.7521735e-07
0.014903809
-1.6465513e-07
0.01490385
-1.5470527e-07
0.014903888
-1.4532481e-07
0.014903923
-1.3649125e-07
0.014903957
-1.2816485e-07
0.014903988
-1.2032667e-07
0.014904018
-1.1293998e-07
0.014904046
-1.0598939e-07
0.014904072
-9.9440284e-08
0.014904096
-9.3280686e-08
0.014904119
-8.7477591e-08
0.01490414
-8.2022995e-08
0.01490416
-7.6884042e-08
0.014904179
-7.2057453e-08
0.014904197
-6.7508984e-08
0.014904213
-6.324222e-08
0.014904229
-5.9218072e-08
0.014904243
-5.5450551e-08
0.014904256
-5.1890521e-08
0.014904269
-4.856962e-08
0.014904281
-4.541849e-08
0.014904292
-4.2499123e-08
0.014904302
-3.9704475e-08
0.014904312
-3.715071e-08
0.014904321
-3.4660768e-08
0.014904329
-3.2447642e-08
0.014904337
-3.0206629e-08
0.014904344
-2.8325239e-08
0.014904351
-2.6267989e-08
0.014904358
-2.4735045e-08
0.014904363
-2.2784377e-08
0.014904369
-2.1661778e-08
0.014904374
-1.9729724e-08
0.014904379
-1.91317e-08
-1.7201931e-08
0.012410641
-1.3225223e-06
0.012411624
-5.9031916e-06
0.012412516
-8.5141109e-06
0.012412972
-8.7750723e-06
0.01241308
-7.8205415e-06
0.012412969
-6.7495279e-06
0.012412685
-5.9569388e-06
0.012412254
-5.4022805e-06
0.012411705
-4.9503118e-06
0.012411076
-4.5252181e-06
0.012410401
-4.1188604e-06
0.012409702
-3.7486059e-06
0.012408995
-3.4253029e-06
0.012408288
-3.1467515e-06
0.012407589
-2.9040819e-06
0.012406905
-2.6886232e-06
0.012406239
-2.4946595e-06
0.012405594
-2.3189635e-06
0.012404973
-2.1594322e-06
0.012404375
-2.0142248e-06
0.012403803
-1.8815644e-06
0.012403256
-1.7598429e-06
0.012402733
-1.6477189e-06
0.012402235
-1.5441137e-06
0.01240176
-1.4481484e-06
0.012401309
-1.3590786e-06
0.01240088
-1.2762569e-06
0.012400472
-1.1991128e-06
0.012400086
-1.1271459e-06
0.012399719
-1.0599157e-06
0.012399372
-9.9703491e-07
0.012399043
-9.3815892e-07
0.012398732
-8.8298081e-07
0.012398437
-8.3122375e-07
0.012398158
-7.8263951e-07
0.012397894
-7.3700224e-07
0.012397645
-6.9410814e-07
0.012397409
-6.5377024e-07
0.012397186
-6.158194e-07
0.012396976
-5.8009909e-07
0.012396777
-5.4646683e-07
0.01239659
-5.1478985e-07
0.012396412
-4.8494734e-07
0.012396245
-4.5682585e-07
0.012396087
-4.3032163e-07
0.012395939
-4.0533667e-07
0.012395798
-3.8178163e-07
0.012395666
-3.5957146e-07
0.012395541
-3.3862832e-07
0.012395423
-3.188777e-07
0.012395312
-3.0025181e-07
0.012395207
-2.8268531e-07
0.012395109
-2.661185e-07
0.012395016
-2.5049353e-07
0.012394928
-2.3575807e-07
0.012394846
-2.2186102e-07
0.012394769
-2.0875595e-07
0.012394695
-1.963973e-07
0.012394627
-1.8474422e-07
0.012394562
-1.7375631e-07
0.012394501
-1.6339715e-07
0.012394444
-1.5363055e-07
0.01239439
-1.4442446e-07
0.012394339
-1.3574667e-07
0.012394292
-1.2756857e-07
0.012394247
-1.1986113e-07
0.012394205
-1.1259926e-07
0.012394165
-1.0575704e-07
0.012394128
-9.9312055e-08
0.012394093
-9.3240799e-08
0.01239406
-8.7523769e-08
0.012394029
-8.2139777e-08
0.012394001
-7.7071612e-08
0.012393973
-7.2299644e-08
0.012393948
-6.7809418e-08
0.012393924
-6.358265e-08
0.012393902
-5.9607345e-08
0.012393881
-5.5865507e-08
0.012393861
-5.2348608e-08
0.012393842
-4.9038133e-08
0.012393825
-4.5929632e-08
0.012393809
-4.3001935e-08
0.012393794
-4.0257196e-08
0.01239378
-3.7668866e-08
0.012393766
-3.5248928e-08
0.012393754
-3.295998e-08
0.012393742
-3.0830814e-08
0.012393731
-2.8804693e-08
0.012393721
-2.6938039e-08
0.012393711
-2.5139487e-08
0.012393702
-2.3512912e-08
0.012393694
-2.1907051e-08
0.012393686
-2.0506329e-08
0.012393679
-1.9055675e-08
0.012393672
-1.7880569e-08
0.012393666
-1.6547186e-08
0.01239366
-1.5628924e-08
0.012393655
-1.4386002e-08
0.012393649
-1.3862533e-08
-1.2642752e-08
0.0086292996
-1.2338277e-06
0.0086276786
-4.2811313e-06
0.0086246207
-5.455689e-06
0.0086209354
-5.089843e-06
0.0086172637
-4.1491856e-06
0.0086138105
-3.2966797e-06
0.0086105655
-2.7122634e-06
0.0086074936
-2.3307959e-06
0.0086045943
-2.0512451e-06
0.0086018845
-1.8157794e-06
0.0085993743
-1.6089467e-06
0.0085970578
-1.4323193e-06
0.0085949189
-1.2866456e-06
0.0085929395
-1.1675513e-06
0.0085911035
-1.0682702e-06
0.0085893976
-9.8289452e-07
0.0085878104
-9.0764339e-07
0.0085863318
-8.4045633e-07
0.0085849524
-7.801285e-07
0.0085836638
-7.2572734e-07
0.0085824585
-6.7640705e-07
0.00858133
-6.314279e-07
0.0085802724
-5.9019091e-07
0.0085792804
-5.5223576e-07
0.0085783494
-5.1719859e-07
0.0085774751
-4.8478231e-07
0.0085766535
-4.5472681e-07
0.0085758811
-4.2680831e-07
0.0085751548
-4.0082611e-07
0.0085744714
-3.7661002e-07
0.0085738283
-3.5400556e-07
0.008573223
-3.3288208e-07
0.0085726531
-3.1311748e-07
0.0085721165
-2.9460897e-07
0.0085716111
-2.7725775e-07
0.008571135
-2.6098156e-07
0.0085706866
-2.4569919e-07
0.0085702641
-2.3134436e-07
0.0085698661
-2.1784942e-07
0.0085694912
-2.0516016e-07
0.0085691379
-1.932193e-07
0.0085688051
-1.8198227e-07
0.0085684915
-1.7140009e-07
0.0085681961
-1.614356e-07
0.0085679178
-1.5204631e-07
0.0085676557
-1.4320126e-07
0.0085674088
-1.3486331e-07
0.0085671762
-1.2700633e-07
0.0085669572
-1.1959742e-07
0.0085667509
-1.1261465e-07
0.0085665567
-1.0602878e-07
0.0085663738
-9.9821152e-08
0.0085662016
-9.3965456e-08
0.0085660396
-8.8446035e-08
0.0085658871
-8.3239217e-08
0.0085657435
-7.8331647e-08
0.0085656085
-7.370178e-08
0.0085654814
-6.9338503e-08
0.0085653619
-6.5222261e-08
0.0085652495
-6.1343625e-08
0.0085651437
-5.7684636e-08
0.0085650443
-5.4237595e-08
0.0085649509
-5.0986091e-08
0.0085648631
-4.7923675e-08
0.0085647806
-4.5035164e-08
0.008564703
-4.2315457e-08
0.0085646302
-3.975061e-08
0.0085645617
-3.7336435e-08
0.0085644975
-3.5059954e-08
0.0085644372
-3.2918021e-08
0.0085643805
-3.089869e-08
0.0085643274
-2.8999429e-08
0.0085642775
-2.7209122e-08
0.0085642308
-2.5525967e-08
0.0085641869
-2.3939829e-08
0.0085641458
-2.2449161e-08
0.0085641072
-2.1044732e-08
0.0085640711
-1.9725256e-08
0.0085640372
-1.8482758e-08
0.0085640055
-1.7315529e-08
0.0085639758
-1.6217087e-08
0.0085639479
-1.5184942e-08
0.0085639219
-1.4214955e-08
0.0085638975
-1.3302566e-08
0.0085638747
-1.2447022e-08
0.0085638534
-1.1640357e-08
0.0085638335
-1.0887282e-08
0.0085638148
-1.0173672e-08
0.0085637974
-9.512531e-09
0.0085637812
-8.8801976e-09
0.008563766
-8.3020636e-09
0.0085637518
-7.7402736e-09
0.0085637385
-7.2368852e-09
0.0085637262
-6.7377379e-09
0.0085637146
-6.3026747e-09
0.008563704
-5.865232e-09
0.0085636938
-5.4890579e-09
0.0085636846
-5.1494757e-09
0.0085636756
-4.8525033e-09
-4.9857109e-09
0.0033978554
0.0033935747
0.0033881191
0.0033830291
0.0033788797
0.0033755828
0.0033728704
0.0033705394
0.003368488
0.0033666721
0.003365063
0.0033636305
0.0033623438
0.0033611761
0.0033601078
0.0033591248
0.0033582171
0.0033573765
0.0033565964
0.0033558706
0.0033551941
0.0033545626
0.0033539724
0.0033534201
0.0033529029
0.0033524181
0.0033519633
0.0033515365
0.0033511356
0.003350759
0.003350405
0.0033500721
0.0033497589
0.0033494643
0.003349187
0.0033489261
0.0033486803
0.003348449
0.0033482311
0.003348026
0.0033478327
0.0033476507
0.0033474793
0.0033473179
0.0033471658
0.0033470226
0.0033468878
0.0033467607
0.0033466411
0.0033465285
0.0033464225
0.0033463227
0.0033462287
0.0033461403
0.003346057
0.0033459787
0.003345905
0.0033458356
0.0033457704
0.0033457091
0.0033456514
0.0033455971
0.0033455462
0.0033454982
0.0033454532
0.0033454109
0.0033453711
0.0033453338
0.0033452987
0.0033452658
0.0033452349
0.0033452059
0.0033451787
0.0033451532
0.0033451292
0.0033451068
0.0033450858
0.003345066
0.0033450475
0.0033450302
0.003345014
0.0033449988
0.0033449846
0.0033449713
0.0033449589
0.0033449472
0.0033449363
0.0033449262
0.0033449167
0.0033449078
0.0033448995
0.0033448917
0.0033448845
0.0033448778
0.0033448715
0.0033448656
0.0033448601
0.003344855
0.0033448501
)
;

boundaryField
{
    top
    {
        type            calculated;
        value           uniform 0;
    }
    inlet
    {
        type            calculated;
        value           nonuniform List<scalar> 10(-0.0033990874 -0.0086293867 -0.012410283 -0.014857101 -0.016057138 -0.016057136 -0.014857102 -0.012410283 -0.0086293874 -0.0033990887);
    }
    outlet
    {
        type            calculated;
        value           nonuniform List<scalar> 10(0.0033448453 0.0085636685 0.012393646 0.014904384 0.016146448 0.016146448 0.014904384 0.012393645 0.0085636679 0.0033448451);
    }
    bottom
    {
        type            calculated;
        value           uniform 0;
    }
    back
    {
        type            empty;
        value           nonuniform 0();
    }
    front
    {
        type            empty;
        value           nonuniform 0();
    }
}


// ************************************************************************* //
