/*--------------------------------*- C++ -*----------------------------------*\
| =========                 |                                                 |
| \\      /  F ield         | OpenFOAM: The Open Source CFD Toolbox           |
|  \\    /   O peration     | Version:  v1812                                 |
|   \\  /    A nd           | Web:      www.OpenFOAM.com                      |
|    \\/     M anipulation  |                                                 |
\*---------------------------------------------------------------------------*/
FoamFile
{
    version     2.0;
    format      ascii;
    class       volScalarField;
    location    "6.2";
    object      p;
}
// * * * * * * * * * * * * * * * * * * * * * * * * * * * * * * * * * * * * * //

dimensions      [0 2 -2 0 0 0 0];


internalField   nonuniform List<scalar> 
1000
(
1.6757816
1.5547037
1.4587233
1.3950672
1.3465576
1.3040856
1.2665504
1.2343786
1.2069782
1.1831407
1.1617464
1.1419825
1.1233054
1.1053658
1.0879505
1.0709363
1.0542555
1.0378713
1.0217631
1.0059172
0.99032218
0.97496708
0.95984038
0.94493014
0.93022414
0.91571015
0.90137619
0.88721069
0.87320266
0.85934168
0.845618
0.83202249
0.81854667
0.8051826
0.79192293
0.7787608
0.76568986
0.75270418
0.73979829
0.72696707
0.7142058
0.70151008
0.68887586
0.67629938
0.66377715
0.65130597
0.63888284
0.62650502
0.61416993
0.60187517
0.5896185
0.57739778
0.56521097
0.55305613
0.54093134
0.52883476
0.51676456
0.50471894
0.49269613
0.48069438
0.46871195
0.45674716
0.44479835
0.43286392
0.42094234
0.40903215
0.39713197
0.38524052
0.37335662
0.36147918
0.34960724
0.33773991
0.32587644
0.31401615
0.30215846
0.29030287
0.27844897
0.26659641
0.25474491
0.24289423
0.23104419
0.21919464
0.20734546
0.19549655
0.18364785
0.17179928
0.15995082
0.14810243
0.13625411
0.12440584
0.11255762
0.10070943
0.088861246
0.077013064
0.065164873
0.053316675
0.041468478
0.029620297
0.017772132
0.0059240121
1.5585619
1.5036329
1.4426804
1.3911127
1.3478426
1.3088743
1.2732881
1.2415154
1.2135545
1.1887767
1.1663748
1.1456734
1.1261918
1.1076038
1.0896902
1.0723054
1.0553536
1.0387722
1.0225195
1.006566
0.990889
0.97546947
0.96029062
0.94533695
0.9305939
0.91604768
0.90168528
0.88749441
0.87346359
0.85958203
0.84583969
0.83222722
0.81873592
0.80535771
0.79208509
0.77891107
0.7658292
0.75283344
0.73991821
0.72707835
0.71430903
0.70160582
0.68896458
0.67638151
0.66385307
0.65137602
0.63894734
0.62656424
0.61422413
0.60192459
0.58966338
0.57743833
0.56524743
0.55308871
0.54096029
0.5288603
0.51678693
0.50473839
0.4927129
0.48070872
0.4687241
0.45675736
0.44480683
0.4328709
0.42094802
0.40903672
0.39713561
0.38524338
0.37335884
0.36148088
0.34960852
0.33774087
0.32587714
0.31401665
0.30215881
0.29030311
0.27844913
0.26659651
0.25474497
0.24289426
0.2310442
0.21919464
0.20734546
0.19549655
0.18364784
0.17179928
0.15995082
0.14810243
0.13625411
0.12440584
0.11255761
0.10070942
0.08886124
0.077013062
0.065164873
0.053316674
0.041468472
0.029620282
0.017772097
0.0059239815
1.4977407
1.4715656
1.4331688
1.3920359
1.3529506
1.3163598
1.2820621
1.2503446
1.2214885
1.1953874
1.1716334
1.1497434
1.1292936
1.1099527
1.0914725
1.0736715
1.0564197
1.0396241
1.023218
1.0071529
0.99139251
0.97590882
0.96067895
0.94568345
0.93090518
0.91632869
0.90193987
0.8877257
0.87367417
0.85977412
0.84601522
0.83238788
0.8188832
0.80549292
0.79220939
0.77902549
0.76593464
0.75293072
0.74000805
0.72716138
0.71438582
0.70167687
0.68903035
0.67644238
0.66390941
0.65142813
0.63899549
0.62660868
0.61426508
0.60196225
0.58969791
0.57746991
0.56527619
0.55311481
0.54098385
0.52888147
0.51680585
0.50475519
0.49272773
0.48072171
0.46873541
0.45676712
0.44481519
0.432878
0.420954
0.40904172
0.39713974
0.38524677
0.37336159
0.36148309
0.34961028
0.33774225
0.32587822
0.31401748
0.30215944
0.29030359
0.27844949
0.26659678
0.25474516
0.2428944
0.2310443
0.21919471
0.2073455
0.19549658
0.18364787
0.1717993
0.15995083
0.14810244
0.13625411
0.12440584
0.1125576
0.10070941
0.088861231
0.077013056
0.065164865
0.053316664
0.04146845
0.029620244
0.01777204
0.0059239378
1.4683322
1.4528341
1.4259642
1.3920403
1.3562393
1.321288
1.287986
1.256633
1.2275023
1.2007108
1.1761233
1.1534311
1.1322792
1.1123505
1.0933923
1.0752126
1.0576668
1.0406458
1.0240672
1.0078692
0.99200525
0.9764395
0.96114354
0.94609386
0.93127042
0.91665569
0.90223405
0.88799143
0.87391499
0.859993
0.84621465
0.83256999
0.81904984
0.80564568
0.79234966
0.7791545
0.76605348
0.75304034
0.74010931
0.72725503
0.71447256
0.70175729
0.68910501
0.67651177
0.66397397
0.65148826
0.63905154
0.62666095
0.61431384
0.60200774
0.58974034
0.57750944
0.56531298
0.55314898
0.54101551
0.52891072
0.51683277
0.50477987
0.49275025
0.48074216
0.46875386
0.45678368
0.44482995
0.43289107
0.42096549
0.40905174
0.39714842
0.38525422
0.37336794
0.36148845
0.34961477
0.33774598
0.32588128
0.31401998
0.30216147
0.29030521
0.27845078
0.26659779
0.25474595
0.24289501
0.23104477
0.21919506
0.20734577
0.19549678
0.18364802
0.17179941
0.15995092
0.1481025
0.13625415
0.12440586
0.11255762
0.10070941
0.088861229
0.077013051
0.065164856
0.05331665
0.041468425
0.029620205
0.01777199
0.0059239013
1.4556006
1.4436473
1.4214129
1.3911253
1.3572642
1.3232686
1.290571
1.2595654
1.2304681
1.2034562
1.1785291
1.1554796
1.133998
1.1137804
1.0945768
1.0761946
1.0584857
1.0413352
1.0246544
1.0083753
0.99244628
0.97682773
0.96148821
0.94640205
0.93154759
0.9169061
0.90246113
0.88819794
0.87410326
0.86016499
0.84637206
0.83271428
0.81918228
0.80576742
0.79246172
0.77925777
0.76614876
0.75312836
0.74019072
0.72733042
0.71454246
0.7018222
0.68916535
0.67656795
0.66402634
0.65153715
0.63909724
0.62670372
0.61435391
0.6020453
0.58977555
0.57754245
0.56534391
0.55317792
0.54104254
0.5289359
0.51685617
0.50480152
0.49277021
0.48076046
0.46877056
0.45679881
0.44484359
0.43290327
0.42097633
0.4090613
0.39715678
0.38526147
0.37337417
0.36149377
0.34961927
0.33774975
0.32588441
0.31402256
0.30216357
0.29030691
0.27845213
0.26659887
0.2547468
0.24289567
0.23104527
0.21919545
0.20734606
0.195497
0.18364818
0.17179953
0.15995101
0.14810257
0.1362542
0.12440589
0.11255763
0.10070942
0.088861232
0.07701305
0.065164851
0.053316642
0.04146841
0.029620183
0.017771962
0.0059238821
1.4556006
1.4436473
1.4214129
1.3911253
1.3572642
1.3232686
1.290571
1.2595654
1.2304681
1.2034562
1.1785291
1.1554796
1.133998
1.1137804
1.0945768
1.0761946
1.0584857
1.0413352
1.0246544
1.0083753
0.99244628
0.97682773
0.96148821
0.94640205
0.93154759
0.9169061
0.90246113
0.88819794
0.87410326
0.86016499
0.84637205
0.83271428
0.81918228
0.80576743
0.79246172
0.77925777
0.76614876
0.75312836
0.74019072
0.72733043
0.71454246
0.7018222
0.68916535
0.67656795
0.66402634
0.65153715
0.63909724
0.62670373
0.61435391
0.6020453
0.58977556
0.57754246
0.56534391
0.55317792
0.54104254
0.5289359
0.51685617
0.50480152
0.4927702
0.48076045
0.46877055
0.45679881
0.44484358
0.43290326
0.42097632
0.40906129
0.39715677
0.38526147
0.37337417
0.36149377
0.34961926
0.33774974
0.32588441
0.31402256
0.30216356
0.2903069
0.27845213
0.26659886
0.25474679
0.24289566
0.23104527
0.21919545
0.20734606
0.195497
0.18364818
0.17179953
0.15995101
0.14810257
0.1362542
0.12440589
0.11255763
0.10070942
0.08886123
0.077013048
0.06516485
0.053316641
0.041468409
0.029620182
0.017771962
0.0059238823
1.4683322
1.4528341
1.4259642
1.3920403
1.3562393
1.321288
1.287986
1.256633
1.2275023
1.2007108
1.1761233
1.1534311
1.1322792
1.1123505
1.0933923
1.0752126
1.0576668
1.0406458
1.0240672
1.0078692
0.99200525
0.9764395
0.96114354
0.94609386
0.93127042
0.91665569
0.90223405
0.88799142
0.87391498
0.85999299
0.84621465
0.83256999
0.81904984
0.80564568
0.79234966
0.77915451
0.76605349
0.75304035
0.74010932
0.72725504
0.71447256
0.7017573
0.68910501
0.67651178
0.66397398
0.65148827
0.63905155
0.62666097
0.61431386
0.60200776
0.58974035
0.57750946
0.565313
0.55314899
0.54101552
0.52891072
0.51683277
0.50477987
0.49275024
0.48074214
0.46875385
0.45678367
0.44482994
0.43289106
0.42096548
0.40905173
0.39714841
0.38525421
0.37336792
0.36148844
0.34961476
0.33774597
0.32588127
0.31401997
0.30216146
0.2903052
0.27845077
0.26659778
0.25474594
0.242895
0.23104476
0.21919506
0.20734577
0.19549679
0.18364802
0.17179941
0.15995092
0.1481025
0.13625415
0.12440585
0.11255761
0.10070941
0.088861225
0.077013046
0.065164854
0.053316648
0.041468425
0.029620205
0.01777199
0.0059239019
1.4977407
1.4715656
1.4331688
1.3920359
1.3529506
1.3163598
1.2820621
1.2503446
1.2214885
1.1953874
1.1716334
1.1497434
1.1292936
1.1099527
1.0914725
1.0736715
1.0564197
1.0396241
1.023218
1.0071529
0.99139251
0.97590882
0.96067895
0.94568345
0.93090518
0.91632869
0.90193986
0.88772569
0.87367416
0.85977411
0.84601522
0.83238788
0.8188832
0.80549292
0.79220939
0.7790255
0.76593465
0.75293073
0.74000806
0.72716139
0.71438584
0.70167688
0.68903036
0.67644239
0.66390942
0.65142814
0.63899551
0.6266087
0.6142651
0.60196227
0.58969793
0.57746993
0.56527621
0.55311482
0.54098386
0.52888147
0.51680585
0.50475518
0.49272772
0.4807217
0.46873539
0.4567671
0.44481517
0.43287798
0.42095399
0.4090417
0.39713972
0.38524675
0.37336157
0.36148307
0.34961026
0.33774224
0.3258782
0.31401747
0.30215943
0.29030358
0.27844947
0.26659676
0.25474515
0.24289439
0.23104429
0.21919471
0.20734551
0.19549659
0.18364788
0.1717993
0.15995083
0.14810244
0.1362541
0.12440582
0.11255759
0.1007094
0.088861225
0.077013051
0.065164861
0.053316662
0.041468449
0.029620244
0.01777204
0.0059239379
1.5585619
1.5036329
1.4426804
1.3911127
1.3478426
1.3088743
1.2732881
1.2415154
1.2135545
1.1887767
1.1663748
1.1456734
1.1261918
1.1076038
1.0896902
1.0723054
1.0553536
1.0387722
1.0225195
1.006566
0.990889
0.97546947
0.96029062
0.94533695
0.9305939
0.91604768
0.90168527
0.88749441
0.87346358
0.85958202
0.84583968
0.83222721
0.81873592
0.80535772
0.7920851
0.77891109
0.76582921
0.75283345
0.73991823
0.72707836
0.71430905
0.70160583
0.68896459
0.67638152
0.66385309
0.65137604
0.63894736
0.62656426
0.61422415
0.60192462
0.5896634
0.57743836
0.56524745
0.55308873
0.5409603
0.5288603
0.51678693
0.50473838
0.49271289
0.4807087
0.46872408
0.45675734
0.4448068
0.43287087
0.420948
0.4090367
0.39713559
0.38524336
0.37335882
0.36148086
0.3496085
0.33774085
0.32587712
0.31401664
0.30215879
0.2903031
0.27844911
0.2665965
0.25474495
0.24289425
0.2310442
0.21919464
0.20734547
0.19549656
0.18364785
0.17179929
0.15995081
0.14810242
0.13625409
0.12440582
0.1125576
0.10070941
0.088861235
0.077013058
0.065164868
0.053316671
0.041468471
0.029620283
0.017772097
0.0059239814
1.6757816
1.5547037
1.4587233
1.3950672
1.3465576
1.3040856
1.2665504
1.2343786
1.2069782
1.1831407
1.1617464
1.1419825
1.1233054
1.1053658
1.0879505
1.0709363
1.0542554
1.0378713
1.0217631
1.0059172
0.99032218
0.97496708
0.95984038
0.94493014
0.93022414
0.91571015
0.90137618
0.88721069
0.87320265
0.85934167
0.84561799
0.83202249
0.81854667
0.80518261
0.79192294
0.77876082
0.76568987
0.7527042
0.73979831
0.72696709
0.71420581
0.70151009
0.68887587
0.67629939
0.66377716
0.65130598
0.63888286
0.62650504
0.61416995
0.6018752
0.58961852
0.5773978
0.56521099
0.55305614
0.54093134
0.52883475
0.51676455
0.50471893
0.49269611
0.48069436
0.46871193
0.45674713
0.44479832
0.43286389
0.42094232
0.40903212
0.39713195
0.3852405
0.3733566
0.36147916
0.34960722
0.3377399
0.32587643
0.31401614
0.30215845
0.29030286
0.27844895
0.26659639
0.25474489
0.24289422
0.23104419
0.21919464
0.20734547
0.19549656
0.18364786
0.17179928
0.15995081
0.14810242
0.1362541
0.12440584
0.11255761
0.10070942
0.08886124
0.077013057
0.065164866
0.053316671
0.041468479
0.0296203
0.017772134
0.005924013
)
;

boundaryField
{
    top
    {
        type            zeroGradient;
    }
    inlet
    {
        type            zeroGradient;
    }
    outlet
    {
        type            fixedValue;
        value           uniform 0;
    }
    bottom
    {
        type            zeroGradient;
    }
    back
    {
        type            empty;
    }
    front
    {
        type            empty;
    }
}


// ************************************************************************* //
