/*--------------------------------*- C++ -*----------------------------------*\
| =========                 |                                                 |
| \\      /  F ield         | OpenFOAM: The Open Source CFD Toolbox           |
|  \\    /   O peration     | Version:  v1812                                 |
|   \\  /    A nd           | Web:      www.OpenFOAM.com                      |
|    \\/     M anipulation  |                                                 |
\*---------------------------------------------------------------------------*/
FoamFile
{
    version     2.0;
    format      ascii;
    class       volScalarField;
    location    "11";
    object      p;
}
// * * * * * * * * * * * * * * * * * * * * * * * * * * * * * * * * * * * * * //

dimensions      [0 2 -2 0 0 0 0];


internalField   nonuniform List<scalar> 
1000
(
1.5143744
1.4975185
1.4811236
1.4650492
1.4491777
1.4334384
1.4177927
1.4022197
1.3867054
1.371239
1.3558117
1.3404163
1.3250479
1.3097031
1.2943791
1.2790737
1.2637852
1.2485119
1.2332524
1.2180055
1.2027701
1.1875452
1.17233
1.1571236
1.1419253
1.1267344
1.1115503
1.0963725
1.0812005
1.0660337
1.0508717
1.0357142
1.0205608
1.0054111
0.99026481
0.97512165
0.95998136
0.94484368
0.92970838
0.91457527
0.89944414
0.88431481
0.86918713
0.85406093
0.83893609
0.82381247
0.80868994
0.79356841
0.77844777
0.76332793
0.74820879
0.73309029
0.71797234
0.70285488
0.68773785
0.67262118
0.65750483
0.64238875
0.6272729
0.61215724
0.59704173
0.58192636
0.56681108
0.55169589
0.53658076
0.52146568
0.50635065
0.49123564
0.47612065
0.46100567
0.44589071
0.43077576
0.41566081
0.40054586
0.38543092
0.37031598
0.35520104
0.3400861
0.32497116
0.30985622
0.29474129
0.27962635
0.26451141
0.24939647
0.23428153
0.21916659
0.20405166
0.18893672
0.17382178
0.15870684
0.1435919
0.12847697
0.11336203
0.09824709
0.083132152
0.068017214
0.052902277
0.03778734
0.022672403
0.0075574667
1.5140071
1.4971197
1.4809994
1.4651428
1.4493353
1.4335752
1.4178969
1.4023043
1.3867799
1.3713055
1.3558695
1.3404658
1.3250904
1.3097399
1.2944115
1.2791025
1.2638109
1.248535
1.2332732
1.2180242
1.202787
1.1875606
1.1723439
1.1571362
1.1419367
1.1267448
1.1115598
1.0963811
1.0812082
1.0660407
1.0508781
1.03572
1.020566
1.0054158
0.99026906
0.97512547
0.95998479
0.94484675
0.92971113
0.91457772
0.89944631
0.88431674
0.86918883
0.85406243
0.8389374
0.8238136
0.80869093
0.79356926
0.7784485
0.76332854
0.74820931
0.73309072
0.7179727
0.70285517
0.68773808
0.67262137
0.65750498
0.64238887
0.62727299
0.6121573
0.59704178
0.58192639
0.56681111
0.55169591
0.53658077
0.52146569
0.50635065
0.49123564
0.47612065
0.46100567
0.44589071
0.43077576
0.41566081
0.40054586
0.38543092
0.37031598
0.35520104
0.3400861
0.32497116
0.30985622
0.29474129
0.27962635
0.26451141
0.24939647
0.23428153
0.21916659
0.20405166
0.18893672
0.17382178
0.15870684
0.1435919
0.12847697
0.11336203
0.09824709
0.083132152
0.068017214
0.052902277
0.037787339
0.022672402
0.0075574659
1.5133642
1.4963305
1.4805835
1.4651025
1.449457
1.4337005
1.4179817
1.4023636
1.3868329
1.3713576
1.3559181
1.3405079
1.3251258
1.30977
1.2944377
1.2791257
1.2638315
1.2485533
1.2332895
1.2180388
1.2028002
1.1875724
1.1723546
1.1571459
1.1419455
1.1267527
1.111567
1.0963876
1.0812142
1.0660461
1.050883
1.0357244
1.02057
1.0054194
0.99027233
0.97512843
0.95998745
0.94484915
0.92971329
0.91457965
0.89944805
0.88431829
0.86919021
0.85406366
0.83893848
0.82381456
0.80869177
0.79357
0.77844914
0.7633291
0.74820979
0.73309113
0.71797304
0.70285546
0.68773832
0.67262157
0.65750514
0.642389
0.62727309
0.61215739
0.59704185
0.58192644
0.56681114
0.55169594
0.53658079
0.52146571
0.50635066
0.49123565
0.47612065
0.46100568
0.44589071
0.43077576
0.41566081
0.40054586
0.38543092
0.37031598
0.35520104
0.3400861
0.32497116
0.30985622
0.29474129
0.27962635
0.26451141
0.24939647
0.23428153
0.21916659
0.20405166
0.18893672
0.17382178
0.15870684
0.1435919
0.12847697
0.11336203
0.09824709
0.083132152
0.068017214
0.052902276
0.037787338
0.0226724
0.0075574647
1.5127437
1.4955047
1.4800749
1.4649837
1.4495428
1.4338165
1.4180631
1.4024188
1.386883
1.3714101
1.3559697
1.3405541
1.325165
1.3098034
1.2944667
1.2791513
1.2638543
1.2485735
1.2333075
1.2180549
1.2028146
1.1875854
1.1723664
1.1571565
1.1419552
1.1267615
1.111575
1.0963949
1.0812208
1.0660522
1.0508885
1.0357295
1.0205746
1.0054236
0.99027613
0.97513189
0.9599906
0.94485201
0.92971589
0.91458201
0.89945019
0.88432022
0.86919196
0.85406523
0.8389399
0.82381584
0.80869291
0.79357101
0.77845004
0.7633299
0.74821049
0.73309175
0.71797358
0.70285593
0.68773873
0.67262192
0.65750544
0.64238925
0.6272733
0.61215756
0.59704199
0.58192655
0.56681123
0.55169601
0.53658085
0.52146575
0.50635069
0.49123567
0.47612067
0.46100569
0.44589072
0.43077577
0.41566081
0.40054587
0.38543092
0.37031598
0.35520104
0.3400861
0.32497116
0.30985622
0.29474129
0.27962635
0.26451141
0.24939647
0.23428153
0.21916659
0.20405166
0.18893672
0.17382178
0.15870684
0.1435919
0.12847697
0.11336203
0.09824709
0.083132151
0.068017213
0.052902275
0.037787337
0.022672399
0.0075574638
1.5123782
1.4949982
1.4797416
1.4648894
1.4495869
1.4338883
1.4181156
1.4024541
1.386915
1.3714447
1.3560048
1.3405862
1.3251929
1.3098273
1.2944877
1.2791701
1.2638711
1.2485886
1.233321
1.218067
1.2028255
1.1875953
1.1723754
1.1571647
1.1419626
1.1267683
1.1115812
1.0964006
1.081226
1.0660569
1.0508928
1.0357334
1.0205782
1.0054269
0.99027916
0.97513466
0.95999313
0.94485432
0.92971799
0.91458392
0.89945192
0.8843218
0.86919339
0.85406653
0.83894108
0.8238169
0.80869386
0.79357187
0.77845081
0.76333058
0.7482111
0.73309229
0.71797406
0.70285635
0.68773909
0.67262223
0.6575057
0.64238947
0.62727349
0.61215772
0.59704212
0.58192666
0.56681132
0.55169608
0.5365809
0.52146579
0.50635073
0.4912357
0.47612069
0.4610057
0.44589073
0.43077577
0.41566082
0.40054587
0.38543093
0.37031598
0.35520104
0.3400861
0.32497116
0.30985622
0.29474129
0.27962635
0.26451141
0.24939647
0.23428153
0.21916659
0.20405166
0.18893672
0.17382178
0.15870684
0.1435919
0.12847697
0.11336203
0.098247089
0.083132151
0.068017213
0.052902274
0.037787336
0.022672399
0.0075574636
1.5123782
1.4949982
1.4797416
1.4648894
1.4495869
1.4338883
1.4181156
1.4024541
1.386915
1.3714447
1.3560048
1.3405862
1.3251929
1.3098273
1.2944877
1.2791701
1.2638711
1.2485886
1.233321
1.218067
1.2028255
1.1875953
1.1723754
1.1571647
1.1419626
1.1267683
1.1115812
1.0964006
1.081226
1.0660569
1.0508928
1.0357334
1.0205782
1.0054269
0.99027916
0.97513466
0.95999313
0.94485432
0.92971799
0.91458392
0.89945192
0.8843218
0.86919339
0.85406653
0.83894108
0.82381689
0.80869386
0.79357187
0.77845081
0.76333058
0.7482111
0.73309229
0.71797406
0.70285635
0.68773909
0.67262223
0.6575057
0.64238947
0.62727349
0.61215772
0.59704212
0.58192666
0.56681132
0.55169608
0.5365809
0.52146579
0.50635073
0.4912357
0.47612069
0.4610057
0.44589073
0.43077577
0.41566082
0.40054587
0.38543093
0.37031598
0.35520104
0.3400861
0.32497116
0.30985622
0.29474129
0.27962635
0.26451141
0.24939647
0.23428153
0.21916659
0.20405166
0.18893672
0.17382178
0.15870684
0.1435919
0.12847697
0.11336203
0.098247089
0.083132151
0.068017213
0.052902275
0.037787337
0.022672399
0.007557464
1.5127437
1.4955047
1.4800749
1.4649837
1.4495428
1.4338165
1.4180631
1.4024188
1.386883
1.3714101
1.3559697
1.3405541
1.325165
1.3098034
1.2944667
1.2791513
1.2638543
1.2485735
1.2333075
1.2180549
1.2028146
1.1875854
1.1723664
1.1571565
1.1419552
1.1267615
1.111575
1.0963949
1.0812208
1.0660522
1.0508885
1.0357295
1.0205746
1.0054236
0.99027613
0.97513189
0.9599906
0.94485201
0.92971589
0.91458201
0.89945018
0.88432022
0.86919196
0.85406523
0.8389399
0.82381583
0.80869291
0.79357101
0.77845004
0.7633299
0.74821049
0.73309175
0.71797358
0.70285593
0.68773873
0.67262191
0.65750544
0.64238925
0.6272733
0.61215756
0.59704199
0.58192655
0.56681124
0.55169601
0.53658085
0.52146575
0.50635069
0.49123567
0.47612067
0.46100569
0.44589072
0.43077577
0.41566081
0.40054587
0.38543092
0.37031598
0.35520104
0.3400861
0.32497116
0.30985622
0.29474129
0.27962635
0.26451141
0.24939647
0.23428153
0.21916659
0.20405166
0.18893672
0.17382178
0.15870684
0.1435919
0.12847697
0.11336203
0.09824709
0.083132151
0.068017214
0.052902275
0.037787338
0.0226724
0.0075574648
1.5133642
1.4963305
1.4805835
1.4651025
1.449457
1.4337005
1.4179817
1.4023636
1.3868329
1.3713576
1.3559181
1.3405079
1.3251258
1.30977
1.2944377
1.2791257
1.2638315
1.2485533
1.2332895
1.2180388
1.2028002
1.1875724
1.1723546
1.1571459
1.1419455
1.1267527
1.111567
1.0963876
1.0812142
1.0660461
1.050883
1.0357244
1.02057
1.0054194
0.99027232
0.97512842
0.95998745
0.94484915
0.92971328
0.91457965
0.89944805
0.88431829
0.86919021
0.85406366
0.83893848
0.82381456
0.80869177
0.79357
0.77844914
0.7633291
0.74820979
0.73309113
0.71797304
0.70285546
0.68773832
0.67262157
0.65750514
0.642389
0.6272731
0.61215739
0.59704185
0.58192644
0.56681115
0.55169594
0.5365808
0.52146571
0.50635066
0.49123565
0.47612065
0.46100568
0.44589072
0.43077576
0.41566081
0.40054586
0.38543092
0.37031598
0.35520104
0.3400861
0.32497116
0.30985622
0.29474129
0.27962635
0.26451141
0.24939647
0.23428153
0.21916659
0.20405166
0.18893672
0.17382178
0.15870684
0.1435919
0.12847697
0.11336203
0.09824709
0.083132152
0.068017214
0.052902276
0.037787339
0.022672402
0.0075574657
1.5140071
1.4971197
1.4809994
1.4651428
1.4493353
1.4335752
1.4178969
1.4023043
1.3867799
1.3713055
1.3558695
1.3404658
1.3250904
1.3097399
1.2944115
1.2791026
1.263811
1.248535
1.2332732
1.2180242
1.2027871
1.1875606
1.1723439
1.1571362
1.1419367
1.1267448
1.1115598
1.0963811
1.0812082
1.0660407
1.0508781
1.03572
1.020566
1.0054158
0.99026905
0.97512547
0.95998478
0.94484675
0.92971113
0.91457771
0.89944631
0.88431674
0.86918883
0.85406243
0.8389374
0.8238136
0.80869093
0.79356926
0.7784485
0.76332854
0.74820931
0.73309072
0.7179727
0.70285517
0.68773808
0.67262137
0.65750498
0.64238887
0.62727299
0.61215731
0.59704178
0.58192639
0.56681111
0.55169591
0.53658078
0.52146569
0.50635065
0.49123564
0.47612065
0.46100568
0.44589071
0.43077576
0.41566081
0.40054586
0.38543092
0.37031598
0.35520104
0.3400861
0.32497116
0.30985622
0.29474129
0.27962635
0.26451141
0.24939647
0.23428153
0.21916659
0.20405166
0.18893672
0.17382178
0.15870684
0.1435919
0.12847697
0.11336203
0.09824709
0.083132152
0.068017215
0.052902277
0.03778734
0.022672403
0.0075574665
1.5143744
1.4975185
1.4811236
1.4650492
1.4491777
1.4334384
1.4177927
1.4022196
1.3867054
1.371239
1.3558117
1.3404163
1.325048
1.3097031
1.2943791
1.2790737
1.2637852
1.2485119
1.2332524
1.2180055
1.2027701
1.1875452
1.17233
1.1571236
1.1419253
1.1267344
1.1115503
1.0963725
1.0812005
1.0660337
1.0508717
1.0357142
1.0205608
1.0054111
0.9902648
0.97512165
0.95998135
0.94484367
0.92970838
0.91457527
0.89944414
0.88431481
0.86918713
0.85406093
0.83893609
0.82381246
0.80868994
0.79356841
0.77844777
0.76332793
0.74820879
0.73309029
0.71797234
0.70285488
0.68773785
0.67262118
0.65750483
0.64238875
0.6272729
0.61215724
0.59704173
0.58192636
0.56681108
0.55169589
0.53658076
0.52146569
0.50635065
0.49123564
0.47612065
0.46100567
0.44589071
0.43077576
0.41566081
0.40054586
0.38543092
0.37031598
0.35520104
0.3400861
0.32497116
0.30985622
0.29474129
0.27962635
0.26451141
0.24939647
0.23428153
0.21916659
0.20405166
0.18893672
0.17382178
0.15870684
0.1435919
0.12847697
0.11336203
0.09824709
0.083132152
0.068017215
0.052902277
0.03778734
0.022672403
0.007557467
)
;

boundaryField
{
    top
    {
        type            zeroGradient;
    }
    inlet
    {
        type            fixedValue;
        value           uniform 1.523;
    }
    outlet
    {
        type            fixedValue;
        value           uniform 0;
    }
    bottom
    {
        type            zeroGradient;
    }
    back
    {
        type            empty;
    }
    front
    {
        type            empty;
    }
}


// ************************************************************************* //
