/*--------------------------------*- C++ -*----------------------------------*\
| =========                 |                                                 |
| \\      /  F ield         | OpenFOAM: The Open Source CFD Toolbox           |
|  \\    /   O peration     | Version:  v1812                                 |
|   \\  /    A nd           | Web:      www.OpenFOAM.com                      |
|    \\/     M anipulation  |                                                 |
\*---------------------------------------------------------------------------*/
FoamFile
{
    version     2.0;
    format      ascii;
    class       surfaceScalarField;
    location    "17.5";
    object      phi;
}
// * * * * * * * * * * * * * * * * * * * * * * * * * * * * * * * * * * * * * //

dimensions      [0 3 -1 0 0 0 0];
oriented        oriented;


internalField   nonuniform List<scalar> 
1890
(
0.0093061958
0.00069380425
0.0082843931
0.0010218027
0.0073298986
0.00095449446
0.0064869553
0.00084294331
0.0057695845
0.00071737078
0.00518986
0.00057972443
0.004738168
0.00045169205
0.00439519
0.00034297802
0.0041390268
0.00025616318
0.003949107
0.00018991983
0.003807888
0.00014121897
0.0037013782
0.0001065098
0.003619058
8.2320219e-05
0.0035534117
6.5646243e-05
0.0034992845
5.4127248e-05
0.0034532444
4.6040037e-05
0.0034130502
4.0194282e-05
0.0033772574
3.5792748e-05
0.0033449386
3.2318757e-05
0.0033154894
2.9449282e-05
0.0032885008
2.6988583e-05
0.0032636805
2.4820307e-05
0.003240805
2.2875484e-05
0.0032196926
2.1112417e-05
0.0032001879
1.9504651e-05
0.0031821539
1.8034007e-05
0.0031654672
1.6686718e-05
0.0031500158
1.5451355e-05
0.0031356979
1.431786e-05
0.0031224209
1.3277069e-05
0.0031101003
1.2320594e-05
0.0030986596
1.1440725e-05
0.0030880291
1.063044e-05
0.0030781458
9.8833704e-06
0.003068952
9.1937735e-06
0.0030603955
8.5564946e-06
0.0030524286
7.966913e-06
0.0030450076
7.4208968e-06
0.0030380929
6.9147425e-06
0.0030316478
6.4451214e-06
0.0030256387
6.009056e-06
0.0030200349
5.6038479e-06
0.0030148078
5.227077e-06
0.0030099313
4.8765426e-06
0.0030053811
4.550253e-06
0.0030011346
4.2464042e-06
0.0029971713
3.9633382e-06
0.0029934717
3.699559e-06
0.002990018
3.4536793e-06
0.0029867936
3.2244203e-06
0.002983783
3.0106191e-06
0.0029809718
2.8111763e-06
0.0029783467
2.6250948e-06
0.0029758953
2.4514443e-06
0.002973606
2.2893592e-06
0.0029714679
2.1380629e-06
0.0029694711
1.9968109e-06
0.0029676061
1.8649544e-06
0.0029658642
1.7418591e-06
0.0029642372
1.6269401e-06
0.0029627176
1.5196525e-06
0.0029612982
1.4194677e-06
0.0029599723
1.3259072e-06
0.0029587338
1.238512e-06
0.002957577
1.1568619e-06
0.0029564964
1.0805846e-06
0.002955487
1.0093244e-06
0.0029545442
9.4276753e-07
0.0029536635
8.806337e-07
0.0029528409
8.2261799e-07
0.0029520724
7.6846671e-07
0.0029513546
7.178978e-07
0.002950684
6.7064928e-07
0.0029500575
6.2648546e-07
0.0029494724
5.8519207e-07
0.0029489258
5.4658004e-07
0.0029484152
5.10512e-07
0.0029479383
4.768132e-07
0.0029474929
4.453985e-07
0.0029470768
4.1607723e-07
0.002946688
3.8875238e-07
0.0029463249
3.6320975e-07
0.0029459856
3.3935669e-07
0.0029456687
3.1698417e-07
0.0029453726
2.9608203e-07
0.0029450962
2.7642287e-07
0.0029448379
2.5821259e-07
0.0029445967
2.4105756e-07
0.0029443712
2.2532711e-07
0.0029441609
2.1041254e-07
0.0029439642
1.9684739e-07
0.0029437803
1.8377515e-07
0.0029436083
1.721162e-07
0.002943448
1.6037913e-07
0.0029432978
1.5018702e-07
0.0029431574
1.4029296e-07
0.0029430254
1.3210895e-07
0.0029429003
1.2511232e-07
0.0029427808
1.19413e-07
1.2577265e-07
0.010339525
0.00035427931
0.010570754
0.00079057333
0.010606301
0.00091894817
0.010547572
0.00090167133
0.010422317
0.0008426262
0.010244356
0.00075768557
0.010039421
0.00065662743
0.0098287427
0.00055365586
0.009625135
0.00045977083
0.0094353013
0.00037975353
0.0092624277
0.00031409258
0.0091075333
0.00026140425
0.008970154
0.00021969948
0.0088489024
0.00018689785
0.0087419716
0.00016105801
0.0086474927
0.00014051893
0.008563694
0.00012399295
0.0084890108
0.00011047599
0.0084221097
9.9219866e-05
0.0083618776
8.9681405e-05
0.0083073955
8.1470669e-05
0.0082579079
7.4307847e-05
0.0082127929
6.7990494e-05
0.0081715354
6.2369982e-05
0.008133705
5.7335004e-05
0.0080989388
5.2800172e-05
0.0080669273
4.8698255e-05
0.0080374037
4.497495e-05
0.0080101362
4.1585387e-05
0.0079849214
3.8491847e-05
0.0079615798
3.5662154e-05
0.0079399519
3.3068611e-05
0.0079198952
3.068717e-05
0.0079012817
2.8496847e-05
0.0078839962
2.6479238e-05
0.0078679346
2.4618139e-05
0.0078530023
2.289924e-05
0.0078391133
2.1309844e-05
0.0078261894
1.9838662e-05
0.0078141589
1.8475615e-05
0.0078029563
1.721167e-05
0.0077925214
1.6038731e-05
0.007782799
1.4949484e-05
0.0077737382
1.3937341e-05
0.0077652921
1.2996323e-05
0.0077574175
1.2121002e-05
0.0077500744
1.130645e-05
0.0077432258
1.0548146e-05
0.0077368375
9.8419709e-06
0.0077308778
9.1841349e-06
0.0077253173
8.5711471e-06
0.0077201286
7.9998159e-06
0.0077152866
7.4671684e-06
0.0077107675
6.9704861e-06
0.0077065496
6.5072503e-06
0.0077026125
6.0751343e-06
0.0076989373
5.6720131e-06
0.0076955064
5.2958955e-06
0.0076923033
4.9449552e-06
0.0076893128
4.6174693e-06
0.0076865206
4.3118339e-06
0.0076839135
4.0265682e-06
0.0076814792
3.760264e-06
0.007679206
3.5116432e-06
0.0076770834
3.2795044e-06
0.0076751012
3.0627425e-06
0.0076732501
2.860353e-06
0.0076715215
2.67139e-06
0.0076699072
2.4949724e-06
0.0076683995
2.3302855e-06
0.0076669915
2.1765241e-06
0.0076656765
2.0329398e-06
0.0076644483
1.8988378e-06
0.0076633012
1.7735439e-06
0.0076622299
1.6564952e-06
0.0076612293
1.547133e-06
0.0076602948
1.4450073e-06
0.007659422
1.3496367e-06
0.0076586068
1.2606463e-06
0.0076578453
1.1775461e-06
0.0076571341
1.1000344e-06
0.0076564698
1.0275317e-06
0.0076558493
9.5989859e-07
0.0076552697
8.9649954e-07
0.0076547282
8.374369e-07
0.0076542228
7.8189556e-07
0.0076537505
7.3046711e-07
0.0076533094
6.8214252e-07
0.0076528972
6.3760625e-07
0.0076525127
5.9496608e-07
0.0076521529
5.5670652e-07
0.0076518171
5.1953245e-07
0.0076515027
4.8640106e-07
0.0076512105
4.5245421e-07
0.0076509355
4.2511069e-07
0.0076506807
3.9526292e-07
0.0076504386
3.7432598e-07
0.0076502165
3.4710039e-07
0.0076499999
3.3607074e-07
3.1077051e-07
0.010188704
0.00016557515
0.010530487
0.00044879097
0.010851453
0.00059798174
0.011124174
0.00062895021
0.011350581
0.00061621883
0.011524486
0.00058378053
0.01164633
0.00053478419
0.011724155
0.00047583049
0.011767999
0.00041592665
0.011786639
0.00036111399
0.011787114
0.0003136171
0.011775058
0.00027346024
0.011754861
0.00023989717
0.011729768
0.00021199029
0.011702054
0.00018877259
0.011673239
0.00016933387
0.011644339
0.00015289295
0.011616003
0.00013881182
0.011588629
0.00012659379
0.011562446
0.00011586444
0.011537572
0.00010634493
0.011514052
9.7826991e-05
0.01149189
9.0153353e-05
0.011471056
8.3203355e-05
0.011451509
7.68826e-05
0.011433193
7.1115548e-05
0.011416051
6.5840283e-05
0.011400021
6.10049e-05
0.011385042
5.6565066e-05
0.011371051
5.2482335e-05
0.01135799
4.8723027e-05
0.011345801
4.5257385e-05
0.01133443
4.2058988e-05
0.011323822
3.9104263e-05
0.011313929
3.6372108e-05
0.011304704
3.3843593e-05
0.011296101
3.150168e-05
0.01128808
2.9331011e-05
0.011280601
2.73177e-05
0.011273628
2.5449181e-05
0.011267125
2.3714059e-05
0.011261062
2.2101963e-05
0.011255408
2.0603466e-05
0.011250135
1.9209956e-05
0.011245218
1.791357e-05
0.011240632
1.6707114e-05
0.011236354
1.558398e-05
0.011232364
1.4538114e-05
0.011228643
1.3563932e-05
0.01122517
1.2656301e-05
0.011221931
1.1810493e-05
0.011218909
1.1022115e-05
0.011216089
1.0287142e-05
0.011213457
9.6018282e-06
0.011211002
8.9627195e-06
0.01120871
8.3666294e-06
0.011206572
7.8105956e-06
0.011204576
7.2918825e-06
0.011202713
6.8079233e-06
0.011200974
6.356349e-06
0.011199351
5.9349589e-06
0.011197836
5.5416786e-06
0.011196421
5.1746164e-06
0.011195101
4.8319827e-06
0.011193868
4.5121434e-06
0.011192718
4.2135669e-06
0.011191643
3.9348349e-06
0.01119064
3.674628e-06
0.011189703
3.4317184e-06
0.011188829
3.2049264e-06
0.011188012
2.9931935e-06
0.011187249
2.7954681e-06
0.011186537
2.6108257e-06
0.011185873
2.4383738e-06
0.011185252
2.2773351e-06
0.011184672
2.1269246e-06
0.01118413
1.9865119e-06
0.011183625
1.8553673e-06
0.011183152
1.732991e-06
0.011182711
1.6186412e-06
0.011182299
1.5119354e-06
0.011181915
1.4121158e-06
0.011181556
1.3190618e-06
0.01118122
1.2318431e-06
0.011180907
1.1506915e-06
0.011180614
1.0745147e-06
0.011180341
1.0041106e-06
0.011180086
9.3727474e-07
0.011179847
8.7618648e-07
0.011179625
8.1774255e-07
0.011179416
7.653258e-07
0.011179222
7.1275032e-07
0.01117904
6.6809162e-07
0.011178872
6.2102553e-07
0.011178712
5.8531966e-07
0.011178566
5.4114912e-07
0.011178425
5.1516499e-07
0.0111783
4.7225343e-07
0.011178177
4.5904932e-07
4.160806e-07
0.010097182
6.8393549e-05
0.010346961
0.0001990111
0.010662469
0.00028247385
0.010982753
0.00030866646
0.011290229
0.00030874339
0.011575251
0.00029875786
0.011829022
0.00028101344
0.012047865
0.00025698755
0.012233272
0.00023051981
0.01238924
0.00020514589
0.012520295
0.00018256234
0.012630755
0.00016299955
0.012724428
0.00014622489
0.012804515
0.0001319031
0.012873613
0.00011967425
0.012933772
0.0001091746
0.012986596
0.00010006906
0.013033332
9.2076356e-05
0.01307495
8.4975243e-05
0.013112216
7.8598603e-05
0.013145739
7.2822291e-05
0.013176012
6.7553926e-05
0.013203441
6.2723912e-05
0.013228366
5.8278884e-05
0.013251071
5.4176976e-05
0.013271802
5.0384419e-05
0.01329077
4.687315e-05
0.013308155
4.3619167e-05
0.013324119
4.0601452e-05
0.0133388
3.7801278e-05
0.013352321
3.5201754e-05
0.013364791
3.2787531e-05
0.013376306
3.0544589e-05
0.01338695
2.8460079e-05
0.0133968
2.6522206e-05
0.013405923
2.4720119e-05
0.013414381
2.3043828e-05
0.013422228
2.1484132e-05
0.013429513
2.0032553e-05
0.013436281
1.8681269e-05
0.013442572
1.7423065e-05
0.013448423
1.6251285e-05
0.013453866
1.515977e-05
0.013458933
1.4142837e-05
0.013463652
1.3195227e-05
0.013468047
1.2312075e-05
0.013472142
1.1488873e-05
0.013475959
1.0721441e-05
0.013479517
1.0005912e-05
0.013482834
9.3386911e-06
0.013485928
8.7164415e-06
0.013488814
8.1360762e-06
0.013491507
7.5947081e-06
0.013494019
7.0896762e-06
0.013496363
6.6185053e-06
0.013498551
6.1788946e-06
0.013500593
5.7687016e-06
0.013502499
5.3859251e-06
0.013504278
5.028712e-06
0.013505939
4.6953315e-06
0.01350749
4.3841662e-06
0.013508938
4.0937298e-06
0.01351029
3.8226156e-06
0.013511552
3.5695357e-06
0.013512731
3.3332816e-06
0.013513832
3.1127317e-06
0.01351486
2.9068403e-06
0.01351582
2.7146178e-06
0.013516716
2.5351537e-06
0.013517554
2.3675923e-06
0.013518336
2.211121e-06
0.013519066
2.0650043e-06
0.013519748
1.9285638e-06
0.013520386
1.8011418e-06
0.013520981
1.6821834e-06
0.013521537
1.5710897e-06
0.013522056
1.4673896e-06
0.013522541
1.3705227e-06
0.013522994
1.2801106e-06
0.013523417
1.1955965e-06
0.013523812
1.1167321e-06
0.013524181
1.0429277e-06
0.013524526
9.741709e-07
0.013524848
9.0971214e-07
0.013525148
8.4991767e-07
0.013525429
7.9366362e-07
0.013525692
7.4161146e-07
0.013525937
6.9217706e-07
0.013526166
6.4741197e-07
0.01352638
6.0397368e-07
0.013526581
5.6506861e-07
0.013526767
5.2579566e-07
0.013526941
4.937555e-07
0.013527104
4.584476e-07
0.013527257
4.326018e-07
0.013527399
3.9889349e-07
0.013527533
3.8079178e-07
0.013527658
3.4707728e-07
0.013527779
3.3804509e-07
3.056506e-07
0.010068394
-5.0941012e-12
0.010267405
-1.3186019e-11
0.010549879
-1.4251961e-11
0.010858545
-1.2256129e-11
0.011167288
-9.6400071e-12
0.011466046
-9.6984784e-12
0.01174706
-1.0479417e-11
0.012004047
-1.1817455e-11
0.012234567
-1.3160605e-11
0.012439713
-1.5096546e-11
0.012622275
-1.6101318e-11
0.012785275
-1.5325461e-11
0.0129315
-1.3652364e-11
0.013063403
-1.0988092e-11
0.013183077
-9.3261446e-12
0.013292252
-1.0137333e-11
0.013392321
-1.1509284e-11
0.013484397
-1.1086737e-11
0.013569373
-8.3126924e-12
0.013647971
-7.2987767e-12
0.013720793
-9.704113e-12
0.013788347
-1.2389121e-11
0.013851071
-1.1028173e-11
0.01390935
-1.03669e-11
0.013963527
-1.1494535e-11
0.014013912
-1.2757033e-11
0.014060785
-1.3885363e-11
0.014104404
-1.2346085e-11
0.014145005
-6.8505662e-12
0.014182807
-1.4105387e-12
0.014218009
1.8454306e-12
0.014250796
-4.8896382e-14
0.014281341
-6.3134071e-12
0.014309801
-1.431423e-11
0.014336323
-2.071842e-11
0.014361043
-2.2222085e-11
0.014384087
-1.7619059e-11
0.014405571
-1.0193649e-11
0.014425604
-2.47611e-12
0.014444285
4.5827032e-12
0.014461708
7.9378696e-12
0.014477959
6.6421486e-12
0.014493119
3.984735e-12
0.014507262
9.9874849e-14
0.014520457
-4.1192468e-12
0.014532769
-4.9875091e-12
0.014544258
-3.9178086e-12
0.014554979
-8.9580441e-13
0.014564985
5.5011552e-12
0.014574324
1.4405808e-11
0.014583041
2.0033779e-11
0.014591177
1.6143563e-11
0.014598771
8.6850301e-12
0.014605861
-1.2981154e-13
0.014612479
-1.02945e-11
0.014618658
-1.1954261e-11
0.014624427
-4.686111e-12
0.014629813
5.3751664e-12
0.014634842
1.818708e-11
0.014639537
2.4127196e-11
0.014643921
2.160789e-11
0.014648015
1.1904463e-11
0.014651837
1.429105e-12
0.014655407
-1.2109922e-11
0.01465874
-1.9641116e-11
0.014661853
-1.5273368e-11
0.01466476
-4.3274009e-12
0.014667474
1.2511226e-11
0.01467001
2.9954162e-11
0.014672377
3.7275053e-11
0.014674588
3.4101738e-11
0.014676653
1.4843176e-11
0.014678582
-7.6718346e-12
0.014680383
-3.088422e-11
0.014682065
-4.4751186e-11
0.014683636
-3.1495601e-11
0.014685104
-4.8318897e-12
0.014686474
3.0074888e-11
0.014687754
5.5938538e-11
0.01468895
5.6151437e-11
0.014690067
2.9872351e-11
0.014691109
-1.0982194e-11
0.014692084
-5.0265652e-11
0.014692994
-5.8833581e-11
0.014693843
-2.9380923e-11
0.014694636
-8.6157081e-12
0.014695379
1.5337281e-11
0.014696072
7.755032e-11
0.014696717
1.3007962e-10
0.014697321
4.2263458e-11
0.014697888
-6.409757e-11
0.014698414
-7.5545291e-11
0.014698906
-1.1033339e-10
0.014699365
-2.79943e-11
0.014699799
1.3179263e-10
0.014700197
1.4171156e-10
0.014700577
-4.0724044e-11
0.014700924
-1.1380565e-10
0.014701263
-4.3225055e-11
-4.6360732e-11
0.010068394
-6.8393558e-05
0.010267405
-0.00019901113
0.010549879
-0.00028247388
0.010858545
-0.00030866649
0.011167288
-0.00030874342
0.011466046
-0.00029875789
0.01174706
-0.00028101346
0.012004047
-0.00025698756
0.012234567
-0.00023051983
0.012439713
-0.00020514591
0.012622275
-0.00018256236
0.012785275
-0.00016299958
0.0129315
-0.00014622492
0.013063403
-0.00013190313
0.013183077
-0.00011967427
0.013292252
-0.00010917462
0.013392321
-0.00010006908
0.013484397
-9.207637e-05
0.013569373
-8.4975255e-05
0.013647971
-7.8598616e-05
0.013720793
-7.2822309e-05
0.013788347
-6.7553944e-05
0.013851071
-6.2723931e-05
0.01390935
-5.8278904e-05
0.013963527
-5.4176997e-05
0.014013912
-5.0384444e-05
0.014060785
-4.6873175e-05
0.014104404
-4.3619187e-05
0.014145005
-4.0601463e-05
0.014182807
-3.7801278e-05
0.014218008
-3.5201753e-05
0.014250796
-3.2787535e-05
0.014281341
-3.0544602e-05
0.014309801
-2.8460107e-05
0.014336323
-2.6522241e-05
0.014361043
-2.4720153e-05
0.014384087
-2.3043856e-05
0.014405571
-2.148415e-05
0.014425604
-2.0032556e-05
0.014444285
-1.868126e-05
0.014461708
-1.7423053e-05
0.014477959
-1.625127e-05
0.014493119
-1.5159759e-05
0.014507262
-1.4142834e-05
0.014520457
-1.3195233e-05
0.014532769
-1.2312085e-05
0.014544258
-1.1488881e-05
0.014554979
-1.0721443e-05
0.014564985
-1.00059e-05
0.014574324
-9.3386671e-06
0.014583041
-8.7164165e-06
0.014591177
-8.1360494e-06
0.014598771
-7.5946933e-06
0.014605861
-7.0896759e-06
0.014612479
-6.6185139e-06
0.014618658
-6.1789035e-06
0.014624427
-5.7687017e-06
0.014629813
-5.3859186e-06
0.014634842
-5.0286932e-06
0.014639537
-4.6952976e-06
0.014643921
-4.3841374e-06
0.014648015
-4.0937087e-06
0.014651837
-3.8226127e-06
0.014655407
-3.5695475e-06
0.01465874
-3.3333077e-06
0.014661853
-3.1127564e-06
0.01466476
-2.9068441e-06
0.014667475
-2.714601e-06
0.01467001
-2.5351187e-06
0.014672377
-2.3675365e-06
0.014674588
-2.2110823e-06
0.014676653
-2.0649869e-06
0.014678582
-1.9285767e-06
0.014680383
-1.8011861e-06
0.014682065
-1.6822311e-06
0.014683636
-1.5711199e-06
0.014685104
-1.4673836e-06
0.014686474
-1.3704839e-06
0.014687754
-1.2800565e-06
0.01468895
-1.1955354e-06
0.014690067
-1.1167032e-06
0.014691109
-1.0429581e-06
0.014692084
-9.7422484e-07
0.014692994
-9.0977177e-07
0.014693843
-8.4995562e-07
0.014694636
-7.9366504e-07
0.014695379
-7.4158526e-07
0.014696072
-6.9210145e-07
0.014696717
-6.4727056e-07
0.014697321
-6.03835e-07
0.014697888
-5.6524991e-07
0.014698414
-5.2608101e-07
0.014698906
-4.9359688e-07
0.014699365
-4.5822598e-07
0.014699799
-4.3276153e-07
0.014700197
-3.9907843e-07
0.014700577
-3.8081989e-07
0.014700924
-3.4703261e-07
0.014701263
-3.3801024e-07
-3.0570496e-07
0.010097182
-0.00016557515
0.010346961
-0.000448791
0.010662469
-0.00059798177
0.010982753
-0.00062895025
0.011290229
-0.00061621886
0.011575251
-0.00058378055
0.011829022
-0.0005347842
0.012047865
-0.0004758305
0.012233272
-0.00041592666
0.01238924
-0.000361114
0.012520295
-0.00031361712
0.012630755
-0.00027346026
0.012724428
-0.00023989719
0.012804515
-0.00021199031
0.012873613
-0.00018877261
0.012933772
-0.00016933388
0.012986596
-0.00015289296
0.013033332
-0.00013881183
0.01307495
-0.00012659379
0.013112216
-0.00011586445
0.013145739
-0.00010634494
0.013176012
-9.7827004e-05
0.013203441
-9.0153367e-05
0.013228366
-8.3203371e-05
0.013251071
-7.6882621e-05
0.013271802
-7.1115569e-05
0.01329077
-6.5840299e-05
0.013308155
-6.1004911e-05
0.013324119
-5.656507e-05
0.0133388
-5.2482337e-05
0.013352321
-4.8723026e-05
0.013364791
-4.525739e-05
0.013376305
-4.2059001e-05
0.01338695
-3.910428e-05
0.0133968
-3.6372132e-05
0.013405923
-3.3843619e-05
0.013414381
-3.1501702e-05
0.013422228
-2.933102e-05
0.013429513
-2.7317699e-05
0.013436281
-2.5449173e-05
0.013442572
-2.3714041e-05
0.013448422
-2.2101947e-05
0.013453866
-2.0603455e-05
0.013458933
-1.9209953e-05
0.013463652
-1.7913575e-05
0.013468047
-1.6707122e-05
0.013472142
-1.5583989e-05
0.013475958
-1.4538114e-05
0.013479517
-1.3563928e-05
0.013482834
-1.2656294e-05
0.013485928
-1.1810472e-05
0.013488814
-1.1022096e-05
0.013491507
-1.0287123e-05
0.013494019
-9.601816e-06
0.013496363
-8.962719e-06
0.013498551
-8.3666389e-06
0.013500593
-7.8106149e-06
0.013502499
-7.2918897e-06
0.013504278
-6.8079203e-06
0.013505939
-6.3563382e-06
0.01350749
-5.934931e-06
0.013508938
-5.5416519e-06
0.01351029
-5.1745958e-06
0.013511552
-4.8319815e-06
0.013512731
-4.5121513e-06
0.013513832
-4.2135806e-06
0.01351486
-3.9348538e-06
0.01351582
-3.6746375e-06
0.013516716
-3.4317122e-06
0.013517554
-3.2049172e-06
0.013518336
-2.9931652e-06
0.013519066
-2.7954416e-06
0.013519749
-2.6108115e-06
0.013520386
-2.4383734e-06
0.013520981
-2.2773502e-06
0.013521537
-2.1269542e-06
0.013522056
-1.986545e-06
0.013522541
-1.855388e-06
0.013522994
-1.7329829e-06
0.013523417
-1.618609e-06
0.013523812
-1.5118968e-06
0.013524181
-1.4120858e-06
0.013524526
-1.3190493e-06
0.013524848
-1.2318517e-06
0.013525148
-1.1507683e-06
0.013525429
-1.0745676e-06
0.013525693
-1.0040502e-06
0.013525937
-9.3723371e-07
0.013526166
-8.7630458e-07
0.01352638
-8.1778876e-07
0.01352658
-7.6501938e-07
0.013526767
-7.1250852e-07
0.013526941
-6.6836663e-07
0.013527104
-6.2135909e-07
0.013527257
-5.8525609e-07
0.013527399
-5.4102054e-07
0.013527533
-5.1517159e-07
0.013527658
-4.7222223e-07
0.013527779
-4.5900179e-07
-4.1607348e-07
0.010188704
-0.00035427932
0.010530487
-0.00079057335
0.010851453
-0.0009189482
0.011124174
-0.00090167137
0.011350581
-0.00084262623
0.011524486
-0.00075768559
0.01164633
-0.00065662744
0.011724155
-0.00055365586
0.011767999
-0.00045977083
0.011786639
-0.00037975354
0.011787114
-0.00031409259
0.011775058
-0.00026140427
0.011754861
-0.00021969949
0.011729768
-0.00018689787
0.011702054
-0.00016105802
0.011673239
-0.00014051894
0.011644339
-0.00012399295
0.011616003
-0.00011047599
0.011588629
-9.9219868e-05
0.011562446
-8.9681405e-05
0.011537572
-8.1470672e-05
0.011514052
-7.4307852e-05
0.011491889
-6.7990501e-05
0.011471056
-6.2369993e-05
0.011451509
-5.7335017e-05
0.011433193
-5.2800186e-05
0.011416051
-4.8698266e-05
0.011400021
-4.4974954e-05
0.011385041
-4.1585391e-05
0.011371051
-3.8491848e-05
0.01135799
-3.5662157e-05
0.011345801
-3.3068613e-05
0.01133443
-3.0687174e-05
0.011323822
-2.8496853e-05
0.011313929
-2.6479246e-05
0.011304704
-2.4618151e-05
0.011296101
-2.2899251e-05
0.01128808
-2.1309853e-05
0.011280601
-1.9838665e-05
0.011273628
-1.847561e-05
0.011267125
-1.7211662e-05
0.011261062
-1.6038715e-05
0.011255408
-1.4949471e-05
0.011250135
-1.3937332e-05
0.011245218
-1.299632e-05
0.011240632
-1.2121009e-05
0.011236354
-1.1306457e-05
0.011232364
-1.0548156e-05
0.011228643
-9.8419776e-06
0.01122517
-9.1841355e-06
0.011221931
-8.5711459e-06
0.011218909
-7.9998017e-06
0.011216089
-7.4671498e-06
0.011213457
-6.9704645e-06
0.011211002
-6.507234e-06
0.01120871
-6.0751377e-06
0.011206572
-5.6720286e-06
0.011204576
-5.2959224e-06
0.011202713
-4.944977e-06
0.011200974
-4.6174786e-06
0.011199351
-4.31183e-06
0.011197836
-4.0265419e-06
0.011196421
-3.7602328e-06
0.011195101
-3.5116124e-06
0.011193868
-3.2794859e-06
0.011192718
-3.0627459e-06
0.011191643
-2.8603752e-06
0.01119064
-2.6714252e-06
0.011189703
-2.4950141e-06
0.011188829
-2.3303069e-06
0.011188012
-2.1765239e-06
0.011187249
-2.0329104e-06
0.011186537
-1.8987885e-06
0.011185873
-1.7734978e-06
0.011185252
-1.6564708e-06
0.011184672
-1.5471434e-06
0.01118413
-1.4450595e-06
0.011183625
-1.3497067e-06
0.011183152
-1.2607105e-06
0.011182711
-1.1775673e-06
0.011182299
-1.1000035e-06
0.011181915
-1.0274658e-06
0.011181556
-9.5981089e-07
0.01118122
-8.9644221e-07
0.011180907
-8.3743644e-07
0.011180614
-7.8196245e-07
0.011180341
-7.3055946e-07
0.011180086
-6.8219782e-07
0.011179847
-6.376701e-07
0.011179624
-5.9502871e-07
0.011179416
-5.5653711e-07
0.011179223
-5.191629e-07
0.01117904
-4.8630432e-07
0.011178872
-4.5280064e-07
0.011178712
-4.2541679e-07
0.011178566
-3.9517821e-07
0.011178425
-3.741535e-07
0.0111783
-3.4705052e-07
0.011178177
-3.3599247e-07
-3.1070103e-07
0.010339525
-0.00069380425
0.010570754
-0.0010218027
0.010606301
-0.00095449448
0.010547572
-0.00084294333
0.010422317
-0.0007173708
0.010244356
-0.00057972444
0.010039421
-0.00045169205
0.0098287427
-0.00034297801
0.009625135
-0.00025616318
0.0094353013
-0.00018991983
0.0092624277
-0.00014121897
0.0091075332
-0.0001065098
0.008970154
-8.2320226e-05
0.0088489023
-6.5646249e-05
0.0087419716
-5.4127255e-05
0.0086474927
-4.6040044e-05
0.008563694
-4.0194286e-05
0.0084890108
-3.5792751e-05
0.0084221096
-3.2318757e-05
0.0083618775
-2.9449283e-05
0.0083073954
-2.698858e-05
0.0082579079
-2.4820304e-05
0.0082127929
-2.2875483e-05
0.0081715353
-2.1112419e-05
0.0081337049
-1.9504656e-05
0.0080989388
-1.8034017e-05
0.0080669272
-1.6686727e-05
0.0080374036
-1.5451365e-05
0.0080101361
-1.4317864e-05
0.0079849213
-1.3277073e-05
0.0079615798
-1.2320592e-05
0.0079399519
-1.144072e-05
0.0079198951
-1.0630434e-05
0.0079012816
-9.8833646e-06
0.0078839962
-9.1937718e-06
0.0078679345
-8.5564984e-06
0.0078530022
-7.9669229e-06
0.0078391132
-7.4209084e-06
0.0078261893
-6.9147506e-06
0.0078141588
-6.4451266e-06
0.0078029562
-6.0090514e-06
0.0077925214
-5.6038381e-06
0.0077827989
-5.2270615e-06
0.0077737381
-4.8765271e-06
0.0077652921
-4.5502441e-06
0.0077574175
-4.2464016e-06
0.0077500744
-3.9633476e-06
0.0077432258
-3.6995733e-06
0.0077368375
-3.4536946e-06
0.0077308778
-3.2244364e-06
0.0077253173
-3.010623e-06
0.0077201286
-2.8111702e-06
0.0077152866
-2.6250765e-06
0.0077107675
-2.4514166e-06
0.0077065496
-2.2893372e-06
0.0077026125
-2.1380505e-06
0.0076989373
-1.9968244e-06
0.0076955064
-1.8649811e-06
0.0076923033
-1.7418923e-06
0.0076893128
-1.6269698e-06
0.0076865206
-1.5196625e-06
0.0076839135
-1.419457e-06
0.0076814792
-1.3258749e-06
0.007679206
-1.2384689e-06
0.0076770834
-1.1568263e-06
0.0076751012
-1.0805669e-06
0.0076732502
-1.0093385e-06
0.0076715216
-9.4281343e-07
0.0076699072
-8.8068787e-07
0.0076683996
-8.2267005e-07
0.0076669915
-7.684873e-07
0.0076656765
-7.1787633e-07
0.0076644483
-6.705969e-07
0.0076633012
-6.2641685e-07
0.0076622299
-5.8513929e-07
0.0076612294
-5.4656842e-07
0.0076602949
-5.1054629e-07
0.007659422
-4.7689439e-07
0.0076586068
-4.4548589e-07
0.0076578453
-4.1613762e-07
0.0076571341
-3.8875577e-07
0.0076564698
-3.631487e-07
0.0076558492
-3.3926416e-07
0.0076552697
-3.1687967e-07
0.0076547283
-2.9604327e-07
0.0076542229
-2.7645949e-07
0.0076537506
-2.5827251e-07
0.0076533094
-2.4117207e-07
0.0076528971
-2.2548458e-07
0.0076525126
-2.1041878e-07
0.0076521529
-1.9666795e-07
0.0076518172
-1.8361031e-07
0.0076515028
-1.7205763e-07
0.0076512105
-1.6040616e-07
0.0076509355
-1.5028671e-07
0.0076506807
-1.4040364e-07
0.0076504386
-1.3208728e-07
0.0076502165
-1.2500214e-07
0.0076499999
-1.1933788e-07
-1.2571622e-07
0.0093061957
0.0082843931
0.0073298986
0.0064869553
0.0057695845
0.00518986
0.004738168
0.00439519
0.0041390268
0.003949107
0.003807888
0.0037013782
0.003619058
0.0035534117
0.0034992845
0.0034532444
0.0034130501
0.0033772574
0.0033449386
0.0033154893
0.0032885008
0.0032636805
0.003240805
0.0032196926
0.0032001879
0.0031821539
0.0031654672
0.0031500158
0.0031356979
0.0031224208
0.0031101003
0.0030986595
0.0030880291
0.0030781458
0.003068952
0.0030603955
0.0030524286
0.0030450076
0.0030380929
0.0030316478
0.0030256387
0.0030200349
0.0030148078
0.0030099313
0.0030053811
0.0030011347
0.0029971713
0.0029934717
0.002990018
0.0029867936
0.0029837829
0.0029809718
0.0029783467
0.0029758953
0.002973606
0.002971468
0.0029694711
0.0029676061
0.0029658642
0.0029642372
0.0029627175
0.0029612981
0.0029599722
0.0029587338
0.002957577
0.0029564965
0.0029554871
0.0029545443
0.0029536635
0.0029528408
0.0029520723
0.0029513545
0.0029506839
0.0029500575
0.0029494724
0.0029489259
0.0029484153
0.0029479384
0.0029474928
0.0029470767
0.0029466879
0.0029463248
0.0029459856
0.0029456687
0.0029453727
0.0029450963
0.002944838
0.0029445965
0.0029443711
0.002944161
0.0029439642
0.0029437802
0.0029436083
0.0029434482
0.002943298
0.0029431574
0.0029430253
0.0029429003
0.0029427809
)
;

boundaryField
{
    top
    {
        type            calculated;
        value           uniform 0;
    }
    inlet
    {
        type            calculated;
        value           nonuniform List<scalar> 10(-0.01 -0.01 -0.01 -0.01 -0.01 -0.01 -0.01 -0.01 -0.01 -0.01);
    }
    outlet
    {
        type            calculated;
        value           nonuniform List<scalar> 10(0.002942655 0.0076498149 0.011178072 0.01352789 0.014701569 0.014701569 0.01352789 0.011178072 0.0076498149 0.0029426552);
    }
    bottom
    {
        type            calculated;
        value           uniform 0;
    }
    back
    {
        type            empty;
        value           nonuniform 0();
    }
    front
    {
        type            empty;
        value           nonuniform 0();
    }
}


// ************************************************************************* //
