/*--------------------------------*- C++ -*----------------------------------*\
| =========                 |                                                 |
| \\      /  F ield         | OpenFOAM: The Open Source CFD Toolbox           |
|  \\    /   O peration     | Version:  v1812                                 |
|   \\  /    A nd           | Web:      www.OpenFOAM.com                      |
|    \\/     M anipulation  |                                                 |
\*---------------------------------------------------------------------------*/
FoamFile
{
    version     2.0;
    format      ascii;
    class       volScalarField;
    location    "10.75";
    object      p;
}
// * * * * * * * * * * * * * * * * * * * * * * * * * * * * * * * * * * * * * //

dimensions      [0 2 -2 0 0 0 0];


internalField   nonuniform List<scalar> 
1000
(
1.6755915
1.5545136
1.4585331
1.394877
1.3463675
1.3038955
1.2663602
1.2341885
1.2067881
1.1829506
1.1615562
1.1417924
1.1231153
1.1051757
1.0877604
1.0707462
1.0540653
1.0376811
1.021573
1.005727
0.99013206
0.97477696
0.95965026
0.94474002
0.93003401
0.91552002
0.90118605
0.88702054
0.87301249
0.8591515
0.84542779
0.83183224
0.81835635
0.80499217
0.79173233
0.77856996
0.76549865
0.75251245
0.73960578
0.72677347
0.71401068
0.70131287
0.68867583
0.67609561
0.66356852
0.65109112
0.63866018
0.62627269
0.61392585
0.601617
0.58934368
0.57710359
0.56489457
0.55271458
0.54056174
0.52843429
0.51633057
0.50424905
0.49218828
0.48014691
0.46812368
0.4561174
0.44412696
0.43215131
0.42018949
0.40824059
0.39630378
0.38437828
0.37246334
0.36055828
0.34866245
0.33677523
0.32489606
0.31302441
0.30115977
0.28930169
0.27744975
0.26560356
0.25376275
0.24192697
0.23009588
0.21826917
0.20644655
0.19462774
0.1828125
0.17100061
0.15919188
0.14738609
0.13558308
0.12378266
0.11198465
0.1001889
0.088395253
0.076603601
0.064813815
0.053025795
0.041239456
0.029454643
0.01767147
0.0058893945
1.5583718
1.5034427
1.4424903
1.3909225
1.3476525
1.3086842
1.2730979
1.2413253
1.2133644
1.1885865
1.1661847
1.1454833
1.1260017
1.1074136
1.0895001
1.0721153
1.0551635
1.0385821
1.0223294
1.0063759
0.99069888
0.97527935
0.9601005
0.94514683
0.93040377
0.91585755
0.90149514
0.88730427
0.87327343
0.85939186
0.8456495
0.832037
0.81854565
0.80516735
0.7918946
0.77872038
0.7656382
0.752642
0.73972612
0.72688532
0.71411469
0.70140964
0.68876589
0.67617946
0.66364662
0.65116387
0.63872798
0.62633588
0.61398475
0.60167192
0.58939491
0.57715137
0.56493914
0.55275617
0.54060055
0.52847051
0.51636437
0.50428059
0.49221772
0.48017439
0.46814933
0.45614135
0.44414932
0.43217219
0.42020899
0.4082588
0.39632079
0.38439415
0.37247815
0.36057211
0.34867536
0.3367873
0.32490734
0.31303494
0.30116961
0.28931088
0.27745833
0.26561157
0.25377022
0.24193394
0.23010238
0.21827525
0.20645222
0.19463304
0.18281744
0.17100521
0.15919615
0.14739006
0.13558676
0.12378607
0.11198782
0.10019184
0.088397976
0.076606111
0.064816118
0.053027878
0.041241362
0.02945626
0.017672899
0.0058900715
1.4975506
1.4713755
1.4329786
1.3918457
1.3527604
1.3161696
1.281872
1.2501544
1.2212984
1.1951973
1.1714433
1.1495533
1.1291035
1.1097626
1.0912824
1.0734814
1.0562295
1.0394339
1.0230279
1.0069627
0.99120238
0.9757187
0.96048883
0.94549333
0.93071506
0.91613856
0.90174973
0.88753556
0.87348401
0.85958396
0.84582504
0.83219767
0.81869294
0.80530258
0.79201892
0.77883483
0.76574368
0.75273933
0.73981604
0.72696846
0.71419164
0.70148092
0.68883197
0.67624076
0.66370352
0.65121673
0.63877709
0.62638154
0.61402722
0.60171143
0.58943168
0.57718561
0.56497103
0.55278588
0.54062824
0.52849631
0.51638843
0.50430302
0.49223863
0.48019389
0.46816751
0.45615831
0.44416514
0.43218696
0.42022278
0.40827168
0.3963328
0.38440536
0.37248861
0.36058186
0.34868446
0.3367958
0.32491528
0.31304236
0.30117655
0.28931736
0.27746438
0.26561721
0.25377547
0.24193884
0.23010696
0.21827952
0.20645622
0.19463678
0.18282094
0.17100847
0.15919918
0.14739288
0.13558937
0.1237885
0.11199007
0.10019395
0.08839993
0.076607928
0.064817767
0.053029375
0.041242637
0.029457335
0.01767353
0.0058904795
1.4681421
1.452644
1.425774
1.3918502
1.3560492
1.3210978
1.2877959
1.2564428
1.2273122
1.2005207
1.1759332
1.153241
1.1320891
1.1121604
1.0932022
1.0750225
1.0574767
1.0404557
1.0238771
1.0076791
0.99181512
0.97624938
0.96095342
0.94590374
0.9310803
0.91646557
0.90204392
0.88780128
0.87372484
0.85980283
0.84602446
0.83237977
0.81885956
0.80545531
0.79215915
0.77896378
0.76586243
0.75284881
0.73991709
0.72706185
0.71427801
0.70156088
0.68890606
0.67630947
0.66376727
0.65127591
0.63883207
0.62643264
0.61407472
0.60175562
0.58947279
0.57722388
0.56500666
0.55281906
0.54065916
0.52852513
0.51641528
0.50432805
0.49226197
0.48021565
0.4681878
0.45617723
0.4441828
0.43220343
0.42023815
0.40828603
0.39634619
0.38441786
0.37250027
0.36059274
0.34869461
0.33680527
0.32492412
0.31305063
0.30118427
0.28932458
0.27747112
0.2656235
0.25378135
0.24194432
0.23011207
0.2182843
0.20646069
0.19464096
0.18282485
0.17101215
0.15920261
0.14739608
0.13559235
0.12379129
0.11199266
0.10019638
0.088402188
0.076610059
0.0648197
0.053031193
0.04124415
0.029458758
0.017674411
0.0058914754
1.4554105
1.4434572
1.4212228
1.3909352
1.357074
1.3230785
1.2903809
1.2593753
1.2302779
1.2032661
1.178339
1.1552895
1.1338079
1.1135903
1.0943867
1.0760045
1.0582956
1.0411451
1.0244643
1.0081851
0.99225616
0.97663761
0.96129809
0.94621193
0.93135747
0.91671598
0.902271
0.8880078
0.87391311
0.85997482
0.84618186
0.83252404
0.81899198
0.80557702
0.79227115
0.77906696
0.76595758
0.75293666
0.73999826
0.72713691
0.71434749
0.70162523
0.68896571
0.67636479
0.66381861
0.65132358
0.63887635
0.62647379
0.61411299
0.60179121
0.58950591
0.5772547
0.56503536
0.55284579
0.54068406
0.52854833
0.51643691
0.50434821
0.49228075
0.48023316
0.46820414
0.45619246
0.444197
0.43221669
0.42025052
0.40829757
0.39635697
0.38442791
0.37250965
0.3606015
0.34870278
0.33681289
0.32493124
0.31305727
0.30119048
0.28933039
0.27747655
0.26562857
0.25378608
0.24194873
0.23011619
0.21828814
0.20646428
0.19464433
0.18282801
0.17101511
0.15920538
0.14739868
0.13559477
0.12379355
0.11199477
0.10019837
0.088404029
0.076611809
0.064821285
0.053032713
0.041245425
0.029460015
0.017675275
0.0058924721
1.4554105
1.4434572
1.4212228
1.3909352
1.357074
1.3230785
1.2903809
1.2593753
1.2302779
1.2032661
1.178339
1.1552895
1.1338079
1.1135903
1.0943867
1.0760045
1.0582956
1.0411451
1.0244643
1.0081851
0.99225616
0.97663761
0.9612981
0.94621194
0.93135747
0.91671598
0.902271
0.8880078
0.87391311
0.85997482
0.84618186
0.83252404
0.81899198
0.80557702
0.79227115
0.77906696
0.76595758
0.75293665
0.73999826
0.72713691
0.71434748
0.70162523
0.68896571
0.67636479
0.66381861
0.65132358
0.63887635
0.62647379
0.61411299
0.60179121
0.58950591
0.5772547
0.56503536
0.55284579
0.54068406
0.52854833
0.51643691
0.50434821
0.49228075
0.48023316
0.46820413
0.45619246
0.444197
0.43221669
0.42025053
0.40829758
0.39635697
0.38442791
0.37250965
0.36060149
0.34870278
0.33681289
0.32493124
0.31305728
0.30119049
0.28933039
0.27747655
0.26562857
0.25378608
0.24194873
0.23011619
0.21828814
0.20646429
0.19464434
0.18282802
0.17101512
0.15920539
0.14739868
0.13559477
0.12379356
0.11199477
0.10019837
0.088404035
0.076611816
0.064821291
0.053032718
0.041245425
0.029460013
0.017675269
0.0058924685
1.4681421
1.452644
1.425774
1.3918502
1.3560492
1.3210978
1.2877959
1.2564428
1.2273122
1.2005207
1.1759332
1.153241
1.1320891
1.1121604
1.0932022
1.0750225
1.0574767
1.0404557
1.0238771
1.0076791
0.99181512
0.97624939
0.96095343
0.94590375
0.93108031
0.91646557
0.90204392
0.88780128
0.87372483
0.85980283
0.84602446
0.83237978
0.81885956
0.80545532
0.79215915
0.77896378
0.76586243
0.75284881
0.73991709
0.72706184
0.71427801
0.70156088
0.68890607
0.67630947
0.66376727
0.65127591
0.63883207
0.62643263
0.61407472
0.60175561
0.58947279
0.57722388
0.56500666
0.55281907
0.54065916
0.52852513
0.51641528
0.50432805
0.49226196
0.48021564
0.4681878
0.45617723
0.4441828
0.43220345
0.42023817
0.40828604
0.3963462
0.38441785
0.37250026
0.36059273
0.3486946
0.33680527
0.32492413
0.31305064
0.30118429
0.2893246
0.27747114
0.26562351
0.25378135
0.24194431
0.23011207
0.2182843
0.2064607
0.19464099
0.18282488
0.17101217
0.15920263
0.14739609
0.13559236
0.12379129
0.11199267
0.1001964
0.088402209
0.076610081
0.06481972
0.053031207
0.041244155
0.029458752
0.017674399
0.0058914682
1.4975506
1.4713755
1.4329786
1.3918457
1.3527604
1.3161696
1.281872
1.2501544
1.2212984
1.1951973
1.1714433
1.1495533
1.1291035
1.1097626
1.0912824
1.0734814
1.0562295
1.0394339
1.0230279
1.0069627
0.99120239
0.9757187
0.96048884
0.94549334
0.93071506
0.91613856
0.90174973
0.88753555
0.87348401
0.85958395
0.84582504
0.83219768
0.81869295
0.80530259
0.79201892
0.77883483
0.76574368
0.75273932
0.73981603
0.72696846
0.71419163
0.70148092
0.68883198
0.67624077
0.66370353
0.65121673
0.63877709
0.62638153
0.61402721
0.60171142
0.58943168
0.57718561
0.56497104
0.55278589
0.54062825
0.52849631
0.51638842
0.50430301
0.49223861
0.48019387
0.46816751
0.45615831
0.44416516
0.43218698
0.42022279
0.40827168
0.39633279
0.38440534
0.37248859
0.36058185
0.34868446
0.3367958
0.3249153
0.31304239
0.30117657
0.28931738
0.27746438
0.2656172
0.25377547
0.24193883
0.23010697
0.21827954
0.20645625
0.19463681
0.18282097
0.1710085
0.1591992
0.14739289
0.13558938
0.12378852
0.11199009
0.10019398
0.08839996
0.076607955
0.064817788
0.053029384
0.041242636
0.029457324
0.017673515
0.0058904718
1.5583718
1.5034428
1.4424903
1.3909225
1.3476525
1.3086842
1.2730979
1.2413253
1.2133644
1.1885865
1.1661847
1.1454833
1.1260017
1.1074136
1.0895
1.0721153
1.0551635
1.0385821
1.0223294
1.0063759
0.99069889
0.97527935
0.96010051
0.94514684
0.93040377
0.91585754
0.90149513
0.88730426
0.87327343
0.85939186
0.8456495
0.832037
0.81854565
0.80516736
0.7918946
0.77872038
0.76563819
0.75264199
0.73972611
0.72688532
0.71411469
0.70140964
0.6887659
0.67617947
0.66364662
0.65116387
0.63872797
0.62633587
0.61398474
0.60167192
0.58939491
0.57715138
0.56493915
0.55275618
0.54060056
0.5284705
0.51636436
0.50428058
0.49221771
0.48017439
0.46814934
0.45614137
0.44414934
0.43217221
0.420209
0.4082588
0.39632077
0.38439413
0.37247813
0.3605721
0.34867537
0.33678732
0.32490737
0.31303497
0.30116963
0.28931088
0.27745832
0.26561155
0.25377021
0.24193394
0.23010241
0.21827528
0.20645226
0.19463307
0.18281746
0.17100523
0.15919615
0.14739007
0.13558677
0.12378609
0.11198784
0.10019187
0.088398001
0.076606129
0.064816124
0.053027874
0.041241345
0.029456239
0.017672882
0.0058900646
1.6755915
1.5545136
1.4585331
1.394877
1.3463675
1.3038954
1.2663602
1.2341885
1.2067881
1.1829506
1.1615562
1.1417924
1.1231153
1.1051757
1.0877604
1.0707462
1.0540653
1.0376811
1.0215729
1.005727
0.99013207
0.97477697
0.95965027
0.94474002
0.93003401
0.91552001
0.90118604
0.88702054
0.87301249
0.8591515
0.84542779
0.83183225
0.81835636
0.80499218
0.79173233
0.77856995
0.76549864
0.75251244
0.73960578
0.72677347
0.71401068
0.70131288
0.68867584
0.67609562
0.66356852
0.65109111
0.63866017
0.62627268
0.61392584
0.601617
0.58934369
0.57710361
0.56489458
0.55271459
0.54056174
0.52843428
0.51633056
0.50424903
0.49218827
0.48014691
0.4681237
0.45611742
0.44412698
0.43215132
0.42018949
0.40824058
0.39630376
0.38437825
0.37246332
0.36055828
0.34866246
0.33677526
0.32489609
0.31302443
0.30115978
0.28930169
0.27744974
0.26560355
0.25376275
0.24192699
0.23009591
0.21826921
0.20644658
0.19462777
0.18281252
0.17100062
0.15919188
0.1473861
0.1355831
0.12378268
0.11198467
0.10018892
0.088395275
0.076603613
0.064813816
0.053025784
0.041239437
0.029454621
0.017671454
0.0058893879
)
;

boundaryField
{
    top
    {
        type            zeroGradient;
    }
    inlet
    {
        type            zeroGradient;
    }
    outlet
    {
        type            fixedValue;
        value           uniform 0;
    }
    bottom
    {
        type            zeroGradient;
    }
    back
    {
        type            empty;
    }
    front
    {
        type            empty;
    }
}


// ************************************************************************* //
