/*--------------------------------*- C++ -*----------------------------------*\
| =========                 |                                                 |
| \\      /  F ield         | OpenFOAM: The Open Source CFD Toolbox           |
|  \\    /   O peration     | Version:  v1812                                 |
|   \\  /    A nd           | Web:      www.OpenFOAM.com                      |
|    \\/     M anipulation  |                                                 |
\*---------------------------------------------------------------------------*/
FoamFile
{
    version     2.0;
    format      ascii;
    class       surfaceScalarField;
    location    "13";
    object      phi;
}
// * * * * * * * * * * * * * * * * * * * * * * * * * * * * * * * * * * * * * //

dimensions      [0 3 -1 0 0 0 0];
oriented        oriented;


internalField   nonuniform List<scalar> 
1890
(
0.0029976468
2.4598107e-06
0.0029894232
8.2244783e-06
0.0029793673
1.0055847e-05
0.002970341
9.0258096e-06
0.0029632023
7.1380967e-06
0.0029576223
5.5793653e-06
0.0029530629
4.5589025e-06
0.0029491774
3.8850352e-06
0.0029458084
3.3685631e-06
0.0029428801
2.9279628e-06
0.0029403284
2.5513886e-06
0.0029380865
2.2416189e-06
0.002936094
1.9923153e-06
0.0029343044
1.7893984e-06
0.0029326853
1.6189499e-06
0.0029312137
1.4714919e-06
0.0029298719
1.3417631e-06
0.002928645
1.2267678e-06
0.0029275206
1.1243091e-06
0.0029264881
1.0324633e-06
0.0029255385
9.4958683e-07
0.002924664
8.7437496e-07
0.0029238582
8.0583471e-07
0.002923115
7.4318647e-07
0.0029224292
6.8579012e-07
0.0029217961
6.3309377e-07
0.0029212114
5.8462272e-07
0.0029206715
5.3996305e-07
0.0029201727
4.9875978e-07
0.002919712
4.6070022e-07
0.0029192865
4.255126e-07
0.0029188936
3.9295258e-07
0.0029185308
3.6280566e-07
0.0029181959
3.3487656e-07
0.0029178869
3.08993e-07
0.002917602
2.8499632e-07
0.0029173392
2.6274585e-07
0.0029170971
2.421106e-07
0.0029168742
2.2297399e-07
0.002916669
2.0522634e-07
0.0029164802
1.8876987e-07
0.0029163067
1.7351179e-07
0.0029161474
1.5936924e-07
0.0029160012
1.4626295e-07
0.0029158671
1.3412216e-07
0.0029157442
1.2287868e-07
0.0029156318
1.1247168e-07
0.0029155289
1.0284214e-07
0.002915435
9.3937477e-08
0.0029153493
8.5706395e-08
0.0029152713
7.8103283e-08
0.0029152002
7.1083389e-08
0.0029151356
6.4607036e-08
0.002915077
5.8635129e-08
0.0029150239
5.3133146e-08
0.0029149758
4.8066916e-08
0.0029149325
4.3406435e-08
0.0029148934
3.9121926e-08
0.0029148582
3.5187429e-08
0.0029148266
3.1577098e-08
0.0029147984
2.826861e-08
0.0029147731
2.5239692e-08
0.0029147507
2.2471296e-08
0.0029147308
1.994432e-08
0.0029147131
1.7642592e-08
0.0029146976
1.5549773e-08
0.002914684
1.3652123e-08
0.002914672
1.1935563e-08
0.0029146617
1.0388272e-08
0.0029146527
8.9979265e-09
0.0029146449
7.7541255e-09
0.0029146383
6.6457905e-09
0.0029146326
5.6634893e-09
0.0029146279
4.7970106e-09
0.0029146238
4.0375941e-09
0.0029146205
3.3756509e-09
0.0029146177
2.8029486e-09
0.0029146154
2.3104744e-09
0.0029146135
1.8905681e-09
0.002914612
1.5348649e-09
0.0029146107
1.2364082e-09
0.0029146097
9.8765255e-10
0.002914609
7.8253804e-10
0.0029146084
6.1448601e-10
0.0029146079
4.7846231e-10
0.0029146075
3.6896931e-10
0.0029146072
2.8206407e-10
0.002914607
2.1334532e-10
0.0029146069
1.598975e-10
0.0029146067
1.1835653e-10
0.0029146067
8.6681855e-11
0.0029146066
6.2448465e-11
0.0029146065
4.4198732e-11
0.0029146065
3.0383405e-11
0.0029146065
1.9576773e-11
0.0029146065
1.1390971e-11
0.0029146065
3.5469402e-12
0.0029146065
-2.102276e-12
0.0029146065
-1.2673529e-11
-1.5613323e-11
0.0074166396
2.6467127e-06
0.0074135077
1.1357491e-05
0.0074077093
1.5854487e-05
0.0074008967
1.5837981e-05
0.0073942281
1.3806055e-05
0.007388025
1.1781949e-05
0.0073822553
1.0328176e-05
0.0073768709
9.2690514e-06
0.0073718801
8.3589871e-06
0.0073673057
7.5020402e-06
0.0073631445
6.7123579e-06
0.0073593656
6.0202776e-06
0.0073559275
5.4302543e-06
0.0073527909
4.9258211e-06
0.0073499232
4.4865446e-06
0.007347297
4.0975675e-06
0.0073448885
3.7501567e-06
0.0073426764
3.4387787e-06
0.0073406418
3.1588613e-06
0.007338768
2.9061638e-06
0.0073370406
2.6769335e-06
0.0073354469
2.4680936e-06
0.0073339755
2.2771925e-06
0.0073326164
2.1022461e-06
0.0073313606
1.9415816e-06
0.0073301999
1.7937595e-06
0.007329127
1.657526e-06
0.0073281352
1.5317955e-06
0.0073272183
1.4156187e-06
0.0073263708
1.3081667e-06
0.0073255877
1.208703e-06
0.007324864
1.1165748e-06
0.0073241957
1.0311944e-06
0.0073235785
9.5203656e-07
0.0073230089
8.7862381e-07
0.0073224834
8.1052644e-07
0.0073219988
7.4735032e-07
0.0073215522
6.8873861e-07
0.0073211408
6.343615e-07
0.0073207621
5.8391891e-07
0.0073204138
5.3713177e-07
0.0073200935
4.937453e-07
0.0073197994
4.5352136e-07
0.0073195294
4.1624188e-07
0.0073192819
3.8170211e-07
0.0073190551
3.4971431e-07
0.0073188474
3.2010158e-07
0.0073186576
2.9270141e-07
0.0073184842
2.6736023e-07
0.007318326
2.4393695e-07
0.0073181818
2.2229789e-07
0.0073180506
2.0232017e-07
0.0073179313
1.838871e-07
0.0073178231
1.6689158e-07
0.007317725
1.5123179e-07
0.0073176363
1.3681433e-07
0.0073175561
1.2355042e-07
0.0073174839
1.1135886e-07
0.007317419
1.0016253e-07
0.0073173607
8.9891119e-08
0.0073173085
8.0477954e-08
0.0073172619
7.1862592e-08
0.0073172204
6.3987775e-08
0.0073171835
5.6801799e-08
0.0073171509
5.0255689e-08
0.0073171222
4.4305362e-08
0.0073170969
3.8908909e-08
0.0073170748
3.4028507e-08
0.0073170556
2.9627903e-08
0.0073170389
2.5674165e-08
0.0073170246
2.2135319e-08
0.0073170122
1.898194e-08
0.0073170017
1.6185058e-08
0.0073169928
1.3717708e-08
0.0073169853
1.1553057e-08
0.007316979
9.6659014e-09
0.0073169738
8.0310846e-09
0.0073169695
6.6250135e-09
0.007316966
5.4242542e-09
0.0073169631
4.4069957e-09
0.0073169608
3.5518485e-09
0.007316959
2.8392503e-09
0.0073169575
2.2503389e-09
0.0073169563
1.7682144e-09
0.0073169554
1.3769065e-09
0.0073169548
1.0625043e-09
0.0073169542
8.1210963e-10
0.0073169538
6.1482765e-10
0.0073169535
4.6069362e-10
0.0073169533
3.4169484e-10
0.0073169531
2.5040657e-10
0.007316953
1.8139615e-10
0.0073169529
1.2904595e-10
0.0073169529
9.0251493e-11
0.0073169528
6.0284827e-11
0.0073169528
3.8524672e-11
0.0073169528
1.9924e-11
0.0073169528
6.9295854e-12
0.0073169528
-6.8783873e-12
-1.4229084e-11
0.010476801
1.8947035e-06
0.010478776
9.3838904e-06
0.010480469
1.4160671e-05
0.010481269
1.5037245e-05
0.010481382
1.3692296e-05
0.010481047
1.21171e-05
0.010480377
1.0997797e-05
0.010479441
1.0204497e-05
0.010478316
9.4836907e-06
0.01047708
8.7381147e-06
0.010475793
7.9994174e-06
0.010474494
7.3189036e-06
0.010473208
6.7160276e-06
0.010471951
6.1823617e-06
0.010470736
5.7019863e-06
0.010469569
5.2636628e-06
0.010468458
4.861909e-06
0.010467403
4.4937519e-06
0.010466405
4.1563736e-06
0.010465464
3.8466408e-06
0.01046458
3.5615216e-06
0.010463749
3.2984286e-06
0.010462971
3.0552566e-06
0.010462243
2.8302431e-06
0.010461563
2.6218479e-06
0.010460928
2.4286852e-06
0.010460336
2.2495108e-06
0.010459785
2.0832079e-06
0.010459272
1.9287785e-06
0.010458794
1.7853216e-06
0.010458351
1.6520232e-06
0.010457939
1.528139e-06
0.010457558
1.4129913e-06
0.010457204
1.3059566e-06
0.010456876
1.2064649e-06
0.010456572
1.113989e-06
0.010456292
1.0280448e-06
0.010456032
9.481824e-07
0.010455793
8.7398744e-07
0.010455572
8.0507323e-07
0.010455368
7.4108289e-07
0.01045518
6.8168236e-07
0.010455007
6.2656273e-07
0.010454848
5.7543412e-07
0.010454701
5.280282e-07
0.010454567
4.8409265e-07
0.010454444
4.4339372e-07
0.010454331
4.0571118e-07
0.010454227
3.7084101e-07
0.010454132
3.3859072e-07
0.010454046
3.0878195e-07
0.010453967
2.8124624e-07
0.010453895
2.558275e-07
0.01045383
2.3237829e-07
0.01045377
2.1076211e-07
0.010453716
1.9084996e-07
0.010453667
1.7252266e-07
0.010453623
1.5566766e-07
0.010453583
1.4018122e-07
0.010453547
1.259655e-07
0.010453514
1.1293069e-07
0.010453485
1.0099227e-07
0.010453459
9.0072929e-08
0.010453436
8.0100023e-08
0.010453415
7.1007365e-08
0.010453397
6.2732773e-08
0.01045338
5.5219599e-08
0.010453366
4.8414438e-08
0.010453353
4.2268498e-08
0.010453342
3.6735398e-08
0.010453333
3.1772378e-08
0.010453324
2.7338298e-08
0.010453317
2.3394794e-08
0.010453311
1.9904481e-08
0.010453306
1.6832083e-08
0.010453301
1.4142917e-08
0.010453297
1.1804086e-08
0.010453294
9.7831792e-09
0.010453292
8.0495153e-09
0.01045329
6.5730346e-09
0.010453288
5.3256183e-09
0.010453286
4.2800322e-09
0.010453285
3.4112592e-09
0.010453284
2.6954411e-09
0.010453284
2.1112143e-09
0.010453283
1.6385431e-09
0.010453283
1.2599969e-09
0.010453282
9.5951307e-10
0.010453282
7.235601e-10
0.010453282
5.3992353e-10
0.010453282
3.9853924e-10
0.010453281
2.9066919e-10
0.010453281
2.0892623e-10
0.010453281
1.4764536e-10
0.010453281
1.0135022e-10
0.010453281
6.714664e-11
0.010453281
4.0399969e-11
0.010453281
2.0983409e-11
0.010453281
4.7721952e-12
-6.7626856e-12
0.012388167
9.5424108e-07
0.012392455
5.0957897e-06
0.012398602
8.014009e-06
0.012404847
8.7918646e-06
0.012410366
8.1724929e-06
0.01241515
7.3327448e-06
0.012419393
6.7536989e-06
0.012423227
6.3709818e-06
0.01242669
6.0198241e-06
0.012429797
5.6306039e-06
0.012432572
5.2243954e-06
0.012435052
4.8387752e-06
0.012437278
4.4904614e-06
0.012439283
4.1766123e-06
0.012441097
3.8885197e-06
0.01244274
3.6202902e-06
0.012444232
3.3697535e-06
0.012445589
3.136243e-06
0.012446827
2.9189516e-06
0.012447957
2.7166549e-06
0.01244899
2.5280243e-06
0.012449937
2.3519177e-06
0.012450804
2.1874078e-06
0.012451601
2.0337226e-06
0.012452333
1.8901556e-06
0.012453005
1.7560532e-06
0.012453624
1.630795e-06
0.012454193
1.5138151e-06
0.012454717
1.4045817e-06
0.0124552
1.3026101e-06
0.012455645
1.2074389e-06
0.012456054
1.1186448e-06
0.012456431
1.0358218e-06
0.012456779
9.5859784e-07
0.012457099
8.8661528e-07
0.012457393
8.1954677e-07
0.012457664
7.5707669e-07
0.012457913
6.9891658e-07
0.012458143
6.4478751e-07
0.012458353
5.9443523e-07
0.012458547
5.4761331e-07
0.012458724
5.0409758e-07
0.012458887
4.6367029e-07
0.012459037
4.2613395e-07
0.012459173
3.9129631e-07
0.012459298
3.5898339e-07
0.012459413
3.2902547e-07
0.012459517
3.0126947e-07
0.012459613
2.7556568e-07
0.012459699
2.5177951e-07
0.012459778
2.2977888e-07
0.01245985
2.0944571e-07
0.012459915
1.9066352e-07
0.012459974
1.7332856e-07
0.012460028
1.5733857e-07
0.012460076
1.4260263e-07
0.01246012
1.29031e-07
0.012460159
1.1654426e-07
0.012460194
1.0506388e-07
0.012460225
9.4520832e-08
0.012460253
8.4846787e-08
0.012460278
7.5982049e-08
0.012460301
6.7867432e-08
0.01246032
6.0451677e-08
0.012460338
5.3683811e-08
0.012460353
4.7519961e-08
0.012460366
4.1916266e-08
0.012460378
3.6835182e-08
0.012460388
3.2238825e-08
0.012460396
2.8094731e-08
0.012460404
2.4369725e-08
0.01246041
2.1035254e-08
0.012460416
1.8061697e-08
0.01246042
1.5423294e-08
0.012460424
1.309299e-08
0.012460427
1.1047067e-08
0.012460429
9.2604332e-09
0.012460431
7.7109793e-09
0.012460433
6.3753363e-09
0.012460435
5.2330154e-09
0.012460436
4.2625074e-09
0.012460436
3.4451766e-09
0.012460437
2.7616858e-09
0.012460438
2.1956635e-09
0.012460438
1.7303118e-09
0.012460438
1.3518263e-09
0.012460438
1.0461698e-09
0.012460439
8.0229898e-10
0.012460439
6.0896024e-10
0.012460439
4.5780202e-10
0.012460439
3.4011845e-10
0.012460439
2.500066e-10
0.012460439
1.8086241e-10
0.012460439
1.2900161e-10
0.012460439
8.9387106e-11
0.012460439
6.0317509e-11
0.012460439
3.7507404e-11
0.012460439
2.0640586e-11
0.012460439
6.4254497e-12
-4.6130395e-12
0.013303915
2.8357658e-11
0.013309012
9.0183035e-11
0.013317025
4.3104158e-11
0.013325816
2.2916367e-11
0.013333988
5.9964637e-11
0.01334132
1.5345322e-10
0.013348073
2.2686658e-10
0.013354444
2.5643493e-10
0.013360463
2.5876931e-10
0.013366093
2.5577388e-10
0.013371317
2.5267223e-10
0.013376155
2.4334685e-10
0.013380646
2.2618041e-10
0.013384822
2.0118762e-10
0.01338871
1.7325249e-10
0.01339233
1.4249136e-10
0.0133957
1.1197898e-10
0.013398836
7.9785449e-11
0.013401755
4.91878e-11
0.013404471
1.8940946e-11
0.013406999
-9.7218806e-12
0.013409351
-3.719973e-11
0.013411538
-6.0703995e-11
0.013413572
-8.3056074e-11
0.013415462
-1.0109965e-10
0.013417219
-1.178968e-10
0.01341885
-1.3031301e-10
0.013420363
-1.4143844e-10
0.013421768
-1.4825815e-10
0.013423071
-1.5415384e-10
0.013424279
-1.5614483e-10
0.013425397
-1.5747697e-10
0.013426433
-1.5532348e-10
0.013427392
-1.5302457e-10
0.013428279
-1.4778898e-10
0.013429099
-1.4264656e-10
0.013429856
-1.3495455e-10
0.013430555
-1.2773333e-10
0.0134312
-1.1839742e-10
0.013431794
-1.0965725e-10
0.013432342
-9.9106763e-11
0.013432846
-8.9448389e-11
0.01343331
-7.8382887e-11
0.013433736
-6.8332182e-11
0.013434128
-5.7195965e-11
0.013434487
-4.7352487e-11
0.013434816
-3.6818008e-11
0.013435117
-2.7662653e-11
0.013435393
-1.812702e-11
0.013435644
-1.0147238e-11
0.013435874
-2.2430155e-12
0.013436084
4.6727028e-12
0.013436274
1.1285795e-11
0.013436448
1.6275331e-11
0.013436605
2.1291167e-11
0.013436748
2.4804717e-11
0.013436877
2.8437853e-11
0.013436993
3.0686233e-11
0.013437098
3.3135185e-11
0.013437193
3.4470073e-11
0.013437277
3.616833e-11
0.013437353
3.6927786e-11
0.013437421
3.8144726e-11
0.013437482
3.8658258e-11
0.013437535
3.9723533e-11
0.013437583
4.0167599e-11
0.013437625
4.1142012e-11
0.013437662
4.1580889e-11
0.013437694
4.2496764e-11
0.013437722
4.281651e-11
0.013437746
4.3470273e-11
0.013437767
4.3495159e-11
0.013437785
4.3724624e-11
0.013437801
4.3220918e-11
0.013437814
4.2785339e-11
0.013437825
4.1606011e-11
0.013437834
4.0438987e-11
0.013437842
3.8516379e-11
0.013437848
3.6599497e-11
0.013437853
3.4034395e-11
0.013437857
3.155694e-11
0.013437861
2.8536128e-11
0.013437863
2.5711819e-11
0.013437866
2.252247e-11
0.013437867
1.9669837e-11
0.013437869
1.6570784e-11
0.01343787
1.3915964e-11
0.013437871
1.1141295e-11
0.013437871
8.8966341e-12
0.013437872
6.5541803e-12
0.013437872
4.7457927e-12
0.013437872
2.7951427e-12
0.013437872
1.3995432e-12
0.013437872
-1.8960912e-13
0.013437873
-1.20018e-12
0.013437873
-2.3355447e-12
0.013437873
-3.4063648e-12
0.013437873
-4.5350857e-12
0.013437873
-8.8552935e-12
-1.0581604e-11
0.013303914
-9.5432283e-07
0.013309011
-5.096196e-06
0.013317025
-8.0143386e-06
0.013325816
-8.7919272e-06
0.013333988
-8.1723408e-06
0.01334132
-7.3325037e-06
0.013348073
-6.7533888e-06
0.013354444
-6.3706145e-06
0.013360463
-6.019413e-06
0.013366093
-5.6301674e-06
0.013371317
-5.2239546e-06
0.013376156
-4.838349e-06
0.013380646
-4.4900643e-06
0.013384822
-4.1762551e-06
0.01338871
-3.888209e-06
0.01339233
-3.6200321e-06
0.0133957
-3.3695507e-06
0.013398836
-3.1360981e-06
0.013401755
-2.9188631e-06
0.013404471
-2.7166221e-06
0.013406999
-2.5280439e-06
0.013409351
-2.3519871e-06
0.013411539
-2.187521e-06
0.013413572
-2.0338761e-06
0.013415463
-1.8903429e-06
0.013417219
-1.7562703e-06
0.01341885
-1.6310354e-06
0.013420364
-1.5140748e-06
0.013421768
-1.4048544e-06
0.013423071
-1.3028925e-06
0.013424279
-1.2077252e-06
0.013425397
-1.1189322e-06
0.013426433
-1.0361056e-06
0.013427392
-9.5887622e-07
0.013428279
-8.8688422e-07
0.013429098
-8.1980512e-07
0.013429856
-7.5732124e-07
0.013430555
-6.9914685e-07
0.0134312
-6.4500087e-07
0.013431794
-5.9463164e-07
0.013432342
-5.4779075e-07
0.013432846
-5.0425656e-07
0.01343331
-4.6380935e-07
0.013433736
-4.2625399e-07
0.013434127
-3.9139649e-07
0.013434486
-3.5906514e-07
0.013434815
-3.2908847e-07
0.013435117
-3.0131548e-07
0.013435392
-2.7559492e-07
0.013435644
-2.5179403e-07
0.013435874
-2.2977922e-07
0.013436083
-2.0943379e-07
0.013436274
-1.906402e-07
0.013436447
-1.7329611e-07
0.013436605
-1.5729765e-07
0.013436747
-1.4255526e-07
0.013436876
-1.2897772e-07
0.013436993
-1.1648685e-07
0.013437098
-1.050026e-07
0.013437192
-9.4457044e-08
0.013437277
-8.4780478e-08
0.013437353
-7.5914249e-08
0.013437421
-6.7797852e-08
0.013437481
-6.0381007e-08
0.013437535
-5.3611615e-08
0.013437583
-4.7446788e-08
0.013437624
-4.1841637e-08
0.013437661
-3.675958e-08
0.013437693
-3.2161891e-08
0.013437722
-2.8017073e-08
0.013437746
-2.4291175e-08
0.013437767
-2.0956553e-08
0.013437785
-1.7982924e-08
0.0134378
-1.5345381e-08
0.013437813
-1.3016194e-08
0.013437824
-1.0972389e-08
0.013437834
-9.1882317e-09
0.013437841
-7.6422601e-09
0.013437848
-6.3104037e-09
0.013437853
-5.1727113e-09
0.013437857
-4.2069898e-09
0.013437861
-3.3950757e-09
0.013437863
-2.716912e-09
0.013437866
-2.1565525e-09
0.013437867
-1.6965376e-09
0.013437869
-1.3234941e-09
0.01343787
-1.0227319e-09
0.01343787
-7.8366184e-10
0.013437871
-5.9445849e-10
0.013437871
-4.4728972e-10
0.013437872
-3.3290929e-10
0.013437872
-2.4601409e-10
0.013437872
-1.7946522e-10
0.013437872
-1.301944e-10
0.013437872
-9.2355171e-11
0.013437873
-6.5153464e-11
0.013437873
-4.3833869e-11
0.013437873
-2.8517273e-11
0.013437873
-2.006313e-11
-1.1668522e-11
0.012388167
-1.8946771e-06
0.012392455
-9.3837717e-06
0.012398602
-1.4160619e-05
0.012404846
-1.5037279e-05
0.012410366
-1.3692305e-05
0.01241515
-1.2117036e-05
0.012419393
-1.0997649e-05
0.012423227
-1.0204287e-05
0.01242669
-9.4834381e-06
0.012429798
-8.7378337e-06
0.012432573
-7.99912e-06
0.012435053
-7.3186015e-06
0.012437278
-6.7157357e-06
0.012439284
-6.1820902e-06
0.012441097
-5.7017475e-06
0.01244274
-5.2634603e-06
0.012444233
-4.8617503e-06
0.01244559
-4.4936351e-06
0.012446827
-4.1563029e-06
0.012447957
-3.8466111e-06
0.012448991
-3.5615353e-06
0.012449937
-3.2984784e-06
0.012450805
-3.0553433e-06
0.012451601
-2.8303581e-06
0.012452333
-2.6219917e-06
0.012453006
-2.4288488e-06
0.012453624
-2.2496946e-06
0.012454193
-2.0834029e-06
0.012454718
-1.9289856e-06
0.0124552
-1.7855323e-06
0.012455645
-1.6522386e-06
0.012456054
-1.5283516e-06
0.012456431
-1.4132029e-06
0.012456779
-1.3061604e-06
0.012457098
-1.2066632e-06
0.012457393
-1.1141758e-06
0.012457664
-1.0282229e-06
0.012457913
-9.4834642e-07
0.012458142
-8.7414038e-07
0.012458353
-8.0521042e-07
0.012458546
-7.4120769e-07
0.012458724
-6.8179067e-07
0.012458886
-6.2665801e-07
0.012459036
-5.7551294e-07
0.012459172
-5.2809432e-07
0.012459298
-4.8414316e-07
0.012459412
-4.4343244e-07
0.012459516
-4.0573576e-07
0.012459612
-3.7085543e-07
0.012459698
-3.3859301e-07
0.012459777
-3.0877596e-07
0.012459849
-2.8123027e-07
0.012459914
-2.5580542e-07
0.012459974
-2.323486e-07
0.012460027
-2.1072832e-07
0.012460075
-1.9081065e-07
0.012460119
-1.7248107e-07
0.012460158
-1.5562226e-07
0.012460193
-1.4013479e-07
0.012460225
-1.2591645e-07
0.012460253
-1.1288144e-07
0.012460278
-1.009411e-07
0.0124603
-9.0021843e-08
0.01246032
-8.0047285e-08
0.012460337
-7.0954766e-08
0.012460352
-6.2678601e-08
0.012460366
-5.5165446e-08
0.012460377
-4.8358776e-08
0.012460387
-4.2212922e-08
0.012460396
-3.6678588e-08
0.012460403
-3.1715923e-08
0.01246041
-2.7281162e-08
0.012460415
-2.3338658e-08
0.01246042
-1.984852e-08
0.012460423
-1.6777967e-08
0.012460426
-1.4089993e-08
0.012460429
-1.1754004e-08
0.012460431
-9.7353136e-09
0.012460433
-8.0053477e-09
0.012460434
-6.5318998e-09
0.012460435
-5.2888208e-09
0.012460436
-4.2467564e-09
0.012460437
-3.3825449e-09
0.012460437
-2.6703275e-09
0.012460438
-2.0905464e-09
0.012460438
-1.6211992e-09
0.012460438
-1.2466313e-09
0.012460438
-9.4892181e-10
0.012460439
-7.1634147e-10
0.012460439
-5.348362e-10
0.012460439
-3.9616883e-10
0.012460439
-2.8977106e-10
0.012460439
-2.1026393e-10
0.012460439
-1.4991188e-10
0.012460439
-1.0536514e-10
0.012460439
-7.1580002e-11
0.012460439
-4.5359583e-11
0.012460439
-2.5717232e-11
0.012460439
-9.2660139e-12
1.873076e-12
0.010476801
-2.6466751e-06
0.010478775
-1.1357309e-05
0.010480469
-1.5854308e-05
0.010481269
-1.5837974e-05
0.010481382
-1.3806222e-05
0.010481047
-1.1782164e-05
0.010480377
-1.0328335e-05
0.010479441
-9.269118e-06
0.010478317
-8.3589734e-06
0.01047708
-7.5019694e-06
0.010475793
-6.7122481e-06
0.010474494
-6.02014e-06
0.010473208
-5.4301018e-06
0.010471952
-4.925666e-06
0.010470736
-4.4864003e-06
0.01046957
-4.0974416e-06
0.010468458
-3.7500552e-06
0.010467403
-3.4387025e-06
0.010466406
-3.1588125e-06
0.010465465
-2.9061406e-06
0.01046458
-2.6769361e-06
0.01046375
-2.4681188e-06
0.010462972
-2.2772393e-06
0.010462244
-2.1023104e-06
0.010461563
-1.941662e-06
0.010460928
-1.7938516e-06
0.010460336
-1.6576286e-06
0.010459785
-1.5319045e-06
0.010459272
-1.4157332e-06
0.010458794
-1.3082828e-06
0.010458351
-1.2088202e-06
0.010457939
-1.1166901e-06
0.010457557
-1.0313076e-06
0.010457203
-9.5214488e-07
0.010456875
-8.7872751e-07
0.010456572
-8.1062338e-07
0.010456291
-7.4744108e-07
0.010456032
-6.8882126e-07
0.010455792
-6.3443684e-07
0.010455571
-5.8398554e-07
0.010455367
-5.371907e-07
0.010455179
-4.937953e-07
0.010455006
-4.5356359e-07
0.010454846
-4.1627553e-07
0.0104547
-3.8172852e-07
0.010454566
-3.4973277e-07
0.010454442
-3.201135e-07
0.010454329
-2.9270642e-07
0.010454226
-2.6735982e-07
0.010454131
-2.4393077e-07
0.010454045
-2.222874e-07
0.010453966
-2.023052e-07
0.010453894
-1.8386909e-07
0.010453829
-1.6687031e-07
0.010453769
-1.5120856e-07
0.010453715
-1.3678899e-07
0.010453666
-1.2352411e-07
0.010453622
-1.1133124e-07
0.010453582
-1.0013453e-07
0.010453546
-8.9862399e-08
0.010453513
-8.0449261e-08
0.010453484
-7.1833404e-08
0.010453458
-6.3958679e-08
0.010453435
-5.6772299e-08
0.010453414
-5.0226275e-08
0.010453396
-4.4275486e-08
0.01045338
-3.887902e-08
0.010453365
-3.3998191e-08
0.010453353
-2.9597635e-08
0.010453342
-2.5643588e-08
0.010453332
-2.2104959e-08
0.010453324
-1.8951617e-08
0.010453317
-1.6155354e-08
0.01045331
-1.3688493e-08
0.010453305
-1.1524934e-08
0.010453301
-9.6388401e-09
0.010453297
-8.0056659e-09
0.010453294
-6.6011519e-09
0.010453291
-5.4024537e-09
0.010453289
-4.3871551e-09
0.010453287
-3.5343621e-09
0.010453286
-2.8238806e-09
0.010453285
-2.2373556e-09
0.010453284
-1.7573251e-09
0.010453283
-1.3682735e-09
0.010453283
-1.0557149e-09
0.010453282
-8.0725495e-10
0.010453282
-6.114886e-10
0.010453282
-4.589413e-10
0.010453281
-3.4105613e-10
0.010453281
-2.5096883e-10
0.010453281
-1.8267586e-10
0.010453281
-1.3120701e-10
0.010453281
-9.2727033e-11
0.010453281
-6.3594521e-11
0.010453281
-4.1861345e-11
0.010453281
-2.297987e-11
0.010453281
-9.0472753e-12
0.010453281
1.0676456e-11
1.9109554e-11
0.0074166397
-2.4596985e-06
0.0074135077
-8.2243593e-06
0.0074077095
-1.0055826e-05
0.007400897
-9.0259495e-06
0.0073942284
-7.1384126e-06
0.0073880253
-5.5797642e-06
0.0073822556
-4.5592698e-06
0.0073768712
-3.8853057e-06
0.0073718804
-3.3687355e-06
0.007367306
-2.9280648e-06
0.0073631448
-2.5514444e-06
0.0073593659
-2.2416439e-06
0.0073559278
-1.9923163e-06
0.0073527913
-1.7893861e-06
0.0073499236
-1.6189301e-06
0.0073472975
-1.4714741e-06
0.007344889
-1.3417478e-06
0.0073426769
-1.22676e-06
0.0073406423
-1.124306e-06
0.0073387685
-1.0324682e-06
0.0073370411
-9.4959616e-07
0.0073354473
-8.743917e-07
0.0073339759
-8.0585453e-07
0.0073326168
-7.4321209e-07
0.0073313609
-6.8581693e-07
0.0073302002
-6.331246e-07
0.0073291272
-5.8465315e-07
0.0073281353
-5.3999597e-07
0.0073272183
-4.9879085e-07
0.0073263708
-4.6073245e-07
0.0073255875
-4.2554195e-07
0.0073248638
-3.9298212e-07
0.0073241953
-3.6283152e-07
0.0073235781
-3.3490188e-07
0.0073230084
-3.0901426e-07
0.0073224828
-2.8501665e-07
0.0073219982
-2.6276191e-07
0.0073215515
-2.4212549e-07
0.0073211401
-2.2298468e-07
0.0073207614
-2.0523587e-07
0.007320413
-1.8877533e-07
0.0073200927
-1.7351614e-07
0.0073197986
-1.5936982e-07
0.0073195286
-1.4626261e-07
0.007319281
-1.3411837e-07
0.0073190542
-1.2287416e-07
0.0073188466
-1.1246412e-07
0.0073186567
-1.0283414e-07
0.0073184833
-9.3926835e-08
0.0073183251
-8.5695594e-08
0.0073181809
-7.809032e-08
0.0073180497
-7.107061e-08
0.0073179305
-6.4592526e-08
0.0073178223
-5.8621116e-08
0.0073177242
-5.3117863e-08
0.0073176355
-4.8052433e-08
0.0073175554
-4.3391026e-08
0.0073174832
-3.9107508e-08
0.0073174183
-3.5172375e-08
0.00731736
-3.1563158e-08
0.0073173078
-2.8254174e-08
0.0073172612
-2.5226365e-08
0.0073172197
-2.2457554e-08
0.0073171829
-1.9931629e-08
0.0073171504
-1.7629467e-08
0.0073171216
-1.5537584e-08
0.0073170964
-1.3639496e-08
0.0073170744
-1.1923786e-08
0.0073170552
-1.0376046e-08
0.0073170385
-8.9864972e-09
0.0073170242
-7.7423225e-09
0.0073170119
-6.6348158e-09
0.0073170014
-5.6522464e-09
0.0073169925
-4.7866792e-09
0.007316985
-4.0271765e-09
0.0073169787
-3.3662804e-09
0.0073169735
-2.7936564e-09
0.0073169693
-2.3023593e-09
0.0073169658
-1.8827016e-09
0.0073169629
-1.5282822e-09
0.0073169606
-1.2301574e-09
0.0073169588
-9.827254e-10
0.0073169573
-7.7798302e-10
0.0073169562
-6.1123113e-10
0.0073169553
-4.7551942e-10
0.0073169546
-3.672328e-10
0.0073169541
-2.8056049e-10
0.0073169537
-2.1291105e-10
0.0073169534
-1.5956412e-10
0.0073169532
-1.1893089e-10
0.007316953
-8.7207559e-11
0.0073169529
-6.3661396e-11
0.0073169528
-4.5098135e-11
0.0073169527
-3.1815089e-11
0.0073169527
-2.0866581e-11
0.0073169527
-1.2807875e-11
0.0073169527
-5.1376993e-12
0.0073169526
1.5868511e-12
0.0073169526
1.7011872e-11
2.1187454e-11
0.0029976475
0.0029894235
0.0029793676
0.0029703413
0.0029632024
0.0029576223
0.0029530627
0.0029491771
0.0029458081
0.0029428798
0.0029403281
0.0029380863
0.0029360939
0.0029343044
0.0029326853
0.0029312138
0.0029298719
0.0029286451
0.0029275208
0.0029264883
0.0029255386
0.0029246642
0.0029238583
0.0029231151
0.0029224293
0.0029217961
0.0029212115
0.0029206715
0.0029201727
0.002919712
0.0029192864
0.0029188935
0.0029185306
0.0029181958
0.0029178868
0.0029176018
0.002917339
0.0029170969
0.0029168739
0.0029166687
0.00291648
0.0029163065
0.0029161471
0.0029160009
0.0029158668
0.0029157439
0.0029156314
0.0029155286
0.0029154347
0.002915349
0.002915271
0.0029151999
0.0029151353
0.0029150767
0.0029150236
0.0029149756
0.0029149322
0.0029148931
0.002914858
0.0029148264
0.0029147982
0.002914773
0.0029147505
0.0029147306
0.002914713
0.0029146974
0.0029146838
0.0029146719
0.0029146615
0.0029146526
0.0029146448
0.0029146382
0.0029146325
0.0029146278
0.0029146237
0.0029146204
0.0029146176
0.0029146153
0.0029146134
0.0029146119
0.0029146107
0.0029146097
0.0029146089
0.0029146083
0.0029146078
0.0029146075
0.0029146072
0.002914607
0.0029146068
0.0029146067
0.0029146066
0.0029146066
0.0029146065
0.0029146065
0.0029146065
0.0029146064
0.0029146064
0.0029146064
0.0029146065
)
;

boundaryField
{
    top
    {
        type            calculated;
        value           uniform 0;
    }
    inlet
    {
        type            calculated;
        value           nonuniform List<scalar> 10(-0.0030001054 -0.0074168257 -0.010476048 -0.012387225 -0.01330296 -0.013302959 -0.012387226 -0.010476047 -0.0074168257 -0.0030001066);
    }
    outlet
    {
        type            calculated;
        value           nonuniform List<scalar> 10(0.0029146065 0.0073169528 0.010453281 0.012460439 0.013437873 0.013437873 0.012460439 0.010453281 0.0073169526 0.0029146065);
    }
    bottom
    {
        type            calculated;
        value           uniform 0;
    }
    back
    {
        type            empty;
        value           nonuniform 0();
    }
    front
    {
        type            empty;
        value           nonuniform 0();
    }
}


// ************************************************************************* //
