/*--------------------------------*- C++ -*----------------------------------*\
| =========                 |                                                 |
| \\      /  F ield         | OpenFOAM: The Open Source CFD Toolbox           |
|  \\    /   O peration     | Version:  v1812                                 |
|   \\  /    A nd           | Web:      www.OpenFOAM.com                      |
|    \\/     M anipulation  |                                                 |
\*---------------------------------------------------------------------------*/
FoamFile
{
    version     2.0;
    format      ascii;
    class       volScalarField;
    location    "9.1";
    object      p;
}
// * * * * * * * * * * * * * * * * * * * * * * * * * * * * * * * * * * * * * //

dimensions      [0 2 -2 0 0 0 0];


internalField   nonuniform List<scalar> 
1000
(
1.67552
1.5544421
1.4584617
1.3948056
1.346296
1.303824
1.2662888
1.234117
1.2067166
1.1828791
1.1614848
1.1417209
1.1230438
1.1051042
1.0876889
1.0706747
1.0539938
1.0376097
1.0215015
1.0056556
0.99006059
0.97470549
0.95957878
0.94466853
0.92996252
0.91544853
0.90111456
0.88694907
0.87294103
0.85908003
0.84535633
0.83176078
0.81828487
0.80492069
0.79166084
0.77849846
0.76542716
0.75244096
0.73953431
0.72670201
0.71393922
0.70124141
0.68860436
0.67602413
0.66349703
0.65101962
0.63858868
0.6262012
0.61385436
0.60154553
0.58927222
0.57703213
0.5648231
0.5526431
0.54049024
0.52836278
0.51625907
0.50417756
0.49211681
0.48007547
0.46805227
0.45604601
0.44405558
0.43207996
0.42011819
0.40816939
0.39623273
0.38430743
0.37239276
0.36048805
0.34859263
0.3367059
0.32482731
0.31295635
0.30109257
0.28923553
0.27738485
0.26554014
0.25370102
0.24186714
0.23003815
0.21821373
0.20639358
0.19457747
0.18276514
0.17095639
0.15915098
0.14734868
0.13554926
0.12375247
0.11195808
0.1001659
0.088375767
0.076587537
0.064801044
0.053016121
0.041232574
0.029450258
0.017669166
0.0058891394
1.5583004
1.5033713
1.4424188
1.3908511
1.347581
1.3086127
1.2730265
1.2412538
1.2132929
1.1885151
1.1661132
1.1454118
1.1259302
1.1073422
1.0894286
1.0720438
1.055092
1.0385106
1.0222579
1.0063044
0.99062741
0.97520787
0.96002902
0.94507534
0.93033228
0.91578606
0.90142365
0.88723279
0.87320196
0.8593204
0.84557804
0.83196553
0.81847417
0.80509587
0.7918231
0.77864888
0.7655667
0.75257051
0.73965465
0.72681386
0.71404323
0.70133818
0.68869443
0.67610799
0.66357513
0.65109237
0.63865647
0.62626439
0.61391327
0.60160045
0.58932345
0.57707992
0.56486768
0.55268469
0.54052906
0.528399
0.51629286
0.50420909
0.49214624
0.48010294
0.46807791
0.45606995
0.44407793
0.43210083
0.42013766
0.40818755
0.39624965
0.3843232
0.37240746
0.36050173
0.34860538
0.33671777
0.32483835
0.3129666
0.30110206
0.2892443
0.27739293
0.26554758
0.25370786
0.24187342
0.23004391
0.218219
0.20639839
0.19458182
0.18276905
0.17095988
0.15915409
0.14735144
0.13555171
0.12375464
0.11196001
0.1001676
0.088377239
0.076588793
0.064802096
0.053017007
0.04123333
0.029450873
0.017669673
0.0058893147
1.4974791
1.471304
1.4329072
1.3917743
1.352689
1.3160982
1.2818005
1.250083
1.2212269
1.1951258
1.1713718
1.1494818
1.129032
1.1096911
1.0912109
1.0734099
1.056158
1.0393625
1.0229564
1.0068913
0.99113092
0.97564723
0.96041735
0.94542184
0.93064356
0.91606707
0.90167824
0.88746407
0.87341254
0.85951249
0.84575358
0.83212621
0.81862147
0.8052311
0.79194743
0.77876333
0.76567218
0.75266783
0.73974455
0.72689699
0.71412018
0.70140946
0.68876051
0.6761693
0.66363204
0.65114523
0.63870558
0.62631004
0.61395572
0.60163995
0.58936022
0.57711416
0.56489957
0.55271441
0.54055675
0.5284248
0.51631691
0.50423151
0.49216713
0.48012242
0.46809608
0.4560869
0.44409376
0.4321156
0.42015145
0.40820041
0.39626164
0.38433436
0.37241786
0.36051143
0.34861442
0.33672621
0.32484623
0.31297394
0.30110889
0.28925063
0.27739879
0.26555298
0.25371285
0.24187803
0.23004818
0.21822295
0.20640204
0.19458517
0.18277211
0.17096264
0.15915655
0.14735365
0.13555368
0.12375642
0.11196162
0.10016906
0.088378536
0.076589926
0.064803054
0.053017808
0.04123399
0.029451418
0.017670007
0.0058894754
1.4680706
1.4525725
1.4257026
1.3917787
1.3559777
1.3210264
1.2877244
1.2563714
1.2272407
1.2004492
1.1758617
1.1531695
1.1320177
1.1120889
1.0931307
1.074951
1.0574052
1.0403842
1.0238056
1.0076076
0.99174366
0.97617792
0.96088195
0.94583226
0.93100881
0.91639407
0.90197242
0.88772979
0.87365336
0.85973136
0.84595301
0.83230832
0.8187881
0.80538384
0.79208766
0.77889228
0.76579092
0.75277731
0.7398456
0.72699037
0.71420655
0.70148943
0.68883461
0.676238
0.66369579
0.65120442
0.63876056
0.62636113
0.61400322
0.60168413
0.58940132
0.57715242
0.5649352
0.5527476
0.54058768
0.52845362
0.51634377
0.50425654
0.49219046
0.48014417
0.46811636
0.45610583
0.44411143
0.43213209
0.42016685
0.40821478
0.39627505
0.38434688
0.37242954
0.36052233
0.34862461
0.33673574
0.32485515
0.3129823
0.30111671
0.28925794
0.27740561
0.26555933
0.25371877
0.24188355
0.23005334
0.21822778
0.20640656
0.1945894
0.18277604
0.17096627
0.15915989
0.1473567
0.13555647
0.12375898
0.11196397
0.10017123
0.088380517
0.076591728
0.064804643
0.053019221
0.041235168
0.029452468
0.017670717
0.005890082
1.455339
1.4433857
1.4211513
1.3908637
1.3570026
1.323007
1.2903094
1.2593038
1.2302065
1.2031946
1.1782676
1.155218
1.1337364
1.1135188
1.0943152
1.075933
1.0582241
1.0410736
1.0243928
1.0081137
0.9921847
0.97656615
0.96122662
0.94614045
0.93128598
0.91664448
0.9021995
0.88793631
0.87384163
0.85990335
0.8461104
0.83245259
0.81892053
0.80550555
0.79219967
0.77899546
0.76588608
0.75286515
0.73992677
0.72706543
0.71427602
0.70155378
0.68889426
0.67629333
0.66374714
0.65125209
0.63880485
0.62640228
0.61404148
0.60171972
0.58943443
0.57718324
0.5649639
0.55277433
0.54061258
0.52847683
0.51636539
0.50427669
0.49220925
0.48016168
0.46813269
0.45612106
0.44412565
0.43214537
0.42017924
0.40822635
0.39628586
0.38435697
0.37243896
0.36053113
0.34863284
0.33674344
0.32486237
0.31298907
0.30112305
0.28926389
0.27741117
0.26556454
0.25372363
0.24188811
0.23005761
0.21823179
0.20641034
0.19459294
0.18277936
0.17096936
0.15916276
0.14735935
0.13555891
0.12376123
0.11196604
0.10017315
0.088382283
0.076593353
0.064806095
0.053020539
0.041236279
0.029453485
0.01767144
0.0058907355
1.455339
1.4433857
1.4211513
1.3908637
1.3570026
1.323007
1.2903094
1.2593038
1.2302065
1.2031946
1.1782676
1.155218
1.1337365
1.1135188
1.0943152
1.075933
1.0582241
1.0410736
1.0243928
1.0081137
0.9921847
0.97656615
0.96122663
0.94614045
0.93128598
0.91664448
0.90219949
0.8879363
0.87384162
0.85990335
0.84611041
0.83245259
0.81892053
0.80550556
0.79219967
0.77899546
0.76588608
0.75286515
0.73992676
0.72706543
0.71427602
0.70155378
0.68889426
0.67629333
0.66374714
0.65125209
0.63880485
0.62640228
0.61404148
0.60171971
0.58943443
0.57718324
0.56496391
0.55277434
0.54061258
0.52847683
0.51636539
0.50427668
0.49220924
0.48016168
0.46813269
0.45612107
0.44412565
0.43214537
0.42017924
0.40822635
0.39628585
0.38435696
0.37243895
0.36053113
0.34863283
0.33674344
0.32486237
0.31298906
0.30112305
0.28926387
0.27741115
0.26556451
0.25372361
0.24188809
0.2300576
0.21823179
0.20641034
0.19459294
0.18277935
0.17096935
0.15916274
0.14735933
0.13555889
0.12376122
0.11196604
0.10017315
0.088382293
0.076593362
0.064806105
0.053020542
0.041236282
0.029453483
0.017671437
0.0058907346
1.4680706
1.4525725
1.4257026
1.3917787
1.3559777
1.3210264
1.2877244
1.2563714
1.2272407
1.2004492
1.1758617
1.1531695
1.1320177
1.1120889
1.0931307
1.074951
1.0574052
1.0403842
1.0238056
1.0076076
0.99174367
0.97617793
0.96088195
0.94583226
0.93100881
0.91639406
0.90197242
0.88772979
0.87365335
0.85973136
0.84595301
0.83230833
0.81878811
0.80538385
0.79208767
0.77889228
0.76579091
0.7527773
0.73984559
0.72699037
0.71420655
0.70148944
0.68883462
0.67623802
0.6636958
0.65120442
0.63876056
0.62636112
0.61400321
0.60168412
0.58940132
0.57715242
0.56493521
0.55274761
0.54058768
0.52845362
0.51634376
0.50425652
0.49219045
0.48014416
0.46811636
0.45610583
0.44411143
0.4321321
0.42016684
0.40821476
0.39627502
0.38434685
0.37242951
0.36052231
0.3486246
0.33673574
0.32485514
0.31298229
0.30111668
0.28925789
0.27740554
0.26555926
0.2537187
0.24188351
0.23005331
0.21822778
0.20640657
0.1945894
0.18277602
0.17096624
0.15915985
0.14735665
0.13555643
0.12375896
0.11196397
0.10017125
0.088380549
0.076591762
0.064804671
0.05301924
0.041235174
0.029452468
0.017670714
0.0058900808
1.4974791
1.471304
1.4329072
1.3917743
1.352689
1.3160982
1.2818005
1.250083
1.2212269
1.1951258
1.1713718
1.1494818
1.129032
1.1096911
1.0912109
1.0734099
1.056158
1.0393625
1.0229564
1.0068913
0.99113093
0.97564724
0.96041736
0.94542184
0.93064356
0.91606705
0.90167822
0.88746406
0.87341254
0.8595125
0.8457536
0.83212623
0.81862149
0.80523111
0.79194742
0.77876332
0.76567217
0.75266782
0.73974454
0.72689699
0.71412019
0.70140948
0.68876053
0.67616931
0.66363204
0.65114522
0.63870557
0.62631002
0.61395571
0.60163995
0.58936022
0.57711417
0.56489959
0.55271442
0.54055675
0.52842479
0.51631689
0.50423148
0.49216711
0.48012241
0.46809608
0.45608691
0.44409377
0.4321156
0.42015143
0.40820037
0.39626159
0.38433432
0.37241782
0.36051141
0.34861442
0.33672621
0.32484622
0.31297392
0.30110883
0.28925055
0.27739869
0.26555289
0.25371279
0.241878
0.23004818
0.21822297
0.20640206
0.19458517
0.18277208
0.17096259
0.1591565
0.1473536
0.13555366
0.12375643
0.11196165
0.10016911
0.088378596
0.076589981
0.064803097
0.05301784
0.041234008
0.029451423
0.017670005
0.0058894745
1.5583004
1.5033713
1.4424188
1.3908511
1.347581
1.3086127
1.2730265
1.2412539
1.2132929
1.1885151
1.1661132
1.1454119
1.1259302
1.1073421
1.0894286
1.0720438
1.055092
1.0385106
1.0222579
1.0063045
0.99062743
0.97520788
0.96002902
0.94507534
0.93033227
0.91578604
0.90142363
0.88723278
0.87320196
0.85932041
0.84557806
0.83196555
0.81847418
0.80509587
0.79182309
0.77864887
0.76556668
0.75257049
0.73965464
0.72681386
0.71404325
0.7013382
0.68869445
0.676108
0.66357512
0.65109236
0.63865645
0.62626437
0.61391326
0.60160045
0.58932346
0.57707994
0.56486769
0.5526847
0.54052905
0.52839898
0.51629283
0.50420907
0.49214623
0.48010294
0.46807792
0.45606996
0.44407794
0.43210081
0.42013763
0.4081875
0.3962496
0.38432316
0.37240744
0.36050174
0.3486054
0.33671778
0.32483834
0.31296656
0.30110199
0.28924421
0.27739285
0.26554752
0.25370785
0.24187345
0.23004397
0.21821905
0.20639843
0.19458182
0.18276903
0.17095985
0.15915406
0.14735144
0.13555174
0.1237547
0.11196008
0.10016768
0.088377313
0.076588859
0.064802153
0.053017046
0.041233344
0.02945087
0.017669673
0.0058893189
1.67552
1.5544421
1.4584617
1.3948056
1.346296
1.303824
1.2662888
1.234117
1.2067167
1.1828791
1.1614848
1.1417209
1.1230438
1.1051042
1.0876889
1.0706747
1.0539938
1.0376097
1.0215015
1.0056556
0.9900606
0.97470549
0.95957878
0.94466852
0.92996251
0.91544851
0.90111455
0.88694906
0.87294103
0.85908005
0.84535634
0.83176079
0.81828488
0.80492068
0.79166083
0.77849845
0.76542714
0.75244095
0.73953431
0.72670202
0.71393924
0.70124143
0.68860438
0.67602413
0.66349702
0.6510196
0.63858866
0.62620119
0.61385436
0.60154554
0.58927224
0.57703215
0.56482311
0.55264309
0.54049023
0.52836276
0.51625904
0.50417754
0.49211681
0.48007548
0.46805228
0.45604601
0.44405557
0.43207994
0.42011815
0.40816934
0.39623268
0.3843074
0.37239276
0.36048806
0.34859264
0.3367059
0.32482729
0.3129563
0.3010925
0.28923546
0.27738479
0.26554012
0.25370104
0.24186719
0.2300382
0.21821377
0.20639361
0.19457746
0.18276512
0.17095637
0.15915097
0.1473487
0.1355493
0.12375253
0.11195815
0.10016598
0.088375844
0.076587611
0.064801101
0.053016146
0.041232566
0.029450255
0.017669191
0.0058891581
)
;

boundaryField
{
    top
    {
        type            zeroGradient;
    }
    inlet
    {
        type            zeroGradient;
    }
    outlet
    {
        type            fixedValue;
        value           uniform 0;
    }
    bottom
    {
        type            zeroGradient;
    }
    back
    {
        type            empty;
    }
    front
    {
        type            empty;
    }
}


// ************************************************************************* //
