/*--------------------------------*- C++ -*----------------------------------*\
| =========                 |                                                 |
| \\      /  F ield         | OpenFOAM: The Open Source CFD Toolbox           |
|  \\    /   O peration     | Version:  v1812                                 |
|   \\  /    A nd           | Web:      www.OpenFOAM.com                      |
|    \\/     M anipulation  |                                                 |
\*---------------------------------------------------------------------------*/
FoamFile
{
    version     2.0;
    format      ascii;
    class       volScalarField;
    location    "0.55";
    object      p;
}
// * * * * * * * * * * * * * * * * * * * * * * * * * * * * * * * * * * * * * //

dimensions      [0 2 -2 0 0 0 0];


internalField   nonuniform List<scalar> 
1000
(
2.4391722
2.3186846
2.2216596
2.1546227
2.1084957
2.0751905
2.048037
2.0239215
2.0018261
1.980809
1.9599919
1.9389538
1.9176568
1.8961288
1.8744494
1.852672
1.8308351
1.8089635
1.7870725
1.7651711
1.743264
1.721354
1.6994425
1.6775302
1.6556175
1.6337046
1.6117916
1.5898786
1.5679656
1.5460525
1.5241395
1.5022265
1.4803134
1.4584004
1.4364873
1.4145743
1.3926613
1.3707482
1.3488352
1.3269222
1.3050091
1.2830961
1.2611831
1.23927
1.217357
1.195444
1.1735309
1.1516179
1.1297049
1.1077918
1.0858788
1.0639658
1.0420528
1.0201397
0.99822669
0.97631366
0.95440063
0.9324876
0.91057457
0.88866154
0.86674851
0.84483548
0.82292245
0.80100942
0.77909639
0.75718336
0.73527033
0.7133573
0.69144427
0.66953124
0.64761821
0.62570517
0.60379214
0.58187911
0.55996608
0.53805305
0.51614002
0.49422699
0.47231396
0.45040093
0.4284879
0.40657488
0.38466183
0.36274885
0.3408357
0.318923
0.2970092
0.27509791
0.25318113
0.23127567
0.20934853
0.18746015
0.16551075
0.14364736
0.12169502
0.09980155
0.077969556
0.055886145
0.034149614
0.011636198
2.3224411
2.2700766
2.2081987
2.1507952
2.1083717
2.0788543
2.0532069
2.0280743
2.0044609
1.9824494
1.9610448
1.9396069
1.9180004
1.8962946
1.874531
1.8527107
1.8308527
1.808971
1.7870754
1.765172
1.7432641
1.7213539
1.6994423
1.6775301
1.6556174
1.6337046
1.6117916
1.5898786
1.5679656
1.5460525
1.5241395
1.5022265
1.4803134
1.4584004
1.4364874
1.4145743
1.3926613
1.3707482
1.3488352
1.3269222
1.3050091
1.2830961
1.2611831
1.23927
1.217357
1.195444
1.1735309
1.1516179
1.1297049
1.1077918
1.0858788
1.0639658
1.0420528
1.0201397
0.99822669
0.97631366
0.95440063
0.9324876
0.91057457
0.88866154
0.86674851
0.84483548
0.82292245
0.80100942
0.77909639
0.75718336
0.73527033
0.7133573
0.69144427
0.66953124
0.64761821
0.62570517
0.60379214
0.58187911
0.55996608
0.53805305
0.51614002
0.49422699
0.47231396
0.45040093
0.4284879
0.40657488
0.38466181
0.3627489
0.34083557
0.31892329
0.29700855
0.27509932
0.25317828
0.23128107
0.20933877
0.18747515
0.16548781
0.1436691
0.12167418
0.099789448
0.078072634
0.055853675
0.034407741
0.011797334
2.2629296
2.2403862
2.2010847
2.1522114
2.1128399
2.0856663
2.0603924
2.0336111
2.0080433
1.984686
1.9624473
1.9404518
1.9184906
1.8965723
1.8746711
1.8527791
1.8308865
1.8089873
1.7870829
1.7651753
1.7432655
1.7213544
1.6994425
1.6775301
1.6556174
1.6337046
1.6117916
1.5898786
1.5679656
1.5460525
1.5241395
1.5022265
1.4803134
1.4584004
1.4364874
1.4145743
1.3926613
1.3707482
1.3488352
1.3269222
1.3050091
1.2830961
1.2611831
1.23927
1.217357
1.195444
1.1735309
1.1516179
1.1297049
1.1077918
1.0858788
1.0639658
1.0420528
1.0201397
0.99822669
0.97631366
0.95440063
0.9324876
0.91057457
0.88866154
0.86674851
0.84483548
0.82292245
0.80100942
0.77909639
0.75718336
0.73527033
0.7133573
0.69144427
0.66953124
0.64761821
0.62570517
0.60379214
0.58187911
0.55996608
0.53805305
0.51614002
0.49422699
0.47231396
0.45040093
0.42848789
0.40657489
0.38466179
0.36274895
0.34083547
0.31892352
0.29700807
0.27510031
0.25317639
0.23128453
0.20933301
0.18748428
0.16547711
0.14368771
0.12168384
0.099826574
0.078181197
0.055933715
0.0345957
0.011912669
2.2346325
2.2230145
2.1950359
2.1522864
2.1154072
2.0895504
2.064612
2.0371511
2.0105552
1.9863594
1.9635433
1.9411458
1.9189095
1.8968104
1.8748068
1.8528556
1.830925
1.8090064
1.7870922
1.7651797
1.7432676
1.7213554
1.699443
1.6775303
1.6556175
1.6337046
1.6117916
1.5898786
1.5679656
1.5460525
1.5241395
1.5022265
1.4803134
1.4584004
1.4364874
1.4145743
1.3926613
1.3707482
1.3488352
1.3269222
1.3050091
1.2830961
1.2611831
1.23927
1.217357
1.195444
1.1735309
1.1516179
1.1297049
1.1077918
1.0858788
1.0639658
1.0420528
1.0201397
0.99822669
0.97631366
0.95440063
0.9324876
0.91057457
0.88866154
0.86674851
0.84483548
0.82292245
0.80100942
0.77909639
0.75718336
0.73527033
0.7133573
0.69144427
0.66953124
0.64761821
0.62570517
0.60379214
0.58187911
0.55996608
0.53805305
0.51614002
0.49422699
0.47231396
0.45040093
0.42848789
0.40657489
0.38466178
0.36274897
0.34083542
0.31892363
0.29700784
0.27510077
0.25317551
0.23128612
0.20933088
0.18748904
0.16547663
0.1437008
0.12170225
0.099854798
0.078249352
0.055975656
0.034652699
0.011962617
2.2223759
2.214303
2.1908456
2.1513511
2.1160342
2.0909272
2.0663214
2.0387565
2.0117953
1.9872264
1.9641274
1.9415262
1.9191457
1.8969495
1.8748868
1.8529
1.8309506
1.8090194
1.7870986
1.7651828
1.7432692
1.7213562
1.6994434
1.6775305
1.6556176
1.6337046
1.6117916
1.5898786
1.5679656
1.5460525
1.5241395
1.5022265
1.4803134
1.4584004
1.4364874
1.4145743
1.3926613
1.3707482
1.3488352
1.3269222
1.3050091
1.2830961
1.2611831
1.23927
1.217357
1.195444
1.1735309
1.1516179
1.1297049
1.1077918
1.0858788
1.0639658
1.0420528
1.0201397
0.99822669
0.97631366
0.95440063
0.9324876
0.91057457
0.88866154
0.86674851
0.84483548
0.82292245
0.80100942
0.77909639
0.75718336
0.73527033
0.7133573
0.69144427
0.66953124
0.64761821
0.62570517
0.60379214
0.58187911
0.55996608
0.53805305
0.51614002
0.49422699
0.47231396
0.45040093
0.42848789
0.40657489
0.38466177
0.36274898
0.3408354
0.31892367
0.29700774
0.27510095
0.25317517
0.23128677
0.20933043
0.1874916
0.16547887
0.14370796
0.12171379
0.099867701
0.07827634
0.055991851
0.034670768
0.011984233
2.2223759
2.214303
2.1908456
2.1513511
2.1160342
2.0909273
2.0663214
2.0387565
2.0117953
1.9872264
1.9641274
1.9415262
1.9191457
1.8969495
1.8748868
1.8529
1.8309506
1.8090194
1.7870986
1.7651828
1.7432691
1.7213562
1.6994434
1.6775305
1.6556176
1.6337046
1.6117916
1.5898786
1.5679656
1.5460525
1.5241395
1.5022265
1.4803134
1.4584004
1.4364874
1.4145743
1.3926613
1.3707482
1.3488352
1.3269222
1.3050091
1.2830961
1.2611831
1.23927
1.217357
1.195444
1.1735309
1.1516179
1.1297049
1.1077918
1.0858788
1.0639658
1.0420528
1.0201397
0.99822669
0.97631366
0.95440063
0.9324876
0.91057457
0.88866154
0.86674851
0.84483548
0.82292245
0.80100942
0.77909639
0.75718336
0.73527033
0.7133573
0.69144427
0.66953124
0.64761821
0.62570517
0.60379214
0.58187911
0.55996608
0.53805305
0.51614002
0.49422699
0.47231396
0.45040093
0.42848789
0.40657489
0.38466177
0.36274898
0.3408354
0.31892368
0.29700774
0.27510095
0.25317517
0.23128677
0.20933043
0.1874916
0.16547888
0.14370796
0.12171379
0.099867701
0.078276342
0.055991854
0.034670771
0.011984234
2.2346325
2.2230146
2.1950359
2.1522864
2.1154072
2.0895504
2.064612
2.0371511
2.0105552
1.9863594
1.9635433
1.9411457
1.9189095
1.8968104
1.8748068
1.8528556
1.830925
1.8090064
1.7870922
1.7651797
1.7432676
1.7213554
1.699443
1.6775303
1.6556175
1.6337046
1.6117916
1.5898786
1.5679656
1.5460525
1.5241395
1.5022265
1.4803134
1.4584004
1.4364874
1.4145743
1.3926613
1.3707482
1.3488352
1.3269222
1.3050091
1.2830961
1.2611831
1.23927
1.217357
1.195444
1.1735309
1.1516179
1.1297049
1.1077918
1.0858788
1.0639658
1.0420528
1.0201397
0.99822669
0.97631366
0.95440063
0.9324876
0.91057457
0.88866154
0.86674851
0.84483548
0.82292245
0.80100942
0.77909639
0.75718336
0.73527033
0.7133573
0.69144427
0.66953124
0.6476182
0.62570517
0.60379214
0.58187911
0.55996608
0.53805305
0.51614002
0.49422699
0.47231396
0.45040093
0.42848789
0.40657489
0.38466178
0.36274897
0.34083543
0.31892363
0.29700784
0.27510078
0.25317551
0.23128612
0.20933088
0.18748905
0.16547663
0.1437008
0.12170225
0.099854798
0.078249357
0.055975665
0.034652707
0.01196262
2.2629297
2.2403863
2.2010848
2.1522114
2.1128399
2.0856662
2.0603923
2.0336111
2.0080433
1.984686
1.9624473
1.9404518
1.9184906
1.8965723
1.8746711
1.852779
1.8308864
1.8089872
1.7870829
1.7651753
1.7432655
1.7213544
1.6994425
1.6775301
1.6556174
1.6337045
1.6117916
1.5898786
1.5679656
1.5460525
1.5241395
1.5022265
1.4803134
1.4584004
1.4364874
1.4145743
1.3926613
1.3707482
1.3488352
1.3269222
1.3050091
1.2830961
1.2611831
1.23927
1.217357
1.195444
1.1735309
1.1516179
1.1297049
1.1077918
1.0858788
1.0639658
1.0420528
1.0201397
0.99822669
0.97631366
0.95440063
0.9324876
0.91057457
0.88866154
0.86674851
0.84483548
0.82292245
0.80100942
0.77909639
0.75718336
0.73527033
0.7133573
0.69144427
0.66953124
0.6476182
0.62570517
0.60379214
0.58187911
0.55996608
0.53805305
0.51614002
0.49422699
0.47231396
0.45040093
0.42848789
0.40657489
0.38466179
0.36274895
0.34083548
0.31892353
0.29700808
0.27510031
0.25317638
0.23128452
0.209333
0.18748429
0.16547712
0.14368772
0.12168384
0.099826575
0.078181206
0.055933729
0.034595715
0.011912674
2.3224411
2.2700766
2.2081987
2.1507953
2.1083717
2.0788543
2.0532068
2.0280741
2.0044608
1.9824494
1.9610449
1.9396069
1.9180004
1.8962946
1.8745309
1.8527106
1.8308527
1.808971
1.7870754
1.765172
1.7432641
1.7213539
1.6994423
1.6775301
1.6556174
1.6337046
1.6117916
1.5898786
1.5679656
1.5460525
1.5241395
1.5022265
1.4803134
1.4584004
1.4364874
1.4145743
1.3926613
1.3707482
1.3488352
1.3269222
1.3050091
1.2830961
1.2611831
1.23927
1.217357
1.195444
1.1735309
1.1516179
1.1297049
1.1077918
1.0858788
1.0639658
1.0420528
1.0201397
0.99822669
0.97631366
0.95440063
0.9324876
0.91057457
0.88866154
0.86674851
0.84483548
0.82292245
0.80100942
0.77909639
0.75718336
0.73527033
0.7133573
0.69144427
0.66953124
0.6476182
0.62570517
0.60379214
0.58187911
0.55996608
0.53805305
0.51614002
0.49422699
0.47231396
0.45040093
0.42848789
0.40657488
0.38466181
0.36274891
0.34083558
0.3189233
0.29700856
0.27509932
0.25317828
0.23128107
0.20933877
0.18747516
0.16548782
0.14366911
0.12167418
0.099789452
0.078072648
0.055853698
0.034407761
0.011797339
2.4391722
2.3186846
2.2216596
2.1546228
2.1084958
2.0751905
2.048037
2.0239214
2.001826
1.980809
1.9599919
1.9389538
1.9176568
1.8961288
1.8744494
1.8526719
1.830835
1.8089634
1.7870725
1.765171
1.743264
1.721354
1.6994425
1.6775302
1.6556175
1.6337046
1.6117916
1.5898786
1.5679656
1.5460525
1.5241395
1.5022265
1.4803134
1.4584004
1.4364874
1.4145743
1.3926613
1.3707482
1.3488352
1.3269222
1.3050091
1.2830961
1.2611831
1.23927
1.217357
1.195444
1.1735309
1.1516179
1.1297049
1.1077918
1.0858788
1.0639658
1.0420528
1.0201397
0.99822669
0.97631366
0.95440063
0.9324876
0.91057457
0.88866154
0.86674851
0.84483548
0.82292245
0.80100942
0.77909639
0.75718336
0.73527033
0.7133573
0.69144427
0.66953124
0.6476182
0.62570517
0.60379214
0.58187911
0.55996608
0.53805305
0.51614002
0.49422699
0.47231396
0.45040093
0.4284879
0.40657488
0.38466183
0.36274886
0.34083571
0.31892301
0.2970092
0.27509791
0.25318113
0.23127568
0.20934855
0.18746017
0.16551076
0.14364736
0.12169501
0.099801553
0.077969574
0.055886171
0.034149634
0.011636202
)
;

boundaryField
{
    top
    {
        type            zeroGradient;
    }
    inlet
    {
        type            zeroGradient;
    }
    outlet
    {
        type            fixedValue;
        value           uniform 0;
    }
    bottom
    {
        type            zeroGradient;
    }
    back
    {
        type            empty;
    }
    front
    {
        type            empty;
    }
}


// ************************************************************************* //
