/*--------------------------------*- C++ -*----------------------------------*\
| =========                 |                                                 |
| \\      /  F ield         | OpenFOAM: The Open Source CFD Toolbox           |
|  \\    /   O peration     | Version:  v1812                                 |
|   \\  /    A nd           | Web:      www.OpenFOAM.com                      |
|    \\/     M anipulation  |                                                 |
\*---------------------------------------------------------------------------*/
FoamFile
{
    version     2.0;
    format      ascii;
    class       volScalarField;
    location    "12.4";
    object      p;
}
// * * * * * * * * * * * * * * * * * * * * * * * * * * * * * * * * * * * * * //

dimensions      [0 2 -2 0 0 0 0];


internalField   nonuniform List<scalar> 
1000
(
1.6755987
1.5545208
1.4585403
1.3948842
1.3463747
1.3039026
1.2663674
1.2341957
1.2067953
1.1829577
1.1615634
1.1417995
1.1231224
1.1051829
1.0877675
1.0707534
1.0540725
1.0376883
1.0215801
1.0057342
0.99013921
0.9747841
0.9596574
0.94474716
0.93004116
0.91552717
0.9011932
0.88702771
0.87301966
0.85915866
0.84543494
0.83183939
0.81836349
0.80499931
0.79173947
0.77857711
0.76550581
0.75251961
0.73961295
0.72678064
0.71401783
0.70132002
0.68868297
0.67610275
0.66357566
0.65109826
0.63866733
0.62627986
0.61393302
0.60162417
0.58935085
0.57711074
0.5649017
0.55272171
0.54056887
0.52844143
0.51633773
0.50425622
0.49219546
0.48015409
0.46813085
0.45612455
0.44413409
0.43215843
0.42019661
0.40824773
0.39631094
0.38438546
0.37247054
0.36056547
0.34866963
0.33678239
0.32490319
0.31303152
0.30116689
0.28930883
0.27745692
0.26561075
0.25376994
0.24193413
0.23010299
0.21827621
0.20645351
0.19463463
0.18281931
0.17100735
0.15919849
0.14739255
0.13558932
0.12378862
0.11199028
0.10019416
0.088400098
0.076607985
0.064817692
0.053029094
0.041242119
0.029456579
0.017672662
0.0058897114
1.558379
1.5034499
1.4424974
1.3909297
1.3476597
1.3086914
1.2731051
1.2413325
1.2133716
1.1885937
1.1661918
1.1454905
1.1260088
1.1074208
1.0895072
1.0721225
1.0551706
1.0385892
1.0223366
1.0063831
0.99070602
0.97528648
0.96010763
0.94515397
0.93041092
0.91586471
0.9015023
0.88731144
0.8732806
0.85939902
0.84565665
0.83204414
0.81855278
0.80517449
0.79190174
0.77872753
0.76564536
0.75264916
0.73973329
0.72689249
0.71412184
0.70141678
0.68877302
0.67618659
0.66365375
0.65117102
0.63873513
0.62634305
0.61399193
0.6016791
0.58940207
0.57715852
0.56494627
0.55276329
0.54060767
0.52847764
0.51637153
0.50428777
0.49222491
0.48018158
0.46815651
0.45614849
0.44415644
0.43217929
0.42021609
0.40826593
0.39632795
0.38440135
0.37248537
0.36057932
0.34868255
0.33679445
0.32491445
0.31304203
0.30117671
0.28931802
0.27746551
0.26561878
0.25377744
0.24194113
0.23010951
0.21828229
0.20645918
0.19463993
0.18282428
0.17101199
0.15920285
0.14739663
0.13559312
0.12379216
0.11199357
0.10019721
0.088402944
0.076610646
0.06482019
0.053031413
0.041244297
0.029458466
0.017674339
0.0058905464
1.4975577
1.4713826
1.4329858
1.3918529
1.3527676
1.3161768
1.2818792
1.2501616
1.2213055
1.1952044
1.1714504
1.1495604
1.1291106
1.1097697
1.0912896
1.0734885
1.0562367
1.0394411
1.023035
1.0069699
0.99120952
0.97572583
0.96049596
0.94550047
0.93072221
0.91614573
0.9017569
0.88754273
0.87349118
0.85959111
0.84583218
0.8322048
0.81870007
0.80530971
0.79202606
0.77884198
0.76575085
0.75274651
0.73982321
0.72697563
0.71419879
0.70148805
0.6888391
0.67624789
0.66371065
0.65122387
0.63878425
0.62638872
0.6140344
0.60171861
0.58943884
0.57719275
0.56497815
0.55279299
0.54063535
0.52850345
0.51639559
0.50431021
0.49224583
0.48020108
0.46817468
0.45616544
0.44417224
0.43219405
0.42022987
0.40827881
0.39633998
0.38441258
0.37249585
0.36058909
0.34869165
0.33680293
0.32492236
0.31304943
0.30118363
0.2893245
0.27747158
0.26562445
0.25378272
0.24194604
0.23011408
0.21828654
0.20646315
0.19464364
0.18282777
0.17101528
0.15920593
0.14739951
0.13559579
0.12379463
0.11199585
0.10019933
0.088404912
0.076612499
0.064821907
0.053033016
0.041245702
0.029459671
0.017675031
0.0058910096
1.4681492
1.4526511
1.4257812
1.3918573
1.3560563
1.321105
1.287803
1.25645
1.2273193
1.2005278
1.1759403
1.1532481
1.1320963
1.1121675
1.0932093
1.0750296
1.0574839
1.0404629
1.0238843
1.0076862
0.99182226
0.97625652
0.96096056
0.94591089
0.93108746
0.91647273
0.90205109
0.88780845
0.87373199
0.85980997
0.8460316
0.83238691
0.81886669
0.80546245
0.7921663
0.77897094
0.7658696
0.75285598
0.73992426
0.727069
0.71428515
0.70156801
0.68891319
0.6763166
0.66377441
0.65128307
0.63883924
0.62643981
0.61408189
0.60176278
0.58947993
0.577231
0.56501378
0.55282619
0.54066629
0.52853228
0.51642246
0.50433524
0.49226915
0.48022282
0.46819495
0.45618435
0.4441899
0.43221054
0.42024528
0.40829319
0.39635339
0.38442507
0.37250749
0.36059994
0.34870177
0.33681238
0.32493121
0.31305772
0.30119139
0.28933175
0.27747834
0.26563074
0.25378856
0.24195147
0.23011915
0.21829129
0.20646761
0.19464784
0.18283171
0.17101896
0.15920934
0.14740267
0.13559871
0.12379735
0.11199838
0.10020173
0.088407153
0.07661463
0.064823824
0.053034821
0.041247167
0.02946105
0.017675851
0.0058920251
1.4554177
1.4434643
1.42123
1.3909424
1.3570812
1.3230856
1.290388
1.2593825
1.2302851
1.2032732
1.1783462
1.1552966
1.1338151
1.1135975
1.0943939
1.0760116
1.0583027
1.0411522
1.0244714
1.0081923
0.9922633
0.97664476
0.96130525
0.9462191
0.93136463
0.91672314
0.90227815
0.88801495
0.87392025
0.85998196
0.846189
0.83253119
0.81899914
0.80558418
0.79227831
0.77907412
0.76596474
0.75294381
0.74000541
0.72714405
0.71435462
0.70163237
0.68897286
0.67637194
0.66382577
0.65133075
0.63888352
0.62648095
0.61412013
0.60179834
0.58951304
0.57726183
0.5650425
0.55285295
0.54069123
0.52855551
0.51644408
0.50435537
0.4922879
0.48024029
0.46821125
0.45619958
0.44420414
0.43222385
0.4202577
0.40830477
0.39636417
0.3844351
0.37251681
0.36060863
0.34870989
0.33682
0.32493837
0.31306443
0.30119767
0.28933759
0.27748375
0.26563574
0.2537932
0.2419558
0.23012321
0.21829514
0.20647126
0.19465128
0.18283492
0.17102192
0.15921205
0.14740514
0.13560099
0.1237995
0.11200042
0.10020371
0.088409024
0.076616408
0.06482539
0.053036276
0.041248302
0.029462167
0.017676622
0.0058930305
1.4554177
1.4434643
1.42123
1.3909424
1.3570812
1.3230856
1.290388
1.2593825
1.2302851
1.2032732
1.1783462
1.1552966
1.1338151
1.1135974
1.0943938
1.0760116
1.0583027
1.0411522
1.0244714
1.0081923
0.99226332
0.97664477
0.96130526
0.9462191
0.93136462
0.91672313
0.90227813
0.88801494
0.87392025
0.85998196
0.84618901
0.8325312
0.81899915
0.80558419
0.79227831
0.77907411
0.76596473
0.75294379
0.7400054
0.72714405
0.71435463
0.70163238
0.68897287
0.67637195
0.66382578
0.65133074
0.6388835
0.62648093
0.61412012
0.60179834
0.58951304
0.57726185
0.56504252
0.55285296
0.54069123
0.5285555
0.51644407
0.50435535
0.49228788
0.48024028
0.46821126
0.4561996
0.44420416
0.43222387
0.42025772
0.40830476
0.39636414
0.38443506
0.37251678
0.36060861
0.3487099
0.33682003
0.32493841
0.31306447
0.30119769
0.28933759
0.27748372
0.2656357
0.25379316
0.24195578
0.23012322
0.21829517
0.2064713
0.19465132
0.18283493
0.17102191
0.159212
0.14740509
0.13560095
0.12379949
0.11200044
0.10020376
0.088409076
0.076616442
0.064825397
0.053036251
0.041248252
0.029462124
0.017676613
0.0058930385
1.4681492
1.4526511
1.4257812
1.3918573
1.3560563
1.321105
1.287803
1.25645
1.2273193
1.2005279
1.1759403
1.1532481
1.1320963
1.1121675
1.0932093
1.0750296
1.0574839
1.0404629
1.0238843
1.0076863
0.99182229
0.97625654
0.96096057
0.94591089
0.93108744
0.91647271
0.90205106
0.88780843
0.87373199
0.85980999
0.84603162
0.83238693
0.81886671
0.80546246
0.79216629
0.77897092
0.76586957
0.75285596
0.73992425
0.727069
0.71428517
0.70156804
0.68891322
0.67631662
0.66377441
0.65128305
0.63883921
0.62643978
0.61408187
0.60176277
0.58947995
0.57723104
0.56501382
0.55282622
0.5406663
0.52853226
0.51642242
0.50433519
0.49226911
0.4802228
0.46819497
0.4561844
0.44418996
0.43221059
0.4202453
0.40829317
0.39635333
0.384425
0.37250743
0.36059991
0.34870179
0.33681244
0.32493129
0.31305779
0.30119142
0.28933172
0.27747826
0.26563065
0.25378849
0.24195145
0.23011918
0.21829137
0.20646771
0.19464792
0.18283173
0.17101891
0.15920924
0.14740256
0.13559863
0.12379734
0.11199844
0.10020184
0.088407259
0.07661469
0.064823823
0.053034758
0.041247062
0.029460979
0.01767585
0.0058920434
1.4975578
1.4713826
1.4329858
1.3918529
1.3527676
1.3161768
1.2818791
1.2501616
1.2213055
1.1952045
1.1714505
1.1495604
1.1291106
1.1097697
1.0912896
1.0734885
1.0562367
1.0394411
1.023035
1.0069699
0.99120954
0.97572584
0.96049597
0.94550047
0.9307222
0.91614571
0.90175688
0.88754272
0.87349118
0.85959112
0.8458322
0.83220482
0.81870008
0.80530972
0.79202605
0.77884197
0.76575083
0.75274649
0.7398232
0.72697563
0.7141988
0.70148807
0.68883912
0.6762479
0.66371065
0.65122386
0.63878423
0.6263887
0.61403439
0.60171861
0.58943885
0.57719277
0.56497817
0.55279301
0.54063536
0.52850343
0.51639556
0.50431018
0.4922458
0.48020108
0.4681747
0.45616548
0.44417229
0.43219408
0.42022989
0.40827879
0.39633994
0.38441253
0.37249581
0.36058907
0.34869167
0.33680297
0.32492242
0.31304948
0.30118365
0.28932448
0.27747153
0.26562439
0.25378268
0.24194603
0.23011411
0.2182866
0.20646322
0.19464369
0.18282777
0.17101524
0.15920585
0.14739943
0.13559574
0.12379463
0.1119959
0.10019941
0.088404987
0.076612541
0.064821906
0.053032971
0.041245637
0.029459635
0.017675035
0.0058910182
1.558379
1.5034499
1.4424974
1.3909297
1.3476597
1.3086914
1.2731051
1.2413325
1.2133716
1.1885937
1.1661918
1.1454905
1.1260088
1.1074208
1.0895072
1.0721224
1.0551706
1.0385892
1.0223366
1.0063831
0.99070603
0.97528649
0.96010763
0.94515397
0.93041091
0.9158647
0.90150229
0.88731143
0.8732806
0.85939902
0.84565665
0.83204414
0.81855278
0.80517449
0.79190173
0.77872752
0.76564535
0.75264916
0.73973329
0.72689249
0.71412185
0.70141679
0.68877303
0.67618659
0.66365375
0.65117101
0.63873512
0.62634305
0.61399193
0.6016791
0.58940208
0.57715853
0.56494628
0.55276329
0.54060767
0.52847763
0.51637152
0.50428776
0.4922249
0.48018158
0.46815651
0.45614851
0.44415645
0.4321793
0.4202161
0.40826593
0.39632794
0.38440133
0.37248536
0.36057932
0.34868256
0.33679446
0.32491447
0.31304205
0.30117672
0.28931801
0.2774655
0.26561876
0.25377742
0.24194112
0.23010952
0.21828231
0.2064592
0.19463994
0.18282428
0.17101198
0.15920282
0.1473966
0.1355931
0.12379216
0.11199358
0.10019724
0.088402973
0.076610666
0.064820196
0.053031405
0.041244288
0.029458467
0.017674339
0.0058905428
1.6755987
1.5545208
1.4585403
1.3948842
1.3463747
1.3039026
1.2663674
1.2341957
1.2067953
1.1829577
1.1615634
1.1417996
1.1231224
1.1051829
1.0877675
1.0707534
1.0540725
1.0376883
1.0215801
1.0057342
0.99013921
0.9747841
0.9596574
0.94474716
0.93004116
0.91552717
0.9011932
0.8870277
0.87301965
0.85915865
0.84543494
0.83183939
0.81836349
0.80499931
0.79173947
0.77857711
0.76550581
0.75251961
0.73961295
0.72678064
0.71401783
0.70132002
0.68868297
0.67610275
0.66357566
0.65109826
0.63866733
0.62627986
0.61393302
0.60162417
0.58935085
0.57711074
0.5649017
0.55272171
0.54056887
0.52844142
0.51633772
0.50425622
0.49219546
0.4801541
0.46813085
0.45612455
0.44413409
0.43215843
0.42019661
0.40824773
0.39631094
0.38438546
0.37247053
0.36056547
0.34866962
0.33678238
0.32490319
0.31303152
0.30116689
0.28930884
0.27745692
0.26561075
0.25376994
0.24193413
0.23010298
0.21827621
0.20645351
0.19463463
0.18281932
0.17100735
0.15919849
0.14739255
0.13558932
0.12378862
0.11199028
0.10019416
0.088400106
0.076607998
0.064817706
0.053029107
0.041242131
0.029456586
0.017672655
0.0058897032
)
;

boundaryField
{
    top
    {
        type            zeroGradient;
    }
    inlet
    {
        type            zeroGradient;
    }
    outlet
    {
        type            fixedValue;
        value           uniform 0;
    }
    bottom
    {
        type            zeroGradient;
    }
    back
    {
        type            empty;
    }
    front
    {
        type            empty;
    }
}


// ************************************************************************* //
