/*--------------------------------*- C++ -*----------------------------------*\
| =========                 |                                                 |
| \\      /  F ield         | OpenFOAM: The Open Source CFD Toolbox           |
|  \\    /   O peration     | Version:  2112                                  |
|   \\  /    A nd           | Website:  www.openfoam.com                      |
|    \\/     M anipulation  |                                                 |
\*---------------------------------------------------------------------------*/
FoamFile
{
    version     2.0;
    format      ascii;
    arch        "LSB;label=32;scalar=64";
    class       volScalarField;
    location    "50";
    object      p;
}
// * * * * * * * * * * * * * * * * * * * * * * * * * * * * * * * * * * * * * //

dimensions      [0 2 -2 0 0 0 0];

internalField   nonuniform List<scalar> 
1000
(
1.7217926
1.5916425
1.5009887
1.4428236
1.3932391
1.3487205
1.3104428
1.2779366
1.2499586
1.2253628
1.2032186
1.1828267
1.1636478
1.1453201
1.1276177
1.1104025
1.0935883
1.0771185
1.0609531
1.0450635
1.029429
1.0140338
0.99886451
0.98390917
0.96915678
0.95459814
0.94022653
0.92603765
0.91202884
0.89819767
0.88454024
0.87104987
0.85771625
0.84452537
0.83146014
0.81850145
0.80562955
0.79282533
0.7800714
0.76735281
0.75465743
0.74197596
0.72930169
0.71663011
0.70395847
0.69128527
0.67860991
0.66593234
0.65325281
0.64057169
0.62788937
0.6152062
0.60252247
0.5898384
0.57715414
0.56446978
0.55178539
0.539101
0.52641662
0.51373228
0.50104793
0.48836363
0.4756793
0.46299504
0.45031072
0.43762647
0.42494216
0.41225791
0.3995736
0.38688935
0.37420504
0.3615208
0.34883648
0.33615227
0.32346789
0.31078375
0.29809929
0.28541525
0.27273068
0.26004678
0.24736204
0.23467833
0.22199337
0.20930993
0.1966247
0.1839416
0.17125607
0.15857338
0.14588766
0.13320536
0.12052002
0.10783787
0.095154578
0.082471986
0.069794951
0.057110866
0.04444866
0.031760618
0.019114041
0.0064072252
1.5982448
1.5318273
1.4734049
1.4290312
1.3871878
1.3475805
1.3122034
1.2811429
1.2536542
1.2289884
1.206491
1.1855981
1.1658893
1.1470826
1.1289973
1.1115065
1.0945052
1.0779042
1.0616343
1.0456508
1.0299295
1.0144577
0.99922517
0.98422035
0.9694297
0.95484016
0.94044138
0.92622663
0.9121922
0.89833565
0.88465375
0.87114062
0.85778667
0.84457838
0.83149881
0.81852877
0.80564822
0.79283764
0.7800792
0.76735754
0.75466013
0.74197739
0.72930234
0.71663033
0.70395844
0.69128513
0.67860974
0.66593217
0.65325266
0.64057156
0.62788926
0.61520612
0.60252241
0.58983836
0.5771541
0.56446976
0.55178537
0.539101
0.5264166
0.51373229
0.50104791
0.48836365
0.47567929
0.46299506
0.4503107
0.43762649
0.42494214
0.41225792
0.39957359
0.38688937
0.37420502
0.36152083
0.34883644
0.33615233
0.32346781
0.31078386
0.29809916
0.28541542
0.27273047
0.26004703
0.24736172
0.23467871
0.22199291
0.20931047
0.19662403
0.18394232
0.17125513
0.15857425
0.14588641
0.13320615
0.12051846
0.10783783
0.095152972
0.082469587
0.069795322
0.057106051
0.044468365
0.031783187
0.019271755
0.0065199521
1.5357007
1.5072417
1.4691859
1.4323009
1.3950129
1.3580841
1.3233643
1.2915585
1.2626353
1.2363328
1.2122528
1.1899492
1.1690502
1.1493088
1.1305651
1.1126731
1.0954638
1.0787609
1.0624211
1.0463593
1.0305441
1.0149739
0.99965292
0.98457769
0.96973548
0.95510925
0.94068326
0.92644625
0.91239164
0.89851561
0.88481448
0.87128245
0.85791013
0.84468421
0.83158797
0.81860242
0.80570771
0.79288448
0.78011504
0.76738407
0.75467905
0.74199028
0.72931065
0.71663529
0.70396107
0.69128623
0.67860991
0.66593183
0.65325209
0.64057095
0.6278887
0.61520565
0.60252204
0.58983809
0.57715391
0.56446964
0.55178528
0.53910096
0.52641657
0.51373228
0.5010479
0.48836366
0.47567927
0.46299507
0.45031069
0.4376265
0.42494213
0.41225793
0.39957357
0.38688938
0.37420501
0.36152086
0.3488364
0.33615238
0.32346773
0.31078396
0.29809903
0.28541558
0.27273026
0.26004727
0.24736141
0.23467906
0.22199242
0.20931097
0.19662327
0.18394298
0.17125388
0.15857499
0.14588419
0.13320653
0.12051416
0.10783639
0.095143774
0.082462275
0.069774737
0.057084001
0.044426198
0.031736327
0.019204593
0.0064596399
1.5066205
1.4904447
1.4615169
1.4292727
1.3955877
1.3613502
1.3281021
1.2968401
1.2678958
1.241232
1.2165801
1.1935795
1.1719441
1.1515285
1.13226
1.1140262
1.0966278
1.0798205
1.0633962
1.047234
1.0312985
1.015603
1.0001693
0.9850047
0.97009841
0.95542928
0.94097505
0.92671827
0.91264764
0.89875628
0.88503879
0.87148856
0.85809609
0.84484841
0.83172947
0.81872113
0.80580443
0.79296084
0.78017328
0.76742683
0.75470913
0.74201038
0.72932324
0.71664249
0.70396462
0.69128745
0.67860977
0.66593101
0.65325102
0.64056988
0.62788776
0.6152049
0.60252148
0.58983769
0.57715364
0.56446947
0.55178518
0.53910091
0.52641654
0.51373228
0.50104789
0.48836367
0.47567927
0.46299508
0.45031068
0.43762651
0.42494212
0.41225794
0.39957357
0.38688939
0.37420499
0.36152087
0.34883637
0.33615241
0.32346769
0.31078401
0.29809896
0.28541565
0.27273016
0.26004738
0.24736124
0.23467922
0.22199214
0.20931119
0.19662274
0.18394327
0.17125279
0.15857528
0.14588167
0.13320645
0.12050786
0.10783453
0.095126971
0.08245305
0.069726744
0.05704381
0.044274428
0.031561487
0.018709728
0.0060804983
1.4936136
1.4812366
1.4569009
1.4276714
1.3961551
1.3634573
1.331074
1.3001556
1.271217
1.244338
1.2193229
1.1958693
1.1737555
1.1529074
1.1333088
1.1148666
1.0973592
1.0804978
1.0640314
1.0478154
1.0318115
1.0160422
1.0005407
0.98532158
0.97037603
0.95568055
0.94120886
0.92693942
0.91285775
0.89895483
0.88522408
0.87165846
0.85824859
0.84498201
0.83184345
0.81881563
0.8058804
0.79301994
0.78021764
0.76745884
0.75473119
0.74202478
0.72933199
0.71664728
0.70396678
0.691288
0.67860941
0.66593024
0.65325013
0.64056904
0.62788705
0.61520434
0.60252106
0.58983741
0.57715345
0.56446936
0.5517851
0.53910087
0.52641652
0.51373227
0.50104788
0.48836367
0.47567927
0.46299508
0.45031068
0.43762651
0.42494212
0.41225794
0.39957356
0.38688939
0.37420499
0.36152088
0.34883636
0.33615242
0.32346768
0.31078402
0.29809894
0.28541567
0.27273013
0.2600474
0.24736119
0.23467925
0.22199205
0.20931121
0.19662253
0.18394329
0.17125223
0.15857525
0.14588011
0.1332062
0.12050339
0.10783321
0.095113798
0.082446481
0.069685469
0.057010292
0.044131357
0.031395936
0.018217588
0.005703736
1.4936136
1.4812366
1.456901
1.4276715
1.3961551
1.3634573
1.331074
1.3001556
1.271217
1.244338
1.2193229
1.1958693
1.1737556
1.1529075
1.1333089
1.1148666
1.0973592
1.0804978
1.0640314
1.0478154
1.0318116
1.0160422
1.0005407
0.9853216
0.97037604
0.95568056
0.94120886
0.92693943
0.91285775
0.89895484
0.88522409
0.87165846
0.85824859
0.84498202
0.83184345
0.81881563
0.80588041
0.79301994
0.78021764
0.76745884
0.75473119
0.74202478
0.72933199
0.71664728
0.70396678
0.691288
0.67860941
0.66593024
0.65325013
0.64056903
0.62788705
0.61520434
0.60252106
0.5898374
0.57715344
0.56446935
0.5517851
0.53910086
0.52641651
0.51373227
0.50104788
0.48836366
0.47567926
0.46299508
0.45031068
0.4376265
0.42494212
0.41225794
0.39957356
0.38688939
0.37420498
0.36152088
0.34883636
0.33615242
0.32346768
0.31078402
0.29809895
0.28541567
0.27273013
0.2600474
0.24736119
0.23467925
0.22199204
0.20931121
0.19662253
0.18394329
0.17125223
0.15857525
0.14588011
0.1332062
0.12050339
0.10783321
0.095113796
0.082446479
0.069685469
0.057010292
0.044131358
0.031395936
0.018217588
0.005703736
1.5066205
1.4904447
1.4615169
1.4292728
1.3955877
1.3613502
1.3281021
1.2968401
1.2678958
1.241232
1.2165801
1.1935796
1.1719442
1.1515286
1.13226
1.1140263
1.0966279
1.0798206
1.0633963
1.047234
1.0312985
1.015603
1.0001694
0.98500474
0.97009845
0.95542931
0.94097508
0.92671828
0.91264765
0.89875629
0.8850388
0.87148857
0.8580961
0.84484842
0.83172948
0.81872114
0.80580444
0.79296084
0.78017328
0.76742684
0.75470913
0.74201038
0.72932325
0.71664249
0.70396462
0.69128745
0.67860976
0.665931
0.65325101
0.64056987
0.62788775
0.61520488
0.60252146
0.58983767
0.57715362
0.56446945
0.55178516
0.53910089
0.52641652
0.51373226
0.50104787
0.48836365
0.47567926
0.46299507
0.45031067
0.4376265
0.42494211
0.41225793
0.39957356
0.38688938
0.37420499
0.36152087
0.34883637
0.33615241
0.32346769
0.310784
0.29809896
0.28541565
0.27273016
0.26004738
0.24736124
0.23467922
0.22199214
0.20931119
0.19662274
0.18394326
0.17125279
0.15857527
0.14588167
0.13320645
0.12050786
0.10783453
0.095126965
0.082453044
0.069726744
0.057043811
0.044274431
0.031561489
0.018709729
0.0060804985
1.5357007
1.5072417
1.469186
1.432301
1.395013
1.3580841
1.3233643
1.2915585
1.2626353
1.2363328
1.2122529
1.1899493
1.1690503
1.149309
1.1305652
1.1126733
1.0954639
1.078761
1.0624211
1.0463593
1.0305441
1.014974
0.999653
0.98457776
0.96973554
0.9551093
0.94068329
0.92644627
0.91239166
0.89851562
0.8848145
0.87128246
0.85791014
0.84468422
0.83158798
0.81860243
0.80570772
0.79288449
0.78011505
0.76738408
0.75467906
0.74199029
0.72931066
0.71663529
0.70396107
0.69128623
0.6786099
0.66593182
0.65325208
0.64057093
0.62788867
0.61520562
0.60252202
0.58983807
0.57715388
0.56446962
0.55178526
0.53910094
0.52641655
0.51373226
0.50104787
0.48836364
0.47567925
0.46299506
0.45031067
0.43762649
0.42494211
0.41225792
0.39957357
0.38688937
0.374205
0.36152085
0.34883639
0.33615238
0.32346773
0.31078396
0.29809903
0.28541558
0.27273026
0.26004727
0.2473614
0.23467906
0.22199241
0.20931096
0.19662326
0.18394298
0.17125388
0.15857499
0.14588419
0.13320652
0.12051415
0.10783638
0.095143764
0.082462268
0.069774735
0.057084003
0.044426203
0.031736331
0.019204595
0.0064596403
1.5982448
1.5318274
1.4734051
1.4290313
1.3871879
1.3475805
1.3122034
1.2811428
1.2536542
1.2289884
1.2064911
1.1855983
1.1658894
1.1470827
1.1289975
1.1115066
1.0945054
1.0779043
1.0616344
1.0456509
1.0299296
1.0144577
0.99922526
0.98422043
0.96942977
0.95484021
0.94044141
0.92622665
0.91219221
0.89833567
0.88465376
0.87114063
0.85778669
0.8445784
0.83149883
0.81852879
0.80564824
0.79283766
0.78007922
0.76735755
0.75466014
0.74197739
0.72930235
0.71663033
0.70395844
0.69128513
0.67860972
0.66593215
0.65325263
0.64057153
0.62788923
0.61520609
0.60252238
0.58983833
0.57715407
0.56446973
0.55178533
0.53910097
0.52641657
0.51373226
0.50104788
0.48836362
0.47567926
0.46299504
0.45031068
0.43762647
0.42494212
0.41225791
0.39957357
0.38688936
0.37420501
0.36152082
0.34883643
0.33615232
0.32346781
0.31078386
0.29809915
0.28541542
0.27273046
0.26004703
0.24736172
0.2346787
0.2219929
0.20931046
0.19662402
0.18394232
0.17125513
0.15857425
0.1458864
0.13320614
0.12051845
0.10783782
0.09515296
0.08246958
0.069795318
0.057106052
0.044468371
0.031783192
0.019271758
0.0065199527
1.7217927
1.5916426
1.5009888
1.4428237
1.3932392
1.3487205
1.3104427
1.2779365
1.2499586
1.2253628
1.2032188
1.1828269
1.1636479
1.1453202
1.1276178
1.1104026
1.0935885
1.0771186
1.0609532
1.0450636
1.0294291
1.0140338
0.9988646
0.98390926
0.96915685
0.9545982
0.94022657
0.92603768
0.91202886
0.89819768
0.88454025
0.87104988
0.85771627
0.84452539
0.83146015
0.81850146
0.80562957
0.79282534
0.78007141
0.76735282
0.75465744
0.74197596
0.72930169
0.71663011
0.70395846
0.69128526
0.6786099
0.66593233
0.65325279
0.64057166
0.62788934
0.61520617
0.60252244
0.58983837
0.5771541
0.56446975
0.55178535
0.53910097
0.52641659
0.51373225
0.5010479
0.48836361
0.47567928
0.46299502
0.4503107
0.43762645
0.42494214
0.41225789
0.39957359
0.38688934
0.37420503
0.3615208
0.34883647
0.33615226
0.32346789
0.31078375
0.29809929
0.28541525
0.27273067
0.26004677
0.24736203
0.23467833
0.22199337
0.20930993
0.19662469
0.18394159
0.17125607
0.15857337
0.14588766
0.13320536
0.12052001
0.10783786
0.095154568
0.082471977
0.069794947
0.057110866
0.044448664
0.031760622
0.019114043
0.0064072259
)
;

boundaryField
{
    top
    {
        type            zeroGradient;
    }
    inlet
    {
        type            zeroGradient;
    }
    outlet
    {
        type            fixedValue;
        value           uniform 0;
    }
    bottom
    {
        type            zeroGradient;
    }
    back
    {
        type            empty;
    }
    front
    {
        type            empty;
    }
}


// ************************************************************************* //
