/*--------------------------------*- C++ -*----------------------------------*\
| =========                 |                                                 |
| \\      /  F ield         | OpenFOAM: The Open Source CFD Toolbox           |
|  \\    /   O peration     | Version:  2112                                  |
|   \\  /    A nd           | Website:  www.openfoam.com                      |
|    \\/     M anipulation  |                                                 |
\*---------------------------------------------------------------------------*/
FoamFile
{
    version     2.0;
    format      ascii;
    arch        "LSB;label=32;scalar=64";
    class       surfaceScalarField;
    location    "50";
    object      phi;
}
// * * * * * * * * * * * * * * * * * * * * * * * * * * * * * * * * * * * * * //

dimensions      [0 3 -1 0 0 0 0];

oriented        oriented;

internalField   nonuniform List<scalar> 
1890
(
0.0092501701
0.00074982943
0.0082910042
0.00095916543
0.0073621527
0.00092885123
0.0065322494
0.00082990353
0.0058250615
0.00070718878
0.0052477846
0.00057727805
0.0047934222
0.00045436323
0.0044450921
0.00034833002
0.0041823004
0.00026279073
0.0039853193
0.00019697999
0.0038371783
0.00014814042
0.0037244117
0.000112767
0.0036367698
8.764298e-05
0.003566804
6.9966821e-05
0.0035092946
5.7509971e-05
0.0034606962
4.8598219e-05
0.0034186498
4.2045735e-05
0.0033815886
3.7060359e-05
0.0033484542
3.3133916e-05
0.0033185105
2.9943404e-05
0.003291229
2.728157e-05
0.003266213
2.501613e-05
0.003243148
2.3064965e-05
0.0032217723
2.137553e-05
0.0032018666
1.9905436e-05
0.0031832591
1.8607141e-05
0.0031658376
1.7421152e-05
0.0031495584
1.6278892e-05
0.0031344453
1.5112914e-05
0.0031205753
1.3869797e-05
0.0031080543
1.2520924e-05
0.0030969864
1.1067772e-05
0.0030874458
9.5404489e-06
0.0030794553
7.9903971e-06
0.0030729757
6.4795355e-06
0.0030679068
5.0687851e-06
0.0030640982
3.8084335e-06
0.0030613661
2.7320451e-06
0.0030595118
1.8542881e-06
0.0030583394
1.1722971e-06
0.00305767
6.6936552e-07
0.0030573501
3.1980543e-07
0.0030572562
9.376291e-08
0.0030572948
-3.8708405e-08
0.0030573994
-1.0476125e-07
0.0030575263
-1.2709152e-07
0.0030576495
-1.2331025e-07
0.0030577554
-1.0616026e-07
0.0030578393
-8.4094455e-08
0.0030579014
-6.2288967e-08
0.0030579445
-4.332559e-08
0.0030579727
-2.8352207e-08
0.0030579897
-1.7179257e-08
0.0030579991
-9.6054112e-09
0.0030580034
-4.4701571e-09
0.003058005
-1.7043707e-09
0.0030580047
2.2217755e-10
0.003058004
5.6445851e-10
0.0030580026
1.3164324e-09
0.0030580019
6.2175962e-10
0.0030580006
1.239537e-09
0.0030580004
1.4299406e-10
0.0030579995
9.5677501e-10
0.0030579997
-2.3404406e-10
0.0030579989
6.9434099e-10
0.0030579993
-3.5883097e-10
0.0030579988
4.6563029e-10
0.0030579991
-3.3363218e-10
0.0030579988
3.6330743e-10
0.0030579992
-4.3024352e-10
0.0030579986
6.1807878e-10
0.0030579995
-9.6370569e-10
0.0030579981
1.4371367e-09
0.0030580002
-2.0789549e-09
0.0030579973
2.8263136e-09
0.003058001
-3.7078844e-09
0.0030579963
4.7078407e-09
0.0030580022
-5.8623476e-09
0.0030579949
7.280898e-09
0.0030580038
-8.9004302e-09
0.0030579927
1.1062843e-08
0.0030580059
-1.3260541e-08
0.0030579894
1.6536487e-08
0.0030580085
-1.9107422e-08
0.0030579843
2.4217572e-08
0.0030580106
-2.6326542e-08
0.0030579756
3.4981943e-08
0.0030580089
-3.3362231e-08
0.0030579595
4.9349382e-08
0.0030579929
-3.3390374e-08
0.0030579258
6.7199266e-08
0.0030579338
-8.0565609e-09
0.0030578438
8.9983512e-08
0.003057759
8.4827965e-08
0.0030576438
1.1524742e-07
0.0030573316
3.1226452e-07
0.0030572865
4.5121469e-08
0.0030567957
4.9087384e-07
0.0030577834
-9.8774284e-07
-8.3775201e-07
0.010379778
0.00037005149
0.010574967
0.00076397611
0.010627575
0.00087624218
0.010566629
0.00089085005
0.010429432
0.00084438594
0.01024718
0.00075953084
0.010042587
0.00065895734
0.0098326256
0.00055829099
0.0096291987
0.00046621725
0.0094394628
0.00038671537
0.0092669495
0.00032065344
0.0091125659
0.00026715086
0.0089756662
0.00022454314
0.0088547363
0.00019089729
0.0087479133
0.00016433318
0.008653321
0.00014319041
0.0085692506
0.0001261158
0.0084942234
0.00011208718
0.0084269778
0.00010037922
0.0083664257
9.0495362e-05
0.0083116123
8.2095034e-05
0.0082616966
7.493186e-05
0.0082159561
6.8805458e-05
0.0081738063
6.3525189e-05
0.0081348236
5.8887998e-05
0.0080987571
5.4673423e-05
0.0080655212
5.0656944e-05
0.0080351637
4.6636156e-05
0.0080078157
4.2460879e-05
0.0079836289
3.8056394e-05
0.007962717
3.3432777e-05
0.0079451074
2.8677308e-05
0.0079307149
2.3932802e-05
0.0079193377
1.9367527e-05
0.0079106728
1.5144347e-05
0.0079043462
1.1395248e-05
0.0078999491
8.2054914e-06
0.0078970727
5.6083307e-06
0.0078953378
3.589092e-06
0.0078944145
2.095533e-06
0.0078940325
1.0512358e-06
0.0078939834
3.6888765e-07
0.0078941155
-3.8495619e-08
0.0078943264
-2.4964093e-07
0.0078945519
-3.3035647e-07
0.0078947566
-3.3194393e-07
0.0078949248
-2.9160375e-07
0.0078950529
-2.3443651e-07
0.0078951444
-1.7573108e-07
0.0078952058
-1.238119e-07
0.0078952443
-8.1926962e-08
0.0078952666
-5.0711115e-08
0.007895278
-2.8671445e-08
0.0078952827
-1.4436294e-08
0.0078952836
-5.4078192e-09
0.0078952826
-8.3723798e-10
0.0078952808
1.979327e-09
0.0078952791
2.2216598e-09
0.0078952774
3.0177005e-09
0.0078952763
1.6584322e-09
0.0078952751
2.3706389e-09
0.0078952748
4.7248077e-10
0.0078952741
1.6817062e-09
0.0078952742
-3.6749233e-10
0.0078952736
1.2225682e-09
0.007895274
-7.0656747e-10
0.0078952736
8.8950848e-10
0.0078952739
-7.1691532e-10
0.0078952736
7.0653634e-10
0.0078952739
-7.9041477e-10
0.0078952736
9.6836389e-10
0.007895274
-1.4393573e-09
0.0078952734
2.0690069e-09
0.0078952744
-3.0436254e-09
0.007895273
4.2112499e-09
0.007895275
-5.6939355e-09
0.0078952723
7.4209798e-09
0.0078952759
-9.4676031e-09
0.0078952711
1.2006067e-08
0.0078952771
-1.4915104e-08
0.0078952693
1.8917501e-08
0.0078952791
-2.3074353e-08
0.007895266
2.9629076e-08
0.007895282
-3.5113587e-08
0.0078952599
4.6301716e-08
0.0078952858
-5.2208835e-08
0.007895248
7.2724729e-08
0.007895289
-7.4413384e-08
0.0078952232
1.1519839e-07
0.0078952854
-9.5627909e-08
0.0078951678
1.8489851e-07
0.0078952512
-9.1520308e-08
0.0078950336
3.0759078e-07
0.0078951079
1.0543727e-08
0.007894677
5.461404e-07
0.0078945877
4.0158112e-07
0.0078935958
1.0370836e-06
0.0078926038
1.4828836e-06
0.0078895404
2.0755629e-06
3.7183432e-06
0.010194548
0.00017550334
0.010510298
0.00044822528
0.010823885
0.00056265531
0.011103866
0.0006108692
0.011333732
0.00061451998
0.011509087
0.00058417673
0.011633636
0.00053440878
0.011714967
0.00047696008
0.011761875
0.0004193088
0.011782792
0.00036579805
0.011784955
0.00031848973
0.011774182
0.00027792439
0.01175494
0.00024378569
0.011730511
0.00021532683
0.011703217
0.00019162668
0.011674654
0.00017175328
0.011645889
0.0001548812
0.011617613
0.00014036266
0.01159025
0.00012774165
0.011564026
0.00011671968
0.011539024
0.00010709747
0.011515241
9.8714414e-05
0.011492647
9.1399485e-05
0.011471231
8.4940996e-05
0.011451039
7.9080169e-05
0.011432183
7.3529311e-05
0.01141483
6.8009308e-05
0.011399172
6.229485e-05
0.011385379
5.6253525e-05
0.011373568
4.9866996e-05
0.011363772
4.3228793e-05
0.011355929
3.6520177e-05
0.011349891
2.9971459e-05
0.011345439
2.3818716e-05
0.011342318
1.8265562e-05
0.011340257
1.3456568e-05
0.011338997
9.4652036e-06
0.01133831
6.2953222e-06
0.011338006
3.8928599e-06
0.011337939
2.1631307e-06
0.011338
9.8950668e-07
0.011338119
2.5004137e-07
0.01133825
-1.6976652e-07
0.01133837
-3.6890031e-07
0.011338466
-4.2693745e-07
0.011338538
-4.0368873e-07
0.011338587
-3.4097418e-07
0.011338618
-2.6585227e-07
0.011338637
-1.9396101e-07
0.011338646
-1.3308381e-07
0.011338649
-8.560446e-08
0.01133865
-5.1210794e-08
0.011338649
-2.7631455e-08
0.011338647
-1.2828692e-08
0.011338645
-3.8053815e-09
0.011338644
5.4100507e-10
0.011338643
3.0122596e-09
0.011338642
2.9734809e-09
0.011338642
3.4859423e-09
0.011338641
1.9649141e-09
0.011338641
2.5223813e-09
0.011338641
5.46176e-10
0.011338641
1.7212366e-09
0.011338641
-4.1243938e-10
0.011338641
1.2707189e-09
0.011338641
-8.324174e-10
0.011338641
9.9676216e-10
0.011338641
-9.0008618e-10
0.011338641
8.5691319e-10
0.011338641
-9.7730855e-10
0.011338641
1.0957373e-09
0.011338641
-1.5649169e-09
0.011338641
2.1357955e-09
0.011338641
-3.1377532e-09
0.011338641
4.3409855e-09
0.011338642
-6.0017831e-09
0.011338641
7.9826491e-09
0.011338642
-1.0477269e-08
0.01133864
1.3605306e-08
0.011338643
-1.7365478e-08
0.011338639
2.252525e-08
0.011338644
-2.828291e-08
0.011338637
3.7183126e-08
0.011338648
-4.5800392e-08
0.011338632
6.1775795e-08
0.011338654
-7.3650459e-08
0.011338623
1.0366669e-07
0.011338664
-1.1617498e-07
0.011338604
1.7564249e-07
0.011338683
-1.7443209e-07
0.011338567
3.0066703e-07
0.011338708
-2.3291889e-07
0.011338491
5.2538513e-07
0.011338717
-2.1567245e-07
0.011338299
9.6353522e-07
0.011338532
1.691954e-07
0.011337596
1.9731314e-06
0.011337063
2.0160308e-06
0.011334256
4.8823444e-06
8.675257e-06
0.010101123
7.4379909e-05
0.010347882
0.00020146576
0.010645915
0.00026462263
0.010960851
0.00029593344
0.01126922
0.00030615097
0.011554358
0.0002990392
0.011807896
0.00028087092
0.01202757
0.00025728675
0.012214806
0.00023207213
0.012372999
0.00020760426
0.012506291
0.00018519778
0.012618818
0.00016539712
0.012714329
0.00014827568
0.012796016
0.00013364022
0.012866487
0.0001211552
0.012927809
0.00011043182
0.012981587
0.0001011028
0.013029073
9.2876882e-05
0.013071255
8.5559222e-05
0.013108937
7.9037584e-05
0.013142787
7.3246969e-05
0.013173373
6.8128795e-05
0.013201175
6.3597312e-05
0.013226595
5.9521565e-05
0.013249948
5.572714e-05
0.01327146
5.201689e-05
0.013291265
4.8204492e-05
0.013309409
4.4150392e-05
0.013325873
3.9789508e-05
0.013340598
3.514262e-05
0.013353517
3.0309413e-05
0.013364591
2.5445898e-05
0.01337383
2.0733393e-05
0.013381302
1.6346581e-05
0.01338714
1.2427684e-05
0.013391526
9.070339e-06
0.013394676
6.3144847e-06
0.013396821
4.1503894e-06
0.013398185
2.5291787e-06
0.013398972
1.3761839e-06
0.013399357
6.0446412e-07
0.013399481
1.2613539e-07
0.01339945
-1.3927396e-07
0.013399342
-2.5996035e-07
0.013399204
-2.8976322e-07
0.013399069
-2.6849386e-07
0.013398952
-2.2348941e-07
0.013398858
-1.7211396e-07
0.013398788
-1.2411668e-07
0.013398739
-8.4155296e-08
0.013398707
-5.3411763e-08
0.013398687
-3.1431559e-08
0.013398676
-1.6554914e-08
0.01339867
-7.3580281e-09
0.013398668
-1.8510418e-09
0.013398668
7.1590011e-10
0.013398669
2.1213242e-09
0.01339867
1.9972656e-09
0.013398671
2.2313035e-09
0.013398672
1.2422186e-09
0.013398673
1.5478495e-09
0.013398673
3.067395e-10
0.013398674
1.0320962e-09
0.013398674
-3.1294531e-10
0.013398674
7.7237413e-10
0.013398674
-5.9703116e-10
0.013398675
6.4190179e-10
0.013398674
-6.662374e-10
0.013398675
5.9356472e-10
0.013398674
-7.3185426e-10
0.013398675
7.5904442e-10
0.013398674
-1.0948312e-09
0.013398675
1.4069974e-09
0.013398674
-2.0857974e-09
0.013398675
2.8352991e-09
0.013398673
-4.0027817e-09
0.013398676
5.3530991e-09
0.013398673
-7.206431e-09
0.013398677
9.4785987e-09
0.013398672
-1.2393511e-08
0.013398678
1.6286127e-08
0.013398671
-2.0927774e-08
0.01339868
2.7837559e-08
0.01339867
-3.5194193e-08
0.013398683
4.7856434e-08
0.013398669
-5.8966324e-08
0.01339869
8.2832165e-08
0.013398671
-9.7267059e-08
0.013398703
1.4379653e-07
0.013398682
-1.5419262e-07
0.013398733
2.4980631e-07
0.013398724
-2.2355855e-07
0.013398813
4.3659558e-07
0.01339885
-2.5344983e-07
0.013399026
7.8834262e-07
0.013399204
-9.108054e-09
0.013399584
1.5932151e-06
0.01340012
1.4793808e-06
0.013400976
4.026814e-06
7.3632443e-06
0.01007438
-2.5565566e-10
0.010275845
-6.1639494e-11
0.010540467
5.3255125e-11
0.010836401
1.3883034e-10
0.011142552
2.128724e-10
0.011441592
2.7054166e-10
0.011722463
2.9725434e-10
0.011979749
2.937546e-10
0.012211821
2.513795e-10
0.012419424
1.8252014e-10
0.012604622
1.048449e-10
0.012770019
8.3011658e-12
0.012918295
-8.0887499e-11
0.013051936
-1.8455937e-10
0.013173091
-2.7673447e-10
0.013283523
-3.6552718e-10
0.013384626
-4.3835835e-10
0.013477504
-4.9858804e-10
0.013563063
-5.4737827e-10
0.013642101
-5.8987041e-10
0.013715349
-6.2458336e-10
0.013783479
-6.5261125e-10
0.013847077
-6.7061548e-10
0.013906599
-6.7608834e-10
0.013962327
-6.7614079e-10
0.014014344
-6.6345439e-10
0.014062549
-6.5436651e-10
0.014106701
-6.3102071e-10
0.014146491
-6.1063564e-10
0.014181634
-5.6710615e-10
0.014211944
-5.1980233e-10
0.01423739
-4.447177e-10
0.014258124
-3.6810772e-10
0.014274471
-2.7240292e-10
0.014286899
-1.9039269e-10
0.014295969
-1.0702962e-10
0.014302284
-5.5032003e-11
0.014306434
-1.397165e-11
0.014308964
-1.159591e-11
0.01431034
-1.9248921e-11
0.014310944
-5.9595276e-11
0.014311071
-9.7515533e-11
0.014310931
-1.5540008e-10
0.014310672
-1.9637769e-10
0.014310382
-2.4687313e-10
0.014310114
-2.7065434e-10
0.014309891
-3.006766e-10
0.014309719
-3.0162997e-10
0.014309595
-3.1179607e-10
0.014309511
-2.9467131e-10
0.014309458
-2.9238005e-10
0.014309427
-2.6609684e-10
0.014309411
-2.5950383e-10
0.014309404
-2.3049647e-10
0.014309402
-2.2404532e-10
0.014309403
-1.9587399e-10
0.014309405
-1.9141846e-10
0.014309408
-1.6452466e-10
0.01430941
-1.6168299e-10
0.014309411
-1.3626851e-10
0.014309413
-1.3507235e-10
0.014309414
-1.107738e-10
0.014309415
-1.1084858e-10
0.014309415
-8.8195266e-11
0.014309415
-9.0102451e-11
0.014309415
-6.9093471e-11
0.014309416
-7.2738041e-11
0.014309415
-5.3943261e-11
0.014309416
-5.9892058e-11
0.014309415
-4.3191839e-11
0.014309416
-5.1259018e-11
0.014309415
-3.7119784e-11
0.014309416
-4.7748092e-11
0.014309414
-3.5850077e-11
0.014309417
-4.8533381e-11
0.014309413
-3.8867604e-11
0.014309418
-5.343173e-11
0.014309411
-4.4681815e-11
0.014309421
-5.9500203e-11
0.014309408
-5.024434e-11
0.014309425
-6.4083971e-11
0.014309404
-5.2579586e-11
0.014309432
-6.4444487e-11
0.014309397
-5.1067785e-11
0.014309445
-6.1879322e-11
0.014309386
-4.7967391e-11
0.014309469
-5.9071259e-11
0.014309371
-4.7284896e-11
0.014309515
-5.9872204e-11
0.014309361
-4.8808929e-11
0.014309611
-5.6767991e-11
0.014309387
-4.2083211e-11
0.014309824
-3.8318223e-11
0.014309571
-2.1744712e-11
0.014310359
-1.0583083e-11
0.01431035
-2.8055226e-12
0.014311943
4.7949127e-12
0.014313422
4.0995815e-12
0.014317449
1.2658004e-11
1.1613971e-11
0.01007438
-7.4380326e-05
0.010275845
-0.00020146584
0.010540467
-0.00026462251
0.010836401
-0.00029593317
0.011142552
-0.00030615056
0.011441592
-0.00029903869
0.011722463
-0.00028087035
0.011979749
-0.00025728619
0.012211821
-0.00023207165
0.012419424
-0.00020760389
0.012604622
-0.00018519757
0.012770019
-0.00016539711
0.012918295
-0.00014827587
0.013051935
-0.00013364061
0.013173091
-0.00012115577
0.013283523
-0.00011043253
0.013384626
-0.00010110364
0.013477503
-9.2877812e-05
0.013563063
-8.5560237e-05
0.013642101
-7.903868e-05
0.013715349
-7.3248137e-05
0.013783478
-6.8130021e-05
0.013847076
-6.3598574e-05
0.013906599
-5.9522838e-05
0.013962326
-5.5728406e-05
0.014014344
-5.2018133e-05
0.014062549
-4.8205706e-05
0.0141067
-4.4151567e-05
0.01414649
-3.9790637e-05
0.014181633
-3.5143679e-05
0.014211943
-3.0310379e-05
0.01423739
-2.5446741e-05
0.014258123
-2.0734089e-05
0.01427447
-1.6347117e-05
0.014286898
-1.242806e-05
0.014295969
-9.0705764e-06
0.014302283
-6.3146137e-06
0.014306434
-4.150456e-06
0.014308963
-2.5292252e-06
0.01431034
-1.3762582e-06
0.014310944
-6.0459598e-07
0.01431107
-1.2635268e-07
0.014310931
1.3896677e-07
0.014310672
2.5956035e-07
0.014310382
2.8928738e-07
0.014310114
2.6795593e-07
0.014309891
2.2291454e-07
0.014309719
1.7151891e-07
0.014309595
1.235233e-07
0.014309511
8.3575085e-08
0.014309458
5.2857813e-08
0.014309427
3.0907505e-08
0.014309411
1.6066526e-08
0.014309404
6.9040191e-09
0.014309402
1.4329372e-09
0.014309403
-1.1018684e-09
0.014309406
-2.4745614e-09
0.014309408
-2.321473e-09
0.01430941
-2.5259501e-09
0.014309412
-1.5111737e-09
0.014309413
-1.7901472e-09
0.014309414
-5.2590874e-10
0.014309415
-1.2273959e-09
0.014309415
1.3738347e-10
0.014309415
-9.2746855e-10
0.014309415
4.5832933e-10
0.014309416
-7.6386799e-10
0.014309415
5.5632388e-10
0.014309416
-6.9100843e-10
0.014309415
6.4231677e-10
0.014309416
-8.404844e-10
0.014309415
1.0163379e-09
0.014309416
-1.4820442e-09
0.014309414
2.0093232e-09
0.014309417
-2.9124674e-09
0.014309413
3.9198968e-09
0.014309418
-5.4398578e-09
0.014309411
7.112073e-09
0.014309421
-9.5772531e-09
0.014309408
1.2288144e-08
0.014309425
-1.6393125e-08
0.014309404
2.0818312e-08
0.014309432
-2.7944403e-08
0.014309397
3.5088599e-08
0.014309445
-4.7956887e-08
0.014309386
5.8868037e-08
0.014309469
-8.2927253e-08
0.014309371
9.7169588e-08
0.014309515
-1.4389513e-07
0.014309361
1.5409137e-07
0.014309611
-2.4990472e-07
0.014309387
2.23472e-07
0.014309824
-4.3666766e-07
0.014309571
2.534075e-07
0.014310359
-7.88369e-07
0.01431035
9.1005459e-09
0.014311943
-1.5932094e-06
0.014313422
-1.4793746e-06
0.014317449
-4.0267986e-06
-7.3632303e-06
0.010101123
-0.00017550378
0.010347882
-0.00044822534
0.010645914
-0.0005626552
0.01096085
-0.00061086896
0.01126922
-0.00061451967
0.011554358
-0.00058417634
0.011807896
-0.00053440831
0.01202757
-0.00047695957
0.012214806
-0.00041930832
0.012372999
-0.00036579767
0.012506291
-0.00031848955
0.012618818
-0.00027792442
0.012714329
-0.00024378595
0.012796016
-0.00021532725
0.012866487
-0.00019162723
0.012927809
-0.00017175391
0.012981587
-0.00015488188
0.013029072
-0.00014036341
0.013071254
-0.00012774246
0.013108936
-0.00011672058
0.013142787
-0.00010709843
0.013173372
-9.8715427e-05
0.013201174
-9.1400517e-05
0.013226594
-8.4942038e-05
0.013249946
-7.9081183e-05
0.013271459
-7.3530309e-05
0.013291263
-6.8010264e-05
0.013309408
-6.2295787e-05
0.013325872
-5.6254417e-05
0.013340596
-4.9867856e-05
0.013353515
-4.3229584e-05
0.01336459
-3.6520899e-05
0.013373828
-2.9972075e-05
0.0133813
-2.3819228e-05
0.013387138
-1.8265955e-05
0.013391524
-1.3456862e-05
0.013394675
-9.4654094e-06
0.01339682
-6.2954793e-06
0.013398184
-3.8929918e-06
0.013398971
-2.1632802e-06
0.013399356
-9.8969063e-07
0.01339948
-2.5029029e-07
0.01339945
1.6945585e-07
0.013399341
3.6851424e-07
0.013399204
4.265e-07
0.013399069
4.0319624e-07
0.013398952
3.4046207e-07
0.013398858
2.6531674e-07
0.013398788
1.9343953e-07
0.013398739
1.3256501e-07
0.013398707
8.5121863e-08
0.013398687
5.0744333e-08
0.013398676
2.7210859e-08
0.013398671
1.2427318e-08
0.013398669
3.4503979e-09
0.013398668
-8.7917734e-10
0.013398669
-3.3064202e-09
0.01339867
-3.2543281e-09
0.013398672
-3.7262459e-09
0.013398672
-2.1952459e-09
0.013398673
-2.7148108e-09
0.013398674
-7.3147794e-10
0.013398674
-1.8718967e-09
0.013398674
2.6575682e-10
0.013398675
-1.3857314e-09
0.013398674
7.1806977e-10
0.013398675
-1.0833783e-09
0.013398674
8.1033616e-10
0.013398675
-9.2254678e-10
0.013398674
9.0472157e-10
0.013398675
-1.1486534e-09
0.013398674
1.5009434e-09
0.013398675
-2.183987e-09
0.013398674
3.0747286e-09
0.013398675
-4.3923823e-09
0.013398673
5.9322554e-09
0.013398676
-8.0429388e-09
0.013398673
1.0397283e-08
0.013398677
-1.3676511e-08
0.013398672
1.7275645e-08
0.013398678
-2.260266e-08
0.013398671
2.8190791e-08
0.01339868
-3.7257997e-08
0.013398669
4.5714723e-08
0.013398683
-6.1841055e-08
0.013398669
7.3574859e-08
0.013398689
-1.0372609e-07
0.01339867
1.1609965e-07
0.013398702
-1.7570864e-07
0.013398682
1.7434835e-07
0.013398733
-3.0073623e-07
0.013398723
2.3284113e-07
0.013398812
-5.2543201e-07
0.01339885
2.1562677e-07
0.013399025
-9.6354796e-07
0.013399204
-1.6920502e-07
0.013399583
-1.9731271e-06
0.01340012
-2.0160427e-06
0.013400976
-4.8823456e-06
-8.6752556e-06
0.010194547
-0.0003700519
0.010510298
-0.00076397624
0.010823884
-0.00087624217
0.011103866
-0.00089084992
0.011333732
-0.00084438571
0.011509087
-0.00075953052
0.011633636
-0.00065895693
0.011714967
-0.00055829057
0.011761875
-0.00046621688
0.011782792
-0.00038671512
0.011784955
-0.00032065338
0.011774182
-0.00026715094
0.011754939
-0.00022454336
0.01173051
-0.00019089756
0.011703217
-0.0001643335
0.011674654
-0.00014319079
0.011645888
-0.00012611625
0.011617612
-0.0001120877
0.011590249
-0.00010037981
0.011564025
-9.0496002e-05
0.011539022
-8.20957e-05
0.011515239
-7.4932537e-05
0.011492645
-6.8806125e-05
0.011471229
-6.3525862e-05
0.011451037
-5.888865e-05
0.011432181
-5.4674085e-05
0.011414828
-5.0657579e-05
0.011399169
-4.6636799e-05
0.011385376
-4.2461488e-05
0.011373566
-3.8057003e-05
0.01136377
-3.3433341e-05
0.011355927
-2.8677856e-05
0.011349888
-2.3933286e-05
0.011345437
-1.9367975e-05
0.011342316
-1.5144719e-05
0.011340255
-1.1395579e-05
0.011338995
-8.2057525e-06
0.011338308
-5.6085705e-06
0.011338005
-3.5892924e-06
0.011337937
-2.0957482e-06
0.011337999
-1.0514468e-06
0.011338118
-3.6914582e-07
0.01133825
3.822025e-08
0.011338369
2.4930538e-07
0.011338466
3.3000619e-07
0.011338537
3.3154086e-07
0.011338587
2.91205e-07
0.011338618
2.3400322e-07
0.011338636
1.7532655e-07
0.011338646
1.2338983e-07
0.011338649
8.1551987e-08
0.01133865
5.0328754e-08
0.011338649
2.8346487e-08
0.011338647
1.4106336e-08
0.011338646
5.1377491e-09
0.011338644
5.6053828e-10
0.011338643
-2.1966022e-09
0.011338642
-2.4491306e-09
0.011338642
-3.1883412e-09
0.011338642
-1.8424663e-09
0.011338641
-2.4999621e-09
0.011338641
-6.1856759e-10
0.011338641
-1.7762208e-09
0.011338641
2.5332247e-10
0.011338641
-1.2877342e-09
0.011338641
6.1836663e-10
0.011338641
-9.3231278e-10
0.011338641
6.4804036e-10
0.011338641
-7.3289344e-10
0.011338641
7.345481e-10
0.011338641
-9.8544509e-10
0.011338641
1.3897904e-09
0.011338641
-2.0825981e-09
0.011338641
2.9943543e-09
0.011338641
-4.2278675e-09
0.011338642
5.639347e-09
0.011338641
-7.4444356e-09
0.011338642
9.4045951e-09
0.01133864
-1.2038338e-08
0.011338643
1.4844357e-08
0.011338639
-1.8953947e-08
0.011338644
2.3002719e-08
0.011338637
-2.9661562e-08
0.011338647
3.5050491e-08
0.011338632
-4.6322171e-08
0.011338653
5.2157632e-08
0.011338622
-7.2738918e-08
0.011338664
7.4361442e-08
0.011338604
-1.1522094e-07
0.011338682
9.556785e-08
0.011338567
-1.849292e-07
0.011338708
9.1465487e-08
0.01133849
-3.0761401e-07
0.011338716
-1.057469e-08
0.011338299
-5.4614329e-07
0.011338531
-4.0157488e-07
0.011337595
-1.0370836e-06
0.011337062
-1.4828833e-06
0.011334255
-2.075564e-06
-3.7183432e-06
0.010379777
-0.00074982993
0.010574966
-0.00095916578
0.010627575
-0.00092885132
0.010566629
-0.00082990336
0.010429432
-0.00070718839
0.01024718
-0.00057727758
0.010042587
-0.00045436286
0.0098326258
-0.00034832988
0.0096291987
-0.00026279083
0.0094394625
-0.00019698024
0.0092669491
-0.00014814061
0.0091125653
-0.00011276704
0.0089756655
-8.7642798e-05
0.0088547355
-6.9966567e-05
0.0087479125
-5.750979e-05
0.0086533202
-4.8598254e-05
0.0085692497
-4.2046006e-05
0.0084942224
-3.7060798e-05
0.0084269767
-3.3134384e-05
0.0083664244
-2.9943817e-05
0.0083116108
-2.7281872e-05
0.0082616949
-2.5016357e-05
0.0082159543
-2.3065173e-05
0.0081738045
-2.1375765e-05
0.0081348216
-1.9905743e-05
0.0080987551
-1.8607485e-05
0.008065519
-1.7421541e-05
0.0080351615
-1.6279259e-05
0.0080078133
-1.5113275e-05
0.0079836265
-1.3870105e-05
0.0079627145
-1.2521218e-05
0.0079451049
-1.1068021e-05
0.0079307124
-9.5406954e-06
0.0079193353
-7.9906088e-06
0.0079106705
-6.4797493e-06
0.0079043441
-5.0689638e-06
0.0078999471
-3.8086124e-06
0.007897071
-2.732189e-06
0.0078953363
-1.8544373e-06
0.0078944131
-1.1724212e-06
0.0078940313
-6.695089e-07
0.0078939823
-3.1993807e-07
0.0078941146
-9.3929935e-08
0.0078943256
3.854256e-08
0.0078945511
1.0455331e-07
0.007894756
1.2688642e-07
0.0078949242
1.2306518e-07
0.0078950524
1.059288e-07
0.007895144
8.3831108e-08
0.0078952054
6.2053931e-08
0.007895244
4.3067901e-08
0.0078952663
2.8135383e-08
0.0078952777
1.6945769e-08
0.0078952825
9.4207823e-09
0.0078952834
4.2712686e-09
0.0078952825
1.5574804e-09
0.0078952807
-3.8438256e-10
0.0078952791
-6.7470103e-10
0.0078952774
-1.4443201e-09
0.0078952763
-6.9954631e-10
0.0078952752
-1.3381977e-09
0.0078952749
-1.9396525e-10
0.0078952741
-1.0314e-09
0.0078952742
2.0445887e-10
0.0078952737
-7.5049806e-10
0.007895274
3.4518231e-10
0.0078952736
-5.0810863e-10
0.007895274
3.3119766e-10
0.0078952736
-3.9683102e-10
0.007895274
4.3462783e-10
0.0078952736
-6.4632412e-10
0.0078952741
9.7134215e-10
0.0078952734
-1.463785e-09
0.0078952744
2.0863973e-09
0.0078952729
-2.8542244e-09
0.0078952749
3.7125512e-09
0.0078952722
-4.7397146e-09
0.0078952758
5.862316e-09
0.007895271
-7.3180366e-09
0.0078952771
8.8956445e-09
0.0078952692
-1.1104471e-08
0.007895279
1.3254328e-08
0.0078952659
-1.6577006e-08
0.0078952819
1.9105916e-08
0.0078952597
-2.4252171e-08
0.0078952856
2.6330553e-08
0.0078952478
-3.5013019e-08
0.0078952888
3.3367167e-08
0.0078952229
-4.9379365e-08
0.0078952852
3.3395039e-08
0.0078951675
-6.7230655e-08
0.007895251
8.0538958e-09
0.0078950333
-9.0020528e-08
0.0078951076
-8.4828892e-08
0.0078946767
-1.1525104e-07
0.0078945874
-3.1223447e-07
0.0078935954
-4.5092346e-08
0.0078926034
-4.9084708e-07
0.0078895401
9.8775922e-07
8.3775381e-07
0.0092501695
0.0082910035
0.0073621524
0.0065322497
0.0058250622
0.0052477852
0.0047934222
0.0044450915
0.0041822995
0.0039853185
0.0038371778
0.0037244113
0.0036367695
0.0035668037
0.0035092942
0.0034606959
0.0034186495
0.0033815883
0.0033484538
0.0033185101
0.0032912285
0.0032662124
0.0032431474
0.0032217717
0.003201866
0.0031832585
0.0031658369
0.0031495576
0.0031344444
0.0031205743
0.0031080533
0.0030969854
0.0030874448
0.0030794543
0.0030729748
0.0030679059
0.0030640975
0.0030613654
0.0030595111
0.0030583388
0.0030576694
0.0030573496
0.0030572558
0.0030572944
0.0030573991
0.003057526
0.0030576492
0.0030577552
0.0030578391
0.0030579011
0.0030579443
0.0030579724
0.0030579895
0.0030579989
0.0030580033
0.0030580048
0.0030580045
0.0030580039
0.0030580025
0.0030580018
0.0030580006
0.0030580004
0.0030579994
0.0030579996
0.0030579989
0.0030579992
0.0030579988
0.0030579991
0.0030579987
0.0030579991
0.0030579985
0.0030579995
0.0030579981
0.0030580001
0.0030579973
0.003058001
0.0030579963
0.0030580021
0.0030579949
0.0030580037
0.0030579927
0.0030580059
0.0030579894
0.0030580084
0.0030579842
0.0030580105
0.0030579755
0.0030580088
0.0030579595
0.0030579929
0.0030579257
0.0030579337
0.0030578437
0.0030577589
0.0030576436
0.0030573314
0.0030572864
0.0030567956
0.0030577833
)
;

boundaryField
{
    top
    {
        type            calculated;
        value           uniform 0;
    }
    inlet
    {
        type            calculated;
        value           nonuniform List<scalar> 10(-0.01 -0.01 -0.01 -0.01 -0.01 -0.01 -0.01 -0.01 -0.01 -0.01);
    }
    outlet
    {
        type            calculated;
        value           nonuniform List<scalar> 10(0.0030586212 0.0078849843 0.011329299 0.013402288 0.014324812 0.014324812 0.013402288 0.011329298 0.007884984 0.0030586211);
    }
    bottom
    {
        type            calculated;
        value           uniform 0;
    }
    back
    {
        type            empty;
        value           nonuniform List<scalar> 0();
    }
    front
    {
        type            empty;
        value           nonuniform List<scalar> 0();
    }
}


// ************************************************************************* //
