/*--------------------------------*- C++ -*----------------------------------*\
| =========                 |                                                 |
| \\      /  F ield         | OpenFOAM: The Open Source CFD Toolbox           |
|  \\    /   O peration     | Version:  2112                                  |
|   \\  /    A nd           | Website:  www.openfoam.com                      |
|    \\/     M anipulation  |                                                 |
\*---------------------------------------------------------------------------*/
FoamFile
{
    version     2.0;
    format      ascii;
    arch        "LSB;label=32;scalar=64";
    class       volVectorField;
    location    "50";
    object      U;
}
// * * * * * * * * * * * * * * * * * * * * * * * * * * * * * * * * * * * * * //

dimensions      [0 1 -1 0 0 0 0];

internalField   nonuniform List<vector> 
1000
(
(0.92241908 0.034487145 0)
(0.87132453 0.058494417 0)
(0.78815523 0.056215201 0)
(0.69388334 0.0457479 0)
(0.61395097 0.034512625 0)
(0.55015761 0.024457378 0)
(0.49940448 0.0162795 0)
(0.45985718 0.010226688 0)
(0.42979664 0.0060965552 0)
(0.40724621 0.0034486252 0)
(0.3903228 0.0018256321 0)
(0.37750423 0.00090851324 0)
(0.36764853 0.00045737973 0)
(0.35989149 0.0002914771 0)
(0.35360464 0.00027562543 0)
(0.34835291 0.00031395596 0)
(0.34384805 0.00034990578 0)
(0.33990457 0.00036237338 0)
(0.33640248 0.0003539852 0)
(0.33325975 0.00033640476 0)
(0.33041531 0.00031958481 0)
(0.3278203 0.00030781499 0)
(0.3254342 0.00030087186 0)
(0.32322332 0.00029685577 0)
(0.3211604 0.0002942449 0)
(0.31922511 0.00029243262 0)
(0.31740485 0.0002912467 0)
(0.31569536 0.00029025013 0)
(0.31410027 0.00028837452 0)
(0.31262951 0.00028402855 0)
(0.31129639 0.00027553523 0)
(0.31011417 0.00026165153 0)
(0.30909272 0.00024195022 0)
(0.30823603 0.00021695549 0)
(0.30754098 0.00018802061 0)
(0.30699744 0.00015702861 0)
(0.30658951 0.00012601611 0)
(0.30629744 9.6832092e-05 0)
(0.30609975 7.089146e-05 0)
(0.30597525 4.906101e-05 0)
(0.30590457 3.1658675e-05 0)
(0.30587115 1.8543356e-05 0)
(0.30586171 9.2462374e-06 0)
(0.30586622 3.1149194e-06 0)
(0.3058776 -5.6285874e-07 0)
(0.30589122 -2.4646992e-06 0)
(0.30590433 -3.1752009e-06 0)
(0.30591555 -3.1597863e-06 0)
(0.3059244 -2.759386e-06 0)
(0.30593092 -2.2082962e-06 0)
(0.30593542 -1.6457442e-06 0)
(0.30593835 -1.1540934e-06 0)
(0.30594011 -7.5498215e-07 0)
(0.30594109 -4.6592135e-07 0)
(0.30594152 -2.5358951e-07 0)
(0.30594169 -1.3117872e-07 0)
(0.30594164 -3.5971932e-08 0)
(0.30594158 -1.2108981e-08 0)
(0.30594141 3.4198945e-08 0)
(0.30594138 8.0888482e-09 0)
(0.3059412 4.6593439e-08 0)
(0.30594124 -3.3430436e-09 0)
(0.30594107 4.2472514e-08 0)
(0.30594116 -1.5950948e-08 0)
(0.30594101 3.4094796e-08 0)
(0.30594113 -1.9610563e-08 0)
(0.305941 2.4149792e-08 0)
(0.30594111 -1.7066854e-08 0)
(0.30594101 1.8686655e-08 0)
(0.30594111 -2.0806071e-08 0)
(0.30594098 3.0377919e-08 0)
(0.30594116 -4.6618458e-08 0)
(0.3059409 7.0391885e-08 0)
(0.30594128 -1.0168275e-07 0)
(0.30594076 1.3877272e-07 0)
(0.30594145 -1.8156093e-07 0)
(0.30594056 2.3018562e-07 0)
(0.30594167 -2.8546051e-07 0)
(0.3059403 3.5333084e-07 0)
(0.30594197 -4.3036522e-07 0)
(0.30593994 5.3232995e-07 0)
(0.30594236 -6.3460637e-07 0)
(0.30593943 7.8434573e-07 0)
(0.30594281 -8.9663646e-07 0)
(0.30593879 1.1203058e-06 0)
(0.30594318 -1.1964885e-06 0)
(0.30593798 1.5610576e-06 0)
(0.30594303 -1.4339536e-06 0)
(0.30593702 2.0847211e-06 0)
(0.30594104 -1.2221598e-06 0)
(0.30593589 2.5756568e-06 0)
(0.30593381 4.0079768e-07 0)
(0.30593368 2.8550963e-06 0)
(0.30591335 5.4203469e-06 0)
(0.30592706 1.8912948e-06 0)
(0.30586354 1.5848826e-05 0)
(0.30591101 -1.0122503e-05 0)
(0.3057823 1.2295708e-05 0)
(0.30591758 -0.00010408471 0)
(0.30594049 -0.00012745972 0)
(1.003271 0.054817078 0)
(1.0472129 0.10100082 0)
(1.0661116 0.11153534 0)
(1.0625924 0.10907586 0)
(1.0508073 0.099920947 0)
(1.0344968 0.087038756 0)
(1.0148905 0.072930173 0)
(0.99382461 0.059372288 0)
(0.97290714 0.047364224 0)
(0.95310867 0.037317457 0)
(0.93492601 0.029240837 0)
(0.91856881 0.022964593 0)
(0.90403806 0.01822493 0)
(0.89120287 0.014727068 0)
(0.87986748 0.012176295 0)
(0.86982828 0.010301671 0)
(0.86090655 0.0088813254 0)
(0.8529554 0.0077584535 0)
(0.8458513 0.0068388557 0)
(0.83948319 0.0060734892 0)
(0.83374686 0.0054372612 0)
(0.82854543 0.0049132154 0)
(0.8237931 0.0044847622 0)
(0.81941921 0.0041336872 0)
(0.81537118 0.003840675 0)
(0.81161589 0.0035862889 0)
(0.80813906 0.0033519563 0)
(0.80494249 0.0031211095 0)
(0.80203928 0.0028806141 0)
(0.79944758 0.0026221755 0)
(0.79718388 0.0023432703 0)
(0.79525722 0.0020471715 0)
(0.79366525 0.0017419709 0)
(0.79239281 0.0014387902 0)
(0.79141276 0.0011496289 0)
(0.79068881 0.00088532773 0)
(0.79017929 0.00065405195 0)
(0.78984112 0.00046048989 0)
(0.78963328 0.00030577584 0)
(0.78951936 0.00018798151 0)
(0.78946901 0.00010295062 0)
(0.78945845 4.5240519e-05 0)
(0.78947018 8.9916661e-06 0)
(0.78949212 -1.1396468e-05 0)
(0.78951664 -2.081601e-05 0)
(0.78953939 -2.3233041e-05 0)
(0.78955833 -2.1636824e-05 0)
(0.78957292 -1.8130101e-05 0)
(0.78958342 -1.4062956e-05 0)
(0.78959053 -1.0227686e-05 0)
(0.789595 -6.9928275e-06 0)
(0.78959763 -4.4935692e-06 0)
(0.78959897 -2.6689604e-06 0)
(0.78959959 -1.4493132e-06 0)
(0.78959967 -6.4545229e-07 0)
(0.78959964 -2.1381876e-07 0)
(0.78959935 6.7581998e-08 0)
(0.78959929 1.1969319e-07 0)
(0.78959893 2.1575884e-07 0)
(0.78959902 1.1307582e-07 0)
(0.78959862 1.9175311e-07 0)
(0.78959891 2.8943534e-08 0)
(0.78959845 1.4615168e-07 0)
(0.78959889 -3.7669988e-08 0)
(0.78959837 1.1042886e-07 0)
(0.78959888 -6.4202159e-08 0)
(0.78959836 7.9600658e-08 0)
(0.78959886 -6.089551e-08 0)
(0.78959837 5.835654e-08 0)
(0.78959887 -6.2165534e-08 0)
(0.78959832 7.6549272e-08 0)
(0.78959902 -1.1657601e-07 0)
(0.78959808 1.7246787e-07 0)
(0.78959937 -2.5853368e-07 0)
(0.78959762 3.6101212e-07 0)
(0.78959994 -4.8800106e-07 0)
(0.78959695 6.3204353e-07 0)
(0.78960072 -7.974266e-07 0)
(0.78959605 9.9855168e-07 0)
(0.78960174 -1.2230808e-06 0)
(0.78959485 1.5304931e-06 0)
(0.7896031 -1.8350279e-06 0)
(0.78959328 2.3186032e-06 0)
(0.7896047 -2.6726065e-06 0)
(0.78959146 3.457165e-06 0)
(0.78960617 -3.7185434e-06 0)
(0.78958978 5.1158833e-06 0)
(0.78960645 -4.7829759e-06 0)
(0.78958928 7.5518805e-06 0)
(0.78960246 -4.9622662e-06 0)
(0.78959259 1.1150444e-05 0)
(0.78958675 -1.5282341e-06 0)
(0.78960406 1.7098447e-05 0)
(0.78954232 1.2294053e-05 0)
(0.78962844 2.8692864e-05 0)
(0.78942678 5.063102e-05 0)
(0.78966016 4.9649814e-05 0)
(0.78912312 0.00012014298 0)
(0.789656 5.4454183e-05 0)
(0.78849891 8.5696377e-05 0)
(1.0001503 0.028832835 0)
(1.0314835 0.059421507 0)
(1.0675725 0.071132288 0)
(1.0976336 0.075532077 0)
(1.1229395 0.074773587 0)
(1.1433298 0.07008065 0)
(1.1583155 0.063259703 0)
(1.1684304 0.055753068 0)
(1.1746227 0.048430987 0)
(1.1778016 0.041750377 0)
(1.1787739 0.035907197 0)
(1.1782225 0.030944371 0)
(1.1766689 0.02682548 0)
(1.174471 0.023461901 0)
(1.1718646 0.020725212 0)
(1.1690186 0.018468542 0)
(1.1660725 0.016557692 0)
(1.1631421 0.014895947 0)
(1.1603095 0.013430032 0)
(1.1576164 0.01213865 0)
(1.1550703 0.011014369 0)
(1.1526591 0.010048876 0)
(1.1503659 0.009225664 0)
(1.14818 0.0085190827 0)
(1.1461012 0.0078970163 0)
(1.1441395 0.0073249906 0)
(1.1423133 0.0067706126 0)
(1.140645 0.0062077067 0)
(1.1391565 0.0056196059 0)
(1.1378649 0.0050009511 0)
(1.1367795 0.004357597 0)
(1.1358994 0.0037045969 0)
(1.1352134 0.003062759 0)
(1.1347021 0.0024545647 0)
(1.1343401 0.0019003437 0)
(1.1340991 0.0014153965 0)
(1.133951 0.0010084506 0)
(1.1338703 0.00068145412 0)
(1.133835 0.00043045585 0)
(1.1338279 0.00024714817 0)
(1.1338364 0.00012065446 0)
(1.1338517 3.9198091e-05 0)
(1.1338684 -8.5597526e-06 0)
(1.1338835 -3.2625452e-05 0)
(1.1338957 -4.1195422e-05 0)
(1.1339047 -4.0544905e-05 0)
(1.1339108 -3.5149591e-05 0)
(1.1339147 -2.797525e-05 0)
(1.1339169 -2.0793544e-05 0)
(1.1339179 -1.4537971e-05 0)
(1.1339183 -9.5502199e-06 0)
(1.1339183 -5.8658331e-06 0)
(1.1339181 -3.2888947e-06 0)
(1.1339179 -1.6350023e-06 0)
(1.1339175 -5.9852846e-07 0)
(1.1339175 -7.5531894e-08 0)
(1.1339171 2.3818272e-07 0)
(1.1339173 2.641333e-07 0)
(1.1339169 3.4713832e-07 0)
(1.1339173 1.9234389e-07 0)
(1.1339167 2.6914459e-07 0)
(1.1339173 5.2489345e-08 0)
(1.1339166 1.9139329e-07 0)
(1.1339175 -4.7150718e-08 0)
(1.1339165 1.4270424e-07 0)
(1.1339175 -8.9382138e-08 0)
(1.1339165 1.0801971e-07 0)
(1.1339176 -9.1454395e-08 0)
(1.1339164 8.6049243e-08 0)
(1.1339176 -9.4917632e-08 0)
(1.1339163 1.083284e-07 0)
(1.1339179 -1.587267e-07 0)
(1.1339159 2.2371103e-07 0)
(1.1339184 -3.3344108e-07 0)
(1.1339152 4.6496854e-07 0)
(1.1339194 -6.3950366e-07 0)
(1.133914 8.4360743e-07 0)
(1.1339208 -1.0916229e-06 0)
(1.1339124 1.3986826e-06 0)
(1.1339227 -1.7576351e-06 0)
(1.1339101 2.2505524e-06 0)
(1.1339253 -2.779057e-06 0)
(1.1339071 3.6082653e-06 0)
(1.1339287 -4.3484905e-06 0)
(1.1339034 5.8027339e-06 0)
(1.1339326 -6.7123178e-06 0)
(1.1338994 9.4258727e-06 0)
(1.1339361 -1.0093125e-05 0)
(1.1338968 1.5522429e-05 0)
(1.1339363 -1.4202458e-05 0)
(1.1338993 2.6006745e-05 0)
(1.1339268 -1.6885793e-05 0)
(1.1339148 4.5105898e-05 0)
(1.1338933 -1.0244586e-05 0)
(1.1339555 8.3542126e-05 0)
(1.1338014 3.1711653e-05 0)
(1.134025 0.00017179771 0)
(1.1335505 0.00019325355 0)
(1.134048 0.00040752717 0)
(1.1329604 0.00071732432 0)
(0.99973842 0.012355379 0)
(1.0184396 0.03025255 0)
(1.0484409 0.039613118 0)
(1.0802145 0.044574496 0)
(1.111715 0.046230431 0)
(1.1417373 0.045188698 0)
(1.1689085 0.042448994 0)
(1.1926188 0.038864049 0)
(1.2128913 0.034994725 0)
(1.2300296 0.031195422 0)
(1.2444709 0.027678286 0)
(1.2566869 0.024557806 0)
(1.2670866 0.021880634 0)
(1.2759746 0.019635783 0)
(1.283577 0.017764371 0)
(1.2900939 0.016180869 0)
(1.2957251 0.014801581 0)
(1.3006605 0.013566905 0)
(1.3050541 0.012447919 0)
(1.3090108 0.011438535 0)
(1.3125935 0.010541473 0)
(1.3158407 0.0097560858 0)
(1.3187848 0.0090718855 0)
(1.3214589 0.0084676785 0)
(1.3238976 0.0079145402 0)
(1.3261317 0.0073807751 0)
(1.3281845 0.0068374408 0)
(1.3300692 0.0062632792 0)
(1.3317894 0.0056481147 0)
(1.3333423 0.004994038 0)
(1.3347214 0.004314243 0)
(1.3359209 0.0036298862 0)
(1.3369384 0.0029658428 0)
(1.3377772 0.0023463278 0)
(1.3384467 0.0017912954 0)
(1.338962 0.0013141344 0)
(1.3393427 0.00092085336 0)
(1.3396109 0.00061054293 0)
(1.3397892 0.0003767607 0)
(1.3398989 0.00020934701 0)
(1.3399592 9.629573e-05 0)
(1.3399859 2.5348093e-05 0)
(1.3399914 -1.4814417e-05 0)
(1.3399849 -3.3856812e-05 0)
(1.3399729 -3.9468651e-05 0)
(1.3399595 -3.7383078e-05 0)
(1.339947 -3.1576641e-05 0)
(1.3399364 -2.4607226e-05 0)
(1.3399283 -1.7940949e-05 0)
(1.3399223 -1.2303946e-05 0)
(1.3399182 -7.9133287e-06 0)
(1.3399156 -4.7374552e-06 0)
(1.339914 -2.5624649e-06 0)
(1.3399132 -1.1978598e-06 0)
(1.3399128 -3.6663588e-07 0)
(1.3399128 3.5329104e-08 0)
(1.3399126 2.6310093e-07 0)
(1.339913 2.6277517e-07 0)
(1.3399127 3.0981299e-07 0)
(1.3399133 1.7368825e-07 0)
(1.3399127 2.2431514e-07 0)
(1.3399136 4.5536065e-08 0)
(1.3399127 1.537158e-07 0)
(1.3399139 -4.2356257e-08 0)
(1.3399125 1.1579552e-07 0)
(1.3399141 -8.2699821e-08 0)
(1.3399124 9.4525953e-08 0)
(1.3399142 -9.1447045e-08 0)
(1.3399123 8.4761938e-08 0)
(1.3399144 -9.9796725e-08 0)
(1.3399121 1.07264e-07 0)
(1.3399147 -1.5253368e-07 0)
(1.3399116 2.0145072e-07 0)
(1.3399155 -2.963993e-07 0)
(1.3399106 4.0722508e-07 0)
(1.3399168 -5.6963188e-07 0)
(1.3399089 7.6296862e-07 0)
(1.3399188 -1.0179958e-06 0)
(1.3399064 1.3373626e-06 0)
(1.3399219 -1.7363978e-06 0)
(1.3399026 2.278266e-06 0)
(1.3399266 -2.9097785e-06 0)
(1.339897 3.863798e-06 0)
(1.3399335 -4.8533807e-06 0)
(1.3398887 6.5910843e-06 0)
(1.3399438 -8.0635238e-06 0)
(1.3398768 1.1333718e-05 0)
(1.3399588 -1.3192872e-05 0)
(1.3398601 1.9579664e-05 0)
(1.3399807 -2.0719674e-05 0)
(1.3398379 3.3893639e-05 0)
(1.3400129 -2.9656658e-05 0)
(1.3398105 5.9068249e-05 0)
(1.3400623 -3.2867155e-05 0)
(1.3397821 0.00010596332 0)
(1.340144 4.5401154e-07 0)
(1.3397654 0.00020953519 0)
(1.3402901 0.00019422913 0)
(1.3397631 0.00051319661 0)
(1.3404237 0.00095624218 0)
(0.9999538 0.0035944625 0)
(1.0140005 0.0095672268 0)
(1.039125 0.012868589 0)
(1.0682251 0.014559168 0)
(1.0987483 0.01514652 0)
(1.1293832 0.014873958 0)
(1.158684 0.014058934 0)
(1.1857253 0.012971397 0)
(1.2101831 0.011789128 0)
(1.2320775 0.010624951 0)
(1.2516243 0.009547584 0)
(1.2691256 0.0085948846 0)
(1.2848591 0.0077817979 0)
(1.2990281 0.0071030536 0)
(1.3117875 0.0065367104 0)
(1.3232953 0.0060521554 0)
(1.3337326 0.0056205484 0)
(1.3432834 0.0052227663 0)
(1.3521003 0.0048515038 0)
(1.3602875 0.0045080158 0)
(1.3679085 0.0041965365 0)
(1.3750069 0.0039193781 0)
(1.3816224 0.0036742422 0)
(1.3877957 0.0034538288 0)
(1.3935627 0.0032471433 0)
(1.3989465 0.0030417603 0)
(1.4039515 0.0028263813 0)
(1.4085643 0.0025930926 0)
(1.4127583 0.0023388463 0)
(1.4165034 0.0020658735 0)
(1.4197747 0.001781016 0)
(1.4225603 0.0014942231 0)
(1.4248657 0.0012166374 0)
(1.4267147 0.00095872638 0)
(1.4281472 0.00072882127 0)
(1.4292154 0.00053226616 0)
(1.429978 0.00037119924 0)
(1.4304951 0.00024486191 0)
(1.4308239 0.00015024879 0)
(1.431015 8.2908957e-05 0)
(1.4311109 3.7726413e-05 0)
(1.4311453 9.5742454e-06 0)
(1.4311434 -6.2204668e-06 0)
(1.4311227 -1.3601351e-05 0)
(1.431095 -1.5678511e-05 0)
(1.4310671 -1.4747338e-05 0)
(1.4310426 -1.2388349e-05 0)
(1.4310231 -9.6057529e-06 0)
(1.4310085 -6.9704711e-06 0)
(1.4309983 -4.7572844e-06 0)
(1.4309916 -3.0450302e-06 0)
(1.4309875 -1.8132278e-06 0)
(1.4309851 -9.7572685e-07 0)
(1.4309841 -4.5315842e-07 0)
(1.4309835 -1.3839096e-07 0)
(1.4309837 1.2636837e-08 0)
(1.4309836 9.5922356e-08 0)
(1.4309842 9.4372956e-08 0)
(1.430984 1.0989788e-07 0)
(1.4309847 5.8237445e-08 0)
(1.4309841 7.6308939e-08 0)
(1.4309852 9.2868452e-09 0)
(1.4309841 5.0407984e-08 0)
(1.4309855 -2.3664318e-08 0)
(1.430984 3.8143579e-08 0)
(1.4309858 -3.8918609e-08 0)
(1.4309838 3.2905352e-08 0)
(1.430986 -4.27808e-08 0)
(1.4309836 3.2000302e-08 0)
(1.4309862 -4.6680061e-08 0)
(1.4309833 4.2608897e-08 0)
(1.4309867 -6.7311133e-08 0)
(1.4309827 8.0107876e-08 0)
(1.4309876 -1.2425311e-07 0)
(1.4309815 1.6323779e-07 0)
(1.4309891 -2.3742913e-07 0)
(1.4309795 3.1379938e-07 0)
(1.4309917 -4.3278345e-07 0)
(1.4309762 5.6790628e-07 0)
(1.4309958 -7.5731539e-07 0)
(1.430971 9.961234e-07 0)
(1.4310025 -1.3002871e-06 0)
(1.4309627 1.7322357e-06 0)
(1.431013 -2.2206669e-06 0)
(1.4309496 3.0190587e-06 0)
(1.4310301 -3.7761755e-06 0)
(1.4309287 5.2763273e-06 0)
(1.431058 -6.3178961e-06 0)
(1.4308954 9.1994334e-06 0)
(1.4311041 -1.0161631e-05 0)
(1.4308433 1.5936637e-05 0)
(1.4311819 -1.5022873e-05 0)
(1.4307638 2.7486604e-05 0)
(1.4313177 -1.7860513e-05 0)
(1.4306517 4.8239798e-05 0)
(1.4315682 -4.5911162e-06 0)
(1.4305322 9.3429148e-05 0)
(1.4320735 8.3290096e-05 0)
(1.4305054 0.00023015524 0)
(1.4328369 0.00043908064 0)
(0.9999538 -0.0035944704 0)
(1.0140005 -0.0095672036 0)
(1.039125 -0.012868548 0)
(1.0682251 -0.014559119 0)
(1.0987483 -0.015146463 0)
(1.1293832 -0.014873891 0)
(1.158684 -0.014058857 0)
(1.1857253 -0.012971315 0)
(1.2101831 -0.01178905 0)
(1.2320775 -0.010624885 0)
(1.2516243 -0.009547535 0)
(1.2691256 -0.0085948577 0)
(1.2848591 -0.0077817921 0)
(1.2990281 -0.0071030715 0)
(1.3117875 -0.0065367499 0)
(1.3232953 -0.0060522165 0)
(1.3337326 -0.0056206279 0)
(1.3432834 -0.0052228615 0)
(1.3521003 -0.0048516119 0)
(1.3602875 -0.004508135 0)
(1.3679085 -0.0041966656 0)
(1.3750069 -0.0039195157 0)
(1.3816224 -0.0036743869 0)
(1.3877957 -0.0034539778 0)
(1.3935627 -0.0032472947 0)
(1.3989464 -0.0030419105 0)
(1.4039515 -0.0028265298 0)
(1.4085642 -0.0025932357 0)
(1.4127582 -0.002338984 0)
(1.4165033 -0.0020660014 0)
(1.4197746 -0.0017811335 0)
(1.4225603 -0.0014943255 0)
(1.4248657 -0.0012167245 0)
(1.4267146 -0.00095879519 0)
(1.4281472 -0.00072887419 0)
(1.4292153 -0.00053230368 0)
(1.4299779 -0.00037122686 0)
(1.4304951 -0.0002448825 0)
(1.4308238 -0.00015026914 0)
(1.431015 -8.293179e-05 0)
(1.4311109 -3.7757259e-05 0)
(1.4311453 -9.613376e-06 0)
(1.4311434 6.1700727e-06 0)
(1.4311227 1.3542315e-05 0)
(1.431095 1.5609942e-05 0)
(1.4310671 1.4673825e-05 0)
(1.4310426 1.2309678e-05 0)
(1.4310231 9.5269689e-06 0)
(1.4310085 6.8907911e-06 0)
(1.4309983 4.6813381e-06 0)
(1.4309916 2.9709475e-06 0)
(1.4309875 1.744882e-06 0)
(1.4309851 9.1029249e-07 0)
(1.4309841 3.9407171e-07 0)
(1.4309836 8.2276721e-08 0)
(1.4309837 -6.2588368e-08 0)
(1.4309836 -1.4331261e-07 0)
(1.4309842 -1.3596459e-07 0)
(1.430984 -1.4933709e-07 0)
(1.4309848 -9.2312773e-08 0)
(1.4309841 -1.0869076e-07 0)
(1.4309852 -3.6699052e-08 0)
(1.4309841 -7.6527119e-08 0)
(1.4309855 2.0359258e-09 0)
(1.430984 -5.8988591e-08 0)
(1.4309858 2.208288e-08 0)
(1.4309838 -4.943928e-08 0)
(1.430986 2.9694188e-08 0)
(1.4309836 -4.5360984e-08 0)
(1.4309862 3.6232378e-08 0)
(1.4309833 -5.3846257e-08 0)
(1.4309867 5.8403306e-08 0)
(1.4309827 -9.0379584e-08 0)
(1.4309876 1.1579336e-07 0)
(1.4309815 -1.7352959e-07 0)
(1.4309891 2.2844115e-07 0)
(1.4309795 -3.2506357e-07 0)
(1.4309917 4.2256718e-07 0)
(1.4309762 -5.804702e-07 0)
(1.4309958 7.4594091e-07 0)
(1.430971 -1.0095577e-06 0)
(1.4310025 1.2885935e-06 0)
(1.4309627 -1.7454979e-06 0)
(1.431013 2.209536e-06 0)
(1.4309496 -3.0316144e-06 0)
(1.4310301 3.7656509e-06 0)
(1.4309287 -5.2885713e-06 0)
(1.431058 6.3070639e-06 0)
(1.4308954 -9.2123043e-06 0)
(1.4311041 1.0150313e-05 0)
(1.4308433 -1.5948744e-05 0)
(1.4311819 1.501391e-05 0)
(1.4307638 -2.7494092e-05 0)
(1.4313176 1.7856997e-05 0)
(1.4306517 -4.8241516e-05 0)
(1.4315682 4.590801e-06 0)
(1.4305322 -9.3428684e-05 0)
(1.4320735 -8.3289893e-05 0)
(1.4305054 -0.00023015332 0)
(1.4328368 -0.00043907868 0)
(0.99973842 -0.012355384 0)
(1.0184395 -0.030252523 0)
(1.0484409 -0.039613074 0)
(1.0802145 -0.044574445 0)
(1.111715 -0.046230378 0)
(1.1417373 -0.045188641 0)
(1.1689086 -0.042448932 0)
(1.1926188 -0.038863982 0)
(1.2128913 -0.034994657 0)
(1.2300296 -0.031195361 0)
(1.2444709 -0.027678239 0)
(1.2566869 -0.024557778 0)
(1.2670866 -0.02188063 0)
(1.2759746 -0.019635802 0)
(1.283577 -0.017764412 0)
(1.2900938 -0.016180929 0)
(1.2957251 -0.014801656 0)
(1.3006604 -0.013566991 0)
(1.305054 -0.012448012 0)
(1.3090108 -0.011438637 0)
(1.3125934 -0.010541582 0)
(1.3158407 -0.0097562033 0)
(1.3187847 -0.0090720096 0)
(1.3214588 -0.008467808 0)
(1.3238975 -0.0079146713 0)
(1.3261316 -0.007380906 0)
(1.3281844 -0.0068375683 0)
(1.330069 -0.0062634028 0)
(1.3317893 -0.0056482319 0)
(1.3333421 -0.0049941485 0)
(1.3347212 -0.0043143441 0)
(1.3359207 -0.0036299771 0)
(1.3369382 -0.0029659209 0)
(1.337777 -0.0023463932 0)
(1.3384465 -0.0017913473 0)
(1.3389618 -0.0013141751 0)
(1.3393426 -0.00092088476 0)
(1.3396108 -0.0006105696 0)
(1.3397891 -0.0003767856 0)
(1.3398989 -0.000209375 0)
(1.3399591 -9.632872e-05 0)
(1.3399858 -2.5389325e-05 0)
(1.3399913 1.4765409e-05 0)
(1.3399849 3.3798928e-05 0)
(1.3399729 3.9404552e-05 0)
(1.3399595 3.7313029e-05 0)
(1.339947 3.15043e-05 0)
(1.3399364 2.4532981e-05 0)
(1.3399283 1.7868371e-05 0)
(1.3399223 1.2232739e-05 0)
(1.3399182 7.8463661e-06 0)
(1.3399156 4.6735469e-06 0)
(1.339914 2.5038723e-06 0)
(1.3399133 1.1427753e-06 0)
(1.3399128 3.1692561e-07 0)
(1.3399128 -8.1789357e-08 0)
(1.3399126 -3.0452109e-07 0)
(1.339913 -3.0134666e-07 0)
(1.3399127 -3.4377433e-07 0)
(1.3399134 -2.0525563e-07 0)
(1.3399128 -2.5167793e-07 0)
(1.3399137 -7.089906e-08 0)
(1.3399127 -1.7530926e-07 0)
(1.3399139 2.2296152e-08 0)
(1.3399126 -1.3253885e-07 0)
(1.3399141 6.7040375e-08 0)
(1.3399124 -1.0736929e-07 0)
(1.3399142 7.916434e-08 0)
(1.3399123 -9.4729291e-08 0)
(1.3399144 8.9903125e-08 0)
(1.3399121 -1.1536952e-07 0)
(1.3399147 1.4396028e-07 0)
(1.3399116 -2.0873912e-07 0)
(1.3399155 2.881731e-07 0)
(1.3399106 -4.1464315e-07 0)
(1.3399168 5.6082617e-07 0)
(1.3399089 -7.7130145e-07 0)
(1.3399188 1.0080639e-06 0)
(1.3399064 -1.3468757e-06 0)
(1.3399219 1.7253866e-06 0)
(1.3399026 -2.2884957e-06 0)
(1.3399266 2.8985103e-06 0)
(1.339897 -3.8737858e-06 0)
(1.3399335 4.8427268e-06 0)
(1.3398887 -6.6002139e-06 0)
(1.3399437 8.053741e-06 0)
(1.3398768 -1.1342378e-05 0)
(1.3399588 1.3182994e-05 0)
(1.3398601 -1.9589018e-05 0)
(1.3399807 2.0709157e-05 0)
(1.3398378 -3.3902992e-05 0)
(1.3400129 2.9647746e-05 0)
(1.3398105 -5.9074479e-05 0)
(1.3400623 3.2862814e-05 0)
(1.3397821 -0.00010596512 0)
(1.340144 -4.5523054e-07 0)
(1.3397654 -0.00020953515 0)
(1.3402901 -0.00019423004 0)
(1.339763 -0.00051319644 0)
(1.3404236 -0.00095624182 0)
(1.0001503 -0.028832839 0)
(1.0314834 -0.059421481 0)
(1.0675725 -0.071132249 0)
(1.0976335 -0.075532034 0)
(1.1229394 -0.074773545 0)
(1.1433298 -0.070080607 0)
(1.1583155 -0.063259655 0)
(1.1684304 -0.055753015 0)
(1.1746227 -0.048430934 0)
(1.1778017 -0.04175033 0)
(1.1787739 -0.035907165 0)
(1.1782225 -0.030944356 0)
(1.1766688 -0.026825486 0)
(1.174471 -0.023461923 0)
(1.1718645 -0.020725248 0)
(1.1690185 -0.01846859 0)
(1.1660724 -0.016557748 0)
(1.163142 -0.01489601 0)
(1.1603094 -0.013430101 0)
(1.1576163 -0.012138724 0)
(1.1550702 -0.011014447 0)
(1.1526589 -0.01004896 0)
(1.1503657 -0.0092257528 0)
(1.1481799 -0.0085191772 0)
(1.146101 -0.0078971117 0)
(1.1441393 -0.0073250884 0)
(1.1423131 -0.0067707069 0)
(1.1406447 -0.0062078001 0)
(1.1391562 -0.0056196935 0)
(1.1378647 -0.0050010362 0)
(1.1367793 -0.0043576753 0)
(1.1358991 -0.0037046713 0)
(1.1352131 -0.0030628252 0)
(1.1347018 -0.0024546253 0)
(1.1343398 -0.0019003952 0)
(1.1340989 -0.0014154425 0)
(1.1339508 -0.0010084891 0)
(1.1338701 -0.00068149018 0)
(1.1338348 -0.00043048869 0)
(1.1338278 -0.00024718338 0)
(1.1338363 -0.00012069082 0)
(1.1338516 -3.9240677e-05 0)
(1.1338684 8.5138536e-06 0)
(1.1338835 3.2572258e-05 0)
(1.1338957 4.1139886e-05 0)
(1.1339047 4.048364e-05 0)
(1.1339108 3.5088839e-05 0)
(1.1339147 2.7911443e-05 0)
(1.1339168 2.0733435e-05 0)
(1.1339179 1.4477119e-05 0)
(1.1339183 9.4952248e-06 0)
(1.1339183 5.8113297e-06 0)
(1.1339181 3.2413008e-06 0)
(1.1339179 1.5881835e-06 0)
(1.1339175 5.5871492e-07 0)
(1.1339175 3.6226883e-08 0)
(1.1339172 -2.7068728e-07 0)
(1.1339173 -2.9653975e-07 0)
(1.1339169 -3.7315859e-07 0)
(1.1339173 -2.1869262e-07 0)
(1.1339167 -2.8943368e-07 0)
(1.1339174 -7.3494598e-08 0)
(1.1339166 -2.0678312e-07 0)
(1.1339175 3.0628858e-08 0)
(1.1339165 -1.5397847e-07 0)
(1.1339176 7.6561188e-08 0)
(1.1339165 -1.1607977e-07 0)
(1.1339176 8.1403697e-08 0)
(1.1339164 -9.1729447e-08 0)
(1.1339176 8.6823278e-08 0)
(1.1339163 -1.1254967e-07 0)
(1.1339179 1.5165392e-07 0)
(1.1339159 -2.27298e-07 0)
(1.1339184 3.2661366e-07 0)
(1.1339152 -4.6875166e-07 0)
(1.1339194 6.3214762e-07 0)
(1.133914 -8.4811935e-07 0)
(1.1339208 1.0833779e-06 0)
(1.1339124 -1.4041356e-06 0)
(1.1339227 1.748517e-06 0)
(1.1339101 -2.2564947e-06 0)
(1.1339253 2.7697987e-06 0)
(1.1339071 -3.6138864e-06 0)
(1.1339287 4.3399806e-06 0)
(1.1339034 -5.8072471e-06 0)
(1.1339326 6.7050702e-06 0)
(1.1338994 -9.4295758e-06 0)
(1.133936 1.008612e-05 0)
(1.1338967 -1.5526715e-05 0)
(1.1339363 1.4194632e-05 0)
(1.1338993 -2.6011672e-05 0)
(1.1339268 1.6878349e-05 0)
(1.1339148 -4.5109391e-05 0)
(1.1338932 1.0240208e-05 0)
(1.1339555 -8.3543131e-05 0)
(1.1338014 -3.171197e-05 0)
(1.1340249 -0.0001717976 0)
(1.1335504 -0.00019325466 0)
(1.134048 -0.00040752809 0)
(1.1329603 -0.0007173249 0)
(1.003271 -0.05481709 0)
(1.0472128 -0.10100081 0)
(1.0661116 -0.11153534 0)
(1.0625923 -0.10907585 0)
(1.0508072 -0.099920935 0)
(1.0344968 -0.08703873 0)
(1.0148905 -0.07293013 0)
(0.99382466 -0.059372235 0)
(0.97290717 -0.047364174 0)
(0.95310867 -0.037317424 0)
(0.93492597 -0.029240829 0)
(0.91856875 -0.022964606 0)
(0.90403798 -0.018224951 0)
(0.89120278 -0.014727087 0)
(0.87986738 -0.012176306 0)
(0.86982819 -0.010301681 0)
(0.86090645 -0.0088813418 0)
(0.8529553 -0.0077584827 0)
(0.84585119 -0.0068388985 0)
(0.83948306 -0.0060735418 0)
(0.83374671 -0.0054373175 0)
(0.82854526 -0.0049132713 0)
(0.82379292 -0.0044848155 0)
(0.81941901 -0.0041337391 0)
(0.81537097 -0.0038407271 0)
(0.81161568 -0.003586343 0)
(0.80813885 -0.0033520124 0)
(0.80494227 -0.0031211672 0)
(0.80203906 -0.0028806718 0)
(0.79944735 -0.0026222321 0)
(0.79718364 -0.0023433245 0)
(0.79525697 -0.0020472229 0)
(0.793665 -0.0017420187 0)
(0.79239256 -0.0014388347 0)
(0.79141252 -0.0011496696 0)
(0.79068859 -0.00088536522 0)
(0.79017909 -0.0006540863 0)
(0.78984093 -0.00046052196 0)
(0.78963311 -0.00030580638 0)
(0.78951921 -0.00018801173 0)
(0.78946888 -0.00010298144 0)
(0.78945834 -4.5273049e-05 0)
(0.78947008 -9.0264034e-06 0)
(0.78949204 1.1359063e-05 0)
(0.78951656 2.0776233e-05 0)
(0.78953932 2.3191078e-05 0)
(0.78955828 2.1593609e-05 0)
(0.78957287 1.8086193e-05 0)
(0.78958338 1.4019534e-05 0)
(0.78959049 1.018518e-05 0)
(0.78959497 6.9522912e-06 0)
(0.78959761 4.4551379e-06 0)
(0.78959895 2.633416e-06 0)
(0.78959957 1.4163791e-06 0)
(0.78959965 6.1567002e-07 0)
(0.78959964 1.8669869e-07 0)
(0.78959935 -9.1628079e-08 0)
(0.78959929 -1.4134423e-07 0)
(0.78959893 -2.3465343e-07 0)
(0.78959903 -1.2990311e-07 0)
(0.78959863 -2.0615237e-07 0)
(0.78959892 -4.1674697e-08 0)
(0.78959845 -1.568487e-07 0)
(0.78959889 2.8291808e-08 0)
(0.78959837 -1.1810606e-07 0)
(0.78959888 5.7463085e-08 0)
(0.78959837 -8.501081e-08 0)
(0.78959886 5.6102904e-08 0)
(0.78959838 -6.2123364e-08 0)
(0.78959888 5.866081e-08 0)
(0.78959832 -7.9369838e-08 0)
(0.78959902 1.1372422e-07 0)
(0.78959808 -1.7489076e-07 0)
(0.78959937 2.5578434e-07 0)
(0.78959761 -3.6357773e-07 0)
(0.78959994 4.8495279e-07 0)
(0.78959694 -6.3499147e-07 0)
(0.78960071 7.9391857e-07 0)
(0.78959604 -1.0019979e-06 0)
(0.78960173 1.2191594e-06 0)
(0.78959484 -1.5342147e-06 0)
(0.78960309 1.8310203e-06 0)
(0.78959327 -2.3221595e-06 0)
(0.78960469 2.6690862e-06 0)
(0.78959145 -3.4600004e-06 0)
(0.78960616 3.7157122e-06 0)
(0.78958976 -5.1183092e-06 0)
(0.78960642 4.7802784e-06 0)
(0.78958925 -7.5542876e-06 0)
(0.78960243 4.9598523e-06 0)
(0.78959257 -1.11528e-05 0)
(0.78958673 1.5260276e-06 0)
(0.78960403 -1.710113e-05 0)
(0.78954229 -1.2295991e-05 0)
(0.78962841 -2.869374e-05 0)
(0.78942674 -5.0629496e-05 0)
(0.78966012 -4.9648617e-05 0)
(0.78912309 -0.0001201414 0)
(0.78965597 -5.4452963e-05 0)
(0.78849888 -8.5695854e-05 0)
(0.92241907 -0.034487151 0)
(0.87132445 -0.058494425 0)
(0.78815511 -0.056215212 0)
(0.69388326 -0.045747915 0)
(0.61395098 -0.034512634 0)
(0.5501577 -0.02445737 0)
(0.49940459 -0.01627947 0)
(0.45985723 -0.010226646 0)
(0.4297966 -0.0060965205 0)
(0.4072461 -0.0034486163 0)
(0.39032268 -0.0018256485 0)
(0.37750414 -0.00090854223 0)
(0.36764847 -0.00045739818 0)
(0.35989145 -0.0002914764 0)
(0.3536046 -0.00027560782 0)
(0.34835286 -0.00031393678 0)
(0.34384799 -0.00034989917 0)
(0.33990451 -0.00036238573 0)
(0.33640241 -0.00035401241 0)
(0.33325968 -0.00033643792 0)
(0.33041523 -0.00031961437 0)
(0.32782022 -0.00030783717 0)
(0.32543412 -0.00030088776 0)
(0.32322324 -0.00029686886 0)
(0.32116032 -0.00029426058 0)
(0.31922504 -0.0002924513 0)
(0.31740479 -0.00029127037 0)
(0.31569529 -0.00029027453 0)
(0.3141002 -0.00028840006 0)
(0.31262943 -0.0002840509 0)
(0.3112963 -0.00027555635 0)
(0.31011408 -0.00026166892 0)
(0.30909262 -0.00024196717 0)
(0.30823593 -0.00021697008 0)
(0.30754088 -0.00018803607 0)
(0.30699734 -0.00015704255 0)
(0.30658942 -0.00012603128 0)
(0.30629736 -9.6845727e-05 0)
(0.30609968 -7.0906239e-05 0)
(0.30597518 -4.9074222e-05 0)
(0.30590451 -3.1673262e-05 0)
(0.3058711 -1.8556662e-05 0)
(0.30586166 -9.2614607e-06 0)
(0.30586618 -3.1291754e-06 0)
(0.30587756 5.4625232e-07 0)
(0.30589119 2.4491324e-06 0)
(0.3059043 3.1572826e-06 0)
(0.30591553 3.1434411e-06 0)
(0.30592438 2.7410526e-06 0)
(0.3059309 2.1923107e-06 0)
(0.30593541 1.6282775e-06 0)
(0.30593834 1.1396873e-06 0)
(0.3059401 7.3946194e-07 0)
(0.30594108 4.5390927e-07 0)
(0.30594151 2.4062271e-07 0)
(0.30594168 1.2188473e-07 0)
(0.30594163 2.5652964e-08 0)
(0.30594158 5.3994726e-09 0)
(0.30594141 -4.2111045e-08 0)
(0.30594137 -1.2563292e-08 0)
(0.3059412 -5.2514568e-08 0)
(0.30594123 6.4192887e-10 0)
(0.30594107 -4.6832558e-08 0)
(0.30594116 1.4615782e-08 0)
(0.30594101 -3.7287657e-08 0)
(0.30594113 1.926316e-08 0)
(0.305941 -2.6502041e-08 0)
(0.30594111 1.7410602e-08 0)
(0.305941 -2.0495141e-08 0)
(0.30594111 2.1545284e-08 0)
(0.30594098 -3.1899166e-08 0)
(0.30594116 4.7527057e-08 0)
(0.3059409 -7.1838841e-08 0)
(0.30594128 1.0256872e-07 0)
(0.30594075 -1.4028504e-07 0)
(0.30594145 1.8232471e-07 0)
(0.30594056 -2.3188039e-07 0)
(0.30594167 2.8599264e-07 0)
(0.3059403 -3.5531504e-07 0)
(0.30594197 4.3062704e-07 0)
(0.30593993 -5.3460291e-07 0)
(0.30594236 6.3473789e-07 0)
(0.30593943 -7.8658546e-07 0)
(0.30594281 8.97036e-07 0)
(0.30593879 -1.1221448e-06 0)
(0.30594317 1.1972315e-06 0)
(0.30593797 -1.5626734e-06 0)
(0.30594303 1.4347575e-06 0)
(0.30593702 -2.0861092e-06 0)
(0.30594104 1.2231683e-06 0)
(0.30593588 -2.5768841e-06 0)
(0.3059338 -4.0026141e-07 0)
(0.30593368 -2.8569111e-06 0)
(0.30591334 -5.4199528e-06 0)
(0.30592704 -1.8907603e-06 0)
(0.30586352 -1.5846379e-05 0)
(0.30591099 1.0124645e-05 0)
(0.30578229 -1.2294058e-05 0)
(0.30591757 0.00010408528 0)
(0.30594048 0.00012745935 0)
)
;

boundaryField
{
    top
    {
        type            fixedValue;
        value           uniform (0 0 0);
    }
    inlet
    {
        type            fixedValue;
        value           uniform (1 0 0);
    }
    outlet
    {
        type            zeroGradient;
    }
    bottom
    {
        type            fixedValue;
        value           uniform (0 0 0);
    }
    back
    {
        type            empty;
    }
    front
    {
        type            empty;
    }
}


// ************************************************************************* //
