/*--------------------------------*- C++ -*----------------------------------*\
| =========                 |                                                 |
| \\      /  F ield         | OpenFOAM: The Open Source CFD Toolbox           |
|  \\    /   O peration     | Version:  v1812                                 |
|   \\  /    A nd           | Web:      www.OpenFOAM.com                      |
|    \\/     M anipulation  |                                                 |
\*---------------------------------------------------------------------------*/
FoamFile
{
    version     2.0;
    format      ascii;
    class       volVectorField;
    location    "60";
    object      U;
}
// * * * * * * * * * * * * * * * * * * * * * * * * * * * * * * * * * * * * * //

dimensions      [0 1 -1 0 0 0 0];


internalField   nonuniform List<vector> 
1000
(
(0.92241905 0.034487144 0)
(0.87132476 0.058494348 0)
(0.78815631 0.056214894 0)
(0.69388544 0.045746911 0)
(0.6139531 0.034510999 0)
(0.55015777 0.024456465 0)
(0.49940005 0.016280423 0)
(0.45984628 0.010229108 0)
(0.42978099 0.0061024357 0)
(0.40723117 0.003465721 0)
(0.39031292 0.0018606765 0)
(0.37749813 0.00095368714 0)
(0.3676401 0.00048706095 0)
(0.35987764 0.00027784465 0)
(0.35359103 0.00021053294 0)
(0.34835118 0.0002172105 0)
(0.34386667 0.00025738156 0)
(0.33994145 0.00030489502 0)
(0.33644495 0.00034285848 0)
(0.333291 0.00036296533 0)
(0.33042245 0.00036488751 0)
(0.32779993 0.00035370066 0)
(0.32539427 0.00033611696 0)
(0.32318215 0.00031739919 0)
(0.32114401 0.00030010587 0)
(0.31926298 0.00028453145 0)
(0.31752409 0.00026992814 0)
(0.31591355 0.00025560719 0)
(0.31441816 0.00024147656 0)
(0.31302522 0.00022801779 0)
(0.31172303 0.0002159501 0)
(0.31050173 0.00020584106 0)
(0.30935426 0.00019783684 0)
(0.30827704 0.00019157405 0)
(0.30727008 0.00018625754 0)
(0.30633655 0.00018085036 0)
(0.3054817 0.00017430734 0)
(0.30471141 0.00016579252 0)
(0.30403082 0.0001548339 0)
(0.30344297 0.00014139076 0)
(0.30294801 0.00012583258 0)
(0.30254284 0.0001088435 0)
(0.30222128 9.1286986e-05 0)
(0.30197466 7.4056185e-05 0)
(0.30179267 5.7949964e-05 0)
(0.30166421 4.3578208e-05 0)
(0.30157832 3.1325359e-05 0)
(0.30152483 2.1338938e-05 0)
(0.30149483 1.3574494e-05 0)
(0.30148094 7.8266438e-06 0)
(0.30147734 3.8107351e-06 0)
(0.30147972 1.1826386e-06 0)
(0.30148502 -3.7686227e-07 0)
(0.30149129 -1.1841399e-06 0)
(0.30149731 -1.4733974e-06 0)
(0.30150251 -1.4631601e-06 0)
(0.30150662 -1.2755885e-06 0)
(0.30150971 -1.0335187e-06 0)
(0.30151186 -7.733626e-07 0)
(0.3015133 -5.5396307e-07 0)
(0.30151417 -3.6427325e-07 0)
(0.30151468 -2.3265842e-07 0)
(0.3015149 -1.2646838e-07 0)
(0.30151501 -7.131229e-08 0)
(0.30151498 -1.7384329e-08 0)
(0.30151498 -1.3066161e-08 0)
(0.30151486 2.3337313e-08 0)
(0.30151488 -6.5239224e-09 0)
(0.30151474 3.8145329e-08 0)
(0.30151483 -2.1253796e-08 0)
(0.30151464 4.9486973e-08 0)
(0.30151482 -4.4931862e-08 0)
(0.30151456 6.7863689e-08 0)
(0.30151486 -7.6284202e-08 0)
(0.30151447 9.921856e-08 0)
(0.30151494 -1.1965246e-07 0)
(0.30151436 1.4894511e-07 0)
(0.30151507 -1.8192902e-07 0)
(0.30151421 2.242438e-07 0)
(0.30151525 -2.718921e-07 0)
(0.30151398 3.3476167e-07 0)
(0.30151549 -3.9799765e-07 0)
(0.30151368 4.9106139e-07 0)
(0.30151577 -5.6299909e-07 0)
(0.30151328 7.0184572e-07 0)
(0.30151601 -7.5081493e-07 0)
(0.3015128 9.6938191e-07 0)
(0.30151591 -8.8945859e-07 0)
(0.30151225 1.2774462e-06 0)
(0.30151471 -7.566446e-07 0)
(0.3015116 1.5730231e-06 0)
(0.30151038 2.1985048e-07 0)
(0.30151032 1.7276982e-06 0)
(0.30149803 3.2788429e-06 0)
(0.30150646 1.0802754e-06 0)
(0.30146796 9.6071291e-06 0)
(0.30149703 -6.2917411e-06 0)
(0.30141921 7.3245979e-06 0)
(0.30150225 -6.3347936e-05 0)
(0.3015182 -7.7338044e-05 0)
(1.003271 0.054817114 0)
(1.0472129 0.10100039 0)
(1.0661119 0.11153427 0)
(1.0625934 0.1090737 0)
(1.0508095 0.099917403 0)
(1.0345001 0.087034516 0)
(1.0148931 0.0729261 0)
(0.9938244 0.05936814 0)
(0.97290606 0.047363167 0)
(0.95311283 0.037333288 0)
(0.93493707 0.029293068 0)
(0.91857537 0.023056595 0)
(0.90402217 0.018326437 0)
(0.89115794 0.014784751 0)
(0.87980911 0.012148454 0)
(0.86978593 0.010188118 0)
(0.86090309 0.0087243402 0)
(0.85299186 0.0076167628 0)
(0.84590748 0.0067560716 0)
(0.8395315 0.0060610145 0)
(0.83376905 0.0054767448 0)
(0.82854334 0.0049707202 0)
(0.82379022 0.0045258351 0)
(0.81945447 0.0041331411 0)
(0.81548784 0.0037866239 0)
(0.81184796 0.0034808369 0)
(0.80849747 0.0032105907 0)
(0.80540329 0.002971327 0)
(0.80253637 0.0027592199 0)
(0.79987194 0.0025707492 0)
(0.79739042 0.002402036 0)
(0.79507839 0.0022483499 0)
(0.79292904 0.0021040897 0)
(0.79094188 0.0019632646 0)
(0.78912144 0.001820327 0)
(0.78747512 0.0016710736 0)
(0.78601057 0.0015133601 0)
(0.78473325 0.0013474311 0)
(0.7836443 0.0011758083 0)
(0.7827394 0.0010027737 0)
(0.78200845 0.00083359923 0)
(0.78143623 0.0006736826 0)
(0.78100362 0.00052778045 0)
(0.78068927 0.00039943489 0)
(0.78047121 0.00029069094 0)
(0.78032841 0.00020205127 0)
(0.78024184 0.0001326847 0)
(0.78019528 8.071907e-05 0)
(0.7801755 4.3661404e-05 0)
(0.78017239 1.8708762e-05 0)
(0.78017851 3.1259368e-06 0)
(0.78018887 -5.6281285e-06 0)
(0.78020015 -9.6490619e-06 0)
(0.78021066 -1.0682154e-05 0)
(0.78021938 -9.9488732e-06 0)
(0.78022622 -8.4055718e-06 0)
(0.78023112 -6.5667295e-06 0)
(0.78023458 -4.849403e-06 0)
(0.7802367 -3.3481181e-06 0)
(0.78023806 -2.2017069e-06 0)
(0.78023869 -1.321458e-06 0)
(0.78023907 -7.4648873e-07 0)
(0.78023907 -3.3544097e-07 0)
(0.78023912 -1.2966759e-07 0)
(0.78023891 3.4443046e-08 0)
(0.78023896 4.4684484e-08 0)
(0.78023867 1.2926937e-07 0)
(0.78023885 3.524111e-08 0)
(0.78023845 1.409073e-07 0)
(0.78023884 -3.1982589e-08 0)
(0.78023826 1.5278705e-07 0)
(0.78023894 -1.140208e-07 0)
(0.78023806 1.9460565e-07 0)
(0.78023913 -2.0956627e-07 0)
(0.7802378 2.7927201e-07 0)
(0.78023943 -3.3528632e-07 0)
(0.78023743 4.2033875e-07 0)
(0.78023987 -5.1534359e-07 0)
(0.7802369 6.3960835e-07 0)
(0.78024049 -7.797401e-07 0)
(0.78023616 9.7110928e-07 0)
(0.78024132 -1.1622337e-06 0)
(0.7802352 1.4618821e-06 0)
(0.78024232 -1.6894962e-06 0)
(0.78023407 2.1731941e-06 0)
(0.78024325 -2.3495977e-06 0)
(0.78023304 3.1887415e-06 0)
(0.78024341 -2.9975503e-06 0)
(0.7802328 4.6344174e-06 0)
(0.78024098 -3.0850441e-06 0)
(0.78023484 6.7601293e-06 0)
(0.78023156 -9.8490046e-07 0)
(0.7802418 1.0253927e-05 0)
(0.78020468 7.5084149e-06 0)
(0.78025672 1.6953749e-05 0)
(0.78013459 3.104511e-05 0)
(0.78027599 2.8912274e-05 0)
(0.77995061 7.2957596e-05 0)
(0.78027426 2.9103847e-05 0)
(0.77957335 4.6749749e-05 0)
(1.0001503 0.028832898 0)
(1.0314833 0.059420903 0)
(1.0675718 0.071131017 0)
(1.0976324 0.075530504 0)
(1.122939 0.074771683 0)
(1.1433307 0.070076834 0)
(1.1583166 0.063250514 0)
(1.1684325 0.055736818 0)
(1.1746358 0.048416789 0)
(1.177838 0.041763077 0)
(1.1788266 0.035973956 0)
(1.1782558 0.031066944 0)
(1.1766409 0.026963673 0)
(1.1743729 0.02354994 0)
(1.1717355 0.020712538 0)
(1.1689214 0.018353069 0)
(1.1660518 0.016386499 0)
(1.1631981 0.014735854 0)
(1.1604053 0.013331125 0)
(1.1577062 0.012113119 0)
(1.1551267 0.011037777 0)
(1.1526846 0.010076773 0)
(1.1503876 0.0092139103 0)
(1.1482341 0.0084397623 0)
(1.1462163 0.0077473345 0)
(1.144324 0.0071298518 0)
(1.1425466 0.0065801911 0)
(1.140875 0.0060908573 0)
(1.1393019 0.0056537844 0)
(1.1378226 0.0052598965 0)
(1.1364353 0.0048988116 0)
(1.1351413 0.0045590733 0)
(1.1339451 0.004229059 0)
(1.1328533 0.0038983777 0)
(1.1318731 0.003559377 0)
(1.1310109 0.0032083164 0)
(1.1302704 0.002845894 0)
(1.1296514 0.0024769849 0)
(1.1291495 0.0021096807 0)
(1.1287562 0.0017538523 0)
(1.1284594 0.0014195687 0)
(1.1282452 0.0011156561 0)
(1.1280983 0.00084865159 0)
(1.1280041 0.00062223257 0)
(1.1279491 0.00043716613 0)
(1.1279215 0.00029162849 0)
(1.1279119 0.00018183665 0)
(1.1279131 0.00010272897 0)
(1.1279199 4.8717758e-05 0)
(1.1279288 1.4213596e-05 0)
(1.1279376 -5.8488627e-06 0)
(1.1279454 -1.5862993e-05 0)
(1.1279515 -1.9285007e-05 0)
(1.1279561 -1.8826655e-05 0)
(1.1279591 -1.631014e-05 0)
(1.1279611 -1.306885e-05 0)
(1.1279621 -9.7747429e-06 0)
(1.1279628 -6.9284768e-06 0)
(1.1279629 -4.5891651e-06 0)
(1.127963 -2.8797211e-06 0)
(1.1279627 -1.6248245e-06 0)
(1.1279628 -8.4050405e-07 0)
(1.1279625 -3.0410211e-07 0)
(1.1279625 -5.709938e-08 0)
(1.1279622 1.3250239e-07 0)
(1.1279625 1.2137154e-07 0)
(1.127962 2.1038104e-07 0)
(1.1279625 7.3934823e-08 0)
(1.1279619 1.9877168e-07 0)
(1.1279626 -3.266532e-08 0)
(1.1279616 2.0413284e-07 0)
(1.1279629 -1.5006034e-07 0)
(1.1279613 2.5957706e-07 0)
(1.1279633 -2.8396225e-07 0)
(1.1279608 3.7944833e-07 0)
(1.1279639 -4.6308327e-07 0)
(1.1279602 5.8530305e-07 0)
(1.1279647 -7.297294e-07 0)
(1.1279592 9.1867424e-07 0)
(1.1279659 -1.1432023e-06 0)
(1.1279578 1.4522955e-06 0)
(1.1279675 -1.7875616e-06 0)
(1.1279559 2.3054911e-06 0)
(1.1279696 -2.7779636e-06 0)
(1.1279535 3.6746345e-06 0)
(1.1279721 -4.2554632e-06 0)
(1.1279511 5.895416e-06 0)
(1.1279742 -6.324887e-06 0)
(1.1279495 9.5665179e-06 0)
(1.1279742 -8.7988565e-06 0)
(1.1279513 1.5844725e-05 0)
(1.1279681 -1.0378053e-05 0)
(1.1279612 2.7278731e-05 0)
(1.1279467 -6.1721102e-06 0)
(1.1279872 5.0347821e-05 0)
(1.1278884 1.9806991e-05 0)
(1.1280314 0.00010386984 0)
(1.1277297 0.0001187776 0)
(1.1280463 0.00024746885 0)
(1.1273568 0.00043677034 0)
(0.99973847 0.01235544 0)
(1.0184395 0.030251978 0)
(1.0484404 0.039612091 0)
(1.0802133 0.044574234 0)
(1.1117125 0.046231493 0)
(1.1417317 0.045187529 0)
(1.1688994 0.042438248 0)
(1.1926162 0.038840892 0)
(1.2129201 0.034971752 0)
(1.230109 0.031200842 0)
(1.2445792 0.027737985 0)
(1.2567561 0.024670311 0)
(1.2670474 0.022007358 0)
(1.2758163 0.019719078 0)
(1.2833655 0.017762221 0)
(1.2899287 0.016092516 0)
(1.295675 0.01466632 0)
(1.3007279 0.013439367 0)
(1.3051875 0.012368233 0)
(1.3091445 0.011414878 0)
(1.3126826 0.010550998 0)
(1.3158722 0.0097592279 0)
(1.3187667 0.0090309351 0)
(1.3214033 0.0083624547 0)
(1.3238079 0.0077518123 0)
(1.3260015 0.0071968018 0)
(1.328004 0.0066941549 0)
(1.3298358 0.0062391406 0)
(1.3315169 0.0058252205 0)
(1.3330661 0.0054438313 0)
(1.3344996 0.0050845924 0)
(1.3358299 0.0047361503 0)
(1.3370654 0.0043876018 0)
(1.3382108 0.0040301715 0)
(1.3392671 0.003658703 0)
(1.3402328 0.0032725528 0)
(1.3411047 0.0028756727 0)
(1.3418796 0.0024758646 0)
(1.3425553 0.0020834243 0)
(1.3431317 0.0017094729 0)
(1.3436112 0.0013643415 0)
(1.3439994 0.0010562649 0)
(1.3443041 0.00079058459 0)
(1.3445354 0.0005694683 0)
(1.3447042 0.00039212889 0)
(1.344822 0.0002553527 0)
(1.3448997 0.00015425583 0)
(1.3449473 8.3017806e-05 0)
(1.3449733 3.5614912e-05 0)
(1.3449848 6.3006849e-06 0)
(1.3449871 -9.9539592e-06 0)
(1.3449842 -1.7368602e-05 0)
(1.3449788 -1.9176621e-05 0)
(1.3449728 -1.7836852e-05 0)
(1.344967 -1.4957982e-05 0)
(1.3449623 -1.1674373e-05 0)
(1.3449584 -8.5274718e-06 0)
(1.3449557 -5.9036308e-06 0)
(1.3449536 -3.8089713e-06 0)
(1.3449525 -2.3180599e-06 0)
(1.3449515 -1.2475064e-06 0)
(1.3449513 -6.0136546e-07 0)
(1.3449508 -1.670134e-07 0)
(1.3449511 1.5411557e-08 0)
(1.3449507 1.5804047e-07 0)
(1.3449512 1.3051703e-07 0)
(1.3449507 1.9523838e-07 0)
(1.3449515 7.1367507e-08 0)
(1.3449506 1.723085e-07 0)
(1.3449518 -2.7839544e-08 0)
(1.3449503 1.7493309e-07 0)
(1.3449522 -1.3433336e-07 0)
(1.3449499 2.2871139e-07 0)
(1.3449528 -2.5960543e-07 0)
(1.3449492 3.4728351e-07 0)
(1.3449537 -4.3542176e-07 0)
(1.3449481 5.5689108e-07 0)
(1.344955 -7.1149112e-07 0)
(1.3449465 9.1198095e-07 0)
(1.344957 -1.1656323e-06 0)
(1.3449441 1.5127878e-06 0)
(1.34496 -1.9222968e-06 0)
(1.3449404 2.5340768e-06 0)
(1.3449644 -3.179367e-06 0)
(1.3449352 4.2791191e-06 0)
(1.3449709 -5.2384245e-06 0)
(1.3449277 7.275053e-06 0)
(1.3449803 -8.4978703e-06 0)
(1.3449173 1.2432407e-05 0)
(1.3449937 -1.3272467e-05 0)
(1.3449037 2.1339534e-05 0)
(1.3450132 -1.8995079e-05 0)
(1.3448872 3.6947921e-05 0)
(1.3450425 -2.1260659e-05 0)
(1.3448709 6.5924527e-05 0)
(1.3450903 -8.3353684e-07 0)
(1.3448624 0.00013006434 0)
(1.3451746 0.00012016256 0)
(1.3448609 0.00031999881 0)
(1.3452438 0.00060021471 0)
(0.99995389 0.0035944913 0)
(1.0140006 0.0095669827 0)
(1.0391254 0.012868173 0)
(1.0682252 0.014559305 0)
(1.098745 0.015147615 0)
(1.1293709 0.014874044 0)
(1.1586632 0.014053979 0)
(1.1857162 0.012959946 0)
(1.210224 0.011777409 0)
(1.2321911 0.010625892 0)
(1.2517753 0.0095720907 0)
(1.2692216 0.0086415802 0)
(1.2848122 0.0078341992 0)
(1.2988286 0.0071377641 0)
(1.3115202 0.006537254 0)
(1.3230838 0.0060185612 0)
(1.333661 0.0055684271 0)
(1.3433552 0.0051735249 0)
(1.3522548 0.0048207437 0)
(1.360447 0.0044987294 0)
(1.3680164 0.0041994247 0)
(1.3750372 0.0039185022 0)
(1.3815661 0.0036545786 0)
(1.3876435 0.0034078649 0)
(1.3932998 0.0031789777 0)
(1.398562 0.0029682091 0)
(1.4034586 0.0027751711 0)
(1.40802 0.0025985925 0)
(1.4122765 0.0024361724 0)
(1.4162547 0.0022845424 0)
(1.4199747 0.0021394554 0)
(1.4234481 0.0019962588 0)
(1.4266777 0.0018505931 0)
(1.4296589 0.0016991524 0)
(1.4323816 0.0015403075 0)
(1.4348341 0.0013744274 0)
(1.4370063 0.0012038257 0)
(1.4388929 0.0010323566 0)
(1.4404955 0.00086476998 0)
(1.4418239 0.00070597459 0)
(1.4428957 0.00056035785 0)
(1.4437354 0.00043127208 0)
(1.4443721 0.00032074919 0)
(1.4448376 0.00022944171 0)
(1.4451637 0.00015676156 0)
(1.4453807 0.00010114024 0)
(1.4455157 6.0362599e-05 0)
(1.445592 3.1883425e-05 0)
(1.4456283 1.3125837e-05 0)
(1.4456391 1.6757416e-06 0)
(1.4456351 -4.5525804e-06 0)
(1.4456239 -7.2850741e-06 0)
(1.44561 -7.8315324e-06 0)
(1.4455967 -7.1742303e-06 0)
(1.4455849 -5.9498468e-06 0)
(1.4455758 -4.5994379e-06 0)
(1.4455687 -3.329391e-06 0)
(1.445564 -2.2834512e-06 0)
(1.4455605 -1.4573179e-06 0)
(1.4455588 -8.7546049e-07 0)
(1.4455574 -4.6113868e-07 0)
(1.4455572 -2.1508267e-07 0)
(1.4455566 -5.0502712e-08 0)
(1.445557 1.5162003e-08 0)
(1.4455566 6.765346e-08 0)
(1.4455573 5.3573106e-08 0)
(1.4455567 7.7457361e-08 0)
(1.4455577 2.7384862e-08 0)
(1.4455566 6.6837658e-08 0)
(1.4455581 -1.3028782e-08 0)
(1.4455564 6.8439493e-08 0)
(1.4455586 -5.6748328e-08 0)
(1.4455559 9.2174035e-08 0)
(1.4455594 -1.0994739e-07 0)
(1.445555 1.4440597e-07 0)
(1.4455605 -1.872025e-07 0)
(1.4455536 2.3810805e-07 0)
(1.4455623 -3.1206722e-07 0)
(1.4455514 4.0047267e-07 0)
(1.445565 -5.2292618e-07 0)
(1.4455479 6.8178291e-07 0)
(1.4455694 -8.8328611e-07 0)
(1.4455425 1.1702877e-06 0)
(1.4455764 -1.4970036e-06 0)
(1.4455339 2.0188211e-06 0)
(1.4455875 -2.5266886e-06 0)
(1.4455203 3.48942e-06 0)
(1.4456055 -4.1969774e-06 0)
(1.4454988 6.0204378e-06 0)
(1.445635 -6.7214877e-06 0)
(1.4454652 1.033374e-05 0)
(1.4456845 -9.9463739e-06 0)
(1.4454141 1.7665775e-05 0)
(1.4457702 -1.1977381e-05 0)
(1.4453423 3.0699929e-05 0)
(1.4459276 -3.8980025e-06 0)
(1.4452652 5.895271e-05 0)
(1.4462447 5.1755113e-05 0)
(1.4452469 0.00014575207 0)
(1.4467252 0.00028094226 0)
(0.99995389 -0.0035944878 0)
(1.0140007 -0.0095669549 0)
(1.0391254 -0.012868133 0)
(1.0682252 -0.014559267 0)
(1.098745 -0.015147593 0)
(1.1293709 -0.014874046 0)
(1.1586632 -0.014054 0)
(1.1857162 -0.012959975 0)
(1.210224 -0.011777429 0)
(1.2321911 -0.010625893 0)
(1.2517753 -0.0095720721 0)
(1.2692216 -0.0086415473 0)
(1.2848122 -0.0078341617 0)
(1.2988286 -0.0071377295 0)
(1.3115202 -0.0065372267 0)
(1.3230838 -0.0060185452 0)
(1.333661 -0.0055684234 0)
(1.3433552 -0.0051735366 0)
(1.3522548 -0.0048207703 0)
(1.360447 -0.0044987693 0)
(1.3680164 -0.004199474 0)
(1.3750371 -0.0039185564 0)
(1.381566 -0.0036546348 0)
(1.3876435 -0.0034079219 0)
(1.3932997 -0.003179036 0)
(1.3985619 -0.0029682705 0)
(1.4034585 -0.0027752363 0)
(1.40802 -0.0025986618 0)
(1.4122764 -0.002436245 0)
(1.4162546 -0.0022846171 0)
(1.4199746 -0.0021395309 0)
(1.423448 -0.0019963335 0)
(1.4266777 -0.0018506662 0)
(1.4296588 -0.0016992222 0)
(1.4323815 -0.0015403733 0)
(1.434834 -0.0013744869 0)
(1.4370062 -0.001203878 0)
(1.4388928 -0.0010323993 0)
(1.4404954 -0.000864803 0)
(1.4418238 -0.0007059967 0)
(1.4428956 -0.00056037074 0)
(1.4437353 -0.00043127614 0)
(1.4443721 -0.00032074797 0)
(1.4448375 -0.00022943657 0)
(1.4451636 -0.00015675677 0)
(1.4453806 -0.00010113675 0)
(1.4455157 -6.0363999e-05 0)
(1.445592 -3.1889203e-05 0)
(1.4456282 -1.3138202e-05 0)
(1.4456391 -1.6924345e-06 0)
(1.4456351 4.5305368e-06 0)
(1.4456239 7.2609942e-06 0)
(1.44561 7.8048078e-06 0)
(1.4455967 7.1484226e-06 0)
(1.4455849 5.9239963e-06 0)
(1.4455758 4.5766542e-06 0)
(1.4455687 3.3080037e-06 0)
(1.445564 2.2660304e-06 0)
(1.4455605 1.4415402e-06 0)
(1.4455588 8.63443e-07 0)
(1.4455574 4.501894e-07 0)
(1.4455572 2.0722061e-07 0)
(1.4455566 4.2942909e-08 0)
(1.445557 -2.0392093e-08 0)
(1.4455566 -7.3272857e-08 0)
(1.4455573 -5.7387899e-08 0)
(1.4455567 -8.207917e-08 0)
(1.4455577 -3.0561652e-08 0)
(1.4455567 -7.1100766e-08 0)
(1.4455581 1.0027087e-08 0)
(1.4455564 -7.2665793e-08 0)
(1.4455586 5.3607449e-08 0)
(1.4455559 -9.6693527e-08 0)
(1.4455594 1.0639918e-07 0)
(1.445555 -1.4941331e-07 0)
(1.4455605 1.8305346e-07 0)
(1.4455536 -2.4377919e-07 0)
(1.4455623 3.0729989e-07 0)
(1.4455514 -4.0664613e-07 0)
(1.445565 5.1783575e-07 0)
(1.4455479 -6.8808618e-07 0)
(1.4455694 8.783261e-07 0)
(1.4455425 -1.1763369e-06 0)
(1.4455764 1.4922172e-06 0)
(1.4455339 -2.0249415e-06 0)
(1.4455875 2.5214259e-06 0)
(1.4455203 -3.4963659e-06 0)
(1.4456055 4.1904946e-06 0)
(1.4454988 -6.0287047e-06 0)
(1.445635 6.7139703e-06 0)
(1.4454652 -1.034235e-05 0)
(1.4456845 9.939381e-06 0)
(1.4454141 -1.7672869e-05 0)
(1.4457702 1.1972147e-05 0)
(1.4453423 -3.0705209e-05 0)
(1.4459276 3.8931554e-06 0)
(1.4452652 -5.8957748e-05 0)
(1.4462447 -5.1760369e-05 0)
(1.4452469 -0.00014575682 0)
(1.4467251 -0.00028094678 0)
(0.99973847 -0.012355437 0)
(1.0184395 -0.030251953 0)
(1.0484405 -0.039612055 0)
(1.0802133 -0.0445742 0)
(1.1117125 -0.046231475 0)
(1.1417317 -0.045187531 0)
(1.1688994 -0.042438267 0)
(1.1926162 -0.038840917 0)
(1.2129201 -0.03497177 0)
(1.230109 -0.031200844 0)
(1.2445792 -0.027737971 0)
(1.2567561 -0.024670283 0)
(1.2670474 -0.022007324 0)
(1.2758163 -0.019719045 0)
(1.2833655 -0.017762195 0)
(1.2899286 -0.016092501 0)
(1.295675 -0.014666319 0)
(1.3007279 -0.013439381 0)
(1.3051874 -0.012368261 0)
(1.3091445 -0.011414917 0)
(1.3126826 -0.010551043 0)
(1.3158722 -0.0097592754 0)
(1.3187667 -0.0090309817 0)
(1.3214032 -0.0083625005 0)
(1.3238078 -0.0077518587 0)
(1.3260014 -0.0071968513 0)
(1.328004 -0.0066942088 0)
(1.3298357 -0.0062391995 0)
(1.3315167 -0.0058252834 0)
(1.333066 -0.0054438967 0)
(1.3344995 -0.0050846583 0)
(1.3358297 -0.0047362154 0)
(1.3370652 -0.0043876646 0)
(1.3382106 -0.0040302313 0)
(1.3392669 -0.0036587585 0)
(1.3402326 -0.0032726037 0)
(1.3411045 -0.0028757173 0)
(1.3418794 -0.0024759027 0)
(1.3425551 -0.0020834544 0)
(1.3431315 -0.0017094956 0)
(1.3436111 -0.0013643563 0)
(1.3439992 -0.0010562737 0)
(1.344304 -0.00079058817 0)
(1.3445352 -0.00056946951 0)
(1.3447041 -0.00039212898 0)
(1.3448219 -0.00025535461 0)
(1.3448996 -0.00015426019 0)
(1.3449472 -8.3026745e-05 0)
(1.3449733 -3.5627769e-05 0)
(1.3449848 -6.3184193e-06 0)
(1.344987 9.9331889e-06 0)
(1.3449842 1.7344611e-05 0)
(1.3449787 1.9151873e-05 0)
(1.3449728 1.7811281e-05 0)
(1.344967 1.4933952e-05 0)
(1.3449623 1.165139e-05 0)
(1.3449583 8.5074679e-06 0)
(1.3449557 5.8855305e-06 0)
(1.3449536 3.7941983e-06 0)
(1.3449525 2.305072e-06 0)
(1.3449515 1.2374668e-06 0)
(1.3449513 5.925296e-07 0)
(1.3449508 1.6044908e-07 0)
(1.3449511 -2.1472758e-08 0)
(1.3449507 -1.624385e-07 0)
(1.3449512 -1.3493163e-07 0)
(1.3449507 -1.9843776e-07 0)
(1.3449515 -7.4956856e-08 0)
(1.3449506 -1.7495429e-07 0)
(1.3449518 2.4597173e-08 0)
(1.3449503 -1.7743039e-07 0)
(1.3449522 1.3105508e-07 0)
(1.3449499 -2.3138984e-07 0)
(1.3449528 2.5602577e-07 0)
(1.3449492 -3.5039475e-07 0)
(1.3449537 4.3129472e-07 0)
(1.3449481 -5.6058939e-07 0)
(1.344955 7.0680286e-07 0)
(1.3449465 -9.1614425e-07 0)
(1.344957 1.1606315e-06 0)
(1.3449441 -1.5170096e-06 0)
(1.34496 1.9174717e-06 0)
(1.3449404 -2.5380057e-06 0)
(1.3449644 3.1747746e-06 0)
(1.3449352 -4.2830676e-06 0)
(1.3449709 5.2334341e-06 0)
(1.3449277 -7.2799323e-06 0)
(1.3449802 8.4915337e-06 0)
(1.3449173 -1.2438789e-05 0)
(1.3449937 1.3265055e-05 0)
(1.3449036 -2.1346197e-05 0)
(1.3450132 1.8988588e-05 0)
(1.3448872 -3.6952917e-05 0)
(1.3450425 2.1256281e-05 0)
(1.3448709 -6.5928177e-05 0)
(1.3450902 8.2940478e-07 0)
(1.3448623 -0.00013006863 0)
(1.3451746 -0.00012016783 0)
(1.3448609 -0.00032000408 0)
(1.3452438 -0.00060021966 0)
(1.0001503 -0.028832895 0)
(1.0314833 -0.059420881 0)
(1.0675718 -0.071130985 0)
(1.0976324 -0.075530476 0)
(1.122939 -0.074771671 0)
(1.1433307 -0.070076839 0)
(1.1583166 -0.063250533 0)
(1.1684325 -0.055736839 0)
(1.1746358 -0.048416802 0)
(1.177838 -0.041763076 0)
(1.1788266 -0.035973939 0)
(1.1782558 -0.031066917 0)
(1.1766409 -0.026963644 0)
(1.1743729 -0.023549916 0)
(1.1717354 -0.020712524 0)
(1.1689214 -0.018353064 0)
(1.1660517 -0.016386505 0)
(1.1631981 -0.014735868 0)
(1.1604052 -0.013331146 0)
(1.1577061 -0.012113146 0)
(1.1551267 -0.011037808 0)
(1.1526846 -0.010076807 0)
(1.1503875 -0.0092139426 0)
(1.148234 -0.0084397935 0)
(1.1462162 -0.0077473651 0)
(1.1443239 -0.0071298835 0)
(1.1425465 -0.0065802257 0)
(1.1408748 -0.006090896 0)
(1.1393017 -0.0056538269 0)
(1.1378224 -0.0052599425 0)
(1.1364351 -0.0048988588 0)
(1.1351411 -0.0045591212 0)
(1.1339449 -0.0042291049 0)
(1.132853 -0.0038984222 0)
(1.1318729 -0.0035594179 0)
(1.1310107 -0.0032083552 0)
(1.1302701 -0.0028459286 0)
(1.1296512 -0.0024770171 0)
(1.1291493 -0.0021097081 0)
(1.1287559 -0.0017538769 0)
(1.1284592 -0.0014195881 0)
(1.128245 -0.0011156731 0)
(1.1280981 -0.00084866406 0)
(1.128004 -0.00062224432 0)
(1.1279489 -0.00043717507 0)
(1.1279213 -0.00029163915 0)
(1.1279118 -0.00018184658 0)
(1.127913 -0.0001027427 0)
(1.1279198 -4.8731883e-05 0)
(1.1279287 -1.4232254e-05 0)
(1.1279376 5.8300631e-06 0)
(1.1279453 1.584034e-05 0)
(1.1279514 1.926365e-05 0)
(1.127956 1.8802889e-05 0)
(1.127959 1.628932e-05 0)
(1.127961 1.3046962e-05 0)
(1.1279621 9.7570594e-06 0)
(1.1279627 6.9104354e-06 0)
(1.1279628 4.5757647e-06 0)
(1.1279629 2.8659785e-06 0)
(1.1279627 1.6156117e-06 0)
(1.1279627 8.3053642e-07 0)
(1.1279624 2.9817483e-07 0)
(1.1279625 4.9874935e-08 0)
(1.1279622 -1.3613429e-07 0)
(1.1279624 -1.2676183e-07 0)
(1.127962 -2.1260118e-07 0)
(1.1279625 -7.8244963e-08 0)
(1.1279619 -2.0014507e-07 0)
(1.1279626 2.8985621e-08 0)
(1.1279616 -2.0511189e-07 0)
(1.1279629 1.4661102e-07 0)
(1.1279613 -2.6045393e-07 0)
(1.1279633 2.8048254e-07 0)
(1.1279608 -3.8053495e-07 0)
(1.1279639 4.5928454e-07 0)
(1.1279602 -5.8674173e-07 0)
(1.1279647 7.2555655e-07 0)
(1.1279592 -9.2044304e-07 0)
(1.1279659 1.1388169e-06 0)
(1.1279578 -1.4540088e-06 0)
(1.1279675 1.7834226e-06 0)
(1.1279559 -2.3068665e-06 0)
(1.1279696 2.7741739e-06 0)
(1.1279535 -3.6758815e-06 0)
(1.1279721 4.2514817e-06 0)
(1.1279511 -5.8974896e-06 0)
(1.1279741 6.3196154e-06 0)
(1.1279495 -9.570005e-06 0)
(1.1279742 8.7926609e-06 0)
(1.1279513 -1.5848096e-05 0)
(1.1279681 1.0373275e-05 0)
(1.1279612 -2.728028e-05 0)
(1.1279467 6.1695012e-06 0)
(1.1279872 -5.0349109e-05 0)
(1.1278884 -1.9809023e-05 0)
(1.1280314 -0.00010387282 0)
(1.1277297 -0.00011878179 0)
(1.1280462 -0.00024747339 0)
(1.1273568 -0.00043677435 0)
(1.003271 -0.054817111 0)
(1.0472129 -0.10100037 0)
(1.066112 -0.11153424 0)
(1.0625934 -0.10907368 0)
(1.0508094 -0.0999174 0)
(1.0345001 -0.087034528 0)
(1.0148931 -0.07292612 0)
(0.99382438 -0.059368156 0)
(0.97290608 -0.047363169 0)
(0.95311288 -0.037333273 0)
(0.93493712 -0.029293041 0)
(0.9185754 -0.023056568 0)
(0.90402217 -0.018326422 0)
(0.89115792 -0.014784752 0)
(0.87980908 -0.012148467 0)
(0.8697859 -0.010188133 0)
(0.86090306 -0.0087243484 0)
(0.85299184 -0.0076167617 0)
(0.84590746 -0.0067560649 0)
(0.83953147 -0.0060610107 0)
(0.83376901 -0.00547675 0)
(0.82854329 -0.0049707367 0)
(0.82379016 -0.0045258597 0)
(0.81945439 -0.0041331684 0)
(0.81548774 -0.0037866487 0)
(0.81184783 -0.0034808571 0)
(0.80849732 -0.0032106066 0)
(0.80540313 -0.0029713414 0)
(0.80253619 -0.0027592353 0)
(0.79987175 -0.0025707677 0)
(0.79739023 -0.0024020578 0)
(0.7950782 -0.0022483746 0)
(0.79292883 -0.0021041158 0)
(0.79094167 -0.0019632913 0)
(0.78912123 -0.0018203532 0)
(0.78747489 -0.001671099 0)
(0.78601034 -0.0015133844 0)
(0.78473302 -0.0013474543 0)
(0.78364407 -0.0011758303 0)
(0.78273917 -0.0010027945 0)
(0.78200823 -0.00083361867 0)
(0.78143602 -0.00067370064 0)
(0.78100343 -0.00052779705 0)
(0.78068909 -0.00039945023 0)
(0.78047105 -0.00029070522 0)
(0.78032827 -0.00020206493 0)
(0.78024172 -0.00013269809 0)
(0.78019516 -8.0732637e-05 0)
(0.7801754 -4.367539e-05 0)
(0.7801723 -1.8723448e-05 0)
(0.78017843 -3.1412796e-06 0)
(0.78018879 5.6121493e-06 0)
(0.78020008 9.6327693e-06 0)
(0.78021059 1.0665721e-05 0)
(0.78021931 9.932759e-06 0)
(0.78022616 8.3899828e-06 0)
(0.78023106 6.5520926e-06 0)
(0.78023452 4.835762e-06 0)
(0.78023664 3.335782e-06 0)
(0.78023801 2.1905773e-06 0)
(0.78023864 1.3117163e-06 0)
(0.78023903 7.3786797e-07 0)
(0.78023903 3.280567e-07 0)
(0.78023909 1.2321462e-07 0)
(0.78023889 -3.9868248e-08 0)
(0.78023894 -4.9439455e-08 0)
(0.78023865 -1.3323269e-07 0)
(0.78023883 -3.8731649e-08 0)
(0.78023844 -1.4377865e-07 0)
(0.78023883 2.9384269e-08 0)
(0.78023825 -1.5493394e-07 0)
(0.78023893 1.1201229e-07 0)
(0.78023806 -1.9627928e-07 0)
(0.78023912 2.0787348e-07 0)
(0.7802378 -2.8076187e-07 0)
(0.78023942 3.3368547e-07 0)
(0.78023743 -4.2180192e-07 0)
(0.78023986 5.1370982e-07 0)
(0.7802369 -6.411278e-07 0)
(0.78024049 7.7811446e-07 0)
(0.78023616 -9.7255203e-07 0)
(0.78024132 1.1607285e-06 0)
(0.78023519 -1.4631813e-06 0)
(0.78024231 1.6881237e-06 0)
(0.78023406 -2.1744664e-06 0)
(0.78024323 2.3480024e-06 0)
(0.78023303 -3.1905547e-06 0)
(0.78024339 2.9953616e-06 0)
(0.78023278 -4.6364498e-06 0)
(0.78024097 3.0835678e-06 0)
(0.78023483 -6.7608994e-06 0)
(0.78023155 9.8474685e-07 0)
(0.78024179 -1.025471e-05 0)
(0.78020467 -7.5098663e-06 0)
(0.7802567 -1.6955888e-05 0)
(0.78013457 -3.1046501e-05 0)
(0.78027596 -2.8913741e-05 0)
(0.77995059 -7.2957632e-05 0)
(0.78027423 -2.9103308e-05 0)
(0.77957333 -4.6749849e-05 0)
(0.92241904 -0.034487142 0)
(0.87132476 -0.058494342 0)
(0.78815629 -0.056214886 0)
(0.69388538 -0.045746905 0)
(0.61395301 -0.034510998 0)
(0.55015768 -0.024456473 0)
(0.49940002 -0.016280437 0)
(0.45984635 -0.010229119 0)
(0.42978111 -0.0061024335 0)
(0.40723128 -0.0034657016 0)
(0.39031297 -0.0018606506 0)
(0.37749809 -0.00095366967 0)
(0.36764002 -0.00048706381 0)
(0.35987756 -0.00027786744 0)
(0.35359098 -0.00021056056 0)
(0.34835117 -0.00021722787 0)
(0.34386668 -0.00025737734 0)
(0.33994146 -0.00030487314 0)
(0.33644494 -0.00034283154 0)
(0.33329098 -0.00036294715 0)
(0.33042243 -0.00036488667 0)
(0.32779991 -0.00035371529 0)
(0.32539425 -0.00033613905 0)
(0.32318212 -0.00031741954 0)
(0.32114397 -0.00030011761 0)
(0.31926292 -0.0002845343 0)
(0.31752402 -0.00026992442 0)
(0.31591348 -0.00025560214 0)
(0.31441808 -0.00024147381 0)
(0.31302515 -0.00022801929 0)
(0.31172296 -0.0002159561 0)
(0.31050166 -0.00020584983 0)
(0.30935419 -0.00019784744 0)
(0.30827696 -0.00019158444 0)
(0.30727 -0.00018626787 0)
(0.30633647 -0.0001808596 0)
(0.30548161 -0.00017431655 0)
(0.30471132 -0.00016580107 0)
(0.30403073 -0.00015484296 0)
(0.30344288 -0.00014139949 0)
(0.30294792 -0.00012584209 0)
(0.30254275 -0.00010885258 0)
(0.3022212 -9.1296874e-05 0)
(0.30197459 -7.40653e-05 0)
(0.3017926 -5.7959838e-05 0)
(0.30166415 -4.3586915e-05 0)
(0.30157827 -3.1334755e-05 0)
(0.30152479 -2.1346858e-05 0)
(0.30149479 -1.3583102e-05 0)
(0.30148091 -7.8336256e-06 0)
(0.30147731 -3.8184905e-06 0)
(0.3014797 -1.1887707e-06 0)
(0.301485 3.6980022e-07 0)
(0.30149127 1.1786492e-06 0)
(0.30149729 1.4668543e-06 0)
(0.30150249 1.458167e-06 0)
(0.3015066 1.269474e-06 0)
(0.30150969 1.0290004e-06 0)
(0.30151184 7.677362e-07 0)
(0.30151329 5.5001213e-07 0)
(0.30151415 3.5923403e-07 0)
(0.30151466 2.2936695e-07 0)
(0.30151489 1.221164e-07 0)
(0.301515 6.8742894e-08 0)
(0.30151497 1.3735322e-08 0)
(0.30151497 1.1193641e-08 0)
(0.30151485 -2.631398e-08 0)
(0.30151488 5.2870773e-09 0)
(0.30151473 -4.054511e-08 0)
(0.30151482 2.0536859e-08 0)
(0.30151463 -5.1413367e-08 0)
(0.30151482 4.4620592e-08 0)
(0.30151455 -6.9452977e-08 0)
(0.30151486 7.6234734e-08 0)
(0.30151447 -1.0059777e-07 0)
(0.30151494 1.1974846e-07 0)
(0.30151436 -1.502388e-07 0)
(0.30151506 1.8209145e-07 0)
(0.3015142 -2.254802e-07 0)
(0.30151525 2.7215454e-07 0)
(0.30151398 -3.3589155e-07 0)
(0.30151549 3.9841473e-07 0)
(0.30151367 -4.9200361e-07 0)
(0.30151577 5.6355419e-07 0)
(0.30151327 -7.0273298e-07 0)
(0.301516 7.511812e-07 0)
(0.30151279 -9.7064288e-07 0)
(0.30151591 8.8952236e-07 0)
(0.30151225 -1.2785106e-06 0)
(0.30151471 7.5767068e-07 0)
(0.3015116 -1.5729554e-06 0)
(0.30151038 -2.1850319e-07 0)
(0.30151031 -1.7288681e-06 0)
(0.30149803 -3.2798581e-06 0)
(0.30150645 -1.0823082e-06 0)
(0.30146795 -9.6076888e-06 0)
(0.30149702 6.2924355e-06 0)
(0.3014192 -7.3223939e-06 0)
(0.30150224 6.3350435e-05 0)
(0.30151819 7.7339047e-05 0)
)
;

boundaryField
{
    top
    {
        type            fixedValue;
        value           uniform (0 0 0);
    }
    inlet
    {
        type            fixedValue;
        value           uniform (1 0 0);
    }
    outlet
    {
        type            zeroGradient;
    }
    bottom
    {
        type            fixedValue;
        value           uniform (0 0 0);
    }
    back
    {
        type            empty;
    }
    front
    {
        type            empty;
    }
}


// ************************************************************************* //
