/*--------------------------------*- C++ -*----------------------------------*\
| =========                 |                                                 |
| \\      /  F ield         | OpenFOAM: The Open Source CFD Toolbox           |
|  \\    /   O peration     | Version:  v1812                                 |
|   \\  /    A nd           | Web:      www.OpenFOAM.com                      |
|    \\/     M anipulation  |                                                 |
\*---------------------------------------------------------------------------*/
FoamFile
{
    version     2.0;
    format      ascii;
    class       volScalarField;
    location    "16";
    object      p;
}
// * * * * * * * * * * * * * * * * * * * * * * * * * * * * * * * * * * * * * //

dimensions      [0 2 -2 0 0 0 0];


internalField   nonuniform List<scalar> 
1000
(
1.5146745
1.498265
1.4821462
1.4662427
1.4504847
1.4348255
1.419237
1.403703
1.3882136
1.3727615
1.3573406
1.3419457
1.3265729
1.3112193
1.295883
1.2805622
1.2652555
1.2499617
1.2346798
1.2194087
1.2041478
1.1888961
1.1736531
1.1584182
1.1431907
1.1279701
1.1127561
1.097548
1.0823456
1.0671485
1.0519562
1.0367686
1.0215853
1.0064059
0.99123034
0.97605828
0.9608895
0.94572381
0.93056099
0.91540087
0.90024328
0.88508805
0.86993503
0.85478407
0.83963506
0.82448786
0.80934235
0.79419842
0.77905598
0.76391492
0.74877516
0.73363661
0.7184992
0.70336283
0.68822746
0.673093
0.65795941
0.64282661
0.62769457
0.61256322
0.59743252
0.58230243
0.5671729
0.55204389
0.53691538
0.52178732
0.50665968
0.49153243
0.47640555
0.46127901
0.44615278
0.43102684
0.41590117
0.40077575
0.38565057
0.3705256
0.35540082
0.34027623
0.32515181
0.31002755
0.29490343
0.27977944
0.26465558
0.24953183
0.23440818
0.21928463
0.20416116
0.18903778
0.17391447
0.15879123
0.14366804
0.12854492
0.11342184
0.098298815
0.083175829
0.068052881
0.052929967
0.037807084
0.022684231
0.0075613962
1.5144146
1.4979727
1.4820407
1.4662986
1.450597
1.4349279
1.419315
1.4037649
1.388268
1.3728112
1.3573852
1.3419848
1.3266069
1.3112492
1.2959096
1.2805862
1.2652773
1.2499816
1.2346979
1.2194254
1.2041631
1.1889103
1.1736663
1.1584303
1.143202
1.1279806
1.1127658
1.0975571
1.0823541
1.0671563
1.0519636
1.0367754
1.0215916
1.0064119
0.99123588
0.97606345
0.96089432
0.9457283
0.93056518
0.91540478
0.90024692
0.88509144
0.86993819
0.85478702
0.83963781
0.82449041
0.80934473
0.79420064
0.77905804
0.76391684
0.74877695
0.73363827
0.71850074
0.70336426
0.68822879
0.67309424
0.65796055
0.64282767
0.62769555
0.61256413
0.59743336
0.58230321
0.56717362
0.55204456
0.53691599
0.52178788
0.5066602
0.49153291
0.47640599
0.46127941
0.44615315
0.43102718
0.41590149
0.40077604
0.38565083
0.37052584
0.35540104
0.34027644
0.325152
0.31002772
0.29490358
0.27977958
0.26465571
0.24953194
0.23440828
0.21928472
0.20416125
0.18903786
0.17391454
0.15879129
0.1436681
0.12854497
0.11342189
0.098298852
0.083175862
0.06805291
0.052929993
0.037807106
0.022684251
0.0075614056
1.5139476
1.4973828
1.4817034
1.4662428
1.4506815
1.4350289
1.4193863
1.4038116
1.3883061
1.3728487
1.357422
1.3420182
1.3266357
1.3112738
1.295931
1.2806052
1.2652945
1.2499971
1.2347121
1.2194383
1.2041749
1.1889211
1.1736761
1.1584394
1.1432104
1.1279884
1.112773
1.0975638
1.0823602
1.0671621
1.0519689
1.0367804
1.0215962
1.0064162
0.99123988
0.97606717
0.96089779
0.94573154
0.9305682
0.91540759
0.90024954
0.88509388
0.86994047
0.85478914
0.83963978
0.82449226
0.80934644
0.79420224
0.77905953
0.76391823
0.74877824
0.73363947
0.71850185
0.7033653
0.68822975
0.67309513
0.65796138
0.64282845
0.62769627
0.61256479
0.59743398
0.58230378
0.56717415
0.55204505
0.53691645
0.5217883
0.50666059
0.49153327
0.47640632
0.46127972
0.44615343
0.43102744
0.41590172
0.40077626
0.38565103
0.37052602
0.35540121
0.34027659
0.32515214
0.31002785
0.2949037
0.27977969
0.2646558
0.24953203
0.23440837
0.2192848
0.20416132
0.18903792
0.17391459
0.15879134
0.14366814
0.12854501
0.11342192
0.098298885
0.08317589
0.068052935
0.052930015
0.037807125
0.022684264
0.0075614136
1.5134844
1.4967498
1.4812835
1.4661179
1.4507333
1.435122
1.4194566
1.4038561
1.3883416
1.3728855
1.3574604
1.3420548
1.3266679
1.3113013
1.2959549
1.2806264
1.2653135
1.2500144
1.2347277
1.2194524
1.2041877
1.1889327
1.1736869
1.1584493
1.1432194
1.1279968
1.1127807
1.0975709
1.0823669
1.0671683
1.0519746
1.0367857
1.0216012
1.0064208
0.9912442
0.9760712
0.96090156
0.94573505
0.93057147
0.91541065
0.9002524
0.88509655
0.86994296
0.85479147
0.83964196
0.82449428
0.80934834
0.79420401
0.77906118
0.76391977
0.74877967
0.73364081
0.7185031
0.70336647
0.68823084
0.67309614
0.65796233
0.64282932
0.62769708
0.61256556
0.59743469
0.58230444
0.56717476
0.55204562
0.53691697
0.52178879
0.50666104
0.49153369
0.47640671
0.46128008
0.44615377
0.43102775
0.41590201
0.40077653
0.38565128
0.37052625
0.35540142
0.34027678
0.32515232
0.31002801
0.29490385
0.27977983
0.26465593
0.24953215
0.23440847
0.21928489
0.2041614
0.189038
0.17391467
0.1587914
0.1436682
0.12854506
0.11342197
0.098298931
0.083175932
0.068052974
0.052930048
0.037807156
0.022684285
0.0075614325
1.513206
1.4963549
1.4810046
1.466021
1.4507562
1.4351791
1.4195022
1.403885
1.3883642
1.3729094
1.3574862
1.34208
1.3266905
1.311321
1.2959721
1.2806419
1.2653276
1.2500272
1.2347393
1.2194629
1.2041973
1.1889416
1.173695
1.1584568
1.1432264
1.1280032
1.1127867
1.0975765
1.082372
1.067173
1.0519791
1.0367899
1.0216051
1.0064244
0.99124758
0.97607435
0.9609045
0.94573779
0.93057404
0.91541305
0.90025464
0.88509865
0.86994492
0.8547933
0.83964367
0.82449589
0.80934983
0.7942054
0.77906249
0.76392099
0.74878082
0.73364188
0.7185041
0.7033674
0.6882317
0.67309695
0.65796308
0.64283003
0.62769774
0.61256617
0.59743526
0.58230497
0.56717525
0.55204608
0.5369174
0.52178919
0.50666141
0.49153403
0.47640703
0.46128038
0.44615404
0.43102801
0.41590225
0.40077674
0.38565148
0.37052644
0.35540159
0.34027694
0.32515246
0.31002815
0.29490398
0.27977994
0.26465604
0.24953225
0.23440856
0.21928498
0.20416148
0.18903807
0.17391473
0.15879146
0.14366826
0.12854511
0.11342202
0.098298971
0.083175968
0.068053007
0.052930077
0.037807183
0.022684306
0.0075614513
1.513206
1.4963549
1.4810046
1.466021
1.4507562
1.435179
1.4195022
1.403885
1.3883642
1.3729094
1.3574862
1.34208
1.3266905
1.311321
1.2959721
1.2806419
1.2653276
1.2500272
1.2347393
1.219463
1.2041973
1.1889416
1.173695
1.1584568
1.1432264
1.1280032
1.1127867
1.0975765
1.082372
1.067173
1.0519791
1.0367899
1.0216051
1.0064244
0.99124758
0.97607435
0.9609045
0.94573779
0.93057404
0.91541305
0.90025464
0.88509865
0.86994492
0.8547933
0.83964367
0.82449589
0.80934983
0.7942054
0.77906249
0.76392099
0.74878081
0.73364188
0.7185041
0.7033674
0.6882317
0.67309695
0.65796308
0.64283003
0.62769774
0.61256617
0.59743526
0.58230497
0.56717525
0.55204608
0.5369174
0.52178919
0.50666141
0.49153403
0.47640703
0.46128038
0.44615404
0.43102801
0.41590225
0.40077674
0.38565148
0.37052644
0.35540159
0.34027694
0.32515246
0.31002815
0.29490398
0.27977994
0.26465604
0.24953225
0.23440856
0.21928498
0.20416148
0.18903807
0.17391473
0.15879146
0.14366826
0.12854511
0.11342202
0.098298972
0.083175969
0.068053007
0.052930077
0.037807184
0.022684306
0.0075614517
1.5134844
1.4967498
1.4812835
1.4661179
1.4507333
1.435122
1.4194566
1.4038561
1.3883415
1.3728855
1.3574604
1.3420548
1.3266679
1.3113013
1.2959549
1.2806264
1.2653135
1.2500144
1.2347277
1.2194524
1.2041877
1.1889328
1.1736869
1.1584493
1.1432194
1.1279968
1.1127807
1.0975709
1.0823669
1.0671683
1.0519747
1.0367857
1.0216012
1.0064208
0.9912442
0.9760712
0.96090156
0.94573505
0.93057148
0.91541065
0.9002524
0.88509655
0.86994296
0.85479147
0.83964195
0.82449428
0.80934834
0.794204
0.77906118
0.76391977
0.74877967
0.73364081
0.7185031
0.70336647
0.68823084
0.67309614
0.65796232
0.64282932
0.62769708
0.61256555
0.59743469
0.58230444
0.56717476
0.55204562
0.53691697
0.52178879
0.50666104
0.49153369
0.47640671
0.46128008
0.44615377
0.43102775
0.41590201
0.40077653
0.38565128
0.37052625
0.35540142
0.34027678
0.32515232
0.31002801
0.29490385
0.27977983
0.26465593
0.24953215
0.23440847
0.21928489
0.2041614
0.189038
0.17391467
0.1587914
0.1436682
0.12854506
0.11342197
0.098298932
0.083175933
0.068052974
0.052930049
0.037807156
0.022684287
0.0075614334
1.5139476
1.4973828
1.4817034
1.4662428
1.4506815
1.4350288
1.4193863
1.4038115
1.3883061
1.3728487
1.357422
1.3420182
1.3266357
1.3112738
1.295931
1.2806052
1.2652945
1.2499972
1.2347121
1.2194383
1.2041749
1.1889211
1.1736761
1.1584394
1.1432104
1.1279884
1.112773
1.0975638
1.0823602
1.0671621
1.0519689
1.0367804
1.0215962
1.0064162
0.99123988
0.97606717
0.96089779
0.94573154
0.9305682
0.91540759
0.90024954
0.88509388
0.86994047
0.85478914
0.83963978
0.82449225
0.80934644
0.79420224
0.77905953
0.76391823
0.74877824
0.73363947
0.71850185
0.7033653
0.68822975
0.67309513
0.65796138
0.64282844
0.62769627
0.61256479
0.59743398
0.58230378
0.56717415
0.55204505
0.53691645
0.5217883
0.50666059
0.49153327
0.47640632
0.46127972
0.44615343
0.43102744
0.41590172
0.40077626
0.38565103
0.37052602
0.35540121
0.34027659
0.32515214
0.31002785
0.2949037
0.27977969
0.2646558
0.24953203
0.23440837
0.2192848
0.20416132
0.18903792
0.17391459
0.15879134
0.14366814
0.12854501
0.11342192
0.098298886
0.083175891
0.068052936
0.052930016
0.037807126
0.022684265
0.0075614144
1.5144146
1.4979727
1.4820407
1.4662986
1.450597
1.4349279
1.419315
1.4037649
1.388268
1.3728112
1.3573852
1.3419848
1.3266069
1.3112492
1.2959096
1.2805862
1.2652773
1.2499816
1.2346979
1.2194254
1.2041631
1.1889103
1.1736663
1.1584304
1.143202
1.1279806
1.1127658
1.0975571
1.0823541
1.0671563
1.0519636
1.0367754
1.0215916
1.0064119
0.99123588
0.97606345
0.96089432
0.9457283
0.93056518
0.91540478
0.90024692
0.88509144
0.86993819
0.85478702
0.83963781
0.82449041
0.80934473
0.79420064
0.77905804
0.76391684
0.74877695
0.73363827
0.71850073
0.70336426
0.68822878
0.67309423
0.65796055
0.64282767
0.62769555
0.61256413
0.59743336
0.58230321
0.56717362
0.55204456
0.53691599
0.52178788
0.5066602
0.49153291
0.47640599
0.46127941
0.44615315
0.43102718
0.41590149
0.40077604
0.38565083
0.37052584
0.35540104
0.34027644
0.325152
0.31002772
0.29490358
0.27977958
0.26465571
0.24953194
0.23440828
0.21928472
0.20416125
0.18903786
0.17391454
0.15879129
0.1436681
0.12854497
0.11342189
0.098298854
0.083175863
0.068052911
0.052929994
0.037807106
0.022684252
0.0075614061
1.5146744
1.498265
1.4821462
1.4662427
1.4504847
1.4348255
1.419237
1.403703
1.3882136
1.3727615
1.3573406
1.3419457
1.3265729
1.3112193
1.295883
1.2805622
1.2652555
1.2499617
1.2346798
1.2194087
1.2041478
1.1888961
1.1736531
1.1584182
1.1431907
1.1279701
1.1127561
1.097548
1.0823456
1.0671485
1.0519562
1.0367686
1.0215853
1.0064059
0.99123034
0.97605828
0.9608895
0.94572381
0.93056099
0.91540087
0.90024328
0.88508805
0.86993503
0.85478407
0.83963506
0.82448785
0.80934234
0.79419842
0.77905598
0.76391492
0.74877516
0.73363661
0.71849919
0.70336283
0.68822746
0.673093
0.65795941
0.64282661
0.62769457
0.61256322
0.59743252
0.58230243
0.5671729
0.55204389
0.53691538
0.52178732
0.50665968
0.49153243
0.47640555
0.461279
0.44615278
0.43102684
0.41590117
0.40077575
0.38565057
0.3705256
0.35540082
0.34027623
0.32515181
0.31002755
0.29490343
0.27977944
0.26465558
0.24953183
0.23440818
0.21928463
0.20416117
0.18903778
0.17391447
0.15879123
0.14366804
0.12854492
0.11342184
0.098298816
0.08317583
0.068052881
0.052929968
0.037807085
0.022684231
0.0075613965
)
;

boundaryField
{
    top
    {
        type            zeroGradient;
    }
    inlet
    {
        type            fixedValue;
        value           uniform 1.523;
    }
    outlet
    {
        type            fixedValue;
        value           uniform 0;
    }
    bottom
    {
        type            zeroGradient;
    }
    back
    {
        type            empty;
    }
    front
    {
        type            empty;
    }
}


// ************************************************************************* //
