# Field minima and maxima
# Time          	field           	min             	location(min)   	max             	location(max)   
1               	U               	(6.22755714e-01 8.92887645e-03 0.00000000e+00)	(5.00000000e-02 -4.50000000e-01 5.00000000e-02)	(6.22755714e-01 8.92887645e-03 0.00000000e+00)	(5.00000000e-02 -4.50000000e-01 5.00000000e-02)
1               	p               	0.00000000e+00	(1.00000000e+01 -4.50000000e-01 5.00000000e-02)	1.77188473e+01	(5.00000000e-02 -4.50000000e-01 5.00000000e-02)
2               	U               	(9.28030251e-01 7.58052674e-03 0.00000000e+00)	(5.00000000e-02 -4.50000000e-01 5.00000000e-02)	(9.28030251e-01 7.58052674e-03 0.00000000e+00)	(5.00000000e-02 -4.50000000e-01 5.00000000e-02)
2               	p               	0.00000000e+00	(1.00000000e+01 -4.50000000e-01 5.00000000e-02)	4.55262971e+01	(5.00000000e-02 -4.50000000e-01 5.00000000e-02)
3               	U               	(9.51607515e-01 1.62346647e-02 0.00000000e+00)	(5.00000000e-02 -4.50000000e-01 5.00000000e-02)	(9.51607515e-01 1.62346647e-02 0.00000000e+00)	(5.00000000e-02 -4.50000000e-01 5.00000000e-02)
3               	p               	0.00000000e+00	(1.00000000e+01 -4.50000000e-01 5.00000000e-02)	4.84658302e+01	(5.00000000e-02 -4.50000000e-01 5.00000000e-02)
4               	U               	(9.31010716e-01 2.64976530e-02 0.00000000e+00)	(5.00000000e-02 -4.50000000e-01 5.00000000e-02)	(9.31010716e-01 2.64976530e-02 0.00000000e+00)	(5.00000000e-02 -4.50000000e-01 5.00000000e-02)
4               	p               	0.00000000e+00	(1.00000000e+01 -4.50000000e-01 5.00000000e-02)	3.34239351e+01	(5.00000000e-02 4.50000000e-01 5.00000000e-02)
5               	U               	(9.19382645e-01 3.32824593e-02 0.00000000e+00)	(5.00000000e-02 -4.50000000e-01 5.00000000e-02)	(9.19382645e-01 3.32824593e-02 0.00000000e+00)	(5.00000000e-02 -4.50000000e-01 5.00000000e-02)
5               	p               	-1.05257190e-02	(9.95000000e+00 -5.00000000e-02 5.00000000e-02)	1.22848754e+01	(5.00000000e-02 4.50000000e-01 5.00000000e-02)
6               	U               	(9.16913726e-01 3.66292718e-02 0.00000000e+00)	(5.00000000e-02 -4.50000000e-01 5.00000000e-02)	(9.16913726e-01 3.66292718e-02 0.00000000e+00)	(5.00000000e-02 -4.50000000e-01 5.00000000e-02)
6               	p               	-4.83679897e+00	(4.50000000e-01 -5.00000000e-02 5.00000000e-02)	0.00000000e+00	(1.00000000e+01 -4.50000000e-01 5.00000000e-02)
7               	U               	(9.18047029e-01 3.80275927e-02 0.00000000e+00)	(5.00000000e-02 -4.50000000e-01 5.00000000e-02)	(9.18047029e-01 3.80275927e-02 0.00000000e+00)	(5.00000000e-02 -4.50000000e-01 5.00000000e-02)
7               	p               	-1.14299822e+01	(2.50000000e-01 -5.00000000e-02 5.00000000e-02)	0.00000000e+00	(1.00000000e+01 -4.50000000e-01 5.00000000e-02)
8               	U               	(9.20087900e-01 3.80974302e-02 0.00000000e+00)	(5.00000000e-02 -4.50000000e-01 5.00000000e-02)	(9.20087900e-01 3.80974302e-02 0.00000000e+00)	(5.00000000e-02 -4.50000000e-01 5.00000000e-02)
8               	p               	-1.06125824e+01	(2.50000000e-01 -5.00000000e-02 5.00000000e-02)	0.00000000e+00	(1.00000000e+01 -4.50000000e-01 5.00000000e-02)
9               	U               	(9.22065328e-01 3.71982541e-02 0.00000000e+00)	(5.00000000e-02 -4.50000000e-01 5.00000000e-02)	(9.22065328e-01 3.71982541e-02 0.00000000e+00)	(5.00000000e-02 -4.50000000e-01 5.00000000e-02)
9               	p               	-6.05081954e+00	(2.50000000e-01 5.00000000e-02 5.00000000e-02)	0.00000000e+00	(1.00000000e+01 -4.50000000e-01 5.00000000e-02)
10              	U               	(9.23417614e-01 3.59232349e-02 0.00000000e+00)	(5.00000000e-02 -4.50000000e-01 5.00000000e-02)	(9.23417614e-01 3.59232349e-02 0.00000000e+00)	(5.00000000e-02 -4.50000000e-01 5.00000000e-02)
10              	p               	-9.39113409e-01	(1.50000000e-01 5.00000000e-02 5.00000000e-02)	6.91239276e-03	(9.95000000e+00 -3.50000000e-01 5.00000000e-02)
11              	U               	(9.23959401e-01 3.47920745e-02 0.00000000e+00)	(5.00000000e-02 -4.50000000e-01 5.00000000e-02)	(9.23959401e-01 3.47920745e-02 0.00000000e+00)	(5.00000000e-02 -4.50000000e-01 5.00000000e-02)
11              	p               	0.00000000e+00	(1.00000000e+01 -4.50000000e-01 5.00000000e-02)	3.05833223e+00	(5.00000000e-02 -4.50000000e-01 5.00000000e-02)
12              	U               	(9.23872896e-01 3.40550006e-02 0.00000000e+00)	(5.00000000e-02 -4.50000000e-01 5.00000000e-02)	(9.23872896e-01 3.40550006e-02 0.00000000e+00)	(5.00000000e-02 -4.50000000e-01 5.00000000e-02)
12              	p               	0.00000000e+00	(1.00000000e+01 -4.50000000e-01 5.00000000e-02)	4.78949305e+00	(5.00000000e-02 -4.50000000e-01 5.00000000e-02)
13              	U               	(9.23470485e-01 3.37291949e-02 0.00000000e+00)	(5.00000000e-02 -4.50000000e-01 5.00000000e-02)	(9.23470485e-01 3.37291949e-02 0.00000000e+00)	(5.00000000e-02 -4.50000000e-01 5.00000000e-02)
13              	p               	0.00000000e+00	(1.00000000e+01 -4.50000000e-01 5.00000000e-02)	4.87706118e+00	(5.00000000e-02 -4.50000000e-01 5.00000000e-02)
14              	U               	(9.22995609e-01 3.37212229e-02 0.00000000e+00)	(5.00000000e-02 -4.50000000e-01 5.00000000e-02)	(9.22995609e-01 3.37212229e-02 0.00000000e+00)	(5.00000000e-02 -4.50000000e-01 5.00000000e-02)
14              	p               	0.00000000e+00	(1.00000000e+01 -4.50000000e-01 5.00000000e-02)	3.96792790e+00	(5.00000000e-02 4.50000000e-01 5.00000000e-02)
15              	U               	(9.22592319e-01 3.39013321e-02 0.00000000e+00)	(5.00000000e-02 -4.50000000e-01 5.00000000e-02)	(9.22592319e-01 3.39013321e-02 0.00000000e+00)	(5.00000000e-02 -4.50000000e-01 5.00000000e-02)
15              	p               	0.00000000e+00	(1.00000000e+01 -4.50000000e-01 5.00000000e-02)	2.80655156e+00	(5.00000000e-02 4.50000000e-01 5.00000000e-02)
16              	U               	(9.22324696e-01 3.41489978e-02 0.00000000e+00)	(5.00000000e-02 -4.50000000e-01 5.00000000e-02)	(9.22324696e-01 3.41489978e-02 0.00000000e+00)	(5.00000000e-02 -4.50000000e-01 5.00000000e-02)
16              	p               	0.00000000e+00	(1.00000000e+01 -4.50000000e-01 5.00000000e-02)	1.88578575e+00	(5.00000000e-02 4.50000000e-01 5.00000000e-02)
17              	U               	(9.22199014e-01 3.43769351e-02 0.00000000e+00)	(5.00000000e-02 -4.50000000e-01 5.00000000e-02)	(9.22199014e-01 3.43769351e-02 0.00000000e+00)	(5.00000000e-02 -4.50000000e-01 5.00000000e-02)
17              	p               	0.00000000e+00	(1.00000000e+01 -4.50000000e-01 5.00000000e-02)	1.40035033e+00	(5.00000000e-02 4.50000000e-01 5.00000000e-02)
18              	U               	(9.22186235e-01 3.45384667e-02 0.00000000e+00)	(5.00000000e-02 -4.50000000e-01 5.00000000e-02)	(9.22186235e-01 3.45384667e-02 0.00000000e+00)	(5.00000000e-02 -4.50000000e-01 5.00000000e-02)
18              	p               	0.00000000e+00	(1.00000000e+01 -4.50000000e-01 5.00000000e-02)	1.31499905e+00	(5.00000000e-02 4.50000000e-01 5.00000000e-02)
19              	U               	(9.22241434e-01 3.46222648e-02 0.00000000e+00)	(5.00000000e-02 -4.50000000e-01 5.00000000e-02)	(9.22241434e-01 3.46222648e-02 0.00000000e+00)	(5.00000000e-02 -4.50000000e-01 5.00000000e-02)
19              	p               	0.00000000e+00	(1.00000000e+01 -4.50000000e-01 5.00000000e-02)	1.47637549e+00	(5.00000000e-02 -4.50000000e-01 5.00000000e-02)
20              	U               	(9.22321604e-01 3.46405759e-02 0.00000000e+00)	(5.00000000e-02 -4.50000000e-01 5.00000000e-02)	(9.22321604e-01 3.46405759e-02 0.00000000e+00)	(5.00000000e-02 -4.50000000e-01 5.00000000e-02)
20              	p               	0.00000000e+00	(1.00000000e+01 -4.50000000e-01 5.00000000e-02)	1.71663285e+00	(5.00000000e-02 -4.50000000e-01 5.00000000e-02)
21              	U               	(9.22395648e-01 3.46162486e-02 0.00000000e+00)	(5.00000000e-02 -4.50000000e-01 5.00000000e-02)	(9.22395648e-01 3.46162486e-02 0.00000000e+00)	(5.00000000e-02 -4.50000000e-01 5.00000000e-02)
21              	p               	0.00000000e+00	(1.00000000e+01 -4.50000000e-01 5.00000000e-02)	1.91595717e+00	(5.00000000e-02 -4.50000000e-01 5.00000000e-02)
22              	U               	(9.22447239e-01 3.45726742e-02 0.00000000e+00)	(5.00000000e-02 -4.50000000e-01 5.00000000e-02)	(9.22447239e-01 3.45726742e-02 0.00000000e+00)	(5.00000000e-02 -4.50000000e-01 5.00000000e-02)
22              	p               	0.00000000e+00	(1.00000000e+01 -4.50000000e-01 5.00000000e-02)	2.02133986e+00	(5.00000000e-02 -4.50000000e-01 5.00000000e-02)
23              	U               	(9.22472710e-01 3.45279420e-02 0.00000000e+00)	(5.00000000e-02 -4.50000000e-01 5.00000000e-02)	(9.22472710e-01 3.45279420e-02 0.00000000e+00)	(5.00000000e-02 -4.50000000e-01 5.00000000e-02)
23              	p               	0.00000000e+00	(1.00000000e+01 -4.50000000e-01 5.00000000e-02)	2.03477168e+00	(5.00000000e-02 -4.50000000e-01 5.00000000e-02)
24              	U               	(9.22476344e-01 3.44928034e-02 0.00000000e+00)	(5.00000000e-02 -4.50000000e-01 5.00000000e-02)	(9.22476344e-01 3.44928034e-02 0.00000000e+00)	(5.00000000e-02 -4.50000000e-01 5.00000000e-02)
24              	p               	0.00000000e+00	(1.00000000e+01 -4.50000000e-01 5.00000000e-02)	1.98834377e+00	(5.00000000e-02 4.50000000e-01 5.00000000e-02)
25              	U               	(9.22466054e-01 3.44712956e-02 0.00000000e+00)	(5.00000000e-02 -4.50000000e-01 5.00000000e-02)	(9.22466054e-01 3.44712956e-02 0.00000000e+00)	(5.00000000e-02 -4.50000000e-01 5.00000000e-02)
25              	p               	0.00000000e+00	(1.00000000e+01 -4.50000000e-01 5.00000000e-02)	1.92019448e+00	(5.00000000e-02 4.50000000e-01 5.00000000e-02)
26              	U               	(9.22449672e-01 3.44626268e-02 0.00000000e+00)	(5.00000000e-02 -4.50000000e-01 5.00000000e-02)	(9.22449672e-01 3.44626268e-02 0.00000000e+00)	(5.00000000e-02 -4.50000000e-01 5.00000000e-02)
26              	p               	0.00000000e+00	(1.00000000e+01 -4.50000000e-01 5.00000000e-02)	1.85912551e+00	(5.00000000e-02 4.50000000e-01 5.00000000e-02)
27              	U               	(9.22433437e-01 3.44634063e-02 0.00000000e+00)	(5.00000000e-02 -4.50000000e-01 5.00000000e-02)	(9.22433437e-01 3.44634063e-02 0.00000000e+00)	(5.00000000e-02 -4.50000000e-01 5.00000000e-02)
27              	p               	0.00000000e+00	(1.00000000e+01 -4.50000000e-01 5.00000000e-02)	1.81901834e+00	(5.00000000e-02 4.50000000e-01 5.00000000e-02)
28              	U               	(9.22420735e-01 3.44694989e-02 0.00000000e+00)	(5.00000000e-02 -4.50000000e-01 5.00000000e-02)	(9.22420735e-01 3.44694989e-02 0.00000000e+00)	(5.00000000e-02 -4.50000000e-01 5.00000000e-02)
28              	p               	0.00000000e+00	(1.00000000e+01 -4.50000000e-01 5.00000000e-02)	1.80082022e+00	(5.00000000e-02 4.50000000e-01 5.00000000e-02)
29              	U               	(9.22413044e-01 3.44772880e-02 0.00000000e+00)	(5.00000000e-02 -4.50000000e-01 5.00000000e-02)	(9.22413044e-01 3.44772880e-02 0.00000000e+00)	(5.00000000e-02 -4.50000000e-01 5.00000000e-02)
29              	p               	0.00000000e+00	(1.00000000e+01 -4.50000000e-01 5.00000000e-02)	1.79789937e+00	(5.00000000e-02 4.50000000e-01 5.00000000e-02)
30              	U               	(9.22409919e-01 3.44842676e-02 0.00000000e+00)	(5.00000000e-02 -4.50000000e-01 5.00000000e-02)	(9.22409919e-01 3.44842676e-02 0.00000000e+00)	(5.00000000e-02 -4.50000000e-01 5.00000000e-02)
30              	p               	0.00000000e+00	(1.00000000e+01 -4.50000000e-01 5.00000000e-02)	1.80162503e+00	(5.00000000e-02 -4.50000000e-01 5.00000000e-02)
31              	U               	(9.22410169e-01 3.44891680e-02 0.00000000e+00)	(5.00000000e-02 -4.50000000e-01 5.00000000e-02)	(9.22410169e-01 3.44891680e-02 0.00000000e+00)	(5.00000000e-02 -4.50000000e-01 5.00000000e-02)
31              	p               	0.00000000e+00	(1.00000000e+01 -4.50000000e-01 5.00000000e-02)	1.80515283e+00	(5.00000000e-02 -4.50000000e-01 5.00000000e-02)
32              	U               	(9.22412336e-01 3.44917113e-02 0.00000000e+00)	(5.00000000e-02 -4.50000000e-01 5.00000000e-02)	(9.22412336e-01 3.44917113e-02 0.00000000e+00)	(5.00000000e-02 -4.50000000e-01 5.00000000e-02)
32              	p               	0.00000000e+00	(1.00000000e+01 -4.50000000e-01 5.00000000e-02)	1.80491297e+00	(5.00000000e-02 -4.50000000e-01 5.00000000e-02)
33              	U               	(9.22415141e-01 3.44922707e-02 0.00000000e+00)	(5.00000000e-02 -4.50000000e-01 5.00000000e-02)	(9.22415141e-01 3.44922707e-02 0.00000000e+00)	(5.00000000e-02 -4.50000000e-01 5.00000000e-02)
33              	p               	0.00000000e+00	(1.00000000e+01 -4.50000000e-01 5.00000000e-02)	1.80033897e+00	(5.00000000e-02 4.50000000e-01 5.00000000e-02)
34              	U               	(9.22417698e-01 3.44915133e-02 0.00000000e+00)	(5.00000000e-02 -4.50000000e-01 5.00000000e-02)	(9.22417698e-01 3.44915133e-02 0.00000000e+00)	(5.00000000e-02 -4.50000000e-01 5.00000000e-02)
34              	p               	0.00000000e+00	(1.00000000e+01 -4.50000000e-01 5.00000000e-02)	1.79272143e+00	(5.00000000e-02 4.50000000e-01 5.00000000e-02)
35              	U               	(9.22419535e-01 3.44901319e-02 0.00000000e+00)	(5.00000000e-02 -4.50000000e-01 5.00000000e-02)	(9.22419535e-01 3.44901319e-02 0.00000000e+00)	(5.00000000e-02 -4.50000000e-01 5.00000000e-02)
35              	p               	0.00000000e+00	(1.00000000e+01 -4.50000000e-01 5.00000000e-02)	1.78393665e+00	(5.00000000e-02 4.50000000e-01 5.00000000e-02)
36              	U               	(9.22420527e-01 3.44886809e-02 0.00000000e+00)	(5.00000000e-02 -4.50000000e-01 5.00000000e-02)	(9.22420527e-01 3.44886809e-02 0.00000000e+00)	(5.00000000e-02 -4.50000000e-01 5.00000000e-02)
36              	p               	0.00000000e+00	(1.00000000e+01 -4.50000000e-01 5.00000000e-02)	1.77554034e+00	(5.00000000e-02 4.50000000e-01 5.00000000e-02)
37              	U               	(9.22420799e-01 3.44875043e-02 0.00000000e+00)	(5.00000000e-02 -4.50000000e-01 5.00000000e-02)	(9.22420799e-01 3.44875043e-02 0.00000000e+00)	(5.00000000e-02 -4.50000000e-01 5.00000000e-02)
37              	p               	0.00000000e+00	(1.00000000e+01 -4.50000000e-01 5.00000000e-02)	1.76837851e+00	(5.00000000e-02 4.50000000e-01 5.00000000e-02)
38              	U               	(9.22420587e-01 3.44867449e-02 0.00000000e+00)	(5.00000000e-02 -4.50000000e-01 5.00000000e-02)	(9.22420587e-01 3.44867449e-02 0.00000000e+00)	(5.00000000e-02 -4.50000000e-01 5.00000000e-02)
38              	p               	0.00000000e+00	(1.00000000e+01 -4.50000000e-01 5.00000000e-02)	1.76261059e+00	(5.00000000e-02 -4.50000000e-01 5.00000000e-02)
39              	U               	(9.22420136e-01 3.44863958e-02 0.00000000e+00)	(5.00000000e-02 -4.50000000e-01 5.00000000e-02)	(9.22420136e-01 3.44863958e-02 0.00000000e+00)	(5.00000000e-02 -4.50000000e-01 5.00000000e-02)
39              	p               	0.00000000e+00	(1.00000000e+01 -4.50000000e-01 5.00000000e-02)	1.75795523e+00	(5.00000000e-02 -4.50000000e-01 5.00000000e-02)
40              	U               	(9.22419623e-01 3.44863680e-02 0.00000000e+00)	(5.00000000e-02 -4.50000000e-01 5.00000000e-02)	(9.22419623e-01 3.44863680e-02 0.00000000e+00)	(5.00000000e-02 -4.50000000e-01 5.00000000e-02)
40              	p               	0.00000000e+00	(1.00000000e+01 -4.50000000e-01 5.00000000e-02)	1.75398268e+00	(5.00000000e-02 4.50000000e-01 5.00000000e-02)
41              	U               	(9.22419223e-01 3.44865243e-02 0.00000000e+00)	(5.00000000e-02 -4.50000000e-01 5.00000000e-02)	(9.22419223e-01 3.44865243e-02 0.00000000e+00)	(5.00000000e-02 -4.50000000e-01 5.00000000e-02)
41              	p               	0.00000000e+00	(1.00000000e+01 -4.50000000e-01 5.00000000e-02)	1.75029543e+00	(5.00000000e-02 4.50000000e-01 5.00000000e-02)
42              	U               	(9.22418953e-01 3.44867548e-02 0.00000000e+00)	(5.00000000e-02 -4.50000000e-01 5.00000000e-02)	(9.22418953e-01 3.44867548e-02 0.00000000e+00)	(5.00000000e-02 -4.50000000e-01 5.00000000e-02)
42              	p               	0.00000000e+00	(1.00000000e+01 -4.50000000e-01 5.00000000e-02)	1.74667995e+00	(5.00000000e-02 -4.50000000e-01 5.00000000e-02)
43              	U               	(9.22418820e-01 3.44869773e-02 0.00000000e+00)	(5.00000000e-02 -4.50000000e-01 5.00000000e-02)	(9.22418820e-01 3.44869773e-02 0.00000000e+00)	(5.00000000e-02 -4.50000000e-01 5.00000000e-02)
43              	p               	0.00000000e+00	(1.00000000e+01 -4.50000000e-01 5.00000000e-02)	1.74306777e+00	(5.00000000e-02 -4.50000000e-01 5.00000000e-02)
44              	U               	(9.22418831e-01 3.44871394e-02 0.00000000e+00)	(5.00000000e-02 -4.50000000e-01 5.00000000e-02)	(9.22418831e-01 3.44871394e-02 0.00000000e+00)	(5.00000000e-02 -4.50000000e-01 5.00000000e-02)
44              	p               	0.00000000e+00	(1.00000000e+01 -4.50000000e-01 5.00000000e-02)	1.73949728e+00	(5.00000000e-02 -4.50000000e-01 5.00000000e-02)
45              	U               	(9.22418871e-01 3.44872340e-02 0.00000000e+00)	(5.00000000e-02 -4.50000000e-01 5.00000000e-02)	(9.22418871e-01 3.44872340e-02 0.00000000e+00)	(5.00000000e-02 -4.50000000e-01 5.00000000e-02)
45              	p               	0.00000000e+00	(1.00000000e+01 -4.50000000e-01 5.00000000e-02)	1.73604005e+00	(5.00000000e-02 -4.50000000e-01 5.00000000e-02)
46              	U               	(9.22418930e-01 3.44872691e-02 0.00000000e+00)	(5.00000000e-02 -4.50000000e-01 5.00000000e-02)	(9.22418930e-01 3.44872691e-02 0.00000000e+00)	(5.00000000e-02 -4.50000000e-01 5.00000000e-02)
46              	p               	0.00000000e+00	(1.00000000e+01 -4.50000000e-01 5.00000000e-02)	1.73276536e+00	(5.00000000e-02 -4.50000000e-01 5.00000000e-02)
47              	U               	(9.22418991e-01 3.44872589e-02 0.00000000e+00)	(5.00000000e-02 -4.50000000e-01 5.00000000e-02)	(9.22418991e-01 3.44872589e-02 0.00000000e+00)	(5.00000000e-02 -4.50000000e-01 5.00000000e-02)
47              	p               	0.00000000e+00	(1.00000000e+01 -4.50000000e-01 5.00000000e-02)	1.72971041e+00	(5.00000000e-02 -4.50000000e-01 5.00000000e-02)
48              	U               	(9.22419041e-01 3.44872235e-02 0.00000000e+00)	(5.00000000e-02 -4.50000000e-01 5.00000000e-02)	(9.22419041e-01 3.44872235e-02 0.00000000e+00)	(5.00000000e-02 -4.50000000e-01 5.00000000e-02)
48              	p               	0.00000000e+00	(1.00000000e+01 -4.50000000e-01 5.00000000e-02)	1.72687824e+00	(5.00000000e-02 -4.50000000e-01 5.00000000e-02)
49              	U               	(9.22419070e-01 3.44871812e-02 0.00000000e+00)	(5.00000000e-02 -4.50000000e-01 5.00000000e-02)	(9.22419070e-01 3.44871812e-02 0.00000000e+00)	(5.00000000e-02 -4.50000000e-01 5.00000000e-02)
49              	p               	0.00000000e+00	(1.00000000e+01 -4.50000000e-01 5.00000000e-02)	1.72424868e+00	(5.00000000e-02 -4.50000000e-01 5.00000000e-02)
50              	U               	(9.22419080e-01 3.44871448e-02 0.00000000e+00)	(5.00000000e-02 -4.50000000e-01 5.00000000e-02)	(9.22419080e-01 3.44871448e-02 0.00000000e+00)	(5.00000000e-02 -4.50000000e-01 5.00000000e-02)
50              	p               	0.00000000e+00	(1.00000000e+01 -4.50000000e-01 5.00000000e-02)	1.72179267e+00	(5.00000000e-02 4.50000000e-01 5.00000000e-02)
51              	U               	(9.22419077e-01 3.44871204e-02 0.00000000e+00)	(5.00000000e-02 -4.50000000e-01 5.00000000e-02)	(9.22419077e-01 3.44871204e-02 0.00000000e+00)	(5.00000000e-02 -4.50000000e-01 5.00000000e-02)
51              	p               	0.00000000e+00	(1.00000000e+01 -4.50000000e-01 5.00000000e-02)	1.71948320e+00	(5.00000000e-02 4.50000000e-01 5.00000000e-02)
52              	U               	(9.22419066e-01 3.44871092e-02 0.00000000e+00)	(5.00000000e-02 -4.50000000e-01 5.00000000e-02)	(9.22419066e-01 3.44871092e-02 0.00000000e+00)	(5.00000000e-02 -4.50000000e-01 5.00000000e-02)
52              	p               	0.00000000e+00	(1.00000000e+01 -4.50000000e-01 5.00000000e-02)	1.71730079e+00	(5.00000000e-02 4.50000000e-01 5.00000000e-02)
53              	U               	(9.22419054e-01 3.44871085e-02 0.00000000e+00)	(5.00000000e-02 -4.50000000e-01 5.00000000e-02)	(9.22419054e-01 3.44871085e-02 0.00000000e+00)	(5.00000000e-02 -4.50000000e-01 5.00000000e-02)
53              	p               	0.00000000e+00	(1.00000000e+01 -4.50000000e-01 5.00000000e-02)	1.71523432e+00	(5.00000000e-02 4.50000000e-01 5.00000000e-02)
54              	U               	(9.22419045e-01 3.44871148e-02 0.00000000e+00)	(5.00000000e-02 -4.50000000e-01 5.00000000e-02)	(9.22419045e-01 3.44871148e-02 0.00000000e+00)	(5.00000000e-02 -4.50000000e-01 5.00000000e-02)
54              	p               	0.00000000e+00	(1.00000000e+01 -4.50000000e-01 5.00000000e-02)	1.71327860e+00	(5.00000000e-02 4.50000000e-01 5.00000000e-02)
55              	U               	(9.22419040e-01 3.44871241e-02 0.00000000e+00)	(5.00000000e-02 -4.50000000e-01 5.00000000e-02)	(9.22419040e-01 3.44871241e-02 0.00000000e+00)	(5.00000000e-02 -4.50000000e-01 5.00000000e-02)
55              	p               	0.00000000e+00	(1.00000000e+01 -4.50000000e-01 5.00000000e-02)	1.71143112e+00	(5.00000000e-02 4.50000000e-01 5.00000000e-02)
56              	U               	(9.22419038e-01 3.44871331e-02 0.00000000e+00)	(5.00000000e-02 -4.50000000e-01 5.00000000e-02)	(9.22419038e-01 3.44871331e-02 0.00000000e+00)	(5.00000000e-02 -4.50000000e-01 5.00000000e-02)
56              	p               	0.00000000e+00	(1.00000000e+01 -4.50000000e-01 5.00000000e-02)	1.70968952e+00	(5.00000000e-02 -4.50000000e-01 5.00000000e-02)
57              	U               	(9.22419039e-01 3.44871400e-02 0.00000000e+00)	(5.00000000e-02 -4.50000000e-01 5.00000000e-02)	(9.22419039e-01 3.44871400e-02 0.00000000e+00)	(5.00000000e-02 -4.50000000e-01 5.00000000e-02)
57              	p               	0.00000000e+00	(1.00000000e+01 -4.50000000e-01 5.00000000e-02)	1.70805021e+00	(5.00000000e-02 -4.50000000e-01 5.00000000e-02)
58              	U               	(9.22419041e-01 3.44871439e-02 0.00000000e+00)	(5.00000000e-02 -4.50000000e-01 5.00000000e-02)	(9.22419041e-01 3.44871439e-02 0.00000000e+00)	(5.00000000e-02 -4.50000000e-01 5.00000000e-02)
58              	p               	0.00000000e+00	(1.00000000e+01 -4.50000000e-01 5.00000000e-02)	1.70650808e+00	(5.00000000e-02 -4.50000000e-01 5.00000000e-02)
59              	U               	(9.22419044e-01 3.44871450e-02 0.00000000e+00)	(5.00000000e-02 -4.50000000e-01 5.00000000e-02)	(9.22419044e-01 3.44871450e-02 0.00000000e+00)	(5.00000000e-02 -4.50000000e-01 5.00000000e-02)
59              	p               	0.00000000e+00	(1.00000000e+01 -4.50000000e-01 5.00000000e-02)	1.70505719e+00	(5.00000000e-02 -4.50000000e-01 5.00000000e-02)
60              	U               	(9.22419046e-01 3.44871441e-02 0.00000000e+00)	(5.00000000e-02 -4.50000000e-01 5.00000000e-02)	(9.22419046e-01 3.44871441e-02 0.00000000e+00)	(5.00000000e-02 -4.50000000e-01 5.00000000e-02)
60              	p               	0.00000000e+00	(1.00000000e+01 -4.50000000e-01 5.00000000e-02)	1.70369145e+00	(5.00000000e-02 -4.50000000e-01 5.00000000e-02)
61              	U               	(9.22419047e-01 3.44871421e-02 0.00000000e+00)	(5.00000000e-02 -4.50000000e-01 5.00000000e-02)	(9.22419047e-01 3.44871421e-02 0.00000000e+00)	(5.00000000e-02 -4.50000000e-01 5.00000000e-02)
61              	p               	0.00000000e+00	(1.00000000e+01 -4.50000000e-01 5.00000000e-02)	1.70240522e+00	(5.00000000e-02 -4.50000000e-01 5.00000000e-02)
62              	U               	(9.22419048e-01 3.44871399e-02 0.00000000e+00)	(5.00000000e-02 -4.50000000e-01 5.00000000e-02)	(9.22419048e-01 3.44871399e-02 0.00000000e+00)	(5.00000000e-02 -4.50000000e-01 5.00000000e-02)
62              	p               	0.00000000e+00	(1.00000000e+01 -4.50000000e-01 5.00000000e-02)	1.70119349e+00	(5.00000000e-02 4.50000000e-01 5.00000000e-02)
63              	U               	(9.22419048e-01 3.44871379e-02 0.00000000e+00)	(5.00000000e-02 -4.50000000e-01 5.00000000e-02)	(9.22419048e-01 3.44871379e-02 0.00000000e+00)	(5.00000000e-02 -4.50000000e-01 5.00000000e-02)
63              	p               	0.00000000e+00	(1.00000000e+01 -4.50000000e-01 5.00000000e-02)	1.70005191e+00	(5.00000000e-02 4.50000000e-01 5.00000000e-02)
64              	U               	(9.22419047e-01 3.44871367e-02 0.00000000e+00)	(5.00000000e-02 -4.50000000e-01 5.00000000e-02)	(9.22419047e-01 3.44871367e-02 0.00000000e+00)	(5.00000000e-02 -4.50000000e-01 5.00000000e-02)
64              	p               	0.00000000e+00	(1.00000000e+01 -4.50000000e-01 5.00000000e-02)	1.69897661e+00	(5.00000000e-02 4.50000000e-01 5.00000000e-02)
65              	U               	(9.22419047e-01 3.44871361e-02 0.00000000e+00)	(5.00000000e-02 -4.50000000e-01 5.00000000e-02)	(9.22419047e-01 3.44871361e-02 0.00000000e+00)	(5.00000000e-02 -4.50000000e-01 5.00000000e-02)
65              	p               	0.00000000e+00	(1.00000000e+01 -4.50000000e-01 5.00000000e-02)	1.69796403e+00	(5.00000000e-02 4.50000000e-01 5.00000000e-02)
66              	U               	(9.22419046e-01 3.44871361e-02 0.00000000e+00)	(5.00000000e-02 -4.50000000e-01 5.00000000e-02)	(9.22419046e-01 3.44871361e-02 0.00000000e+00)	(5.00000000e-02 -4.50000000e-01 5.00000000e-02)
66              	p               	0.00000000e+00	(1.00000000e+01 -4.50000000e-01 5.00000000e-02)	1.69701082e+00	(5.00000000e-02 4.50000000e-01 5.00000000e-02)
67              	U               	(9.22419045e-01 3.44871364e-02 0.00000000e+00)	(5.00000000e-02 -4.50000000e-01 5.00000000e-02)	(9.22419045e-01 3.44871364e-02 0.00000000e+00)	(5.00000000e-02 -4.50000000e-01 5.00000000e-02)
67              	p               	0.00000000e+00	(1.00000000e+01 -4.50000000e-01 5.00000000e-02)	1.69611377e+00	(5.00000000e-02 4.50000000e-01 5.00000000e-02)
68              	U               	(9.22419045e-01 3.44871369e-02 0.00000000e+00)	(5.00000000e-02 -4.50000000e-01 5.00000000e-02)	(9.22419045e-01 3.44871369e-02 0.00000000e+00)	(5.00000000e-02 -4.50000000e-01 5.00000000e-02)
68              	p               	0.00000000e+00	(1.00000000e+01 -4.50000000e-01 5.00000000e-02)	1.69526979e+00	(5.00000000e-02 -4.50000000e-01 5.00000000e-02)
69              	U               	(9.22419045e-01 3.44871372e-02 0.00000000e+00)	(5.00000000e-02 -4.50000000e-01 5.00000000e-02)	(9.22419045e-01 3.44871372e-02 0.00000000e+00)	(5.00000000e-02 -4.50000000e-01 5.00000000e-02)
69              	p               	0.00000000e+00	(1.00000000e+01 -4.50000000e-01 5.00000000e-02)	1.69447788e+00	(5.00000000e-02 -4.50000000e-01 5.00000000e-02)
70              	U               	(9.22419045e-01 3.44871375e-02 0.00000000e+00)	(5.00000000e-02 -4.50000000e-01 5.00000000e-02)	(9.22419045e-01 3.44871375e-02 0.00000000e+00)	(5.00000000e-02 -4.50000000e-01 5.00000000e-02)
70              	p               	0.00000000e+00	(1.00000000e+01 -4.50000000e-01 5.00000000e-02)	1.69373160e+00	(5.00000000e-02 -4.50000000e-01 5.00000000e-02)
71              	U               	(9.22419045e-01 3.44871377e-02 0.00000000e+00)	(5.00000000e-02 -4.50000000e-01 5.00000000e-02)	(9.22419045e-01 3.44871377e-02 0.00000000e+00)	(5.00000000e-02 -4.50000000e-01 5.00000000e-02)
71              	p               	0.00000000e+00	(1.00000000e+01 -4.50000000e-01 5.00000000e-02)	1.69302881e+00	(5.00000000e-02 4.50000000e-01 5.00000000e-02)
72              	U               	(9.22419045e-01 3.44871378e-02 0.00000000e+00)	(5.00000000e-02 -4.50000000e-01 5.00000000e-02)	(9.22419045e-01 3.44871378e-02 0.00000000e+00)	(5.00000000e-02 -4.50000000e-01 5.00000000e-02)
72              	p               	0.00000000e+00	(1.00000000e+01 -4.50000000e-01 5.00000000e-02)	1.69236765e+00	(5.00000000e-02 4.50000000e-01 5.00000000e-02)
73              	U               	(9.22419045e-01 3.44871378e-02 0.00000000e+00)	(5.00000000e-02 -4.50000000e-01 5.00000000e-02)	(9.22419045e-01 3.44871378e-02 0.00000000e+00)	(5.00000000e-02 -4.50000000e-01 5.00000000e-02)
73              	p               	0.00000000e+00	(1.00000000e+01 -4.50000000e-01 5.00000000e-02)	1.69174621e+00	(5.00000000e-02 4.50000000e-01 5.00000000e-02)
74              	U               	(9.22419045e-01 3.44871378e-02 0.00000000e+00)	(5.00000000e-02 -4.50000000e-01 5.00000000e-02)	(9.22419045e-01 3.44871378e-02 0.00000000e+00)	(5.00000000e-02 -4.50000000e-01 5.00000000e-02)
74              	p               	0.00000000e+00	(1.00000000e+01 -4.50000000e-01 5.00000000e-02)	1.69116245e+00	(5.00000000e-02 4.50000000e-01 5.00000000e-02)
75              	U               	(9.22419046e-01 3.44871378e-02 0.00000000e+00)	(5.00000000e-02 -4.50000000e-01 5.00000000e-02)	(9.22419046e-01 3.44871378e-02 0.00000000e+00)	(5.00000000e-02 -4.50000000e-01 5.00000000e-02)
75              	p               	0.00000000e+00	(1.00000000e+01 -4.50000000e-01 5.00000000e-02)	1.69061424e+00	(5.00000000e-02 -4.50000000e-01 5.00000000e-02)
76              	U               	(9.22419046e-01 3.44871377e-02 0.00000000e+00)	(5.00000000e-02 -4.50000000e-01 5.00000000e-02)	(9.22419046e-01 3.44871377e-02 0.00000000e+00)	(5.00000000e-02 -4.50000000e-01 5.00000000e-02)
76              	p               	0.00000000e+00	(1.00000000e+01 -4.50000000e-01 5.00000000e-02)	1.69009948e+00	(5.00000000e-02 -4.50000000e-01 5.00000000e-02)
77              	U               	(9.22419046e-01 3.44871377e-02 0.00000000e+00)	(5.00000000e-02 -4.50000000e-01 5.00000000e-02)	(9.22419046e-01 3.44871377e-02 0.00000000e+00)	(5.00000000e-02 -4.50000000e-01 5.00000000e-02)
77              	p               	0.00000000e+00	(1.00000000e+01 -4.50000000e-01 5.00000000e-02)	1.68961616e+00	(5.00000000e-02 -4.50000000e-01 5.00000000e-02)
78              	U               	(9.22419046e-01 3.44871377e-02 0.00000000e+00)	(5.00000000e-02 -4.50000000e-01 5.00000000e-02)	(9.22419046e-01 3.44871377e-02 0.00000000e+00)	(5.00000000e-02 -4.50000000e-01 5.00000000e-02)