/*--------------------------------*- C++ -*----------------------------------*\
| =========                 |                                                 |
| \\      /  F ield         | OpenFOAM: The Open Source CFD Toolbox           |
|  \\    /   O peration     | Version:  v1812                                 |
|   \\  /    A nd           | Web:      www.OpenFOAM.com                      |
|    \\/     M anipulation  |                                                 |
\*---------------------------------------------------------------------------*/
FoamFile
{
    version     2.0;
    format      ascii;
    class       volVectorField;
    location    "4";
    object      U;
}
// * * * * * * * * * * * * * * * * * * * * * * * * * * * * * * * * * * * * * //

dimensions      [0 1 -1 0 0 0 0];


internalField   nonuniform List<vector> 
1000
(
(0.17553889 0.00043517937 0)
(0.17457721 0.0010344096 0)
(0.1726747 0.00093838893 0)
(0.17115273 0.00059916 0)
(0.17016521 0.00034680679 0)
(0.16950975 0.00021274347 0)
(0.16904657 0.00013590909 0)
(0.16872312 8.2225653e-05 0)
(0.16851179 4.4848123e-05 0)
(0.16838391 2.1729777e-05 0)
(0.16831212 8.8621049e-06 0)
(0.1682754 2.218877e-06 0)
(0.16825931 -8.3270379e-07 0)
(0.16825442 -1.832398e-06 0)
(0.16825472 -1.8627141e-06 0)
(0.16825681 -1.492425e-06 0)
(0.16825907 -1.0480957e-06 0)
(0.16826088 -6.6708689e-07 0)
(0.16826214 -3.9241626e-07 0)
(0.16826293 -2.1523452e-07 0)
(0.16826338 -1.1018008e-07 0)
(0.16826362 -5.2102849e-08 0)
(0.16826375 -2.2255347e-08 0)
(0.1682638 -7.8745455e-09 0)
(0.16826383 -1.6342351e-09 0)
(0.16826384 8.3066547e-10 0)
(0.16826384 1.4390485e-09 0)
(0.16826384 1.4663926e-09 0)
(0.16826384 1.2060912e-09 0)
(0.16826384 1.006688e-09 0)
(0.16826384 7.3290796e-10 0)
(0.16826384 5.9623471e-10 0)
(0.16826384 4.0139476e-10 0)
(0.16826384 3.3306246e-10 0)
(0.16826384 1.8425878e-10 0)
(0.16826384 1.5457248e-10 0)
(0.16826384 4.1467877e-11 0)
(0.16826384 5.0674219e-11 0)
(0.16826384 -3.7654035e-11 0)
(0.16826384 5.7438296e-12 0)
(0.16826384 -5.35116e-11 0)
(0.16826384 1.2204298e-11 0)
(0.16826384 -3.4894119e-11 0)
(0.16826384 4.023034e-11 0)
(0.16826384 4.7437626e-12 0)
(0.16826384 8.3588587e-11 0)
(0.16826384 4.5847105e-11 0)
(0.16826384 1.080899e-10 0)
(0.16826384 5.8948754e-11 0)
(0.16826384 1.0669689e-10 0)
(0.16826384 3.6324118e-11 0)
(0.16826384 6.6479526e-11 0)
(0.16826384 -1.5219431e-11 0)
(0.16826383 2.057655e-11 0)
(0.16826383 -6.467578e-11 0)
(0.16826383 -3.680558e-11 0)
(0.16826383 -1.0864105e-10 0)
(0.16826383 -6.6928201e-11 0)
(0.16826383 -1.2544773e-10 0)
(0.16826384 -6.9898893e-11 0)
(0.16826384 -1.0789591e-10 0)
(0.16826384 -3.2332457e-11 0)
(0.16826384 -6.2461092e-11 0)
(0.16826384 2.177729e-11 0)
(0.16826384 -1.0100238e-11 0)
(0.16826384 7.6327301e-11 0)
(0.16826384 4.697799e-11 0)
(0.16826384 1.1946877e-10 0)
(0.16826384 8.3057142e-11 0)
(0.16826384 1.4306971e-10 0)
(0.16826384 8.7638801e-11 0)
(0.16826384 1.2832488e-10 0)
(0.16826384 6.0316008e-11 0)
(0.16826384 9.176619e-11 0)
(0.16826383 8.6166955e-12 0)
(0.16826383 3.488202e-11 0)
(0.16826383 -5.0421376e-11 0)
(0.16826383 -2.0031265e-11 0)
(0.16826383 -1.0336705e-10 0)
(0.16826383 -7.5366979e-11 0)
(0.16826383 -1.4313334e-10 0)
(0.16826383 -1.0011098e-10 0)
(0.16826383 -1.564758e-10 0)
(0.16826383 -1.0155916e-10 0)
(0.16826383 -1.3906773e-10 0)
(0.16826384 -6.4933695e-11 0)
(0.16826384 -9.2542861e-11 0)
(0.16826384 -7.3366445e-12 0)
(0.16826384 -2.6221343e-11 0)
(0.16826384 7.7966293e-11 0)
(0.16826384 8.3303917e-11 0)
(0.16826384 2.0577273e-10 0)
(0.16826384 2.6796805e-10 0)
(0.16826384 5.1229759e-10 0)
(0.16826383 8.5276743e-10 0)
(0.16826383 1.5565391e-09 0)
(0.16826383 2.7010373e-09 0)
(0.16826382 4.4488975e-09 0)
(0.16826381 9.5755685e-09 0)
(0.16826379 1.0061488e-08 0)
(0.38078577 0.00066603216 0)
(0.38163168 0.0021699191 0)
(0.38017573 0.0024384805 0)
(0.37870753 0.0019526394 0)
(0.37768266 0.0014014142 0)
(0.37689626 0.0010042638 0)
(0.376234 0.00071875933 0)
(0.37570488 0.00049284607 0)
(0.3753213 0.00031614613 0)
(0.37506448 0.00018879653 0)
(0.37490273 0.00010417721 0)
(0.3748073 5.1595677e-05 0)
(0.37475582 2.125782e-05 0)
(0.37473137 5.5530337e-06 0)
(0.37472191 -1.3202379e-06 0)
(0.3747198 -3.4135938e-06 0)
(0.37472066 -3.3704622e-06 0)
(0.37472228 -2.5837952e-06 0)
(0.37472376 -1.7254722e-06 0)
(0.37472484 -1.0475697e-06 0)
(0.37472553 -5.8919626e-07 0)
(0.37472593 -3.0941022e-07 0)
(0.37472616 -1.5175149e-07 0)
(0.37472627 -6.871254e-08 0)
(0.37472633 -2.7767659e-08 0)
(0.37472635 -8.8687483e-09 0)
(0.37472636 -9.5445509e-10 0)
(0.37472637 1.9384809e-09 0)
(0.37472637 2.6647894e-09 0)
(0.37472637 2.5877127e-09 0)
(0.37472637 2.1846555e-09 0)
(0.37472637 1.7804549e-09 0)
(0.37472637 1.3695457e-09 0)
(0.37472637 1.0556927e-09 0)
(0.37472636 7.4039594e-10 0)
(0.37472636 5.1763295e-10 0)
(0.37472636 2.9813317e-10 0)
(0.37472636 1.6795984e-10 0)
(0.37472636 3.0801534e-11 0)
(0.37472636 -2.32281e-11 0)
(0.37472636 -7.1318719e-11 0)
(0.37472636 -4.6940663e-11 0)
(0.37472636 -4.2391533e-11 0)
(0.37472636 1.3102556e-11 0)
(0.37472636 5.0298527e-11 0)
(0.37472636 1.3518029e-10 0)
(0.37472636 1.6279192e-10 0)
(0.37472636 2.1861004e-10 0)
(0.37472636 2.1631087e-10 0)
(0.37472636 2.3588107e-10 0)
(0.37472636 1.8163444e-10 0)
(0.37472636 1.5084122e-10 0)
(0.37472636 6.742526e-11 0)
(0.37472636 1.8619365e-11 0)
(0.37472636 -7.588656e-11 0)
(0.37472636 -1.2832801e-10 0)
(0.37472636 -2.0787586e-10 0)
(0.37472636 -2.2620669e-10 0)
(0.37472636 -2.7440354e-10 0)
(0.37472636 -2.553479e-10 0)
(0.37472636 -2.5202809e-10 0)
(0.37472636 -1.8281852e-10 0)
(0.37472636 -1.4763083e-10 0)
(0.37472636 -5.8242573e-11 0)
(0.37472636 9.2358945e-14 0)
(0.37472636 1.0174343e-10 0)
(0.37472636 1.5143589e-10 0)
(0.37472636 2.3386008e-10 0)
(0.37472636 2.6291482e-10 0)
(0.37472636 3.1773989e-10 0)
(0.37472636 3.0052335e-10 0)
(0.37472636 3.0658239e-10 0)
(0.37472636 2.5392261e-10 0)
(0.37472636 2.2882113e-10 0)
(0.37472636 1.375694e-10 0)
(0.37472636 8.0485031e-11 0)
(0.37472636 -1.0255001e-11 0)
(0.37472636 -6.7319619e-11 0)
(0.37472636 -1.7037024e-10 0)
(0.37472636 -2.2121937e-10 0)
(0.37472636 -2.9634858e-10 0)
(0.37472636 -3.1042401e-10 0)
(0.37472636 -3.5672178e-10 0)
(0.37472636 -3.3817821e-10 0)
(0.37472636 -3.3739012e-10 0)
(0.37472636 -2.7003014e-10 0)
(0.37472636 -2.3301304e-10 0)
(0.37472636 -1.3006495e-10 0)
(0.37472636 -3.923155e-11 0)
(0.37472636 1.0531678e-10 0)
(0.37472636 2.4175873e-10 0)
(0.37472636 4.5480476e-10 0)
(0.37472636 7.5279526e-10 0)
(0.37472636 1.2612184e-09 0)
(0.37472636 2.1707451e-09 0)
(0.37472636 3.5910674e-09 0)
(0.37472636 6.2629252e-09 0)
(0.37472636 9.0321872e-09 0)
(0.37472634 1.9045375e-08 0)
(0.37472636 2.0890009e-08 0)
(0.49103604 0.00054421845 0)
(0.49342647 0.0021284157 0)
(0.49296547 0.0027153507 0)
(0.49248113 0.0024754848 0)
(0.49243092 0.002010446 0)
(0.49242829 0.0015956556 0)
(0.49230241 0.0012419901 0)
(0.49211585 0.00092246345 0)
(0.49194635 0.00064360876 0)
(0.49181697 0.00042071546 0)
(0.49172323 0.00025695425 0)
(0.49165814 0.0001449075 0)
(0.49161629 7.356403e-05 0)
(0.49159196 3.1882704e-05 0)
(0.49157927 1.0093935e-05 0)
(0.49157338 3.3212657e-07 0)
(0.49157109 -2.9714072e-06 0)
(0.49157056 -3.3427302e-06 0)
(0.49157068 -2.658598e-06 0)
(0.49157097 -1.7992218e-06 0)
(0.49157124 -1.0966336e-06 0)
(0.49157142 -6.170303e-07 0)
(0.49157154 -3.2404825e-07 0)
(0.49157161 -1.5923161e-07 0)
(0.49157164 -7.2556685e-08 0)
(0.49157166 -2.9762587e-08 0)
(0.49157167 -9.8871864e-09 0)
(0.49157168 -1.3507586e-09 0)
(0.49157168 1.9044288e-09 0)
(0.49157168 2.7973886e-09 0)
(0.49157168 2.7959675e-09 0)
(0.49157168 2.4151711e-09 0)
(0.49157168 1.9938102e-09 0)
(0.49157168 1.5352672e-09 0)
(0.49157168 1.1581504e-09 0)
(0.49157168 7.9325605e-10 0)
(0.49157168 5.2935935e-10 0)
(0.49157168 2.8311485e-10 0)
(0.49157168 1.2906404e-10 0)
(0.49157168 -1.4845051e-12 0)
(0.49157168 -4.3221844e-11 0)
(0.49157168 -6.9423813e-11 0)
(0.49157168 -2.6425314e-11 0)
(0.49157168 1.0359763e-11 0)
(0.49157168 1.0013698e-10 0)
(0.49157168 1.5356277e-10 0)
(0.49157168 2.3292737e-10 0)
(0.49157168 2.5806816e-10 0)
(0.49157168 2.9942858e-10 0)
(0.49157168 2.7462448e-10 0)
(0.49157168 2.5344528e-10 0)
(0.49157168 1.7422276e-10 0)
(0.49157168 1.0816655e-10 0)
(0.49157168 -3.541747e-12 0)
(0.49157168 -8.1722695e-11 0)
(0.49157168 -1.9041461e-10 0)
(0.49157168 -2.4402575e-10 0)
(0.49157168 -3.1689958e-10 0)
(0.49157168 -3.289362e-10 0)
(0.49157168 -3.4889317e-10 0)
(0.49157168 -3.0051331e-10 0)
(0.49157168 -2.6340271e-10 0)
(0.49157168 -1.7363281e-10 0)
(0.49157168 -9.4840294e-11 0)
(0.49157168 2.6521238e-11 0)
(0.49157168 1.0717952e-10 0)
(0.49157168 2.1664461e-10 0)
(0.49157168 2.7654652e-10 0)
(0.49157168 3.5995534e-10 0)
(0.49157168 3.7996393e-10 0)
(0.49157168 4.0917474e-10 0)
(0.49157168 3.755748e-10 0)
(0.49157168 3.5787283e-10 0)
(0.49157168 2.8006616e-10 0)
(0.49157168 2.1404885e-10 0)
(0.49157168 1.0018025e-10 0)
(0.49157168 1.4932422e-11 0)
(0.49157168 -1.0467481e-10 0)
(0.49157168 -1.8556929e-10 0)
(0.49157168 -2.9346196e-10 0)
(0.49157168 -3.4397631e-10 0)
(0.49157168 -4.1510221e-10 0)
(0.49157168 -4.2737666e-10 0)
(0.49157168 -4.5129298e-10 0)
(0.49157168 -4.0721654e-10 0)
(0.49157168 -3.7424219e-10 0)
(0.49157168 -2.811304e-10 0)
(0.49157168 -1.8952727e-10 0)
(0.49157168 -2.6148933e-11 0)
(0.49157168 1.2600087e-10 0)
(0.49157168 3.680135e-10 0)
(0.49157168 6.1583381e-10 0)
(0.49157168 1.1234165e-09 0)
(0.49157168 1.8006245e-09 0)
(0.49157168 3.0137771e-09 0)
(0.49157168 4.5418323e-09 0)
(0.49157168 7.5342363e-09 0)
(0.49157169 1.0039801e-08 0)
(0.49157166 1.8219401e-08 0)
(0.4915717 1.9307698e-08 0)
(0.5450612 0.00032344358 0)
(0.54820168 0.0014090959 0)
(0.54818013 0.0019234811 0)
(0.54831187 0.0018666473 0)
(0.54907581 0.0016062884 0)
(0.54987721 0.0013427423 0)
(0.55041697 0.0010958797 0)
(0.55074496 0.00085235068 0)
(0.55096237 0.00062313442 0)
(0.55111112 0.00042743691 0)
(0.5512033 0.00027476269 0)
(0.55125238 0.0001642582 0)
(0.55127467 8.9902287e-05 0)
(0.55128286 4.3823134e-05 0)
(0.55128441 1.7900492e-05 0)
(0.55128329 4.939091e-06 0)
(0.55128144 -4.741903e-07 0)
(0.55127976 -2.0899799e-06 0)
(0.55127857 -2.0901218e-06 0)
(0.55127782 -1.5722226e-06 0)
(0.55127738 -1.0219687e-06 0)
(0.55127714 -6.0195185e-07 0)
(0.55127702 -3.2770298e-07 0)
(0.55127696 -1.6622975e-07 0)
(0.55127693 -7.8129144e-08 0)
(0.55127692 -3.338347e-08 0)
(0.55127692 -1.1883111e-08 0)
(0.55127692 -2.4381367e-09 0)
(0.55127692 1.4108046e-09 0)
(0.55127692 2.5260569e-09 0)
(0.55127692 2.7352848e-09 0)
(0.55127692 2.3613951e-09 0)
(0.55127692 2.0278801e-09 0)
(0.55127692 1.509086e-09 0)
(0.55127692 1.1985923e-09 0)
(0.55127693 7.6330439e-10 0)
(0.55127693 5.6209883e-10 0)
(0.55127693 2.4808877e-10 0)
(0.55127693 1.7288379e-10 0)
(0.55127693 -1.3863692e-11 0)
(0.55127693 2.1962303e-11 0)
(0.55127693 -7.0006997e-11 0)
(0.55127693 4.3289545e-11 0)
(0.55127693 1.2959293e-11 0)
(0.55127693 1.6233261e-10 0)
(0.55127693 1.3660796e-10 0)
(0.55127693 2.7555315e-10 0)
(0.55127693 2.1805131e-10 0)
(0.55127693 3.0905553e-10 0)
(0.55127693 1.9684599e-10 0)
(0.55127693 2.3820988e-10 0)
(0.55127693 8.0627437e-11 0)
(0.55127693 8.7911684e-11 0)
(0.55127693 -8.2017291e-11 0)
(0.55127693 -8.3796143e-11 0)
(0.55127693 -2.4824165e-10 0)
(0.55127693 -2.2356215e-10 0)
(0.55127693 -3.5054203e-10 0)
(0.55127693 -2.7277302e-10 0)
(0.55127693 -3.4471484e-10 0)
(0.55127693 -2.163956e-10 0)
(0.55127693 -2.4306065e-10 0)
(0.55127693 -7.3083403e-11 0)
(0.55127693 -7.3599125e-11 0)
(0.55127693 1.0132214e-10 0)
(0.55127693 1.0582876e-10 0)
(0.55127693 2.7546459e-10 0)
(0.55127693 2.5545096e-10 0)
(0.55127693 3.8825598e-10 0)
(0.55127693 3.2199025e-10 0)
(0.55127693 4.0878635e-10 0)
(0.55127693 2.9435596e-10 0)
(0.55127693 3.3469989e-10 0)
(0.55127693 1.7824684e-10 0)
(0.55127693 1.8694769e-10 0)
(0.55127693 1.2872001e-11 0)
(0.55127693 2.6508109e-12 0)
(0.55127693 -1.7496738e-10 0)
(0.55127693 -1.7208656e-10 0)
(0.55127693 -3.323858e-10 0)
(0.55127693 -3.0341488e-10 0)
(0.55127693 -4.2909455e-10 0)
(0.55127693 -3.5281955e-10 0)
(0.55127693 -4.2920026e-10 0)
(0.55127693 -3.053659e-10 0)
(0.55127693 -3.3416157e-10 0)
(0.55127692 -1.5663731e-10 0)
(0.55127693 -1.3492023e-10 0)
(0.55127692 8.5085485e-11 0)
(0.55127693 1.7114036e-10 0)
(0.55127692 4.7816365e-10 0)
(0.55127693 6.8833895e-10 0)
(0.55127693 1.2882273e-09 0)
(0.55127693 1.9212272e-09 0)
(0.55127693 3.0582417e-09 0)
(0.55127693 4.1451588e-09 0)
(0.55127693 6.3339574e-09 0)
(0.55127694 7.7810139e-09 0)
(0.55127691 1.2531727e-08 0)
(0.55127696 1.2633298e-08 0)
(0.56663855 0.00010444367 0)
(0.57004621 0.00047982621 0)
(0.57011073 0.00067503777 0)
(0.57044592 0.00067263823 0)
(0.57157525 0.00059294363 0)
(0.57279335 0.00050705201 0)
(0.57371482 0.0004230643 0)
(0.57436572 0.00033634385 0)
(0.57484696 0.00025138966 0)
(0.57520045 0.00017636811 0)
(0.57544009 0.00011606235 0)
(0.57558703 7.1190982e-05 0)
(0.57566925 4.0186005e-05 0)
(0.57571115 2.0440565e-05 0)
(0.57572982 8.9877468e-06 0)
(0.57573622 3.0277307e-06 0)
(0.57573694 3.4981185e-07 0)
(0.57573559 -5.8058493e-07 0)
(0.57573394 -7.2653702e-07 0)
(0.57573261 -5.8745388e-07 0)
(0.57573171 -3.9487457e-07 0)
(0.57573117 -2.3595824e-07 0)
(0.57573087 -1.2835637e-07 0)
(0.57573071 -6.3755846e-08 0)
(0.57573063 -2.8318597e-08 0)
(0.57573059 -1.0408383e-08 0)
(0.57573058 -2.0608364e-09 0)
(0.57573058 1.3534006e-09 0)
(0.57573058 2.4936364e-09 0)
(0.57573058 2.6148173e-09 0)
(0.57573058 2.3539111e-09 0)
(0.57573058 1.9411318e-09 0)
(0.57573058 1.5431497e-09 0)
(0.57573058 1.153047e-09 0)
(0.57573058 8.4857577e-10 0)
(0.57573058 5.4738913e-10 0)
(0.57573058 3.4291211e-10 0)
(0.57573058 1.5847771e-10 0)
(0.57573058 8.3567064e-11 0)
(0.57573058 -2.9425676e-12 0)
(0.57573058 9.5859276e-12 0)
(0.57573058 2.1052897e-12 0)
(0.57573058 7.3739848e-11 0)
(0.57573058 9.0433198e-11 0)
(0.57573058 1.5940547e-10 0)
(0.57573058 1.7843576e-10 0)
(0.57573058 2.3089539e-10 0)
(0.57573058 2.0776671e-10 0)
(0.57573058 2.0439719e-10 0)
(0.57573058 1.3919621e-10 0)
(0.57573058 1.0918145e-10 0)
(0.57573058 1.1643274e-11 0)
(0.57573059 -3.5638306e-11 0)
(0.57573058 -1.280655e-10 0)
(0.57573058 -1.6095324e-10 0)
(0.57573058 -2.3308105e-10 0)
(0.57573058 -2.4584839e-10 0)
(0.57573058 -2.7291426e-10 0)
(0.57573058 -2.2787861e-10 0)
(0.57573058 -2.1405283e-10 0)
(0.57573058 -1.3910068e-10 0)
(0.57573058 -9.4185075e-11 0)
(0.57573058 9.193136e-12 0)
(0.57573058 4.9520999e-11 0)
(0.57573058 1.3903998e-10 0)
(0.57573058 1.8189594e-10 0)
(0.57573058 2.5838745e-10 0)
(0.57573058 2.6760135e-10 0)
(0.57573058 2.9717761e-10 0)
(0.57573058 2.6990313e-10 0)
(0.57573058 2.6994088e-10 0)
(0.57573058 1.993776e-10 0)
(0.57573059 1.5760186e-10 0)
(0.57573058 6.9757614e-11 0)
(0.57573059 3.0547728e-11 0)
(0.57573058 -6.5872882e-11 0)
(0.57573059 -1.0987266e-10 0)
(0.57573058 -1.9432701e-10 0)
(0.57573059 -2.1970349e-10 0)
(0.57573058 -2.8064269e-10 0)
(0.57573058 -2.8642568e-10 0)
(0.57573058 -3.0917681e-10 0)
(0.57573058 -2.6516923e-10 0)
(0.57573058 -2.5246903e-10 0)
(0.57573058 -1.8074916e-10 0)
(0.57573058 -1.3100631e-10 0)
(0.57573058 -1.731261e-11 0)
(0.57573058 5.719016e-11 0)
(0.57573058 1.9484669e-10 0)
(0.57573058 3.0840653e-10 0)
(0.57573058 5.0368655e-10 0)
(0.57573058 7.5315774e-10 0)
(0.57573058 1.16121e-09 0)
(0.57573058 1.6748277e-09 0)
(0.57573059 2.2678888e-09 0)
(0.57573059 2.7271753e-09 0)
(0.57573059 3.4956169e-09 0)
(0.5757306 3.7545763e-09 0)
(0.57573057 5.0509583e-09 0)
(0.57573063 4.8100954e-09 0)
(0.56663853 -0.00010445526 0)
(0.57004611 -0.00047986821 0)
(0.5701106 -0.00067506172 0)
(0.57044581 -0.00067262322 0)
(0.5715752 -0.00059291195 0)
(0.57279331 -0.00050704962 0)
(0.57371477 -0.00042310765 0)
(0.57436567 -0.00033642097 0)
(0.57484692 -0.00025148174 0)
(0.57520041 -0.00017646508 0)
(0.57544004 -0.00011615671 0)
(0.57558698 -7.1273575e-05 0)
(0.57566919 -4.024798e-05 0)
(0.57571109 -2.0477797e-05 0)
(0.57572976 -8.9987232e-06 0)
(0.57573616 -3.0182723e-06 0)
(0.57573689 -3.259228e-07 0)
(0.57573555 6.1245761e-07 0)
(0.5757339 7.6112794e-07 0)
(0.57573258 6.2180162e-07 0)
(0.57573169 4.2645569e-07 0)
(0.57573115 2.6404157e-07 0)
(0.57573085 1.5211147e-07 0)
(0.57573069 8.3659345e-08 0)
(0.57573062 4.4344909e-08 0)
(0.57573059 2.3501612e-08 0)
(0.57573058 1.2339252e-08 0)
(0.57573057 6.9803697e-09 0)
(0.57573057 3.9156019e-09 0)
(0.57573057 2.6537361e-09 0)
(0.57573058 1.5534353e-09 0)
(0.57573058 1.2411247e-09 0)
(0.57573058 6.3001846e-10 0)
(0.57573058 6.1503983e-10 0)
(0.57573058 1.7501076e-10 0)
(0.57573058 2.7471537e-10 0)
(0.57573058 -7.703898e-11 0)
(0.57573058 1.2429404e-10 0)
(0.57573058 -1.5173178e-10 0)
(0.57573058 1.0136159e-10 0)
(0.57573058 -1.2945287e-10 0)
(0.57573058 1.7493581e-10 0)
(0.57573058 -3.0630832e-11 0)
(0.57573058 2.5690235e-10 0)
(0.57573058 2.7828197e-11 0)
(0.57573058 2.9878779e-10 0)
(0.57573058 3.8764209e-11 0)
(0.57573058 2.5386831e-10 0)
(0.57573058 -4.4995878e-11 0)
(0.57573058 1.6521813e-10 0)
(0.57573058 -1.4183992e-10 0)
(0.57573058 4.6495426e-11 0)
(0.57573058 -2.674056e-10 0)
(0.57573058 -5.2709078e-11 0)
(0.57573058 -3.2730031e-10 0)
(0.57573058 -9.0935224e-11 0)
(0.57573058 -3.3017954e-10 0)
(0.57573058 -3.5784131e-11 0)
(0.57573058 -2.3982491e-10 0)
(0.57573058 5.7936297e-11 0)
(0.57573058 -1.429639e-10 0)
(0.57573058 1.7758606e-10 0)
(0.57573058 -1.5475251e-11 0)
(0.57573058 2.8333734e-10 0)
(0.57573058 6.9546822e-11 0)
(0.57573058 3.5063892e-10 0)
(0.57573058 1.0714968e-10 0)
(0.57573058 3.3472418e-10 0)
(0.57573058 4.9388324e-11 0)
(0.57573058 2.6883346e-10 0)
(0.57573058 -2.879763e-11 0)
(0.57573058 1.6551384e-10 0)
(0.57573058 -1.4481132e-10 0)
(0.57573058 6.2497851e-11 0)
(0.57573058 -2.3717912e-10 0)
(0.57573058 -4.2208548e-11 0)
(0.57573058 -3.3357459e-10 0)
(0.57573058 -9.517555e-11 0)
(0.57573058 -3.4786084e-10 0)
(0.57573058 -9.4057304e-11 0)
(0.57573058 -3.205465e-10 0)
(0.57573058 -1.9729619e-11 0)
(0.57573058 -2.2304342e-10 0)
(0.57573058 7.2677251e-11 0)
(0.57573058 -1.2247407e-10 0)
(0.57573058 2.0341171e-10 0)
(0.57573058 3.4724169e-11 0)
(0.57573058 3.5676975e-10 0)
(0.57573058 1.92566e-10 0)
(0.57573058 5.2555852e-10 0)
(0.57573058 4.0534794e-10 0)
(0.57573058 8.101626e-10 0)
(0.57573058 7.5782629e-10 0)
(0.57573058 1.1865811e-09 0)
(0.57573058 8.4050207e-10 0)
(0.57573059 8.0325822e-10 0)
(0.57573058 -9.8201863e-11 0)
(0.5757306 -9.2899315e-10 0)
(0.57573057 -2.9275664e-09 0)
(0.57573063 -3.1774537e-09 0)
(0.54506084 -0.00032344688 0)
(0.54820135 -0.0014090951 0)
(0.54817992 -0.0019234707 0)
(0.54831171 -0.0018666296 0)
(0.54907564 -0.0016062815 0)
(0.54987703 -0.0013427602 0)
(0.5504168 -0.0010959252 0)
(0.55074481 -0.00085241605 0)
(0.55096222 -0.00062321076 0)
(0.55111096 -0.00042751677 0)
(0.55120313 -0.00027483915 0)
(0.5512522 -0.00016432399 0)
(0.55127449 -8.9953118e-05 0)
(0.55128269 -4.3853399e-05 0)
(0.55128425 -1.7914041e-05 0)
(0.55128314 -4.9349629e-06 0)
(0.55128131 4.890612e-07 0)
(0.55127965 2.1116473e-06 0)
(0.55127848 2.1151659e-06 0)
(0.55127774 1.5975301e-06 0)
(0.55127732 1.0459599e-06 0)
(0.55127709 6.232504e-07 0)
(0.55127698 3.4614983e-07 0)
(0.55127693 1.8149786e-07 0)
(0.55127691 9.0783487e-08 0)
(0.5512769 4.3486405e-08 0)
(0.5512769 2.0139311e-08 0)
(0.55127691 8.9031739e-09 0)
(0.55127691 3.8489068e-09 0)
(0.55127691 1.4580897e-09 0)
(0.55127691 5.1682754e-10 0)
(0.55127692 -1.0815847e-11 0)
(0.55127692 -1.2857809e-10 0)
(0.55127692 -2.6971491e-10 0)
(0.55127692 -2.2697626e-10 0)
(0.55127692 -2.9175509e-10 0)
(0.55127692 -1.7801558e-10 0)
(0.55127692 -1.9169497e-10 0)
(0.55127692 -6.4019607e-11 0)
(0.55127692 -9.1456935e-11 0)
(0.55127692 4.0883984e-11 0)
(0.55127692 2.3070051e-11 0)
(0.55127692 1.2995905e-10 0)
(0.55127692 6.792992e-11 0)
(0.55127692 1.5295043e-10 0)
(0.55127692 7.337405e-11 0)
(0.55127692 1.1458479e-10 0)
(0.55127692 -1.1655215e-11 0)
(0.55127692 1.9545235e-11 0)
(0.55127692 -9.4910205e-11 0)
(0.55127692 -7.0982117e-11 0)
(0.55127692 -1.9518324e-10 0)
(0.55127692 -1.4077994e-10 0)
(0.55127692 -2.1553446e-10 0)
(0.55127692 -1.3382439e-10 0)
(0.55127692 -1.9259507e-10 0)
(0.55127692 -7.0157472e-11 0)
(0.55127692 -8.415126e-11 0)
(0.55127692 3.970108e-11 0)
(0.55127692 7.7780928e-12 0)
(0.55127692 1.3815754e-10 0)
(0.55127692 1.180132e-10 0)
(0.55127692 2.230754e-10 0)
(0.55127692 1.5582268e-10 0)
(0.55127692 2.3767978e-10 0)
(0.55127692 1.5364202e-10 0)
(0.55127692 1.9344642e-10 0)
(0.55127692 6.486754e-11 0)
(0.55127692 9.3249733e-11 0)
(0.55127692 -2.6361636e-11 0)
(0.55127692 -9.9129368e-12 0)
(0.55127692 -1.4439249e-10 0)
(0.55127692 -1.0948307e-10 0)
(0.55127693 -2.129267e-10 0)
(0.55127692 -1.7157288e-10 0)
(0.55127693 -2.6941942e-10 0)
(0.55127692 -1.8242093e-10 0)
(0.55127692 -2.2734434e-10 0)
(0.55127692 -1.209637e-10 0)
(0.55127692 -1.6449037e-10 0)
(0.55127692 -3.1315332e-11 0)
(0.55127692 -3.8037728e-11 0)
(0.55127692 9.1891916e-11 0)
(0.55127692 6.943623e-11 0)
(0.55127692 2.1216682e-10 0)
(0.55127692 2.1369872e-10 0)
(0.55127692 3.4355919e-10 0)
(0.55127692 3.113488e-10 0)
(0.55127692 4.2636279e-10 0)
(0.55127692 3.9970565e-10 0)
(0.55127692 5.0982783e-10 0)
(0.55127692 4.6477648e-10 0)
(0.55127692 5.0048063e-10 0)
(0.55127693 2.0861602e-10 0)
(0.55127692 -3.9530195e-10 0)
(0.55127693 -1.3081122e-09 0)
(0.55127692 -3.4840897e-09 0)
(0.55127694 -5.4496691e-09 0)
(0.55127691 -1.0721316e-08 0)
(0.55127696 -1.1222288e-08 0)
(0.49103556 -0.00054421596 0)
(0.49342602 -0.0021284368 0)
(0.49296508 -0.0027154069 0)
(0.49248082 -0.0024755415 0)
(0.49243062 -0.0020104842 0)
(0.49242798 -0.0015956779 0)
(0.4923021 -0.0012420146 0)
(0.49211556 -0.00092249732 0)
(0.49194609 -0.00064365035 0)
(0.49181672 -0.00042075839 0)
(0.49172298 -0.00025699366 0)
(0.49165789 -0.00014494195 0)
(0.49161607 -7.3590147e-05 0)
(0.49159175 -3.190197e-05 0)
(0.49157907 -1.0103622e-05 0)
(0.4915732 -3.3552264e-07 0)
(0.49157094 2.9754937e-06 0)
(0.49157042 3.3515457e-06 0)
(0.49157058 2.670641e-06 0)
(0.49157088 1.8121168e-06 0)
(0.49157117 1.1095433e-06 0)
(0.49157137 6.28606e-07 0)
(0.4915715 3.3440397e-07 0)
(0.49157157 1.6775916e-07 0)
(0.49157162 7.9867843e-08 0)
(0.49157164 3.5486457e-08 0)
(0.49157165 1.4744048e-08 0)
(0.49157166 5.0212158e-09 0)
(0.49157167 1.2577601e-09 0)
(0.49157167 -5.5548404e-10 0)
(0.49157167 -7.8653183e-10 0)
(0.49157167 -1.1123995e-09 0)
(0.49157168 -7.5242559e-10 0)
(0.49157167 -8.9246343e-10 0)
(0.49157168 -4.9689665e-10 0)
(0.49157168 -6.3925841e-10 0)
(0.49157168 -2.2704783e-10 0)
(0.49157168 -3.8771774e-10 0)
(0.49157168 -1.2882635e-11 0)
(0.49157168 -1.9896443e-10 0)
(0.49157168 1.6021521e-10 0)
(0.49157168 -6.8886835e-11 0)
(0.49157168 2.2552973e-10 0)
(0.49157168 -4.5667442e-11 0)
(0.49157168 2.2582417e-10 0)
(0.49157168 -8.6879214e-11 0)
(0.49157168 1.3284726e-10 0)
(0.49157168 -1.9135944e-10 0)
(0.49157168 4.7149428e-11 0)
(0.49157168 -2.7844772e-10 0)
(0.49157168 -4.5714168e-11 0)
(0.49157168 -3.3836435e-10 0)
(0.49157168 -4.7091228e-11 0)
(0.49157168 -3.0282631e-10 0)
(0.49157168 2.7568035e-13 0)
(0.49157168 -2.2237213e-10 0)
(0.49157168 1.2278298e-10 0)
(0.49157168 -9.6733394e-11 0)
(0.49157168 2.2759293e-10 0)
(0.49157168 3.0792437e-12 0)
(0.49157168 3.3590325e-10 0)
(0.49157168 8.2273121e-11 0)
(0.49157168 3.5406547e-10 0)
(0.49157168 6.6603064e-11 0)
(0.49157168 3.2198795e-10 0)
(0.49157168 -6.226805e-13 0)
(0.49157168 2.075374e-10 0)
(0.49157168 -1.2716688e-10 0)
(0.49157168 9.9369741e-11 0)
(0.49157168 -2.3962755e-10 0)
(0.49157168 -2.7062005e-11 0)
(0.49157168 -3.5177912e-10 0)
(0.49157168 -9.681104e-11 0)
(0.49157168 -3.9214128e-10 0)
(0.49157168 -1.261281e-10 0)
(0.49157168 -3.7832704e-10 0)
(0.49157168 -5.4894885e-11 0)
(0.49157168 -2.8155978e-10 0)
(0.49157168 4.2871077e-11 0)
(0.49157168 -1.645181e-10 0)
(0.49157168 1.8845772e-10 0)
(0.49157168 -2.6003076e-11 0)
(0.49157168 3.0782313e-10 0)
(0.49157168 9.6471885e-11 0)
(0.49157168 4.4201542e-10 0)
(0.49157168 2.1267779e-10 0)
(0.49157168 5.0316734e-10 0)
(0.49157168 2.4948061e-10 0)
(0.49157168 5.2733094e-10 0)
(0.49157168 2.5686203e-10 0)
(0.49157168 4.7944628e-10 0)
(0.49157168 1.4085379e-10 0)
(0.49157168 1.7609752e-10 0)
(0.49157168 -5.7536308e-10 0)
(0.49157168 -1.2080701e-09 0)
(0.49157168 -2.6702707e-09 0)
(0.49157168 -5.6684815e-09 0)
(0.49157169 -8.5104909e-09 0)
(0.49157166 -1.6923291e-08 0)
(0.4915717 -1.8260255e-08 0)
(0.38078525 -0.00066602417 0)
(0.38163118 -0.0021699304 0)
(0.38017526 -0.002438522 0)
(0.37870714 -0.001952689 0)
(0.37768229 -0.0014014357 0)
(0.37689589 -0.0010042492 0)
(0.37623365 -0.00071872811 0)
(0.3757046 -0.00049282167 0)
(0.37532107 -0.00031613531 0)
(0.37506429 -0.00018879384 0)
(0.37490255 -0.0001041761 0)
(0.37480713 -5.159488e-05 0)
(0.37475566 -2.1253657e-05 0)
(0.37473123 -5.5497736e-06 0)
(0.37472178 1.3237323e-06 0)
(0.37471968 3.4176814e-06 0)
(0.37472055 3.375379e-06 0)
(0.37472219 2.590038e-06 0)
(0.37472368 1.7321882e-06 0)
(0.37472477 1.0544115e-06 0)
(0.37472547 5.9535769e-07 0)
(0.37472589 3.1494631e-07 0)
(0.37472612 1.5628681e-07 0)
(0.37472624 7.2623326e-08 0)
(0.3747263 3.0814628e-08 0)
(0.37472633 1.1479486e-08 0)
(0.37472635 2.8727735e-09 0)
(0.37472635 -2.7965293e-10 0)
(0.37472636 -1.4627029e-09 0)
(0.37472636 -1.4661808e-09 0)
(0.37472636 -1.4517879e-09 0)
(0.37472636 -1.0592119e-09 0)
(0.37472636 -9.7020514e-10 0)
(0.37472636 -6.3560615e-10 0)
(0.37472636 -6.1417935e-10 0)
(0.37472636 -3.0983476e-10 0)
(0.37472636 -3.3722409e-10 0)
(0.37472636 -9.2388661e-11 0)
(0.37472636 -1.679533e-10 0)
(0.37472636 6.1344225e-11 0)
(0.37472636 -4.3513689e-11 0)
(0.37472636 1.2645297e-10 0)
(0.37472636 -2.0630631e-11 0)
(0.37472636 1.3461702e-10 0)
(0.37472636 -4.1716753e-11 0)
(0.37472636 6.7535663e-11 0)
(0.37472636 -1.2763967e-10 0)
(0.37472636 3.5893335e-13 0)
(0.37472636 -1.8402674e-10 0)
(0.37472636 -6.1255099e-11 0)
(0.37472636 -2.2748845e-10 0)
(0.37472636 -5.764609e-11 0)
(0.37472636 -1.94259e-10 0)
(0.37472636 -2.3056673e-11 0)
(0.37472636 -1.4068779e-10 0)
(0.37472636 6.8511333e-11 0)
(0.37472636 -3.71515e-11 0)
(0.37472636 1.5092212e-10 0)
(0.37472636 3.337543e-11 0)
(0.37472636 2.2916839e-10 0)
(0.37472636 9.0465086e-11 0)
(0.37472636 2.3606615e-10 0)
(0.37472636 6.8589745e-11 0)
(0.37472636 2.1095101e-10 0)
(0.37472636 2.5031845e-11 0)
(0.37472636 1.2627478e-10 0)
(0.37472636 -7.6250761e-11 0)
(0.37472636 3.8738306e-11 0)
(0.37472636 -1.6089651e-10 0)
(0.37472636 -5.8077119e-11 0)
(0.37472636 -2.4876001e-10 0)
(0.37472636 -1.0434978e-10 0)
(0.37472636 -2.6612784e-10 0)
(0.37472636 -1.1782778e-10 0)
(0.37472636 -2.553314e-10 0)
(0.37472636 -6.2682651e-11 0)
(0.37472636 -1.7930352e-10 0)
(0.37472636 6.8744065e-12 0)
(0.37472636 -9.8586027e-11 0)
(0.37472636 1.2205671e-10 0)
(0.37472636 2.0599329e-11 0)
(0.37472636 2.138529e-10 0)
(0.37472636 1.0224637e-10 0)
(0.37472636 3.0442086e-10 0)
(0.37472636 1.7718178e-10 0)
(0.37472636 3.3217688e-10 0)
(0.37472636 1.8247216e-10 0)
(0.37472636 3.3655334e-10 0)
(0.37472636 1.7082295e-10 0)
(0.37472636 2.9104471e-10 0)
(0.37472636 8.1398313e-11 0)
(0.37472636 1.3256768e-10 0)
(0.37472636 -3.082797e-10 0)
(0.37472636 -6.2905101e-10 0)
(0.37472636 -1.4410299e-09 0)
(0.37472636 -2.621835e-09 0)
(0.37472636 -5.528629e-09 0)
(0.37472636 -8.4558938e-09 0)
(0.37472634 -1.8417244e-08 0)
(0.37472636 -2.0346855e-08 0)
(0.17553867 -0.0004351681 0)
(0.17457701 -0.0010343987 0)
(0.17267456 -0.00093838852 0)
(0.1711526 -0.00059916545 0)
(0.17016508 -0.00034679783 0)
(0.16950962 -0.00021271624 0)
(0.16904648 -0.00013587459 0)
(0.16872307 -8.2198811e-05 0)
(0.16851176 -4.4831775e-05 0)
(0.16838389 -2.1719392e-05 0)
(0.1683121 -8.8535211e-06 0)
(0.16827538 -2.2102494e-06 0)
(0.16825929 8.4121883e-07 0)
(0.16825439 1.8415005e-06 0)
(0.16825469 1.8691253e-06 0)
(0.16825678 1.498593e-06 0)
(0.16825904 1.0525581e-06 0)
(0.16826086 6.7107916e-07 0)
(0.16826212 3.9562974e-07 0)
(0.1682629 2.181326e-07 0)
(0.16826336 1.1234331e-07 0)
(0.16826361 5.4014286e-08 0)
(0.16826373 2.3562396e-08 0)
(0.16826379 9.0935471e-09 0)
(0.16826382 2.3879109e-09 0)
(0.16826383 -4.4083797e-11 0)
(0.16826384 -1.0488355e-09 0)
(0.16826384 -9.6057047e-10 0)
(0.16826384 -9.7745671e-10 0)
(0.16826384 -6.2612701e-10 0)
(0.16826384 -6.2534837e-10 0)
(0.16826383 -3.1414031e-10 0)
(0.16826383 -3.8588275e-10 0)
(0.16826383 -1.3328939e-10 0)
(0.16826383 -2.3669659e-10 0)
(0.16826383 -4.8253636e-13 0)
(0.16826383 -1.4519922e-10 0)
(0.16826383 6.4629056e-11 0)
(0.16826383 -9.3039347e-11 0)
(0.16826383 1.0144829e-10 0)
(0.16826383 -7.999024e-11 0)
(0.16826383 9.794066e-11 0)
(0.16826383 -8.0112225e-11 0)
(0.16826383 9.7098375e-11 0)
(0.16826383 -9.873778e-11 0)
(0.16826383 6.924829e-11 0)
(0.16826383 -1.1217015e-10 0)
(0.16826383 6.4703258e-11 0)
(0.16826383 -1.2714028e-10 0)
(0.16826383 5.1321346e-11 0)
(0.16826383 -1.2282069e-10 0)
(0.16826383 6.9268919e-11 0)
(0.16826383 -1.1151311e-10 0)
(0.16826383 7.6629712e-11 0)
(0.16826383 -8.6511802e-11 0)
(0.16826383 1.0884889e-10 0)
(0.16826383 -6.7837879e-11 0)
(0.16826383 1.1782857e-10 0)
(0.16826383 -5.1706956e-11 0)
(0.16826383 1.375966e-10 0)
(0.16826383 -5.2314273e-11 0)
(0.16826383 1.2277594e-10 0)
(0.16826383 -6.1409596e-11 0)
(0.16826383 1.1541103e-10 0)
(0.16826383 -8.3508828e-11 0)
(0.16826383 8.1894564e-11 0)
(0.16826383 -1.0395198e-10 0)
(0.16826383 6.8441794e-11 0)
(0.16826383 -1.2842593e-10 0)
(0.16826383 4.2578355e-11 0)
(0.16826383 -1.3929492e-10 0)
(0.16826383 4.5238274e-11 0)
(0.16826383 -1.4197679e-10 0)
(0.16826383 4.2477803e-11 0)
(0.16826383 -1.2474098e-10 0)
(0.16826383 7.294684e-11 0)
(0.16826383 -1.0367159e-10 0)
(0.16826383 8.6853697e-11 0)
(0.16826383 -7.3840731e-11 0)
(0.16826383 1.2146681e-10 0)
(0.16826383 -5.4274464e-11 0)
(0.16826383 1.3577771e-10 0)
(0.16826383 -3.0217812e-11 0)
(0.16826383 1.6348503e-10 0)
(0.16826383 -2.0671241e-11 0)
(0.16826383 1.5814355e-10 0)
(0.16826383 -2.017669e-11 0)
(0.16826383 1.579999e-10 0)
(0.16826383 -3.6652e-11 0)
(0.16826383 1.2972588e-10 0)
(0.16826383 -7.7485246e-11 0)
(0.16826383 4.3911783e-11 0)
(0.16826383 -2.8840541e-10 0)
(0.16826383 -3.0573233e-10 0)
(0.16826383 -7.3404313e-10 0)