/*--------------------------------*- C++ -*----------------------------------*\
| =========                 |                                                 |
| \\      /  F ield         | OpenFOAM: The Open Source CFD Toolbox           |
|  \\    /   O peration     | Version:  v1812                                 |
|   \\  /    A nd           | Web:      www.OpenFOAM.com                      |
|    \\/     M anipulation  |                                                 |
\*---------------------------------------------------------------------------*/
FoamFile
{
    version     2.0;
    format      ascii;
    class       surfaceScalarField;
    location    "8";
    object      phi;
}
// * * * * * * * * * * * * * * * * * * * * * * * * * * * * * * * * * * * * * //

dimensions      [0 3 -1 0 0 0 0];
oriented        oriented;


internalField   nonuniform List<scalar> 
1890
(
0.0024647383
4.0794483e-06
0.002451955
1.2784199e-05
0.0024373772
1.4577874e-05
0.0024251103
1.2266553e-05
0.002415856
9.254077e-06
0.0024087906
7.0652607e-06
0.0024031026
5.6879221e-06
0.0023983748
4.7276524e-06
0.0023944233
3.9514375e-06
0.0023911203
3.3030459e-06
0.0023883393
2.7809928e-06
0.0023859676
2.3718172e-06
0.0023839202
2.0475574e-06
0.0023821387
1.7816254e-06
0.0023805821
1.5567485e-06
0.0023792188
1.3634191e-06
0.0023780231
1.1958616e-06
0.0023769736
1.0496112e-06
0.0023760528
9.2095779e-07
0.002375246
8.0696629e-07
0.0023745407
7.0543794e-07
0.0023739262
6.1468804e-07
0.002373393
5.3337512e-07
0.0023729328
4.6038599e-07
0.0023725381
3.9481406e-07
0.0023722023
3.359286e-07
0.0023719193
2.8316522e-07
0.0023716834
2.3608903e-07
0.0023714892
1.9437036e-07
0.0023713316
1.5774326e-07
0.0023712057
1.2597284e-07
0.002371107
9.8818537e-08
0.0023710312
7.600703e-08
0.0023709741
5.7216899e-08
0.0023709321
4.2071735e-08
0.002370902
3.0152416e-08
0.0023708811
2.1007255e-08
0.002370867
1.418407e-08
0.0023708578
9.2434074e-09
0.0023708521
5.7821853e-09
0.0023708487
3.4412301e-09
0.0023708468
1.9218213e-09
0.0023708458
9.7891713e-10
0.0023708454
4.2743394e-10
0.0023708453
1.2383231e-10
0.0023708454
-1.2423289e-11
0.0023708454
-6.8528165e-11
0.0023708455
-7.9095332e-11
0.0023708456
-6.9405223e-11
0.0023708457
-5.1464979e-11
0.0023708457
-3.5122118e-11
0.0023708457
-2.0696477e-11
0.0023708458
-1.1328504e-11
0.0023708458
-4.2980479e-12
0.0023708458
-9.2757145e-13
0.0023708458
1.4134338e-12
0.0023708458
1.4965844e-12
0.0023708458
2.0315912e-12
0.0023708457
9.6100844e-13
0.0023708457
8.0281649e-13
0.0023708457
-3.9094775e-13
0.0023708457
-5.2802123e-13
0.0023708457
-1.6618393e-12
0.0023708457
-1.4917986e-12
0.0023708457
-2.3508454e-12
0.0023708457
-1.8369208e-12
0.0023708457
-2.4286889e-12
0.0023708457
-1.6623567e-12
0.0023708457
-1.9674131e-12
0.0023708458
-9.9886723e-13
0.0023708458
-1.1129639e-12
0.0023708458
-1.7977377e-13
0.0023708458
-6.3206683e-14
0.0023708458
9.3859548e-13
0.0023708458
8.4537744e-13
0.0023708458
1.8508018e-12
0.0023708458
1.6442535e-12
0.0023708458
2.5749241e-12
0.0023708458
2.1738652e-12
0.0023708458
2.9293547e-12
0.0023708458
2.3786211e-12
0.0023708458
2.9960374e-12
0.0023708458
2.2638232e-12
0.0023708458
2.6945863e-12
0.0023708458
1.89311e-12
0.0023708458
2.2142684e-12
0.0023708458
1.4098848e-12
0.0023708458
1.6133097e-12
0.0023708457
1.0668983e-12
0.0023708457
1.2971947e-12
0.0023708457
1.345472e-12
0.0023708457
1.8988164e-12
0.0023708457
3.4358118e-12
0.0023708457
5.6742258e-12
0.0023708457
1.2206732e-11
0.0023708457
2.0698078e-11
0.0023708456
4.0521873e-11
0.0023708456
6.3698363e-11
0.0023708454
1.2946102e-10
1.7433545e-10
0.0058437852
4.4662163e-06
0.0058387599
1.7810859e-05
0.0058298791
2.3458977e-05
0.0058199156
2.2229687e-05
0.005810468
1.8701472e-05
0.0058018788
1.5654497e-05
0.0057940825
1.3484126e-05
0.005787037
1.1773019e-05
0.005780753
1.0235379e-05
0.0057752157
8.8403021e-06
0.005770362
7.6346654e-06
0.0057661067
6.6272498e-06
0.0057623687
5.7856082e-06
0.0057590808
5.0695858e-06
0.0057561873
4.4502984e-06
0.0057536406
3.9102486e-06
0.0057513991
3.437396e-06
0.0057494272
3.0216082e-06
0.0057476942
2.6540369e-06
0.0057461739
2.3274241e-06
0.0057448434
2.0360516e-06
0.0057436828
1.7753894e-06
0.0057426745
1.5417215e-06
0.005741803
1.3319549e-06
0.0057410544
1.143523e-06
0.0057404161
9.7434534e-07
0.0057398766
8.2276671e-07
0.0057394253
6.8749783e-07
0.0057390523
5.6753395e-07
0.0057387481
4.6206815e-07
0.0057385037
3.7039533e-07
0.0057383109
2.9181677e-07
0.0057381614
2.2556568e-07
0.005738048
1.7075063e-07
0.0057379638
1.2634462e-07
0.0057379028
9.1190536e-08
0.0057378599
6.4050881e-08
0.0057378305
4.3654583e-08
0.005737811
2.8768318e-08
0.0057377986
1.8237993e-08
0.005737791
1.1043133e-08
0.0057377867
6.3108648e-09
0.0057377844
3.3338553e-09
0.0057377833
1.555804e-09
0.0057377829
5.6465337e-10
0.0057377828
6.523757e-11
0.0057377829
-1.4949654e-10
0.005737783
-2.1038908e-10
0.0057377832
-1.9567059e-10
0.0057377833
-1.5439419e-10
0.0057377834
-1.0819079e-10
0.0057377834
-6.9771199e-11
0.0057377834
-4.0031405e-11
0.0057377835
-2.0718798e-11
0.0057377835
-7.9687996e-12
0.0057377835
-1.4957283e-12
0.0057377835
2.2021835e-12
0.0057377835
2.7863132e-12
0.0057377835
3.0034551e-12
0.0057377834
1.6907537e-12
0.0057377834
9.5754336e-13
0.0057377834
-5.0927126e-13
0.0057377834
-1.1388399e-12
0.0057377834
-2.4031083e-12
0.0057377834
-2.5001414e-12
0.0057377834
-3.307076e-12
0.0057377834
-2.9841627e-12
0.0057377834
-3.3864184e-12
0.0057377834
-2.6309279e-12
0.0057377834
-2.6298929e-12
0.0057377835
-1.6649668e-12
0.0057377835
-1.4101352e-12
0.0057377835
-3.3043238e-13
0.0057377835
1.7462056e-13
0.0057377835
1.2089107e-12
0.0057377835
1.4996981e-12
0.0057377835
2.640861e-12
0.0057377835
2.7650959e-12
0.0057377835
3.7214507e-12
0.0057377835
3.5824865e-12
0.0057377835
4.3801414e-12
0.0057377835
4.0287599e-12
0.0057377835
4.5532169e-12
0.0057377835
3.9276037e-12
0.0057377835
4.3372339e-12
0.0057377835
3.5606871e-12
0.0057377835
3.9126123e-12
0.0057377835
3.018619e-12
0.0057377835
3.7529881e-12
0.0057377835
3.0230955e-12
0.0057377835
4.8114249e-12
0.0057377834
4.7252958e-12
0.0057377834
9.5873532e-12
0.0057377834
1.2952398e-11
0.0057377834
2.6265982e-11
0.0057377834
3.962171e-11
0.0057377834
7.1636415e-11
0.0057377833
1.0825481e-10
0.0057377833
1.739764e-10
2.294012e-10
0.0080133347
3.1347554e-06
0.0080165438
1.4603081e-05
0.0080190299
2.0972929e-05
0.0080199871
2.1272335e-05
0.0080198263
1.8862244e-05
0.008018957
1.6523877e-05
0.0080176116
1.48295e-05
0.0080159485
1.3435959e-05
0.008014114
1.2069689e-05
0.0080122279
1.0726401e-05
0.0080103697
9.4928152e-06
0.0080085859
8.411116e-06
0.0080069027
7.4688762e-06
0.0080053351
6.63717e-06
0.0080038906
5.8948969e-06
0.0080025704
5.2305082e-06
0.0080013717
4.6360896e-06
0.0080002895
4.103929e-06
0.0079993171
3.6264551e-06
0.0079984476
3.1970126e-06
0.0079976736
2.810128e-06
0.0079969878
2.4612552e-06
0.0079963831
2.1464987e-06
0.0079958526
1.8624577e-06
0.00799539
1.6062039e-06
0.0079949892
1.375262e-06
0.0079946444
1.1675964e-06
0.0079943505
9.8155983e-07
0.0079941022
8.1584028e-07
0.007993895
6.6937217e-07
0.0079937243
5.4124125e-07
0.0079935856
4.3057169e-07
0.0079934748
3.3642804e-07
0.0079933879
2.5773844e-07
0.0079933211
1.9325407e-07
0.0079932708
1.4155323e-07
0.0079932338
1.0107418e-07
0.0079932074
7.0184693e-08
0.0079931889
4.7253496e-08
0.0079931765
3.0729089e-08
0.0079931684
1.9197197e-08
0.0079931633
1.1430271e-08
0.0079931603
6.4004644e-09
0.0079931586
3.2907336e-09
0.0079931577
1.4719164e-09
0.0079931573
4.8617221e-10
0.0079931571
-1.8889662e-12
0.0079931571
-1.9375719e-10
0.0079931572
-2.3550921e-10
0.0079931572
-2.0813607e-10
0.0079931573
-1.588362e-10
0.0079931573
-1.0874785e-10
0.0079931574
-6.841972e-11
0.0079931574
-3.8724144e-11
0.0079931574
-1.9524877e-11
0.0079931574
-7.6765935e-12
0.0079931574
-1.4918388e-12
0.0079931574
1.5811612e-12
0.0079931574
2.0461311e-12
0.0079931574
1.9356134e-12
0.0079931574
8.9394815e-13
0.0079931574
-6.199052e-14
0.0079931574
-1.1143036e-12
0.0079931574
-1.7176854e-12
0.0079931574
-2.5254375e-12
0.0079931574
-2.6325777e-12
0.0079931574
-3.0364713e-12
0.0079931574
-2.7007622e-12
0.0079931574
-2.7222222e-12
0.0079931574
-2.0957106e-12
0.0079931574
-1.8203333e-12
0.0079931574
-1.0167565e-12
0.0079931574
-4.1420093e-13
0.0079931574
3.137192e-13
0.0079931574
9.2621579e-13
0.0079931574
1.7962434e-12
0.0079931574
2.2208369e-12
0.0079931574
3.0572756e-12
0.0079931574
3.2806994e-12
0.0079931574
3.9840736e-12
0.0079931574
4.0114297e-12
0.0079931574
4.4923121e-12
0.0079931574
4.3034145e-12
0.0079931574
4.5821403e-12
0.0079931574
4.2844972e-12
0.0079931574
4.3679773e-12
0.0079931574
4.1189632e-12
0.0079931574
4.1534471e-12
0.0079931574
4.3481913e-12
0.0079931574
4.5744984e-12
0.0079931574
5.945694e-12
0.0079931574
7.1786685e-12
0.0079931574
1.2240658e-11
0.0079931574
1.7697132e-11
0.0079931574
3.0604866e-11
0.0079931574
4.5266893e-11
0.0079931574
7.2176589e-11
0.0079931574
1.061295e-10
0.0079931574
1.5374094e-10
1.9802281e-10
0.009281091
1.5419475e-06
0.0092878544
7.8409795e-06
0.009297023
1.1804586e-05
0.0093058825
1.2412626e-05
0.0093134585
1.1286291e-05
0.0093198907
1.0091715e-05
0.0093254759
9.2441988e-06
0.0093303604
8.55136e-06
0.0093345964
7.8335179e-06
0.009338237
7.085699e-06
0.0093413591
6.3707728e-06
0.0093440449
5.7253734e-06
0.0093463651
5.1486662e-06
0.0093483754
4.626891e-06
0.0093501201
4.150277e-06
0.0093516359
3.7147661e-06
0.009352954
3.3180177e-06
0.0093541008
2.9571976e-06
0.0093550983
2.6289788e-06
0.0093559651
2.3302611e-06
0.009356717
2.0583887e-06
0.0093573672
1.8111035e-06
0.0093579274
1.5863543e-06
0.0093584076
1.3822836e-06
0.0093588167
1.1971998e-06
0.0093591624
1.0296352e-06
0.0093594518
8.7832253e-07
0.0093596912
7.4221733e-07
0.0093598867
6.2045271e-07
0.0093600438
5.1232308e-07
0.0093601679
4.172142e-07
0.0093602641
3.3455036e-07
0.0093603368
2.6372117e-07
0.0093603906
2.0403005e-07
0.0093604293
1.5466148e-07
0.0093604563
1.1466865e-07
0.0093604744
8.300024e-08
0.0093604861
5.8527877e-08
0.0093604933
4.0110376e-08
0.0093604975
2.6631595e-08
0.0093604997
1.7064773e-08
0.0093605006
1.0491133e-08
0.0093605009
6.1376869e-09
0.0093605009
3.36645e-09
0.0093605007
1.6873388e-09
0.0093605005
7.2530665e-10
0.0093605003
2.1697241e-10
0.0093605001
-2.4610035e-11
0.0093605
-1.1184092e-10
0.0093604999
-1.2666698e-10
0.0093604999
-1.0663615e-10
0.0093604999
-7.9976201e-11
0.0093604999
-5.2526124e-11
0.0093604998
-3.311409e-11
0.0093604998
-1.7591154e-11
0.0093604998
-9.5042196e-12
0.0093604999
-3.3397277e-12
0.0093604999
-1.5203027e-12
0.0093604999
3.2228215e-13
0.0093604999
-2.8498304e-13
0.0093604999
-1.5265987e-14
0.0093604998
-1.2676501e-12
0.0093604998
-7.8488954e-13
0.0093604998
-2.1076528e-12
0.0093604998
-1.3215893e-12
0.0093604998
-2.409173e-12
0.0093604998
-1.2911555e-12
0.0093604998
-2.1026485e-12
0.0093604998
-8.6942089e-13
0.0093604998
-1.4333335e-12
0.0093604998
-1.9881466e-13
0.0093604998
-4.3750475e-13
0.0093604998
8.1975851e-13
0.0093604998
4.6615841e-13
0.0093604999
1.8713916e-12
0.0093604999
1.337442e-12
0.0093604999
2.7747878e-12
0.0093604999
2.053419e-12
0.0093604999
3.4890188e-12
0.0093604999
2.5998906e-12
0.0093604999
3.8963461e-12
0.0093604999
2.8322549e-12
0.0093604999
4.0592095e-12
0.0093604999
2.8724678e-12
0.0093604999
4.0050155e-12
0.0093604999
2.7551621e-12
0.0093604999
4.0345653e-12
0.0093604999
2.8509992e-12
0.0093604999
4.5013822e-12
0.0093604999
3.5651077e-12
0.0093604999
6.2604544e-12
0.0093604999
6.52412e-12
0.0093604999
1.216997e-11
0.0093604999
1.5703102e-11
0.0093604999
2.6211928e-11
0.0093604999
3.4184201e-11
0.0093604999
5.1255848e-11
0.0093604999
6.8996185e-11
0.0093605
9.4823584e-11
1.204805e-10
0.0098610469
4.3549597e-11
0.0098688893
1.1151655e-10
0.0098806941
-1.2744801e-11
0.0098931066
-1.6108009e-10
0.009904393
-1.773414e-10
0.009914485
-1.3558088e-10
0.0099237293
-1.3366243e-10
0.0099322806
-1.6963469e-10
0.0099401142
-1.9122755e-10
0.0099472
-1.8792922e-10
0.009953571
-1.636057e-10
0.0099592965
-1.4826575e-10
0.0099644454
-1.3057168e-10
0.0099690724
-1.1661656e-10
0.0099732228
-9.2624994e-11
0.0099769377
-7.0619323e-11
0.0099802559
-4.4735787e-11
0.0099832132
-2.6267455e-11
0.0099858422
-7.9850705e-12
0.0099881725
2.4619737e-12
0.009990231
1.2391276e-11
0.0099920422
1.5178789e-11
0.0099936286
1.8183773e-11
0.009995011
1.720508e-11
0.0099962082
1.927025e-11
0.0099972379
2.1178467e-11
0.0099981163
2.8110875e-11
0.0099988586
3.770983e-11
0.0099994791
5.2447158e-11
0.0099999915
6.9936128e-11
0.010000409
9.003793e-11
0.010000743
1.1118688e-10
0.010001007
1.3166538e-10
0.010001211
1.5115261e-10
0.010001365
1.6700663e-10
0.01000148
1.8020388e-10
0.010001563
1.8785645e-10
0.010001621
1.9251951e-10
0.010001661
1.9094943e-10
0.010001688
1.862342e-10
0.010001705
1.7547344e-10
0.010001715
1.6305422e-10
0.010001721
1.4629019e-10
0.010001724
1.2932747e-10
0.010001726
1.0946673e-10
0.010001727
9.1675683e-11
0.010001727
7.2973787e-11
0.010001727
5.7442166e-11
0.010001727
4.223148e-11
0.010001726
3.1351576e-11
0.010001726
2.0926075e-11
0.010001726
1.4426097e-11
0.010001726
7.949962e-12
0.010001726
4.8905058e-12
0.010001726
1.3727481e-12
0.010001726
3.2071362e-13
0.010001726
-1.7190117e-12
0.010001726
-1.4805468e-12
0.010001726
-2.6901913e-12
0.010001726
-1.9013698e-12
0.010001726
-2.8825474e-12
0.010001726
-1.7742979e-12
0.010001726
-2.3751501e-12
0.010001726
-1.2233896e-12
0.010001726
-1.7322004e-12
0.010001726
-4.8095275e-13
0.010001726
-8.1009871e-13
0.010001726
3.3764466e-13
0.010001726
-1.2462201e-13
0.010001726
1.0671704e-12
0.010001726
5.9560961e-13
0.010001726
1.7586063e-12
0.010001726
1.0830149e-12
0.010001726
2.2085585e-12
0.010001726
1.5290092e-12
0.010001726
2.5073915e-12
0.010001726
1.6614891e-12
0.010001726
2.5795157e-12
0.010001726
1.7831377e-12
0.010001726
2.5493104e-12
0.010001726
1.6170427e-12
0.010001726
2.3439701e-12
0.010001726
1.4927383e-12
0.010001726
2.1594147e-12
0.010001726
1.225094e-12
0.010001726
2.0490005e-12
0.010001726
1.3644842e-12
0.010001726
2.3699926e-12
0.010001726
1.8546174e-12
0.010001726
3.2606566e-12
0.010001726
3.4090504e-12
0.010001726
5.9647107e-12
0.010001726
7.2383552e-12
0.010001726
1.1020829e-11
0.010001726
1.2787689e-11
0.010001726
1.4685297e-11
0.010001726
1.6187263e-11
0.010001726
1.5433059e-11
0.010001726
1.6863745e-11
2.0250341e-11
0.0098610461
-1.5419998e-06
0.0098688885
-7.8412075e-06
0.0098806933
-1.1804687e-05
0.0098931057
-1.2412706e-05
0.0099043922
-1.128653e-05
0.0099144841
-1.0092072e-05
0.0099237285
-9.2445628e-06
0.0099322798
-8.5517026e-06
0.0099401134
-7.8338474e-06
0.0099471992
-7.0860287e-06
0.0099535701
-6.3710886e-06
0.0099592957
-5.7256686e-06
0.0099644445
-5.1489265e-06
0.0099690715
-4.6271153e-06
0.009973222
-4.1504566e-06
0.0099769369
-3.714904e-06
0.009980255
-3.3181114e-06
0.0099832123
-2.9572558e-06
0.0099858414
-2.6290045e-06
0.0099881717
-2.3302655e-06
0.0099902302
-2.0583765e-06
0.0099920414
-1.8110849e-06
0.0099936279
-1.5863313e-06
0.0099950102
-1.3822608e-06
0.0099962075
-1.1971738e-06
0.0099972373
-1.0296042e-06
0.0099981157
-8.7827853e-07
0.009998858
-7.4215435e-07
0.0099994785
-6.20362e-07
0.0099999909
-5.1219937e-07
0.010000408
-4.1705279e-07
0.010000743
-3.3434988e-07
0.010001006
-2.6348248e-07
0.01000121
-2.0375612e-07
0.010001365
-1.543581e-07
0.01000148
-1.1434222e-07
0.010001563
-8.265959e-08
0.010001621
-5.81802e-08
0.010001661
-3.9765749e-08
0.010001688
-2.6297484e-08
0.010001705
-1.6750164e-08
0.010001715
-1.020057e-08
0.010001721
-5.8772372e-09
0.010001724
-3.1384093e-09
0.010001726
-1.4945032e-09
0.010001727
-5.6658603e-10
0.010001727
-9.078642e-11
0.010001727
1.2248792e-10
0.010001727
1.8362432e-10
0.010001727
1.7850173e-10
0.010001726
1.4104029e-10
0.010001726
1.0242429e-10
0.010001726
6.4805063e-11
0.010001726
3.9567928e-11
0.010001726
1.8885378e-11
0.010001726
8.5173845e-12
0.010001726
-2.4700764e-13
0.010001726
-2.1674453e-12
0.010001726
-5.4087999e-12
0.010001726
-3.8537661e-12
0.010001726
-5.1352587e-12
0.010001726
-2.5729625e-12
0.010001726
-3.235557e-12
0.010001726
-8.6713523e-13
0.010001726
-1.305766e-12
0.010001726
8.9132141e-13
0.010001726
3.5364302e-13
0.010001726
2.1554209e-12
0.010001726
1.1644448e-12
0.010001726
3.040161e-12
0.010001726
1.689107e-12
0.010001726
3.3092892e-12
0.010001726
1.7269579e-12
0.010001726
3.2810161e-12
0.010001726
1.5401292e-12
0.010001726
2.8315655e-12
0.010001726
1.0287855e-12
0.010001726
2.2751922e-12
0.010001726
5.2482493e-13
0.010001726
1.4767037e-12
0.010001726
-8.1004371e-14
0.010001726
8.9997701e-13
0.010001726
-5.6532974e-13
0.010001726
4.0561165e-13
0.010001726
-9.7086482e-13
0.010001726
3.6943578e-13
0.010001726
-8.4350671e-13
0.010001726
7.6780241e-13
0.010001726
-2.9078042e-13
0.010001726
1.8996461e-12
0.010001726
7.896282e-13
0.010001726
3.7208391e-12
0.010001726
1.6935559e-12
0.010001726
3.4244698e-12
0.010001726
-2.7076884e-12
0.010001726
-7.6248624e-12
0.010001726
-2.1740997e-11
0.010001726
-4.0911343e-11
0.010001726
-6.3687603e-11
-8.4910296e-11
0.0092810897
-3.1347001e-06
0.0092878529
-1.4602968e-05
0.0092970214
-2.0973028e-05
0.009305881
-2.1272558e-05
0.0093134568
-1.8862461e-05
0.0093198889
-1.6524059e-05
0.009325474
-1.4829716e-05
0.0093303584
-1.3436203e-05
0.0093345943
-1.2069961e-05
0.0093382349
-1.0726662e-05
0.0093413569
-9.4930719e-06
0.0093440426
-8.4113453e-06
0.0093463628
-7.4690919e-06
0.0093483731
-6.6373507e-06
0.0093501178
-5.8950549e-06
0.0093516336
-5.2306273e-06
0.0093529517
-4.6361857e-06
0.0093540986
-4.1039917e-06
0.0093550962
-3.6265018e-06
0.009355963
-3.1970372e-06
0.0093567149
-2.8101473e-06
0.0093573652
-2.4612637e-06
0.0093579254
-2.1465086e-06
0.0093584057
-1.8624613e-06
0.0093588149
-1.606207e-06
0.0093591606
-1.3752543e-06
0.0093594501
-1.1675777e-06
0.0093596895
-9.8152011e-07
0.0093598851
-8.1577733e-07
0.0093600423
-6.6927994e-07
0.0093601665
-5.4111853e-07
0.0093602627
-4.3041849e-07
0.0093603356
-3.3624533e-07
0.0093603895
-2.5753151e-07
0.0093604282
-1.9302559e-07
0.0093604553
-1.4131193e-07
0.0093604736
-1.0082253e-07
0.0093604854
-6.9933832e-08
0.0093604927
-4.7005527e-08
0.009360497
-3.0494845e-08
0.0093604993
-1.8976318e-08
0.0093605004
-1.1231783e-08
0.0093605008
-6.2229444e-09
0.0093605008
-3.1403437e-09
0.0093605007
-1.3440072e-09
0.0093605005
-3.8424744e-10
0.0093605004
8.0416634e-11
0.0093605003
2.5009824e-10
0.0093605002
2.7804634e-10
0.0093605002
2.3444399e-10
0.0093605001
1.7744698e-10
0.0093605001
1.1692988e-10
0.0093605001
7.3828753e-11
0.0093605001
3.8016599e-11
0.0093605001
1.8710716e-11
0.0093605001
3.5163892e-12
0.0093605001
-1.3911917e-12
0.0093605001
-7.0654551e-12
0.0093605001
-5.2180908e-12
0.0093605001
-7.3353722e-12
0.0093605001
-3.631425e-12
0.0093605001
-4.6260199e-12
0.0093605001
-1.1054981e-12
0.0093605001
-1.904251e-12
0.0093605001
1.3978323e-12
0.0093605001
4.3805447e-13
0.0093605001
3.2169492e-12
0.0093605001
1.518541e-12
0.0093605001
4.2130497e-12
0.0093605001
2.1089676e-12
0.0093605001
4.4165806e-12
0.0093605001
1.9441571e-12
0.0093605001
4.0455526e-12
0.0093605001
1.4602763e-12
0.0093605001
3.1866605e-12
0.0093605001
5.8253272e-13
0.0093605002
2.1103561e-12
0.0093605001
-2.8641269e-13
0.0093605002
1.0133063e-12
0.0093605002
-1.49998e-12
0.0093605002
-6.3739271e-15
0.0093605002
-2.2499547e-12
0.0093605002
-6.2106347e-13
0.0093605002
-2.8741823e-12
0.0093605002
-8.5601802e-13
0.0093605002
-2.7862886e-12
0.0093605002
-6.8628916e-13
0.0093605002
-2.2354825e-12
0.0093605002
-1.6593232e-13
0.0093605002
-1.0282146e-12
0.0093605002
5.8940288e-13
0.0093605002
-3.5475618e-13
0.0093605002
-8.7948116e-13
0.0093605002
-5.4315545e-12
0.0093605002
-1.2933728e-11
0.0093605002
-2.6528737e-11
0.0093605002
-5.0847803e-11
0.0093605002
-8.4942781e-11
0.0093605003
-1.3166996e-10
-1.7557506e-10
0.0080133331
-4.4662399e-06
0.008016542
-1.7810877e-05
0.0080190281
-2.3459026e-05
0.0080199852
-2.2229804e-05
0.0080198243
-1.8701634e-05
0.0080189549
-1.5654653e-05
0.0080176094
-1.3484275e-05
0.0080159461
-1.1773163e-05
0.0080141116
-1.0235532e-05
0.0080122253
-8.8404524e-06
0.0080103671
-7.6348082e-06
0.0080085832
-6.6273725e-06
0.0080068999
-5.7857151e-06
0.0080053323
-5.0696739e-06
0.0080038878
-4.4503747e-06
0.0080025675
-3.9103092e-06
0.0080013689
-3.4374451e-06
0.0080002867
-3.0216425e-06
0.0079993144
-2.6540622e-06
0.0079984449
-2.3274401e-06
0.007997671
-2.0360643e-06
0.0079969852
-1.7753979e-06
0.0079963806
-1.5417292e-06
0.0079958502
-1.3319591e-06
0.0079953877
-1.143524e-06
0.0079949869
-9.743385e-07
0.0079946422
-8.2275006e-07
0.0079943484
-6.8746704e-07
0.0079941002
-5.6748709e-07
0.0079938931
-4.6200354e-07
0.0079937225
-3.7031259e-07
0.0079935839
-2.917173e-07
0.0079934733
-2.2545095e-07
0.0079933865
-1.7062478e-07
0.0079933199
-1.2620979e-07
0.0079932697
-9.105163e-08
0.0079932329
-6.3909983e-08
0.0079932066
-4.3517908e-08
0.0079931884
-2.8636817e-08
0.0079931761
-1.8116214e-08
0.0079931681
-1.0931565e-08
0.0079931631
-6.2127906e-09
0.0079931602
-3.2489606e-09
0.0079931586
-1.4854158e-09
0.0079931578
-5.0557568e-10
0.0079931575
-2.3707109e-11
0.0079931574
1.8072819e-10
0.0079931574
2.3128258e-10
0.0079931575
2.0992695e-10
0.0079931576
1.6180355e-10
0.0079931576
1.1203428e-10
0.0079931577
6.9851684e-11
0.0079931577
3.9113336e-11
0.0079931578
1.7751924e-11
0.0079931578
5.1272878e-12
0.0079931578
-2.0752252e-12
0.0079931578
-5.2000355e-12
0.0079931578
-6.4882654e-12
0.0079931578
-5.8970806e-12
0.0079931578
-5.0094441e-12
0.0079931578
-3.3810512e-12
0.0079931578
-2.3622661e-12
0.0079931578
-8.3176097e-13
0.0079931578
7.0493092e-14
0.0079931578
1.4625339e-12
0.0079931578
1.9008872e-12
0.0079931578
2.637071e-12
0.0079931578
2.8430863e-12
0.0079931578
3.3134055e-12
0.0079931578
3.0007226e-12
0.0079931578
3.0230215e-12
0.0079931578
2.6090532e-12
0.0079931578
2.5021237e-12
0.0079931578
1.7075653e-12
0.0079931578
1.3700188e-12
0.0079931578
6.5015108e-13
0.0079931578
3.5706965e-13
0.0079931578
-5.2448082e-13
0.0079931578
-8.4535997e-13
0.0079931578
-1.547723e-12
0.0079931578
-1.6420783e-12
0.0079931578
-2.2544556e-12
0.0079931578
-2.2847783e-12
0.0079931578
-2.5245829e-12
0.0079931578
-2.2623981e-12
0.0079931578
-2.3626665e-12
0.0079931578
-2.0299236e-12
0.0079931578
-1.6530802e-12
0.0079931578
-1.2180071e-12
0.0079931578
-6.7928885e-13
0.0079931578
-9.191219e-13
0.0079931578
-8.4132764e-13
0.0079931578
-3.9697265e-12
0.0079931578
-7.5280735e-12
0.0079931578
-1.8242585e-11
0.0079931578
-2.94951e-11
0.0079931578
-6.1973804e-11
0.0079931578
-9.7304518e-11
0.0079931578
-1.6522934e-10
-2.2295846e-10
0.0058437838
-4.0793335e-06
0.0058387582
-1.2784105e-05
0.0058298773
-1.4577823e-05
0.005819914
-1.2266591e-05
0.0058104664
-9.254226e-06
0.0058018771
-7.0654711e-06
0.0057940807
-5.6880805e-06
0.0057870352
-4.7277455e-06
0.0057807511
-3.9514781e-06
0.0057752137
-3.3030778e-06
0.00577036
-2.7810074e-06
0.0057661045
-2.3718213e-06
0.0057623665
-2.0475365e-06
0.0057590785
-1.781598e-06
0.0057561851
-1.5567094e-06
0.0057536383
-1.363382e-06
0.0057513969
-1.1958157e-06
0.005749425
-1.0495658e-06
0.0057476921
-9.2090402e-07
0.0057461717
-8.0691405e-07
0.0057448413
-7.0538033e-07
0.0057436807
-6.1463327e-07
0.0057426725
-5.333171e-07
0.0057418011
-4.6033094e-07
0.0057410526
-3.9475647e-07
0.0057404143
-3.358724e-07
0.0057398749
-2.8310619e-07
0.0057394237
-2.3602938e-07
0.0057390507
-1.9430778e-07
0.0057387466
-1.5767849e-07
0.0057385024
-1.2590602e-07
0.0057383097
-9.8749375e-08
0.0057381604
-7.5938139e-08
0.0057380471
-5.7146688e-08
0.005737963
-4.2004422e-08
0.0057379022
-3.0085388e-08
0.0057378593
-2.0945829e-08
0.0057378301
-1.412475e-08
0.0057378107
-9.191412e-09
0.0057377984
-5.7335315e-09
0.005737791
-3.4008622e-09
0.0057377867
-1.8853404e-09
0.0057377845
-9.5066704e-10
0.0057377834
-4.021024e-10
0.0057377831
-1.0513113e-10
0.005737783
2.503912e-11
0.0057377832
7.6417175e-11
0.0057377833
8.6312569e-11
0.0057377835
7.1556809e-11
0.0057377836
5.4481405e-11
0.0057377837
3.4273872e-11
0.0057377837
2.1521429e-11
0.0057377838
9.2648256e-12
0.0057377838
3.997277e-12
0.0057377838
-1.4562521e-12
0.0057377838
-1.7075364e-12
0.0057377838
-4.2691498e-12
0.0057377838
-2.4585168e-12
0.0057377838
-3.7278355e-12
0.0057377838
-1.28825e-12
0.0057377838
-2.2389342e-12
0.0057377838
-1.7328972e-14
0.0057377838
-7.9422476e-13
0.0057377838
1.4088081e-12
0.0057377838
3.2936561e-13
0.0057377838
2.2371961e-12
0.0057377838
8.914703e-13
0.0057377838
2.7454837e-12
0.0057377838
1.0665845e-12
0.0057377838
2.6470944e-12
0.0057377838
8.6310593e-13
0.0057377838
2.3339783e-12
0.0057377838
4.2113322e-13
0.0057377838
1.6205574e-12
0.0057377838
-2.0393667e-13
0.0057377838
9.949094e-13
0.0057377838
-9.5555948e-13
0.0057377838
2.0825913e-13
0.0057377838
-1.5976666e-12
0.0057377838
-2.9461874e-13
0.0057377838
-2.1026937e-12
0.0057377838
-6.6546682e-13
0.0057377838
-2.3528513e-12
0.0057377838
-6.9137169e-13
0.0057377838
-2.3334443e-12
0.0057377838
-5.78355e-13
0.0057377838
-2.0219314e-12
0.0057377838
-1.443199e-13
0.0057377838
-1.5232325e-12
0.0057377838
4.0956259e-13
0.0057377838
-1.4572197e-12
0.0057377838
-1.2494356e-13
0.0057377838
-4.3820106e-12
0.0057377838
-4.5667581e-12
0.0057377838
-1.2471035e-11
0.0057377838
-1.9186566e-11
0.0057377837
-4.0916034e-11
0.0057377837
-6.2248175e-11
0.0057377836
-1.3068145e-10
-1.7718479e-10
0.0024647382
0.0024519545
0.0024373766
0.0024251099
0.0024158556
0.00240879
0.0024031019
0.0023983741
0.0023944226
0.0023911196
0.0023883386
0.0023859669
0.0023839194
0.0023821379
0.0023805813
0.0023792181
0.0023780224
0.0023769729
0.0023760521
0.0023752453
0.0023745401
0.0023739256
0.0023733924
0.0023729322
0.0023725376
0.0023722018
0.0023719188
0.0023716829
0.0023714887
0.0023713312
0.0023712054
0.0023711067
0.0023710309
0.0023709738
0.0023709319
0.0023709019
0.002370881
0.0023708669
0.0023708578
0.0023708521
0.0023708487
0.0023708469
0.0023708459
0.0023708456
0.0023708455
0.0023708455
0.0023708456
0.0023708457
0.0023708458
0.0023708458
0.0023708459
0.0023708459
0.0023708459
0.0023708459
0.0023708459
0.0023708459
0.0023708459
0.0023708459
0.0023708459
0.0023708459
0.0023708459
0.0023708459
0.0023708459
0.0023708459
0.0023708459
0.0023708459
0.0023708459
0.0023708459
0.0023708459
0.0023708459
0.0023708459
0.0023708459
0.0023708459
0.0023708459
0.0023708459
0.0023708459
0.0023708459
0.0023708459
0.0023708459
0.0023708459
0.0023708459
0.0023708459
0.0023708459
0.0023708459
0.0023708459
0.0023708459
0.0023708459
0.0023708459
0.0023708459
0.0023708459
0.0023708459
0.0023708459
0.0023708459
0.0023708459
0.0023708459
0.0023708458
0.0023708458
0.0023708457
0.0023708456
)
;

boundaryField
{
    top
    {
        type            calculated;
        value           uniform 0;
    }
    inlet
    {
        type            calculated;
        value           nonuniform List<scalar> 10(-0.0024688162 -0.0058441709 -0.0080120014 -0.0092794966 -0.0098595033 -0.0098595022 -0.0092794957 -0.0080119999 -0.0058441695 -0.0024688168);
    }
    outlet
    {
        type            calculated;
        value           nonuniform List<scalar> 10(0.0023708453 0.0057377832 0.0079931574 0.0093605001 0.010001726 0.010001727 0.0093605004 0.0079931579 0.0057377836 0.0023708454);
    }
    bottom
    {
        type            calculated;
        value           uniform 0;
    }
    back
    {
        type            empty;
        value           nonuniform 0();
    }
    front
    {
        type            empty;
        value           nonuniform 0();
    }
}


// ************************************************************************* //
