/*--------------------------------*- C++ -*----------------------------------*\
| =========                 |                                                 |
| \\      /  F ield         | OpenFOAM: The Open Source CFD Toolbox           |
|  \\    /   O peration     | Version:  v1812                                 |
|   \\  /    A nd           | Web:      www.OpenFOAM.com                      |
|    \\/     M anipulation  |                                                 |
\*---------------------------------------------------------------------------*/
FoamFile
{
    version     2.0;
    format      ascii;
    class       volVectorField;
    location    "8";
    object      U;
}
// * * * * * * * * * * * * * * * * * * * * * * * * * * * * * * * * * * * * * //

dimensions      [0 1 -1 0 0 0 0];


internalField   nonuniform List<vector> 
1000
(
(0.24678389 0.00032700425 0)
(0.24606927 0.00088919187 0)
(0.24453923 0.00092013841 0)
(0.2430988 0.00066737548 0)
(0.24200834 0.00042456455 0)
(0.24120432 0.00028308197 0)
(0.24057667 0.0002118585 0)
(0.24006026 0.00016839853 0)
(0.23962815 0.00013466768 0)
(0.23926697 0.00010812456 0)
(0.23896447 8.8838055e-05 0)
(0.2387084 7.5278622e-05 0)
(0.23848868 6.5241043e-05 0)
(0.23829815 5.7139037e-05 0)
(0.23813193 5.0223983e-05 0)
(0.23798648 4.4213171e-05 0)
(0.23785898 3.8959165e-05 0)
(0.23774711 3.4330061e-05 0)
(0.23764891 3.0211453e-05 0)
(0.2375628 2.6519671e-05 0)
(0.23748743 2.3198665e-05 0)
(0.23742164 2.0206769e-05 0)
(0.23736444 1.7509618e-05 0)
(0.23731493 1.5077223e-05 0)
(0.23727233 1.2885037e-05 0)
(0.23723594 1.0913365e-05 0)
(0.23720512 9.1473001e-06 0)
(0.23717929 7.5752147e-06 0)
(0.2371579 6.1879984e-06 0)
(0.23714041 4.9775856e-06 0)
(0.23712633 3.9359938e-06 0)
(0.2371152 3.0542271e-06 0)
(0.23710655 2.3216173e-06 0)
(0.23709997 1.7255952e-06 0)
(0.23709508 1.2517411e-06 0)
(0.23709154 8.8442938e-07 0)
(0.23708903 6.0728051e-07 0)
(0.23708731 4.0409726e-07 0)
(0.23708618 2.5946531e-07 0)
(0.23708545 1.59871e-07 0)
(0.23708501 9.365536e-08 0)
(0.23708476 5.1478823e-08 0)
(0.23708462 2.5791683e-08 0)
(0.23708456 1.1145791e-08 0)
(0.23708454 3.2440417e-09 0)
(0.23708453 -8.294569e-10 0)
(0.23708454 -2.4404895e-09 0)
(0.23708455 -2.5217936e-09 0)
(0.23708456 -2.0813962e-09 0)
(0.23708456 -1.4449552e-09 0)
(0.23708457 -9.2699039e-10 0)
(0.23708457 -4.7816366e-10 0)
(0.23708457 -2.2068172e-10 0)
(0.23708458 -1.3470359e-11 0)
(0.23708458 4.2415147e-11 0)
(0.23708458 1.1437695e-10 0)
(0.23708458 8.3780019e-11 0)
(0.23708458 9.0670721e-11 0)
(0.23708457 2.2513659e-11 0)
(0.23708457 1.4470751e-11 0)
(0.23708457 -5.5977593e-11 0)
(0.23708457 -5.4831465e-11 0)
(0.23708457 -1.1202542e-10 0)
(0.23708457 -9.9262032e-11 0)
(0.23708457 -1.3781425e-10 0)
(0.23708457 -1.0749931e-10 0)
(0.23708457 -1.3167699e-10 0)
(0.23708457 -8.7468439e-11 0)
(0.23708457 -9.6639223e-11 0)
(0.23708457 -3.9378988e-11 0)
(0.23708458 -4.3239969e-11 0)
(0.23708458 1.9733951e-11 0)
(0.23708458 1.3426428e-11 0)
(0.23708458 7.5029184e-11 0)
(0.23708458 6.8138982e-11 0)
(0.23708458 1.2077135e-10 0)
(0.23708458 1.0945882e-10 0)
(0.23708458 1.5421504e-10 0)
(0.23708458 1.3217826e-10 0)
(0.23708458 1.656921e-10 0)
(0.23708458 1.3632475e-10 0)
(0.23708458 1.6143693e-10 0)
(0.23708458 1.2141041e-10 0)
(0.23708458 1.3715778e-10 0)
(0.23708458 9.3008581e-11 0)
(0.23708458 1.0518576e-10 0)
(0.23708458 5.7835569e-11 0)
(0.23708458 6.9417937e-11 0)
(0.23708457 3.2757604e-11 0)
(0.23708457 5.6142003e-11 0)
(0.23708457 4.9021783e-11 0)
(0.23708457 1.019978e-10 0)
(0.23708457 1.891042e-10 0)
(0.23708457 3.6448788e-10 0)
(0.23708457 7.8697486e-10 0)
(0.23708457 1.40825e-09 0)
(0.23708457 2.7091408e-09 0)
(0.23708456 4.3677371e-09 0)
(0.23708455 8.4432897e-09 0)
(0.23708453 1.0926277e-08 0)
(0.5841729 0.0004151049 0)
(0.58479689 0.0016523399 0)
(0.5837826 0.0021644377 0)
(0.58250896 0.0019935603 0)
(0.58145779 0.0015985995 0)
(0.58058652 0.0012640275 0)
(0.57979345 0.0010362388 0)
(0.57905294 0.00087080438 0)
(0.57837973 0.00073337256 0)
(0.57778497 0.00061574611 0)
(0.57726576 0.00051908251 0)
(0.5768121 0.00044221775 0)
(0.57641404 0.00038085197 0)
(0.57606387 0.00033047009 0)
(0.57575569 0.00028798212 0)
(0.57548451 0.00025160192 0)
(0.57524588 0.00022019494 0)
(0.5750359 0.00019287666 0)
(0.57485126 0.00016891643 0)
(0.57468911 0.00014774097 0)
(0.57454702 0.00012892007 0)
(0.57442286 0.00011212636 0)
(0.57431478 9.7100338e-05 0)
(0.57422111 8.3630419e-05 0)
(0.5741404 7.1545483e-05 0)
(0.57407132 6.0709849e-05 0)
(0.57401267 5.10188e-05 0)
(0.57396336 4.2392362e-05 0)
(0.57392236 3.4769077e-05 0)
(0.5738887 2.8098747e-05 0)
(0.57386146 2.2335654e-05 0)
(0.57383978 1.7432048e-05 0)
(0.57382282 1.3333527e-05 0)
(0.57380983 9.9763011e-06 0)
(0.57380008 7.2870694e-06 0)
(0.57379293 5.1848346e-06 0)
(0.57378783 3.5842717e-06 0)
(0.5737843 2.3997128e-06 0)
(0.57378191 1.5492955e-06 0)
(0.57378037 9.586269e-07 0)
(0.57377941 5.6308206e-07 0)
(0.57377884 3.0901528e-07 0)
(0.57377852 1.5358698e-07 0)
(0.57377837 6.4151665e-08 0)
(0.5737783 1.6595578e-08 0)
(0.57377828 -6.0418902e-09 0)
(0.57377828 -1.4446717e-08 0)
(0.5737783 -1.5186028e-08 0)
(0.57377831 -1.2677508e-08 0)
(0.57377832 -9.2711557e-09 0)
(0.57377833 -6.1544639e-09 0)
(0.57377834 -3.681677e-09 0)
(0.57377834 -1.9588421e-09 0)
(0.57377834 -8.2357116e-10 0)
(0.57377835 -1.8654594e-10 0)
(0.57377835 1.5989135e-10 0)
(0.57377835 2.7920994e-10 0)
(0.57377835 2.9988385e-10 0)
(0.57377835 2.1785327e-10 0)
(0.57377835 1.3342789e-10 0)
(0.57377834 1.6798664e-11 0)
(0.57377834 -6.7446664e-11 0)
(0.57377834 -1.6556254e-10 0)
(0.57377834 -2.1973748e-10 0)
(0.57377834 -2.7711666e-10 0)
(0.57377834 -2.8571325e-10 0)
(0.57377834 -3.051125e-10 0)
(0.57377834 -2.7822168e-10 0)
(0.57377834 -2.5901555e-10 0)
(0.57377834 -1.969656e-10 0)
(0.57377834 -1.5556369e-10 0)
(0.57377835 -7.7222399e-11 0)
(0.57377835 -2.0049054e-11 0)
(0.57377835 6.1249089e-11 0)
(0.57377835 1.1507954e-10 0)
(0.57377835 1.9058563e-10 0)
(0.57377835 2.3613897e-10 0)
(0.57377835 3.0041339e-10 0)
(0.57377835 3.2394558e-10 0)
(0.57377835 3.632384e-10 0)
(0.57377835 3.6819701e-10 0)
(0.57377835 3.8831059e-10 0)
(0.57377835 3.6873753e-10 0)
(0.57377835 3.6314782e-10 0)
(0.57377835 3.3111115e-10 0)
(0.57377835 3.1285934e-10 0)
(0.57377835 2.750373e-10 0)
(0.57377835 2.4653576e-10 0)
(0.57377835 2.3650578e-10 0)
(0.57377835 2.2473928e-10 0)
(0.57377834 2.9767798e-10 0)
(0.57377835 3.4057227e-10 0)
(0.57377834 6.5701732e-10 0)
(0.57377834 9.5569861e-10 0)
(0.57377834 1.9944078e-09 0)
(0.57377834 3.1306581e-09 0)
(0.57377833 5.951663e-09 0)
(0.57377834 9.007977e-09 0)
(0.57377831 1.5990482e-08 0)
(0.57377833 2.2308991e-08 0)
(0.80073958 0.00032951117 0)
(0.80253048 0.0015676903 0)
(0.80239458 0.0023063977 0)
(0.80198802 0.0023804822 0)
(0.8018667 0.0021290466 0)
(0.80188627 0.0018486736 0)
(0.80184895 0.0016311501 0)
(0.80171202 0.0014551269 0)
(0.80152105 0.0012914671 0)
(0.80132088 0.0011352509 0)
(0.80112908 0.00099339508 0)
(0.80094716 0.00087023553 0)
(0.8007742 0.00076463768 0)
(0.8006112 0.00067323723 0)
(0.80045989 0.00059317522 0)
(0.80032123 0.00052264328 0)
(0.80019518 0.00046039627 0)
(0.80008117 0.00040534988 0)
(0.79997852 0.00035650273 0)
(0.79988651 0.00031298987 0)
(0.79980442 0.0002741056 0)
(0.79973154 0.0002392776 0)
(0.79966713 0.0002080302 0)
(0.79961049 0.00017996169 0)
(0.79956095 0.00015473469 0)
(0.79951789 0.00013207151 0)
(0.79948072 0.00011174902 0)
(0.79944888 9.3591565e-05 0)
(0.79942187 7.7462187e-05 0)
(0.79939919 6.3251729e-05 0)
(0.79938037 5.0866834e-05 0)
(0.79936498 4.0217411e-05 0)
(0.79935258 3.120606e-05 0)
(0.79934276 2.3720271e-05 0)
(0.79933514 1.7629256e-05 0)
(0.79932934 1.2784765e-05 0)
(0.79932503 9.0259586e-06 0)
(0.7993219 6.1863721e-06 0)
(0.79931969 4.1021588e-06 0)
(0.79931818 2.6192381e-06 0)
(0.79931718 1.5994256e-06 0)
(0.79931654 9.240095e-07 0)
(0.79931615 4.9554529e-07 0)
(0.79931592 2.3725872e-07 0)
(0.7993158 9.1354379e-08 0)
(0.79931574 1.6201096e-08 0)
(0.79931572 -1.6963751e-08 0)
(0.79931571 -2.7409411e-08 0)
(0.79931571 -2.6664375e-08 0)
(0.79931572 -2.1498459e-08 0)
(0.79931573 -1.5424902e-08 0)
(0.79931573 -1.0107394e-08 0)
(0.79931574 -6.0269396e-09 0)
(0.79931574 -3.2278785e-09 0)
(0.79931574 -1.435944e-09 0)
(0.79931574 -4.2541929e-10 0)
(0.79931574 1.0361651e-10 0)
(0.79931574 2.9745311e-10 0)
(0.79931574 3.2630633e-10 0)
(0.79931574 2.4110688e-10 0)
(0.79931574 1.3611135e-10 0)
(0.79931574 3.8581523e-12 0)
(0.79931574 -9.8761413e-11 0)
(0.79931574 -2.0273493e-10 0)
(0.79931574 -2.5792526e-10 0)
(0.79931574 -3.1162862e-10 0)
(0.79931574 -3.2147751e-10 0)
(0.79931574 -3.3123942e-10 0)
(0.79931574 -2.9702094e-10 0)
(0.79931574 -2.6726478e-10 0)
(0.79931574 -2.0571381e-10 0)
(0.79931574 -1.5173979e-10 0)
(0.79931574 -6.4948471e-11 0)
(0.79931574 3.3964599e-12 0)
(0.79931574 9.1577902e-11 0)
(0.79931574 1.5539969e-10 0)
(0.79931574 2.404991e-10 0)
(0.79931574 2.9424879e-10 0)
(0.79931574 3.6107272e-10 0)
(0.79931574 3.9251605e-10 0)
(0.79931574 4.4102449e-10 0)
(0.79931574 4.498759e-10 0)
(0.79931574 4.7357197e-10 0)
(0.79931574 4.5511518e-10 0)
(0.79931574 4.661602e-10 0)
(0.79931574 4.2888341e-10 0)
(0.79931574 4.3931685e-10 0)
(0.79931574 3.8887274e-10 0)
(0.79931574 4.4120418e-10 0)
(0.79931574 4.0466648e-10 0)
(0.79931574 5.7268012e-10 0)
(0.79931574 6.129764e-10 0)
(0.79931574 1.1085134e-09 0)
(0.79931574 1.527305e-09 0)
(0.79931574 2.8395821e-09 0)
(0.79931574 4.225873e-09 0)
(0.79931573 7.1761574e-09 0)
(0.79931575 1.0804133e-08 0)
(0.79931572 1.6656367e-08 0)
(0.79931576 2.2604061e-08 0)
(0.92730371 0.00020127081 0)
(0.92976962 0.0010537123 0)
(0.93009749 0.0016412774 0)
(0.93020273 0.0017789662 0)
(0.93076064 0.0016590883 0)
(0.93155816 0.0014929712 0)
(0.93228674 0.0013603245 0)
(0.9328486 0.0012515177 0)
(0.93328695 0.0011444634 0)
(0.93365914 0.0010347549 0)
(0.93398944 0.00092888802 0)
(0.93428025 0.00083231442 0)
(0.93453145 0.00074592735 0)
(0.934747 0.00066825386 0)
(0.93493292 0.00059782183 0)
(0.93509442 0.00053381385 0)
(0.93523513 0.00047574694 0)
(0.9353577 0.00042315079 0)
(0.93546434 0.0003755075 0)
(0.93555703 0.00033231908 0)
(0.93563749 0.00029315071 0)
(0.9357072 0.00025763026 0)
(0.93576739 0.00022542891 0)
(0.93581913 0.0001962519 0)
(0.93586334 0.00016983619 0)
(0.93590086 0.00014595361 0)
(0.93593241 0.00012441082 0)
(0.93595867 0.00010504885 0)
(0.93598024 8.7738803e-05 0)
(0.93599771 7.2376231e-05 0)
(0.93601161 5.8872274e-05 0)
(0.93602247 4.7143898e-05 0)
(0.93603078 3.7103779e-05 0)
(0.93603697 2.865211e-05 0)
(0.93604148 2.1671688e-05 0)
(0.93604465 1.6026631e-05 0)
(0.93604682 1.1565451e-05 0)
(0.93604824 8.1263322e-06 0)
(0.93604912 5.5451033e-06 0)
(0.93604964 3.6623763e-06 0)
(0.93604992 2.3310038e-06 0)
(0.93605006 1.4204924e-06 0)
(0.9360501 8.2065151e-07 0)
(0.9360501 4.4170823e-07 0)
(0.93605009 2.1409674e-07 0)
(0.93605006 8.566276e-08 0)
(0.93605004 1.950161e-08 0)
(0.93605002 -1.0319625e-08 0)
(0.93605001 -2.0221973e-08 0)
(0.93605 -2.0467863e-08 0)
(0.93604999 -1.6664507e-08 0)
(0.93604999 -1.2073397e-08 0)
(0.93604999 -7.8850156e-09 0)
(0.93604999 -4.7722789e-09 0)
(0.93604998 -2.5402815e-09 0)
(0.93604999 -1.2188482e-09 0)
(0.93604998 -3.8907829e-10 0)
(0.93604999 -6.033214e-11 0)
(0.93604999 1.3709907e-10 0)
(0.93604999 9.422223e-11 0)
(0.93604999 9.2679026e-11 0)
(0.93604999 -3.6292597e-11 0)
(0.93604998 -6.3198069e-11 0)
(0.93604998 -1.8123521e-10 0)
(0.93604998 -1.7606834e-10 0)
(0.93604998 -2.5735099e-10 0)
(0.93604998 -2.1256791e-10 0)
(0.93604998 -2.5770813e-10 0)
(0.93604998 -1.8177531e-10 0)
(0.93604998 -2.0010777e-10 0)
(0.93604998 -1.0070406e-10 0)
(0.93604998 -9.9882416e-11 0)
(0.93604998 8.1151331e-12 0)
(0.93604999 1.8220149e-11 0)
(0.93604998 1.3075191e-10 0)
(0.93604999 1.393042e-10 0)
(0.93604999 2.4768774e-10 0)
(0.93604999 2.4584517e-10 0)
(0.93604999 3.4346382e-10 0)
(0.93604999 3.2764192e-10 0)
(0.93604999 4.0967889e-10 0)
(0.93604999 3.7366152e-10 0)
(0.93604999 4.3987243e-10 0)
(0.93604999 3.8592091e-10 0)
(0.93604999 4.425538e-10 0)
(0.93604999 3.7368286e-10 0)
(0.93604999 4.3936587e-10 0)
(0.93604999 3.691204e-10 0)
(0.93604999 4.7615647e-10 0)
(0.93604999 4.2659273e-10 0)
(0.93604999 6.4099135e-10 0)
(0.93604999 6.9375007e-10 0)
(0.93604999 1.2203413e-09 0)
(0.93604999 1.6521164e-09 0)
(0.93604998 2.814361e-09 0)
(0.93604999 3.9746505e-09 0)
(0.93604998 6.1473903e-09 0)
(0.93605 8.8394023e-09 0)
(0.93604997 1.2623856e-08 0)
(0.93605002 1.6605478e-08 0)
(0.98520288 6.6845501e-05 0)
(0.98797381 0.00036550364 0)
(0.98847372 0.00058345568 0)
(0.98876774 0.00064499032 0)
(0.98961856 0.00061062567 0)
(0.9907919 0.00055612442 0)
(0.99191881 0.0005126534 0)
(0.99286505 0.0004775915 0)
(0.99366761 0.00044244176 0)
(0.99438798 0.00040514458 0)
(0.9950514 0.00036810159 0)
(0.99565752 0.0003335725 0)
(0.99620328 0.00030211008 0)
(0.99669148 0.00027330408 0)
(0.99712834 0.00024670624 0)
(0.99751977 0.00022211022 0)
(0.99787017 0.00019943466 0)
(0.99818304 0.00017859196 0)
(0.99846152 0.00015946093 0)
(0.99870869 0.00014191288 0)
(0.99892737 0.00012583118 0)
(0.99912017 0.00011111294 0)
(0.99928944 9.7663242e-05 0)
(0.99943734 8.5392487e-05 0)
(0.99956582 7.4216812e-05 0)
(0.9996767 6.406028e-05 0)
(0.99977168 5.4856105e-05 0)
(0.99985232 4.6547501e-05 0)
(0.99992008 3.9087038e-05 0)
(0.99997636 3.2435447e-05 0)
(1.0000225 2.6558864e-05 0)
(1.0000597 2.1425655e-05 0)
(1.0000893 1.7002559e-05 0)
(1.0001124 1.3251525e-05 0)
(1.0001301 1.0127374e-05 0)
(1.0001433 7.5770537e-06 0)
(1.0001529 5.5403499e-06 0)
(1.0001598 3.9518978e-06 0)
(1.0001646 2.7441012e-06 0)
(1.0001678 1.850268e-06 0)
(1.0001699 1.2076707e-06 0)
(1.0001711 7.5983507e-07 0)
(1.0001719 4.5811567e-07 0)
(1.0001723 2.6223714e-07 0)
(1.0001726 1.4034416e-07 0)
(1.0001727 6.8147439e-08 0)
(1.0001727 2.7914195e-08 0)
(1.0001727 7.3975534e-09 0)
(1.0001727 -1.821723e-09 0)
(1.0001727 -4.9803936e-09 0)
(1.0001726 -5.1940887e-09 0)
(1.0001726 -4.2600326e-09 0)
(1.0001726 -3.0575218e-09 0)
(1.0001726 -2.0086655e-09 0)
(1.0001726 -1.2056252e-09 0)
(1.0001726 -6.8898783e-10 0)
(1.0001726 -3.6664669e-10 0)
(1.0001726 -2.1730608e-10 0)
(1.0001726 -1.3297149e-10 0)
(1.0001726 -1.2676221e-10 0)
(1.0001726 -1.2155404e-10 0)
(1.0001726 -1.4686551e-10 0)
(1.0001726 -1.4482924e-10 0)
(1.0001726 -1.6069165e-10 0)
(1.0001726 -1.4685882e-10 0)
(1.0001726 -1.4422089e-10 0)
(1.0001726 -1.0629412e-10 0)
(1.0001726 -8.8617473e-11 0)
(1.0001726 -4.7783681e-11 0)
(1.0001726 -2.4051271e-11 0)
(1.0001726 2.9363295e-11 0)
(1.0001726 5.3825815e-11 0)
(1.0001726 9.9515367e-11 0)
(1.0001726 1.2152576e-10 0)
(1.0001726 1.6770704e-10 0)
(1.0001726 1.8816748e-10 0)
(1.0001726 2.2160035e-10 0)
(1.0001726 2.32425e-10 0)
(1.0001726 2.6199803e-10 0)
(1.0001726 2.6248204e-10 0)
(1.0001726 2.7806432e-10 0)
(1.0001726 2.6836487e-10 0)
(1.0001726 2.8125289e-10 0)
(1.0001726 2.6477291e-10 0)
(1.0001726 2.7074851e-10 0)
(1.0001726 2.5310528e-10 0)
(1.0001726 2.7625403e-10 0)
(1.0001726 2.737804e-10 0)
(1.0001726 3.2571239e-10 0)
(1.0001726 3.5806785e-10 0)
(1.0001726 4.8651029e-10 0)
(1.0001726 6.3035683e-10 0)
(1.0001726 9.6400933e-10 0)
(1.0001726 1.3290151e-09 0)
(1.0001726 1.9509071e-09 0)
(1.0001726 2.4850291e-09 0)
(1.0001726 3.4059503e-09 0)
(1.0001726 4.3196489e-09 0)
(1.0001726 5.681844e-09 0)
(1.0001727 7.296917e-09 0)
(0.98520276 -6.6842708e-05 0)
(0.98797375 -0.00036549552 0)
(0.98847366 -0.00058345843 0)
(0.98876764 -0.00064501224 0)
(0.98961846 -0.00061065628 0)
(0.99079182 -0.00055615601 0)
(0.99191874 -0.00051268473 0)
(0.99286497 -0.00047762605 0)
(0.99366753 -0.00044247825 0)
(0.9943879 -0.00040518117 0)
(0.99505132 -0.00036813524 0)
(0.99565743 -0.00033360322 0)
(0.99620319 -0.00030213697 0)
(0.99669139 -0.00027332751 0)
(0.99712825 -0.00024672495 0)
(0.99751968 -0.00022212445 0)
(0.99787008 -0.00019944388 0)
(0.99818295 -0.00017859728 0)
(0.99846144 -0.00015946262 0)
(0.9987086 -0.00014191229 0)
(0.99892729 -0.00012582871 0)
(0.99912009 -0.00011110977 0)
(0.99928937 -9.7659574e-05 0)
(0.99943726 -8.5388934e-05 0)
(0.99956574 -7.4212995e-05 0)
(0.99967663 -6.4056067e-05 0)
(0.99977161 -5.4850639e-05 0)
(0.99985225 -4.6540148e-05 0)
(0.99992001 -3.9076853e-05 0)
(0.9999763 -3.2421801e-05 0)
(1.0000224 -2.654124e-05 0)
(1.0000597 -2.1403813e-05 0)
(1.0000893 -1.6976588e-05 0)
(1.0001124 -1.3221639e-05 0)
(1.00013 -1.0094227e-05 0)
(1.0001432 -7.5412181e-06 0)
(1.0001529 -5.5028441e-06 0)
(1.0001598 -3.9134354e-06 0)
(1.0001646 -2.7058412e-06 0)
(1.0001678 -1.8129461e-06 0)
(1.0001698 -1.1723818e-06 0)
(1.0001711 -7.2701123e-07 0)
(1.0001719 -4.2852855e-07 0)
(1.0001723 -2.3605249e-07 0)
(1.0001726 -1.1805667e-07 0)
(1.0001727 -4.9506762e-08 0)
(1.0001727 -1.3096008e-08 0)
(1.0001727 4.2027392e-09 0)
(1.0001727 1.0422447e-08 0)
(1.0001727 1.1310728e-08 0)
(1.0001727 9.4728368e-09 0)
(1.0001726 7.1668254e-09 0)
(1.0001726 4.7116708e-09 0)
(1.0001726 2.9901011e-09 0)
(1.0001726 1.5052045e-09 0)
(1.0001726 7.5290544e-10 0)
(1.0001726 5.4814698e-11 0)
(1.0001726 -9.9955652e-11 0)
(1.0001726 -3.7778343e-10 0)
(1.0001726 -2.8025781e-10 0)
(1.0001726 -4.1418363e-10 0)
(1.0001726 -2.2361553e-10 0)
(1.0001726 -3.0737746e-10 0)
(1.0001726 -9.6092932e-11 0)
(1.0001726 -1.792596e-10 0)
(1.0001726 3.7160697e-11 0)
(1.0001726 -5.1329381e-11 0)
(1.0001726 1.4057102e-10 0)
(1.0001726 3.6101204e-11 0)
(1.0001726 2.1937976e-10 0)
(1.0001726 1.0561421e-10 0)
(1.0001726 2.68552e-10 0)
(1.0001726 1.3508888e-10 0)
(1.0001726 2.899369e-10 0)
(1.0001726 1.4858609e-10 0)
(1.0001726 2.872276e-10 0)
(1.0001726 1.2697756e-10 0)
(1.0001726 2.6372369e-10 0)
(1.0001726 9.8316791e-11 0)
(1.0001726 2.2220972e-10 0)
(1.0001726 4.4283888e-11 0)
(1.0001726 1.7770237e-10 0)
(1.0001726 1.410296e-11 0)
(1.0001726 1.479219e-10 0)
(1.0001726 -1.397136e-11 0)
(1.0001726 1.4107414e-10 0)
(1.0001726 -4.9670034e-12 0)
(1.0001726 1.7058338e-10 0)
(1.0001726 3.4542709e-11 0)
(1.0001726 2.6067822e-10 0)
(1.0001726 1.7217999e-10 0)
(1.0001726 4.8472567e-10 0)
(1.0001726 4.2705169e-10 0)
(1.0001726 7.3862132e-10 0)
(1.0001726 5.068397e-10 0)
(1.0001726 3.6660577e-10 0)
(1.0001726 -2.0424879e-10 0)
(1.0001726 -1.2400825e-09 0)
(1.0001726 -2.3685756e-09 0)
(1.0001727 -3.3388272e-09 0)
(0.92730361 -0.00020126942 0)
(0.92976948 -0.0010537171 0)
(0.93009734 -0.0016412924 0)
(0.93020256 -0.001778988 0)
(0.93076048 -0.0016591128 0)
(0.93155798 -0.0014929962 0)
(0.93228656 -0.001360352 0)
(0.9328484 -0.0012515476 0)
(0.93328674 -0.001144495 0)
(0.93365893 -0.0010347858 0)
(0.93398923 -0.00092891765 0)
(0.93428003 -0.00083234165 0)
(0.93453122 -0.00074595233 0)
(0.93474677 -0.00066827552 0)
(0.9349327 -0.00059784007 0)
(0.93509419 -0.00053382794 0)
(0.93523491 -0.00047575743 0)
(0.93535748 -0.00042315773 0)
(0.93546412 -0.00037551184 0)
(0.93555681 -0.00033232119 0)
(0.93563728 -0.0002931516 0)
(0.93570699 -0.00025763028 0)
(0.93576719 -0.00022542872 0)
(0.93581893 -0.00019625143 0)
(0.93586316 -0.0001698355 0)
(0.93590068 -0.00014595214 0)
(0.93593224 -0.00012440809 0)
(0.9359585 -0.00010504408 0)
(0.93598008 -8.7731356e-05 0)
(0.93599755 -7.236555e-05 0)
(0.93601146 -5.8858009e-05 0)
(0.93602233 -4.7125984e-05 0)
(0.93603064 -3.7082284e-05 0)
(0.93603685 -2.8627463e-05 0)
(0.93604136 -2.1644312e-05 0)
(0.93604455 -1.5997313e-05 0)
(0.93604673 -1.1534795e-05 0)
(0.93604816 -8.0952674e-06 0)
(0.93604906 -5.5142798e-06 0)
(0.93604959 -3.6327207e-06 0)
(0.93604988 -2.3030131e-06 0)
(0.93605003 -1.3949185e-06 0)
(0.93605008 -7.9777054e-07 0)
(0.9360501 -4.2198759e-07 0)
(0.93605008 -1.9744911e-07 0)
(0.93605007 -7.2297852e-08 0)
(0.93605005 -8.8970855e-09 0)
(0.93605004 1.8302503e-08 0)
(0.93605002 2.6133163e-08 0)
(0.93605002 2.4510222e-08 0)
(0.93605001 1.9394184e-08 0)
(0.93605001 1.3641348e-08 0)
(0.93605001 8.7766151e-09 0)
(0.93605001 5.0379987e-09 0)
(0.93605001 2.5462301e-09 0)
(0.93605001 9.0149361e-10 0)
(0.93605001 4.9952502e-11 0)
(0.93605001 -4.2907062e-10 0)
(0.93605001 -5.5128247e-10 0)
(0.93605001 -6.044802e-10 0)
(0.93605001 -4.8013634e-10 0)
(0.93605001 -4.0210837e-10 0)
(0.93605001 -2.2775086e-10 0)
(0.93605001 -1.5578234e-10 0)
(0.93605001 -5.6151899e-13 0)
(0.93605001 5.2858072e-11 0)
(0.93605001 1.7006762e-10 0)
(0.93605001 1.8203378e-10 0)
(0.93605001 2.7209972e-10 0)
(0.93605001 2.6303605e-10 0)
(0.93605001 3.1954538e-10 0)
(0.93605001 2.6966277e-10 0)
(0.93605001 3.022169e-10 0)
(0.93605001 2.3898956e-10 0)
(0.93605001 2.512848e-10 0)
(0.93605002 1.5938122e-10 0)
(0.93605001 1.6300431e-10 0)
(0.93605002 7.7430979e-11 0)
(0.93605001 7.9434836e-11 0)
(0.93605002 -1.0982069e-11 0)
(0.93605001 -3.9098456e-12 0)
(0.93605002 -7.4575172e-11 0)
(0.93605002 -6.2489056e-11 0)
(0.93605002 -1.2635147e-10 0)
(0.93605002 -9.9538474e-11 0)
(0.93605002 -1.253464e-10 0)
(0.93605002 -8.4069563e-11 0)
(0.93605002 -8.6410179e-11 0)
(0.93605002 -3.6054032e-11 0)
(0.93605002 1.400513e-11 0)
(0.93605002 5.8176104e-11 0)
(0.93605002 1.2177857e-10 0)
(0.93605001 2.9882522e-11 0)
(0.93605002 -1.0201936e-10 0)
(0.93605001 -7.943199e-10 0)
(0.93605002 -1.6992829e-09 0)
(0.93605001 -3.577645e-09 0)
(0.93605003 -6.3274201e-09 0)
(0.93605 -9.902604e-09 0)
(0.93605006 -1.3574283e-08 0)
(0.80073942 -0.00032951066 0)
(0.80253033 -0.0015676864 0)
(0.8023944 -0.0023064032 0)
(0.80198781 -0.0023804976 0)
(0.8018665 -0.0021290667 0)
(0.80188607 -0.0018486925 0)
(0.80184873 -0.0016311688 0)
(0.80171179 -0.0014551457 0)
(0.80152081 -0.0012914875 0)
(0.80132064 -0.0011352711 0)
(0.80112882 -0.0009934151 0)
(0.80094689 -0.00087025361 0)
(0.80077393 -0.00076465432 0)
(0.80061093 -0.00067325134 0)
(0.80045961 -0.00059318748 0)
(0.80032095 -0.00052265292 0)
(0.80019489 -0.00046040415 0)
(0.8000809 -0.00040535551 0)
(0.79997825 -0.0003565071 0)
(0.79988624 -0.00031299281 0)
(0.79980416 -0.0002741081 0)
(0.79973128 -0.00023927949 0)
(0.79966688 -0.0002080321 0)
(0.79961025 -0.00017996316 0)
(0.79956072 -0.00015473587 0)
(0.79951766 -0.00013207173 0)
(0.7994805 -0.00011174803 0)
(0.79944867 -9.3588695e-05 0)
(0.79942166 -7.745715e-05 0)
(0.79939899 -6.324418e-05 0)
(0.79938019 -5.0856692e-05 0)
(0.7993648 -4.0204787e-05 0)
(0.79935242 -3.1191113e-05 0)
(0.79934262 -2.3703501e-05 0)
(0.79933501 -1.7610967e-05 0)
(0.79932923 -1.2765664e-05 0)
(0.79932493 -9.0063386e-06 0)
(0.79932182 -6.1670304e-06 0)
(0.79931963 -4.0833331e-06 0)
(0.79931813 -2.6016327e-06 0)
(0.79931714 -1.5831067e-06 0)
(0.79931652 -9.0964168e-07 0)
(0.79931614 -4.8307703e-07 0)
(0.79931592 -2.2707126e-07 0)
(0.79931581 -8.3063119e-08 0)
(0.79931575 -9.9722386e-09 0)
(0.79931574 2.184931e-08 0)
(0.79931574 3.0811721e-08 0)
(0.79931574 2.9081486e-08 0)
(0.79931575 2.2858014e-08 0)
(0.79931576 1.6256949e-08 0)
(0.79931577 1.0295692e-08 0)
(0.79931577 6.062027e-09 0)
(0.79931577 2.8995525e-09 0)
(0.79931578 1.1564084e-09 0)
(0.79931578 -8.2070956e-11 0)
(0.79931578 -4.4456561e-10 0)
(0.79931578 -7.8938731e-10 0)
(0.79931578 -6.4246437e-10 0)
(0.79931578 -6.9758067e-10 0)
(0.79931578 -3.9045148e-10 0)
(0.79931578 -3.9168052e-10 0)
(0.79931578 -8.5726647e-11 0)
(0.79931578 -1.1314564e-10 0)
(0.79931578 1.6819845e-10 0)
(0.79931578 9.6682498e-11 0)
(0.79931578 3.2418192e-10 0)
(0.79931578 2.1696589e-10 0)
(0.79931578 4.1179019e-10 0)
(0.79931578 2.6711863e-10 0)
(0.79931578 4.1173799e-10 0)
(0.79931578 2.3086084e-10 0)
(0.79931578 3.6085084e-10 0)
(0.79931578 1.571434e-10 0)
(0.79931578 2.5744759e-10 0)
(0.79931578 3.4692553e-11 0)
(0.79931578 1.4185733e-10 0)
(0.79931578 -7.9637531e-11 0)
(0.79931578 2.3821063e-11 0)
(0.79931578 -1.8811662e-10 0)
(0.79931578 -5.8160254e-11 0)
(0.79931578 -2.5612046e-10 0)
(0.79931578 -1.3134433e-10 0)
(0.79931578 -3.0876843e-10 0)
(0.79931578 -1.525434e-10 0)
(0.79931578 -2.9572192e-10 0)
(0.79931578 -1.3009876e-10 0)
(0.79931578 -2.3820123e-10 0)
(0.79931578 -5.4052314e-11 0)
(0.79931578 -1.2432429e-10 0)
(0.79931578 -4.5290414e-12 0)
(0.79931578 -1.1235255e-10 0)
(0.79931578 -2.366878e-10 0)
(0.79931578 -6.6155456e-10 0)
(0.79931578 -1.5840757e-09 0)
(0.79931578 -2.793585e-09 0)
(0.79931577 -5.6470738e-09 0)
(0.79931579 -9.2069081e-09 0)
(0.79931576 -1.5054302e-08 0)
(0.7993158 -2.1128483e-08 0)
(0.58417275 -0.00041510115 0)
(0.58479675 -0.0016523372 0)
(0.58378242 -0.0021644376 0)
(0.58250877 -0.0019935664 0)
(0.58145762 -0.0015986139 0)
(0.58058636 -0.0012640475 0)
(0.57979328 -0.0010362573 0)
(0.57905276 -0.00087081867 0)
(0.57837953 -0.00073338274 0)
(0.57778478 -0.00061575456 0)
(0.57726555 -0.00051908918 0)
(0.57681189 -0.00044222275 0)
(0.57641381 -0.00038085451 0)
(0.57606364 -0.00033047106 0)
(0.57575546 -0.00028798166 0)
(0.57548428 -0.0002516009 0)
(0.57524565 -0.00022019304 0)
(0.57503568 -0.00019287429 0)
(0.57485104 -0.00016891331 0)
(0.57468889 -0.00014773762 0)
(0.5745468 -0.00012891636 0)
(0.57442265 -0.00011212267 0)
(0.57431457 -9.7096461e-05 0)
(0.57422091 -8.3626527e-05 0)
(0.57414021 -7.1541292e-05 0)
(0.57407113 -6.0705331e-05 0)
(0.5740125 -5.1013677e-05 0)
(0.57396319 -4.2386543e-05 0)
(0.5739222 -3.4762424e-05 0)
(0.57388855 -2.8091229e-05 0)
(0.57386132 -2.2327339e-05 0)
(0.57383965 -1.7422994e-05 0)
(0.57382271 -1.3323987e-05 0)
(0.57380973 -9.9663936e-06 0)
(0.57379999 -7.2771305e-06 0)
(0.57379286 -5.1749527e-06 0)
(0.57378778 -3.5748086e-06 0)
(0.57378425 -2.3907268e-06 0)
(0.57378188 -1.5410943e-06 0)
(0.57378035 -9.511769e-07 0)
(0.5737794 -5.566822e-07 0)
(0.57377884 -3.035323e-07 0)
(0.57377853 -1.4920581e-07 0)
(0.57377838 -6.0602591e-08 0)
(0.57377832 -1.3972393e-08 0)
(0.5737783 8.2178587e-09 0)
(0.57377831 1.5825192e-08 0)
(0.57377832 1.6096378e-08 0)
(0.57377834 1.3090629e-08 0)
(0.57377835 9.4859888e-09 0)
(0.57377836 6.0776949e-09 0)
(0.57377837 3.5884986e-09 0)
(0.57377838 1.7057752e-09 0)
(0.57377838 6.3822162e-10 0)
(0.57377838 -1.1990846e-10 0)
(0.57377838 -3.609341e-10 0)
(0.57377838 -5.7457852e-10 0)
(0.57377838 -4.9392783e-10 0)
(0.57377838 -5.095347e-10 0)
(0.57377838 -3.1106915e-10 0)
(0.57377838 -2.8102906e-10 0)
(0.57377838 -8.4025092e-11 0)
(0.57377838 -7.7333664e-11 0)
(0.57377838 1.1012779e-10 0)
(0.57377838 9.4453344e-11 0)
(0.57377838 2.3842074e-10 0)
(0.57377838 1.9059049e-10 0)
(0.57377838 3.1038608e-10 0)
(0.57377838 2.3451192e-10 0)
(0.57377838 3.104601e-10 0)
(0.57377838 2.0207371e-10 0)
(0.57377838 2.6766111e-10 0)
(0.57377838 1.416921e-10 0)
(0.57377838 1.7997473e-10 0)
(0.57377838 3.7643778e-11 0)
(0.57377838 8.7225846e-11 0)
(0.57377838 -5.0551312e-11 0)
(0.57377838 -1.02824e-11 0)
(0.57377838 -1.513937e-10 0)
(0.57377838 -9.25381e-11 0)
(0.57377838 -2.1675156e-10 0)
(0.57377838 -1.5758013e-10 0)
(0.57377838 -2.6769646e-10 0)
(0.57377838 -1.7526221e-10 0)
(0.57377838 -2.6062275e-10 0)
(0.57377838 -1.5652049e-10 0)
(0.57377838 -2.322935e-10 0)
(0.57377838 -8.7492465e-11 0)
(0.57377838 -1.5787238e-10 0)
(0.57377838 -4.8602354e-12 0)
(0.57377838 -1.3797388e-10 0)
(0.57377838 -3.7448003e-11 0)
(0.57377838 -4.4963703e-10 0)
(0.57377838 -6.8107852e-10 0)
(0.57377838 -1.6891103e-09 0)
(0.57377838 -2.6404339e-09 0)
(0.57377837 -5.6055428e-09 0)
(0.57377837 -8.5088981e-09 0)
(0.57377835 -1.5723882e-08 0)
(0.57377837 -2.2324302e-08 0)
(0.24678393 -0.00032699661 0)
(0.24606925 -0.00088918542 0)
(0.24453917 -0.00092013338 0)
(0.24309874 -0.00066737607 0)
(0.2420083 -0.00042457353 0)
(0.24120427 -0.00028309602 0)
(0.24057661 -0.0002118691 0)
(0.24006019 -0.00016840377 0)
(0.23962808 -0.00013466859 0)
(0.2392669 -0.00010812452 0)
(0.2389644 -8.8836935e-05 0)
(0.23870833 -7.5276821e-05 0)
(0.23848861 -6.5237687e-05 0)
(0.23829807 -5.7135311e-05 0)
(0.23813185 -5.0219731e-05 0)
(0.23798641 -4.420924e-05 0)
(0.23785891 -3.8954893e-05 0)
(0.23774704 -3.4325925e-05 0)
(0.23764884 -3.020693e-05 0)
(0.23756274 -2.6515301e-05 0)
(0.23748737 -2.3194048e-05 0)
(0.23742158 -2.0202349e-05 0)
(0.23736438 -1.750506e-05 0)
(0.23731487 -1.5072875e-05 0)
(0.23727227 -1.2880627e-05 0)
(0.23723589 -1.0909127e-05 0)
(0.23720507 -9.1430513e-06 0)
(0.23717925 -7.5710941e-06 0)
(0.23715785 -6.1839265e-06 0)
(0.23714037 -4.9736093e-06 0)
(0.2371263 -3.9321336e-06 0)
(0.23711517 -3.0504636e-06 0)
(0.23710652 -2.3180703e-06 0)
(0.23709995 -1.7221827e-06 0)
(0.23709506 -1.2486315e-06 0)
(0.23709152 -8.8148031e-07 0)
(0.23708902 -6.0470269e-07 0)
(0.23708731 -4.0171195e-07 0)
(0.23708617 -2.5750334e-07 0)
(0.23708545 -1.5810121e-07 0)
(0.23708501 -9.2298383e-08 0)
(0.23708476 -5.0260711e-08 0)
(0.23708463 -2.4955342e-08 0)
(0.23708457 -1.0383604e-08 0)
(0.23708455 -2.8114052e-09 0)
(0.23708455 1.3271961e-09 0)
(0.23708455 2.6180339e-09 0)
(0.23708456 2.7187042e-09 0)
(0.23708457 2.0755232e-09 0)
(0.23708458 1.5168263e-09 0)
(0.23708458 8.4718205e-10 0)
(0.23708459 5.180777e-10 0)
(0.23708459 1.1655956e-10 0)
(0.23708459 3.8623789e-11 0)
(0.23708459 -1.6743217e-10 0)
(0.23708459 -1.0380988e-10 0)
(0.23708459 -2.1796482e-10 0)
(0.23708459 -1.0100775e-10 0)
(0.23708459 -1.6919135e-10 0)
(0.23708459 -2.3323203e-11 0)
(0.23708459 -9.5358878e-11 0)
(0.23708459 4.5814328e-11 0)
(0.23708459 -3.0906584e-11 0)
(0.23708459 1.0257349e-10 0)
(0.23708459 1.0337396e-11 0)
(0.23708459 1.3204859e-10 0)
(0.23708459 4.2180385e-11 0)
(0.23708459 1.5596214e-10 0)
(0.23708459 4.5225018e-11 0)
(0.23708459 1.4116024e-10 0)
(0.23708459 2.9160593e-11 0)
(0.23708459 1.2382981e-10 0)
(0.23708459 -5.9653652e-12 0)
(0.23708459 7.9633662e-11 0)
(0.23708459 -4.3462988e-11 0)
(0.23708459 5.2150502e-11 0)
(0.23708459 -7.5772399e-11 0)
(0.23708459 1.516748e-11 0)
(0.23708459 -1.0275408e-10 0)
(0.23708459 -3.3537687e-12 0)
(0.23708459 -1.2661127e-10 0)
(0.23708459 -3.051137e-11 0)
(0.23708459 -1.3553747e-10 0)
(0.23708459 -2.4035699e-11 0)
(0.23708459 -1.3104699e-10 0)
(0.23708459 -1.7923195e-11 0)
(0.23708459 -1.1070856e-10 0)
(0.23708459 1.9889766e-11 0)
(0.23708459 -8.3713903e-11 0)
(0.23708459 3.8100048e-11 0)
(0.23708459 -9.2380576e-11 0)
(0.23708459 -2.2281516e-11 0)
(0.23708459 -3.1199736e-10 0)
(0.23708459 -3.8282872e-10 0)
(0.23708459 -8.8046213e-10 0)
(0.23708459 -1.4292931e-09 0)
(0.23708458 -2.8422178e-09 0)
(0.23708458 -4.4100251e-09 0)
(0.23708456 -8.6624824e-09 0)
(0.23708455 -1.1250907e-08 0)
)
;

boundaryField
{
    top
    {