/*--------------------------------*- C++ -*----------------------------------*\
| =========                 |                                                 |
| \\      /  F ield         | OpenFOAM: The Open Source CFD Toolbox           |
|  \\    /   O peration     | Version:  v1812                                 |
|   \\  /    A nd           | Web:      www.OpenFOAM.com                      |
|    \\/     M anipulation  |                                                 |
\*---------------------------------------------------------------------------*/
FoamFile
{
    version     2.0;
    format      ascii;
    class       volScalarField;
    location    "12.3";
    object      p;
}
// * * * * * * * * * * * * * * * * * * * * * * * * * * * * * * * * * * * * * //

dimensions      [0 2 -2 0 0 0 0];


internalField   nonuniform List<scalar> 
1000
(
1.6755986
1.5545207
1.4585402
1.3948841
1.3463746
1.3039026
1.2663673
1.2341956
1.2067952
1.1829577
1.1615633
1.1417995
1.1231224
1.1051828
1.0877675
1.0707533
1.0540724
1.0376883
1.0215801
1.0057342
0.99013917
0.97478407
0.95965737
0.94474713
0.93004112
0.91552712
0.90119316
0.88702765
0.87301961
0.85915861
0.8454349
0.83183935
0.81836345
0.80499928
0.79173944
0.77857707
0.76550576
0.75251956
0.7396129
0.72678059
0.71401779
0.70131998
0.68868294
0.67610272
0.66357563
0.65109823
0.63866729
0.62627981
0.61393296
0.60162411
0.5893508
0.5771107
0.56490167
0.55272168
0.54056884
0.5284414
0.51633768
0.50425617
0.4921954
0.48015403
0.4681308
0.45612451
0.44413406
0.43215841
0.42019659
0.4082477
0.3963109
0.3843854
0.37247046
0.3605654
0.34866957
0.33678235
0.32490317
0.31303151
0.30116688
0.28930881
0.27745688
0.26561069
0.25376986
0.24193406
0.23010293
0.21827618
0.20645349
0.19463462
0.1828193
0.17100731
0.15919844
0.14739248
0.13558925
0.12378856
0.11199024
0.10019414
0.088400089
0.076607975
0.064817672
0.053029065
0.041242089
0.029456553
0.017672636
0.0058897002
1.5583789
1.5034499
1.4424974
1.3909297
1.3476596
1.3086913
1.273105
1.2413324
1.2133715
1.1885937
1.1661918
1.1454904
1.1260088
1.1074207
1.0895072
1.0721224
1.0551706
1.0385892
1.0223365
1.006383
0.99070599
0.97528645
0.9601076
0.94515393
0.93041087
0.91586465
0.90150224
0.88731138
0.87328055
0.85939898
0.84565661
0.83204411
0.81855275
0.80517445
0.7919017
0.77872748
0.76564531
0.75264911
0.73973324
0.72689244
0.71412181
0.70141675
0.688773
0.67618656
0.66365372
0.65117097
0.63873508
0.62634299
0.61399187
0.60167905
0.58940203
0.57715849
0.56494625
0.55276327
0.54060764
0.5284776
0.51637147
0.50428771
0.49222484
0.48018152
0.46815646
0.45614847
0.44415643
0.43217929
0.42021608
0.40826589
0.39632789
0.38440126
0.37248529
0.36057925
0.34868251
0.33679443
0.32491446
0.31304205
0.3011767
0.28931798
0.27746544
0.26561869
0.25377734
0.24194105
0.23010948
0.21828229
0.2064592
0.19463994
0.18282426
0.17101193
0.15920275
0.14739652
0.13559303
0.12379211
0.11199356
0.10019723
0.088402964
0.07661064
0.064820147
0.053031341
0.041244225
0.029458423
0.017674317
0.0058905394
1.4975577
1.4713826
1.4329857
1.3918528
1.3527676
1.3161768
1.2818791
1.2501616
1.2213055
1.1952044
1.1714504
1.1495604
1.1291106
1.1097697
1.0912895
1.0734885
1.0562366
1.0394411
1.023035
1.0069699
0.9912095
0.9757258
0.96049593
0.94550042
0.93072215
0.91614566
0.90175684
0.88754268
0.87349114
0.85959108
0.84583216
0.83220478
0.81870004
0.80530967
0.79202601
0.77884192
0.76575079
0.75274645
0.73982316
0.72697559
0.71419876
0.70148803
0.68883908
0.67624786
0.66371061
0.65122381
0.63878419
0.62638865
0.61403434
0.60171857
0.58943881
0.57719273
0.56497814
0.55279297
0.54063532
0.52850339
0.51639552
0.50431013
0.49224576
0.48020103
0.46817466
0.45616545
0.44417226
0.43219405
0.42022985
0.40827874
0.39633988
0.38441247
0.37249575
0.36058903
0.34869164
0.33680295
0.3249224
0.31304945
0.30118361
0.28932442
0.27747146
0.26562432
0.25378262
0.24194599
0.23011409
0.21828659
0.2064632
0.19464366
0.18282772
0.17101517
0.15920578
0.14739937
0.1355957
0.12379462
0.11199589
0.10019941
0.088404964
0.076612491
0.064821831
0.053032888
0.041245567
0.029459601
0.017675031
0.005891022
1.4681492
1.4526511
1.4257811
1.3918573
1.3560563
1.321105
1.287803
1.25645
1.2273193
1.2005278
1.1759403
1.153248
1.1320962
1.1121675
1.0932093
1.0750296
1.0574838
1.0404628
1.0238842
1.0076862
0.99182223
0.97625647
0.9609605
0.94591083
0.9310874
0.91647267
0.90205104
0.88780842
0.87373197
0.85980996
0.84603158
0.83238688
0.81886665
0.80546239
0.79216624
0.77897088
0.76586954
0.75285594
0.73992423
0.72706898
0.71428514
0.70156799
0.68891316
0.67631655
0.66377435
0.651283
0.63883917
0.62643976
0.61408186
0.60176276
0.58947993
0.57723099
0.56501375
0.55282613
0.54066622
0.5285322
0.51642238
0.50433518
0.49226912
0.48022281
0.46819496
0.45618436
0.44418988
0.43221049
0.4202452
0.40829308
0.39635329
0.384425
0.37250745
0.36059994
0.3487018
0.33681241
0.32493121
0.31305767
0.3011913
0.28933163
0.27747822
0.26563065
0.25378853
0.2419515
0.2301192
0.21829133
0.20646761
0.19464778
0.18283159
0.17101882
0.15920922
0.14740259
0.1355987
0.1237974
0.11199844
0.10020178
0.088407142
0.076614557
0.064823708
0.053034684
0.041247058
0.029461025
0.017675886
0.0058920509
1.4554176
1.4434643
1.4212299
1.3909423
1.3570812
1.3230856
1.290388
1.2593824
1.230285
1.2032732
1.1783461
1.1552965
1.133815
1.1135974
1.0943938
1.0760116
1.0583027
1.0411522
1.0244714
1.0081922
0.99226324
0.97664469
0.96130517
0.94621903
0.93136458
0.91672311
0.90227813
0.88801494
0.87392024
0.85998194
0.84618896
0.83253113
0.81899906
0.8055841
0.79227824
0.77907407
0.76596471
0.7529438
0.74000541
0.72714404
0.7143546
0.70163232
0.68897278
0.67637185
0.66382569
0.65133068
0.63888348
0.62648094
0.61412015
0.60179836
0.58951303
0.57726179
0.56504242
0.55285284
0.54069111
0.52855542
0.51644403
0.50435537
0.49228794
0.48024034
0.46821127
0.45619955
0.44420405
0.43222371
0.42025755
0.40830465
0.39636411
0.38443511
0.37251688
0.36060871
0.34870994
0.33681998
0.32493827
0.31306427
0.30119749
0.28933746
0.2774837
0.26563578
0.2537933
0.24195591
0.23012326
0.21829509
0.20647111
0.19465108
0.18283473
0.1710218
0.15921203
0.14740522
0.13560111
0.1237996
0.11200044
0.10020363
0.08840886
0.076616232
0.064825255
0.053036204
0.041248329
0.029462258
0.017676683
0.0058930406
1.4554176
1.4434643
1.4212299
1.3909423
1.3570812
1.3230856
1.290388
1.2593824
1.230285
1.2032732
1.1783461
1.1552966
1.133815
1.1135974
1.0943938
1.0760116
1.0583027
1.0411522
1.0244714
1.0081922
0.99226324
0.97664469
0.96130518
0.94621904
0.93136459
0.91672311
0.90227813
0.88801493
0.87392023
0.85998193
0.84618895
0.83253112
0.81899906
0.80558411
0.79227826
0.77907408
0.76596472
0.7529438
0.7400054
0.72714403
0.71435458
0.70163231
0.68897278
0.67637186
0.6638257
0.6513307
0.63888349
0.62648095
0.61412014
0.60179834
0.58951301
0.57726178
0.56504241
0.55285285
0.54069113
0.52855544
0.51644405
0.50435538
0.49228793
0.48024032
0.46821125
0.45619953
0.44420403
0.43222372
0.42025758
0.40830468
0.39636414
0.38443512
0.37251687
0.36060868
0.34870991
0.33681995
0.32493825
0.31306428
0.30119752
0.2893375
0.27748374
0.2656358
0.25379329
0.24195587
0.23012322
0.21829505
0.2064711
0.1946511
0.18283477
0.17102185
0.15921207
0.14740523
0.13560109
0.12379955
0.11200039
0.10020359
0.088408854
0.076616257
0.064825299
0.053036252
0.04124836
0.029462254
0.017676657
0.0058930252
1.4681492
1.4526511
1.4257812
1.3918573
1.3560563
1.321105
1.287803
1.2564499
1.2273193
1.2005278
1.1759403
1.1532481
1.1320963
1.1121675
1.0932093
1.0750296
1.0574838
1.0404628
1.0238842
1.0076862
0.99182222
0.97625648
0.96096053
0.94591086
0.93108742
0.91647269
0.90205104
0.8878084
0.87373194
0.85980993
0.84603156
0.83238687
0.81886666
0.80546242
0.79216626
0.7789709
0.76586955
0.75285593
0.73992421
0.72706895
0.71428511
0.70156798
0.68891316
0.67631657
0.66377438
0.65128303
0.63883919
0.62643976
0.61408184
0.60176273
0.58947989
0.57723097
0.56501375
0.55282616
0.54066626
0.52853224
0.51642242
0.50433519
0.4922691
0.48022276
0.4681949
0.45618431
0.44418987
0.43221051
0.42024525
0.40829315
0.39635334
0.38442502
0.37250743
0.36059988
0.34870172
0.33681235
0.32493119
0.3130577
0.30119137
0.28933171
0.27747829
0.26563068
0.2537885
0.24195142
0.23011911
0.21829126
0.20646759
0.19464783
0.18283168
0.17101892
0.15920929
0.1474026
0.13559864
0.12379729
0.11199834
0.10020171
0.088407144
0.076614622
0.064823803
0.053034778
0.041247109
0.029461
0.017675832
0.0058920253
1.4975577
1.4713826
1.4329858
1.3918529
1.3527676
1.3161768
1.2818791
1.2501615
1.2213055
1.1952044
1.1714504
1.1495604
1.1291106
1.1097697
1.0912895
1.0734885
1.0562366
1.039441
1.023035
1.0069698
0.99120949
0.97572581
0.96049594
0.94550044
0.93072217
0.91614567
0.90175684
0.88754266
0.87349112
0.85959106
0.84583215
0.83220478
0.81870005
0.80530969
0.79202603
0.77884194
0.76575079
0.75274644
0.73982314
0.72697557
0.71419875
0.70148803
0.68883908
0.67624787
0.66371063
0.65122383
0.6387842
0.62638865
0.61403432
0.60171854
0.58943879
0.57719272
0.56497814
0.55279299
0.54063535
0.52850342
0.51639553
0.50431013
0.49224574
0.480201
0.46817462
0.45616542
0.44417225
0.43219407
0.42022989
0.40827879
0.39633991
0.38441248
0.37249573
0.36058898
0.34869158
0.33680291
0.32492239
0.31304948
0.30118366
0.28932448
0.2774715
0.26562433
0.25378259
0.24194594
0.23011403
0.21828655
0.2064632
0.1946437
0.18282779
0.17101524
0.15920582
0.14739936
0.13559565
0.12379454
0.11199582
0.10019936
0.088404971
0.07661254
0.0648219
0.053032952
0.041245596
0.029459582
0.017675001
0.0058910119
1.5583789
1.5034499
1.4424974
1.3909297
1.3476596
1.3086913
1.273105
1.2413324
1.2133715
1.1885937
1.1661918
1.1454904
1.1260088
1.1074208
1.0895072
1.0721224
1.0551706
1.0385892
1.0223365
1.006383
0.99070599
0.97528646
0.96010761
0.94515394
0.93041088
0.91586466
0.90150224
0.88731138
0.87328054
0.85939897
0.84565661
0.83204411
0.81855275
0.80517446
0.7919017
0.77872749
0.76564531
0.7526491
0.73973323
0.72689243
0.7141218
0.70141675
0.688773
0.67618657
0.66365372
0.65117098
0.63873508
0.62634299
0.61399186
0.60167904
0.58940202
0.57715849
0.56494625
0.55276328
0.54060766
0.52847761
0.51637148
0.5042877
0.49222483
0.48018151
0.46815645
0.45614846
0.44415643
0.4321793
0.4202161
0.40826591
0.3963279
0.38440127
0.37248528
0.36057924
0.34868249
0.33679442
0.32491446
0.31304206
0.30117672
0.289318
0.27746545
0.26561869
0.25377734
0.24194104
0.23010946
0.21828228
0.2064592
0.19463995
0.18282428
0.17101196
0.15920277
0.14739652
0.13559301
0.12379208
0.11199353
0.10019721
0.088402965
0.076610657
0.064820173
0.053031364
0.041244234
0.029458421
0.01767432
0.0058905446
1.6755986
1.5545207
1.4585403
1.3948841
1.3463746
1.3039026
1.2663673
1.2341956
1.2067952
1.1829577
1.1615633
1.1417995
1.1231224
1.1051828
1.0877675
1.0707533
1.0540724
1.0376882
1.0215801
1.0057341
0.99013917
0.97478407
0.95965737
0.94474713
0.93004112
0.91552713
0.90119316
0.88702765
0.8730196
0.85915861
0.8454349
0.83183935
0.81836345
0.80499928
0.79173944
0.77857707
0.76550576
0.75251956
0.73961289
0.72678059
0.71401779
0.70131998
0.68868294
0.67610272
0.66357563
0.65109823
0.63866729
0.62627981
0.61393296
0.60162411
0.5893508
0.5771107
0.56490167
0.55272168
0.54056885
0.5284414
0.51633768
0.50425616
0.4921954
0.48015403
0.4681308
0.45612451
0.44413406
0.43215841
0.42019659
0.4082477
0.3963109
0.3843854
0.37247047
0.3605654
0.34866957
0.33678235
0.32490317
0.31303151
0.30116688
0.28930881
0.27745688
0.26561069
0.25376987
0.24193406
0.23010293
0.21827618
0.20645349
0.19463462
0.1828193
0.17100732
0.15919844
0.14739248
0.13558925
0.12378856
0.11199023
0.10019413
0.088400081
0.076607973
0.064817676
0.053029072
0.041242098
0.029456566
0.017672655
0.0058897102
)
;

boundaryField
{
    top
    {
        type            zeroGradient;
    }
    inlet
    {
        type            zeroGradient;
    }
    outlet
    {
        type            fixedValue;
        value           uniform 0;
    }
    bottom
    {
        type            zeroGradient;
    }
    back
    {
        type            empty;
    }
    front
    {
        type            empty;
    }
}


// ************************************************************************* //
