/*--------------------------------*- C++ -*----------------------------------*\
| =========                 |                                                 |
| \\      /  F ield         | OpenFOAM: The Open Source CFD Toolbox           |
|  \\    /   O peration     | Version:  v1812                                 |
|   \\  /    A nd           | Web:      www.OpenFOAM.com                      |
|    \\/     M anipulation  |                                                 |
\*---------------------------------------------------------------------------*/
FoamFile
{
    version     2.0;
    format      ascii;
    class       volVectorField;
    location    "8.35";
    object      U;
}
// * * * * * * * * * * * * * * * * * * * * * * * * * * * * * * * * * * * * * //

dimensions      [0 1 -1 0 0 0 0];


internalField   nonuniform List<vector> 
1000
(
(0.91890839 0.035821913 0)
(0.86271384 0.062195638 0)
(0.7870597 0.06251009 0)
(0.69536033 0.054550395 0)
(0.61089745 0.044531651 0)
(0.54411592 0.034015971 0)
(0.49343012 0.024187539 0)
(0.45479413 0.016144229 0)
(0.42544582 0.010265785 0)
(0.40347313 0.0063041452 0)
(0.38715766 0.0037976295 0)
(0.3749622 0.0023103382 0)
(0.36566192 0.001493015 0)
(0.35836272 0.0010851184 0)
(0.35244267 0.0009060725 0)
(0.34748201 0.0008410519 0)
(0.34320348 0.00082372423 0)
(0.33942726 0.00081931038 0)
(0.33603793 0.00081185184 0)
(0.33296114 0.00079580101 0)
(0.33014778 0.00077081129 0)
(0.32756384 0.00073870944 0)
(0.3251842 0.00070188946 0)
(0.32298902 0.000662566 0)
(0.32096172 0.00062250003 0)
(0.31908784 0.00058295792 0)
(0.31735449 0.00054477195 0)
(0.31574995 0.00050843434 0)
(0.3142636 0.00047419155 0)
(0.31288574 0.00044212437 0)
(0.31160755 0.00041220916 0)
(0.31042101 0.0003843614 0)
(0.30931882 0.00035846494 0)
(0.30829437 0.00033439057 0)
(0.30734164 0.00031200724 0)
(0.30645514 0.0002911884 0)
(0.3056299 0.0002718152 0)
(0.30486135 0.00025377775 0)
(0.30414534 0.0002369753 0)
(0.30347806 0.00022131581 0)
(0.302856 0.00020671527 0)
(0.30227595 0.00019309694 0)
(0.30173495 0.00018039056 0)
(0.30123027 0.00016853171 0)
(0.30075939 0.00015746118 0)
(0.30031998 0.00014712444 0)
(0.29990988 0.00013747122 0)
(0.2995271 0.00012845502 0)
(0.29916977 0.00012003284 0)
(0.29883616 0.00011216478 0)
(0.29852469 0.00010481372 0)
(0.29823386 9.7945081e-05 0)
(0.29796229 9.1526513e-05 0)
(0.29770869 8.5527747e-05 0)
(0.29747186 7.992038e-05 0)
(0.2972507 7.4677706e-05 0)
(0.29704416 6.9774664e-05 0)
(0.2968513 6.5187629e-05 0)
(0.29667121 6.089443e-05 0)
(0.29650307 5.6874118e-05 0)
(0.29634611 5.3106985e-05 0)
(0.29619961 4.9574376e-05 0)
(0.29606292 4.6258746e-05 0)
(0.29593544 4.3143464e-05 0)
(0.29581659 4.0213081e-05 0)
(0.29570587 3.7453074e-05 0)
(0.2956028 3.4850301e-05 0)
(0.29550694 3.2392637e-05 0)
(0.29541788 3.0069434e-05 0)
(0.29533525 2.7871083e-05 0)
(0.2952587 2.5789324e-05 0)
(0.2951879 2.3816776e-05 0)
(0.29512255 2.1947258e-05 0)
(0.29506236 2.0175261e-05 0)
(0.29500706 1.8496482e-05 0)
(0.2949564 1.6907179e-05 0)
(0.29491012 1.5404836e-05 0)
(0.29486798 1.3987379e-05 0)
(0.29482974 1.2653593e-05 0)
(0.29479517 1.1402413e-05 0)
(0.29476403 1.0232995e-05 0)
(0.29473611 9.144144e-06 0)
(0.29471116 8.1345524e-06 0)
(0.29468899 7.2022366e-06 0)
(0.29466938 6.3453961e-06 0)
(0.29465212 5.5614529e-06 0)
(0.29463702 4.848511e-06 0)
(0.29462386 4.2035757e-06 0)
(0.29461246 3.6247902e-06 0)
(0.29460264 3.107911e-06 0)
(0.29459421 2.6511752e-06 0)
(0.29458704 2.2477921e-06 0)
(0.29458095 1.8974371e-06 0)
(0.29457583 1.5897973e-06 0)
(0.29457154 1.3291908e-06 0)
(0.29456798 1.1008946e-06 0)
(0.29456503 9.1661692e-07 0)
(0.29456257 7.5757997e-07 0)
(0.29456063 6.389335e-07 0)
(0.29455864 5.4775831e-07 0)
(1.0016583 0.05381943 0)
(1.0359761 0.10128444 0)
(1.0597199 0.11073663 0)
(1.0628947 0.10592202 0)
(1.0515569 0.096228728 0)
(1.0340529 0.083934061 0)
(1.0142795 0.070327063 0)
(0.99360703 0.056981333 0)
(0.97292577 0.045107479 0)
(0.9531074 0.03523675 0)
(0.93479538 0.02740165 0)
(0.91829012 0.021387228 0)
(0.90362379 0.016884499 0)
(0.89068067 0.013569709 0)
(0.87928174 0.011147749 0)
(0.86923242 0.0093736593 0)
(0.86034423 0.0080569285 0)
(0.85244667 0.0070571275 0)
(0.84539241 0.0062752382 0)
(0.83905793 0.0056438281 0)
(0.83334126 0.0051180905 0)
(0.82815884 0.0046686719 0)
(0.82344212 0.0042764173 0)
(0.81913467 0.0039287392 0)
(0.81518961 0.0036172043 0)
(0.81156765 0.0033359715 0)
(0.80823543 0.003080805 0)
(0.8051644 0.0028484696 0)
(0.80232979 0.0026363695 0)
(0.79970999 0.0024423383 0)
(0.79728597 0.0022645184 0)
(0.79504086 0.0021012897 0)
(0.79295962 0.0019512257 0)
(0.79102879 0.0018130643 0)
(0.78923626 0.0016856856 0)
(0.78757109 0.0015680953 0)
(0.78602337 0.0014594089 0)
(0.7845841 0.0013588389 0)
(0.7832451 0.0012656832 0)
(0.78199887 0.0011793141 0)
(0.78083858 0.0010991695 0)
(0.77975796 0.0010247441 0)
(0.77875125 0.00095558271 0)
(0.77781314 0.00089127399 0)
(0.77693877 0.0008314451 0)
(0.77612363 0.00077575724 0)
(0.77536357 0.0007239017 0)
(0.77465475 0.00067559647 0)
(0.77399362 0.00063058328 0)
(0.77337688 0.00058862495 0)
(0.77280148 0.00054950312 0)
(0.7722646 0.00051301616 0)
(0.77176362 0.00047897746 0)
(0.7712961 0.00044721383 0)
(0.77085978 0.0004175642 0)
(0.77045257 0.00038987846 0)
(0.77007253 0.0003640165 0)
(0.76971784 0.0003398473 0)
(0.76938685 0.00031724823 0)
(0.76907798 0.0002961043 0)
(0.76878982 0.00027630766 0)
(0.76852103 0.00025775702 0)
(0.76827038 0.00024035747 0)
(0.76803675 0.00022402016 0)
(0.76781907 0.00020866236 0)
(0.7676164 0.00019420754 0)
(0.76742785 0.0001805856 0)
(0.76725258 0.00016773283 0)
(0.76708985 0.00015559216 0)
(0.76693895 0.0001441128 0)
(0.76679922 0.00013325026 0)
(0.76667006 0.00012296574 0)
(0.7665509 0.00011322603 0)
(0.76644121 0.00010400303 0)
(0.76634047 9.527359e-05 0)
(0.76624821 8.7019039e-05 0)
(0.76616395 7.9224956e-05 0)
(0.76608726 7.1880162e-05 0)
(0.76601767 6.4976366e-05 0)
(0.76595477 5.8506501e-05 0)
(0.76589812 5.2464405e-05 0)
(0.76584731 4.6843061e-05 0)
(0.76580194 4.1634955e-05 0)
(0.76576162 3.6830512e-05 0)
(0.76572594 3.2419958e-05 0)
(0.76569454 2.8390596e-05 0)
(0.76566703 2.4731224e-05 0)
(0.76564307 2.1425383e-05 0)
(0.7656223 1.8461144e-05 0)
(0.76560441 1.5815519e-05 0)
(0.76558905 1.3477432e-05 0)
(0.76557598 1.1413051e-05 0)
(0.76556488 9.6192739e-06 0)
(0.76555556 8.0447786e-06 0)
(0.76554773 6.7117611e-06 0)
(0.76554123 5.5341537e-06 0)
(0.76553589 4.5966536e-06 0)
(0.76553132 3.722327e-06 0)
(0.76552806 3.1690627e-06 0)
(0.76552411 2.4504995e-06 0)
(1.0014244 0.026824855 0)
(1.0291272 0.062791352 0)
(1.0654292 0.077736553 0)
(1.098962 0.0805972 0)
(1.1253149 0.078285171 0)
(1.145053 0.0731539 0)
(1.1594858 0.066111278 0)
(1.1694287 0.058162063 0)
(1.1755354 0.050296754 0)
(1.1785738 0.043150708 0)
(1.1793571 0.036972825 0)
(1.1785949 0.031771632 0)
(1.1768304 0.02745184 0)
(1.1744518 0.023886768 0)
(1.1717287 0.02094762 0)
(1.1688444 0.018515781 0)
(1.1659195 0.016488085 0)
(1.1630317 0.014779503 0)
(1.1602295 0.013322985 0)
(1.1575415 0.012067132 0)
(1.1549828 0.010973001 0)
(1.1525601 0.010011062 0)
(1.1502747 0.0091587474 0)
(1.1481246 0.0083986053 0)
(1.1461059 0.0077169519 0)
(1.1442134 0.0071028897 0)
(1.1424414 0.0065475932 0)
(1.1407838 0.0060437965 0)
(1.1392344 0.0055854269 0)
(1.1377869 0.0051673453 0)
(1.1364353 0.0047851577 0)
(1.1351738 0.0044350774 0)
(1.1339968 0.0041138187 0)
(1.1328987 0.0038185157 0)
(1.1318746 0.0035466567 0)
(1.1309195 0.0032960316 0)
(1.1300289 0.003064688 0)
(1.1291985 0.0028508955 0)
(1.1284242 0.002653115 0)
(1.1277022 0.0024699732 0)
(1.1270291 0.0023002405 0)
(1.1264014 0.002142813 0)
(1.125816 0.0019966959 0)
(1.1252702 0.0018609909 0)
(1.1247612 0.0017348842 0)
(1.1242865 0.0016176365 0)
(1.1238437 0.0015085752 0)
(1.1234307 0.0014070862 0)
(1.1230455 0.0013126079 0)
(1.1226861 0.0012246255 0)
(1.1223509 0.0011426661 0)
(1.1220381 0.001066294 0)
(1.1217462 0.00099510701 0)
(1.121474 0.00092873316 0)
(1.1212199 0.00086682752 0)
(1.1209828 0.00080906973 0)
(1.1207616 0.00075516152 0)
(1.1205552 0.00070482486 0)
(1.1203626 0.00065780004 0)
(1.1201828 0.0006138442 0)
(1.1200152 0.00057272983 0)
(1.1198587 0.00053424386 0)
(1.1197128 0.00049818658 0)
(1.1195768 0.00046437138 0)
(1.1194499 0.00043262412 0)
(1.1193317 0.00040278342 0)
(1.1192216 0.00037470038 0)
(1.1191191 0.00034823896 0)
(1.1190238 0.00032327578 0)
(1.1189352 0.00029970014 0)
(1.1188529 0.0002774136 0)
(1.1187766 0.00025632981 0)
(1.1187059 0.00023637378 0)
(1.1186406 0.00021748167 0)
(1.1185803 0.00019959993 0)
(1.1185247 0.00018268479 0)
(1.1184737 0.00016670125 0)
(1.1184269 0.00015162168 0)
(1.1183842 0.00013742474 0)
(1.1183453 0.00012409288 0)
(1.1183099 0.00011161166 0)
(1.1182779 9.9966595e-05 0)
(1.118249 8.9143805e-05 0)
(1.1182231 7.9126369e-05 0)
(1.1181999 6.9897787e-05 0)
(1.1181793 6.1435473e-05 0)
(1.118161 5.3720228e-05 0)
(1.1181449 4.6720658e-05 0)
(1.1181308 4.0416651e-05 0)
(1.1181185 3.4761553e-05 0)
(1.1181078 2.9741096e-05 0)
(1.1180986 2.528066e-05 0)
(1.1180906 2.1394282e-05 0)
(1.1180839 1.7949402e-05 0)
(1.1180781 1.5047824e-05 0)
(1.1180734 1.2415313e-05 0)
(1.1180693 1.0392366e-05 0)
(1.1180658 8.3297547e-06 0)
(1.1180634 7.1977057e-06 0)
(1.1180603 5.3616123e-06 0)
(1.0007347 0.011814722 0)
(1.0178472 0.030860927 0)
(1.0462163 0.041434441 0)
(1.0799018 0.04519357 0)
(1.1132664 0.045502351 0)
(1.143782 0.044080308 0)
(1.1708941 0.041439982 0)
(1.1945687 0.037973678 0)
(1.2148582 0.034195729 0)
(1.2319652 0.030536887 0)
(1.2462683 0.027222045 0)
(1.2582339 0.024313921 0)
(1.2683135 0.021797889 0)
(1.2768875 0.01963366 0)
(1.2842554 0.017773827 0)
(1.2906479 0.016169652 0)
(1.296243 0.01477559 0)
(1.3011791 0.013552297 0)
(1.3055645 0.012467864 0)
(1.3094838 0.011497466 0)
(1.3130042 0.010622162 0)
(1.3161792 0.0098275139 0)
(1.3190526 0.0091024121 0)
(1.3216607 0.0084381781 0)
(1.3240343 0.0078279054 0)
(1.3261995 0.007265976 0)
(1.3281786 0.0067477102 0)
(1.3299913 0.0062691181 0)
(1.3316544 0.0058267288 0)
(1.3331829 0.0054174747 0)
(1.3345896 0.005038614 0)
(1.3358862 0.004687676 0)
(1.3370827 0.0043624225 0)
(1.3381882 0.0040608184 0)
(1.3392108 0.0037810089 0)
(1.3401576 0.0035213003 0)
(1.3410349 0.0032801441 0)
(1.3418486 0.0030561232 0)
(1.3426038 0.0028479398 0)
(1.3433051 0.0026544037 0)
(1.3439569 0.0024744228 0)
(1.3445629 0.0023069942 0)
(1.3451267 0.0021511958 0)
(1.3456513 0.002006179 0)
(1.3461398 0.0018711625 0)
(1.3465947 0.0017454261 0)
(1.3470185 0.0016283054 0)
(1.3474135 0.0015191869 0)
(1.3477816 0.0014175038 0)
(1.3481249 0.0013227314 0)
(1.3484449 0.0012343838 0)
(1.3487435 0.0011520107 0)
(1.3490219 0.0010751936 0)
(1.3492817 0.0010035437 0)
(1.3495241 0.00093669898 0)
(1.3497503 0.00087432213 0)
(1.3499614 0.00081609826 0)
(1.3501584 0.00076173316 0)
(1.3503421 0.00071095146 0)
(1.3505136 0.00066349539 0)
(1.3506736 0.00061912309 0)
(1.3508228 0.00057760775 0)
(1.3509619 0.00053873651 0)
(1.3510915 0.00050231002 0)
(1.3512123 0.0004681418 0)
(1.3513247 0.00043605835 0)
(1.3514292 0.00040589863 0)
(1.3515263 0.00037751462 0)
(1.3516165 0.00035077061 0)
(1.3517 0.00032554376 0)
(1.3517772 0.00030172334 0)
(1.3518485 0.000279211 0)
(1.3519142 0.00025792001 0)
(1.3519745 0.00023777538 0)
(1.3520298 0.00021871289 0)
(1.3520804 0.00020067908 0)
(1.3521264 0.00018362968 0)
(1.3521682 0.0001675292 0)
(1.3522059 0.00015234902 0)
(1.3522399 0.00013806603 0)
(1.3522704 0.0001246613 0)
(1.3522976 0.00011211747 0)
(1.3523217 0.00010041943 0)
(1.3523431 8.9549743e-05 0)
(1.3523618 7.9493533e-05 0)
(1.3523782 7.0228814e-05 0)
(1.3523925 6.1740193e-05 0)
(1.3524048 5.3995594e-05 0)
(1.3524154 4.6982554e-05 0)
(1.3524245 4.0647973e-05 0)
(1.3524321 3.4995042e-05 0)
(1.3524386 2.9926525e-05 0)
(1.3524439 2.5498962e-05 0)
(1.3524485 2.1515749e-05 0)
(1.352452 1.8182254e-05 0)
(1.3524554 1.5063863e-05 0)
(1.3524575 1.2739816e-05 0)
(1.3524601 1.0207847e-05 0)
(1.352461 8.9229813e-06 0)
(1.3524633 6.6084683e-06 0)
(1.0005903 0.0034629159 0)
(1.0136865 0.0093660198 0)
(1.0370283 0.013046806 0)
(1.0674202 0.014563261 0)
(1.1000315 0.014854525 0)
(1.1316428 0.014564991 0)
(1.1610745 0.013888338 0)
(1.1880674 0.012919245 0)
(1.2125205 0.011806506 0)
(1.2343939 0.010696427 0)
(1.2538077 0.0096727423 0)
(1.2710339 0.0087628224 0)
(1.286401 0.007965974 0)
(1.3002112 0.0072722149 0)
(1.3127102 0.0066688088 0)
(1.3240903 0.0061419254 0)
(1.3345036 0.0056780722 0)
(1.3440716 0.005265321 0)
(1.3528927 0.0048939353 0)
(1.3610463 0.0045563963 0)
(1.3685975 0.0042470705 0)
(1.3756004 0.0039617769 0)
(1.3821012 0.0036973989 0)
(1.3881402 0.0034515839 0)
(1.3937533 0.00322252 0)
(1.3989728 0.0030087712 0)
(1.403828 0.0028091593 0)
(1.4083456 0.0026226805 0)
(1.4125503 0.0024484512 0)
(1.4164646 0.0022856725 0)
(1.4201094 0.0021336098 0)
(1.423504 0.001991579 0)
(1.426666 0.0018589398 0)
(1.4296121 0.0017350901 0)
(1.4323573 0.0016194634 0)
(1.4349158 0.0015115267 0)
(1.4373007 0.0014107785 0)
(1.4395241 0.0013167478 0)
(1.441597 0.0012289922 0)
(1.4435301 0.001147097 0)
(1.4453329 0.0010706736 0)
(1.4470143 0.00099935808 0)
(1.4485827 0.00093280985 0)
(1.4500459 0.00087071054 0)
(1.451411 0.00081276256 0)
(1.4526846 0.00075868794 0)
(1.4538731 0.00070822707 0)
(1.4549822 0.00066113757 0)
(1.4560172 0.00061719312 0)
(1.4569831 0.00057618236 0)
(1.4578847 0.00053790787 0)
(1.4587262 0.00050218515 0)
(1.4595117 0.00046884174 0)
(1.4602449 0.00043771636 0)
(1.4609293 0.00040865813 0)
(1.4615682 0.00038152573 0)
(1.4621646 0.00035618682 0)
(1.4627213 0.00033251728 0)
(1.4632409 0.00031040066 0)
(1.4637259 0.00028972744 0)
(1.4641785 0.00027039472 0)
(1.4646008 0.0002523057 0)
(1.4649947 0.00023536947 0)
(1.4653621 0.00021950059 0)
(1.4657045 0.00020461914 0)
(1.4660236 0.00019065047 0)
(1.4663206 0.00017752526 0)
(1.466597 0.00016517941 0)
(1.466854 0.00015355393 0)
(1.4670926 0.00014259497 0)
(1.4673139 0.0001322537 0)
(1.4675188 0.00012248625 0)
(1.4677082 0.00011325381 0)
(1.4678831 0.00010452236 0)
(1.4680441 9.626274e-05 0)
(1.468192 8.845024e-05 0)
(1.4683275 8.1064237e-05 0)
(1.4684513 7.4087793e-05 0)
(1.4685642 6.7506979e-05 0)
(1.4686666 6.131028e-05 0)
(1.4687592 5.5488232e-05 0)
(1.4688427 5.0032195e-05 0)
(1.4689177 4.4935061e-05 0)
(1.4689847 4.0188873e-05 0)
(1.4690443 3.5787484e-05 0)
(1.4690972 3.1721491e-05 0)
(1.4691437 2.7985734e-05 0)
(1.4691846 2.4565966e-05 0)
(1.4692202 2.1459781e-05 0)
(1.4692512 1.8641812e-05 0)
(1.4692779 1.611995e-05 0)
(1.4693009 1.3844565e-05 0)
(1.4693203 1.1854803e-05 0)
(1.4693372 1.0046076e-05 0)
(1.4693508 8.5391798e-06 0)
(1.4693632 7.1016377e-06 0)
(1.4693721 6.0487296e-06 0)
(1.4693816 4.8590238e-06 0)
(1.4693862 4.2780895e-06 0)
(1.4693951 3.1766315e-06 0)
(1.0005903 -0.0034629158 0)
(1.0136865 -0.0093660197 0)
(1.0370283 -0.013046806 0)
(1.0674202 -0.014563261 0)
(1.1000315 -0.014854525 0)
(1.1316428 -0.014564991 0)
(1.1610745 -0.013888338 0)
(1.1880674 -0.012919245 0)
(1.2125205 -0.011806506 0)
(1.2343939 -0.010696427 0)
(1.2538077 -0.0096727418 0)
(1.2710339 -0.0087628219 0)
(1.286401 -0.0079659736 0)
(1.3002112 -0.0072722147 0)
(1.3127102 -0.0066688087 0)
(1.3240903 -0.0061419253 0)
(1.3345036 -0.005678072 0)
(1.3440716 -0.0052653206 0)
(1.3528927 -0.0048939344 0)
(1.3610463 -0.0045563949 0)
(1.3685975 -0.0042470688 0)
(1.3756004 -0.0039617748 0)
(1.3821012 -0.0036973967 0)
(1.3881402 -0.0034515817 0)
(1.3937533 -0.0032225177 0)
(1.3989728 -0.0030087689 0)
(1.403828 -0.0028091568 0)
(1.4083456 -0.0026226776 0)
(1.4125503 -0.0024484476 0)
(1.4164646 -0.002285668 0)
(1.4201094 -0.0021336042 0)
(1.423504 -0.0019915725 0)
(1.4266661 -0.0018589324 0)
(1.4296121 -0.0017350821 0)
(1.4323573 -0.0016194549 0)
(1.4349159 -0.0015115178 0)
(1.4373007 -0.0014107691 0)
(1.4395241 -0.0013167377 0)
(1.441597 -0.0012289811 0)
(1.4435301 -0.0011470848 0)
(1.4453329 -0.00107066 0)
(1.4470143 -0.00099934292 0)
(1.4485827 -0.00093279338 0)
(1.4500459 -0.00087069298 0)
(1.451411 -0.00081274429 0)
(1.4526847 -0.00075866927 0)
(1.4538731 -0.00070820824 0)
(1.4549822 -0.00066111874 0)
(1.4560172 -0.0006171743 0)
(1.4569831 -0.00057616362 0)
(1.4578847 -0.00053788937 0)
(1.4587262 -0.00050216718 0)
(1.4595117 -0.00046882487 0)
(1.4602449 -0.00043770126 0)
(1.4609293 -0.00040864558 0)
(1.4615682 -0.00038151653 0)
(1.4621646 -0.00035618164 0)
(1.4627213 -0.00033251673 0)
(1.463241 -0.00031040505 0)
(1.463726 -0.00028973727 0)
(1.4641786 -0.00027041045 0)
(1.4646008 -0.00025232798 0)
(1.4649948 -0.00023539883 0)
(1.4653621 -0.00021953774 0)
(1.4657045 -0.00020466427 0)
(1.4660236 -0.00019070377 0)
(1.4663207 -0.00017758595 0)
(1.4665971 -0.0001652467 0)
(1.466854 -0.00015362629 0)
(1.4670926 -0.00014267121 0)
(1.4673139 -0.00013233245 0)
(1.4675188 -0.0001225668 0)
(1.4677082 -0.00011333522 0)
(1.467883 -0.00010460417 0)
(1.468044 -9.6343521e-05 0)
(1.4681919 -8.8528778e-05 0)
(1.4683274 -8.1138109e-05 0)
(1.4684513 -7.4155091e-05 0)
(1.4685641 -6.7565383e-05 0)
(1.4686665 -6.1358421e-05 0)
(1.4687592 -5.5525253e-05 0)
(1.4688427 -5.0058185e-05 0)
(1.4689176 -4.4950637e-05 0)
(1.4689846 -4.0195076e-05 0)
(1.4690442 -3.5785231e-05 0)
(1.4690971 -3.1711642e-05 0)
(1.4691436 -2.7968362e-05 0)
(1.4691845 -2.4541241e-05 0)
(1.4692201 -2.1427723e-05 0)
(1.4692511 -1.8602868e-05 0)
(1.4692778 -1.6074883e-05 0)
(1.4693008 -1.3794662e-05 0)
(1.4693202 -1.180107e-05 0)
(1.4693371 -9.9901396e-06 0)
(1.4693507 -8.4813112e-06 0)
(1.4693631 -7.0438064e-06 0)
(1.469372 -5.9903016e-06 0)
(1.4693816 -4.8027539e-06 0)
(1.4693862 -4.2220793e-06 0)
(1.4693951 -3.1233216e-06 0)
(1.0007347 -0.011814721 0)
(1.0178472 -0.030860927 0)
(1.0462163 -0.041434441 0)
(1.0799018 -0.04519357 0)
(1.1132664 -0.045502351 0)
(1.143782 -0.044080308 0)
(1.1708941 -0.041439982 0)
(1.1945687 -0.037973677 0)
(1.2148582 -0.034195729 0)
(1.2319652 -0.030536886 0)
(1.2462683 -0.027222044 0)
(1.2582339 -0.02431392 0)
(1.2683135 -0.021797888 0)
(1.2768875 -0.01963366 0)
(1.2842554 -0.017773827 0)
(1.2906479 -0.016169652 0)
(1.296243 -0.01477559 0)
(1.3011791 -0.013552297 0)
(1.3055645 -0.012467863 0)
(1.3094838 -0.011497465 0)
(1.3130042 -0.01062216 0)
(1.3161792 -0.009827512 0)
(1.3190526 -0.0091024101 0)
(1.3216607 -0.0084381762 0)
(1.3240343 -0.0078279035 0)
(1.3261995 -0.0072659741 0)
(1.3281786 -0.0067477081 0)
(1.3299913 -0.0062691156 0)
(1.3316544 -0.0058267256 0)
(1.3331829 -0.0054174707 0)
(1.3345896 -0.0050386091 0)
(1.3358862 -0.0046876702 0)
(1.3370827 -0.004362416 0)
(1.3381883 -0.0040608115 0)
(1.3392108 -0.0037810017 0)
(1.3401576 -0.0035212927 0)
(1.3410349 -0.0032801361 0)
(1.3418486 -0.0030561147 0)
(1.3426038 -0.0028479304 0)
(1.3433052 -0.0026543932 0)
(1.3439569 -0.0024744111 0)
(1.344563 -0.0023069813 0)
(1.3451267 -0.0021511818 0)
(1.3456514 -0.0020061642 0)
(1.3461398 -0.0018711473 0)
(1.3465947 -0.0017454108 0)
(1.3470186 -0.0016282901 0)
(1.3474135 -0.0015191718 0)
(1.3477817 -0.0014174888 0)
(1.3481249 -0.0013227165 0)
(1.348445 -0.0012343693 0)
(1.3487435 -0.0011519968 0)
(1.349022 -0.0010751809 0)
(1.3492818 -0.0010035327 0)
(1.3495242 -0.0009366905 0)
(1.3497504 -0.0008743167 0)
(1.3499615 -0.00081609641 0)
(1.3501584 -0.00076173525 0)
(1.3503422 -0.00071095796 0)
(1.3505137 -0.00066350655 0)
(1.3506737 -0.00061913933 0)
(1.3508229 -0.00057762945 0)
(1.350962 -0.00053876425 0)
(1.3510916 -0.00050234412 0)
(1.3512124 -0.00046818261 0)
(1.3513247 -0.0004361055 0)
(1.3514293 -0.00040595165 0)
(1.3515264 -0.0003775723 0)
(1.3516165 -0.00035083185 0)
(1.3517 -0.00032560725 0)
(1.3517772 -0.00030178826 0)
(1.3518484 -0.00027927657 0)
(1.3519141 -0.00025798597 0)
(1.3519744 -0.00023784099 0)
(1.3520297 -0.00021877753 0)
(1.3520802 -0.00020074109 0)
(1.3521263 -0.00018368753 0)
(1.352168 -0.00016758079 0)
(1.3522058 -0.00015239279 0)
(1.3522397 -0.00013810083 0)
(1.3522702 -0.00012468684 0)
(1.3522974 -0.00011213414 0)
(1.3523215 -0.00010042813 0)
(1.3523428 -8.9551437e-05 0)
(1.3523616 -7.948899e-05 0)
(1.352378 -7.0218374e-05 0)
(1.3523922 -6.1723957e-05 0)
(1.3524046 -5.3973557e-05 0)
(1.3524151 -4.6954575e-05 0)
(1.3524242 -4.0614683e-05 0)
(1.3524318 -3.4956901e-05 0)
(1.3524384 -2.9885031e-05 0)
(1.3524437 -2.545477e-05 0)
(1.3524483 -2.1470432e-05 0)
(1.3524519 -1.8135791e-05 0)
(1.3524552 -1.5017839e-05 0)
(1.3524574 -1.2693491e-05 0)
(1.3524599 -1.016348e-05 0)
(1.3524609 -8.8785784e-06 0)
(1.3524632 -6.5663859e-06 0)
(1.0014244 -0.026824855 0)
(1.0291272 -0.062791352 0)
(1.0654292 -0.077736553 0)
(1.098962 -0.0805972 0)
(1.1253149 -0.078285171 0)
(1.145053 -0.0731539 0)
(1.1594858 -0.066111278 0)
(1.1694287 -0.058162063 0)
(1.1755354 -0.050296754 0)
(1.1785738 -0.043150708 0)
(1.1793571 -0.036972825 0)
(1.1785949 -0.031771632 0)
(1.1768304 -0.02745184 0)
(1.1744518 -0.023886768 0)
(1.1717287 -0.02094762 0)
(1.1688444 -0.018515781 0)
(1.1659195 -0.016488085 0)
(1.1630317 -0.014779502 0)
(1.1602295 -0.013322984 0)
(1.1575415 -0.012067131 0)
(1.1549828 -0.010972999 0)
(1.1525601 -0.01001106 0)
(1.1502747 -0.0091587461 0)
(1.1481246 -0.008398604 0)
(1.1461059 -0.0077169508 0)
(1.1442134 -0.0071028884 0)
(1.1424414 -0.0065475918 0)
(1.1407838 -0.0060437946 0)
(1.1392344 -0.0055854245 0)
(1.1377869 -0.0051673422 0)
(1.1364353 -0.004785154 0)
(1.1351738 -0.0044350732 0)
(1.1339968 -0.0041138141 0)
(1.1328987 -0.003818511 0)
(1.1318746 -0.0035466519 0)
(1.1309195 -0.0032960266 0)
(1.1300289 -0.0030646828 0)
(1.1291985 -0.0028508897 0)
(1.1284242 -0.0026531086 0)
(1.1277023 -0.002469966 0)
(1.1270291 -0.0023002325 0)
(1.1264014 -0.0021428042 0)
(1.1258161 -0.0019966866 0)
(1.1252703 -0.0018609814 0)
(1.1247612 -0.0017348746 0)
(1.1242865 -0.0016176271 0)
(1.1238438 -0.001508566 0)
(1.1234308 -0.0014070772 0)
(1.1230456 -0.0013125992 0)
(1.1226862 -0.0012246171 0)
(1.122351 -0.0011426581 0)
(1.1220382 -0.0010662867 0)
(1.1217464 -0.00099510085 0)
(1.1214741 -0.00092872865 0)
(1.12122 -0.00086682514 0)
(1.1209829 -0.00080906978 0)
(1.1207617 -0.00075516432 0)
(1.1205553 -0.00070483052 0)
(1.1203627 -0.00065780875 0)
(1.120183 -0.00061385603 0)
(1.1200153 -0.00057274509 0)
(1.1198588 -0.00053426279 0)
(1.1197129 -0.00049820964 0)
(1.1195769 -0.00046439859 0)
(1.11945 -0.00043265565 0)
(1.1193318 -0.00040281856 0)
(1.1192217 -0.00037473867 0)
(1.1191191 -0.00034827917 0)
(1.1190238 -0.00032331723 0)
(1.1189351 -0.00029974187 0)
(1.1188528 -0.00027745545 0)
(1.1187765 -0.00025637137 0)
(1.1187058 -0.00023641529 0)
(1.1186404 -0.00021752244 0)
(1.1185801 -0.00019963969 0)
(1.1185245 -0.0001827219 0)
(1.1184735 -0.00016673476 0)
(1.1184267 -0.00015164989 0)
(1.1183839 -0.000137447 0)
(1.118345 -0.00012410877 0)
(1.1183096 -0.00011162164 0)
(1.1182775 -9.9971395e-05 0)
(1.1182487 -8.9144409e-05 0)
(1.1182227 -7.9123297e-05 0)
(1.1181996 -6.9891507e-05 0)
(1.118179 -6.1425775e-05 0)
(1.1181607 -5.3706997e-05 0)
(1.1181446 -4.6703757e-05 0)
(1.1181305 -4.0396079e-05 0)
(1.1181182 -3.4738096e-05 0)
(1.1181075 -2.9715246e-05 0)
(1.1180984 -2.5253694e-05 0)
(1.1180904 -2.1366549e-05 0)
(1.1180837 -1.792173e-05 0)
(1.118078 -1.502002e-05 0)
(1.1180732 -1.2387827e-05 0)
(1.1180692 -1.0365276e-05 0)
(1.1180657 -8.3036925e-06 0)
(1.1180633 -7.1717992e-06 0)
(1.1180602 -5.3371006e-06 0)
(1.0016583 -0.05381943 0)
(1.0359761 -0.10128444 0)
(1.0597199 -0.11073663 0)
(1.0628947 -0.10592202 0)
(1.0515569 -0.096228728 0)
(1.0340529 -0.083934061 0)
(1.0142795 -0.070327062 0)
(0.99360703 -0.056981333 0)
(0.97292577 -0.045107479 0)
(0.9531074 -0.03523675 0)
(0.93479538 -0.02740165 0)
(0.91829012 -0.021387228 0)
(0.90362379 -0.016884499 0)
(0.89068067 -0.013569709 0)
(0.87928174 -0.011147749 0)
(0.86923242 -0.0093736592 0)
(0.86034423 -0.0080569282 0)
(0.85244667 -0.0070571271 0)
(0.84539242 -0.0062752376 0)
(0.83905793 -0.0056438275 0)
(0.83334127 -0.0051180899 0)
(0.82815884 -0.0046686715 0)
(0.82344212 -0.0042764169 0)
(0.81913467 -0.0039287388 0)
(0.81518962 -0.0036172039 0)
(0.81156765 -0.0033359708 0)
(0.80823544 -0.0030808041 0)
(0.8051644 -0.0028484684 0)
(0.8023298 -0.002636368 0)
(0.79971 -0.0024423366 0)
(0.79728598 -0.0022645166 0)
(0.79504087 -0.0021012879 0)
(0.79295964 -0.0019512239 0)
(0.79102881 -0.0018130625 0)
(0.78923628 -0.0016856838 0)
(0.78757111 -0.0015680933 0)
(0.78602339 -0.0014594065 0)
(0.78458413 -0.0013588362 0)
(0.78324513 -0.0012656801 0)
(0.78199891 -0.0011793108 0)
(0.78083862 -0.001099166 0)
(0.77975801 -0.0010247405 0)
(0.77875129 -0.00095557923 0)
(0.77781319 -0.00089127067 0)
(0.77693882 -0.00083144195 0)
(0.77612369 -0.00077575422 0)
(0.77536364 -0.00072389872 0)
(0.77465482 -0.00067559352 0)
(0.77399369 -0.00063058038 0)
(0.77337696 -0.00058862225 0)
(0.77280156 -0.00054950084 0)
(0.77226469 -0.00051301457 0)
(0.77176371 -0.00047897679 0)
(0.77129619 -0.00044721425 0)
(0.77085987 -0.0004175657 0)
(0.77045266 -0.00038988104 0)
(0.77007262 -0.00036402 0)
(0.76971793 -0.00033985171 0)
(0.76938693 -0.00031725355 0)
(0.76907806 -0.00029611077 0)
(0.76878989 -0.00027631549 0)
(0.76852108 -0.00025776655 0)
(0.76827042 -0.00024036872 0)
(0.76803677 -0.00022403315 0)
(0.76781908 -0.00020867657 0)
(0.76761639 -0.00019422257 0)
(0.76742781 -0.00018060068 0)
(0.76725253 -0.00016774768 0)
(0.76708977 -0.00015560648 0)
(0.76693885 -0.00014412687 0)
(0.76679909 -0.00013326424 0)
(0.76666991 -0.00012298006 0)
(0.76655073 -0.00011324048 0)
(0.76644101 -0.00010401737 0)
(0.76634025 -9.5286762e-05 0)
(0.76624797 -8.7030326e-05 0)
(0.76616371 -7.9233399e-05 0)
(0.766087 -7.1885631e-05 0)
(0.76601741 -6.497906e-05 0)
(0.7659545 -5.8507195e-05 0)
(0.76589784 -5.2463909e-05 0)
(0.76584703 -4.6841969e-05 0)
(0.76580166 -4.163332e-05 0)
(0.76576134 -3.6828002e-05 0)
(0.76572567 -3.2415851e-05 0)
(0.76569428 -2.838442e-05 0)
(0.76566679 -2.4722864e-05 0)
(0.76564284 -2.1415235e-05 0)
(0.76562209 -1.8450127e-05 0)
(0.76560421 -1.58044e-05 0)
(0.76558887 -1.3466983e-05 0)
(0.76557581 -1.1403234e-05 0)
(0.76556472 -9.6099321e-06 0)
(0.76555542 -8.0352268e-06 0)
(0.76554761 -6.7017692e-06 0)
(0.76554113 -5.5237268e-06 0)
(0.76553579 -4.5868544e-06 0)
(0.76553125 -3.71296e-06 0)
(0.76552799 -3.1600111e-06 0)
(0.76552407 -2.4413312e-06 0)
(0.91890839 -0.035821913 0)
(0.86271384 -0.062195638 0)
(0.7870597 -0.06251009 0)
(0.69536033 -0.054550395 0)
(0.61089745 -0.044531651 0)
(0.54411592 -0.034015971 0)
(0.49343012 -0.024187539 0)
(0.45479414 -0.016144229 0)
(0.42544582 -0.010265785 0)
(0.40347313 -0.0063041452 0)
(0.38715766 -0.0037976295 0)
(0.3749622 -0.0023103383 0)
(0.36566192 -0.0014930151 0)
(0.35836272 -0.0010851184 0)
(0.35244267 -0.00090607248 0)
(0.34748201 -0.00084105179 0)
(0.34320348 -0.00082372405 0)
(0.33942726 -0.00081931015 0)
(0.33603793 -0.00081185162 0)
(0.33296114 -0.00079580085 0)
(0.33014778 -0.00077081121 0)
(0.32756384 -0.00073870945 0)
(0.3251842 -0.00070188951 0)
(0.32298902 -0.00066256604 0)
(0.32096172 -0.00062249999 0)
(0.31908785 -0.00058295776 0)
(0.31735449 -0.00054477165 0)
(0.31574996 -0.00050843392 0)
(0.31426361 -0.00047419109 0)
(0.31288575 -0.00044212393 0)
(0.31160756 -0.00041220881 0)
(0.31042102 -0.00038436116 0)
(0.30931883 -0.00035846481 0)
(0.30829438 -0.00033439049 0)
(0.30734165 -0.00031200712 0)
(0.30645515 -0.00029118817 0)
(0.30562991 -0.00027181481 0)
(0.30486137 -0.0002537772 0)
(0.30414536 -0.00023697464 0)
(0.30347807 -0.00022131513 0)
(0.30285601 -0.00020671468 0)
(0.30227597 -0.0001930965 0)
(0.30173497 -0.00018039032 0)
(0.30123029 -0.00016853163 0)
(0.30075941 -0.00015746118 0)
(0.30032001 -0.00014712445 0)
(0.29990991 -0.00013747112 0)
(0.29952713 -0.00012845481 0)
(0.2991698 -0.00012003254 0)
(0.29883619 -0.00011216448 0)
(0.29852472 -0.00010481356 0)
(0.29823389 -9.7945156e-05 0)
(0.29796232 -9.1526892e-05 0)
(0.29770872 -8.5528414e-05 0)
(0.29747189 -7.9921206e-05 0)
(0.29725073 -7.4678583e-05 0)
(0.29704419 -6.9775397e-05 0)
(0.29685133 -6.5188204e-05 0)
(0.29667124 -6.0894822e-05 0)
(0.29650309 -5.687451e-05 0)
(0.29634612 -5.3107482e-05 0)
(0.29619962 -4.9575214e-05 0)
(0.29606293 -4.6259862e-05 0)
(0.29593543 -4.314492e-05 0)
(0.29581658 -4.0214458e-05 0)
(0.29570585 -3.7454306e-05 0)
(0.29560277 -3.4850949e-05 0)
(0.29550691 -3.2392851e-05 0)
(0.29541784 -3.0069136e-05 0)
(0.2953352 -2.7870777e-05 0)
(0.29525864 -2.5789154e-05 0)
(0.29518783 -2.3817225e-05 0)
(0.29512247 -2.1948029e-05 0)
(0.29506227 -2.0176396e-05 0)
(0.29500697 -1.8497175e-05 0)
(0.2949563 -1.6907321e-05 0)
(0.29491002 -1.5403857e-05 0)
(0.29486788 -1.3985613e-05 0)
(0.29482964 -1.2651281e-05 0)
(0.29479507 -1.1400268e-05 0)
(0.29476393 -1.0231426e-05 0)
(0.294736 -9.1434541e-06 0)
(0.29471106 -8.1344137e-06 0)
(0.29468889 -7.2022678e-06 0)
(0.29466928 -6.3448258e-06 0)
(0.29465203 -5.5599518e-06 0)
(0.29463693 -4.8459936e-06 0)
(0.29462378 -4.2003843e-06 0)
(0.29461239 -3.621683e-06 0)
(0.29460257 -3.10533e-06 0)
(0.29459416 -2.6496437e-06 0)
(0.29458699 -2.2470096e-06 0)
(0.2945809 -1.897207e-06 0)
(0.29457579 -1.5892832e-06 0)
(0.29457151 -1.3282062e-06 0)
(0.29456795 -1.0993818e-06 0)
(0.294565 -9.1518852e-07 0)
(0.29456255 -7.5609667e-07 0)
(0.29456061 -6.3743617e-07 0)
(0.29455864 -5.4590399e-07 0)
)
;

boundaryField
{
    top
    {
        type            fixedValue;
        value           uniform (0 0 0);
    }
    inlet
    {
        type            fixedValue;
        value           uniform (1 0 0);
    }
    outlet
    {
        type            zeroGradient;
    }
    bottom
    {
        type            fixedValue;
        value           uniform (0 0 0);
    }
    back
    {
        type            empty;
    }
    front
    {
        type            empty;
    }
}


// ************************************************************************* //
