/*--------------------------------*- C++ -*----------------------------------*\
| =========                 |                                                 |
| \\      /  F ield         | OpenFOAM: The Open Source CFD Toolbox           |
|  \\    /   O peration     | Version:  v1812                                 |
|   \\  /    A nd           | Web:      www.OpenFOAM.com                      |
|    \\/     M anipulation  |                                                 |
\*---------------------------------------------------------------------------*/
FoamFile
{
    version     2.0;
    format      ascii;
    class       volScalarField;
    location    "20";
    object      T;
}
// * * * * * * * * * * * * * * * * * * * * * * * * * * * * * * * * * * * * * //

dimensions      [0 0 0 1 0 0 0];


internalField   nonuniform List<scalar> 
10000
(
1.4049
1.4049
1.4049
1.4049
1.4049
1.4049
1.4049
1.4049
1.4049
1.4049
1.21711
1.21711
1.21711
1.21711
1.21711
1.21711
1.21711
1.21711
1.21711
1.21711
1.03637
1.03637
1.03637
1.03637
1.03637
1.03637
1.03637
1.03637
1.03637
1.03637
0.866791
0.866792
0.86679
0.866789
0.866789
0.866788
0.866789
0.866789
0.86679
0.866789
0.711666
0.711667
0.711666
0.711664
0.711664
0.711664
0.711664
0.711665
0.711665
0.711665
0.573312
0.573312
0.573311
0.57331
0.573309
0.573309
0.573309
0.57331
0.573311
0.573311
0.452982
0.452982
0.452981
0.45298
0.452979
0.452979
0.45298
0.452981
0.452982
0.452981
0.350915
0.350916
0.350914
0.350913
0.350913
0.350913
0.350914
0.350915
0.350916
0.350916
0.266466
0.266467
0.266465
0.266465
0.266464
0.266464
0.266465
0.266466
0.266467
0.266467
0.198297
0.198297
0.198296
0.198295
0.198295
0.198295
0.198296
0.198297
0.198298
0.198298
0.144598
0.144598
0.144597
0.144596
0.144596
0.144597
0.144597
0.144598
0.144599
0.144599
0.103311
0.103311
0.10331
0.103309
0.103309
0.10331
0.10331
0.103311
0.103312
0.103312
0.0723182
0.0723183
0.0723177
0.0723173
0.0723172
0.0723175
0.072318
0.0723187
0.0723195
0.0723196
0.0495991
0.0495992
0.0495987
0.0495984
0.0495984
0.0495986
0.049599
0.0495996
0.0496003
0.0496004
0.0333306
0.0333306
0.0333302
0.03333
0.03333
0.0333302
0.0333306
0.0333311
0.0333316
0.0333317
0.0219477
0.0219477
0.0219474
0.0219473
0.0219473
0.0219475
0.0219477
0.0219481
0.0219486
0.0219487
0.0141631
0.0141631
0.0141629
0.0141628
0.0141629
0.014163
0.0141632
0.0141635
0.0141638
0.0141639
0.00895802
0.00895801
0.00895788
0.00895782
0.00895784
0.00895794
0.0089581
0.00895833
0.00895858
0.00895865
0.00555414
0.00555413
0.00555404
0.00555401
0.00555403
0.0055541
0.00555422
0.00555438
0.00555457
0.00555462
0.00337638
0.00337637
0.00337631
0.00337629
0.00337631
0.00337636
0.00337645
0.00337656
0.00337669
0.00337674
0.0020128
0.00201279
0.00201275
0.00201274
0.00201275
0.00201279
0.00201285
0.00201293
0.00201302
0.00201305
0.00117694
0.00117694
0.00117691
0.00117691
0.00117691
0.00117694
0.00117698
0.00117703
0.0011771
0.00117712
0.000675168
0.000675164
0.00067515
0.000675146
0.000675152
0.000675169
0.000675196
0.000675231
0.000675271
0.000675286
0.000380078
0.000380075
0.000380067
0.000380065
0.000380069
0.00038008
0.000380097
0.000380119
0.000380145
0.000380154
0.000210011
0.000210009
0.000210004
0.000210003
0.000210006
0.000210012
0.000210023
0.000210036
0.000210051
0.000210057
0.000113927
0.000113926
0.000113923
0.000113922
0.000113924
0.000113927
0.000113932
0.000113939
0.000113946
0.000113949
6.06932e-05
6.06923e-05
6.06906e-05
6.06899e-05
6.06901e-05
6.06908e-05
6.06914e-05
6.06916e-05
6.06912e-05
6.06886e-05
3.17607e-05
3.17601e-05
3.17589e-05
3.17579e-05
3.17568e-05
3.17547e-05
3.17501e-05
3.17414e-05
3.17285e-05
3.17147e-05
1.63301e-05
1.63296e-05
1.63286e-05
1.63273e-05
1.63247e-05
1.63191e-05
1.63072e-05
1.62835e-05
1.62437e-05
1.61963e-05
8.25181e-06
8.25138e-06
8.2504e-06
8.24859e-06
8.24456e-06
8.23516e-06
8.21345e-06
8.16515e-06
8.0659e-06
7.90428e-06
1.4049
1.4049
1.4049
1.4049
1.4049
1.4049
1.4049
1.4049
1.4049
1.4049
1.21711
1.21711
1.21711
1.21711
1.21711
1.21711
1.21711
1.21711
1.21711
1.21711
1.03637
1.03637
1.03637
1.03637
1.03637
1.03637
1.03637
1.03637
1.03637
1.03637
0.866792
0.866792
0.86679
0.866789
0.866788
0.866788
0.866789
0.866789
0.86679
0.86679
0.711667
0.711667
0.711665
0.711664
0.711664
0.711664
0.711664
0.711665
0.711666
0.711666
0.573312
0.573312
0.573311
0.573309
0.573309
0.573309
0.573309
0.57331
0.573312
0.573311
0.452982
0.452982
0.45298
0.452979
0.452979
0.452979
0.45298
0.452981
0.452982
0.452982
0.350916
0.350916
0.350914
0.350913
0.350913
0.350913
0.350913
0.350915
0.350916
0.350916
0.266467
0.266467
0.266465
0.266464
0.266464
0.266464
0.266465
0.266466
0.266468
0.266468
0.198297
0.198297
0.198296
0.198295
0.198295
0.198295
0.198296
0.198297
0.198298
0.198298
0.144598
0.144598
0.144597
0.144596
0.144596
0.144596
0.144597
0.144598
0.144599
0.144599
0.103311
0.103311
0.10331
0.103309
0.103309
0.103309
0.10331
0.103311
0.103312
0.103312
0.0723183
0.0723182
0.0723175
0.0723171
0.072317
0.0723173
0.0723178
0.0723187
0.0723197
0.0723198
0.0495992
0.049599
0.0495985
0.0495982
0.0495982
0.0495984
0.0495989
0.0495996
0.0496005
0.0496006
0.0333306
0.0333305
0.0333301
0.0333299
0.0333299
0.0333301
0.0333305
0.0333311
0.0333318
0.0333319
0.0219477
0.0219476
0.0219473
0.0219472
0.0219472
0.0219474
0.0219477
0.0219481
0.0219487
0.0219488
0.0141631
0.014163
0.0141628
0.0141628
0.0141628
0.0141629
0.0141631
0.0141635
0.0141639
0.014164
0.00895801
0.00895796
0.00895782
0.00895776
0.00895779
0.00895789
0.00895806
0.00895832
0.00895863
0.0089587
0.00555413
0.00555409
0.005554
0.00555397
0.00555399
0.00555406
0.00555419
0.00555438
0.0055546
0.00555465
0.00337637
0.00337634
0.00337628
0.00337626
0.00337628
0.00337633
0.00337643
0.00337656
0.00337671
0.00337676
0.00201279
0.00201277
0.00201273
0.00201272
0.00201273
0.00201277
0.00201284
0.00201293
0.00201303
0.00201306
0.00117694
0.00117692
0.0011769
0.00117689
0.0011769
0.00117693
0.00117697
0.00117703
0.0011771
0.00117713
0.000675164
0.000675156
0.000675141
0.000675137
0.000675144
0.000675162
0.00067519
0.000675229
0.000675276
0.000675291
0.000380075
0.00038007
0.000380061
0.000380059
0.000380064
0.000380075
0.000380093
0.000380118
0.000380148
0.000380158
0.000210009
0.000210006
0.000210001
0.00021
0.000210003
0.000210009
0.00021002
0.000210035
0.000210053
0.000210059
0.000113926
0.000113924
0.000113921
0.00011392
0.000113922
0.000113925
0.000113931
0.000113938
0.000113947
0.00011395
6.06924e-05
6.06912e-05
6.06894e-05
6.06887e-05
6.0689e-05
6.06897e-05
6.06906e-05
6.06912e-05
6.06917e-05
6.06892e-05
3.17602e-05
3.17594e-05
3.17582e-05
3.17573e-05
3.17562e-05
3.17541e-05
3.17496e-05
3.17412e-05
3.17287e-05
3.1715e-05
1.63298e-05
1.63293e-05
1.63282e-05
1.63269e-05
1.63244e-05
1.63188e-05
1.63069e-05
1.62834e-05
1.62439e-05
1.61965e-05
8.25165e-06
8.25117e-06
8.25019e-06
8.24838e-06
8.24436e-06
8.23497e-06
8.21329e-06
8.16506e-06
8.06596e-06
7.90435e-06
1.4049
1.4049
1.4049
1.4049
1.4049
1.4049
1.4049
1.4049
1.4049
1.4049
1.21711
1.21711
1.21711
1.21711
1.21711
1.21711
1.21711
1.21711
1.21711
1.21711
1.03637
1.03637
1.03637
1.03637
1.03637
1.03637
1.03637
1.03637
1.03637
1.03637
0.86679
0.86679
0.866788
0.866787
0.866787
0.866787
0.866787
0.866788
0.866789
0.866789
0.711666
0.711665
0.711664
0.711662
0.711662
0.711662
0.711662
0.711663
0.711665
0.711665
0.573311
0.573311
0.573309
0.573307
0.573307
0.573307
0.573308
0.573309
0.573311
0.573311
0.452981
0.45298
0.452979
0.452977
0.452977
0.452977
0.452978
0.452979
0.452981
0.452981
0.350914
0.350914
0.350912
0.350911
0.350911
0.350911
0.350912
0.350913
0.350915
0.350916
0.266465
0.266465
0.266464
0.266463
0.266462
0.266463
0.266464
0.266465
0.266467
0.266467
0.198296
0.198296
0.198294
0.198294
0.198293
0.198294
0.198294
0.198296
0.198298
0.198298
0.144597
0.144597
0.144596
0.144595
0.144595
0.144595
0.144596
0.144597
0.144599
0.144599
0.10331
0.10331
0.103309
0.103308
0.103308
0.103308
0.103309
0.10331
0.103312
0.103312
0.0723177
0.0723175
0.0723168
0.0723164
0.0723164
0.0723166
0.0723173
0.0723182
0.0723195
0.0723197
0.0495987
0.0495985
0.049598
0.0495977
0.0495977
0.049598
0.0495985
0.0495993
0.0496003
0.0496005
0.0333302
0.0333301
0.0333297
0.0333295
0.0333295
0.0333297
0.0333302
0.0333308
0.0333316
0.0333318
0.0219474
0.0219473
0.021947
0.0219469
0.0219469
0.0219471
0.0219474
0.0219479
0.0219486
0.0219488
0.0141629
0.0141628
0.0141626
0.0141626
0.0141626
0.0141627
0.014163
0.0141634
0.0141639
0.014164
0.00895788
0.00895782
0.00895768
0.00895763
0.00895765
0.00895776
0.00895796
0.00895824
0.0089586
0.0089587
0.00555404
0.005554
0.00555391
0.00555388
0.0055539
0.00555398
0.00555412
0.00555432
0.00555458
0.00555466
0.00337631
0.00337628
0.00337622
0.0033762
0.00337622
0.00337628
0.00337638
0.00337652
0.0033767
0.00337676
0.00201275
0.00201273
0.0020127
0.00201268
0.0020127
0.00201274
0.00201281
0.00201291
0.00201303
0.00201307
0.00117691
0.0011769
0.00117688
0.00117687
0.00117688
0.00117691
0.00117695
0.00117702
0.0011771
0.00117713
0.00067515
0.000675141
0.000675127
0.000675123
0.000675131
0.000675149
0.00067518
0.000675222
0.000675275
0.000675294
0.000380067
0.000380061
0.000380053
0.000380051
0.000380056
0.000380068
0.000380087
0.000380114
0.000380147
0.000380159
0.000210004
0.000210001
0.000209996
0.000209995
0.000209998
0.000210005
0.000210017
0.000210033
0.000210053
0.00021006
0.000113923
0.000113921
0.000113918
0.000113918
0.000113919
0.000113923
0.000113929
0.000113937
0.000113947
0.000113951
6.06909e-05
6.06896e-05
6.06878e-05
6.06872e-05
6.06876e-05
6.06885e-05
6.06895e-05
6.06905e-05
6.06917e-05
6.06897e-05
3.17594e-05
3.17586e-05
3.17573e-05
3.17565e-05
3.17554e-05
3.17534e-05
3.1749e-05
3.17408e-05
3.17288e-05
3.17153e-05
1.63294e-05
1.63288e-05
1.63278e-05
1.63265e-05
1.6324e-05
1.63185e-05
1.63066e-05
1.62832e-05
1.62439e-05
1.61966e-05
8.25142e-06
8.25094e-06
8.24996e-06
8.24816e-06
8.24415e-06
8.23479e-06
8.21315e-06
8.16499e-06
8.06599e-06
7.90444e-06
1.4049
1.4049
1.4049
1.4049
1.4049
1.4049
1.4049
1.4049
1.4049
1.4049
1.21711
1.21711
1.21711
1.21711
1.21711
1.21711
1.21711
1.21711
1.21711
1.21711
1.03637
1.03637
1.03637
1.03637
1.03637
1.03637
1.03637
1.03637
1.03637
1.03637
0.866789
0.866789
0.866787
0.866786
0.866786
0.866786
0.866786
0.866787
0.866788
0.866789
0.711664
0.711664
0.711662
0.711661
0.711661
0.711661
0.711661
0.711663
0.711664
0.711665
0.57331
0.573309
0.573307
0.573306
0.573306
0.573306
0.573307
0.573308
0.57331
0.57331
0.45298
0.452979
0.452977
0.452976
0.452976
0.452976
0.452977
0.452979
0.452981
0.452981
0.350913
0.350913
0.350911
0.35091
0.35091
0.35091
0.350911
0.350913
0.350915
0.350915
0.266465
0.266464
0.266463
0.266462
0.266462
0.266462
0.266463
0.266465
0.266467
0.266467
0.198295
0.198295
0.198294
0.198293
0.198293
0.198293
0.198294
0.198295
0.198297
0.198298
0.144596
0.144596
0.144595
0.144595
0.144594
0.144595
0.144596
0.144597
0.144599
0.144599
0.103309
0.103309
0.103308
0.103308
0.103308
0.103308
0.103309
0.10331
0.103312
0.103312
0.0723173
0.0723171
0.0723164
0.072316
0.072316
0.0723164
0.072317
0.0723181
0.0723194
0.0723198
0.0495984
0.0495982
0.0495977
0.0495975
0.0495975
0.0495978
0.0495983
0.0495992
0.0496003
0.0496006
0.03333
0.0333299
0.0333295
0.0333293
0.0333294
0.0333296
0.0333301
0.0333308
0.0333317
0.0333319
0.0219473
0.0219472
0.0219469
0.0219468
0.0219468
0.021947
0.0219474
0.0219479
0.0219486
0.0219488
0.0141628
0.0141628
0.0141626
0.0141625
0.0141625
0.0141627
0.0141629
0.0141634
0.0141639
0.014164
0.00895782
0.00895776
0.00895763
0.00895758
0.00895761
0.00895773
0.00895794
0.00895824
0.00895862
0.00895874
0.00555401
0.00555397
0.00555388
0.00555384
0.00555387
0.00555396
0.00555411
0.00555433
0.0055546
0.00555469
0.00337629
0.00337626
0.0033762
0.00337619
0.00337621
0.00337627
0.00337638
0.00337653
0.00337672
0.00337678
0.00201274
0.00201272
0.00201268
0.00201267
0.00201269
0.00201273
0.00201281
0.00201291
0.00201304
0.00201308
0.00117691
0.00117689
0.00117687
0.00117686
0.00117688
0.00117691
0.00117695
0.00117702
0.00117711
0.00117714
0.000675146
0.000675138
0.000675123
0.000675121
0.000675129
0.000675149
0.00067518
0.000675225
0.00067528
0.000675301
0.000380065
0.000380059
0.000380051
0.00038005
0.000380055
0.000380068
0.000380088
0.000380116
0.000380151
0.000380164
0.000210003
0.00021
0.000209995
0.000209994
0.000209998
0.000210005
0.000210017
0.000210034
0.000210055
0.000210063
0.000113923
0.000113921
0.000113918
0.000113918
0.000113919
0.000113923
0.00011393
0.000113938
0.000113949
0.000113953
6.06907e-05
6.06895e-05
6.06877e-05
6.06872e-05
6.06876e-05
6.06887e-05
6.069e-05
6.06912e-05
6.06927e-05
6.0691e-05
3.17593e-05
3.17585e-05
3.17573e-05
3.17565e-05
3.17555e-05
3.17536e-05
3.17493e-05
3.17413e-05
3.17294e-05
3.17161e-05
1.63294e-05
1.63288e-05
1.63278e-05
1.63265e-05
1.6324e-05
1.63186e-05
1.63068e-05
1.62835e-05
1.62443e-05
1.61971e-05
8.25143e-06
8.25096e-06
8.24998e-06
8.2482e-06
8.24421e-06
8.23487e-06
8.21326e-06
8.16514e-06
8.06619e-06
7.90467e-06
1.4049
1.4049
1.4049
1.4049
1.4049
1.4049
1.4049
1.4049
1.4049
1.4049
1.21711
1.21711
1.21711
1.21711
1.21711
1.21711
1.21711
1.21711
1.21711
1.21711
1.03637
1.03637
1.03637
1.03637
1.03637
1.03637
1.03637
1.03637
1.03637
1.03637
0.866789
0.866788
0.866787
0.866786
0.866785
0.866785
0.866786
0.866787
0.866788
0.866789
0.711664
0.711664
0.711662
0.711661
0.71166
0.71166
0.711661
0.711662
0.711664
0.711665
0.573309
0.573309
0.573307
0.573306
0.573305
0.573306
0.573306
0.573308
0.57331
0.573311
0.452979
0.452979
0.452977
0.452976
0.452976
0.452976
0.452977
0.452979
0.452981
0.452981
0.350913
0.350913
0.350911
0.35091
0.35091
0.35091
0.350911
0.350913
0.350915
0.350916
0.266464
0.266464
0.266462
0.266462
0.266461
0.266462
0.266463
0.266465
0.266467
0.266467
0.198295
0.198295
0.198293
0.198293
0.198292
0.198293
0.198294
0.198296
0.198298
0.198298
0.144596
0.144596
0.144595
0.144594
0.144594
0.144595
0.144596
0.144597
0.144599
0.1446
0.103309
0.103309
0.103308
0.103308
0.103308
0.103308
0.103309
0.10331
0.103312
0.103312
0.0723172
0.072317
0.0723164
0.072316
0.0723161
0.0723164
0.0723172
0.0723182
0.0723197
0.07232
0.0495984
0.0495982
0.0495977
0.0495975
0.0495975
0.0495978
0.0495984
0.0495993
0.0496005
0.0496008
0.03333
0.0333299
0.0333295
0.0333294
0.0333294
0.0333297
0.0333302
0.0333309
0.0333318
0.0333321
0.0219473
0.0219472
0.0219469
0.0219468
0.0219469
0.0219471
0.0219475
0.021948
0.0219487
0.021949
0.0141629
0.0141628
0.0141626
0.0141625
0.0141626
0.0141627
0.014163
0.0141634
0.014164
0.0141641
0.00895784
0.00895779
0.00895765
0.00895761
0.00895765
0.00895778
0.00895799
0.00895831
0.0089587
0.00895883
0.00555403
0.00555399
0.0055539
0.00555387
0.00555391
0.005554
0.00555416
0.00555438
0.00555466
0.00555475
0.00337631
0.00337628
0.00337622
0.00337621
0.00337623
0.0033763
0.00337641
0.00337657
0.00337676
0.00337683
0.00201275
0.00201273
0.0020127
0.00201269
0.00201271
0.00201276
0.00201283
0.00201294
0.00201307
0.00201312
0.00117691
0.0011769
0.00117688
0.00117688
0.00117689
0.00117692
0.00117697
0.00117704
0.00117713
0.00117716
0.000675153
0.000675144
0.000675131
0.000675129
0.000675138
0.000675159
0.000675192
0.000675237
0.000675294
0.000675316
0.000380069
0.000380064
0.000380056
0.000380055
0.000380061
0.000380075
0.000380095
0.000380124
0.00038016
0.000380174
0.000210006
0.000210003
0.000209998
0.000209998
0.000210002
0.00021001
0.000210022
0.000210039
0.000210061
0.000210069
0.000113925
0.000113923
0.00011392
0.00011392
0.000113922
0.000113926
0.000113933
0.000113941
0.000113953
0.000113956
6.0692e-05
6.06908e-05
6.06891e-05
6.06887e-05
6.06892e-05
6.06904e-05
6.06918e-05
6.06932e-05
6.06949e-05
6.06932e-05
3.17601e-05
3.17593e-05
3.17582e-05
3.17574e-05
3.17565e-05
3.17546e-05
3.17504e-05
3.17424e-05
3.17307e-05
3.17174e-05
1.63299e-05
1.63293e-05
1.63283e-05
1.6327e-05
1.63246e-05
1.63192e-05
1.63074e-05
1.62842e-05
1.6245e-05
1.61978e-05
8.2517e-06
8.25123e-06
8.25027e-06
8.2485e-06
8.24453e-06
8.2352e-06
8.21362e-06
8.16552e-06
8.06659e-06
7.90507e-06
1.4049
1.4049
1.4049
1.4049
1.4049
1.4049
1.4049
1.4049
1.4049
1.4049
1.21711
1.21711
1.21711
1.21711
1.21711
1.21711
1.21711
1.21711
1.21711
1.21711
1.03637
1.03637
1.03637
1.03637
1.03637
1.03637
1.03637
1.03637
1.03637
1.03637
0.866788
0.866788
0.866787
0.866786
0.866785
0.866785
0.866786
0.866787
0.866789
0.866789
0.711664
0.711664
0.711662
0.711661
0.71166
0.711661
0.711661
0.711663
0.711665
0.711665
0.573309
0.573309
0.573307
0.573306
0.573306
0.573306
0.573307
0.573308
0.573311
0.573311
0.452979
0.452979
0.452977
0.452976
0.452976
0.452976
0.452977
0.452979
0.452981
0.452982
0.350913
0.350913
0.350911
0.35091
0.35091
0.350911
0.350912
0.350913
0.350916
0.350916
0.266464
0.266464
0.266463
0.266462
0.266462
0.266462
0.266463
0.266465
0.266468
0.266468
0.198295
0.198295
0.198294
0.198293
0.198293
0.198293
0.198295
0.198296
0.198298
0.198299
0.144597
0.144596
0.144595
0.144595
0.144595
0.144595
0.144596
0.144598
0.1446
0.1446
0.10331
0.103309
0.103308
0.103308
0.103308
0.103309
0.103309
0.103311
0.103312
0.103313
0.0723175
0.0723173
0.0723166
0.0723164
0.0723164
0.0723168
0.0723176
0.0723187
0.0723201
0.0723205
0.0495986
0.0495984
0.049598
0.0495978
0.0495978
0.0495982
0.0495988
0.0495997
0.0496009
0.0496012
0.0333302
0.0333301
0.0333297
0.0333296
0.0333297
0.03333
0.0333305
0.0333312
0.0333321
0.0333324
0.0219475
0.0219474
0.0219471
0.021947
0.0219471
0.0219473
0.0219477
0.0219483
0.021949
0.0219492
0.014163
0.0141629
0.0141627
0.0141627
0.0141627
0.0141629
0.0141632
0.0141636
0.0141642
0.0141644
0.00895794
0.00895789
0.00895776
0.00895773
0.00895778
0.00895791
0.00895813
0.00895845
0.00895885
0.00895898
0.0055541
0.00555406
0.00555398
0.00555396
0.005554
0.0055541
0.00555426
0.00555448
0.00555477
0.00555486
0.00337636
0.00337633
0.00337628
0.00337627
0.0033763
0.00337637
0.00337648
0.00337664
0.00337684
0.00337691
0.00201279
0.00201277
0.00201274
0.00201273
0.00201276
0.0020128
0.00201288
0.00201299
0.00201312
0.00201317
0.00117694
0.00117693
0.00117691
0.00117691
0.00117692
0.00117695
0.001177
0.00117708
0.00117716
0.0011772
0.000675169
0.000675162
0.00067515
0.000675149
0.000675159
0.00067518
0.000675214
0.00067526
0.000675317
0.00067534
0.00038008
0.000380076
0.000380068
0.000380068
0.000380075
0.000380088
0.00038011
0.000380139
0.000380175
0.000380189
0.000210013
0.00021001
0.000210006
0.000210006
0.00021001
0.000210019
0.000210031
0.000210049
0.00021007
0.000210079
0.000113929
0.000113927
0.000113925
0.000113925
0.000113927
0.000113932
0.000113938
0.000113947
0.000113958
0.000113962
6.06946e-05
6.06935e-05
6.0692e-05
6.06917e-05
6.06923e-05
6.06936e-05
6.06951e-05
6.06965e-05
6.06982e-05
6.06966e-05
3.17617e-05
3.17609e-05
3.17599e-05
3.17591e-05
3.17583e-05
3.17565e-05
3.17523e-05
3.17444e-05
3.17326e-05
3.17193e-05
1.63308e-05
1.63302e-05
1.63293e-05
1.63281e-05
1.63256e-05
1.63202e-05
1.63085e-05
1.62853e-05
1.62461e-05
1.61989e-05
8.25221e-06
8.25176e-06
8.25082e-06
8.24907e-06
8.24512e-06
8.23581e-06
8.21423e-06
8.16614e-06
8.06721e-06
7.90568e-06
1.4049
1.4049
1.4049
1.4049
1.4049
1.4049
1.4049
1.4049
1.4049
1.4049
1.21711
1.21711
1.21711
1.21711
1.21711
1.21711
1.21711
1.21711
1.21711
1.21711
1.03637
1.03637
1.03637
1.03637
1.03637
1.03637
1.03637
1.03637
1.03637
1.03637
0.866789
0.866789
0.866787
0.866786
0.866786
0.866786
0.866787
0.866788
0.866789
0.86679
0.711664
0.711664
0.711662
0.711661
0.711661
0.711661
0.711662
0.711664
0.711666
0.711666
0.573309
0.573309
0.573308
0.573307
0.573306
0.573307
0.573308
0.57331
0.573312
0.573312
0.45298
0.45298
0.452978
0.452977
0.452977
0.452977
0.452978
0.45298
0.452983
0.452983
0.350914
0.350913
0.350912
0.350911
0.350911
0.350912
0.350913
0.350915
0.350917
0.350918
0.266465
0.266465
0.266464
0.266463
0.266463
0.266463
0.266465
0.266466
0.266469
0.266469
0.198296
0.198296
0.198294
0.198294
0.198294
0.198295
0.198296
0.198297
0.198299
0.1983
0.144597
0.144597
0.144596
0.144596
0.144596
0.144596
0.144597
0.144599
0.144601
0.144601
0.10331
0.10331
0.103309
0.103309
0.103309
0.103309
0.10331
0.103312
0.103313
0.103314
0.072318
0.0723178
0.0723173
0.072317
0.0723172
0.0723176
0.0723184
0.0723195
0.0723209
0.0723213
0.049599
0.0495989
0.0495985
0.0495983
0.0495984
0.0495988
0.0495994
0.0496004
0.0496015
0.0496019
0.0333306
0.0333305
0.0333302
0.0333301
0.0333302
0.0333305
0.033331
0.0333317
0.0333327
0.0333329
0.0219477
0.0219477
0.0219474
0.0219474
0.0219475
0.0219477
0.0219481
0.0219487
0.0219494
0.0219496
0.0141632
0.0141631
0.014163
0.0141629
0.014163
0.0141632
0.0141635
0.0141639
0.0141645
0.0141646
0.0089581
0.00895806
0.00895796
0.00895794
0.00895799
0.00895813
0.00895836
0.00895868
0.00895907
0.0089592
0.00555422
0.00555419
0.00555412
0.00555411
0.00555416
0.00555426
0.00555442
0.00555465
0.00555493
0.00555502
0.00337645
0.00337643
0.00337638
0.00337638
0.00337641
0.00337648
0.0033766
0.00337675
0.00337695
0.00337702
0.00201285
0.00201284
0.00201281
0.00201281
0.00201283
0.00201288
0.00201296
0.00201307
0.0020132
0.00201325
0.00117698
0.00117697
0.00117695
0.00117695
0.00117697
0.001177
0.00117706
0.00117713
0.00117722
0.00117725
0.000675196
0.00067519
0.00067518
0.000675181
0.000675192
0.000675214
0.000675248
0.000675294
0.000675351
0.000675372
0.000380098
0.000380094
0.000380088
0.000380088
0.000380096
0.00038011
0.000380131
0.00038016
0.000380196
0.000380209
0.000210024
0.000210022
0.000210018
0.000210019
0.000210023
0.000210032
0.000210045
0.000210062
0.000210083
0.000210091
0.000113936
0.000113934
0.000113932
0.000113933
0.000113935
0.00011394
0.000113946
0.000113955
0.000113966
0.00011397
6.06986e-05
6.06977e-05
6.06964e-05
6.06963e-05
6.06971e-05
6.06984e-05
6.06999e-05
6.07013e-05
6.0703e-05
6.07012e-05
3.1764e-05
3.17634e-05
3.17624e-05
3.17618e-05
3.17611e-05
3.17593e-05
3.17552e-05
3.17472e-05
3.17354e-05
3.1722e-05
1.63321e-05
1.63316e-05
1.63308e-05
1.63296e-05
1.63272e-05
1.63218e-05
1.63101e-05
1.62869e-05
1.62477e-05
1.62004e-05
8.25297e-06
8.25255e-06
8.25165e-06
8.24994e-06
8.246e-06
8.23671e-06
8.21513e-06
8.16702e-06
8.06806e-06
7.90649e-06
1.4049
1.4049
1.4049
1.4049
1.4049
1.4049
1.4049
1.4049
1.4049
1.4049
1.21711
1.21711
1.21711
1.21711
1.21711
1.21711
1.21711
1.21711
1.21711
1.21711
1.03637
1.03637
1.03637
1.03637
1.03637
1.03637
1.03637
1.03637
1.03637
1.03637
0.866789
0.866789
0.866788
0.866787
0.866787
0.866787
0.866788
0.866789
0.866791
0.866791
0.711665
0.711665
0.711663
0.711663
0.711662
0.711663
0.711664
0.711665
0.711667
0.711667
0.57331
0.57331
0.573309
0.573308
0.573308
0.573308
0.57331
0.573311
0.573313
0.573314
0.452981
0.452981
0.452979
0.452979
0.452979
0.452979
0.45298
0.452982
0.452984
0.452985
0.350915
0.350915
0.350913
0.350913
0.350913
0.350913
0.350915
0.350916
0.350919
0.350919
0.266466
0.266466
0.266465
0.266465
0.266465
0.266465
0.266466
0.266468
0.26647
0.266471
0.198297
0.198297
0.198296
0.198295
0.198296
0.198296
0.198297
0.198299
0.198301
0.198301
0.144598
0.144598
0.144597
0.144597
0.144597
0.144598
0.144599
0.1446
0.144602
0.144603
0.103311
0.103311
0.10331
0.10331
0.10331
0.103311
0.103312
0.103313
0.103315
0.103315
0.0723187
0.0723187
0.0723182
0.0723181
0.0723182
0.0723187
0.0723195
0.0723206
0.072322
0.0723223
0.0495996
0.0495996
0.0495993
0.0495992
0.0495993
0.0495997
0.0496004
0.0496013
0.0496024
0.0496027
0.0333311
0.0333311
0.0333308
0.0333308
0.0333309
0.0333312
0.0333317
0.0333325
0.0333334
0.0333336
0.0219481
0.0219481
0.0219479
0.0219479
0.021948
0.0219483
0.0219487
0.0219492
0.0219499
0.0219501
0.0141635
0.0141635
0.0141634
0.0141634
0.0141634
0.0141636
0.0141639
0.0141644
0.0141649
0.014165
0.00895833
0.00895832
0.00895824
0.00895824
0.00895831
0.00895845
0.00895868
0.00895899
0.00895937
0.00895948
0.00555438
0.00555438
0.00555432
0.00555433
0.00555438
0.00555448
0.00555465
0.00555487
0.00555514
0.00555522
0.00337656
0.00337656
0.00337652
0.00337653
0.00337657
0.00337664
0.00337675
0.00337691
0.0033771
0.00337716
0.00201293
0.00201293
0.00201291
0.00201291
0.00201294
0.00201299
0.00201307
0.00201317
0.0020133
0.00201334
0.00117703
0.00117703
0.00117702
0.00117702
0.00117704
0.00117708
0.00117713
0.0011772
0.00117728
0.00117731
0.000675232
0.000675229
0.000675222
0.000675225
0.000675238
0.00067526
0.000675294
0.000675339
0.000675394
0.000675413
0.00038012
0.000380119
0.000380115
0.000380117
0.000380125
0.000380139
0.00038016
0.000380189
0.000380223
0.000380236
0.000210038
0.000210037
0.000210035
0.000210036
0.000210041
0.00021005
0.000210063
0.00021008
0.0002101
0.000210108
0.000113945
0.000113944
0.000113943
0.000113943
0.000113946
0.000113951
0.000113957
0.000113966
0.000113976
0.00011398
6.07039e-05
6.07033e-05
6.07025e-05
6.07026e-05
6.07036e-05
6.0705e-05
6.07064e-05
6.07077e-05
6.0709e-05
6.0707e-05
3.17671e-05
3.17667e-05
3.1766e-05
3.17655e-05
3.17648e-05
3.17631e-05
3.17589e-05
3.17509e-05
3.17389e-05
3.17254e-05
1.63339e-05
1.63335e-05
1.63328e-05
1.63317e-05
1.63294e-05
1.6324e-05
1.63123e-05
1.6289e-05
1.62497e-05
1.62024e-05
8.25396e-06
8.25361e-06
8.25278e-06
8.25111e-06
8.2472e-06
8.23791e-06
8.21632e-06
8.16817e-06
8.06915e-06
7.90752e-06
1.4049
1.4049
1.4049
1.4049
1.4049
1.4049
1.4049
1.4049
1.4049
1.4049
1.21711
1.21711
1.21711
1.21711
1.21711
1.21711
1.21711
1.21711
1.21711
1.21711
1.03637
1.03637
1.03637
1.03637
1.03637
1.03637
1.03637
1.03637
1.03637
1.03637
0.86679
0.86679
0.866789
0.866788
0.866788
0.866789
0.866789
0.866791
0.866792
0.866792
0.711665
0.711666
0.711665
0.711664
0.711664
0.711665
0.711666
0.711667
0.711669
0.711669
0.573311
0.573312
0.573311
0.57331
0.57331
0.573311
0.573312
0.573313
0.573315
0.573315
0.452982
0.452982
0.452981
0.452981
0.452981
0.452981
0.452983
0.452984
0.452986
0.452987
0.350916
0.350916
0.350915
0.350915
0.350915
0.350916
0.350917
0.350919
0.350921
0.350921
0.266467
0.266468
0.266467
0.266467
0.266467
0.266468
0.266469
0.26647
0.266472
0.266473
0.198298
0.198298
0.198298
0.198297
0.198298
0.198298
0.198299
0.198301
0.198303
0.198303
0.144599
0.144599
0.144599
0.144599
0.144599
0.1446
0.144601
0.144602
0.144604
0.144604
0.103312
0.103312
0.103312
0.103312
0.103312
0.103312
0.103313
0.103315
0.103316
0.103316
0.0723195
0.0723197
0.0723195
0.0723194
0.0723197
0.0723201
0.0723209
0.072322
0.0723232
0.0723234
0.0496003
0.0496005
0.0496003
0.0496003
0.0496005
0.0496009
0.0496015
0.0496024
0.0496035
0.0496036
0.0333316
0.0333318
0.0333316
0.0333317
0.0333318
0.0333321
0.0333327
0.0333334
0.0333342
0.0333343
0.0219486
0.0219487
0.0219486
0.0219486
0.0219487
0.021949
0.0219494
0.0219499
0.0219506
0.0219507
0.0141638
0.0141639
0.0141639
0.0141639
0.014164
0.0141642
0.0141645
0.0141649
0.0141654
0.0141655
0.00895858
0.00895863
0.0089586
0.00895862
0.0089587
0.00895885
0.00895907
0.00895937
0.00895972
0.00895979
0.00555457
0.0055546
0.00555458
0.0055546
0.00555466
0.00555477
0.00555493
0.00555514
0.00555539
0.00555544
0.00337669
0.00337671
0.0033767
0.00337672
0.00337676
0.00337684
0.00337695
0.0033771
0.00337727
0.00337731
0.00201302
0.00201303
0.00201303
0.00201304
0.00201307
0.00201312
0.0020132
0.0020133
0.00201342
0.00201345
0.0011771
0.0011771
0.0011771
0.00117711
0.00117713
0.00117716
0.00117722
0.00117728
0.00117736
0.00117738
0.000675272
0.000675277
0.000675275
0.000675281
0.000675295
0.000675318
0.000675351
0.000675394
0.000675445
0.000675459
0.000380146
0.000380149
0.000380148
0.000380152
0.000380161
0.000380176
0.000380196
0.000380223
0.000380255
0.000380264
0.000210055
0.000210056
0.000210056
0.000210058
0.000210064
0.000210073
0.000210085
0.000210101
0.00021012
0.000210125
0.000113954
0.000113955
0.000113955
0.000113957
0.00011396
0.000113964
0.000113971
0.000113979
0.000113989
0.00011399
6.07098e-05
6.07102e-05
6.071e-05
6.07105e-05
6.07116e-05
6.0713e-05
6.07144e-05
6.07154e-05
6.07162e-05
6.07134e-05
3.17705e-05
3.17707e-05
3.17704e-05
3.17701e-05
3.17695e-05
3.17678e-05
3.17635e-05
3.17553e-05
3.17431e-05
3.17291e-05
1.63359e-05
1.63358e-05
1.63353e-05
1.63343e-05
1.6332e-05
1.63267e-05
1.63149e-05
1.62915e-05
1.6252e-05
1.62045e-05
8.25508e-06
8.25489e-06
8.25417e-06
8.25255e-06
8.24867e-06
8.23938e-06
8.21777e-06
8.16957e-06
8.07046e-06
7.90866e-06
1.4049
1.4049
1.4049
1.4049
1.4049
1.4049
1.4049
1.4049
1.4049
1.4049
1.21711
1.21711
1.21711
1.21711
1.21711
1.21711
1.21711
1.21711
1.21711
1.21711
1.03637
1.03637
1.03637
1.03637
1.03637
1.03637
1.03637
1.03637
1.03637
1.03637
0.866789
0.86679
0.866789
0.866789
0.866789
0.866789
0.86679
0.866791
0.866792
0.866792
0.711665
0.711666
0.711665
0.711665
0.711665
0.711665
0.711666
0.711667
0.711669
0.711668
0.573311
0.573311
0.573311
0.57331
0.573311
0.573311
0.573312
0.573314
0.573315
0.573315
0.452981
0.452982
0.452981
0.452981
0.452981
0.452982
0.452983
0.452985
0.452987
0.452986
0.350916
0.350916
0.350916
0.350915
0.350916
0.350916
0.350918
0.350919
0.350921
0.35092
0.266467
0.266468
0.266467
0.266467
0.266467
0.266468
0.266469
0.266471
0.266473
0.266472
0.198298
0.198298
0.198298
0.198298
0.198298
0.198299
0.1983
0.198301
0.198303
0.198303
0.144599
0.144599
0.144599
0.144599
0.1446
0.1446
0.144601
0.144603
0.144604
0.144604
0.103312
0.103312
0.103312
0.103312
0.103312
0.103313
0.103314
0.103315
0.103316
0.103316
0.0723196
0.0723198
0.0723197
0.0723198
0.07232
0.0723205
0.0723213
0.0723223
0.0723234
0.072323
0.0496004
0.0496006
0.0496005
0.0496006
0.0496008
0.0496012
0.0496019
0.0496027
0.0496036
0.0496033
0.0333317
0.0333319
0.0333318
0.0333319
0.0333321
0.0333324
0.0333329
0.0333336
0.0333343
0.0333341
0.0219487
0.0219488
0.0219488
0.0219488
0.021949
0.0219492
0.0219496
0.0219501
0.0219507
0.0219505
0.0141639
0.014164
0.014164
0.014164
0.0141641
0.0141644
0.0141646
0.014165
0.0141655
0.0141653
0.00895865
0.0089587
0.0089587
0.00895874
0.00895883
0.00895898
0.0089592
0.00895948
0.00895979
0.00895971
0.00555462
0.00555465
0.00555466
0.00555469
0.00555475
0.00555486
0.00555502
0.00555522
0.00555544
0.00555539
0.00337674
0.00337676
0.00337676
0.00337678
0.00337683
0.00337691
0.00337702
0.00337716
0.00337731
0.00337728
0.00201305
0.00201306
0.00201307
0.00201308
0.00201312
0.00201317
0.00201325
0.00201334
0.00201345
0.00201342