/*--------------------------------*- C++ -*----------------------------------*\
| =========                 |                                                 |
| \\      /  F ield         | OpenFOAM: The Open Source CFD Toolbox           |
|  \\    /   O peration     | Version:  v1812                                 |
|   \\  /    A nd           | Web:      www.OpenFOAM.com                      |
|    \\/     M anipulation  |                                                 |
\*---------------------------------------------------------------------------*/
FoamFile
{
    version     2.0;
    format      ascii;
    class       volScalarField;
    location    "5.25";
    object      p;
}
// * * * * * * * * * * * * * * * * * * * * * * * * * * * * * * * * * * * * * //

dimensions      [0 2 -2 0 0 0 0];


internalField   nonuniform List<scalar> 
1000
(
1.6773919
1.556314
1.4603335
1.3966774
1.3481679
1.3056958
1.2681606
1.2359889
1.2085885
1.1847509
1.1633566
1.1435928
1.1249156
1.1069761
1.0895608
1.0725466
1.0558657
1.0394816
1.0233734
1.0075275
0.99193256
0.97657751
0.96145091
0.9465408
0.93183499
0.91732128
0.90298773
0.88882284
0.87481567
0.86095593
0.84723403
0.83364104
0.82016871
0.80680943
0.79355623
0.78040269
0.76734296
0.75437164
0.74148379
0.72867486
0.71594061
0.70327707
0.69068046
0.67814717
0.66567367
0.65325648
0.64089215
0.62857723
0.61630825
0.6040817
0.59189412
0.57974202
0.56762199
0.55553067
0.54346484
0.5314214
0.51939745
0.50739027
0.49539739
0.48341655
0.47144575
0.45948323
0.44752746
0.43557711
0.42363109
0.41168847
0.3997485
0.38781056
0.37587417
0.36393895
0.35200459
0.34007086
0.32813758
0.31620464
0.30427193
0.29233938
0.28040695
0.26847459
0.25654228
0.24461001
0.23267776
0.22074552
0.2088133
0.19688108
0.18494886
0.17301665
0.16108444
0.14915223
0.13722002
0.12528781
0.1133556
0.10142339
0.089491178
0.077558971
0.065626764
0.053694561
0.041762361
0.029830179
0.017898017
0.0059659405
1.5601722
1.5052431
1.4442906
1.3927229
1.3494529
1.3104846
1.2748983
1.2431257
1.2151648
1.1903869
1.1679851
1.1472837
1.1278021
1.109214
1.0913004
1.0739157
1.0569639
1.0403825
1.0241298
1.0081764
0.99249935
0.97707986
0.96190108
0.94694752
0.93220463
0.91765864
0.90329657
0.8891062
0.87507609
0.86119557
0.84745474
0.83384442
0.82035614
0.80698214
0.79371525
0.78054893
0.76747721
0.75449459
0.74159605
0.72877697
0.71603308
0.70336037
0.69075506
0.67821354
0.66573228
0.65330784
0.64093677
0.62861563
0.61634096
0.60410929
0.59191712
0.57976098
0.56763742
0.55554307
0.54347466
0.53142907
0.51940334
0.50739473
0.4954007
0.48341896
0.47144747
0.45948442
0.44752826
0.43557763
0.4236314
0.41168865
0.39974859
0.3878106
0.37587417
0.36393893
0.35200456
0.34007083
0.32813756
0.31620462
0.30427191
0.29233937
0.28040694
0.26847458
0.25654227
0.24461
0.23267775
0.22074552
0.2088133
0.19688108
0.18494886
0.17301665
0.16108444
0.14915223
0.13722001
0.12528781
0.11335559
0.10142339
0.089491176
0.077558969
0.065626757
0.053694549
0.041762334
0.029830137
0.017897945
0.0059658837
1.499351
1.4731759
1.434779
1.3936461
1.3545608
1.31797
1.2836724
1.2519548
1.2230987
1.1969977
1.1732437
1.1513537
1.1309038
1.1115629
1.0930828
1.0752818
1.0580299
1.0412343
1.0248283
1.0087632
0.99300285
0.9775192
0.9622894
0.94729401
0.93251589
0.91793962
0.90355112
0.88933744
0.8752866
0.86138757
0.84763013
0.83400488
0.82050313
0.80711691
0.79383893
0.78066249
0.76758148
0.75459029
0.74168381
0.72885734
0.71610651
0.70342728
0.69081581
0.67826847
0.6657817
0.65335205
0.64097607
0.62865033
0.61637136
0.60413571
0.59193988
0.57978041
0.56765384
0.55555681
0.54348604
0.53143839
0.5194109
0.50740078
0.49540549
0.48342271
0.47145036
0.45948663
0.44752992
0.43557886
0.42363231
0.4116893
0.39974906
0.38781093
0.3758744
0.36393909
0.35200467
0.3400709
0.3281376
0.31620465
0.30427193
0.29233938
0.28040694
0.26847458
0.25654228
0.24461
0.23267776
0.22074552
0.2088133
0.19688108
0.18494886
0.17301665
0.16108444
0.14915223
0.13722001
0.1252878
0.11335559
0.10142338
0.089491169
0.077558957
0.065626733
0.053694508
0.041762264
0.029830036
0.017897818
0.0059657977
1.4699424
1.4544443
1.4275744
1.3936505
1.3578495
1.3228982
1.2895963
1.2582432
1.2291125
1.2023211
1.1777335
1.1550413
1.1338895
1.1139607
1.0950025
1.0768229
1.0592771
1.0422561
1.0256775
1.0094795
0.9936156
0.9780499
0.96275401
0.94770445
0.93288118
0.9182667
0.90384543
0.88960334
0.87552768
0.8616068
0.84783006
0.83418766
0.82067064
0.80727079
0.79398061
0.78079321
0.76770232
0.75470221
0.74178761
0.72895371
0.71619604
0.70351045
0.69089303
0.67834005
0.66584792
0.65341312
0.64103218
0.62870164
0.61641805
0.60417793
0.59197781
0.57981423
0.56768378
0.55558309
0.54350891
0.53145811
0.51942774
0.50741503
0.49541743
0.48343262
0.4714585
0.45949324
0.44753524
0.43558309
0.42363564
0.4116919
0.39975105
0.38781245
0.37587555
0.36393994
0.3520053
0.34007136
0.32813794
0.31620489
0.3042721
0.2923395
0.28040702
0.26847464
0.25654231
0.24461003
0.23267777
0.22074553
0.2088133
0.19688108
0.18494886
0.17301665
0.16108444
0.14915223
0.13722001
0.1252878
0.11335559
0.10142338
0.089491158
0.077558939
0.0656267
0.053694456
0.041762182
0.029829927
0.0178977
0.0059657234
1.4572109
1.4452575
1.4230232
1.3927356
1.3588744
1.3248788
1.2921813
1.2611757
1.2320783
1.2050665
1.1801394
1.1570898
1.1356083
1.1153907
1.0961871
1.0778049
1.060096
1.0429455
1.0262647
1.0099856
0.99405664
0.97843814
0.96309871
0.94801268
0.9331584
0.9185172
0.90407264
0.88981006
0.87571624
0.8617792
0.84798802
0.83433269
0.82080407
0.80739381
0.79409426
0.78089844
0.76779996
0.75479299
0.74187217
0.72903261
0.71626974
0.70357935
0.69095744
0.67840023
0.66590406
0.65346538
0.64108067
0.62874646
0.61645927
0.60421563
0.59201207
0.57984515
0.56771147
0.55560768
0.54353056
0.531477
0.51944406
0.507429
0.49542926
0.48344253
0.47146673
0.45949999
0.44754072
0.4355875
0.42363914
0.41169465
0.39975319
0.38781409
0.3758768
0.36394088
0.35200599
0.34007187
0.32813831
0.31620515
0.30427229
0.29233963
0.28040712
0.2684747
0.25654236
0.24461006
0.23267779
0.22074554
0.20881331
0.19688109
0.18494887
0.17301665
0.16108444
0.14915223
0.13722001
0.1252878
0.11335559
0.10142337
0.089491151
0.077558927
0.065626678
0.053694422
0.041762131
0.029829862
0.017897632
0.0059656828
1.4572109
1.4452575
1.4230232
1.3927356
1.3588744
1.3248788
1.2921813
1.2611757
1.2320783
1.2050665
1.1801394
1.1570898
1.1356083
1.1153907
1.0961871
1.0778049
1.060096
1.0429455
1.0262647
1.0099856
0.99405664
0.97843814
0.96309871
0.94801268
0.93315841
0.9185172
0.90407264
0.88981006
0.87571624
0.86177921
0.84798802
0.83433269
0.82080408
0.80739382
0.79409427
0.78089844
0.76779996
0.75479299
0.74187218
0.72903261
0.71626974
0.70357935
0.69095744
0.67840023
0.66590406
0.65346537
0.64108067
0.62874646
0.61645927
0.60421562
0.59201207
0.57984515
0.56771146
0.55560768
0.54353056
0.531477
0.51944406
0.507429
0.49542926
0.48344253
0.47146673
0.45949999
0.44754072
0.43558749
0.42363914
0.41169465
0.39975319
0.38781409
0.3758768
0.36394088
0.35200599
0.34007187
0.32813831
0.31620515
0.30427229
0.29233963
0.28040712
0.2684747
0.25654236
0.24461006
0.23267779
0.22074555
0.20881331
0.19688109
0.18494887
0.17301665
0.16108444
0.14915223
0.13722001
0.1252878
0.11335559
0.10142337
0.089491151
0.077558927
0.065626678
0.053694422
0.041762131
0.029829862
0.017897633
0.0059656832
1.4699424
1.4544443
1.4275744
1.3936505
1.3578495
1.3228982
1.2895963
1.2582432
1.2291125
1.2023211
1.1777335
1.1550413
1.1338895
1.1139607
1.0950025
1.0768229
1.0592771
1.0422561
1.0256775
1.0094795
0.9936156
0.9780499
0.96275401
0.94770445
0.93288118
0.9182667
0.90384544
0.88960335
0.87552769
0.86160682
0.84783007
0.83418767
0.82067065
0.80727081
0.79398062
0.78079322
0.76770233
0.75470222
0.74178762
0.72895371
0.71619604
0.70351045
0.69089302
0.67834004
0.66584791
0.6534131
0.64103216
0.62870163
0.61641803
0.60417791
0.5919778
0.57981422
0.56768377
0.55558308
0.5435089
0.53145811
0.51942774
0.50741503
0.49541743
0.48343261
0.4714585
0.45949324
0.44753523
0.43558309
0.42363564
0.4116919
0.39975105
0.38781245
0.37587555
0.36393994
0.3520053
0.34007136
0.32813794
0.31620489
0.3042721
0.2923395
0.28040703
0.26847464
0.25654232
0.24461003
0.23267777
0.22074553
0.2088133
0.19688108
0.18494886
0.17301665
0.16108444
0.14915222
0.13722001
0.1252878
0.11335559
0.10142338
0.089491158
0.07755894
0.065626701
0.053694456
0.041762183
0.029829929
0.017897701
0.0059657241
1.499351
1.4731758
1.434779
1.3936461
1.3545608
1.31797
1.2836724
1.2519548
1.2230987
1.1969977
1.1732437
1.1513537
1.1309038
1.1115629
1.0930828
1.0752818
1.0580299
1.0412343
1.0248283
1.0087632
0.99300284
0.9775192
0.9622894
0.94729401
0.93251589
0.91793963
0.90355113
0.88933745
0.87528662
0.86138759
0.84763015
0.8340049
0.82050315
0.80711693
0.79383895
0.78066251
0.76758149
0.7545903
0.74168382
0.72885734
0.71610651
0.70342727
0.6908158
0.67826846
0.66578169
0.65335203
0.64097605
0.62865031
0.61637134
0.60413569
0.59193987
0.57978039
0.56765383
0.5555568
0.54348603
0.53143839
0.51941089
0.50740077
0.49540548
0.4834227
0.47145036
0.45948663
0.44752992
0.43557886
0.42363231
0.4116893
0.39974906
0.38781093
0.3758744
0.36393909
0.35200467
0.3400709
0.32813761
0.31620465
0.30427193
0.29233938
0.28040694
0.26847459
0.25654228
0.24461001
0.23267776
0.22074552
0.2088133
0.19688108
0.18494886
0.17301665
0.16108444
0.14915222
0.13722001
0.1252878
0.11335559
0.10142338
0.089491169
0.077558957
0.065626733
0.053694509
0.041762264
0.029830037
0.01789782
0.0059657985
1.5601722
1.5052431
1.4442906
1.3927229
1.3494529
1.3104846
1.2748983
1.2431257
1.2151648
1.1903869
1.1679851
1.1472837
1.1278021
1.109214
1.0913004
1.0739157
1.0569639
1.0403825
1.0241298
1.0081763
0.99249935
0.97707986
0.96190108
0.94694753
0.93220463
0.91765865
0.90329658
0.88910621
0.87507611
0.86119559
0.84745476
0.83384444
0.82035616
0.80698215
0.79371527
0.78054895
0.76747722
0.75449459
0.74159605
0.72877697
0.71603307
0.70336036
0.69075505
0.67821352
0.66573227
0.65330782
0.64093675
0.62861561
0.61634094
0.60410927
0.59191711
0.57976097
0.56763741
0.55554306
0.54347465
0.53142906
0.51940334
0.50739472
0.4954007
0.48341896
0.47144747
0.45948442
0.44752825
0.43557762
0.4236314
0.41168865
0.39974859
0.3878106
0.37587418
0.36393893
0.35200456
0.34007083
0.32813756
0.31620462
0.30427192
0.29233937
0.28040694
0.26847458
0.25654228
0.24461001
0.23267776
0.22074552
0.2088133
0.19688108
0.18494886
0.17301665
0.16108444
0.14915222
0.13722001
0.1252878
0.11335559
0.10142339
0.089491177
0.07755897
0.065626758
0.053694549
0.041762335
0.029830139
0.017897948
0.0059658845
1.6773919
1.556314
1.4603335
1.3966774
1.3481679
1.3056958
1.2681606
1.2359889
1.2085885
1.1847509
1.1633566
1.1435928
1.1249156
1.1069761
1.0895608
1.0725466
1.0558657
1.0394816
1.0233734
1.0075275
0.99193256
0.97657752
0.96145091
0.94654081
0.931835
0.91732129
0.90298775
0.88882285
0.87481568
0.86095595
0.84723405
0.83364106
0.82016873
0.80680945
0.79355624
0.78040271
0.76734297
0.75437164
0.74148379
0.72867486
0.71594061
0.70327706
0.69068045
0.67814715
0.66567365
0.65325646
0.64089213
0.62857721
0.61630822
0.60408168
0.5918941
0.57974201
0.56762198
0.55553066
0.54346483
0.53142139
0.51939744
0.50739027
0.49539738
0.48341655
0.47144575
0.45948323
0.44752746
0.43557711
0.42363109
0.41168847
0.3997485
0.38781056
0.37587418
0.36393895
0.35200459
0.34007086
0.32813759
0.31620464
0.30427193
0.29233939
0.28040695
0.26847459
0.25654228
0.24461001
0.23267776
0.22074552
0.2088133
0.19688108
0.18494886
0.17301665
0.16108444
0.14915223
0.13722001
0.1252878
0.1133556
0.10142339
0.089491179
0.077558972
0.065626765
0.053694561
0.041762362
0.029830182
0.01789802
0.0059659414
)
;

boundaryField
{
    top
    {
        type            zeroGradient;
    }
    inlet
    {
        type            zeroGradient;
    }
    outlet
    {
        type            fixedValue;
        value           uniform 0;
    }
    bottom
    {
        type            zeroGradient;
    }
    back
    {
        type            empty;
    }
    front
    {
        type            empty;
    }
}


// ************************************************************************* //
