/*--------------------------------*- C++ -*----------------------------------*\
| =========                 |                                                 |
| \\      /  F ield         | OpenFOAM: The Open Source CFD Toolbox           |
|  \\    /   O peration     | Version:  v1812                                 |
|   \\  /    A nd           | Web:      www.OpenFOAM.com                      |
|    \\/     M anipulation  |                                                 |
\*---------------------------------------------------------------------------*/
FoamFile
{
    version     2.0;
    format      ascii;
    class       surfaceScalarField;
    location    "16";
    object      phi;
}
// * * * * * * * * * * * * * * * * * * * * * * * * * * * * * * * * * * * * * //

dimensions      [0 3 -1 0 0 0 0];
oriented        oriented;


internalField   nonuniform List<scalar> 
1890
(
0.0032045327
1.8251193e-06
0.0031983076
6.2261042e-06
0.0031905238
7.7840512e-06
0.00318339
7.1335736e-06
0.0031776564
5.7331785e-06
0.0031731365
4.5193773e-06
0.0031694298
3.7063175e-06
0.0031662554
3.1740556e-06
0.0031634793
2.7757576e-06
0.0031610416
2.4374264e-06
0.0031588978
2.1435438e-06
0.0031570006
1.8969541e-06
0.0031553042
1.6961423e-06
0.0031537715
1.5325311e-06
0.0031523757
1.395697e-06
0.0031510979
1.2776099e-06
0.0031499243
1.1735184e-06
0.0031488433
1.0808477e-06
0.0031478453
9.9793255e-07
0.0031469218
9.2337224e-07
0.0031460659
8.5591533e-07
0.0031452713
7.9451632e-07
0.0031445329
7.3836166e-07
0.003143846
6.8682343e-07
0.0031432065
6.3939964e-07
0.0031426108
5.9566441e-07
0.0031420556
5.5524989e-07
0.0031415377
5.1783308e-07
0.0031410545
4.8313537e-07
0.0031406036
4.5091182e-07
0.0031401826
4.209501e-07
0.0031397895
3.9305992e-07
0.0031394224
3.6707449e-07
0.0031390796
3.4284202e-07
0.0031387593
3.2022899e-07
0.0031384602
2.9911241e-07
0.0031381808
2.7938391e-07
0.0031379199
2.609424e-07
0.0031376762
2.4369868e-07
0.0031374486
2.275684e-07
0.0031372361
2.1247721e-07
0.0031370378
1.9835394e-07
0.0031368526
1.8513596e-07
0.0031366799
1.7276254e-07
0.0031365187
1.6118042e-07
0.0031363684
1.5033734e-07
0.0031362282
1.4018769e-07
0.0031360975
1.3068611e-07
0.0031359757
1.2179325e-07
0.0031358622
1.1346951e-07
0.0031357566
1.0568082e-07
0.0031356582
9.8392395e-08
0.0031355666
9.1574577e-08
0.0031354814
8.5196739e-08
0.0031354022
7.9233037e-08
0.0031353285
7.3656369e-08
0.0031352601
6.8444153e-08
0.0031351965
6.3572404e-08
0.0031351375
5.9021407e-08
0.0031350827
5.4769846e-08
0.0031350319
5.0800482e-08
0.0031349849
4.7094393e-08
0.0031349412
4.3636537e-08
0.0031349008
4.0410045e-08
0.0031348634
3.7401772e-08
0.0031348288
3.4596706e-08
0.0031347968
3.1983397e-08
0.0031347673
2.9548417e-08
0.00313474
2.7281777e-08
0.0031347149
2.5171491e-08
0.0031346917
2.3208891e-08
0.0031346703
2.1383213e-08
0.0031346506
1.9686923e-08
0.0031346325
1.8110382e-08
0.0031346158
1.6647096e-08
0.0031346006
1.5288376e-08
0.0031345865
1.402863e-08
0.0031345737
1.286004e-08
0.0031345619
1.1777874e-08
0.0031345511
1.0775008e-08
0.0031345413
9.8475011e-09
0.0031345323
8.9888191e-09
0.0031345241
8.1958752e-09
0.0031345167
7.4624451e-09
0.0031345099
6.7864209e-09
0.0031345037
6.161552e-09
0.0031344981
5.5871359e-09
0.0031344931
5.0561442e-09
0.0031344885
4.5700853e-09
0.0031344844
4.1199077e-09
0.0031344807
3.7109772e-09
0.0031344774
3.3298696e-09
0.0031344744
2.9886413e-09
0.0031344717
2.6656275e-09
0.0031344693
2.3837439e-09
0.0031344672
2.1083264e-09
0.0031344653
1.8781665e-09
0.0031344637
1.6444816e-09
0.0031344622
1.4605885e-09
1.327887e-09
0.0080400719
1.9580306e-06
0.0080377131
8.586181e-06
0.0080332966
1.2200991e-05
0.0080280347
1.2395304e-05
0.0080228341
1.0933298e-05
0.0080179669
9.3861748e-06
0.0080134129
8.26e-06
0.0080091288
7.4579627e-06
0.0080051173
6.7869699e-06
0.0080014007
6.1537252e-06
0.0079979859
5.5581242e-06
0.0079948572
5.0254935e-06
0.007991987
4.5660863e-06
0.0079893474
4.1720214e-06
0.0079869142
3.8287768e-06
0.0079846675
3.5242132e-06
0.00798259
3.2508832e-06
0.0079806663
3.0044534e-06
0.0079788824
2.7817368e-06
0.0079772259
2.5797947e-06
0.0079756859
2.3958852e-06
0.0079742527
2.2276513e-06
0.0079729178
2.073183e-06
0.0079716737
1.9309504e-06
0.0079705133
1.7996855e-06
0.0079694307
1.6783043e-06
0.00796842
1.5658585e-06
0.0079674763
1.4615215e-06
0.0079665948
1.3645682e-06
0.0079657714
1.2743662e-06
0.0079650019
1.1903544e-06
0.007964283
1.1120374e-06
0.007963611
1.0389689e-06
0.0079629831
9.7075106e-07
0.0079623963
9.0702212e-07
0.007961848
8.4745761e-07
0.0079613356
7.917598e-07
0.0079608569
7.3966039e-07
0.0079604096
6.9091099e-07
0.0079599919
6.4528676e-07
0.0079596018
6.0257789e-07
0.0079592376
5.625941e-07
0.0079588975
5.2515649e-07
0.0079585802
4.9010244e-07
0.0079582841
4.5727805e-07
0.0079580079
4.2654344e-07
0.0079577503
3.9776535e-07
0.0079575102
3.7082258e-07
0.0079572864
3.45599e-07
0.0079570779
3.2198918e-07
0.0079568836
2.9989154e-07
0.0079567028
2.792139e-07
0.0079565345
2.5986699e-07
0.007956378
2.417701e-07
0.0079562324
2.2484462e-07
0.007956097
2.0901962e-07
0.0079559712
1.9422569e-07
0.0079558544
1.8040053e-07
0.0079557459
1.6748281e-07
0.0079556453
1.5541764e-07
0.007955552
1.4415073e-07
0.0079554654
1.3363383e-07
0.0079553852
1.2381889e-07
0.007955311
1.1466337e-07
0.0079552423
1.0612465e-07
0.0079551787
9.8165364e-08
0.0079551199
9.0747746e-08
0.0079550657
8.3838866e-08
0.0079550155
7.7405175e-08
0.0079549693
7.1417768e-08
0.0079549267
6.5846908e-08
0.0079548874
6.066713e-08
0.0079548512
5.5851993e-08
0.0079548179
5.1379172e-08
0.0079547874
4.7225239e-08
0.0079547593
4.3370533e-08
0.0079547335
3.9794252e-08
0.0079547099
3.6479162e-08
0.0079546883
3.3406932e-08
0.0079546685
3.056228e-08
0.0079546504
2.7929156e-08
0.0079546339
2.5493904e-08
0.0079546189
2.3242907e-08
0.0079546052
2.1163373e-08
0.0079545927
1.9244495e-08
0.0079545814
1.7473319e-08
0.0079545712
1.5843142e-08
0.0079545619
1.4338541e-08
0.0079545535
1.2959611e-08
0.0079545459
1.1684162e-08
0.0079545391
1.052511e-08
0.007954533
9.4444275e-09
0.0079545275
8.4802408e-09
0.0079545226
7.5599862e-09
0.0079545182
6.7739566e-09
0.0079545144
5.9762997e-09
0.0079545109
5.3694257e-09
0.0079545079
4.6490917e-09
0.0079545051
4.2720783e-09
3.5487023e-09
0.011467256
1.4153619e-06
0.011468719
7.124426e-06
0.011470013
1.0906957e-05
0.011470654
1.1754249e-05
0.011470782
1.0804582e-05
0.011470581
9.587088e-06
0.011470126
8.7148789e-06
0.011469461
8.1228598e-06
0.011468637
7.610985e-06
0.011467711
7.0793493e-06
0.01146673
6.5382906e-06
0.011465727
6.028371e-06
0.011464722
5.5716573e-06
0.011463727
5.1668254e-06
0.011462753
4.8027238e-06
0.011461807
4.4697016e-06
0.011460895
4.1626741e-06
0.01146002
3.879354e-06
0.011459184
3.6180708e-06
0.011458387
3.3768954e-06
0.011457629
3.153754e-06
0.01145691
2.9467546e-06
0.011456228
2.7543339e-06
0.011455584
2.5752141e-06
0.011454975
2.4083061e-06
0.011454401
2.2526378e-06
0.01145386
2.1073299e-06
0.011453349
1.9715858e-06
0.011452869
1.844691e-06
0.011452418
1.7260004e-06
0.011451993
1.6149322e-06
0.011451594
1.5109545e-06
0.011451219
1.4135826e-06
0.011450868
1.3223701e-06
0.011450538
1.2369081e-06
0.011450229
1.1568182e-06
0.011449939
1.0817529e-06
0.011449667
1.0113886e-06
0.011449412
9.454273e-07
0.011449174
8.8359003e-07
0.011448951
8.2561959e-07
0.011448742
7.7127412e-07
0.011448547
7.2033025e-07
0.011448365
6.7257716e-07
0.011448194
6.2782009e-07
0.011448035
5.8587453e-07
0.011447886
5.4656991e-07
0.011447747
5.0974417e-07
0.011447617
4.7524757e-07
0.011447496
4.4293739e-07
0.011447384
4.126818e-07
0.011447278
3.8435481e-07
0.011447181
3.5784022e-07
0.011447089
3.3302667e-07
0.011447004
3.0981158e-07
0.011446925
2.8809633e-07
0.011446852
2.6779037e-07
0.011446783
2.4880637e-07
0.01144672
2.3106428e-07
0.011446661
2.1448671e-07
0.011446606
1.9900294e-07
0.011446555
1.8454441e-07
0.011446508
1.7104861e-07
0.011446464
1.5845474e-07
0.011446423
1.4670761e-07
0.011446386
1.3575335e-07
0.011446351
1.2554321e-07
0.011446319
1.1602941e-07
0.011446289
1.0716894e-07
0.011446261
9.891947e-08
0.011446236
9.1243052e-08
0.011446213
8.4102122e-08
0.011446191
7.7463276e-08
0.011446171
7.1293199e-08
0.011446153
6.5562493e-08
0.011446136
6.024157e-08
0.01144612
5.5304678e-08
0.011446106
5.0725497e-08
0.011446093
4.6481576e-08
0.011446081
4.2549303e-08
0.01144607
3.8909471e-08
0.01144606
3.5540532e-08
0.011446051
3.2426693e-08
0.011446043
2.954735e-08
0.011446035
2.6891101e-08
0.011446028
2.4436292e-08
0.011446022
2.2178259e-08
0.011446016
2.0090094e-08
0.011446011
1.8179541e-08
0.011446006
1.6405612e-08
0.011446002
1.480094e-08
0.011445998
1.3291421e-08
0.011445994
1.1961663e-08
0.011445991
1.066418e-08
0.011445988
9.5945438e-09
0.011445986
8.4484044e-09
0.011445984
7.6530754e-09
0.011445982
6.5806606e-09
0.01144598
6.1255346e-09
5.0633272e-09
0.01364964
7.1942847e-07
0.013652878
3.8867746e-06
0.013657598
6.1875294e-06
0.013662469
6.881989e-06
0.013666821
6.4527421e-06
0.013670614
5.7931234e-06
0.013673995
5.3340466e-06
0.013677071
5.0469104e-06
0.013679878
4.8030328e-06
0.013682426
4.5315887e-06
0.013684725
4.2386476e-06
0.0136868
3.9533667e-06
0.013688679
3.6930723e-06
0.013690386
3.4588856e-06
0.013691944
3.2446848e-06
0.013693369
3.0450545e-06
0.013694674
2.8575779e-06
0.013695872
2.6816366e-06
0.013696973
2.516888e-06
0.013697987
2.3626733e-06
0.013698922
2.2181182e-06
0.013699787
2.082389e-06
0.013700586
1.9548032e-06
0.013701327
1.8348186e-06
0.013702013
1.7219655e-06
0.01370265
1.6158154e-06
0.013703241
1.5159587e-06
0.013703791
1.4220185e-06
0.013704302
1.3336393e-06
0.013704777
1.250498e-06
0.01370522
1.1722873e-06
0.013705632
1.0987261e-06
0.013706016
1.0295431e-06
0.013706374
9.6448985e-07
0.013706707
9.0332532e-07
0.013707018
8.4582955e-07
0.013707308
7.917881e-07
0.013707579
7.4100581e-07
0.013707831
6.9329135e-07
0.013708066
6.4847145e-07
0.013708285
6.0637523e-07
0.01370849
5.6684871e-07
0.01370868
5.2973916e-07
0.013708858
4.9490986e-07
0.013709023
4.6222431e-07
0.013709178
4.3156103e-07
0.013709322
4.0279796e-07
0.013709455
3.7582732e-07
0.01370958
3.5053998e-07
0.013709696
3.2684027e-07
0.013709804
3.0463059e-07
0.013709905
2.8382619e-07
0.013709998
2.6433981e-07
0.013710085
2.4609636e-07
0.013710166
2.290178e-07
0.013710241
2.1303775e-07
0.013710311
1.9808648e-07
0.013710376
1.8410529e-07
0.013710436
1.7103184e-07
0.013710491
1.5881438e-07
0.013710543
1.4739724e-07
0.013710591
1.3673478e-07
0.013710635
1.2677721e-07
0.013710676
1.1748444e-07
0.013710714
1.08812e-07
0.013710749
1.0072463e-07
0.013710781
9.3182548e-08
0.013710811
8.6154898e-08
0.013710839
7.9606111e-08
0.013710864
7.3509162e-08
0.013710888
6.7832204e-08
0.013710909
6.2551723e-08
0.013710929
5.7639187e-08
0.013710947
5.3074039e-08
0.013710964
4.8830795e-08
0.013710979
4.4891597e-08
0.013710993
4.1233703e-08
0.013711006
3.7841508e-08
0.013711018
3.4694779e-08
0.013711029
3.1779852e-08
0.013711039
2.9079006e-08
0.013711048
2.6579857e-08
0.013711056
2.4267427e-08
0.013711063
2.2129745e-08
0.01371107
2.015555e-08
0.013711076
1.8331293e-08
0.013711081
1.6651773e-08
0.013711086
1.5097971e-08
0.013711091
1.367627e-08
0.013711095
1.2353583e-08
0.013711099
1.1159929e-08
0.013711102
1.0030078e-08
0.013711105
9.0432972e-09
0.013711107
8.0655786e-09
0.01371111
7.2778189e-09
0.013711112
6.4049075e-09
0.013711114
5.8293072e-09
0.013711115
4.9996091e-09
0.013711117
4.6809733e-09
3.8807591e-09
0.014708744
3.3546297e-11
0.014712631
1.029722e-10
0.014718819
4.5337497e-11
0.0147257
-1.0540039e-12
0.014732152
1.5045416e-11
0.014737945
9.0610573e-11
0.014743278
1.6702144e-10
0.014748325
2.0959379e-10
0.014753127
2.1992952e-10
0.014757659
2.2162572e-10
0.014761897
2.2410138e-10
0.01476585
2.2689594e-10
0.014769543
2.2429556e-10
0.014773001
2.1588622e-10
0.014776245
2.024144e-10
0.01477929
1.8606612e-10
0.014782148
1.6810592e-10
0.014784829
1.4878255e-10
0.014787346
1.2912652e-10
0.014789708
1.0877744e-10
0.014791926
8.9237009e-11
0.014794008
6.9688051e-11
0.014795963
5.1845479e-11
0.014797798
3.4444999e-11
0.01479952
1.925947e-11
0.014801135
5.0757172e-12
0.014802651
-7.8939972e-12
0.014804073
-1.9832731e-11
0.014805407
-2.9206651e-11
0.014806658
-3.8360576e-11
0.01480783
-4.5148501e-11
0.014808929
-5.1881396e-11
0.014809958
-5.6371687e-11
0.014810923
-6.1234202e-11
0.014811826
-6.4088903e-11
0.014812672
-6.7498547e-11
0.014813464
-6.9022988e-11
0.014814205
-7.1406443e-11
0.014814898
-7.2055636e-11
0.014815547
-7.3584473e-11
0.014816153
-7.3386133e-11
0.01481672
-7.4223862e-11
0.01481725
-7.3394852e-11
0.014817745
-7.3516445e-11
0.014818207
-7.1938647e-11
0.014818639
-7.1415845e-11
0.014819042
-6.9269053e-11
0.014819418
-6.809465e-11
0.014819768
-6.5309277e-11
0.014820095
-6.3630474e-11
0.0148204
-6.046497e-11
0.014820684
-5.8360138e-11
0.014820948
-5.4816094e-11
0.014821194
-5.2480121e-11
0.014821423
-4.8836837e-11
0.014821636
-4.6348917e-11
0.014821835
-4.2583652e-11
0.014822019
-4.0087403e-11
0.01482219
-3.6410863e-11
0.014822349
-3.3914472e-11
0.014822496
-3.0233036e-11
0.014822633
-2.7804943e-11
0.01482276
-2.4261754e-11
0.014822877
-2.1862802e-11
0.014822986
-1.8341598e-11
0.014823087
-1.6022278e-11
0.01482318
-1.2666266e-11
0.014823266
-1.0402969e-11
0.014823346
-7.1433052e-12
0.014823419
-5.0290406e-12
0.014823487
-2.0814107e-12
0.01482355
-9.0306718e-14
0.014823607
2.7351884e-12
0.01482366
4.3335133e-12
0.014823709
6.7829154e-12
0.014823754
8.0199963e-12
0.014823795
1.0141332e-11
0.014823833
1.0945961e-11
0.014823868
1.259046e-11
0.0148239
1.2987702e-11
0.014823929
1.4267989e-11
0.014823955
1.4226868e-11
0.01482398
1.5049662e-11
0.014824002
1.4644784e-11
0.014824022
1.5169985e-11
0.01482404
1.440124e-11
0.014824057
1.4568842e-11
0.014824072
1.3518798e-11
0.014824085
1.3494532e-11
0.014824098
1.2141017e-11
0.014824109
1.1761977e-11
0.014824119
9.8920946e-12
0.014824128
9.1074942e-12
0.014824136
6.8731328e-12
0.014824143
6.0998616e-12
0.01482415
4.6743226e-12
0.014824156
3.7170042e-12
0.014824161
2.9012731e-12
0.014824165
-1.6061258e-13
-3.2739192e-12
0.014708742
-7.1949593e-07
0.01471263
-3.887143e-06
0.014718818
-6.187884e-06
0.0147257
-6.8821484e-06
0.014732152
-6.4527035e-06
0.014737944
-5.7929799e-06
0.014743278
-5.3338275e-06
0.014748325
-5.0466311e-06
0.014753127
-4.8027095e-06
0.014757658
-4.5312311e-06
0.014761897
-4.2382681e-06
0.01476585
-3.9529759e-06
0.014769543
-3.692683e-06
0.014773001
-3.4585076e-06
0.014776245
-3.2443267e-06
0.01477929
-3.0447222e-06
0.014782148
-2.8572762e-06
0.014784829
-2.6813687e-06
0.014787346
-2.5166555e-06
0.014789708
-2.3624772e-06
0.014791926
-2.2179579e-06
0.014794009
-2.0822639e-06
0.014795963
-1.954711e-06
0.014797798
-1.8347577e-06
0.01479952
-1.7219328e-06
0.014801136
-1.615809e-06
0.014802652
-1.5159758e-06
0.014804074
-1.422057e-06
0.014805407
-1.3336955e-06
0.014806658
-1.2505703e-06
0.01480783
-1.1723724e-06
0.014808929
-1.0988228e-06
0.014809958
-1.0296485e-06
0.014810923
-9.6460335e-07
0.014811826
-9.0344438e-07
0.014812672
-8.4595401e-07
0.014813464
-7.9191579e-07
0.014814205
-7.4113703e-07
0.014814898
-6.934241e-07
0.014815547
-6.4860613e-07
0.014816153
-6.0651002e-07
0.01481672
-5.6698419e-07
0.01481725
-5.2987351e-07
0.014817745
-4.9504359e-07
0.014818207
-4.6235567e-07
0.014818639
-4.3169064e-07
0.014819042
-4.0292405e-07
0.014819418
-3.7595047e-07
0.014819768
-3.5065855e-07
0.014820095
-3.2695504e-07
0.0148204
-3.0473999e-07
0.014820684
-2.8393101e-07
0.014820948
-2.6443869e-07
0.014821194
-2.461903e-07
0.014821423
-2.2910553e-07
0.014821636
-2.1312027e-07
0.014821834
-1.9816269e-07
0.014822019
-1.8417634e-07
0.01482219
-1.7109665e-07
0.014822349
-1.5887406e-07
0.014822496
-1.4745079e-07
0.014822633
-1.3678338e-07
0.01482276
-1.2681985e-07
0.014822877
-1.1752219e-07
0.014822986
-1.0884393e-07
0.014823087
-1.0075188e-07
0.01482318
-9.3204175e-08
0.014823266
-8.617198e-08
0.014823346
-7.9617818e-08
0.014823419
-7.3516669e-08
0.014823487
-6.7834704e-08
0.014823549
-6.2550294e-08
0.014823607
-5.7633183e-08
0.01482366
-5.3064763e-08
0.014823709
-4.8817588e-08
0.014823754
-4.4875731e-08
0.014823795
-4.1214609e-08
0.014823833
-3.7820563e-08
0.014823868
-3.4671396e-08
0.014823899
-3.1755339e-08
0.014823928
-2.9052815e-08
0.014823955
-2.6553349e-08
0.014823979
-2.4239986e-08
0.014824001
-2.2102624e-08
0.014824022
-2.0128127e-08
0.01482404
-1.8304856e-08
0.014824057
-1.6625599e-08
0.014824072
-1.5073259e-08
0.014824085
-1.3652269e-08
0.014824098
-1.2331601e-08
0.014824109
-1.1139222e-08
0.014824119
-1.0012131e-08
0.014824128
-9.0274029e-09
0.014824136
-8.0531582e-09
0.014824143
-7.2670695e-09
0.01482415
-6.3967121e-09
0.014824155
-5.822209e-09
0.01482416
-4.9932704e-09
0.014824165
-4.6796998e-09
-3.8832999e-09
0.01364964
-1.4153471e-06
0.013652878
-7.1243297e-06
0.013657597
-1.0906901e-05
0.013662469
-1.1754278e-05
0.01366682
-1.0804615e-05
0.013670614
-9.5870839e-06
0.013673995
-8.7148078e-06
0.01367707
-8.1227315e-06
0.013679878
-7.6108047e-06
0.013682426
-7.0791325e-06
0.013684725
-6.5380433e-06
0.0136868
-6.0281059e-06
0.013688679
-5.5713821e-06
0.013690387
-5.1665511e-06
0.013691945
-4.8024582e-06
0.013693369
-4.4694519e-06
0.013694674
-4.1624455e-06
0.013695872
-3.8791496e-06
0.013696973
-3.6178937e-06
0.013697987
-3.3767451e-06
0.013698923
-3.1536325e-06
0.013699787
-2.9466591e-06
0.013700587
-2.7542656e-06
0.013701327
-2.5751686e-06
0.013702013
-2.4082844e-06
0.01370265
-2.2526349e-06
0.013703242
-2.1073467e-06
0.013703791
-1.9716171e-06
0.013704302
-1.8447378e-06
0.013704778
-1.7260573e-06
0.01370522
-1.6150007e-06
0.013705632
-1.5110293e-06
0.013706016
-1.4136661e-06
0.013706374
-1.3224569e-06
0.013706708
-1.237001e-06
0.013707019
-1.1569124e-06
0.013707309
-1.0818515e-06
0.013707579
-1.0114869e-06
0.013707831
-9.4552862e-07
0.013708066
-8.836899e-07
0.013708285
-8.2572159e-07
0.01370849
-7.7137374e-07
0.01370868
-7.20431e-07
0.013708858
-6.7267463e-07
0.013709023
-6.2791792e-07
0.013709178
-5.8596825e-07
0.013709321
-5.4666305e-07
0.013709455
-5.098324e-07
0.01370958
-4.7533457e-07
0.013709696
-4.4301886e-07
0.013709804
-4.1276135e-07
0.013709905
-3.8442834e-07
0.013709998
-3.5791154e-07
0.013710085
-3.3309176e-07
0.013710166
-3.0987416e-07
0.013710241
-2.8815261e-07
0.013710311
-2.678442e-07
0.013710375
-2.4885401e-07
0.013710435
-2.3110946e-07
0.013710491
-2.1452582e-07
0.013710542
-1.9903981e-07
0.01371059
-1.8457542e-07
0.013710635
-1.7107742e-07
0.013710675
-1.5847784e-07
0.013710713
-1.4672872e-07
0.013710748
-1.3576896e-07
0.013710781
-1.2555687e-07
0.013710811
-1.1603774e-07
0.013710838
-1.0717559e-07
0.013710864
-9.8921073e-08
0.013710887
-9.1243128e-08
0.013710909
-8.4097455e-08
0.013710928
-7.7457487e-08
0.013710947
-7.1283141e-08
0.013710963
-6.5551695e-08
0.013710979
-6.0227009e-08
0.013710993
-5.5289973e-08
0.013711006
-5.0707638e-08
0.013711017
-4.6464058e-08
0.013711028
-4.2529206e-08
0.013711038
-3.8890343e-08
0.013711047
-3.5519424e-08
0.013711055
-3.2406999e-08
0.013711063
-2.9526171e-08
0.013711069
-2.6871868e-08
0.013711075
-2.441604e-08
0.013711081
-2.2160283e-08
0.013711086
-2.0071438e-08
0.013711091
-1.8163585e-08
0.013711095
-1.6389356e-08
0.013711098
-1.4787706e-08
0.013711102
-1.327808e-08
0.013711104
-1.195186e-08
0.013711107
-1.0654483e-08
0.013711109
-9.588323e-09
0.013711111
-8.4422701e-09
0.013711113
-7.6480011e-09
0.013711115
-6.5746884e-09
0.013711116
-6.1186296e-09
-5.0578524e-09
0.011467256
-1.9579984e-06
0.011468719
-8.585995e-06
0.011470013
-1.2200765e-05
0.011470654
-1.2395214e-05
0.011470782
-1.0933393e-05
0.011470581
-9.3863724e-06
0.011470126
-8.2601911e-06
0.011469461
-7.4580854e-06
0.011468637
-6.7870118e-06
0.011467711
-6.1537025e-06
0.011466731
-5.5580554e-06
0.011465728
-5.0253924e-06
0.011464722
-4.5659618e-06
0.011463727
-4.1718822e-06
0.011462753
-3.8286323e-06
0.011461808
-3.5240713e-06
0.011460896
-3.2507503e-06
0.011460021
-3.0043332e-06
0.011459184
-2.7816321e-06
0.011458387
-2.5797061e-06
0.011457629
-2.3958139e-06
0.01145691
-2.2275961e-06
0.011456229
-2.0731442e-06
0.011455585
-1.930926e-06
0.011454976
-1.7996752e-06
0.011454402
-1.6783056e-06
0.01145386
-1.565871e-06
0.01145335
-1.4615428e-06
0.01145287
-1.3645981e-06
0.011452418
-1.2744019e-06
0.011451994
-1.1903961e-06
0.011451595
-1.1120828e-06
0.01145122
-1.0390183e-06
0.011450868
-9.7080225e-07
0.011450538
-9.0707569e-07
0.011450229
-8.4751183e-07
0.011449939
-7.9181548e-07
0.011449667
-7.3971578e-07
0.011449413
-6.9096705e-07
0.011449174
-6.4534204e-07
0.011448951
-6.0263346e-07
0.011448742
-5.6264835e-07
0.011448547
-5.2521049e-07
0.011448365
-4.901548e-07
0.011448194
-4.5732986e-07
0.011448035
-4.2659311e-07
0.011447886
-3.9781395e-07
0.011447747
-3.7086874e-07
0.011447617
-3.4564381e-07
0.011447496
-3.2203114e-07
0.011447383
-2.9993175e-07
0.011447278
-2.7925114e-07
0.01144718
-2.5990242e-07
0.011447089
-2.4180237e-07
0.011447004
-2.2487493e-07
0.011446925
-2.090469e-07
0.011446851
-1.9425117e-07
0.011446783
-1.8042299e-07
0.011446719
-1.6750347e-07
0.01144666
-1.5543552e-07
0.011446605
-1.4416705e-07
0.011446554
-1.3364743e-07
0.011446507
-1.2383094e-07
0.011446463
-1.1467291e-07
0.011446423
-1.0613285e-07
0.011446385
-9.8171079e-08
0.01144635
-9.0752115e-08
0.011446318
-8.3840934e-08
0.011446288
-7.7406093e-08
0.011446261
-7.1416438e-08
0.011446235
-6.5844467e-08
0.011446212
-6.0662688e-08
0.01144619
-5.5846713e-08
0.01144617
-5.137205e-08
0.011446152
-4.7217444e-08
0.011446135
-4.3361265e-08
0.01144612
-3.9784698e-08
0.011446106
-3.646838e-08
0.011446092
-3.3396094e-08
0.01144608
-3.0550622e-08
0.01144607
-2.7917849e-08
0.011446059
-2.5482019e-08
0.01144605
-2.3231579e-08
0.011446042
-2.1151823e-08
0.011446034
-1.9233847e-08
0.011446027
-1.7462617e-08
0.011446021
-1.583348e-08
0.011446015
-1.4329095e-08
0.01144601
-1.295149e-08
0.011446005
-1.1676346e-08
0.011446001
-1.0518659e-08
0.011445997
-9.4382303e-09
0.011445994
-8.4753211e-09
0.011445991
-7.5549836e-09
0.011445988
-6.7705992e-09
0.011445985
-5.9736777e-09
0.011445983
-5.3664155e-09
0.011445981
-4.6447821e-09
0.011445979
-4.2618334e-09
-3.5376175e-09
0.0080400722
-1.8250231e-06
0.0080377134
-6.2259582e-06
0.008033297
-7.7839506e-06
0.0080280352
-7.1335901e-06
0.0080228347
-5.7333684e-06
0.0080179674
-4.5196864e-06
0.0080134133
-3.7066485e-06
0.0080091291
-3.1743239e-06
0.0080051176
-2.7759433e-06
0.008001401
-2.4375414e-06
0.0079979862
-2.1436137e-06
0.0079948575
-1.8969932e-06
0.0079919874
-1.6961597e-06
0.0079893478
-1.5325316e-06
0.0079869146
-1.3956864e-06
0.0079846679
-1.277594e-06
0.0079825905
-1.173501e-06
0.0079806668
-1.0808325e-06
0.007978883
-9.979198e-07
0.0079772265
-9.2336402e-07
0.0079756865
-8.5591031e-07
0.0079742533
-7.9451634e-07
0.0079729185
-7.383646e-07
0.0079716743
-6.8683107e-07
0.007970514
-6.3940924e-07
0.0079694313
-5.9567791e-07
0.0079684206
-5.5526435e-07
0.0079674769
-5.1785068e-07
0.0079665954
-4.8315293e-07
0.0079657719
-4.5093172e-07
0.0079650024
-4.2096915e-07
0.0079642834
-3.9308071e-07
0.0079636115
-3.6709376e-07
0.0079629835
-3.4286258e-07
0.0079623967
-3.2024768e-07
0.0079618483
-2.9913219e-07
0.0079613358
-2.7940157e-07
0.0079608571
-2.6096102e-07
0.0079604098
-2.4371517e-07
0.007959992
-2.2758588e-07
0.0079596019
-2.1249249e-07
0.0079592376
-1.9837017e-07
0.0079588975
-1.8515003e-07
0.0079585802
-1.7277757e-07
0.007958284
-1.611932e-07
0.0079580078
-1.5035098e-07
0.0079577502
-1.4019906e-07
0.00795751
-1.3069828e-07
0.0079572862
-1.2180303e-07
0.0079570776
-1.1347998e-07
0.0079568834
-1.0568892e-07
0.0079567025
-9.8401178e-08
0.0079565342
-9.1580962e-08
0.0079563776
-8.5203793e-08
0.007956232
-7.9237814e-08
0.0079560966
-7.36619e-08
0.0079559708
-6.8447468e-08
0.007955854
-6.3576525e-08
0.0079557455
-5.9023475e-08
0.0079556449
-5.4772822e-08
0.0079555515
-5.0801462e-08
0.007955465
-4.7096307e-08
0.0079553848
-4.3636575e-08
0.0079553105
-4.0411062e-08
0.0079552418
-3.740091e-08
0.0079551782
-3.4596793e-08
0.0079551195
-3.1981671e-08
0.0079550652
-2.9547647e-08
0.007955015
-2.7279166e-08
0.0079549688
-2.5169803e-08
0.0079549262
-2.3205434e-08
0.0079548869
-2.1380714e-08
0.0079548507
-1.9682666e-08
0.0079548175
-1.810711e-08
0.0079547869
-1.6642206e-08
0.0079547588
-1.5284577e-08
0.0079547331
-1.4023287e-08
0.0079547095
-1.2855873e-08
0.0079546879
-1.1772341e-08
0.0079546681
-1.0770792e-08
0.00795465
-9.8420144e-09
0.0079546335
-8.9847425e-09
0.0079546185
-8.1906957e-09
0.0079546048
-7.4587955e-09
0.0079545924
-6.7817296e-09
0.0079545811
-6.1584493e-09
0.0079545708
-5.5831135e-09
0.0079545615
-5.0537876e-09
0.0079545532
-4.5668432e-09
0.0079545456
-4.1183274e-09
0.0079545388
-3.7084424e-09
0.0079545327
-3.3287247e-09
0.0079545272
-2.9859613e-09
0.0079545223
-2.6641915e-09
0.0079545179
-2.3815075e-09
0.0079545141
-2.106777e-09
0.0079545106
-1.876372e-09
0.0079545076
-1.6427437e-09
0.0079545048
-1.4544566e-09
-1.319702e-09
0.0032045337
0.0031983081
0.0031905242
0.0031833904
0.0031776567
0.0031731367
0.0031694298
0.0031662553
0.0031634791
0.0031610413
0.0031588975
0.0031570004
0.0031553041
0.0031537714
0.0031523756
0.0031510979
0.0031499243
0.0031488434
0.0031478454
0.003146922
0.0031460661
0.0031452715
0.0031445331
0.0031438462
0.0031432068
0.0031426111
0.0031420558
0.0031415379
0.0031410547
0.0031406038
0.0031401828
0.0031397897
0.0031394226
0.0031390797
0.0031387595
0.0031384603
0.0031381809
0.00313792
0.0031376762
0.0031374486
0.0031372361
0.0031370378
0.0031368526
0.0031366799
0.0031365187
0.0031363683
0.0031362281
0.0031360974
0.0031359756
0.0031358621
0.0031357565
0.0031356581
0.0031355665
0.0031354813
0.003135402
0.0031353284
0.0031352599
0.0031351964
0.0031351373
0.0031350826
0.0031350318
0.0031349847
0.0031349411
0.0031349006
0.0031348633
0.0031348287
0.0031347967
0.0031347671
0.0031347399
0.0031347147
0.0031346915
0.0031346701
0.0031346504
0.0031346323
0.0031346157
0.0031346004
0.0031345864
0.0031345735
0.0031345618
0.003134551
0.0031345412
0.0031345322
0.003134524
0.0031345165
0.0031345098
0.0031345036
0.003134498
0.003134493
0.0031344884
0.0031344843
0.0031344806
0.0031344773
0.0031344743
0.0031344716
0.0031344692
0.0031344671
0.0031344653
0.0031344636
0.0031344622
)
;

boundaryField
{
    top
    {
        type            calculated;
        value           uniform 0;
    }
    inlet
    {
        type            calculated;
        value           nonuniform List<scalar> 10(-0.0032063567 -0.0080402038 -0.011466712 -0.013648943 -0.014708023 -0.014708022 -0.013648943 -0.011466712 -0.0080402042 -0.003206358);
    }
    outlet
    {
        type            calculated;
        value           nonuniform List<scalar> 10(0.0031344609 0.0079545028 0.011445978 0.013711118 0.014824169 0.014824169 0.013711117 0.011445978 0.0079545026 0.0031344608);
    }
    bottom
    {
        type            calculated;
        value           uniform 0;
    }
    back
    {
        type            empty;
        value           nonuniform 0();
    }
    front
    {
        type            empty;
        value           nonuniform 0();
    }
}


// ************************************************************************* //
