/*--------------------------------*- C++ -*----------------------------------*\
| =========                 |                                                 |
| \\      /  F ield         | OpenFOAM: The Open Source CFD Toolbox           |
|  \\    /   O peration     | Version:  v1812                                 |
|   \\  /    A nd           | Web:      www.OpenFOAM.com                      |
|    \\/     M anipulation  |                                                 |
\*---------------------------------------------------------------------------*/
FoamFile
{
    version     2.0;
    format      ascii;
    class       volVectorField;
    location    "18.15";
    object      U;
}
// * * * * * * * * * * * * * * * * * * * * * * * * * * * * * * * * * * * * * //

dimensions      [0 1 -1 0 0 0 0];


internalField   nonuniform List<vector> 
1000
(
(0.91890839 0.035821912 0)
(0.86271384 0.062195638 0)
(0.7870597 0.062510089 0)
(0.69536033 0.054550394 0)
(0.61089745 0.04453165 0)
(0.54411592 0.034015971 0)
(0.49343012 0.02418754 0)
(0.45479414 0.01614423 0)
(0.42544583 0.010265786 0)
(0.40347313 0.0063041453 0)
(0.38715767 0.0037976293 0)
(0.3749622 0.0023103382 0)
(0.36566193 0.001493015 0)
(0.35836272 0.0010851183 0)
(0.35244268 0.00090607198 0)
(0.34748201 0.00084105104 0)
(0.34320348 0.00082372347 0)
(0.33942726 0.00081930988 0)
(0.33603793 0.00081185196 0)
(0.33296114 0.00079580152 0)
(0.33014778 0.0007708122 0)
(0.32756384 0.00073871018 0)
(0.3251842 0.00070188973 0)
(0.32298902 0.00066256561 0)
(0.32096172 0.00062249903 0)
(0.31908785 0.00058295641 0)
(0.31735449 0.00054477061 0)
(0.31574996 0.00050843327 0)
(0.3142636 0.00047419133 0)
(0.31288575 0.0004421247 0)
(0.31160756 0.0004122101 0)
(0.31042101 0.00038436246 0)
(0.30931883 0.00035846571 0)
(0.30829438 0.00033439068 0)
(0.30734165 0.00031200642 0)
(0.30645515 0.00029118673 0)
(0.30562991 0.00027181291 0)
(0.30486136 0.00025377545 0)
(0.30414535 0.0002369736 0)
(0.30347807 0.00022131473 0)
(0.30285601 0.000206715 0)
(0.30227596 0.00019309681 0)
(0.30173497 0.00018039005 0)
(0.30123029 0.00016852998 0)
(0.30075942 0.00015745735 0)
(0.30032002 0.00014711829 0)
(0.29990993 0.00013746236 0)
(0.29952715 0.00012844408 0)
(0.29916983 0.00012002052 0)
(0.29883624 0.00011215137 0)
(0.29852478 0.00010480011 0)
(0.29823397 9.7931172e-05 0)
(0.29796241 9.151244e-05 0)
(0.29770882 8.5513712e-05 0)
(0.29747201 7.9906514e-05 0)
(0.29725084 7.4665999e-05 0)
(0.29704429 6.9767604e-05 0)
(0.29685137 6.5190831e-05 0)
(0.2966712 6.0914755e-05 0)
(0.29650291 5.6919791e-05 0)
(0.29634572 5.3187697e-05 0)
(0.2961989 4.9700037e-05 0)
(0.29606176 4.6440405e-05 0)
(0.29593366 4.3392877e-05 0)
(0.295814 4.0542933e-05 0)
(0.29570223 3.7878448e-05 0)
(0.29559783 3.5387609e-05 0)
(0.29550031 3.3060319e-05 0)
(0.29540922 3.0887969e-05 0)
(0.29532413 2.8859693e-05 0)
(0.29524465 2.6966788e-05 0)
(0.2951704 2.519874e-05 0)
(0.29510104 2.3545409e-05 0)
(0.29503625 2.1998311e-05 0)
(0.29497572 2.0549874e-05 0)
(0.29491918 1.9194119e-05 0)
(0.29486637 1.7927505e-05 0)
(0.29481705 1.6744381e-05 0)
(0.29477097 1.5643064e-05 0)
(0.29472793 1.4616421e-05 0)
(0.29468772 1.3660587e-05 0)
(0.29465016 1.2766823e-05 0)
(0.29461507 1.1930703e-05 0)
(0.29458229 1.1144673e-05 0)
(0.29455167 1.0407791e-05 0)
(0.29452308 9.713257e-06 0)
(0.29449635 9.0725511e-06 0)
(0.29447142 8.4703402e-06 0)
(0.2944481 7.9183024e-06 0)
(0.29442633 7.3969495e-06 0)
(0.29440598 6.9261012e-06 0)
(0.294387 6.4726542e-06 0)
(0.2943692 6.0617976e-06 0)
(0.29435259 5.6503978e-06 0)
(0.29433714 5.289109e-06 0)
(0.29432249 4.9685586e-06 0)
(0.29430919 4.6878371e-06 0)
(0.29429569 4.5389048e-06 0)
(0.29428502 4.4056187e-06 0)
(0.29426874 5.0574939e-06 0)
(1.0016583 0.05381943 0)
(1.0359761 0.10128443 0)
(1.0597199 0.11073663 0)
(1.0628947 0.10592201 0)
(1.0515569 0.096228725 0)
(1.0340529 0.083934059 0)
(1.0142795 0.070327062 0)
(0.99360703 0.056981334 0)
(0.97292577 0.045107479 0)
(0.9531074 0.03523675 0)
(0.93479539 0.02740165 0)
(0.91829012 0.021387227 0)
(0.90362379 0.016884499 0)
(0.89068068 0.013569709 0)
(0.87928175 0.011147748 0)
(0.86923242 0.0093736578 0)
(0.86034424 0.0080569271 0)
(0.85244667 0.0070571265 0)
(0.84539242 0.0062752379 0)
(0.83905793 0.0056438286 0)
(0.83334127 0.0051180914 0)
(0.82815884 0.0046686728 0)
(0.82344213 0.0042764175 0)
(0.81913467 0.0039287383 0)
(0.81518962 0.0036172024 0)
(0.81156765 0.0033359687 0)
(0.80823544 0.0030808023 0)
(0.8051644 0.0028484673 0)
(0.80232979 0.0026363682 0)
(0.79971 0.002442338 0)
(0.79728598 0.0022645189 0)
(0.79504087 0.0021012905 0)
(0.79295964 0.0019512261 0)
(0.79102881 0.0018130637 0)
(0.78923628 0.0016856836 0)
(0.78757111 0.0015680917 0)
(0.78602339 0.0014594042 0)
(0.78458412 0.0013588338 0)
(0.78324512 0.0012656787 0)
(0.78199889 0.0011793106 0)
(0.78083861 0.0010991671 0)
(0.77975799 0.0010247422 0)
(0.77875128 0.00095558026 0)
(0.77781318 0.00089126987 0)
(0.77693882 0.00083143807 0)
(0.77612368 0.00077574678 0)
(0.77536363 0.00072388788 0)
(0.77465481 0.00067558044 0)
(0.77399368 0.00063056712 0)
(0.77337694 0.00058861108 0)
(0.77280154 0.00054949491 0)
(0.77226464 0.00051301753 0)
(0.77176363 0.00047899318 0)
(0.77129607 0.00044725074 0)
(0.77085967 0.00041763127 0)
(0.77045234 0.00038998938 0)
(0.77007212 0.00036418995 0)
(0.76971717 0.00034010949 0)
(0.76938581 0.00031763256 0)
(0.76907644 0.00029665113 0)
(0.7687876 0.00027706446 0)
(0.76851791 0.00025877775 0)
(0.7682661 0.00024170227 0)
(0.76803096 0.00022575569 0)
(0.76781139 0.00021086129 0)
(0.76760635 0.00019694916 0)
(0.76741488 0.00018395491 0)
(0.76723608 0.00017181921 0)
(0.7670691 0.00016048789 0)
(0.76691315 0.00014990811 0)
(0.76676752 0.00014003069 0)
(0.7666315 0.00013080686 0)
(0.76650446 0.00012219099 0)
(0.76638582 0.00011413974 0)
(0.76627501 0.0001066154 0)
(0.76617152 9.958207e-05 0)
(0.76607485 9.3012126e-05 0)
(0.76598458 8.6874592e-05 0)
(0.76590026 8.1148623e-05 0)
(0.76582151 7.5802617e-05 0)
(0.76574794 7.0817809e-05 0)
(0.76567924 6.6157759e-05 0)
(0.76561504 6.1809012e-05 0)
(0.76555512 5.7732673e-05 0)
(0.7654991 5.3930356e-05 0)
(0.76544684 5.0355128e-05 0)
(0.76539796 4.7037969e-05 0)
(0.76535239 4.3921099e-05 0)
(0.7653097 4.1053446e-05 0)
(0.76526997 3.8323348e-05 0)
(0.76523272 3.5844785e-05 0)
(0.76519804 3.346392e-05 0)
(0.76516555 3.1332015e-05 0)
(0.76513516 2.9189483e-05 0)
(0.76510713 2.7364089e-05 0)
(0.76507997 2.5517022e-05 0)
(0.76505663 2.407114e-05 0)
(0.76503057 2.2554876e-05 0)
(0.76501446 2.1597084e-05 0)
(0.76498346 2.0993442e-05 0)
(1.0014244 0.026824854 0)
(1.0291272 0.06279135 0)
(1.0654292 0.077736549 0)
(1.098962 0.080597196 0)
(1.1253149 0.078285167 0)
(1.145053 0.073153897 0)
(1.1594858 0.066111277 0)
(1.1694287 0.058162063 0)
(1.1755354 0.050296754 0)
(1.1785738 0.043150707 0)
(1.1793571 0.036972824 0)
(1.178595 0.031771631 0)
(1.1768304 0.027451838 0)
(1.1744518 0.023886766 0)
(1.1717287 0.020947618 0)
(1.1688444 0.018515779 0)
(1.1659195 0.016488084 0)
(1.1630317 0.014779502 0)
(1.1602295 0.013322985 0)
(1.1575415 0.012067132 0)
(1.1549828 0.010973 0)
(1.1525601 0.010011061 0)
(1.1502747 0.0091587462 0)
(1.1481246 0.0083986032 0)
(1.1461059 0.0077169491 0)
(1.1442134 0.0071028865 0)
(1.1424414 0.0065475903 0)
(1.1407838 0.0060437942 0)
(1.1392344 0.0055854253 0)
(1.1377869 0.0051673442 0)
(1.1364353 0.0047851568 0)
(1.1351738 0.0044350761 0)
(1.1339968 0.0041138167 0)
(1.1328987 0.0038185127 0)
(1.1318746 0.0035466526 0)
(1.1309195 0.0032960263 0)
(1.1300289 0.0030646819 0)
(1.1291985 0.0028508892 0)
(1.1284242 0.0026531089 0)
(1.1277022 0.0024699674 0)
(1.1270291 0.0023002349 0)
(1.1264014 0.0021428069 0)
(1.1258161 0.0019966885 0)
(1.1252702 0.0018609813 0)
(1.1247612 0.0017348716 0)
(1.1242865 0.001617621 0)
(1.1238437 0.0015085573 0)
(1.1234307 0.0014070676 0)
(1.1230455 0.001312591 0)
(1.1226861 0.0012246136 0)
(1.1223509 0.001142664 0)
(1.1220381 0.001066308 0)
(1.1217462 0.00099514588 0)
(1.1214739 0.00092880936 0)
(1.1212198 0.00086695859 0)
(1.1209827 0.00080928013 0)
(1.1207614 0.00075548478 0)
(1.1205548 0.00070530505 0)
(1.1203621 0.00065849256 0)
(1.1201821 0.00061481638 0)
(1.1200142 0.00057406208 0)
(1.1198574 0.00053602966 0)
(1.1197111 0.00050053327 0)
(1.1195745 0.00046740005 0)
(1.1194469 0.00043647024 0)
(1.1193278 0.00040759547 0)
(1.1192167 0.00038063875 0)
(1.1191129 0.00035547275 0)
(1.119016 0.00033197918 0)
(1.1189255 0.00031004607 0)
(1.118841 0.00028956946 0)
(1.1187621 0.00027044912 0)
(1.1186884 0.00025259413 0)
(1.1186197 0.00023591678 0)
(1.1185554 0.00022034107 0)
(1.1184954 0.00020579135 0)
(1.1184394 0.00019220588 0)
(1.1183871 0.00017951695 0)
(1.1183382 0.00016767543 0)
(1.1182926 0.00015661387 0)
(1.11825 0.00014629405 0)
(1.1182103 0.00013664303 0)
(1.118173 0.00012764295 0)
(1.1181384 0.00011921059 0)
(1.1181059 0.00011135901 0)
(1.1180757 0.00010398419 0)
(1.1180473 9.7152592e-05 0)
(1.1180211 9.0704112e-05 0)
(1.1179963 8.4785457e-05 0)
(1.1179734 7.9128393e-05 0)
(1.1179516 7.4028329e-05 0)
(1.1179318 6.9017779e-05 0)
(1.1179128 6.4661408e-05 0)
(1.1178955 6.0140959e-05 0)
(1.117879 5.6562312e-05 0)
(1.1178635 5.2425413e-05 0)
(1.11785 4.9742662e-05 0)
(1.1178349 4.5806509e-05 0)
(1.1178261 4.431947e-05 0)
(1.1178083 4.0575103e-05 0)
(1.0007347 0.011814721 0)
(1.0178472 0.030860924 0)
(1.0462163 0.041434438 0)
(1.0799018 0.045193566 0)
(1.1132664 0.045502348 0)
(1.143782 0.044080305 0)
(1.1708941 0.04143998 0)
(1.1945687 0.037973676 0)
(1.2148582 0.034195728 0)
(1.2319652 0.030536886 0)
(1.2462683 0.027222043 0)
(1.2582339 0.024313918 0)
(1.2683135 0.021797886 0)
(1.2768875 0.019633657 0)
(1.2842554 0.017773824 0)
(1.2906479 0.01616965 0)
(1.296243 0.014775589 0)
(1.3011791 0.013552296 0)
(1.3055645 0.012467863 0)
(1.3094838 0.011497465 0)
(1.3130042 0.010622161 0)
(1.3161792 0.0098275118 0)
(1.3190526 0.0091024094 0)
(1.3216607 0.0084381751 0)
(1.3240343 0.0078279023 0)
(1.3261995 0.007265973 0)
(1.3281786 0.0067477076 0)
(1.3299913 0.006269116 0)
(1.3316544 0.005826727 0)
(1.3331829 0.005417473 0)
(1.3345896 0.0050386118 0)
(1.3358862 0.0046876728 0)
(1.3370827 0.0043624181 0)
(1.3381883 0.004060813 0)
(1.3392108 0.0037810028 0)
(1.3401576 0.0035212939 0)
(1.3410349 0.0032801378 0)
(1.3418486 0.0030561173 0)
(1.3426038 0.0028479339 0)
(1.3433051 0.0026543972 0)
(1.3439569 0.0024744154 0)
(1.3445629 0.0023069852 0)
(1.3451267 0.0021511848 0)
(1.3456513 0.0020061657 0)
(1.3461398 0.0018711468 0)
(1.3465947 0.0017454087 0)
(1.3470185 0.001628287 0)
(1.3474135 0.001519169 0)
(1.3477816 0.0014174879 0)
(1.3481249 0.00132272 0)
(1.3484449 0.0012343806 0)
(1.3487435 0.0011520205 0)
(1.349022 0.0010752239 0)
(1.3492818 0.0010036054 0)
(1.3495242 0.00093680778 0)
(1.3497505 0.00087450043 0)
(1.3499616 0.000816376 0)
(1.3501587 0.000762149 0)
(1.3503427 0.0007115535 0)
(1.3505145 0.00066434201 0)
(1.3506748 0.00062028453 0)
(1.3508245 0.00057916676 0)
(1.3509643 0.00054078979 0)
(1.3510948 0.00050496823 0)
(1.3512167 0.00047153052 0)
(1.3513305 0.00044031697 0)
(1.3514368 0.00041117939 0)
(1.3515361 0.00038397871 0)
(1.3516288 0.00035858618 0)
(1.3517153 0.00033487971 0)
(1.3517962 0.00031274645 0)
(1.3518717 0.00029207863 0)
(1.3519422 0.00027277956 0)
(1.3520081 0.00025475534 0)
(1.3520696 0.00023792567 0)
(1.3521271 0.00022220786 0)
(1.3521807 0.00020753553 0)
(1.3522309 0.00019383129 0)
(1.3522777 0.00018104223 0)
(1.3523214 0.0001690915 0)
(1.3523623 0.00015794153 0)
(1.3524005 0.00014750921 0)
(1.352436 0.0001377865 0)
(1.3524694 0.00012867329 0)
(1.3525004 0.00012020315 0)
(1.3525297 0.00011223951 0)
(1.3525564 0.0001048823 0)
(1.3525822 9.7900465e-05 0)
(1.3526054 9.153258e-05 0)
(1.3526281 8.5397897e-05 0)
(1.3526479 7.9930658e-05 0)
(1.3526684 7.4428961e-05 0)
(1.352685 6.980455e-05 0)
(1.3527036 6.4827653e-05 0)
(1.3527169 6.1121203e-05 0)
(1.3527349 5.644381e-05 0)
(1.3527447 5.3740662e-05 0)
(1.3527628 4.9138971e-05 0)
(1.3527683 4.770185e-05 0)
(1.3527888 4.2957094e-05 0)
(1.0005903 0.0034629152 0)
(1.0136865 0.009366018 0)
(1.0370283 0.013046804 0)
(1.0674202 0.014563259 0)
(1.1000315 0.014854523 0)
(1.1316428 0.014564989 0)
(1.1610745 0.013888337 0)
(1.1880674 0.012919244 0)
(1.2125205 0.011806505 0)
(1.2343939 0.010696425 0)
(1.2538077 0.0096727404 0)
(1.2710339 0.0087628201 0)
(1.286401 0.0079659716 0)
(1.3002111 0.0072722128 0)
(1.3127102 0.0066688071 0)
(1.3240903 0.006141924 0)
(1.3345036 0.005678071 0)
(1.3440716 0.0052653199 0)
(1.3528927 0.0048939343 0)
(1.3610463 0.004556395 0)
(1.3685975 0.0042470686 0)
(1.3756004 0.0039617743 0)
(1.3821012 0.003697396 0)
(1.3881402 0.003451581 0)
(1.3937533 0.0032225172 0)
(1.3989728 0.0030087686 0)
(1.403828 0.0028091568 0)
(1.4083456 0.0026226782 0)
(1.4125503 0.002448449 0)
(1.4164646 0.0022856702 0)
(1.4201094 0.0021336069 0)
(1.423504 0.0019915751 0)
(1.426666 0.0018589347 0)
(1.4296121 0.0017350839 0)
(1.4323573 0.0016194568 0)
(1.4349159 0.0015115203 0)
(1.4373007 0.0014107727 0)
(1.4395241 0.0013167424 0)
(1.441597 0.0012289868 0)
(1.4435301 0.001147091 0)
(1.4453328 0.0010706662 0)
(1.4470143 0.00099934882 0)
(1.4485827 0.00093279876 0)
(1.4500459 0.00087069782 0)
(1.451411 0.00081274866 0)
(1.4526846 0.00075867353 0)
(1.4538731 0.00070821292 0)
(1.4549822 0.00066112429 0)
(1.4560172 0.00061718137 0)
(1.4569831 0.00057617307 0)
(1.4578847 0.00053790203 0)
(1.4587262 0.00050218443 0)
(1.4595117 0.00046884861 0)
(1.460245 0.00043773498 0)
(1.4609295 0.00040869512 0)
(1.4615685 0.00038159079 0)
(1.4621651 0.00035629264 0)
(1.4627221 0.00033267935 0)
(1.4632422 0.00031063785 0)
(1.4637278 0.00029006236 0)
(1.4641811 0.00027085396 0)
(1.4646045 0.00025292128 0)
(1.4649998 0.00023617914 0)
(1.4653689 0.00022054825 0)
(1.4657136 0.00020595489 0)
(1.4660355 0.00019233063 0)
(1.4663361 0.00017961155 0)
(1.4666168 0.00016773686 0)
(1.466879 0.00015665019 0)
(1.4671238 0.00014629822 0)
(1.4673524 0.00013663143 0)
(1.467566 0.00012760298 0)
(1.4677653 0.00011917141 0)
(1.4679516 0.00011129646 0)
(1.4681256 0.00010394379 0)
(1.468288 9.7077849e-05 0)
(1.4684397 9.0670396e-05 0)
(1.4685815 8.4685701e-05 0)
(1.4687138 7.9100208e-05 0)
(1.4688374 7.3878545e-05 0)
(1.4689529 6.9006153e-05 0)
(1.4690609 6.4444377e-05 0)
(1.4691614 6.0194089e-05 0)
(1.4692556 5.6208962e-05 0)
(1.4693433 5.2513765e-05 0)
(1.4694258 4.9035977e-05 0)
(1.4695018 4.5825447e-05 0)
(1.469574 4.2769909e-05 0)
(1.4696403 4.000269e-05 0)
(1.4697039 3.7311786e-05 0)
(1.4697605 3.4920026e-05 0)
(1.4698171 3.2491802e-05 0)
(1.4698654 3.0500638e-05 0)
(1.4699168 2.8306172e-05 0)
(1.4699559 2.6719838e-05 0)
(1.4700044 2.4641542e-05 0)
(1.4700341 2.3495099e-05 0)
(1.4700832 2.141884e-05 0)
(1.4701 2.0807083e-05 0)
(1.4701556 1.8648681e-05 0)
(1.0005903 -0.0034629162 0)
(1.0136865 -0.0093660206 0)
(1.0370283 -0.013046807 0)
(1.0674202 -0.014563262 0)
(1.1000315 -0.014854525 0)
(1.1316428 -0.014564991 0)
(1.1610745 -0.013888338 0)
(1.1880674 -0.012919246 0)
(1.2125205 -0.011806507 0)
(1.2343939 -0.010696428 0)
(1.2538077 -0.0096727436 0)
(1.2710339 -0.0087628234 0)
(1.286401 -0.0079659747 0)
(1.3002111 -0.0072722153 0)
(1.3127102 -0.0066688091 0)
(1.3240903 -0.006141926 0)
(1.3345036 -0.0056780731 0)
(1.3440716 -0.0052653219 0)
(1.3528927 -0.0048939357 0)
(1.3610463 -0.0045563963 0)
(1.3685975 -0.0042470704 0)
(1.3756004 -0.0039617768 0)
(1.3821012 -0.0036973987 0)
(1.3881402 -0.0034515836 0)
(1.3937533 -0.0032225196 0)
(1.3989728 -0.003008771 0)
(1.403828 -0.0028091591 0)
(1.4083456 -0.00262268 0)
(1.4125503 -0.0024484499 0)
(1.4164646 -0.0022856705 0)
(1.4201094 -0.0021336073 0)
(1.423504 -0.0019915765 0)
(1.426666 -0.0018589373 0)
(1.4296121 -0.0017350875 0)
(1.4323573 -0.0016194604 0)
(1.4349158 -0.0015115229 0)
(1.4373007 -0.0014107738 0)
(1.439524 -0.0013167421 0)
(1.441597 -0.0012289858 0)
(1.4435301 -0.0011470901 0)
(1.4453328 -0.0010706663 0)
(1.4470143 -0.00099935046 0)
(1.4485827 -0.0009328017 0)
(1.4500459 -0.00087070164 0)
(1.451411 -0.00081275271 0)
(1.4526846 -0.00075867701 0)
(1.4538731 -0.00070821507 0)
(1.4549821 -0.00066112476 0)
(1.4560171 -0.00061718001 0)
(1.4569831 -0.00057616995 0)
(1.4578847 -0.00053789804 0)
(1.4587262 -0.00050218077 0)
(1.4595117 -0.00046884667 0)
(1.460245 -0.00043773556 0)
(1.4609295 -0.00040869774 0)
(1.4615685 -0.00038159389 0)
(1.4621651 -0.00035629442 0)
(1.4627221 -0.00033267892 0)
(1.4632422 -0.00031063474 0)
(1.4637278 -0.00029005708 0)
(1.4641811 -0.00027084833 0)
(1.4646045 -0.00025291699 0)
(1.4649998 -0.00023617725 0)
(1.4653689 -0.00022054903 0)
(1.4657136 -0.00020595804 0)
(1.4660355 -0.00019233451 0)
(1.4663361 -0.00017961385 0)
(1.4666168 -0.00016773637 0)
(1.466879 -0.00015664671 0)
(1.4671238 -0.00014629236 0)
(1.4673524 -0.00013662521 0)
(1.467566 -0.0001275987 0)
(1.4677653 -0.00011917072 0)
(1.4679516 -0.00011129958 0)
(1.4681256 -0.0001039497 0)
(1.468288 -9.7083488e-05 0)
(1.4684397 -9.0671781e-05 0)
(1.4685815 -8.4681815e-05 0)
(1.4687138 -7.9092886e-05 0)
(1.4688374 -7.3870322e-05 0)
(1.4689529 -6.9000263e-05 0)
(1.4690609 -6.4444722e-05 0)
(1.4691614 -6.0201602e-05 0)
(1.4692556 -5.6219193e-05 0)
(1.4693433 -5.2517597e-05 0)
(1.4694258 -4.9034187e-05 0)
(1.4695018 -4.5823778e-05 0)
(1.469574 -4.2762486e-05 0)
(1.4696403 -3.9981452e-05 0)
(1.469704 -3.7297647e-05 0)
(1.4697605 -3.493682e-05 0)
(1.4698171 -3.25176e-05 0)
(1.4698654 -3.0507384e-05 0)
(1.4699167 -2.8302387e-05 0)
(1.4699559 -2.6712289e-05 0)
(1.4700044 -2.4624209e-05 0)
(1.4700341 -2.3485634e-05 0)
(1.4700832 -2.1429706e-05 0)
(1.4701 -2.0826361e-05 0)
(1.4701556 -1.8663804e-05 0)
(1.0007347 -0.011814722 0)
(1.0178472 -0.030860927 0)
(1.0462163 -0.041434442 0)
(1.0799018 -0.04519357 0)
(1.1132664 -0.045502351 0)
(1.143782 -0.044080308 0)
(1.1708941 -0.041439982 0)
(1.1945687 -0.037973678 0)
(1.2148582 -0.03419573 0)
(1.2319652 -0.030536888 0)
(1.2462683 -0.027222046 0)
(1.2582339 -0.024313921 0)
(1.2683135 -0.021797889 0)
(1.2768875 -0.01963366 0)
(1.2842554 -0.017773826 0)
(1.2906479 -0.016169652 0)
(1.296243 -0.01477559 0)
(1.3011791 -0.013552298 0)
(1.3055645 -0.012467864 0)
(1.3094838 -0.011497466 0)
(1.3130042 -0.010622162 0)
(1.3161792 -0.0098275136 0)
(1.3190526 -0.0091024114 0)
(1.3216607 -0.0084381771 0)
(1.3240343 -0.0078279043 0)
(1.3261995 -0.0072659751 0)
(1.3281786 -0.0067477094 0)
(1.3299913 -0.0062691172 0)
(1.3316544 -0.0058267275 0)
(1.3331829 -0.0054174733 0)
(1.3345896 -0.0050386124 0)
(1.3358862 -0.0046876741 0)
(1.3370827 -0.0043624203 0)
(1.3381882 -0.0040608156 0)
(1.3392108 -0.0037810052 0)
(1.3401576 -0.0035212956 0)
(1.3410349 -0.0032801387 0)
(1.3418486 -0.0030561174 0)
(1.3426038 -0.0028479337 0)
(1.3433051 -0.0026543973 0)
(1.3439569 -0.0024744159 0)
(1.3445629 -0.0023069865 0)
(1.3451267 -0.0021511867 0)
(1.3456513 -0.002006168 0)
(1.3461398 -0.0018711494 0)
(1.3465947 -0.0017454108 0)
(1.3470185 -0.0016282884 0)
(1.3474135 -0.0015191691 0)
(1.3477816 -0.0014174867 0)
(1.3481249 -0.0013227178 0)
(1.3484449 -0.0012343778 0)
(1.3487435 -0.0011520181 0)
(1.349022 -0.0010752225 0)
(1.3492818 -0.0010036055 0)
(1.3495242 -0.00093680908 0)
(1.3497505 -0.00087450208 0)
(1.3499616 -0.00081637724 0)
(1.3501587 -0.00076214889 0)
(1.3503427 -0.00071155166 0)
(1.3505145 -0.00066433874 0)
(1.3506748 -0.00062028059 0)
(1.3508245 -0.00057916326 0)
(1.3509643 -0.00054078765 0)
(1.3510948 -0.00050496818 0)
(1.3512167 -0.00047153241 0)
(1.3513305 -0.00044031973 0)
(1.3514368 -0.00041118168 0)
(1.3515361 -0.00038397946 0)
(1.3516288 -0.00035858487 0)
(1.3517153 -0.00033487649 0)
(1.3517962 -0.00031274235 0)
(1.3518717 -0.00029207521 0)
(1.3519422 -0.00027277808 0)
(1.3520081 -0.00025475658 0)
(1.3520696 -0.00023792879 0)
(1.3521271 -0.0002222112 0)
(1.3521807 -0.0002075373 0)
(1.3522309 -0.00019383077 0)
(1.3522777 -0.00018103983 0)
(1.3523214 -0.00016908754 0)
(1.3523623 -0.00015793794 0)
(1.3524005 -0.00014750862 0)
(1.352436 -0.0001377889 0)
(1.3524694 -0.00012867589 0)
(1.3525004 -0.00012020569 0)
(1.3525297 -0.00011224219 0)
(1.3525564 -0.00010488214 0)
(1.3525822 -9.789392e-05 0)
(1.3526055 -9.1526903e-05 0)
(1.3526282 -8.5398508e-05 0)
(1.3526479 -7.9932802e-05 0)
(1.3526683 -7.4428691e-05 0)
(1.352685 -6.9804101e-05 0)
(1.3527037 -6.4831693e-05 0)
(1.352717 -6.112267e-05 0)
(1.3527348 -5.6440157e-05 0)
(1.3527447 -5.3742614e-05 0)
(1.3527628 -4.914526e-05 0)
(1.3527683 -4.7707402e-05 0)
(1.3527888 -4.2960923e-05 0)
(1.0014244 -0.026824855 0)
(1.0291272 -0.062791352 0)
(1.0654292 -0.077736552 0)
(1.098962 -0.0805972 0)
(1.1253149 -0.07828517 0)
(1.145053 -0.073153899 0)
(1.1594858 -0.066111278 0)
(1.1694287 -0.058162063 0)
(1.1755354 -0.050296754 0)
(1.1785738 -0.043150708 0)
(1.1793571 -0.036972825 0)
(1.1785949 -0.031771633 0)
(1.1768304 -0.02745184 0)
(1.1744518 -0.023886768 0)
(1.1717287 -0.02094762 0)
(1.1688444 -0.01851578 0)
(1.1659195 -0.016488084 0)
(1.1630317 -0.014779502 0)
(1.1602295 -0.013322985 0)
(1.1575415 -0.012067132 0)
(1.1549828 -0.010973001 0)
(1.1525601 -0.010011062 0)
(1.1502747 -0.0091587472 0)
(1.1481246 -0.0083986045 0)
(1.1461059 -0.0077169507 0)
(1.1442134 -0.0071028881 0)
(1.1424414 -0.0065475916 0)
(1.1407838 -0.0060437949 0)
(1.1392344 -0.0055854257 0)
(1.1377869 -0.0051673446 0)
(1.1364353 -0.0047851573 0)
(1.1351738 -0.0044350769 0)
(1.1339968 -0.0041138176 0)
(1.1328987 -0.0038185136 0)
(1.1318746 -0.0035466534 0)
(1.1309195 -0.0032960272 0)
(1.1300289 -0.003064683 0)
(1.1291985 -0.0028508903 0)
(1.1284242 -0.0026531099 0)
(1.1277022 -0.0024699683 0)
(1.1270291 -0.0023002355 0)
(1.1264014 -0.0021428071 0)
(1.1258161 -0.0019966887 0)
(1.1252702 -0.0018609816 0)
(1.1247612 -0.0017348722 0)
(1.1242865 -0.0016176218 0)
(1.1238437 -0.0015085581 0)
(1.1234307 -0.0014070678 0)
(1.1230455 -0.0013125907 0)
(1.1226861 -0.0012246131 0)
(1.1223509 -0.0011426631 0)
(1.1220381 -0.0010663068 0)
(1.1217462 -0.00099514466 0)
(1.1214739 -0.00092880823 0)
(1.1212198 -0.00086695783 0)
(1.1209827 -0.00080928018 0)
(1.1207614 -0.00075548576 0)
(1.1205548 -0.00070530616 0)
(1.1203621 -0.00065849307 0)
(1.1201821 -0.00061481609 0)
(1.1200142 -0.00057406068 0)
(1.1198574 -0.0005360273 0)
(1.1197111 -0.00050053074 0)
(1.1195745 -0.00046739841 0)
(1.1194469 -0.0004364698 0)
(1.1193278 -0.00040759623 0)
(1.1192167 -0.00038064063 0)
(1.1191129 -0.00035547492 0)
(1.119016 -0.00033198079 0)
(1.1189255 -0.0003100467 0)
(1.118841 -0.00028956847 0)
(1.1187621 -0.00027044676 0)
(1.1186884 -0.00025259124 0)
(1.1186197 -0.00023591437 0)
(1.1185554 -0.00022033996 0)
(1.1184954 -0.00020579207 0)
(1.1184394 -0.00019220887 0)
(1.1183871 -0.00017952127 0)
(1.1183383 -0.00016767934 0)
(1.1182926 -0.00015661541 0)
(1.11825 -0.0001462925 0)
(1.1182103 -0.00013663927 0)
(1.118173 -0.00012763779 0)
(1.1181384 -0.00011920565 0)
(1.1181059 -0.00011135913 0)
(1.1180757 -0.00010398925 0)
(1.1180473 -9.7156184e-05 0)
(1.1180211 -9.0705068e-05 0)
(1.1179963 -8.4792148e-05 0)
(1.1179734 -7.9138426e-05 0)
(1.1179516 -7.4019962e-05 0)
(1.1179318 -6.8989572e-05 0)
(1.1179128 -6.4647694e-05 0)
(1.1178955 -6.0158136e-05 0)
(1.117879 -5.6583751e-05 0)
(1.1178635 -5.2430701e-05 0)
(1.11785 -4.9738097e-05 0)
(1.1178349 -4.5801664e-05 0)
(1.1178261 -4.4314228e-05 0)
(1.1178083 -4.0569957e-05 0)
(1.0016583 -0.05381943 0)
(1.0359761 -0.10128444 0)
(1.0597199 -0.11073663 0)
(1.0628947 -0.10592202 0)
(1.0515569 -0.096228728 0)
(1.0340529 -0.083934061 0)
(1.0142795 -0.070327063 0)
(0.99360703 -0.056981334 0)
(0.97292577 -0.045107479 0)
(0.9531074 -0.03523675 0)
(0.93479538 -0.02740165 0)
(0.91829012 -0.021387228 0)
(0.90362379 -0.0168845 0)
(0.89068067 -0.01356971 0)
(0.87928174 -0.011147749 0)
(0.86923242 -0.0093736586 0)
(0.86034423 -0.0080569274 0)
(0.85244667 -0.0070571267 0)
(0.84539241 -0.006275238 0)
(0.83905793 -0.0056438286 0)
(0.83334126 -0.0051180914 0)
(0.82815884 -0.0046686728 0)
(0.82344212 -0.0042764176 0)
(0.81913467 -0.0039287387 0)
(0.81518961 -0.0036172031 0)
(0.81156765 -0.0033359698 0)
(0.80823544 -0.0030808032 0)
(0.8051644 -0.0028484682 0)
(0.80232979 -0.0026363689 0)
(0.79970999 -0.0024423385 0)
(0.79728597 -0.0022645191 0)
(0.79504086 -0.0021012904 0)
(0.79295963 -0.0019512259 0)
(0.7910288 -0.0018130634 0)
(0.78923627 -0.0016856836 0)
(0.7875711 -0.0015680924 0)
(0.78602338 -0.0014594054 0)
(0.78458411 -0.0013588354 0)
(0.78324511 -0.0012656801 0)
(0.78199889 -0.0011793117 0)
(0.7808386 -0.0010991673 0)
(0.77975798 -0.0010247416 0)
(0.77875127 -0.00095557916 0)
(0.77781317 -0.0008912686 0)
(0.77693881 -0.0008314372 0)
(0.77612368 -0.00077574653 0)
(0.77536362 -0.00072388834 0)
(0.77465481 -0.00067558139 0)
(0.77399367 -0.0006305683 0)
(0.77337693 -0.00058861237 0)
(0.77280153 -0.00054949563 0)
(0.77226464 -0.00051301717 0)
(0.77176363 -0.00047899174 0)
(0.77129606 -0.00044724819 0)
(0.77085967 -0.00041762877 0)
(0.77045234 -0.0003899879 0)
(0.77007212 -0.00036419056 0)
(0.76971717 -0.00034011167 0)
(0.76938581 -0.00031763542 0)
(0.76907645 -0.00029665379 0)
(0.7687876 -0.0002770657 0)
(0.76851791 -0.00025877687 0)
(0.76826609 -0.00024169965 0)
(0.76803096 -0.00022575199 0)
(0.76781139 -0.00021085789 0)
(0.76760635 -0.00019694725 0)
(0.76741489 -0.00018395553 0)
(0.76723608 -0.0001718226 0)
(0.7670691 -0.00016049281 0)
(0.76691316 -0.00014991302 0)
(0.76676752 -0.00014003339 0)
(0.7666315 -0.00013080583 0)
(0.76650446 -0.00012218664 0)
(0.76638582 -0.00011413343 0)
(0.76627501 -0.00010660981 0)
(0.76617152 -9.9579988e-05 0)
(0.76607486 -9.3014861e-05 0)
(0.76598459 -8.6881989e-05 0)
(0.76590026 -8.1157606e-05 0)
(0.76582151 -7.5809246e-05 0)
(0.76574794 -7.0819012e-05 0)
(0.76567924 -6.6152735e-05 0)
(0.76561504 -6.1799762e-05 0)
(0.76555512 -5.7722287e-05 0)
(0.76549911 -5.3925587e-05 0)
(0.76544685 -5.0358177e-05 0)
(0.76539796 -4.7044007e-05 0)
(0.7653524 -4.3930106e-05 0)
(0.76530971 -4.1069341e-05 0)
(0.76526996 -3.8332704e-05 0)
(0.7652327 -3.5828478e-05 0)
(0.76519805 -3.3433164e-05 0)
(0.76516559 -3.1318566e-05 0)
(0.76513517 -2.9204097e-05 0)
(0.7651071 -2.7385783e-05 0)
(0.76507997 -2.5524502e-05 0)
(0.76505664 -2.4063972e-05 0)
(0.76503057 -2.2545156e-05 0)
(0.76501445 -2.1587694e-05 0)
(0.76498346 -2.0984905e-05 0)
(0.91890839 -0.035821913 0)
(0.86271384 -0.062195638 0)
(0.7870597 -0.06251009 0)
(0.69536033 -0.054550395 0)
(0.61089745 -0.044531651 0)
(0.54411592 -0.034015972 0)
(0.49343012 -0.02418754 0)
(0.45479413 -0.01614423 0)
(0.42544582 -0.010265785 0)
(0.40347313 -0.006304145 0)
(0.38715766 -0.0037976294 0)
(0.3749622 -0.0023103384 0)
(0.36566192 -0.0014930154 0)
(0.35836272 -0.0010851186 0)
(0.35244268 -0.0009060723 0)
(0.34748201 -0.00084105135 0)
(0.34320348 -0.00082372362 0)
(0.33942726 -0.00081931006 0)
(0.33603793 -0.00081185199 0)
(0.33296114 -0.00079580154 0)
(0.33014778 -0.00077081194 0)
(0.32756384 -0.00073870994 0)
(0.3251842 -0.00070188955 0)
(0.32298902 -0.00066256563 0)
(0.32096172 -0.00062249931 0)
(0.31908785 -0.00058295704 0)
(0.31735449 -0.00054477116 0)
(0.31574995 -0.00050843392 0)
(0.3142636 -0.00047419168 0)
(0.31288574 -0.00044212494 0)
(0.31160755 -0.0004122099 0)
(0.31042101 -0.00038436204 0)
(0.30931883 -0.00035846517 0)
(0.30829438 -0.00033439021 0)
(0.30734165 -0.00031200633 0)
(0.30645515 -0.00029118713 0)
(0.30562991 -0.00027181379 0)
(0.30486136 -0.00025377647 0)
(0.30414535 -0.00023697438 0)
(0.30347807 -0.00022131523 0)
(0.302856 -0.00020671479 0)
(0.30227596 -0.00019309617 0)
(0.30173496 -0.00018038901 0)
(0.30123029 -0.00016852889 0)
(0.30075942 -0.0001574567 0)
(0.30032002 -0.0001471181 0)
(0.29990993 -0.00013746298 0)
(0.29952715 -0.00012844516 0)
(0.29916983 -0.00012002174 0)
(0.29883624 -0.00011215262 0)
(0.29852478 -0.00010480049 0)
(0.29823397 -9.7930701e-05 0)
(0.29796241 -9.1511039e-05 0)
(0.29770882 -8.5511614e-05 0)
(0.29747201 -7.9904854e-05 0)
(0.29725084 -7.4665174e-05 0)
(0.29704429 -6.9768584e-05 0)
(0.29685138 -6.5192828e-05 0)
(0.2966712 -6.0917188e-05 0)
(0.29650291 -5.6921951e-05 0)
(0.29634572 -5.3188439e-05 0)
(0.2961989 -4.9699247e-05 0)
(0.29606176 -4.6438119e-05 0)
(0.29593366 -4.3389771e-05 0)
(0.29581401 -4.0540323e-05 0)
(0.29570224 -3.7877188e-05 0)
(0.29559784 -3.5388641e-05 0)
(0.29550032 -3.3063707e-05 0)
(0.29540922 -3.089206e-05 0)
(0.29532413 -2.8863461e-05 0)
(0.29524464 -2.6968228e-05 0)
(0.29517039 -2.5197016e-05 0)
(0.29510103 -2.354137e-05 0)
(0.29503624 -2.199322e-05 0)
(0.29497573 -2.0546089e-05 0)
(0.29491919 -1.9193531e-05 0)
(0.29486638 -1.7930372e-05 0)
(0.29481705 -1.6750436e-05 0)
(0.29477097 -1.5649373e-05 0)
(0.29472793 -1.4620427e-05 0)
(0.29468771 -1.3660385e-05 0)
(0.29465016 -1.2762067e-05 0)
(0.29461507 -1.1923775e-05 0)
(0.2945823 -1.1137525e-05 0)
(0.29455168 -1.0405474e-05 0)
(0.29452309 -9.7161767e-06 0)
(0.29449637 -9.0770729e-06 0)
(0.29447142 -8.478999e-06 0)
(0.29444808 -7.9300681e-06 0)
(0.29442632 -7.3960959e-06 0)
(0.29440599 -6.9097589e-06 0)
(0.294387 -6.4602755e-06 0)
(0.2943692 -6.0628349e-06 0)
(0.29435259 -5.6565982e-06 0)
(0.29433715 -5.2937329e-06 0)
(0.2943225 -4.9716301e-06 0)
(0.29430919 -4.6856445e-06 0)
(0.29429569 -4.532262e-06 0)
(0.29428502 -4.4001316e-06 0)
(0.29426875 -5.0536031e-06 0)
)
;

boundaryField
{
    top
    {
        type            fixedValue;
        value           uniform (0 0 0);
    }
    inlet
    {
        type            fixedValue;
        value           uniform (1 0 0);
    }
    outlet
    {
        type            zeroGradient;
    }
    bottom
    {
        type            fixedValue;
        value           uniform (0 0 0);
    }
    back
    {
        type            empty;
    }
    front
    {
        type            empty;
    }
}


// ************************************************************************* //
