# Region type : patch inlet
# Faces         : 10
# Area          : 1.00000000e-01
# Scale factor  : 1.00000000e+00
# Weight field  : p
# Time          	weightedAverage(phi)	weightedAverage(U)	weightedAverage(p)
0.05            	-1.00000000e-02	(1.00000000e+00 0.00000000e+00 0.00000000e+00)	2.39980511e+02
0.1             	-1.00000000e-02	(1.00000000e+00 -0.00000000e+00 -0.00000000e+00)	-3.98680036e+01
0.15            	-1.00000000e-02	(1.00000000e+00 0.00000000e+00 0.00000000e+00)	1.11880724e+01
0.2             	-1.00000000e-02	(1.00000000e+00 0.00000000e+00 0.00000000e+00)	1.73946026e+00
0.25            	-1.00000000e-02	(1.00000000e+00 0.00000000e+00 0.00000000e+00)	3.21267741e+00
0.3             	-1.00000000e-02	(1.00000000e+00 0.00000000e+00 0.00000000e+00)	2.75971866e+00
0.35            	-1.00000000e-02	(1.00000000e+00 0.00000000e+00 0.00000000e+00)	2.68268166e+00
0.4             	-1.00000000e-02	(1.00000000e+00 0.00000000e+00 0.00000000e+00)	2.55928459e+00
0.45            	-1.00000000e-02	(1.00000000e+00 0.00000000e+00 0.00000000e+00)	2.46205808e+00
0.5             	-1.00000000e-02	(1.00000000e+00 0.00000000e+00 0.00000000e+00)	2.37515746e+00
0.55            	-1.00000000e-02	(1.00000000e+00 0.00000000e+00 0.00000000e+00)	2.29905181e+00
0.6             	-1.00000000e-02	(1.00000000e+00 0.00000000e+00 0.00000000e+00)	2.23174624e+00
0.65            	-1.00000000e-02	(1.00000000e+00 0.00000000e+00 0.00000000e+00)	2.17203070e+00
0.7             	-1.00000000e-02	(1.00000000e+00 0.00000000e+00 0.00000000e+00)	2.11882749e+00
0.75            	-1.00000000e-02	(1.00000000e+00 0.00000000e+00 0.00000000e+00)	2.07125273e+00
0.8             	-1.00000000e-02	(1.00000000e+00 0.00000000e+00 0.00000000e+00)	2.02856434e+00
0.85            	-1.00000000e-02	(1.00000000e+00 0.00000000e+00 0.00000000e+00)	1.99014015e+00
0.9             	-1.00000000e-02	(1.00000000e+00 0.00000000e+00 0.00000000e+00)	1.95545041e+00
0.95            	-1.00000000e-02	(1.00000000e+00 0.00000000e+00 0.00000000e+00)	1.92404530e+00
1               	-1.00000000e-02	(1.00000000e+00 0.00000000e+00 0.00000000e+00)	1.89556194e+00
1.05            	-1.00000000e-02	(1.00000000e+00 0.00000000e+00 0.00000000e+00)	1.86960081e+00
1.1             	-1.00000000e-02	(1.00000000e+00 0.00000000e+00 0.00000000e+00)	1.84595776e+00
1.15            	-1.00000000e-02	(1.00000000e+00 0.00000000e+00 0.00000000e+00)	1.82434952e+00
1.2             	-1.00000000e-02	(1.00000000e+00 0.00000000e+00 0.00000000e+00)	1.80456791e+00
1.25            	-1.00000000e-02	(1.00000000e+00 0.00000000e+00 0.00000000e+00)	1.78642373e+00
1.3             	-1.00000000e-02	(1.00000000e+00 0.00000000e+00 0.00000000e+00)	1.76975222e+00
1.35            	-1.00000000e-02	(1.00000000e+00 0.00000000e+00 0.00000000e+00)	1.75440777e+00
1.4             	-1.00000000e-02	(1.00000000e+00 0.00000000e+00 0.00000000e+00)	1.74026167e+00
1.45            	-1.00000000e-02	(1.00000000e+00 0.00000000e+00 0.00000000e+00)	1.72719990e+00
1.5             	-1.00000000e-02	(1.00000000e+00 0.00000000e+00 0.00000000e+00)	1.71512121e+00
1.55            	-1.00000000e-02	(1.00000000e+00 0.00000000e+00 0.00000000e+00)	1.70393525e+00
1.6             	-1.00000000e-02	(1.00000000e+00 0.00000000e+00 0.00000000e+00)	1.69356181e+00
1.65            	-1.00000000e-02	(1.00000000e+00 0.00000000e+00 0.00000000e+00)	1.68393656e+00
1.7             	-1.00000000e-02	(1.00000000e+00 0.00000000e+00 0.00000000e+00)	1.67497027e+00
1.75            	-1.00000000e-02	(1.00000000e+00 0.00000000e+00 0.00000000e+00)	1.66663414e+00
1.8             	-1.00000000e-02	(1.00000000e+00 0.00000000e+00 0.00000000e+00)	1.65886219e+00
1.85            	-1.00000000e-02	(1.00000000e+00 0.00000000e+00 0.00000000e+00)	1.65161083e+00
1.9             	-1.00000000e-02	(1.00000000e+00 0.00000000e+00 0.00000000e+00)	1.64483756e+00
1.95            	-1.00000000e-02	(1.00000000e+00 0.00000000e+00 0.00000000e+00)	1.63850447e+00
2               	-1.00000000e-02	(1.00000000e+00 0.00000000e+00 0.00000000e+00)	1.63257738e+00
2.05            	-1.00000000e-02	(1.00000000e+00 0.00000000e+00 0.00000000e+00)	1.62702522e+00
2.1             	-1.00000000e-02	(1.00000000e+00 0.00000000e+00 0.00000000e+00)	1.62181986e+00
2.15            	-1.00000000e-02	(1.00000000e+00 0.00000000e+00 0.00000000e+00)	1.61693568e+00
2.2             	-1.00000000e-02	(1.00000000e+00 0.00000000e+00 0.00000000e+00)	1.61234938e+00
2.25            	-1.00000000e-02	(1.00000000e+00 0.00000000e+00 0.00000000e+00)	1.60803973e+00
2.3             	-1.00000000e-02	(1.00000000e+00 0.00000000e+00 0.00000000e+00)	1.60398728e+00
2.35            	-1.00000000e-02	(1.00000000e+00 0.00000000e+00 0.00000000e+00)	1.60017427e+00
2.4             	-1.00000000e-02	(1.00000000e+00 0.00000000e+00 0.00000000e+00)	1.59658441e+00
2.45            	-1.00000000e-02	(1.00000000e+00 0.00000000e+00 0.00000000e+00)	1.59320275e+00
2.5             	-1.00000000e-02	(1.00000000e+00 0.00000000e+00 0.00000000e+00)	1.59001551e+00
2.55            	-1.00000000e-02	(1.00000000e+00 0.00000000e+00 0.00000000e+00)	1.58701006e+00
2.6             	-1.00000000e-02	(1.00000000e+00 0.00000000e+00 0.00000000e+00)	1.58417470e+00
2.65            	-1.00000000e-02	(1.00000000e+00 0.00000000e+00 0.00000000e+00)	1.58149866e+00
2.7             	-1.00000000e-02	(1.00000000e+00 0.00000000e+00 0.00000000e+00)	1.57897195e+00
2.75            	-1.00000000e-02	(1.00000000e+00 0.00000000e+00 0.00000000e+00)	1.57658535e+00
2.8             	-1.00000000e-02	(1.00000000e+00 0.00000000e+00 0.00000000e+00)	1.57434239e+00
2.85            	-1.00000000e-02	(1.00000000e+00 0.00000000e+00 0.00000000e+00)	1.57219625e+00
2.9             	-1.00000000e-02	(1.00000000e+00 0.00000000e+00 0.00000000e+00)	1.57018356e+00
2.95            	-1.00000000e-02	(1.00000000e+00 0.00000000e+00 0.00000000e+00)	1.56827728e+00
3               	-1.00000000e-02	(1.00000000e+00 0.00000000e+00 0.00000000e+00)	1.56647443e+00
3.05            	-1.00000000e-02	(1.00000000e+00 0.00000000e+00 0.00000000e+00)	1.56476847e+00
3.1             	-1.00000000e-02	(1.00000000e+00 0.00000000e+00 0.00000000e+00)	1.56315395e+00
3.15            	-1.00000000e-02	(1.00000000e+00 0.00000000e+00 0.00000000e+00)	1.56162563e+00
3.2             	-1.00000000e-02	(1.00000000e+00 0.00000000e+00 0.00000000e+00)	1.56017867e+00
3.25            	-1.00000000e-02	(1.00000000e+00 0.00000000e+00 0.00000000e+00)	1.55880851e+00
3.3             	-1.00000000e-02	(1.00000000e+00 0.00000000e+00 0.00000000e+00)	1.55751089e+00
3.35            	-1.00000000e-02	(1.00000000e+00 0.00000000e+00 0.00000000e+00)	1.55628182e+00
3.4             	-1.00000000e-02	(1.00000000e+00 0.00000000e+00 0.00000000e+00)	1.55511754e+00
3.45            	-1.00000000e-02	(1.00000000e+00 0.00000000e+00 0.00000000e+00)	1.55401454e+00
3.5             	-1.00000000e-02	(1.00000000e+00 0.00000000e+00 0.00000000e+00)	1.55296950e+00
3.55            	-1.00000000e-02	(1.00000000e+00 0.00000000e+00 0.00000000e+00)	1.55197931e+00
3.6             	-1.00000000e-02	(1.00000000e+00 0.00000000e+00 0.00000000e+00)	1.55104106e+00
3.65            	-1.00000000e-02	(1.00000000e+00 0.00000000e+00 0.00000000e+00)	1.55015198e+00
3.7             	-1.00000000e-02	(1.00000000e+00 0.00000000e+00 0.00000000e+00)	1.54930947e+00
3.75            	-1.00000000e-02	(1.00000000e+00 0.00000000e+00 0.00000000e+00)	1.54851110e+00
3.8             	-1.00000000e-02	(1.00000000e+00 0.00000000e+00 0.00000000e+00)	1.54775455e+00
3.85            	-1.00000000e-02	(1.00000000e+00 0.00000000e+00 0.00000000e+00)	1.54703763e+00
3.9             	-1.00000000e-02	(1.00000000e+00 0.00000000e+00 0.00000000e+00)	1.54635831e+00
3.95            	-1.00000000e-02	(1.00000000e+00 0.00000000e+00 0.00000000e+00)	1.54571462e+00
4               	-1.00000000e-02	(1.00000000e+00 0.00000000e+00 0.00000000e+00)	1.54510473e+00
4.05            	-1.00000000e-02	(1.00000000e+00 0.00000000e+00 0.00000000e+00)	1.54452692e+00
4.1             	-1.00000000e-02	(1.00000000e+00 0.00000000e+00 0.00000000e+00)	1.54397952e+00
4.15            	-1.00000000e-02	(1.00000000e+00 0.00000000e+00 0.00000000e+00)	1.54346100e+00
4.2             	-1.00000000e-02	(1.00000000e+00 0.00000000e+00 0.00000000e+00)	1.54296987e+00
4.25            	-1.00000000e-02	(1.00000000e+00 0.00000000e+00 0.00000000e+00)	1.54250475e+00
4.3             	-1.00000000e-02	(1.00000000e+00 0.00000000e+00 0.00000000e+00)	1.54206430e+00
4.35            	-1.00000000e-02	(1.00000000e+00 0.00000000e+00 0.00000000e+00)	1.54164729e+00
4.4             	-1.00000000e-02	(1.00000000e+00 0.00000000e+00 0.00000000e+00)	1.54125252e+00
4.45            	-1.00000000e-02	(1.00000000e+00 0.00000000e+00 0.00000000e+00)	1.54087887e+00
4.5             	-1.00000000e-02	(1.00000000e+00 0.00000000e+00 0.00000000e+00)	1.54052527e+00
4.55            	-1.00000000e-02	(1.00000000e+00 0.00000000e+00 0.00000000e+00)	1.54019071e+00
4.6             	-1.00000000e-02	(1.00000000e+00 0.00000000e+00 0.00000000e+00)	1.53987423e+00
4.65            	-1.00000000e-02	(1.00000000e+00 0.00000000e+00 0.00000000e+00)	1.53957491e+00
4.7             	-1.00000000e-02	(1.00000000e+00 0.00000000e+00 0.00000000e+00)	1.53929190e+00
4.75            	-1.00000000e-02	(1.00000000e+00 0.00000000e+00 0.00000000e+00)	1.53902436e+00
4.8             	-1.00000000e-02	(1.00000000e+00 0.00000000e+00 0.00000000e+00)	1.53877152e+00
4.85            	-1.00000000e-02	(1.00000000e+00 0.00000000e+00 0.00000000e+00)	1.53853264e+00
4.9             	-1.00000000e-02	(1.00000000e+00 0.00000000e+00 0.00000000e+00)	1.53830701e+00
4.95            	-1.00000000e-02	(1.00000000e+00 0.00000000e+00 0.00000000e+00)	1.53809396e+00
5               	-1.00000000e-02	(1.00000000e+00 0.00000000e+00 0.00000000e+00)	1.53789285e+00
5.05            	-1.00000000e-02	(1.00000000e+00 0.00000000e+00 0.00000000e+00)	1.53770309e+00
5.1             	-1.00000000e-02	(1.00000000e+00 0.00000000e+00 0.00000000e+00)	1.53752409e+00
5.15            	-1.00000000e-02	(1.00000000e+00 0.00000000e+00 0.00000000e+00)	1.53735531e+00
5.2             	-1.00000000e-02	(1.00000000e+00 0.00000000e+00 0.00000000e+00)	1.53719623e+00
5.25            	-1.00000000e-02	(1.00000000e+00 0.00000000e+00 0.00000000e+00)	1.53704636e+00
5.3             	-1.00000000e-02	(1.00000000e+00 0.00000000e+00 0.00000000e+00)	1.53690821e+00
5.35            	-1.00000000e-02	(1.00000000e+00 0.00000000e+00 0.00000000e+00)	1.53677150e+00
5.4             	-1.00000000e-02	(1.00000000e+00 0.00000000e+00 0.00000000e+00)	1.53664794e+00
5.45            	-1.00000000e-02	(1.00000000e+00 0.00000000e+00 0.00000000e+00)	1.53652971e+00
5.5             	-1.00000000e-02	(1.00000000e+00 0.00000000e+00 0.00000000e+00)	1.53641957e+00
5.55            	-1.00000000e-02	(1.00000000e+00 0.00000000e+00 0.00000000e+00)	1.53631568e+00
5.6             	-1.00000000e-02	(1.00000000e+00 0.00000000e+00 0.00000000e+00)	1.53621837e+00
5.65            	-1.00000000e-02	(1.00000000e+00 0.00000000e+00 0.00000000e+00)	1.53612699e+00
5.7             	-1.00000000e-02	(1.00000000e+00 0.00000000e+00 0.00000000e+00)	1.53604137e+00
5.75            	-1.00000000e-02	(1.00000000e+00 0.00000000e+00 0.00000000e+00)	1.53596117e+00
5.8             	-1.00000000e-02	(1.00000000e+00 0.00000000e+00 0.00000000e+00)	1.53588608e+00
5.85            	-1.00000000e-02	(1.00000000e+00 0.00000000e+00 0.00000000e+00)	1.53581590e+00
5.9             	-1.00000000e-02	(1.00000000e+00 0.00000000e+00 0.00000000e+00)	1.53575028e+00
5.95            	-1.00000000e-02	(1.00000000e+00 0.00000000e+00 0.00000000e+00)	1.53568906e+00
6               	-1.00000000e-02	(1.00000000e+00 0.00000000e+00 0.00000000e+00)	1.53563195e+00
6.05            	-1.00000000e-02	(1.00000000e+00 0.00000000e+00 0.00000000e+00)	1.53557875e+00
6.1             	-1.00000000e-02	(1.00000000e+00 0.00000000e+00 0.00000000e+00)	1.53552926e+00
6.15            	-1.00000000e-02	(1.00000000e+00 0.00000000e+00 0.00000000e+00)	1.53548325e+00
6.2             	-1.00000000e-02	(1.00000000e+00 0.00000000e+00 0.00000000e+00)	1.53544057e+00
6.25            	-1.00000000e-02	(1.00000000e+00 0.00000000e+00 0.00000000e+00)	1.53540099e+00
6.3             	-1.00000000e-02	(1.00000000e+00 0.00000000e+00 0.00000000e+00)	1.53536439e+00
6.35            	-1.00000000e-02	(1.00000000e+00 0.00000000e+00 0.00000000e+00)	1.53533058e+00
6.4             	-1.00000000e-02	(1.00000000e+00 0.00000000e+00 0.00000000e+00)	1.53529938e+00
6.45            	-1.00000000e-02	(1.00000000e+00 0.00000000e+00 0.00000000e+00)	1.53527071e+00
6.5             	-1.00000000e-02	(1.00000000e+00 0.00000000e+00 0.00000000e+00)	1.53524435e+00
6.55            	-1.00000000e-02	(1.00000000e+00 0.00000000e+00 0.00000000e+00)	1.53522023e+00
6.6             	-1.00000000e-02	(1.00000000e+00 0.00000000e+00 0.00000000e+00)	1.53519819e+00
6.65            	-1.00000000e-02	(1.00000000e+00 0.00000000e+00 0.00000000e+00)	1.53517810e+00
6.7             	-1.00000000e-02	(1.00000000e+00 0.00000000e+00 0.00000000e+00)	1.53515990e+00
6.75            	-1.00000000e-02	(1.00000000e+00 0.00000000e+00 0.00000000e+00)	1.53514340e+00
6.8             	-1.00000000e-02	(1.00000000e+00 0.00000000e+00 0.00000000e+00)	1.53512859e+00
6.85            	-1.00000000e-02	(1.00000000e+00 0.00000000e+00 0.00000000e+00)	1.53511529e+00
6.9             	-1.00000000e-02	(1.00000000e+00 0.00000000e+00 0.00000000e+00)	1.53510345e+00
6.95            	-1.00000000e-02	(1.00000000e+00 0.00000000e+00 0.00000000e+00)	1.53509299e+00
7               	-1.00000000e-02	(1.00000000e+00 0.00000000e+00 0.00000000e+00)	1.53508376e+00
7.05            	-1.00000000e-02	(1.00000000e+00 0.00000000e+00 0.00000000e+00)	1.53507579e+00
7.1             	-1.00000000e-02	(1.00000000e+00 0.00000000e+00 0.00000000e+00)	1.53506888e+00
7.15            	-1.00000000e-02	(1.00000000e+00 0.00000000e+00 0.00000000e+00)	1.53506307e+00
7.2             	-1.00000000e-02	(1.00000000e+00 0.00000000e+00 0.00000000e+00)	1.53505823e+00
7.25            	-1.00000000e-02	(1.00000000e+00 0.00000000e+00 0.00000000e+00)	1.53505427e+00
7.3             	-1.00000000e-02	(1.00000000e+00 0.00000000e+00 0.00000000e+00)	1.53505125e+00
7.35            	-1.00000000e-02	(1.00000000e+00 0.00000000e+00 0.00000000e+00)	1.53504892e+00
7.4             	-1.00000000e-02	(1.00000000e+00 0.00000000e+00 0.00000000e+00)	1.53504742e+00
7.45            	-1.00000000e-02	(1.00000000e+00 0.00000000e+00 0.00000000e+00)	1.53504656e+00
7.5             	-1.00000000e-02	(1.00000000e+00 0.00000000e+00 0.00000000e+00)	1.53504633e+00
7.55            	-1.00000000e-02	(1.00000000e+00 0.00000000e+00 0.00000000e+00)	1.53504676e+00
7.6             	-1.00000000e-02	(1.00000000e+00 0.00000000e+00 0.00000000e+00)	1.53504762e+00
7.65            	-1.00000000e-02	(1.00000000e+00 0.00000000e+00 0.00000000e+00)	1.53504911e+00
7.7             	-1.00000000e-02	(1.00000000e+00 0.00000000e+00 0.00000000e+00)	1.53505096e+00
7.75            	-1.00000000e-02	(1.00000000e+00 0.00000000e+00 0.00000000e+00)	1.53505328e+00
7.8             	-1.00000000e-02	(1.00000000e+00 0.00000000e+00 0.00000000e+00)	1.53505600e+00
7.85            	-1.00000000e-02	(1.00000000e+00 0.00000000e+00 0.00000000e+00)	1.53505899e+00
7.9             	-1.00000000e-02	(1.00000000e+00 0.00000000e+00 0.00000000e+00)	1.53506240e+00
7.95            	-1.00000000e-02	(1.00000000e+00 0.00000000e+00 0.00000000e+00)	1.53506600e+00
8               	-1.00000000e-02	(1.00000000e+00 0.00000000e+00 0.00000000e+00)	1.53506993e+00
8.05            	-1.00000000e-02	(1.00000000e+00 0.00000000e+00 0.00000000e+00)	1.53507406e+00
8.1             	-1.00000000e-02	(1.00000000e+00 0.00000000e+00 0.00000000e+00)	1.53507835e+00
8.15            	-1.00000000e-02	(1.00000000e+00 0.00000000e+00 0.00000000e+00)	1.53508287e+00
8.2             	-1.00000000e-02	(1.00000000e+00 0.00000000e+00 0.00000000e+00)	1.53508748e+00
8.25            	-1.00000000e-02	(1.00000000e+00 0.00000000e+00 0.00000000e+00)	1.53509227e+00
8.3             	-1.00000000e-02	(1.00000000e+00 0.00000000e+00 0.00000000e+00)	1.53509713e+00
8.35            	-1.00000000e-02	(1.00000000e+00 0.00000000e+00 0.00000000e+00)	1.53510207e+00
8.4             	-1.00000000e-02	(1.00000000e+00 0.00000000e+00 0.00000000e+00)	1.53510708e+00
8.45            	-1.00000000e-02	(1.00000000e+00 0.00000000e+00 0.00000000e+00)	1.53511212e+00
8.5             	-1.00000000e-02	(1.00000000e+00 0.00000000e+00 0.00000000e+00)	1.53511720e+00
8.55            	-1.00000000e-02	(1.00000000e+00 0.00000000e+00 0.00000000e+00)	1.53512228e+00
8.6             	-1.00000000e-02	(1.00000000e+00 0.00000000e+00 0.00000000e+00)	1.53512736e+00
8.65            	-1.00000000e-02	(1.00000000e+00 0.00000000e+00 0.00000000e+00)	1.53513241e+00
8.7             	-1.00000000e-02	(1.00000000e+00 0.00000000e+00 0.00000000e+00)	1.53513742e+00
8.75            	-1.00000000e-02	(1.00000000e+00 0.00000000e+00 0.00000000e+00)	1.53513742e+00
8.8             	-1.00000000e-02	(1.00000000e+00 0.00000000e+00 0.00000000e+00)	1.53515249e+00
8.85            	-1.00000000e-02	(1.00000000e+00 0.00000000e+00 0.00000000e+00)	1.53515257e+00
8.9             	-1.00000000e-02	(1.00000000e+00 0.00000000e+00 0.00000000e+00)	1.53515257e+00
8.95            	-1.00000000e-02	(1.00000000e+00 0.00000000e+00 0.00000000e+00)	1.53516513e+00
9               	-1.00000000e-02	(1.00000000e+00 0.00000000e+00 0.00000000e+00)	1.53516624e+00
9.05            	-1.00000000e-02	(1.00000000e+00 0.00000000e+00 0.00000000e+00)	1.53516624e+00
9.1             	-1.00000000e-02	(1.00000000e+00 0.00000000e+00 0.00000000e+00)	1.53517970e+00
9.15            	-1.00000000e-02	(1.00000000e+00 0.00000000e+00 0.00000000e+00)	1.53517975e+00
9.2             	-1.00000000e-02	(1.00000000e+00 0.00000000e+00 0.00000000e+00)	1.53517975e+00
9.25            	-1.00000000e-02	(1.00000000e+00 0.00000000e+00 0.00000000e+00)	1.53519038e+00
9.3             	-1.00000000e-02	(1.00000000e+00 0.00000000e+00 0.00000000e+00)	1.53519038e+00
9.35            	-1.00000000e-02	(1.00000000e+00 0.00000000e+00 0.00000000e+00)	1.53519486e+00
9.4             	-1.00000000e-02	(1.00000000e+00 0.00000000e+00 0.00000000e+00)	1.53519881e+00
9.45            	-1.00000000e-02	(1.00000000e+00 0.00000000e+00 0.00000000e+00)	1.53519881e+00
9.5             	-1.00000000e-02	(1.00000000e+00 0.00000000e+00 0.00000000e+00)	1.53520961e+00
9.55            	-1.00000000e-02	(1.00000000e+00 0.00000000e+00 0.00000000e+00)	1.53520928e+00
9.6             	-1.00000000e-02	(1.00000000e+00 0.00000000e+00 0.00000000e+00)	1.53520928e+00
9.65            	-1.00000000e-02	(1.00000000e+00 0.00000000e+00 0.00000000e+00)	1.53521646e+00
9.7             	-1.00000000e-02	(1.00000000e+00 0.00000000e+00 0.00000000e+00)	1.53521743e+00
9.75            	-1.00000000e-02	(1.00000000e+00 0.00000000e+00 0.00000000e+00)	1.53521743e+00
9.8             	-1.00000000e-02	(1.00000000e+00 0.00000000e+00 0.00000000e+00)	1.53522612e+00
9.85            	-1.00000000e-02	(1.00000000e+00 0.00000000e+00 0.00000000e+00)	1.53522612e+00
9.9             	-1.00000000e-02	(1.00000000e+00 0.00000000e+00 0.00000000e+00)	1.53522635e+00
9.95            	-1.00000000e-02	(1.00000000e+00 0.00000000e+00 0.00000000e+00)	1.53522926e+00
10              	-1.00000000e-02	(1.00000000e+00 0.00000000e+00 0.00000000e+00)	1.53522926e+00
10.05           	-1.00000000e-02	(1.00000000e+00 0.00000000e+00 0.00000000e+00)	1.53523680e+00
10.1            	-1.00000000e-02	(1.00000000e+00 0.00000000e+00 0.00000000e+00)	1.53523607e+00
10.15           	-1.00000000e-02	(1.00000000e+00 0.00000000e+00 0.00000000e+00)	1.53523607e+00
10.2            	-1.00000000e-02	(1.00000000e+00 0.00000000e+00 0.00000000e+00)	1.53523920e+00
10.25           	-1.00000000e-02	(1.00000000e+00 0.00000000e+00 0.00000000e+00)	1.53523920e+00
10.3            	-1.00000000e-02	(1.00000000e+00 0.00000000e+00 0.00000000e+00)	1.53524258e+00
10.35           	-1.00000000e-02	(1.00000000e+00 0.00000000e+00 0.00000000e+00)	1.53524347e+00
10.4            	-1.00000000e-02	(1.00000000e+00 0.00000000e+00 0.00000000e+00)	1.53524347e+00
10.45           	-1.00000000e-02	(1.00000000e+00 0.00000000e+00 0.00000000e+00)	1.53524656e+00
10.5            	-1.00000000e-02	(1.00000000e+00 0.00000000e+00 0.00000000e+00)	1.53524690e+00
10.55           	-1.00000000e-02	(1.00000000e+00 0.00000000e+00 0.00000000e+00)	1.53524690e+00
10.6            	-1.00000000e-02	(1.00000000e+00 0.00000000e+00 0.00000000e+00)	1.53524690e+00
10.65           	-1.00000000e-02	(1.00000000e+00 0.00000000e+00 0.00000000e+00)	1.53525180e+00
10.7            	-1.00000000e-02	(1.00000000e+00 0.00000000e+00 0.00000000e+00)	1.53525097e+00
10.75           	-1.00000000e-02	(1.00000000e+00 0.00000000e+00 0.00000000e+00)	1.53525097e+00
10.8            	-1.00000000e-02	(1.00000000e+00 0.00000000e+00 0.00000000e+00)	1.53525097e+00
10.85           	-1.00000000e-02	(1.00000000e+00 0.00000000e+00 0.00000000e+00)	1.53525191e+00
10.9            	-1.00000000e-02	(1.00000000e+00 0.00000000e+00 0.00000000e+00)	1.53525291e+00
10.95           	-1.00000000e-02	(1.00000000e+00 0.00000000e+00 0.00000000e+00)	1.53525291e+00
11              	-1.00000000e-02	(1.00000000e+00 0.00000000e+00 0.00000000e+00)	1.53525291e+00
11.05           	-1.00000000e-02	(1.00000000e+00 0.00000000e+00 0.00000000e+00)	1.53525580e+00
11.1            	-1.00000000e-02	(1.00000000e+00 0.00000000e+00 0.00000000e+00)	1.53525535e+00
11.15           	-1.00000000e-02	(1.00000000e+00 0.00000000e+00 0.00000000e+00)	1.53525535e+00
11.2            	-1.00000000e-02	(1.00000000e+00 0.00000000e+00 0.00000000e+00)	1.53525535e+00
11.25           	-1.00000000e-02	(1.00000000e+00 0.00000000e+00 0.00000000e+00)	1.53525535e+00
11.3            	-1.00000000e-02	(1.00000000e+00 0.00000000e+00 0.00000000e+00)	1.53525554e+00
11.35           	-1.00000000e-02	(1.00000000e+00 0.00000000e+00 0.00000000e+00)	1.53525554e+00
11.4            	-1.00000000e-02	(1.00000000e+00 0.00000000e+00 0.00000000e+00)	1.53525660e+00
11.45           	-1.00000000e-02	(1.00000000e+00 0.00000000e+00 0.00000000e+00)	1.53525699e+00
11.5            	-1.00000000e-02	(1.00000000e+00 0.00000000e+00 0.00000000e+00)	1.53525699e+00
11.55           	-1.00000000e-02	(1.00000000e+00 0.00000000e+00 0.00000000e+00)	1.53525699e+00
11.6            	-1.00000000e-02	(1.00000000e+00 0.00000000e+00 0.00000000e+00)	1.53525699e+00
11.65           	-1.00000000e-02	(1.00000000e+00 0.00000000e+00 0.00000000e+00)	1.53525725e+00
11.7            	-1.00000000e-02	(1.00000000e+00 0.00000000e+00 0.00000000e+00)	1.53525725e+00
11.75           	-1.00000000e-02	(1.00000000e+00 0.00000000e+00 0.00000000e+00)	1.53525751e+00
11.8            	-1.00000000e-02	(1.00000000e+00 0.00000000e+00 0.00000000e+00)	1.53525767e+00
11.85           	-1.00000000e-02	(1.00000000e+00 0.00000000e+00 0.00000000e+00)	1.53525767e+00
11.9            	-1.00000000e-02	(1.00000000e+00 0.00000000e+00 0.00000000e+00)	1.53525767e+00
11.95           	-1.00000000e-02	(1.00000000e+00 0.00000000e+00 0.00000000e+00)	1.53525781e+00
12              	-1.00000000e-02	(1.00000000e+00 0.00000000e+00 0.00000000e+00)	1.53525781e+00
12.05           	-1.00000000e-02	(1.00000000e+00 0.00000000e+00 0.00000000e+00)	1.53525791e+00
12.1            	-1.00000000e-02	(1.00000000e+00 0.00000000e+00 0.00000000e+00)	1.53525791e+00
12.15           	-1.00000000e-02	(1.00000000e+00 0.00000000e+00 0.00000000e+00)	1.53525798e+00
12.2            	-1.00000000e-02	(1.00000000e+00 0.00000000e+00 0.00000000e+00)	1.53525798e+00
12.25           	-1.00000000e-02	(1.00000000e+00 0.00000000e+00 0.00000000e+00)	1.53525806e+00
12.3            	-1.00000000e-02	(1.00000000e+00 0.00000000e+00 0.00000000e+00)	1.53525806e+00
12.35           	-1.00000000e-02	(1.00000000e+00 0.00000000e+00 0.00000000e+00)	1.53525811e+00
12.4            	-1.00000000e-02	(1.00000000e+00 0.00000000e+00 0.00000000e+00)	1.53525811e+00
12.45           	-1.00000000e-02	(1.00000000e+00 0.00000000e+00 0.00000000e+00)	1.53525813e+00
12.5            	-1.00000000e-02	(1.00000000e+00 0.00000000e+00 0.00000000e+00)	1.53525813e+00
12.55           	-1.00000000e-02	(1.00000000e+00 0.00000000e+00 0.00000000e+00)	1.53525815e+00
12.6            	-1.00000000e-02	(1.00000000e+00 0.00000000e+00 0.00000000e+00)	1.53525815e+00
12.65           	-1.00000000e-02	(1.00000000e+00 0.00000000e+00 0.00000000e+00)	1.53525818e+00
12.7            	-1.00000000e-02	(1.00000000e+00 0.00000000e+00 0.00000000e+00)	1.53525818e+00
12.75           	-1.00000000e-02	(1.00000000e+00 0.00000000e+00 0.00000000e+00)	1.53525819e+00
12.8            	-1.00000000e-02	(1.00000000e+00 0.00000000e+00 0.00000000e+00)	1.53525819e+00
12.85           	-1.00000000e-02	(1.00000000e+00 0.00000000e+00 0.00000000e+00)	1.53525821e+00
12.9            	-1.00000000e-02	(1.00000000e+00 0.00000000e+00 0.00000000e+00)	1.53525821e+00
12.95           	-1.00000000e-02	(1.00000000e+00 0.00000000e+00 0.00000000e+00)	1.53525820e+00
13              	-1.00000000e-02	(1.00000000e+00 0.00000000e+00 0.00000000e+00)	1.53525820e+00
13.05           	-1.00000000e-02	(1.00000000e+00 0.00000000e+00 0.00000000e+00)	1.53525821e+00
13.1            	-1.00000000e-02	(1.00000000e+00 0.00000000e+00 0.00000000e+00)	1.53525821e+00
13.15           	-1.00000000e-02	(1.00000000e+00 0.00000000e+00 0.00000000e+00)	1.53525823e+00
13.2            	-1.00000000e-02	(1.00000000e+00 0.00000000e+00 0.00000000e+00)	1.53525823e+00
13.25           	-1.00000000e-02	(1.00000000e+00 0.00000000e+00 0.00000000e+00)	1.53525820e+00
13.3            	-1.00000000e-02	(1.00000000e+00 0.00000000e+00 0.00000000e+00)	1.53525820e+00
13.35           	-1.00000000e-02	(1.00000000e+00 0.00000000e+00 0.00000000e+00)	1.53525824e+00
13.4            	-1.00000000e-02	(1.00000000e+00 0.00000000e+00 0.00000000e+00)	1.53525824e+00
13.45           	-1.00000000e-02	(1.00000000e+00 0.00000000e+00 0.00000000e+00)	1.53525820e+00
13.5            	-1.00000000e-02	(1.00000000e+00 0.00000000e+00 0.00000000e+00)	1.53525820e+00
13.55           	-1.00000000e-02	(1.00000000e+00 0.00000000e+00 0.00000000e+00)	1.53525823e+00
13.6            	-1.00000000e-02	(1.00000000e+00 0.00000000e+00 0.00000000e+00)	1.53525823e+00
13.65           	-1.00000000e-02	(1.00000000e+00 0.00000000e+00 0.00000000e+00)	1.53525824e+00
13.7            	-1.00000000e-02	(1.00000000e+00 0.00000000e+00 0.00000000e+00)	1.53525821e+00
13.75           	-1.00000000e-02	(1.00000000e+00 0.00000000e+00 0.00000000e+00)	1.53525821e+00
13.8            	-1.00000000e-02	(1.00000000e+00 0.00000000e+00 0.00000000e+00)	1.53525821e+00
13.85           	-1.00000000e-02	(1.00000000e+00 0.00000000e+00 0.00000000e+00)	1.53525821e+00
13.9            	-1.00000000e-02	(1.00000000e+00 0.00000000e+00 0.00000000e+00)	1.53525821e+00
13.95           	-1.00000000e-02	(1.00000000e+00 0.00000000e+00 0.00000000e+00)	1.53525821e+00
14              	-1.00000000e-02	(1.00000000e+00 0.00000000e+00 0.00000000e+00)	1.53525821e+00
14.05           	-1.00000000e-02	(1.00000000e+00 0.00000000e+00 0.00000000e+00)	1.53525821e+00
14.1            	-1.00000000e-02	(1.00000000e+00 0.00000000e+00 0.00000000e+00)	1.53525821e+00
14.15           	-1.00000000e-02	(1.00000000e+00 0.00000000e+00 0.00000000e+00)	1.53525821e+00
14.2            	-1.00000000e-02	(1.00000000e+00 0.00000000e+00 0.00000000e+00)	1.53525821e+00
14.25           	-1.00000000e-02	(1.00000000e+00 0.00000000e+00 0.00000000e+00)	1.53525821e+00
14.3            	-1.00000000e-02	(1.00000000e+00 0.00000000e+00 0.00000000e+00)	1.53525821e+00
14.35           	-1.00000000e-02	(1.00000000e+00 0.00000000e+00 0.00000000e+00)	1.53525821e+00
14.4            	-1.00000000e-02	(1.00000000e+00 0.00000000e+00 0.00000000e+00)	1.53525821e+00
14.45           	-1.00000000e-02	(1.00000000e+00 0.00000000e+00 0.00000000e+00)	1.53525821e+00
14.5            	-1.00000000e-02	(1.00000000e+00 0.00000000e+00 0.00000000e+00)	1.53525821e+00
14.55           	-1.00000000e-02	(1.00000000e+00 0.00000000e+00 0.00000000e+00)	1.53525821e+00
14.6            	-1.00000000e-02	(1.00000000e+00 0.00000000e+00 0.00000000e+00)	1.53525821e+00
14.65           	-1.00000000e-02	(1.00000000e+00 0.00000000e+00 0.00000000e+00)	1.53525821e+00
14.7            	-1.00000000e-02	(1.00000000e+00 0.00000000e+00 0.00000000e+00)	1.53525821e+00
14.75           	-1.00000000e-02	(1.00000000e+00 0.00000000e+00 0.00000000e+00)	1.53525821e+00
14.8            	-1.00000000e-02	(1.00000000e+00 0.00000000e+00 0.00000000e+00)	1.53525821e+00
14.85           	-1.00000000e-02	(1.00000000e+00 0.00000000e+00 0.00000000e+00)	1.53525821e+00
14.9            	-1.00000000e-02	(1.00000000e+00 0.00000000e+00 0.00000000e+00)	1.53525821e+00
14.95           	-1.00000000e-02	(1.00000000e+00 0.00000000e+00 0.00000000e+00)	1.53525821e+00
15              	-1.00000000e-02	(1.00000000e+00 0.00000000e+00 0.00000000e+00)	1.53525821e+00
15.05           	-1.00000000e-02	(1.00000000e+00 0.00000000e+00 0.00000000e+00)	1.53525821e+00
15.1            	-1.00000000e-02	(1.00000000e+00 0.00000000e+00 0.00000000e+00)	1.53525821e+00
15.15           	-1.00000000e-02	(1.00000000e+00 0.00000000e+00 0.00000000e+00)	1.53525821e+00
15.2            	-1.00000000e-02	(1.00000000e+00 0.00000000e+00 0.00000000e+00)	1.53525821e+00
15.25           	-1.00000000e-02	(1.00000000e+00 0.00000000e+00 0.00000000e+00)	1.53525821e+00
15.3            	-1.00000000e-02	(1.00000000e+00 0.00000000e+00 0.00000000e+00)	1.53525821e+00
15.35           	-1.00000000e-02	(1.00000000e+00 0.00000000e+00 0.00000000e+00)	1.53525821e+00
15.4            	-1.00000000e-02	(1.00000000e+00 0.00000000e+00 0.00000000e+00)	1.53525821e+00
15.45           	-1.00000000e-02	(1.00000000e+00 0.00000000e+00 0.00000000e+00)	1.53525821e+00
15.5            	-1.00000000e-02	(1.00000000e+00 0.00000000e+00 0.00000000e+00)	1.53525821e+00
15.55           	-1.00000000e-02	(1.00000000e+00 0.00000000e+00 0.00000000e+00)	1.53525821e+00
15.6            	-1.00000000e-02	(1.00000000e+00 0.00000000e+00 0.00000000e+00)	1.53525821e+00
15.65           	-1.00000000e-02	(1.00000000e+00 0.00000000e+00 0.00000000e+00)	1.53525821e+00