/*--------------------------------*- C++ -*----------------------------------*\
| =========                 |                                                 |
| \\      /  F ield         | OpenFOAM: The Open Source CFD Toolbox           |
|  \\    /   O peration     | Version:  v1812                                 |
|   \\  /    A nd           | Web:      www.OpenFOAM.com                      |
|    \\/     M anipulation  |                                                 |
\*---------------------------------------------------------------------------*/
FoamFile
{
    version     2.0;
    format      ascii;
    class       volScalarField;
    location    "0.9";
    object      p;
}
// * * * * * * * * * * * * * * * * * * * * * * * * * * * * * * * * * * * * * //

dimensions      [0 2 -2 0 0 0 0];


internalField   nonuniform List<scalar> 
1000
(
2.0964051
1.9754742
1.8796363
1.815442
1.766458
1.7252362
1.691071
1.6635265
1.6410715
1.6218506
1.6043292
1.5874541
1.5706169
1.5536046
1.5363129
1.5187894
1.5010925
1.4832774
1.4653873
1.447453
1.4294941
1.4115223
1.3935443
1.3755634
1.3575815
1.3395993
1.3216171
1.303635
1.2856531
1.2676713
1.2496895
1.2317078
1.2137261
1.1957444
1.1777628
1.1597812
1.1417995
1.1238179
1.1058362
1.0878546
1.069873
1.0518913
1.0339097
1.0159281
0.99794644
0.9799648
0.96198317
0.94400154
0.9260199
0.90803827
0.89005664
0.87207501
0.85409338
0.83611174
0.81813011
0.80014848
0.78216685
0.76418522
0.74620358
0.72822195
0.71024032
0.69225869
0.67427706
0.65629543
0.63831379
0.62033216
0.60235053
0.5843689
0.56638727
0.54840563
0.530424
0.51244237
0.49446074
0.47647911
0.45849747
0.44051584
0.42253421
0.40455258
0.38657094
0.36858934
0.35060765
0.33262615
0.31464426
0.29666313
0.27868061
0.26070055
0.24271641
0.22473871
0.20675185
0.1887769
0.17078948
0.15281176
0.13483536
0.11684117
0.098883848
0.08088369
0.062919353
0.04495652
0.026970655
0.0090025678
1.9792268
1.9247417
1.8644652
1.8122996
1.7677086
1.7296022
1.6975252
1.670096
1.6462627
1.6254458
1.6067244
1.5889977
1.5715514
1.5540754
1.5365285
1.5188806
1.5011234
1.4832805
1.4653798
1.4474433
1.4294857
1.4115161
1.3935401
1.3755607
1.3575798
1.3395983
1.3216165
1.3036347
1.2856529
1.2676712
1.2496895
1.2317078
1.2137261
1.1957444
1.1777628
1.1597812
1.1417995
1.1238179
1.1058362
1.0878546
1.069873
1.0518913
1.0339097
1.0159281
0.99794644
0.9799648
0.96198317
0.94400154
0.9260199
0.90803827
0.89005664
0.87207501
0.85409338
0.83611174
0.81813011
0.80014848
0.78216685
0.76418522
0.74620358
0.72822195
0.71024032
0.69225869
0.67427706
0.65629543
0.63831379
0.62033216
0.60235053
0.5843689
0.56638727
0.54840563
0.530424
0.51244237
0.49446074
0.47647911
0.45849747
0.44051584
0.42253421
0.40455259
0.38657093
0.36858936
0.35060759
0.33262624
0.31464407
0.29666346
0.27868
0.26070151
0.24271484
0.22474085
0.20674888
0.18877991
0.17078615
0.1528119
0.13483494
0.11683166
0.098895208
0.080864428
0.062933897
0.044964003
0.026948737
0.0089989844
1.9186485
1.8931392
1.8558692
1.8140388
1.7730023
1.7372117
1.7068565
1.6792295
1.6534891
1.6304741
1.6100903
1.5912082
1.5729141
1.5548573
1.536941
1.5190776
1.5012118
1.483315
1.4653883
1.447441
1.4294803
1.4115108
1.3935358
1.3755577
1.3575778
1.339597
1.3216157
1.3036342
1.2856527
1.267671
1.2496894
1.2317077
1.2137261
1.1957444
1.1777628
1.1597812
1.1417995
1.1238179
1.1058362
1.0878546
1.069873
1.0518913
1.0339097
1.0159281
0.99794644
0.9799648
0.96198317
0.94400154
0.92601991
0.90803827
0.89005664
0.87207501
0.85409338
0.83611174
0.81813011
0.80014848
0.78216685
0.76418522
0.74620358
0.72822195
0.71024032
0.69225869
0.67427706
0.65629543
0.63831379
0.62033216
0.60235053
0.5843689
0.56638727
0.54840563
0.530424
0.51244237
0.49446074
0.47647911
0.45849747
0.44051585
0.4225342
0.40455259
0.38657091
0.36858939
0.35060754
0.33262635
0.31464387
0.2966638
0.27867938
0.26070243
0.24271333
0.22474275
0.20674608
0.18878247
0.170783
0.15281226
0.13483609
0.11682429
0.09890649
0.080852849
0.062952843
0.044975097
0.026928274
0.009005272
1.889514
1.8747858
1.8492223
1.814479
1.7764293
1.7422703
1.7130853
1.6855808
1.6588607
1.6344922
1.6129543
1.5931965
1.5742195
1.5556532
1.5373916
1.5193187
1.5013295
1.4833664
1.4654074
1.4474451
1.4294784
1.4115073
1.3935325
1.375555
1.3575759
1.3395957
1.3216149
1.3036337
1.2856524
1.2676708
1.2496893
1.2317077
1.213726
1.1957444
1.1777628
1.1597811
1.1417995
1.1238179
1.1058362
1.0878546
1.069873
1.0518913
1.0339097
1.0159281
0.99794644
0.9799648
0.96198317
0.94400154
0.92601991
0.90803827
0.89005664
0.87207501
0.85409338
0.83611174
0.81813011
0.80014848
0.78216685
0.76418522
0.74620358
0.72822195
0.71024032
0.69225869
0.67427706
0.65629543
0.63831379
0.62033216
0.60235053
0.5843689
0.56638727
0.54840563
0.530424
0.51244237
0.49446074
0.47647911
0.45849747
0.44051585
0.4225342
0.4045526
0.3865709
0.36858941
0.3506075
0.33262641
0.31464374
0.29666399
0.27867902
0.26070292
0.24271246
0.22474372
0.2067445
0.18878361
0.17078134
0.15281191
0.13483765
0.1168202
0.098915469
0.080850166
0.062960676
0.04498301
0.026909708
0.0090019235
1.8769401
1.8657727
1.8448419
1.8136845
1.7774843
1.7442506
1.7156912
1.6884223
1.6614348
1.6365275
1.6144594
1.5942699
1.574945
1.5561099
1.5376598
1.5194682
1.5014077
1.4834035
1.4654226
1.4474503
1.4294791
1.4115062
1.393531
1.3755538
1.357575
1.3395951
1.3216145
1.3036335
1.2856522
1.2676707
1.2496892
1.2317076
1.213726
1.1957444
1.1777628
1.1597811
1.1417995
1.1238179
1.1058362
1.0878546
1.069873
1.0518913
1.0339097
1.0159281
0.99794644
0.9799648
0.96198317
0.94400154
0.92601991
0.90803827
0.89005664
0.87207501
0.85409338
0.83611174
0.81813011
0.80014848
0.78216685
0.76418522
0.74620358
0.72822195
0.71024032
0.69225869
0.67427706
0.65629543
0.63831379
0.62033216
0.60235053
0.5843689
0.56638727
0.54840563
0.530424
0.51244237
0.49446074
0.47647911
0.45849747
0.44051585
0.4225342
0.4045526
0.3865709
0.36858941
0.35060748
0.33262644
0.31464369
0.29666407
0.27867886
0.26070312
0.24271209
0.22474407
0.20674386
0.18878393
0.17078097
0.15281158
0.13483906
0.11681888
0.098919736
0.080849301
0.062959541
0.044985503
0.026902363
0.0089982479
1.8769401
1.8657727
1.8448419
1.8136845
1.7774843
1.7442506
1.7156912
1.6884223
1.6614348
1.6365275
1.6144594
1.5942699
1.574945
1.5561099
1.5376598
1.5194682
1.5014077
1.4834035
1.4654226
1.4474503
1.4294791
1.4115062
1.393531
1.3755538
1.357575
1.3395951
1.3216145
1.3036335
1.2856522
1.2676707
1.2496892
1.2317076
1.213726
1.1957444
1.1777628
1.1597811
1.1417995
1.1238179
1.1058362
1.0878546
1.069873
1.0518913
1.0339097
1.0159281
0.99794644
0.97996481
0.96198317
0.94400154
0.92601991
0.90803827
0.89005664
0.87207501
0.85409338
0.83611174
0.81813011
0.80014848
0.78216685
0.76418522
0.74620358
0.72822195
0.71024032
0.69225869
0.67427706
0.65629543
0.63831379
0.62033216
0.60235053
0.5843689
0.56638727
0.54840563
0.530424
0.51244237
0.49446074
0.47647911
0.45849747
0.44051585
0.4225342
0.4045526
0.3865709
0.36858941
0.35060748
0.33262644
0.31464369
0.29666407
0.27867886
0.26070311
0.24271209
0.22474407
0.20674386
0.18878393
0.17078097
0.15281158
0.13483906
0.11681888
0.098919736
0.0808493
0.062959541
0.044985503
0.026902364
0.0089982483
1.889514
1.8747858
1.8492223
1.814479
1.7764293
1.7422703
1.7130853
1.6855808
1.6588606
1.6344922
1.6129543
1.5931965
1.5742195
1.5556533
1.5373916
1.5193187
1.5013295
1.4833664
1.4654074
1.4474451
1.4294784
1.4115073
1.3935324
1.375555
1.3575759
1.3395957
1.3216149
1.3036337
1.2856524
1.2676708
1.2496893
1.2317077
1.213726
1.1957444
1.1777628
1.1597811
1.1417995
1.1238179
1.1058362
1.0878546
1.069873
1.0518913
1.0339097
1.0159281
0.99794644
0.97996481
0.96198317
0.94400154
0.92601991
0.90803827
0.89005664
0.87207501
0.85409338
0.83611175
0.81813011
0.80014848
0.78216685
0.76418522
0.74620358
0.72822195
0.71024032
0.69225869
0.67427706
0.65629543
0.63831379
0.62033216
0.60235053
0.5843689
0.56638727
0.54840563
0.530424
0.51244237
0.49446074
0.47647911
0.45849747
0.44051585
0.4225342
0.4045526
0.3865709
0.36858941
0.3506075
0.33262641
0.31464374
0.29666399
0.27867902
0.26070292
0.24271246
0.22474372
0.2067445
0.18878361
0.17078134
0.15281191
0.13483766
0.1168202
0.098915469
0.080850164
0.062960674
0.044983011
0.026909711
0.0090019249
1.9186485
1.8931392
1.8558692
1.8140388
1.7730024
1.7372118
1.7068565
1.6792295
1.6534891
1.6304741
1.6100903
1.5912082
1.5729141
1.5548574
1.536941
1.5190776
1.5012118
1.483315
1.4653882
1.447441
1.4294803
1.4115108
1.3935358
1.3755577
1.3575778
1.339597
1.3216157
1.3036342
1.2856527
1.267671
1.2496894
1.2317077
1.2137261
1.1957444
1.1777628
1.1597812
1.1417995
1.1238179
1.1058362
1.0878546
1.069873
1.0518913
1.0339097
1.0159281
0.99794644
0.97996481
0.96198317
0.94400154
0.92601991
0.90803827
0.89005664
0.87207501
0.85409338
0.83611175
0.81813011
0.80014848
0.78216685
0.76418522
0.74620358
0.72822195
0.71024032
0.69225869
0.67427706
0.65629543
0.63831379
0.62033216
0.60235053
0.5843689
0.56638727
0.54840563
0.530424
0.51244237
0.49446074
0.47647911
0.45849747
0.44051585
0.4225342
0.40455259
0.38657091
0.36858939
0.35060754
0.33262635
0.31464387
0.2966638
0.27867938
0.26070242
0.24271333
0.22474276
0.20674608
0.18878247
0.170783
0.15281226
0.13483609
0.11682429
0.098906489
0.080852847
0.062952841
0.044975098
0.026928276
0.009005274
1.9792268
1.9247417
1.8644652
1.8122996
1.7677086
1.7296023
1.6975252
1.670096
1.6462626
1.6254458
1.6067243
1.5889977
1.5715514
1.5540754
1.5365285
1.5188806
1.5011234
1.4832805
1.4653797
1.4474433
1.4294857
1.4115161
1.39354
1.3755607
1.3575798
1.3395983
1.3216165
1.3036347
1.2856529
1.2676712
1.2496895
1.2317078
1.2137261
1.1957444
1.1777628
1.1597812
1.1417995
1.1238179
1.1058362
1.0878546
1.069873
1.0518913
1.0339097
1.0159281
0.99794644
0.97996481
0.96198317
0.94400154
0.92601991
0.90803827
0.89005664
0.87207501
0.85409338
0.83611175
0.81813011
0.80014848
0.78216685
0.76418522
0.74620358
0.72822195
0.71024032
0.69225869
0.67427706
0.65629543
0.63831379
0.62033216
0.60235053
0.5843689
0.56638727
0.54840563
0.530424
0.51244237
0.49446074
0.47647911
0.45849747
0.44051584
0.42253421
0.40455259
0.38657093
0.36858936
0.3506076
0.33262625
0.31464407
0.29666346
0.27868
0.26070151
0.24271484
0.22474085
0.20674888
0.18877992
0.17078616
0.1528119
0.13483495
0.11683166
0.098895207
0.080864425
0.062933895
0.044964005
0.026948741
0.0089989868
2.0964051
1.9754742
1.8796363
1.815442
1.766458
1.7252362
1.691071
1.6635265
1.6410715
1.6218506
1.6043292
1.5874541
1.5706169
1.5536046
1.5363129
1.5187894
1.5010925
1.4832773
1.4653873
1.447453
1.429494
1.4115223
1.3935442
1.3755634
1.3575815
1.3395993
1.3216171
1.303635
1.2856531
1.2676713
1.2496895
1.2317078
1.2137261
1.1957444
1.1777628
1.1597812
1.1417995
1.1238179
1.1058362
1.0878546
1.069873
1.0518913
1.0339097
1.0159281
0.99794644
0.97996481
0.96198317
0.94400154
0.92601991
0.90803827
0.89005664
0.87207501
0.85409338
0.83611175
0.81813011
0.80014848
0.78216685
0.76418522
0.74620358
0.72822195
0.71024032
0.69225869
0.67427706
0.65629543
0.63831379
0.62033216
0.60235053
0.5843689
0.56638727
0.54840563
0.530424
0.51244237
0.49446074
0.47647911
0.45849747
0.44051584
0.42253421
0.40455258
0.38657094
0.36858934
0.35060765
0.33262615
0.31464426
0.29666313
0.27868061
0.26070055
0.24271641
0.22473872
0.20675185
0.18877691
0.17078948
0.15281177
0.13483536
0.11684117
0.098883846
0.080883688
0.062919354
0.044956523
0.026970659
0.0090025694
)
;

boundaryField
{
    top
    {
        type            zeroGradient;
    }
    inlet
    {
        type            zeroGradient;
    }
    outlet
    {
        type            fixedValue;
        value           uniform 0;
    }
    bottom
    {
        type            zeroGradient;
    }
    back
    {
        type            empty;
    }
    front
    {
        type            empty;
    }
}


// ************************************************************************* //
