/*--------------------------------*- C++ -*----------------------------------*\
| =========                 |                                                 |
| \\      /  F ield         | OpenFOAM: The Open Source CFD Toolbox           |
|  \\    /   O peration     | Version:  v1812                                 |
|   \\  /    A nd           | Web:      www.OpenFOAM.com                      |
|    \\/     M anipulation  |                                                 |
\*---------------------------------------------------------------------------*/
FoamFile
{
    version     2.0;
    format      ascii;
    class       surfaceScalarField;
    location    "10.6";
    object      phi;
}
// * * * * * * * * * * * * * * * * * * * * * * * * * * * * * * * * * * * * * //

dimensions      [0 3 -1 0 0 0 0];
oriented        oriented;


internalField   nonuniform List<scalar> 
1890
(
0.0093061958
0.00069380425
0.0082843931
0.0010218027
0.0073298986
0.00095449448
0.0064869553
0.00084294334
0.0057695845
0.0007173708
0.00518986
0.00057972444
0.004738168
0.00045169205
0.00439519
0.00034297801
0.0041390268
0.00025616318
0.003949107
0.00018991983
0.003807888
0.00014121896
0.0037013782
0.00010650978
0.003619058
8.2320213e-05
0.0035534117
6.5646245e-05
0.0034992845
5.4127263e-05
0.0034532444
4.6040062e-05
0.0034130501
4.0194305e-05
0.0033772574
3.5792764e-05
0.0033449386
3.2318758e-05
0.0033154893
2.9449271e-05
0.0032885008
2.698856e-05
0.0032636805
2.4820285e-05
0.003240805
2.287547e-05
0.0032196926
2.1112418e-05
0.0032001879
1.9504666e-05
0.0031821539
1.8034036e-05
0.0031654671
1.6686748e-05
0.0031500158
1.5451381e-05
0.0031356979
1.4317869e-05
0.0031224208
1.3277065e-05
0.0031101003
1.2320573e-05
0.0030986596
1.1440697e-05
0.0030880292
1.0630414e-05
0.0030781458
9.8833549e-06
0.003068952
9.1937759e-06
0.0030603955
8.5565153e-06
0.0030524285
7.9669477e-06
0.0030450076
7.4209333e-06
0.0030380929
6.9147665e-06
0.0030316477
6.4451282e-06
0.0030256387
6.0090379e-06
0.0030200349
5.6038139e-06
0.0030148079
5.227035e-06
0.0030099313
4.8765079e-06
0.0030053811
4.5502403e-06
0.0030011346
4.2464165e-06
0.0029971713
3.9633788e-06
0.0029934717
3.6996115e-06
0.0029900179
3.4537257e-06
0.0029867935
3.2244492e-06
0.0029837829
3.0106123e-06
0.0029809718
2.8111394e-06
0.0029783468
2.625037e-06
0.0029758953
2.4513841e-06
0.002973606
2.2893265e-06
0.0029714679
2.1380674e-06
0.002969471
1.996867e-06
0.002967606
1.8650376e-06
0.0029658641
1.7419425e-06
0.0029642371
1.6269956e-06
0.0029627175
1.5196542e-06
0.0029612981
1.4194184e-06
0.0029599723
1.3258219e-06
0.0029587338
1.238426e-06
0.0029575769
1.1568183e-06
0.0029564963
1.0806058e-06
0.0029554868
1.0094202e-06
0.002954544
9.4291811e-07
0.0029536632
8.8078303e-07
0.0029528406
8.2272933e-07
0.0029520721
7.684955e-07
0.0029513543
7.1784151e-07
0.0029506837
6.7054342e-07
0.0029500572
6.2637934e-07
0.002949472
5.8513998e-07
0.0029489254
5.4661045e-07
0.0029484148
5.1059788e-07
0.0029479379
4.7691202e-07
0.0029474926
4.4540153e-07
0.0029470768
4.1591195e-07
0.0029466885
3.883441e-07
0.002946326
3.6254841e-07
0.0029459875
3.3846096e-07
0.0029456715
3.1588852e-07
0.0029453767
2.9480459e-07
0.0029451018
2.7495033e-07
0.0029448456
2.5639897e-07
0.0029446069
2.3880702e-07
0.0029443847
2.224476e-07
0.002944178
2.0680054e-07
0.0029439857
1.9244622e-07
0.0029438073
1.7850502e-07
0.0029436414
1.660155e-07
0.002943488
1.5352741e-07
0.0029433454
1.4275115e-07
0.0029432142
1.3156835e-07
0.0029430921
1.2246096e-07
0.0029429791
1.1330345e-07
0.0029428725
1.0677857e-07
1.0703217e-07
0.010339525
0.00035427932
0.010570754
0.00079057334
0.010606301
0.0009189482
0.010547573
0.00090167137
0.010422317
0.00084262624
0.010244356
0.0007576856
0.01003942
0.00065662745
0.0098287426
0.00055365587
0.009625135
0.00045977083
0.0094353013
0.00037975353
0.0092624277
0.00031409257
0.0091075333
0.00026140424
0.008970154
0.00021969947
0.0088489024
0.00018689786
0.0087419716
0.00016105803
0.0086474926
0.00014051896
0.008563694
0.00012399298
0.0084890107
0.00011047601
0.0084221096
9.9219874e-05
0.0083618775
8.9681394e-05
0.0083073955
8.1470649e-05
0.0082579079
7.4307824e-05
0.0082127929
6.7990479e-05
0.0081715353
6.2369984e-05
0.0081337049
5.7335023e-05
0.0080989387
5.2800206e-05
0.0080669272
4.8698295e-05
0.0080374036
4.4974981e-05
0.0080101361
4.1585406e-05
0.0079849213
3.8491847e-05
0.0079615798
3.5662139e-05
0.0079399519
3.3068585e-05
0.0079198952
3.0687144e-05
0.0079012817
2.8496831e-05
0.0078839962
2.647924e-05
0.0078679345
2.4618164e-05
0.0078530022
2.289928e-05
0.0078391132
2.1309889e-05
0.0078261893
1.9838697e-05
0.0078141588
1.8475626e-05
0.0078029562
1.7211658e-05
0.0077925214
1.6038694e-05
0.007782799
1.4949438e-05
0.0077737382
1.3937299e-05
0.0077652921
1.2996303e-05
0.0077574175
1.2121017e-05
0.0077500743
1.1306493e-05
0.0077432257
1.0548211e-05
0.0077368374
9.8420349e-06
0.0077308777
9.1841755e-06
0.0077253172
8.5711557e-06
0.0077201286
7.9997796e-06
0.0077152866
7.4671047e-06
0.0077107675
6.9704165e-06
0.0077065496
6.5072047e-06
0.0077026125
6.0751444e-06
0.0076989372
5.6720787e-06
0.0076955062
5.2960062e-06
0.0076923031
4.9450709e-06
0.0076893126
4.6175531e-06
0.0076865204
4.3118621e-06
0.0076839134
4.0265251e-06
0.0076814791
3.7601771e-06
0.007679206
3.511548e-06
0.0076770833
3.2794516e-06
0.007675101
3.0627761e-06
0.0076732498
2.8604794e-06
0.0076715211
2.6715849e-06
0.0076699067
2.4951852e-06
0.0076683991
2.3304368e-06
0.0076669912
2.1765664e-06
0.0076656763
2.0328552e-06
0.0076644482
1.898644e-06
0.0076633012
1.773305e-06
0.00766223
1.6562562e-06
0.0076612295
1.5469212e-06
0.0076602952
1.4447789e-06
0.0076594227
1.3492953e-06
0.0076586081
1.2600342e-06
0.0076578476
1.1765152e-06
0.0076571377
1.0984192e-06
0.007656475
1.0252924e-06
0.0076558564
9.56941e-07
0.0076552792
8.9285031e-07
0.0076547408
8.3297838e-07
0.0076542388
7.766355e-07
0.007653771
7.2406149e-07
0.0076533354
6.7424761e-07
0.0076529299
6.2798813e-07
0.0076525531
5.836616e-07
0.0076522024
5.4306286e-07
0.0076518774
5.0334101e-07
0.0076515751
4.6808236e-07
0.0076512962
4.3206808e-07
0.0076510364
4.0220082e-07
0.0076507989
3.688491e-07
0.007650576
3.4530812e-07
0.0076503756
3.1374618e-07
0.0076501818
3.0026031e-07
2.6813309e-07
0.010188704
0.00016557515
0.010530487
0.00044879099
0.010851453
0.00059798177
0.011124174
0.00062895025
0.011350581
0.00061621887
0.011524486
0.00058378056
0.01164633
0.00053478421
0.011724155
0.0004758305
0.011767999
0.00041592666
0.011786639
0.00036111399
0.011787114
0.00031361711
0.011775058
0.00027346025
0.011754861
0.00023989717
0.011729768
0.00021199031
0.011702054
0.00018877261
0.011673239
0.00016933389
0.011644339
0.00015289298
0.011616003
0.00013881184
0.011588629
0.0001265938
0.011562446
0.00011586445
0.011537572
0.00010634493
0.011514052
9.7826987e-05
0.01149189
9.0153348e-05
0.011471056
8.3203356e-05
0.011451509
7.6882613e-05
0.011433193
7.111557e-05
0.011416051
6.584031e-05
0.011400021
6.1004929e-05
0.011385041
5.6565088e-05
0.011371051
5.2482348e-05
0.01135799
4.8723026e-05
0.011345801
4.5257378e-05
0.01133443
4.2058978e-05
0.011323822
3.9104258e-05
0.011313929
3.6372115e-05
0.011304704
3.3843613e-05
0.011296101
3.1501711e-05
0.01128808
2.9331042e-05
0.011280601
2.7317727e-05
0.011273628
2.5449198e-05
0.011267125
2.3714058e-05
0.011261062
2.2101949e-05
0.011255408
2.0603441e-05
0.011250135
1.9209933e-05
0.011245218
1.7913559e-05
0.011240632
1.6707119e-05
0.011236354
1.5584007e-05
0.011232364
1.4538154e-05
0.011228642
1.3563979e-05
0.01122517
1.2656342e-05
0.011221931
1.1810507e-05
0.011218909
1.1022108e-05
0.011216089
1.0287111e-05
0.011213457
9.6017924e-06
0.011211002
8.9627015e-06
0.01120871
8.3666415e-06
0.011206572
7.8106451e-06
0.011204576
7.2919531e-06
0.011202713
6.8080052e-06
0.011200974
6.3564212e-06
0.011199351
5.934995e-06
0.011197836
5.5416828e-06
0.011196421
5.1745871e-06
0.011195101
4.83195e-06
0.011193868
4.5121316e-06
0.011192717
4.2136008e-06
0.011191643
3.9349264e-06
0.01119064
3.6747627e-06
0.011189703
3.4318573e-06
0.011188828
3.2050379e-06
0.011188012
2.9932226e-06
0.011187249
2.795408e-06
0.011186537
2.6106717e-06
0.011185873
2.4381483e-06
0.011185252
2.2770427e-06
0.011184672
2.1265715e-06
0.01118413
1.9860358e-06
0.011183625
1.8547018e-06
0.011183153
1.7319745e-06
0.011182712
1.6171698e-06
0.011182301
1.5098438e-06
0.011181917
1.4093372e-06
0.011181559
1.3154106e-06
0.011181224
1.2273139e-06
0.011180912
1.1450876e-06
0.01118062
1.067681e-06
0.011180348
9.9562133e-07
0.011180095
9.2724027e-07
0.011179859
8.6403394e-07
0.01117964
8.0311839e-07
0.011179435
7.4788863e-07
0.011179245
6.9299417e-07
0.011179068
6.4547124e-07
0.011178904
5.9504443e-07
0.01117875
5.5572458e-07
0.011178611
5.0775911e-07
0.011178478
4.7839665e-07
0.011178361
4.3034155e-07
0.011178247
4.1453674e-07
3.6512199e-07
0.010097182
6.8393553e-05
0.010346961
0.00019901112
0.010662469
0.00028247387
0.010982753
0.00030866649
0.011290229
0.00030874342
0.011575251
0.00029875789
0.011829022
0.00028101346
0.012047865
0.00025698756
0.012233272
0.00023051982
0.01238924
0.00020514589
0.012520295
0.00018256235
0.012630755
0.00016299956
0.012724428
0.0001462249
0.012804515
0.00013190312
0.012873613
0.00011967426
0.012933772
0.00010917462
0.012986596
0.00010006908
0.013033332
9.2076375e-05
0.01307495
8.4975261e-05
0.013112216
7.8598617e-05
0.013145739
7.2822301e-05
0.013176012
6.7553931e-05
0.013203441
6.2723914e-05
0.013228366
5.8278888e-05
0.013251071
5.4176984e-05
0.013271802
5.0384436e-05
0.01329077
4.6873175e-05
0.013308155
4.3619195e-05
0.013324119
4.0601476e-05
0.0133388
3.7801292e-05
0.013352321
3.5201759e-05
0.013364791
3.278753e-05
0.013376306
3.0544587e-05
0.01338695
2.8460084e-05
0.0133968
2.6522219e-05
0.013405923
2.4720139e-05
0.013414381
2.3043854e-05
0.013422228
2.148416e-05
0.013429513
2.0032578e-05
0.013436281
1.8681286e-05
0.013442572
1.7423074e-05
0.013448423
1.6251282e-05
0.013453866
1.5159761e-05
0.013458933
1.4142828e-05
0.013463652
1.3195224e-05
0.013468047
1.2312081e-05
0.013472142
1.1488889e-05
0.013475958
1.0721469e-05
0.013479516
1.0005943e-05
0.013482834
9.3387181e-06
0.013485928
8.7164614e-06
0.013488814
8.1360794e-06
0.013491507
7.5947053e-06
0.013494019
7.0896742e-06
0.013496363
6.6185103e-06
0.013498551
6.1789113e-06
0.013500593
5.7687292e-06
0.013502499
5.3859669e-06
0.013504278
5.0287603e-06
0.013505939
4.6953764e-06
0.01350749
4.3842067e-06
0.013508938
4.0937527e-06
0.01351029
3.8226303e-06
0.013511552
3.5695467e-06
0.013512731
3.3332995e-06
0.013513832
3.1127656e-06
0.01351486
2.9068886e-06
0.01351582
2.7146812e-06
0.013516716
2.5352182e-06
0.013517554
2.3676345e-06
0.013518336
2.2111371e-06
0.013519066
2.0649774e-06
0.013519749
1.9284839e-06
0.013520386
1.8010145e-06
0.013520981
1.6819835e-06
0.013521537
1.5708164e-06
0.013522055
1.4669969e-06
0.01352254
1.3699831e-06
0.013522992
1.2793401e-06
0.013523415
1.1945477e-06
0.01352381
1.1152994e-06
0.013524178
1.0410758e-06
0.013524522
9.7174537e-07
0.013524842
9.0670133e-07
0.013525141
8.4605563e-07
0.01352542
7.8892397e-07
0.013525679
7.3586072e-07
0.013525921
6.8538796e-07
0.013526146
6.3896172e-07
0.013526355
5.939335e-07
0.01352655
5.535358e-07
0.01352673
5.1279455e-07
0.013526897
4.7831812e-07
0.013527051
4.4060002e-07
0.013527194
4.1253106e-07
0.013527326
3.7620625e-07
0.013527448
3.5579694e-07
0.01352756
3.187349e-07
0.013527666
3.0809276e-07
2.7156803e-07
0.010068394
-9.8561227e-13
0.010267405
-9.6850268e-13
0.010549879
1.7400056e-12
0.010858545
4.6738018e-12
0.011167288
6.4092195e-12
0.011466046
5.3203718e-12
0.01174706
1.4879637e-12
0.012004047
-3.2823415e-12
0.012234567
-8.0843664e-12
0.012439713
-1.0763512e-11
0.012622275
-1.0285516e-11
0.012785275
-7.1032622e-12
0.0129315
-1.0861433e-12
0.013063403
4.5575996e-12
0.013183077
9.3484207e-12
0.013292252
1.1175575e-11
0.013392321
8.9517515e-12
0.013484397
4.3019242e-12
0.013569373
-2.7061546e-12
0.013647971
-7.8879012e-12
0.013720794
-1.137486e-11
0.013788347
-1.0648688e-11
0.013851071
-5.129369e-12
0.01390935
1.537999e-12
0.013963527
8.9516172e-12
0.014013912
1.372943e-11
0.014060785
1.4416834e-11
0.014104404
1.1201394e-11
0.014145005
4.5332039e-12
0.014182807
-3.2282506e-12
0.014218009
-8.8785376e-12
0.014250796
-1.1304436e-11
0.014281341
-7.9633632e-12
0.014309801
-1.6044696e-12
0.014336323
7.2784288e-12
0.014361043
1.531041e-11
0.014384087
1.9952846e-11
0.014405571
2.0294051e-11
0.014425604
1.4901056e-11
0.014444285
6.9100689e-12
0.014461708
-1.9005217e-12
0.014477959
-6.6882307e-12
0.014493119
-6.0644028e-12
0.014507262
2.2110339e-13
0.014520457
1.1298217e-11
0.014532769
2.2777037e-11
0.014544258
3.1481233e-11
0.014554979
3.4189992e-11
0.014564985
2.9549569e-11
0.014574324
2.0492763e-11
0.01458304
9.0663044e-12
0.014591177
1.2909766e-12
0.014598771
2.8728673e-13
0.014605861
7.3416178e-12
0.01461248
2.2029346e-11
0.014618658
3.8070851e-11
0.014624427
5.11216e-11
0.014629813
5.5338172e-11
0.014634842
4.7768347e-11
0.014639537
3.2837172e-11
0.014643921
1.3306892e-11
0.014648015
-1.079386e-12
0.014651837
-5.0486839e-12
0.014655407
3.0246713e-12
0.01465874
2.2096072e-11
0.014661853
4.2995541e-11
0.01466476
5.8237071e-11
0.014667475
6.0240739e-11
0.01467001
4.398276e-11
0.014672377
1.596439e-11
0.014674588
-1.6791473e-11
0.014676653
-4.2857654e-11
0.014678582
-5.3376477e-11
0.014680383
-4.8841572e-11
0.014682065
-2.8614914e-11
0.014683636
-5.1633e-12
0.014685103
1.0502141e-11
0.014686473
1.0287672e-11
0.014687752
-1.2077422e-11
0.014688947
-4.8184483e-11
0.014690062
-9.0360864e-11
0.014691103
-1.2320866e-10
0.014692075
-1.3629992e-10
0.014692982
-1.2923228e-10
0.014693828
-1.059497e-10
0.014694617
-8.004435e-11
0.014695353
-6.3953484e-11
0.014696039
-6.3548493e-11
0.014696677
-8.1147751e-11
0.014697271
-1.0623666e-10
0.014697825
-1.2472495e-10
0.014698338
-1.3418943e-10
0.014698817
-1.0943373e-10
0.014699257
-8.4096204e-11
0.01469967
-2.9312742e-11
0.014700046
7.1949066e-12
0.014700402
5.3012535e-11
0.01470072
9.3602106e-11
0.014701028
1.2742505e-10
1.638444e-10
0.010068394
-6.8393555e-05
0.010267405
-0.00019901112
0.010549879
-0.00028247387
0.010858545
-0.00030866648
0.011167288
-0.00030874341
0.011466046
-0.00029875788
0.01174706
-0.00028101346
0.012004047
-0.00025698757
0.012234567
-0.00023051984
0.012439713
-0.00020514591
0.012622275
-0.00018256237
0.012785275
-0.00016299957
0.0129315
-0.0001462249
0.013063403
-0.00013190311
0.013183077
-0.00011967424
0.013292252
-0.00010917459
0.013392321
-0.00010006906
0.013484397
-9.2076372e-05
0.013569373
-8.497527e-05
0.013647971
-7.8598635e-05
0.013720793
-7.2822323e-05
0.013788347
-6.7553948e-05
0.013851071
-6.272392e-05
0.01390935
-5.8278879e-05
0.013963527
-5.4176962e-05
0.014013912
-5.0384408e-05
0.014060785
-4.6873148e-05
0.014104404
-4.3619178e-05
0.014145005
-4.0601474e-05
0.014182807
-3.7801304e-05
0.014218009
-3.5201779e-05
0.014250796
-3.2787549e-05
0.014281341
-3.0544598e-05
0.014309801
-2.8460079e-05
0.014336323
-2.6522197e-05
0.014361043
-2.4720104e-05
0.014384087
-2.3043813e-05
0.014405571
-2.1484126e-05
0.014425604
-2.0032557e-05
0.014444285
-1.8681282e-05
0.014461708
-1.7423083e-05
0.014477959
-1.6251295e-05
0.014493119
-1.5159768e-05
0.014507262
-1.4142818e-05
0.014520457
-1.3195192e-05
0.014532769
-1.2312031e-05
0.014544258
-1.1488829e-05
0.014554979
-1.0721411e-05
0.014564985
-1.0005898e-05
0.014574324
-9.3386933e-06
0.01458304
-8.7164544e-06
0.014591177
-8.1360803e-06
0.014598771
-7.5946999e-06
0.014605861
-7.0896476e-06
0.01461248
-6.6184548e-06
0.014618658
-6.1788285e-06
0.014624427
-5.7686309e-06
0.014629813
-5.3858723e-06
0.014634842
-5.0286871e-06
0.014639537
-4.695336e-06
0.014643921
-4.3841972e-06
0.014648015
-4.0937602e-06
0.014651838
-3.8226332e-06
0.014655407
-3.5695228e-06
0.014658741
-3.3332377e-06
0.014661853
-3.112669e-06
0.01466476
-2.906775e-06
0.014667475
-2.7145807e-06
0.01467001
-2.5351586e-06
0.014672377
-2.3676334e-06
0.014674588
-2.2111918e-06
0.014676653
-2.0650695e-06
0.014678582
-1.9285829e-06
0.014680383
-1.8010855e-06
0.014682065
-1.6820134e-06
0.014683636
-1.5708084e-06
0.014685103
-1.4669751e-06
0.014686473
-1.3699831e-06
0.014687752
-1.2793948e-06
0.014688947
-1.1946746e-06
0.014690062
-1.115494e-06
0.014691103
-1.0413112e-06
0.014692075
-9.7198767e-07
0.014692982
-9.0691515e-07
0.014693829
-8.4622873e-07
0.014694617
-7.8905962e-07
0.014695353
-7.3598561e-07
0.014696039
-6.8552932e-07
0.014696677
-6.3914471e-07
0.014697271
-5.9415793e-07
0.014697825
-5.5378847e-07
0.014698338
-5.1303992e-07
0.014698817
-4.7852216e-07
0.014699257
-4.407366e-07
0.01469967
-4.1259218e-07
0.014700046
-3.7620026e-07
0.014700402
-3.5574132e-07
0.01470072
-3.1861884e-07
0.014701029
-3.0795609e-07
-2.7136243e-07
0.010097182
-0.00016557515
0.010346961
-0.00044879099
0.010662469
-0.00059798176
0.010982753
-0.00062895024
0.011290229
-0.00061621886
0.011575251
-0.00058378056
0.011829022
-0.00053478422
0.012047865
-0.00047583052
0.012233272
-0.00041592668
0.01238924
-0.00036111401
0.012520295
-0.00031361711
0.012630755
-0.00027346024
0.012724428
-0.00023989716
0.012804515
-0.00021199029
0.012873613
-0.00018877259
0.012933772
-0.00016933388
0.012986596
-0.00015289298
0.013033332
-0.00013881186
0.01307495
-0.00012659382
0.013112216
-0.00011586447
0.013145739
-0.00010634494
0.013176012
-9.7826984e-05
0.013203441
-9.0153334e-05
0.013228366
-8.3203334e-05
0.013251071
-7.6882589e-05
0.013271803
-7.1115552e-05
0.01329077
-6.5840304e-05
0.013308155
-6.1004936e-05
0.013324119
-5.6565104e-05
0.0133388
-5.2482368e-05
0.013352321
-4.8723041e-05
0.013364791
-4.5257381e-05
0.013376306
-4.2058967e-05
0.01338695
-3.9104232e-05
0.0133968
-3.6372083e-05
0.013405923
-3.3843582e-05
0.013414381
-3.150169e-05
0.013422228
-2.9331036e-05
0.013429513
-2.7317735e-05
0.013436281
-2.5449215e-05
0.013442572
-2.3714072e-05
0.013448423
-2.2101952e-05
0.013453866
-2.0603426e-05
0.013458933
-1.9209897e-05
0.013463652
-1.7913511e-05
0.013468047
-1.6707069e-05
0.013472142
-1.5583967e-05
0.013475959
-1.4538132e-05
0.013479517
-1.3563976e-05
0.013482834
-1.2656352e-05
0.013485928
-1.1810516e-05
0.013488814
-1.1022102e-05
0.013491507
-1.028708e-05
0.013494019
-9.6017333e-06
0.013496363
-8.9626241e-06
0.013498551
-8.36656e-06
0.013500593
-7.8105791e-06
0.013502499
-7.2919156e-06
0.013504278
-6.8079979e-06
0.013505939
-6.3564362e-06
0.01350749
-5.9350108e-06
0.013508938
-5.5416794e-06
0.01351029
-5.1745492e-06
0.013511552
-4.8318744e-06
0.013512731
-4.5120344e-06
0.013513832
-4.2135044e-06
0.01351486
-3.9348595e-06
0.01351582
-3.6747438e-06
0.013516716
-3.4318876e-06
0.013517554
-3.2051053e-06
0.013518336
-2.9932971e-06
0.013519066
-2.7954632e-06
0.013519749
-2.6106895e-06
0.013520386
-2.4381268e-06
0.013520981
-2.2770031e-06
0.013521537
-2.1265436e-06
0.013522056
-1.9860509e-06
0.01352254
-1.8547795e-06
0.013522993
-1.7321087e-06
0.013523415
-1.6173427e-06
0.01352381
-1.5100199e-06
0.013524178
-1.4094907e-06
0.013524522
-1.3155271e-06
0.013524843
-1.2273997e-06
0.013525142
-1.1451642e-06
0.01352542
-1.0677763e-06
0.01352568
-9.9575188e-07
0.013525921
-9.2741392e-07
0.013526146
-8.6423225e-07
0.013526355
-8.0332166e-07
0.013526549
-7.4806628e-07
0.01352673
-6.9313403e-07
0.013526897
-6.4556449e-07
0.013527051
-5.9510384e-07
0.013527194
-5.5576603e-07
0.013527326
-5.0778443e-07
0.013527448
-4.7844099e-07
0.01352756
-4.3036644e-07
0.013527666
-4.1460013e-07
-3.6515226e-07
0.010188704
-0.00035427931
0.010530487
-0.00079057333
0.010851453
-0.00091894819
0.011124174
-0.00090167136
0.011350581
-0.00084262624
0.011524486
-0.00075768561
0.01164633
-0.00065662747
0.011724155
-0.00055365589
0.011767999
-0.00045977084
0.011786639
-0.00037975353
0.011787114
-0.00031409256
0.011775058
-0.00026140422
0.011754861
-0.00021969945
0.011729768
-0.00018689785
0.011702054
-0.00016105803
0.011673239
-0.00014051898
0.011644339
-0.00012399301
0.011616003
-0.00011047604
0.011588629
-9.921989e-05
0.011562446
-8.9681397e-05
0.011537572
-8.1470637e-05
0.011514052
-7.4307802e-05
0.01149189
-6.7990452e-05
0.011471056
-6.2369962e-05
0.011451509
-5.7335013e-05
0.011433193
-5.2800211e-05
0.011416051
-4.8698313e-05
0.011400021
-4.4975006e-05
0.011385041
-4.158543e-05
0.011371051
-3.8491859e-05
0.01135799
-3.5662135e-05
0.011345801
-3.3068564e-05
0.01133443
-3.0687112e-05
0.011323822
-2.8496798e-05
0.011313929
-2.6479216e-05
0.011304704
-2.4618157e-05
0.011296101
-2.289929e-05
0.01128808
-2.1309912e-05
0.011280601
-1.9838724e-05
0.011273628
-1.8475645e-05
0.011267125
-1.7211658e-05
0.011261062
-1.6038672e-05
0.011255408
-1.4949398e-05
0.011250135
-1.3937253e-05
0.011245218
-1.2996262e-05
0.011240632
-1.2120995e-05
0.011236354
-1.1306495e-05
0.011232364
-1.0548233e-05
0.011228642
-9.8420654e-06
0.01122517
-9.1841974e-06
0.011221931
-8.5711544e-06
0.011218909
-7.9997474e-06
0.011216089
-7.4670452e-06
0.011213458
-6.9703447e-06
0.011211002
-6.5071408e-06
0.011208711
-6.0751076e-06
0.011206572
-5.6720783e-06
0.011204576
-5.2960372e-06
0.011202713
-4.9451157e-06
0.011200974
-4.617586e-06
0.011199351
-4.311861e-06
0.011197836
-4.0264793e-06
0.011196422
-3.7600932e-06
0.011195102
-3.5114502e-06
0.011193869
-3.2793706e-06
0.011192718
-3.0627405e-06
0.011191643
-2.8605015e-06
0.01119064
-2.6716552e-06
0.011189703
-2.4952762e-06
0.011188829
-2.3305109e-06
0.011188012
-2.1765934e-06
0.01118725
-2.0328245e-06
0.011186538
-1.8985692e-06
0.011185873
-1.7732221e-06
0.011185252
-1.6562055e-06
0.011184672
-1.5469354e-06
0.011184131
-1.4448652e-06
0.011183625
-1.3494346e-06
0.011183153
-1.2601878e-06
0.011182712
-1.176641e-06
0.011182301
-1.0984888e-06
0.011181917
-1.025305e-06
0.011181559
-9.5691831e-07
0.011181224
-8.9283306e-07
0.011180912
-8.329996e-07
0.01118062
-7.7671569e-07
0.011180348
-7.241908e-07
0.011180095
-6.744003e-07
0.011179859
-6.2812414e-07
0.011179639
-5.8375629e-07
0.011179435
-5.4310169e-07
0.011179245
-5.0334362e-07
0.011179067
-4.6806998e-07
0.011178904
-4.320751e-07
0.01117875
-4.0223188e-07
0.011178611
-3.6889719e-07
0.011178477
-3.4537041e-07
0.011178361
-3.1383221e-07
0.011178247
-3.0042189e-07
-2.6830259e-07
0.010339525
-0.00069380424
0.010570754
-0.0010218026
0.010606301
-0.00095449448
0.010547573
-0.00084294334
0.010422317
-0.00071737081
0.010244356
-0.00057972446
0.01003942
-0.00045169206
0.0098287426
-0.00034297802
0.009625135
-0.00025616317
0.0094353013
-0.00018991981
0.0092624278
-0.00014121895
0.0091075333
-0.00010650977
0.008970154
-8.2320208e-05
0.0088489024
-6.5646249e-05
0.0087419715
-5.4127275e-05
0.0086474926
-4.6040078e-05
0.0085636939
-4.0194321e-05
0.0084890107
-3.5792772e-05
0.0084221096
-3.2318757e-05
0.0083618776
-2.944926e-05
0.0083073955
-2.6988544e-05
0.008257908
-2.4820267e-05
0.0082127929
-2.2875458e-05
0.0081715353
-2.1112415e-05
0.0081337049
-1.9504674e-05
0.0080989387
-1.8034052e-05
0.0080669272
-1.6686767e-05
0.0080374036
-1.5451396e-05
0.0080101361
-1.4317875e-05
0.0079849213
-1.3277059e-05
0.0079615798
-1.2320557e-05
0.007939952
-1.1440676e-05
0.0079198952
-1.0630394e-05
0.0079012817
-9.8833436e-06
0.0078839962
-9.1937766e-06
0.0078679345
-8.5565282e-06
0.0078530022
-7.9669678e-06
0.0078391132
-7.4209531e-06
0.0078261893
-6.9147785e-06
0.0078141588
-6.4451264e-06
0.0078029563
-6.0090223e-06
0.0077925215
-5.6037883e-06
0.0077827991
-5.2270077e-06
0.0077737383
-4.8764884e-06
0.0077652922
-4.5502349e-06
0.0077574175
-4.2464276e-06
0.0077500743
-3.9634015e-06
0.0077432257
-3.6996365e-06
0.0077368374
-3.4537423e-06
0.0077308778
-3.2244478e-06
0.0077253173
-3.0105914e-06
0.0077201288
-2.8111031e-06
0.0077152868
-2.6249968e-06
0.0077107678
-2.4513544e-06
0.0077065498
-2.2893171e-06
0.0077026126
-2.138083e-06
0.0076989373
-1.9969003e-06
0.0076955063
-1.8650746e-06
0.0076923032
-1.7419667e-06
0.0076893128
-1.6269925e-06
0.0076865207
-1.519622e-06
0.0076839138
-1.4193644e-06
0.0076814795
-1.3257644e-06
0.0076792064
-1.2383868e-06
0.0076770836
-1.1568116e-06
0.0076751013
-1.0806368e-06
0.0076732501
-1.0094769e-06
0.0076715213
-9.4297871e-07
0.007669907
-8.8082415e-07
0.0076683994
-8.2273161e-07
0.0076669916
-7.6845888e-07
0.0076656767
-7.1777892e-07
0.0076644487
-6.7048149e-07
0.0076633017
-6.2634605e-07
0.0076622303
-5.8515115e-07
0.0076612297
-5.4666663e-07
0.0076602953
-5.1068126e-07
0.0076594228
-4.7699259e-07
0.0076586082
-4.4545597e-07
0.0076578477
-4.1592243e-07
0.0076571378
-3.8831872e-07
0.0076564751
-3.6250467e-07
0.0076558565
-3.3842744e-07
0.0076552792
-3.1588586e-07
0.0076547406
-2.9484189e-07
0.0076542385
-2.7501558e-07
0.0076537706
-2.5647561e-07
0.007653335
-2.3886553e-07
0.0076529294
-2.2247961e-07
0.0076525526
-2.0679835e-07
0.0076522019
-1.9242911e-07
0.0076518769
-1.7848749e-07
0.0076515744
-1.6602186e-07
0.0076512955
-1.5355087e-07
0.0076510356
-1.4279449e-07
0.0076507981
-1.3160068e-07
0.0076505751
-1.2250663e-07
0.0076503747
-1.1334885e-07
0.0076501808
-1.0686937e-07
-1.0713833e-07
0.0093061958
0.0082843931
0.0073298986
0.0064869553
0.0057695844
0.00518986
0.0047381679
0.00439519
0.0041390268
0.003949107
0.0038078881
0.0037013782
0.003619058
0.0035534117
0.0034992844
0.0034532444
0.0034130501
0.0033772574
0.0033449386
0.0033154894
0.0032885008
0.0032636805
0.003240805
0.0032196926
0.0032001879
0.0031821538
0.0031654671
0.0031500157
0.0031356979
0.0031224209
0.0031101003
0.0030986596
0.0030880292
0.0030781458
0.003068952
0.0030603954
0.0030524285
0.0030450076
0.0030380929
0.0030316478
0.0030256388
0.003020035
0.0030148079
0.0030099314
0.0030053811
0.0030011346
0.0029971712
0.0029934717
0.002990018
0.0029867936
0.002983783
0.0029809719
0.0029783469
0.0029758954
0.002973606
0.0029714679
0.002969471
0.002967606
0.0029658642
0.0029642373
0.0029627177
0.0029612983
0.0029599725
0.0029587339
0.002957577
0.0029564963
0.0029554869
0.002954544
0.0029536633
0.0029528407
0.0029520723
0.0029513545
0.0029506839
0.0029500574
0.0029494721
0.0029489253
0.0029484147
0.0029479379
0.0029474926
0.0029470769
0.0029466886
0.002946326
0.0029459874
0.0029456714
0.0029453765
0.0029451016
0.0029448453
0.0029446067
0.0029443844
0.0029441778
0.0029439855
0.002943807
0.002943641
0.0029434875
0.002943345
0.0029432137
0.0029430915
0.0029429785
0.0029428718
)
;

boundaryField
{
    top
    {
        type            calculated;
        value           uniform 0;
    }
    inlet
    {
        type            calculated;
        value           nonuniform List<scalar> 10(-0.01 -0.01 -0.01 -0.01 -0.01 -0.01 -0.01 -0.01 -0.01 -0.01);
    }
    outlet
    {
        type            calculated;
        value           nonuniform List<scalar> 10(0.0029427659 0.0076500207 0.01117815 0.01352776 0.0147013 0.0147013 0.01352776 0.01117815 0.0076500197 0.0029427651);
    }
    bottom
    {
        type            calculated;
        value           uniform 0;
    }
    back
    {
        type            empty;
        value           nonuniform 0();
    }
    front
    {
        type            empty;
        value           nonuniform 0();
    }
}


// ************************************************************************* //
