/*--------------------------------*- C++ -*----------------------------------*\
| =========                 |                                                 |
| \\      /  F ield         | OpenFOAM: The Open Source CFD Toolbox           |
|  \\    /   O peration     | Version:  v1812                                 |
|   \\  /    A nd           | Web:      www.OpenFOAM.com                      |
|    \\/     M anipulation  |                                                 |
\*---------------------------------------------------------------------------*/
FoamFile
{
    version     2.0;
    format      ascii;
    class       surfaceScalarField;
    location    "7";
    object      phi;
}
// * * * * * * * * * * * * * * * * * * * * * * * * * * * * * * * * * * * * * //

dimensions      [0 3 -1 0 0 0 0];
oriented        oriented;


internalField   nonuniform List<scalar> 
1890
(
0.0093061957
0.00069380425
0.0082843931
0.0010218027
0.0073298986
0.00095449449
0.0064869553
0.00084294334
0.0057695845
0.0007173708
0.00518986
0.00057972444
0.004738168
0.00045169205
0.00439519
0.00034297801
0.0041390268
0.00025616318
0.003949107
0.00018991983
0.003807888
0.00014121897
0.0037013782
0.0001065098
0.003619058
8.2320221e-05
0.0035534117
6.5646246e-05
0.0034992845
5.4127257e-05
0.0034532444
4.6040052e-05
0.0034130501
4.0194296e-05
0.0033772574
3.579276e-05
0.0033449386
3.2318761e-05
0.0033154893
2.9449282e-05
0.0032885007
2.6988577e-05
0.0032636804
2.4820303e-05
0.0032408049
2.2875487e-05
0.0032196925
2.111243e-05
0.0032001878
1.9504674e-05
0.0031821538
1.8034041e-05
0.003165467
1.6686754e-05
0.0031500157
1.5451392e-05
0.0031356978
1.4317891e-05
0.0031224207
1.3277101e-05
0.0031101
1.2320627e-05
0.0030986593
1.1440769e-05
0.0030880287
1.0630505e-05
0.0030781453
9.8834659e-06
0.0030689514
9.193909e-06
0.0030603947
8.5566737e-06
0.0030524276
7.967135e-06
0.0030450064
7.4211499e-06
0.0030380914
6.9150058e-06
0.0030316461
6.4453686e-06
0.0030256368
6.0092352e-06
0.003020033
5.6038909e-06
0.0030148061
5.22687e-06
0.0030099302
4.8759221e-06
0.0030053812
4.548983e-06
0.0030011371
4.2441491e-06
0.0029971774
3.9596595e-06
0.0029934836
3.6938742e-06
0.0029900384
3.4452685e-06
0.0029868261
3.2124156e-06
0.0029838322
2.9939907e-06
0.0029810435
2.7887562e-06
0.0029784481
2.5955747e-06
0.0029760348
2.413396e-06
0.0029737936
2.2412765e-06
0.0029717154
2.0783634e-06
0.0029697916
1.9239194e-06
0.0029680144
1.7773004e-06
0.0029663766
1.637981e-06
0.0029648712
1.5055252e-06
0.0029634917
1.3796092e-06
0.0029622318
1.2599839e-06
0.0029610854
1.1464934e-06
0.0029600465
1.039033e-06
0.002959109
9.3756332e-07
0.002958267
8.4206578e-07
0.0029575144
7.5255367e-07
0.0029568454
6.6903259e-07
0.0029562539
5.9150822e-07
0.0029557339
5.1995448e-07
0.0029552796
4.5431905e-07
0.002954885
3.9450468e-07
0.0029545446
3.4037166e-07
0.0029542528
2.9173216e-07
0.0029540043
2.4835253e-07
0.0029537943
2.0996058e-07
0.002953618
1.7624693e-07
0.0029534711
1.4688142e-07
0.0029533496
1.215102e-07
0.0029532498
9.977991e-08
0.0029531685
8.132367e-08
0.0029531026
6.5791006e-08
0.0029530497
5.2826279e-08
0.0029530075
4.2102034e-08
0.0029529742
3.3297479e-08
0.002952948
2.6129635e-08
0.0029529277
2.0335735e-08
0.0029529121
1.5695373e-08
0.0029529002
1.2011245e-08
0.0029528911
9.120945e-09
0.0029528842
6.8798253e-09
0.0029528789
5.1628491e-09
0.002952875
3.8639475e-09
0.0029528721
2.8845775e-09
0.0029528699
2.1652262e-09
0.0029528683
1.6385791e-09
0.002952867
1.3013908e-09
0.0029528659
1.1273184e-09
0.0029528648
1.2277351e-09
1.3879502e-09
0.010339525
0.00035427932
0.010570754
0.00079057335
0.010606301
0.00091894821
0.010547572
0.00090167137
0.010422317
0.00084262624
0.010244356
0.00075768559
0.010039421
0.00065662744
0.0098287427
0.00055365586
0.009625135
0.00045977083
0.0094353013
0.00037975354
0.0092624277
0.00031409259
0.0091075332
0.00026140426
0.0089701539
0.00021969949
0.0088489023
0.00018689787
0.0087419716
0.00016105803
0.0086474926
0.00014051896
0.008563694
0.00012399297
0.0084890107
0.00011047601
0.0084221096
9.9219876e-05
0.0083618775
8.9681408e-05
0.0083073954
8.1470674e-05
0.0082579078
7.4307857e-05
0.0082127928
6.7990516e-05
0.0081715352
6.2370021e-05
0.0081337048
5.7335056e-05
0.0080989386
5.2800234e-05
0.0080669271
4.869832e-05
0.0080374035
4.497501e-05
0.0080101359
4.1585445e-05
0.0079849211
3.8491901e-05
0.0079615795
3.5662214e-05
0.0079399516
3.306868e-05
0.0079198948
3.0687254e-05
0.0079012813
2.8496947e-05
0.0078839959
2.6479346e-05
0.0078679343
2.4618235e-05
0.0078530022
2.2899279e-05
0.0078391136
2.130976e-05
0.0078261903
1.9838351e-05
0.0078141607
1.8474925e-05
0.0078029596
1.7210391e-05
0.0077925269
1.6036552e-05
0.0077828078
1.4945982e-05
0.0077737518
1.393192e-05
0.0077653126
1.2988184e-05
0.0077574476
1.2109097e-05
0.0077501178
1.1289416e-05
0.0077432874
1.0524292e-05
0.0077369235
9.8092207e-06
0.0077309959
9.1400224e-06
0.0077254771
8.5128102e-06
0.007720342
7.9239919e-06
0.0077155673
7.3702485e-06
0.0077111322
6.8485545e-06
0.0077070173
6.3561592e-06
0.0077032051
5.8906176e-06
0.0076996793
5.4497674e-06
0.0076964249
5.0317619e-06
0.0076934278
4.635034e-06
0.0076906751
4.2583235e-06
0.0076881541
3.9006246e-06
0.0076858529
3.5612006e-06
0.0076837598
3.239517e-06
0.0076818636
2.9352423e-06
0.007680153
2.6481729e-06
0.0076786168
2.3782219e-06
0.0076772439
2.125347e-06
0.0076760234
1.8895331e-06
0.0076749441
1.670732e-06
0.0076739951
1.4688437e-06
0.0076731657
1.283679e-06
0.0076724451
1.1149426e-06
0.0076718231
9.6222135e-07
0.0076712898
8.2497418e-07
0.0076708354
7.0254447e-07
0.0076704511
5.9415852e-07
0.0076701284
4.9895883e-07
0.0076698592
4.1600283e-07
0.0076696364
3.4431355e-07
0.0076694533
2.8286879e-07
0.0076693039
2.3066144e-07
0.0076691829
1.8667329e-07
0.0076690857
1.4994021e-07
0.0076690082
1.1951675e-07
0.0076689469
9.4542476e-08
0.0076688988
7.4198356e-08
0.0076688614
5.7776469e-08
0.0076688326
4.4617601e-08
0.0076688105
3.4186238e-08
0.0076687936
2.5977588e-08
0.0076687809
1.9606528e-08
0.0076687713
1.4691205e-08
0.0076687641
1.0963273e-08
0.0076687588
8.1400209e-09
0.0076687549
6.054982e-09
0.007668752
4.5195576e-09
0.0076687499
3.4679682e-09
0.0076687483
2.782542e-09
0.0076687472
2.4916027e-09
2.2961503e-09
0.010188704
0.00016557515
0.010530487
0.000448791
0.010851453
0.00059798177
0.011124174
0.00062895025
0.011350581
0.00061621887
0.011524486
0.00058378055
0.01164633
0.00053478421
0.011724155
0.00047583049
0.011767999
0.00041592666
0.011786639
0.000361114
0.011787114
0.00031361712
0.011775058
0.00027346026
0.011754861
0.00023989719
0.011729768
0.00021199032
0.011702054
0.00018877262
0.011673239
0.00016933389
0.011644339
0.00015289297
0.011616003
0.00013881184
0.011588629
0.0001265938
0.011562446
0.00011586446
0.011537571
0.00010634496
0.011514052
9.7827028e-05
0.011491889
9.0153398e-05
0.011471056
8.320341e-05
0.011451508
7.6882666e-05
0.011433193
7.111562e-05
0.011416051
6.5840357e-05
0.011400021
6.1004977e-05
0.011385041
5.6565142e-05
0.011371051
5.2482415e-05
0.01135799
4.8723111e-05
0.011345801
4.5257478e-05
0.011334429
4.2059088e-05
0.011323822
3.9104359e-05
0.011313929
3.6372182e-05
0.011304704
3.3843603e-05
0.011296101
3.1501563e-05
0.01128808
2.933067e-05
0.011280602
2.7316999e-05
0.011273629
2.5447923e-05
0.011267127
2.3711957e-05
0.011261065
2.2098625e-05
0.011255413
2.0598337e-05
0.011250142
1.920229e-05
0.011245228
1.790237e-05
0.011240646
1.669108e-05
0.011236374
1.5561462e-05
0.011232391
1.4507052e-05
0.011228679
1.3521824e-05
0.011225219
1.2600165e-05
0.011221995
1.1736839e-05
0.011218992
1.0926982e-05
0.011216196
1.0166086e-05
0.011213595
9.4500023e-06
0.011211176
8.7749474e-06
0.011208929
8.1375024e-06
0.011206844
7.5346322e-06
0.011204912
6.9636733e-06
0.011203125
6.4223552e-06
0.011201475
5.9087689e-06
0.011199954
5.4213809e-06
0.011198556
4.9589788e-06
0.011197275
4.5206731e-06
0.011196104
4.1058209e-06
0.011195039
3.7140159e-06
0.011194072
3.3449992e-06
0.011193198
2.9986409e-06
0.011192413
2.67485e-06
0.01119171
2.3735553e-06
0.011191084
2.0946268e-06
0.01119053
1.8378614e-06
0.011190042
1.6029278e-06
0.011189615
1.3893624e-06
0.011189243
1.1965425e-06
0.011188922
1.0236937e-06
0.011188646
8.6989101e-07
0.011188411
7.3407951e-07
0.011188212
6.1509446e-07
0.011188044
5.1168699e-07
0.011187905
4.2255552e-07
0.011187789
3.4636904e-07
0.011187694
2.8179951e-07
0.011187616
2.2754074e-07
0.011187553
1.8233479e-07
0.011187502
1.4499102e-07
0.011187462
1.1440046e-07
0.01118743
8.9556215e-08
0.011187406
6.9548789e-08
0.011187386
5.3583487e-08
0.011187371
4.0957134e-08
0.01118736
3.1072606e-08
0.011187351
2.3405626e-08
0.011187344
1.7524423e-08
0.011187339
1.3053377e-08
0.011187336
9.6997034e-09
0.011187333
7.2081624e-09
0.011187331
5.4343135e-09
0.01118733
4.1563e-09
0.011187329
3.4675282e-09
2.7700975e-09
0.010097182
6.8393556e-05
0.010346961
0.00019901112
0.010662469
0.00028247387
0.010982753
0.00030866649
0.011290229
0.00030874342
0.011575251
0.00029875789
0.011829022
0.00028101346
0.012047865
0.00025698756
0.012233272
0.00023051982
0.01238924
0.0002051459
0.012520295
0.00018256236
0.012630755
0.00016299958
0.012724428
0.00014622492
0.012804515
0.00013190313
0.012873613
0.00011967427
0.012933772
0.00010917462
0.012986596
0.00010006908
0.013033332
9.2076379e-05
0.01307495
8.4975272e-05
0.013112216
7.8598639e-05
0.013145739
7.2822335e-05
0.013176012
6.7553976e-05
0.013203441
6.2723967e-05
0.013228366
5.8278945e-05
0.013251071
5.4177041e-05
0.013271802
5.0384492e-05
0.01329077
4.6873231e-05
0.013308155
4.3619255e-05
0.013324119
4.0601546e-05
0.0133388
3.7801376e-05
0.013352321
3.520186e-05
0.013364791
3.2787646e-05
0.013376305
3.0544713e-05
0.01338695
2.8460205e-05
0.013396799
2.6522314e-05
0.013405923
2.4720177e-05
0.013414381
2.3043791e-05
0.013422227
2.1483935e-05
0.013429512
2.0032099e-05
0.01343628
1.8680424e-05
0.01344257
1.7421638e-05
0.01344842
1.6249003e-05
0.013453862
1.5156266e-05
0.013458926
1.4137608e-05
0.013463641
1.3187611e-05
0.013468031
1.230121e-05
0.013472119
1.1473668e-05
0.013475925
1.0700543e-05
0.013479469
9.9776666e-06
0.013482768
9.301132e-06
0.013485838
8.6672694e-06
0.013488692
8.0726521e-06
0.013491344
7.5140761e-06
0.013493806
6.9885854e-06
0.013496087
6.4934448e-06
0.013498199
6.026184e-06
0.013500149
5.5845589e-06
0.013501946
5.1666079e-06
0.013503598
4.7705969e-06
0.013505111
4.3950821e-06
0.013506494
4.0388328e-06
0.013507752
3.700895e-06
0.013508892
3.3804933e-06
0.013509921
3.0770899e-06
0.013510845
2.7902711e-06
0.01351167
2.519798e-06
0.013512403
2.2654878e-06
0.013513051
2.0272569e-06
0.013513619
1.8050087e-06
0.013514115
1.598667e-06
0.013514545
1.408086e-06
0.013514915
1.2330753e-06
0.013515231
1.0733402e-06
0.013515499
9.2850061e-07
0.013515724
7.9806044e-07
0.013515913
6.8142593e-07
0.013516069
5.7790898e-07
0.013516197
4.8673098e-07
0.013516302
4.0705601e-07
0.013516386
3.3798212e-07
0.013516454
2.7859862e-07
0.013516508
2.2795555e-07
0.01351655
1.8514227e-07
0.013516583
1.4923513e-07
0.013516609
1.1938985e-07
0.013516629
9.4774084e-08
0.013516644
7.4661112e-08
0.013516655
5.8349632e-08
0.013516663
4.525696e-08
0.013516669
3.482217e-08
0.013516674
2.6605306e-08
0.013516677
2.0173187e-08
0.013516679
1.5212237e-08
0.013516681
1.139494e-08
0.013516682
8.5230515e-09
0.013516683
6.3368348e-09
0.013516684
4.7840499e-09
0.013516684
3.5784206e-09
0.013516685
2.9307375e-09
2.189886e-09
0.010068394
5.9108959e-15
0.010267405
1.2735142e-13
0.010549879
1.9549241e-13
0.010858545
2.8175878e-13
0.011167288
5.1793862e-13
0.011466046
9.4971655e-13
0.01174706
1.590893e-12
0.012004047
2.43258e-12
0.012234567
3.3541281e-12
0.012439713
4.3340282e-12
0.012622275
5.2373494e-12
0.012785275
6.0789466e-12
0.0129315
6.9063437e-12
0.013063403
7.8382608e-12
0.013183077
9.141463e-12
0.013292252
1.0999131e-11
0.013392321
1.3616101e-11
0.013484397
1.7081241e-11
0.013569373
2.1247875e-11
0.013647971
2.6109585e-11
0.013720794
3.1248679e-11
0.013788347
3.670466e-11
0.013851071
4.2160373e-11
0.01390935
4.7781717e-11
0.013963527
5.3673538e-11
0.014013912
6.01883e-11
0.014060785
6.7736073e-11
0.014104404
7.6742619e-11
0.014145005
8.726493e-11
0.014182807
9.9505277e-11
0.014218009
1.1271591e-10
0.014250796
1.2693483e-10
0.014281341
1.4087726e-10
0.014309801
1.5466144e-10
0.014336323
1.6711761e-10
0.014361043
1.7851745e-10
0.014384086
1.8803959e-10
0.01440557
1.9600283e-10
0.014425602
2.0184082e-10
0.014444282
2.056808e-10
0.014461704
2.0645374e-10
0.014477952
2.0370917e-10
0.014493108
1.9594716e-10
0.014507246
1.8222371e-10
0.014520433
1.6138699e-10
0.014532734
1.3203012e-10
0.014544208
9.5497826e-11
0.014554908
5.0374747e-11
0.014564886
-5.0586431e-12
0.014574187
-6.9284757e-11
0.014582855
-1.3601076e-10
0.014590927
-2.0908719e-10
0.014598442
-2.8048757e-10
0.014605431
-3.554246e-10
0.014611925
-4.2326168e-10
0.014617951
-4.9089089e-10
0.014623536
-5.4568869e-10
0.014628703
-5.9720589e-10
0.014633475
-6.3139418e-10
0.01463787
-6.5946384e-10
0.01464191
-6.672817e-10
0.014645612
-6.6846413e-10
0.014648993
-6.4967036e-10
0.01465207
-6.2450049e-10
0.014654861
-5.811046e-10
0.014657382
-5.3295136e-10
0.014659648
-4.7016224e-10
0.014661675
-4.0369512e-10
0.014663481
-3.2699736e-10
0.01466508
-2.4958315e-10
0.014666488
-1.7000115e-10
0.014667721
-9.4165749e-11
0.014668794
-2.5926959e-11
0.014669723
4.2427876e-11
0.014670521
9.6841154e-11
0.014671202
1.4390487e-10
0.01467178
1.8199474e-10
0.014672267
2.1681635e-10
0.014672674
2.4353269e-10
0.014673011
2.6964568e-10
0.01467329
2.8528019e-10
0.014673517
3.0015507e-10
0.014673702
3.0119041e-10
0.014673851
2.9994648e-10
0.01467397
2.8514821e-10
0.014674065
2.7203545e-10
0.014674139
2.5087238e-10
0.014674197
2.3693144e-10
0.014674243
2.1860085e-10
0.014674277
2.0997202e-10
0.014674304
1.9726846e-10
0.014674324
1.9292864e-10
0.014674339
1.8267482e-10
0.01467435
1.8080649e-10
0.014674358
1.6959009e-10
0.014674364
1.6336853e-10
0.014674369
1.4870289e-10
0.014674373
1.3351387e-10
0.014674376
1.2567806e-10
1.2894326e-10
0.010068394
-6.8393556e-05
0.010267405
-0.00019901112
0.010549879
-0.00028247387
0.010858545
-0.00030866649
0.011167288
-0.00030874342
0.011466046
-0.00029875788
0.01174706
-0.00028101345
0.012004047
-0.00025698755
0.012234567
-0.00023051981
0.012439713
-0.00020514589
0.012622275
-0.00018256235
0.012785275
-0.00016299957
0.0129315
-0.00014622491
0.013063403
-0.00013190312
0.013183077
-0.00011967425
0.013292252
-0.0001091746
0.013392321
-0.00010006905
0.013484397
-9.2076347e-05
0.013569373
-8.4975231e-05
0.013647971
-7.8598589e-05
0.013720794
-7.2822276e-05
0.013788347
-6.7553906e-05
0.013851071
-6.2723888e-05
0.01390935
-5.8278855e-05
0.013963527
-5.4176941e-05
0.014013912
-5.038438e-05
0.014060785
-4.6873105e-05
0.014104404
-4.3619112e-05
0.014145006
-4.0601383e-05
0.014182807
-3.7801191e-05
0.014218009
-3.520165e-05
0.014250796
-3.2787411e-05
0.014281341
-3.0544452e-05
0.014309801
-2.845992e-05
0.014336323
-2.6522007e-05
0.014361043
-2.4719851e-05
0.014384087
-2.3043448e-05
0.01440557
-2.1483579e-05
0.014425602
-2.0031733e-05
0.014444283
-1.8680052e-05
0.014461704
-1.7421265e-05
0.014477953
-1.6248636e-05
0.014493109
-1.5155913e-05
0.014507246
-1.4137281e-05
0.014520434
-1.3187321e-05
0.014532735
-1.2300972e-05
0.014544208
-1.1473496e-05
0.014554909
-1.0700454e-05
0.014564887
-9.9776765e-06
0.014574188
-9.3012537e-06
0.014582855
-8.6675099e-06
0.014590928
-8.0730195e-06
0.014598442
-7.5145711e-06
0.014605431
-6.9892097e-06
0.014611925
-6.4941905e-06
0.014617951
-6.0270457e-06
0.014623536
-5.5855201e-06
0.014628703
-5.1676573e-06
0.014633475
-4.7717104e-06
0.01463787
-4.3962432e-06
0.01464191
-4.0400133e-06
0.014645611
-3.7020774e-06
0.014648992
-3.3816486e-06
0.01465207
-3.0782018e-06
0.01465486
-2.7913128e-06
0.014657381
-2.5207563e-06
0.014659647
-2.2663399e-06
0.014661674
-2.0279924e-06
0.01466348
-1.8056111e-06
0.014665078
-1.5991328e-06
0.014666487
-1.408411e-06
0.01466772
-1.2332653e-06
0.014668793
-1.0734036e-06
0.014669722
-9.2844846e-07
0.01467052
-7.9790982e-07
0.014671201
-6.8119131e-07
0.014671779
-5.7760313e-07
0.014672266
-4.863615e-07
0.014672673
-4.0663343e-07
0.01467301
-3.375116e-07
0.014673289
-2.7809406e-07
0.014673517
-2.2742496e-07
0.014673702
-1.8460601e-07
0.01467385
-1.4870371e-07
0.01467397
-1.1888162e-07
0.014674064
-9.4292085e-08
0.014674139
-7.4213388e-08
0.014674197
-5.7929557e-08
0.014674242
-4.486467e-08
0.014674277
-3.4448337e-08
0.014674303
-2.6250513e-08
0.014674323
-1.9831402e-08
0.014674338
-1.4885219e-08
0.01467435
-1.1075538e-08
0.014674358
-8.2207412e-09
0.014674364
-6.0445764e-09
0.014674369
-4.5148798e-09
0.014674373
-3.3302733e-09
0.014674375
-2.699072e-09
-1.9637937e-09
0.010097182
-0.00016557515
0.010346961
-0.000448791
0.010662469
-0.00059798177
0.010982753
-0.00062895025
0.011290229
-0.00061621886
0.011575251
-0.00058378055
0.011829022
-0.0005347842
0.012047865
-0.00047583049
0.012233272
-0.00041592665
0.01238924
-0.00036111399
0.012520295
-0.00031361711
0.012630755
-0.00027346025
0.012724428
-0.00023989718
0.012804515
-0.00021199031
0.012873613
-0.0001887726
0.012933772
-0.00016933387
0.012986596
-0.00015289295
0.013033332
-0.00013881181
0.01307495
-0.00012659377
0.013112216
-0.00011586442
0.013145739
-0.00010634491
0.013176012
-9.7826971e-05
0.013203441
-9.0153333e-05
0.013228366
-8.3203338e-05
0.013251071
-7.6882586e-05
0.013271803
-7.1115531e-05
0.01329077
-6.5840258e-05
0.013308155
-6.1004865e-05
0.013324119
-5.6565015e-05
0.0133388
-5.248227e-05
0.013352322
-4.8722947e-05
0.013364791
-4.5257297e-05
0.013376306
-4.2058888e-05
0.01338695
-3.9104144e-05
0.0133968
-3.6371952e-05
0.013405923
-3.3843363e-05
0.013414381
-3.1501314e-05
0.013422228
-2.9330415e-05
0.013429513
-2.7316741e-05
0.013436281
-2.5447665e-05
0.013442571
-2.3711703e-05
0.013448421
-2.209838e-05
0.013453863
-2.0598108e-05
0.013458928
-1.9202085e-05
0.013463643
-1.79022e-05
0.013468033
-1.6690952e-05
0.01347212
-1.5561392e-05
0.013475927
-1.4507046e-05
0.013479471
-1.3521897e-05
0.01348277
-1.2600317e-05
0.01348584
-1.1737085e-05
0.013488694
-1.0927312e-05
0.013491346
-1.0166513e-05
0.013493807
-9.4505101e-06
0.013496088
-8.7755448e-06
0.0134982
-8.1381667e-06
0.013500149
-7.53537e-06
0.013501946
-6.9644551e-06
0.013503597
-6.4231853e-06
0.013505111
-5.9096132e-06
0.013506493
-5.4222438e-06
0.013507751
-4.9598247e-06
0.013508891
-4.5215063e-06
0.013509919
-4.1066075e-06
0.013510842
-3.7147614e-06
0.013511667
-3.3456729e-06
0.0135124
-2.999247e-06
0.013513048
-2.6753638e-06
0.013513616
-2.3739805e-06
0.013514112
-2.0949491e-06
0.013514541
-1.8380869e-06
0.013514911
-1.6030567e-06
0.013515227
-1.3894049e-06
0.013515495
-1.1965084e-06
0.013515721
-1.0235926e-06
0.013515909
-8.6973634e-07
0.013516066
-7.338727e-07
0.013516194
-6.1484804e-07
0.013516299
-5.1139493e-07
0.013516384
-4.2223535e-07
0.013516452
-3.4601286e-07
0.013516506
-2.8143448e-07
0.013516548
-2.2716196e-07
0.013516582
-1.8197304e-07
0.013516607
-1.4463768e-07
0.013516627
-1.1408015e-07
0.013516642
-8.9250248e-08
0.013516654
-6.9274575e-08
0.013516662
-5.3313188e-08
0.013516669
-4.0710199e-08
0.013516673
-3.0822187e-08
0.013516677
-2.3177934e-08
0.013516679
-1.7293021e-08
0.013516681
-1.284437e-08
0.013516682
-9.488257e-09
0.013516683
-7.0128681e-09
0.013516684
-5.2419272e-09
0.013516684
-3.9791041e-09
0.013516685
-3.2969475e-09
-2.6119561e-09
0.010188704
-0.00035427932
0.010530487
-0.00079057335
0.010851453
-0.00091894821
0.011124174
-0.00090167137
0.011350581
-0.00084262624
0.011524486
-0.00075768559
0.01164633
-0.00065662744
0.011724155
-0.00055365586
0.011767999
-0.00045977083
0.011786639
-0.00037975353
0.011787114
-0.00031409258
0.011775058
-0.00026140425
0.011754861
-0.00021969948
0.011729768
-0.00018689786
0.011702054
-0.00016105802
0.011673239
-0.00014051895
0.011644339
-0.00012399296
0.011616003
-0.00011047599
0.011588629
-9.9219853e-05
0.011562446
-8.968138e-05
0.011537572
-8.1470642e-05
0.011514052
-7.4307822e-05
0.01149189
-6.7990477e-05
0.011471056
-6.2369978e-05
0.011451509
-5.7335009e-05
0.011433193
-5.2800182e-05
0.011416051
-4.8698262e-05
0.011400021
-4.4974943e-05
0.011385042
-4.158537e-05
0.011371051
-3.8491816e-05
0.01135799
-3.5662119e-05
0.011345802
-3.3068576e-05
0.01133443
-3.0687143e-05
0.011323823
-2.849683e-05
0.01131393
-2.6479225e-05
0.011304705
-2.4618112e-05
0.011296102
-2.2899155e-05
0.011288082
-2.1309636e-05
0.011280603
-1.9838229e-05
0.01127363
-1.8474807e-05
0.011267129
-1.721028e-05
0.011261067
-1.6036452e-05
0.011255415
-1.4945896e-05
0.011250144
-1.3931854e-05
0.01124523
-1.2988145e-05
0.011240648
-1.2109089e-05
0.011236376
-1.1289445e-05
0.011232394
-1.0524362e-05
0.011228681
-9.8093374e-06
0.011225221
-9.1401853e-06
0.011221997
-8.5130227e-06
0.011218994
-7.9242505e-06
0.011216198
-7.3705551e-06
0.011213596
-6.8489011e-06
0.011211177
-6.3565463e-06
0.01120893
-5.8910349e-06
0.011206844
-5.4502141e-06
0.011204912
-5.0322237e-06
0.011203124
-4.63551e-06
0.011201473
-4.2587991e-06
0.011199952
-3.901099e-06
0.011198554
-3.5616591e-06
0.011197272
-3.23996e-06
0.011196101
-2.935657e-06
0.011195035
-2.6485591e-06
0.011194068
-2.378568e-06
0.011193194
-2.125652e-06
0.011192409
-1.8897872e-06
0.011191706
-1.6709349e-06
0.01119108
-1.4689922e-06
0.011190525
-1.2837769e-06
0.011190037
-1.1149942e-06
0.01118961
-9.6223329e-07
0.011189238
-8.2495442e-07
0.011188917
-7.0249683e-07
0.011188642
-5.9408732e-07
0.011188407
-4.9886152e-07
0.011188208
-4.1588274e-07
0.011188041
-3.4416711e-07
0.011187901
-2.8270401e-07
0.011187786
-2.304798e-07
0.011187691
-1.8649064e-07
0.011187613
-1.4975987e-07
0.011187551
-1.1935108e-07
0.0111875
-9.4387804e-08
0.01118746
-7.4059592e-08
0.011187429
-5.7642579e-08
0.011187404
-4.4490276e-08
0.011187385
-3.4055476e-08
0.01118737
-2.5852707e-08
0.011187359
-1.948322e-08
0.01118735
-1.4580959e-08
0.011187344
-1.0861927e-08
0.011187339
-8.0519941e-09
0.011187335
-5.9684916e-09
0.011187333
-4.4270221e-09
0.011187331
-3.378953e-09
0.01118733
-2.6896847e-09
0.011187329
-2.3827116e-09
-2.2011121e-09
0.010339525
-0.00069380425
0.010570754
-0.0010218027
0.010606301
-0.00095449449
0.010547572
-0.00084294334
0.010422317
-0.0007173708
0.010244356
-0.00057972444
0.010039421
-0.00045169204
0.0098287427
-0.00034297801
0.009625135
-0.00025616318
0.0094353013
-0.00018991983
0.0092624277
-0.00014121897
0.0091075332
-0.0001065098
0.008970154
-8.232022e-05
0.0088489023
-6.5646243e-05
0.0087419716
-5.4127253e-05
0.0086474927
-4.6040046e-05
0.008563694
-4.0194289e-05
0.0084890108
-3.5792751e-05
0.0084221097
-3.2318752e-05
0.0083618776
-2.9449272e-05
0.0083073955
-2.6988568e-05
0.008257908
-2.4820294e-05
0.0082127929
-2.2875477e-05
0.0081715354
-2.1112419e-05
0.008133705
-1.9504661e-05
0.0080989389
-1.8034024e-05
0.0080669274
-1.6686733e-05
0.0080374038
-1.5451369e-05
0.0080101363
-1.4317865e-05
0.0079849216
-1.3277073e-05
0.0079615801
-1.2320599e-05
0.0079399522
-1.1440742e-05
0.0079198955
-1.0630478e-05
0.0079012821
-9.8834394e-06
0.0078839967
-9.1938821e-06
0.0078679353
-8.556646e-06
0.0078530032
-7.9671055e-06
0.0078391147
-7.4211192e-06
0.0078261915
-6.9149741e-06
0.007814162
-6.4453376e-06
0.0078029609
-6.0092065e-06
0.0077925283
-5.6038666e-06
0.0077828092
-5.2268512e-06
0.0077737532
-4.8759102e-06
0.007765314
-4.5489771e-06
0.007757449
-4.2441507e-06
0.0077501192
-3.9596653e-06
0.0077432887
-3.6938872e-06
0.0077369246
-3.4452838e-06
0.0077309969
-3.212439e-06
0.0077254779
-2.9940164e-06
0.0077203424
-2.7887921e-06
0.0077155675
-2.5956128e-06
0.0077111321
-2.4134461e-06
0.0077070169
-2.2413281e-06
0.0077032043
-2.078427e-06
0.0076996781
-1.9239809e-06
0.0076964233
-1.7773718e-06
0.0076934259
-1.6380473e-06
0.0076906727
-1.5056004e-06
0.0076881514
-1.3796776e-06
0.0076858499
-1.2600605e-06
0.0076837566
-1.146563e-06
0.0076818601
-1.0391098e-06
0.0076801492
-9.3763093e-07
0.0076786129
-8.4213484e-07
0.0076772399
-7.5260976e-07
0.0076760193
-6.6908405e-07
0.00767494
-5.9154669e-07
0.0076739911
-5.1998733e-07
0.0076731617
-4.543459e-07
0.0076724412
-3.9453045e-07
0.0076718194
-3.4039855e-07
0.0076712861
-2.917563e-07
0.007670832
-2.4837339e-07
0.0076704479
-2.0996623e-07
0.0076701254
-1.7624047e-07
0.0076698565
-1.4685081e-07
0.0076696339
-1.2147221e-07
0.007669451
-9.9728001e-08
0.0076693018
-8.1285949e-08
0.007669181
-6.5756578e-08
0.007669084
-5.2816044e-08
0.0076690067
-4.2091163e-08
0.0076689456
-3.3295291e-08
0.0076688977
-2.6105361e-08
0.0076688604
-2.030339e-08
0.0076688317
-1.5636237e-08
0.0076688098
-1.1957263e-08
0.0076687931
-9.0623579e-09
0.0076687804
-6.8506764e-09
0.0076687709
-5.1429111e-09
0.0076687638
-3.8739553e-09
0.0076687586
-2.8847662e-09
0.0076687548
-2.168387e-09
0.007668752
-1.6217784e-09
0.0076687499
-1.2796083e-09
0.0076687484
-1.0801807e-09
0.0076687472
-1.1659988e-09
-1.3450774e-09
0.0093061957
0.0082843931
0.0073298986
0.0064869553
0.0057695845
0.00518986
0.004738168
0.00439519
0.0041390268
0.003949107
0.003807888
0.0037013782
0.003619058
0.0035534117
0.0034992845
0.0034532444
0.0034130502
0.0033772574
0.0033449387
0.0033154894
0.0032885008
0.0032636805
0.003240805
0.0032196926
0.0032001879
0.0031821539
0.0031654672
0.0031500158
0.003135698
0.0031224209
0.0031101003
0.0030986595
0.0030880291
0.0030781456
0.0030689517
0.0030603951
0.003052428
0.0030450069
0.0030380919
0.0030316465
0.0030256373
0.0030200335
0.0030148066
0.0030099307
0.0030053817
0.0030011375
0.0029971778
0.0029934839
0.0029900387
0.0029868263
0.0029838323
0.0029810435
0.0029784479
0.0029760346
0.0029737933
0.0029717149
0.002969791
0.0029680137
0.0029663757
0.0029648702
0.0029634906
0.0029622306
0.0029610841
0.0029600451
0.0029591076
0.0029582655
0.002957513
0.002956844
0.0029562525
0.0029557325
0.0029552782
0.0029548837
0.0029545433
0.0029542515
0.0029540032
0.0029537932
0.002953617
0.0029534702
0.0029533488
0.0029532491
0.0029531678
0.002953102
0.0029530492
0.0029530071
0.0029529738
0.0029529477
0.0029529275
0.0029529119
0.0029529
0.002952891
0.0029528841
0.0029528789
0.002952875
0.0029528721
0.0029528699
0.0029528683
0.002952867
0.002952866
0.0029528649
)
;

boundaryField
{
    top
    {
        type            calculated;
        value           uniform 0;
    }
    inlet
    {
        type            calculated;
        value           nonuniform List<scalar> 10(-0.01 -0.01 -0.01 -0.01 -0.01 -0.01 -0.01 -0.01 -0.01 -0.01);
    }
    outlet
    {
        type            calculated;
        value           nonuniform List<scalar> 10(0.0029528634 0.0076687463 0.011187329 0.013516686 0.014674378 0.014674378 0.013516686 0.011187329 0.0076687464 0.0029528635);
    }
    bottom
    {
        type            calculated;
        value           uniform 0;
    }
    back
    {
        type            empty;
        value           nonuniform 0();
    }
    front
    {
        type            empty;
        value           nonuniform 0();
    }
}


// ************************************************************************* //
