/*--------------------------------*- C++ -*----------------------------------*\
| =========                 |                                                 |
| \\      /  F ield         | OpenFOAM: The Open Source CFD Toolbox           |
|  \\    /   O peration     | Version:  v1812                                 |
|   \\  /    A nd           | Web:      www.OpenFOAM.com                      |
|    \\/     M anipulation  |                                                 |
\*---------------------------------------------------------------------------*/
FoamFile
{
    version     2.0;
    format      ascii;
    class       surfaceScalarField;
    location    "14";
    object      phi;
}
// * * * * * * * * * * * * * * * * * * * * * * * * * * * * * * * * * * * * * //

dimensions      [0 3 -1 0 0 0 0];
oriented        oriented;


internalField   nonuniform List<scalar> 
1890
(
0.0030739108
2.2258275e-06
0.0030664124
7.4993429e-06
0.0030571654
9.2471572e-06
0.0030487993
8.365715e-06
0.0030421425
6.6562206e-06
0.0030369229
5.2190481e-06
0.003032652
4.2704647e-06
0.003029005
3.6465152e-06
0.0030258321
3.1725348e-06
0.0030230632
2.7685563e-06
0.0030206418
2.4210434e-06
0.0030185085
2.1330612e-06
0.0030166079
1.9003459e-06
0.0030148968
1.7109226e-06
0.0030133446
1.5520725e-06
0.0030119297
1.4147428e-06
0.0030106358
1.2938068e-06
0.0030094493
1.1864194e-06
0.0030083586
1.0905876e-06
0.003007354
1.0045804e-06
0.003006427
9.268907e-07
0.0030055706
8.5629996e-07
0.0030047787
7.918757e-07
0.0030040458
7.3289184e-07
0.003003367
6.7875804e-07
0.003002738
6.2896756e-07
0.0030021549
5.8308343e-07
0.0030016142
5.4072364e-07
0.0030011126
5.015601e-07
0.0030006473
4.6530413e-07
0.0030002156
4.3170519e-07
0.002999815
4.0053826e-07
0.0029994434
3.7160592e-07
0.0029990987
3.4472851e-07
0.0029987789
3.1974774e-07
0.0029984824
2.9651783e-07
0.0029982075
2.7490989e-07
0.0029979527
2.5480377e-07
0.0029977167
2.3609296e-07
0.002997498
2.1867701e-07
0.0029972955
2.0246678e-07
0.0029971082
1.8737738e-07
0.0029969348
1.7333345e-07
0.0029967746
1.6026251e-07
0.0029966265
1.4810028e-07
0.0029964897
1.3678438e-07
0.0029963635
1.2625965e-07
0.002996247
1.1647203e-07
0.0029961397
1.0737384e-07
0.0029960408
9.8918043e-08
0.0029959497
9.1063306e-08
0.002995866
8.3768474e-08
0.002995789
7.6997588e-08
0.0029957183
7.0714584e-08
0.0029956534
6.4888135e-08
0.0029955939
5.9486539e-08
0.0029955395
5.4482464e-08
0.0029954896
4.9848043e-08
0.0029954441
4.5559436e-08
0.0029954025
4.1592089e-08
0.0029953646
3.7925206e-08
0.0029953301
3.4537186e-08
0.0029952987
3.1409919e-08
0.0029952702
2.8524378e-08
0.0029952443
2.586481e-08
0.0029952209
2.3414504e-08
0.0029951997
2.1159824e-08
0.0029951807
1.9086097e-08
0.0029951635
1.718156e-08
0.0029951481
1.5433394e-08
0.0029951342
1.3831532e-08
0.0029951219
1.2364777e-08
0.0029951109
1.1024546e-08
0.0029951011
9.8010934e-09
0.0029950924
8.6871413e-09
0.0029950847
7.6741617e-09
0.002995078
6.755953e-09
0.0029950721
5.9250162e-09
0.0029950669
5.1760374e-09
0.0029950624
4.5023095e-09
0.0029950585
3.8991903e-09
0.0029950552
3.3606078e-09
0.0029950523
2.8824479e-09
0.0029950498
2.4591092e-09
0.0029950477
2.0868707e-09
0.002995046
1.7605506e-09
0.0029950445
1.4767766e-09
0.0029950433
1.2307444e-09
0.0029950423
1.0193843e-09
0.0029950414
8.383288e-10
0.0029950407
6.8481815e-10
0.0029950402
5.5494839e-10
0.0029950397
4.4622929e-10
0.0029950394
3.5516655e-10
0.0029950391
2.7931948e-10
0.0029950389
2.1560737e-10
0.0029950387
1.6158206e-10
0.0029950386
1.1440228e-10
0.0029950386
6.8048501e-11
3.0603945e-11
0.0076456033
2.3917664e-06
0.0076427544
1.0349399e-05
0.007637456
1.4545908e-05
0.0076311973
1.4624053e-05
0.0076250483
1.2804676e-05
0.0076193149
1.0951967e-05
0.0076139696
9.6154649e-06
0.0076089654
8.6503639e-06
0.0076043086
7.8289624e-06
0.0076000226
7.0542889e-06
0.0075961086
6.3347627e-06
0.007592542
5.6994677e-06
0.0075892865
5.1556393e-06
0.007586307
4.6902093e-06
0.0075835741
4.2848439e-06
0.0075810632
3.9255537e-06
0.0075787529
3.6040279e-06
0.007576624
3.3151944e-06
0.0075746595
3.0550215e-06
0.0075728443
2.8197573e-06
0.0075711651
2.6060125e-06
0.0075696104
2.4109632e-06
0.0075681699
2.2323496e-06
0.0075668344
2.0683525e-06
0.0075655956
1.9174471e-06
0.0075644463
1.7783233e-06
0.0075633795
1.6498377e-06
0.0075623892
1.5309978e-06
0.0075614698
1.4209352e-06
0.0075606162
1.3188923e-06
0.0075598237
1.2241965e-06
0.007559088
1.1362523e-06
0.0075584051
1.0545238e-06
0.0075577712
9.7853225e-07
0.0075571832
9.0784269e-07
0.0075566376
8.420641e-07
0.0075561317
7.8083787e-07
0.0075556627
7.2383987e-07
0.007555228
6.7077036e-07
0.0075548253
6.2135714e-07
0.0075544524
5.7534675e-07
0.0075541073
5.3250837e-07
0.007553788
4.9262578e-07
0.0075534928
4.5550148e-07
0.0075532199
4.2094953e-07
0.0075529679
3.8879993e-07
0.0075527353
3.5889185e-07
0.0075525207
3.3107808e-07
0.0075523229
3.0521877e-07
0.0075521406
2.8118601e-07
0.0075519728
2.5885783e-07
0.0075518185
2.3812264e-07
0.0075516766
2.188737e-07
0.0075515463
2.0101355e-07
0.0075514268
1.8444867e-07
0.0075513172
1.6909372e-07
0.0075512168
1.5486662e-07
0.007551125
1.4169269e-07
0.0075510411
1.2949986e-07
0.0075509644
1.1822268e-07
0.0075508946
1.0779785e-07
0.007550831
9.8168095e-08
0.0075507731
8.9277881e-08
0.0075507206
8.1077106e-08
0.0075506729
7.3517043e-08
0.0075506298
6.6554027e-08
0.0075505908
6.0145466e-08
0.0075505556
5.4253361e-08
0.007550524
4.8840557e-08
0.0075504955
4.38742e-08
0.0075504701
3.932205e-08
0.0075504473
3.5155762e-08
0.007550427
3.1347401e-08
0.0075504089
2.7872654e-08
0.0075503929
2.4707371e-08
0.0075503787
2.1830622e-08
0.0075503663
1.9221407e-08
0.0075503553
1.6861654e-08
0.0075503458
1.4732962e-08
0.0075503375
1.2819474e-08
0.0075503303
1.1104784e-08
0.0075503241
9.5748079e-09
0.0075503188
8.2147073e-09
0.0075503142
7.0117198e-09
0.0075503103
5.9521978e-09
0.0075503071
5.0245404e-09
0.0075503043
4.2161445e-09
0.0075503021
3.5164379e-09
0.0075503002
2.9137726e-09
0.0075502986
2.3986965e-09
0.0075502973
1.960634e-09
0.0075502963
1.5911618e-09
0.0075502955
1.2809938e-09
0.0075502948
1.022095e-09
0.0075502943
8.077344e-10
0.0075502939
6.2806055e-10
0.0075502935
4.834078e-10
0.0075502933
3.5379733e-10
0.0075502931
2.6380269e-10
1.5657235e-10
0.010839642
1.7180924e-06
0.010841429
8.5635494e-06
0.01084298
1.299487e-05
0.010843727
1.387687e-05
0.010843851
1.268023e-05
0.010843569
1.1232871e-05
0.010842982
1.0202027e-05
0.010842149
9.4838336e-06
0.010841135
8.8425229e-06
0.010840011
8.177454e-06
0.010838834
7.5117905e-06
0.01083764
6.8934785e-06
0.010836452
6.3436548e-06
0.010835285
5.856778e-06
0.010834151
5.4185926e-06
0.010833058
5.0183015e-06
0.010832012
4.6505313e-06
0.010831014
4.3126072e-06
0.010830067
4.0021885e-06
0.01082917
3.7166117e-06
0.010828323
3.4532012e-06
0.010827524
3.2096234e-06
0.010826772
2.9839756e-06
0.010826066
2.7746805e-06
0.010825403
2.5803714e-06
0.010824782
2.3998204e-06
0.0108242
2.231921e-06
0.010823655
2.0756772e-06
0.010823146
1.930198e-06
0.01082267
1.7946793e-06
0.010822226
1.6683952e-06
0.010821811
1.550682e-06
0.010821425
1.4409349e-06
0.010821065
1.3385976e-06
0.010820729
1.2431609e-06
0.010820417
1.1541539e-06
0.010820127
1.0711442e-06
0.010819857
9.9372954e-07
0.010819606
9.2153957e-07
0.010819373
8.5422818e-07
0.010819157
7.9147604e-07
0.010818957
7.3298373e-07
0.010818771
6.7847451e-07
0.010818599
6.2768809e-07
0.010818439
5.8038369e-07
0.010818292
5.3633427e-07
0.010818155
4.9532961e-07
0.010818029
4.5717105e-07
0.010817913
4.2167469e-07
0.010817805
3.8866637e-07
0.010817706
3.5798485e-07
0.010817615
3.294772e-07
0.010817531
3.0300194e-07
0.010817453
2.7842466e-07
0.010817382
2.5562113e-07
0.010817317
2.3447312e-07
0.010817257
2.1487153e-07
0.010817202
1.9671241e-07
0.010817151
1.7989991e-07
0.010817105
1.6434257e-07
0.010817063
1.4995631e-07
0.010817025
1.3666078e-07
0.01081699
1.243822e-07
0.010816958
1.1305003e-07
0.010816929
1.0259969e-07
0.010816902
9.2969362e-08
0.010816878
8.4102652e-08
0.010816857
7.5945527e-08
0.010816837
6.8448925e-08
0.010816819
6.1565815e-08
0.010816803
5.5253669e-08
0.010816789
4.947168e-08
0.010816776
4.4183165e-08
0.010816765
3.9352838e-08
0.010816754
3.4949091e-08
0.010816745
3.0941391e-08
0.010816737
2.7302487e-08
0.01081673
2.4005853e-08
0.010816724
2.1027791e-08
0.010816718
1.8345001e-08
0.010816714
1.5936632e-08
0.010816709
1.3781945e-08
0.010816706
1.1862255e-08
0.010816703
1.0158804e-08
0.0108167
8.6546234e-09
0.010816698
7.3325843e-09
0.010816696
6.1771203e-09
0.010816694
5.1725067e-09
0.010816693
4.3045722e-09
0.010816691
3.5588569e-09
0.01081669
2.9228857e-09
0.01081669
2.3828969e-09
0.010816689
1.9291808e-09
0.010816688
1.5467073e-09
0.010816688
1.2326324e-09
0.010816688
9.6432373e-10
0.010816687
7.5691016e-10
0.010816687
5.6192998e-10
0.010816687
4.4541392e-10
2.8678758e-10
0.012849494
8.6820967e-07
0.0128534
4.6580701e-06
0.012859035
7.3605251e-06
0.012864794
8.1172372e-06
0.012869904
7.5694568e-06
0.012874343
6.7931346e-06
0.012878288
6.2564574e-06
0.012881862
5.9096114e-06
0.012885105
5.5998992e-06
0.012888026
5.255569e-06
0.012890646
4.8916842e-06
0.012892996
4.5430778e-06
0.012895113
4.2271558e-06
0.012897027
3.9427059e-06
0.012898763
3.6818941e-06
0.012900343
3.43889e-06
0.012901782
3.2113982e-06
0.012903095
2.9987971e-06
0.012904297
2.8004866e-06
0.012905398
2.6154685e-06
0.012906409
2.4425843e-06
0.012907337
2.2808055e-06
0.012908192
2.1292989e-06
0.012908979
1.9873843e-06
0.012909705
1.8544512e-06
0.012910375
1.7299354e-06
0.012910994
1.6132997e-06
0.012911565
1.5040524e-06
0.012912094
1.4017312e-06
0.012912583
1.3059153e-06
0.012913035
1.2162043e-06
0.012913453
1.1322307e-06
0.01291384
1.0536416e-06
0.012914199
9.8011326e-07
0.012914531
9.1133361e-07
0.012914838
8.4701721e-07
0.012915122
7.8688768e-07
0.012915385
7.3069279e-07
0.012915629
6.7818734e-07
0.012915854
6.2914836e-07
0.012916062
5.8335831e-07
0.012916254
5.4061997e-07
0.012916432
5.0074029e-07
0.012916596
4.6354498e-07
0.012916748
4.2886277e-07
0.012916887
3.9653964e-07
0.012917016
3.6642362e-07
0.012917135
3.3837873e-07
0.012917244
3.1227025e-07
0.012917345
2.8797811e-07
0.012917438
2.6538286e-07
0.012917523
2.4437869e-07
0.012917601
2.2485977e-07
0.012917673
2.0673285e-07
0.012917738
1.8990421e-07
0.012917799
1.7429182e-07
0.012917854
1.598128e-07
0.012917904
1.4639509e-07
0.01291795
1.3396523e-07
0.012917992
1.2246001e-07
0.01291803
1.1181469e-07
0.012918065
1.0197379e-07
0.012918096
9.2880126e-08
0.012918125
8.4485225e-08
0.012918151
7.6738703e-08
0.012918174
6.9598228e-08
0.012918195
6.3019454e-08
0.012918214
5.6965618e-08
0.012918231
5.1397813e-08
0.012918246
4.6284196e-08
0.01291826
4.1590706e-08
0.012918272
3.7289961e-08
0.012918283
3.335225e-08
0.012918293
2.9754079e-08
0.012918301
2.6469542e-08
0.012918309
2.3478585e-08
0.012918315
2.0758605e-08
0.012918321
1.8292399e-08
0.012918326
1.6060101e-08
0.01291833
1.4046895e-08
0.012918334
1.2235155e-08
0.012918337
1.0611902e-08
0.01291834
9.1612524e-09
0.012918342
7.8717118e-09
0.012918344
6.7287948e-09
0.012918346
5.7221322e-09
0.012918347
4.8383915e-09
0.012918348
4.0681712e-09
0.012918349
3.3993024e-09
0.01291835
2.8230481e-09
0.01291835
2.3287521e-09
0.012918351
1.9076157e-09
0.012918351
1.5517776e-09
0.012918351
1.2504099e-09
0.012918352
1.0023858e-09
0.012918352
7.8872887e-10
0.012918352
6.2541002e-10
0.012918352
4.6756998e-10
0.012918352
3.7744336e-10
2.4856039e-10
0.013817214
3.0654147e-11
0.013821873
9.5272063e-11
0.013829233
4.325449e-11
0.013837349
1.1550778e-11
0.013844918
4.4611738e-11
0.01385171
1.353858e-10
0.013857966
2.133343e-10
0.013863875
2.4996275e-10
0.013869475
2.5626908e-10
0.01387473
2.5611014e-10
0.013879621
2.5658762e-10
0.013884164
2.5354709e-10
0.013888391
2.4331175e-10
0.013892333
2.2569136e-10
0.013896014
2.0401648e-10
0.013899453
1.7935699e-10
0.013902664
1.5408484e-10
0.013905663
1.2709735e-10
0.013908463
1.0069887e-10
0.013911078
7.3664505e-11
0.013913521
4.8535411e-11
0.013915802
2.386464e-11
0.013917931
2.7312697e-12
0.013919918
-2.0184891e-11
0.013921773
-3.8382561e-11
0.013923503
-5.599484e-11
0.013925116
-7.0297345e-11
0.01392662
-8.3824369e-11
0.013928022
-9.3946815e-11
0.013929328
-1.0359676e-10
0.013930544
-1.100376e-10
0.013931677
-1.1615052e-10
0.01393273
-1.1923722e-10
0.013933711
-1.2238151e-10
0.013934622
-1.2281995e-10
0.013935469
-1.2346502e-10
0.013936256
-1.2162503e-10
0.013936987
-1.202987e-10
0.013937665
-1.1677678e-10
0.013938295
-1.1380778e-10
0.013938878
-1.0879157e-10
0.013939419
-1.0452253e-10
0.01393992
-9.8422773e-11
0.013940383
-9.3047457e-11
0.013940812
-8.5959937e-11
0.013941209
-7.9761582e-11
0.013941575
-7.207791e-11
0.013941914
-6.5294342e-11
0.013942226
-5.7199614e-11
0.013942514
-5.021306e-11
0.01394278
-4.2199519e-11
0.013943024
-3.5352283e-11
0.013943249
-2.7693124e-11
0.013943456
-2.1381559e-11
0.013943646
-1.4553472e-11
0.01394382
-9.0688649e-12
0.01394398
-3.3058266e-12
0.013944126
1.3317434e-12
0.01394426
6.0934616e-12
0.013944383
9.4629474e-12
0.013944494
1.3230477e-11
0.013944596
1.5589674e-11
0.013944689
1.839142e-11
0.013944774
1.9973975e-11
0.01394485
2.211886e-11
0.01394492
2.3121885e-11
0.013944983
2.4740898e-11
0.01394504
2.5408912e-11
0.013945091
2.6782734e-11
0.013945138
2.7245946e-11
0.013945179
2.8413859e-11
0.013945216
2.8787258e-11
0.01394525
2.9877716e-11
0.013945279
3.0134962e-11
0.013945306
3.103648e-11
0.013945329
3.1143666e-11
0.01394535
3.1847342e-11
0.013945368
3.1669508e-11
0.013945384
3.1986261e-11
0.013945398
3.1440063e-11
0.013945411
3.1341333e-11
0.013945421
3.0310613e-11
0.01394543
2.9663836e-11
0.013945438
2.814273e-11
0.013945445
2.7021009e-11
0.013945451
2.5014159e-11
0.013945455
2.3423073e-11
0.013945459
2.105134e-11
0.013945463
1.9186459e-11
0.013945466
1.6555019e-11
0.013945468
1.4463985e-11
0.01394547
1.1582345e-11
0.013945471
9.3898888e-12
0.013945473
6.4510049e-12
0.013945474
4.5124831e-12
0.013945474
2.2403712e-12
0.013945475
5.4047356e-13
0.013945476
-1.4404072e-12
0.013945476
-6.0524525e-12
-8.6489299e-12
0.013817212
-8.6828715e-07
0.013821872
-4.6584699e-06
0.013829232
-7.360874e-06
0.013837349
-8.1173421e-06
0.013844917
-7.569344e-06
0.01385171
-6.7929204e-06
0.013857966
-6.2561674e-06
0.013863875
-5.9092603e-06
0.013869475
-5.5995017e-06
0.01387473
-5.2551396e-06
0.013879621
-4.8912406e-06
0.013884164
-4.5426359e-06
0.013888391
-4.2267299e-06
0.013892333
-3.9423071e-06
0.013896015
-3.6815301e-06
0.013899453
-3.438567e-06
0.013902664
-3.2111202e-06
0.013905663
-2.9985672e-06
0.013908463
-2.8003052e-06
0.013911079
-2.6153357e-06
0.013913521
-2.4424978e-06
0.013915802
-2.2807637e-06
0.013917931
-2.1292979e-06
0.013919918
-1.987423e-06
0.013921773
-1.8545244e-06
0.013923503
-1.7300403e-06
0.013925116
-1.6134313e-06
0.01392662
-1.5042079e-06
0.013928022
-1.4019059e-06
0.013929328
-1.3061068e-06
0.013930544
-1.2164078e-06
0.013931677
-1.1324444e-06
0.01393273
-1.0538613e-06
0.013933711
-9.8033771e-07
0.013934622
-9.1155908e-07
0.013935469
-8.4724274e-07
0.013936256
-7.8711015e-07
0.013936987
-7.3091176e-07
0.013937665
-6.7840005e-07
0.013938294
-6.293546e-07
0.013938878
-5.8355569e-07
0.013939419
-5.4080861e-07
0.013939919
-5.0091801e-07
0.013940383
-4.6371201e-07
0.013940812
-4.2901724e-07
0.013941209
-3.9668203e-07
0.013941575
-3.665523e-07
0.013941914
-3.3849434e-07
0.013942226
-3.1237153e-07
0.013942514
-2.8806607e-07
0.013942779
-2.6545661e-07
0.013943024
-2.4443946e-07
0.013943249
-2.2490711e-07
0.013943455
-2.0676836e-07
0.013943645
-1.8992774e-07
0.01394382
-1.7430512e-07
0.013943979
-1.5981595e-07
0.013944126
-1.4638984e-07
0.01394426
-1.3395186e-07
0.013944382
-1.2244033e-07
0.013944494
-1.1178885e-07
0.013944596
-1.0194349e-07
0.013944689
-9.2845353e-08
0.013944773
-8.4447394e-08
0.01394485
-7.6697632e-08
0.01394492
-6.955515e-08
0.013944983
-6.2973975e-08
0.01394504
-5.6918697e-08
0.013945091
-5.1348946e-08
0.013945137
-4.623424e-08
0.013945179
-4.1539059e-08
0.013945216
-3.7237348e-08
0.01394525
-3.3298106e-08
0.013945279
-2.9699178e-08
0.013945306
-2.6413366e-08
0.013945329
-2.3421917e-08
0.01394535
-2.0701072e-08
0.013945368
-1.8234919e-08
0.013945384
-1.6002407e-08
0.013945398
-1.3989945e-08
0.01394541
-1.2178813e-08
0.013945421
-1.0557224e-08
0.01394543
-9.1081365e-09
0.013945438
-7.8211656e-09
0.013945445
-6.6807314e-09
0.01394545
-5.6775352e-09
0.013945455
-4.797074e-09
0.013945459
-4.0309606e-09
0.013945463
-3.3659048e-09
0.013945466
-2.7942104e-09
0.013945468
-2.304067e-09
0.01394547
-1.8877925e-09
0.013945471
-1.5363018e-09
0.013945473
-1.2398589e-09
0.013945474
-9.9546474e-10
0.013945474
-7.8573884e-10
0.013945475
-6.252076e-10
0.013945475
-4.7025023e-10
0.013945476
-3.8675454e-10
-2.6176439e-10
0.012849494
-1.71807e-06
0.0128534
-8.5634364e-06
0.012859034
-1.2994813e-05
0.012864793
-1.3876901e-05
0.012869903
-1.2680248e-05
0.012874343
-1.1232828e-05
0.012878288
-1.0201903e-05
0.012881862
-9.4836467e-06
0.012885105
-8.8422862e-06
0.012888026
-8.177183e-06
0.012890646
-7.5114952e-06
0.012892997
-6.8931711e-06
0.012895113
-6.3433476e-06
0.012897027
-5.8564817e-06
0.012898764
-5.4183182e-06
0.012900343
-5.0180545e-06
0.012901782
-4.6503186e-06
0.012903096
-4.3124292e-06
0.012904298
-4.0020491e-06
0.012905399
-3.7165081e-06
0.012906409
-3.4531357e-06
0.012907338
-3.2095909e-06
0.012908193
-2.9839774e-06
0.01290898
-2.7747104e-06
0.012909706
-2.5804305e-06
0.012910376
-2.3999014e-06
0.012910994
-2.2320248e-06
0.012911566
-2.0757965e-06
0.012912094
-1.9303341e-06
0.012912583
-1.7948252e-06
0.012913035
-1.6685523e-06
0.012913453
-1.5508434e-06
0.012913841
-1.4411028e-06
0.012914199
-1.3387655e-06
0.012914531
-1.2433313e-06
0.012914838
-1.1543208e-06
0.012915122
-1.0713105e-06
0.012915385
-9.9388981e-07
0.012915628
-9.2169673e-07
0.012915853
-8.5437723e-07
0.012916061
-7.9162021e-07
0.012916254
-7.3311829e-07
0.012916431
-6.7860265e-07
0.012916596
-6.2780541e-07
0.012916747
-5.8049354e-07
0.012916887
-5.3643248e-07
0.012917016
-4.9541948e-07
0.012917134
-4.572488e-07
0.012917244
-4.2174382e-07
0.012917344
-3.8872341e-07
0.012917437
-3.5803334e-07
0.012917522
-3.2951411e-07
0.0129176
-3.0303105e-07
0.012917672
-2.7844328e-07
0.012917738
-2.55633e-07
0.012917798
-2.3447589e-07
0.012917853
-2.1486905e-07
0.012917903
-1.9670245e-07
0.012917949
-1.7988614e-07
0.012917991
-1.6432295e-07
0.012918029
-1.499344e-07
0.012918064
-1.3663445e-07
0.012918095
-1.2435468e-07
0.012918124
-1.1301916e-07
0.01291815
-1.0256849e-07
0.012918173
-9.2935566e-08
0.012918194
-8.4068928e-08
0.012918213
-7.590959e-08
0.01291823
-6.8413301e-08
0.012918246
-6.1528174e-08
0.012918259
-5.5216323e-08
0.012918272
-4.9432388e-08
0.012918283
-4.4144229e-08
0.012918292
-3.9312093e-08
0.012918301
-3.4908762e-08
0.012918308
-3.0899494e-08
0.012918315
-2.7261331e-08
0.01291832
-2.3963585e-08
0.012918325
-2.098669e-08
0.01291833
-1.8303394e-08
0.012918333
-1.5896866e-08
0.012918337
-1.3742421e-08
0.012918339
-1.1825236e-08
0.012918342
-1.0122768e-08
0.012918344
-8.6218144e-09
0.012918345
-7.3014332e-09
0.012918347
-6.1497053e-09
0.012918348
-5.1472084e-09
0.012918349
-4.2834023e-09
0.012918349
-3.5400781e-09
0.01291835
-2.9083606e-09
0.012918351
-2.3707171e-09
0.012918351
-1.9213071e-09
0.012918351
-1.5409479e-09
0.012918351
-1.2307394e-09
0.012918352
-9.6402502e-10
0.012918352
-7.5846642e-10
0.012918352
-5.6393575e-10
0.012918352
-4.4744113e-10
-2.9075634e-10
0.010839642
-2.3917296e-06
0.010841429
-1.0349208e-05
0.01084298
-1.4545701e-05
0.010843726
-1.4624008e-05
0.01084385
-1.2804817e-05
0.010843569
-1.0952183e-05
0.010842982
-9.6156418e-06
0.010842149
-8.6504544e-06
0.010841135
-7.8289683e-06
0.010840012
-7.0542318e-06
0.010838835
-6.334662e-06
0.01083764
-5.6993358e-06
0.010836452
-5.1554874e-06
0.010835286
-4.6900484e-06
0.010834152
-4.2846862e-06
0.010833059
-3.9254074e-06
0.010832012
-3.6038997e-06
0.010831015
-3.3150863e-06
0.010830068
-3.0549361e-06
0.010829171
-2.8196941e-06
0.010828324
-2.6059723e-06
0.010827525
-2.4109436e-06
0.010826773
-2.2323504e-06
0.010826067
-2.0683707e-06
0.010825404
-1.9174821e-06
0.010824782
-1.7783715e-06
0.0108242
-1.6498984e-06
0.010823655
-1.5310677e-06
0.010823146
-1.4210138e-06
0.01082267
-1.3189763e-06
0.010822226
-1.2242855e-06
0.010821811
-1.1363437e-06
0.010821425
-1.0546174e-06
0.010821065
-9.7862547e-07
0.010820729
-9.0793577e-07
0.010820417
-8.4215492e-07
0.010820127
-7.8092698e-07
0.010819857
-7.2392522e-07
0.010819606
-6.7085268e-07
0.010819373
-6.2143481e-07
0.010819157
-5.7542065e-07
0.010818956
-5.3257687e-07
0.01081877
-4.9268979e-07
0.010818598
-4.5555969e-07
0.010818439
-4.2100291e-07
0.010818291
-3.888471e-07
0.010818155
-3.5893383e-07
0.010818029
-3.3111378e-07
0.010817912
-3.0524931e-07
0.010817805
-2.8121033e-07
0.010817705
-2.5887711e-07
0.010817614
-2.3813617e-07
0.01081753
-2.1888278e-07
0.010817453
-2.0101748e-07
0.010817381
-1.8444883e-07
0.010817316
-1.6908968e-07
0.010817256
-1.5485978e-07
0.010817201
-1.4168253e-07
0.010817151
-1.2948773e-07
0.010817104
-1.1820822e-07
0.010817062
-1.077823e-07
0.010817024
-9.8150926e-08
0.010816989
-8.9260189e-08
0.010816957
-8.1058379e-08
0.010816928
-7.3498242e-08
0.010816901
-6.653444e-08
0.010816877
-6.0125911e-08
0.010816856
-5.4233181e-08
0.010816836
-4.8820483e-08
0.010816819
-4.3853447e-08
0.010816803
-3.9301289e-08
0.010816788
-3.5134337e-08
0.010816776
-3.1325986e-08
0.010816764
-2.785055e-08
0.010816754
-2.4685273e-08
0.010816745
-2.1808015e-08
0.010816737
-1.9199036e-08
0.01081673
-1.6838995e-08
0.010816723
-1.4710794e-08
0.010816718
-1.2797441e-08
0.010816713
-1.1083691e-08
0.010816709
-9.5542469e-09
0.010816705
-8.195466e-09
0.010816702
-6.9934865e-09
0.010816699
-5.9357202e-09
0.010816697
-5.0093866e-09
0.010816695
-4.2029897e-09
0.010816694
-3.5048756e-09
0.010816692
-2.9044113e-09
0.010816691
-2.3909624e-09
0.01081669
-1.9550422e-09
0.010816689
-1.5870176e-09
0.010816689
-1.278761e-09
0.010816688
-1.0208756e-09
0.010816688
-8.0841985e-10
0.010816687
-6.2974588e-10
0.010816687
-4.8542209e-10
0.010816687
-3.5484459e-10
0.010816687
-2.594032e-10
-1.522119e-10
0.0076456034
-2.2257186e-06
0.0076427545
-7.4992054e-06
0.0076374563
-9.247097e-06
0.0076311977
-8.3658036e-06
0.0076250488
-6.6564912e-06
0.0076193153
-5.2194206e-06
0.0076139699
-4.2708273e-06
0.0076089656
-3.6467917e-06
0.0076043089
-3.1727163e-06
0.0076000228
-2.7686652e-06
0.0075961089
-2.4211054e-06
0.0075925423
-2.1330916e-06
0.0075892868
-1.9003525e-06
0.0075863074
-1.7109136e-06
0.0075835746
-1.552054e-06
0.0075810637
-1.414723e-06
0.0075787534
-1.2937879e-06
0.0075766246
-1.1864058e-06
0.0075746601
-1.0905779e-06
0.0075728449
-1.0045775e-06
0.0075711657
-9.2689181e-07
0.007569611
-8.5630773e-07
0.0075681704
-7.9188674e-07
0.0075668349
-7.3290865e-07
0.0075655962
-6.7877679e-07
0.0075644467
-6.2899079e-07
0.0075633799
-5.8310727e-07
0.0075623896
-5.4075076e-07
0.0075614701
-5.015866e-07
0.0075606165
-4.6533285e-07
0.0075598239
-4.3173235e-07
0.0075590881
-4.0056679e-07
0.0075584051
-3.7163209e-07
0.0075577713
-3.4475536e-07
0.0075571831
-3.1977177e-07
0.0075566375
-2.9654214e-07
0.0075561315
-2.7493105e-07
0.0075556624
-2.5482493e-07
0.0075552277
-2.3611091e-07
0.007554825
-2.1869487e-07
0.007554452
-2.0248139e-07
0.0075541069
-1.873918e-07
0.0075537875
-1.7334469e-07
0.0075534923
-1.6027353e-07
0.0075532194
-1.481081e-07
0.0075529673
-1.3679191e-07
0.0075527347
-1.2626407e-07
0.0075525201
-1.1647613e-07
0.0075523222
-1.0737489e-07
0.0075521399
-9.8918787e-08
0.0075519722
-9.1061198e-08
0.0075518178
-8.3766211e-08
0.0075516759
-7.69927e-08
0.0075515456
-7.0709735e-08
0.0075514261
-6.4881039e-08
0.0075513165
-5.9479787e-08
0.0075512161
-5.4473809e-08
0.0075511243
-4.9839999e-08
0.0075510404
-4.5549882e-08
0.0075509638
-4.1583432e-08
0.0075508939
-3.7915316e-08
0.0075508303
-3.452836e-08
0.0075507725
-3.1400101e-08
0.0075507199
-2.8515728e-08
0.0075506723
-2.5855246e-08
0.0075506292
-2.3406089e-08
0.0075505902
-2.1150547e-08
0.0075505551
-1.907792e-08
0.0075505235
-1.7172464e-08
0.007550495
-1.5425292e-08
0.0075504696
-1.3822499e-08
0.0075504468
-1.2356675e-08
0.0075504265
-1.1015469e-08
0.0075504085
-9.7929004e-09
0.0075503925
-8.6780369e-09
0.0075503783
-7.6659808e-09
0.0075503659
-6.7469247e-09
0.007550355
-5.9169874e-09
0.0075503455
-5.1673315e-09
0.0075503372
-4.4947492e-09
0.00755033
-3.8910954e-09
0.0075503238
-3.353801e-09
0.0075503185
-2.8753032e-09
0.0075503139
-2.4534059e-09
0.0075503101
-2.0809399e-09
0.0075503068
-1.7561589e-09
0.0075503041
-1.4722714e-09
0.0075503018
-1.2278415e-09
0.0075503
-1.0163761e-09
0.0075502984
-8.3689946e-10
0.0075502971
-6.8319338e-10
0.0075502961
-5.5467906e-10
0.0075502953
-4.4533002e-10
0.0075502946
-3.5546493e-10
0.0075502941
-2.7934565e-10
0.0075502937
-2.1625273e-10
0.0075502934
-1.6234338e-10
0.0075502931
-1.1446689e-10
0.0075502929
-6.39825e-11
-2.559859e-11
0.0030739117
0.0030664128
0.0030571657
0.0030487996
0.0030421427
0.0030369229
0.0030326518
0.0030290047
0.0030258317
0.0030230628
0.0030206415
0.0030185083
0.0030166078
0.0030148967
0.0030133446
0.0030119298
0.0030106359
0.0030094494
0.0030083588
0.0030073541
0.0030064272
0.0030055709
0.0030047789
0.003004046
0.0030033672
0.0030027382
0.0030021551
0.0030016143
0.0030011127
0.0030006474
0.0030002156
0.0029998151
0.0029994434
0.0029990987
0.0029987789
0.0029984824
0.0029982075
0.0029979526
0.0029977165
0.0029974978
0.0029972954
0.002997108
0.0029969347
0.0029967744
0.0029966263
0.0029964895
0.0029963633
0.0029962468
0.0029961394
0.0029960405
0.0029959495
0.0029958657
0.0029957887
0.002995718
0.0029956532
0.0029955937
0.0029955392
0.0029954894
0.0029954439
0.0029954023
0.0029953644
0.0029953299
0.0029952985
0.00299527
0.0029952441
0.0029952207
0.0029951996
0.0029951805
0.0029951633
0.0029951479
0.0029951341
0.0029951217
0.0029951107
0.002995101
0.0029950923
0.0029950846
0.0029950779
0.002995072
0.0029950668
0.0029950623
0.0029950584
0.0029950551
0.0029950522
0.0029950498
0.0029950477
0.0029950459
0.0029950445
0.0029950432
0.0029950422
0.0029950414
0.0029950407
0.0029950401
0.0029950397
0.0029950393
0.0029950391
0.0029950389
0.0029950387
0.0029950386
0.0029950385
)
;

boundaryField
{
    top
    {
        type            calculated;
        value           uniform 0;
    }
    inlet
    {
        type            calculated;
        value           nonuniform List<scalar> 10(-0.0030761355 -0.0076457683 -0.010838967 -0.012848643 -0.013816345 -0.013816343 -0.012848644 -0.010838967 -0.0076457684 -0.0030761367);
    }
    outlet
    {
        type            calculated;
        value           nonuniform List<scalar> 10(0.0029950385 0.007550293 0.010816687 0.012918352 0.013945476 0.013945476 0.012918352 0.010816687 0.0075502928 0.0029950385);
    }
    bottom
    {
        type            calculated;
        value           uniform 0;
    }
    back
    {
        type            empty;
        value           nonuniform 0();
    }
    front
    {
        type            empty;
        value           nonuniform 0();
    }
}


// ************************************************************************* //
