/*--------------------------------*- C++ -*----------------------------------*\
| =========                 |                                                 |
| \\      /  F ield         | OpenFOAM: The Open Source CFD Toolbox           |
|  \\    /   O peration     | Version:  v1812                                 |
|   \\  /    A nd           | Web:      www.OpenFOAM.com                      |
|    \\/     M anipulation  |                                                 |
\*---------------------------------------------------------------------------*/
FoamFile
{
    version     2.0;
    format      ascii;
    class       volVectorField;
    location    "14";
    object      U;
}
// * * * * * * * * * * * * * * * * * * * * * * * * * * * * * * * * * * * * * //

dimensions      [0 1 -1 0 0 0 0];


internalField   nonuniform List<vector> 
1000
(
(0.30756016 0.00019078251 0)
(0.30715086 0.00056447108 0)
(0.30622999 0.00062854623 0)
(0.30529078 0.00048817282 0)
(0.30452558 0.00032366617 0)
(0.30393584 0.00021636054 0)
(0.3034672 0.00016213716 0)
(0.30307468 0.00013347063 0)
(0.30273508 0.00011275587 0)
(0.3024387 9.5045383e-05 0)
(0.30217988 8.0664296e-05 0)
(0.30195293 6.9999752e-05 0)
(0.30175197 6.2329861e-05 0)
(0.30157198 5.6514423e-05 0)
(0.30140927 5.1690813e-05 0)
(0.30126125 4.743795e-05 0)
(0.30112609 4.361653e-05 0)
(0.3010023 4.0180985e-05 0)
(0.30088864 3.7088223e-05 0)
(0.30078404 3.4285867e-05 0)
(0.30068761 3.1726825e-05 0)
(0.30059857 2.9377281e-05 0)
(0.30051627 2.721486e-05 0)
(0.30044012 2.5222688e-05 0)
(0.30036963 2.3385943e-05 0)
(0.30030432 2.1690483e-05 0)
(0.30024378 2.0123435e-05 0)
(0.30018766 1.8673182e-05 0)
(0.3001356 1.732968e-05 0)
(0.30008731 1.608388e-05 0)
(0.30004251 1.492785e-05 0)
(0.30000094 1.3854277e-05 0)
(0.29996238 1.2856732e-05 0)
(0.2999266 1.192925e-05 0)
(0.29989341 1.1066611e-05 0)
(0.29986263 1.0263912e-05 0)
(0.29983409 9.5168666e-06 0)
(0.29980763 8.8213962e-06 0)
(0.29978312 8.1739361e-06 0)
(0.2997604 7.5710486e-06 0)
(0.29973937 7.0097387e-06 0)
(0.2997199 6.4870848e-06 0)
(0.29970189 6.0005483e-06 0)
(0.29968523 5.5476197e-06 0)
(0.29966983 5.126129e-06 0)
(0.2996556 4.7339085e-06 0)
(0.29964246 4.3690922e-06 0)
(0.29963034 4.0297918e-06 0)
(0.29961916 3.7143934e-06 0)
(0.29960886 3.4212476e-06 0)
(0.29959938 3.1489541e-06 0)
(0.29959065 2.8960636e-06 0)
(0.29958262 2.6613574e-06 0)
(0.29957525 2.4435622e-06 0)
(0.29956848 2.2416166e-06 0)
(0.29956227 2.0543972e-06 0)
(0.29955658 1.8809789e-06 0)
(0.29955137 1.720373e-06 0)
(0.29954661 1.5717743e-06 0)
(0.29954226 1.4343087e-06 0)
(0.29953829 1.3072757e-06 0)
(0.29953467 1.189906e-06 0)
(0.29953138 1.0815917e-06 0)
(0.29952839 9.8165321e-07 0)
(0.29952567 8.8956396e-07 0)
(0.29952321 8.0472716e-07 0)
(0.29952099 7.2668917e-07 0)
(0.29951898 6.5492435e-07 0)
(0.29951717 5.8904334e-07 0)
(0.29951555 5.2858677e-07 0)
(0.29951409 4.7322327e-07 0)
(0.29951278 4.2254969e-07 0)
(0.29951161 3.7628469e-07 0)
(0.29951058 3.3407664e-07 0)
(0.29950965 2.956879e-07 0)
(0.29950884 2.6080822e-07 0)
(0.29950812 2.2923529e-07 0)
(0.29950749 2.0069509e-07 0)
(0.29950694 1.7501413e-07 0)
(0.29950645 1.5194497e-07 0)
(0.29950604 1.3133546e-07 0)
(0.29950567 1.1296105e-07 0)
(0.29950536 9.6686484e-08 0)
(0.2995051 8.2303538e-08 0)
(0.29950487 6.9689401e-08 0)
(0.29950468 5.8652422e-08 0)
(0.29950452 4.9081287e-08 0)
(0.29950439 4.0798644e-08 0)
(0.29950427 3.3702749e-08 0)
(0.29950418 2.7634517e-08 0)
(0.29950411 2.2501079e-08 0)
(0.29950405 1.8161927e-08 0)
(0.299504 1.4526808e-08 0)
(0.29950396 1.1475412e-08 0)
(0.29950392 8.8995055e-09 0)
(0.2995039 6.7119484e-09 0)
(0.29950388 4.7574823e-09 0)
(0.29950387 3.0367429e-09 0)
(0.29950386 9.6303043e-10 0)
(0.29950385 -3.238749e-10 0)
(0.76442709 0.00021481612 0)
(0.76479697 0.00095162804 0)
(0.76424475 0.0013504411 0)
(0.76346835 0.0013387628 0)
(0.7627793 0.0011334236 0)
(0.76219484 0.00092229038 0)
(0.76166055 0.00077021089 0)
(0.76114922 0.00066601558 0)
(0.76066306 0.00058447077 0)
(0.76021179 0.00051279778 0)
(0.75979998 0.00044950358 0)
(0.75942608 0.00039607023 0)
(0.75908574 0.00035239859 0)
(0.75877467 0.00031665886 0)
(0.75848951 0.00028666931 0)
(0.75822765 0.0002608109 0)
(0.75798691 0.00023813266 0)
(0.75776527 0.00021808133 0)
(0.75756092 0.0002002563 0)
(0.75737222 0.00018431079 0)
(0.75719775 0.00016994586 0)
(0.75703627 0.00015692192 0)
(0.75688671 0.00014505574 0)
(0.75674809 0.00013420567 0)
(0.75661954 0.00012425708 0)
(0.75650028 0.00011511314 0)
(0.75638961 0.00010669077 0)
(0.75628687 9.8918436e-05 0)
(0.7561915 9.1734583e-05 0)
(0.75610295 8.508579e-05 0)
(0.75602074 7.8925369e-05 0)
(0.75594442 7.3211988e-05 0)
(0.75587357 6.7908977e-05 0)
(0.75580781 6.2983492e-05 0)
(0.75574678 5.8406153e-05 0)
(0.75569017 5.4150397e-05 0)
(0.75563765 5.0192281e-05 0)
(0.75558896 4.6509967e-05 0)
(0.75554383 4.3083637e-05 0)
(0.75550201 3.9895074e-05 0)
(0.75546328 3.692766e-05 0)
(0.75542742 3.4166028e-05 0)
(0.75539424 3.1596101e-05 0)
(0.75536355 2.9204784e-05 0)
(0.75533518 2.6980042e-05 0)
(0.75530897 2.4910635e-05 0)
(0.75528477 2.2986204e-05 0)
(0.75526243 2.1197034e-05 0)
(0.75524184 1.9534156e-05 0)
(0.75522286 1.7989134e-05 0)
(0.75520538 1.6554172e-05 0)
(0.75518929 1.5221915e-05 0)
(0.7551745 1.398556e-05 0)
(0.75516091 1.2838681e-05 0)
(0.75514844 1.1775335e-05 0)
(0.755137 1.0789891e-05 0)
(0.75512651 9.8771457e-06 0)
(0.75511692 9.0321651e-06 0)
(0.75510814 8.2503951e-06 0)
(0.75510013 7.5275061e-06 0)
(0.75509281 6.859508e-06 0)
(0.75508615 6.2426073e-06 0)
(0.75508009 5.6733147e-06 0)
(0.75507458 5.1483057e-06 0)
(0.75506957 4.6645303e-06 0)
(0.75506504 4.2190852e-06 0)
(0.75506095 3.8093163e-06 0)
(0.75505724 3.432693e-06 0)
(0.75505391 3.0869109e-06 0)
(0.75505091 2.7697764e-06 0)
(0.75504822 2.4793015e-06 0)
(0.75504581 2.2135884e-06 0)
(0.75504366 1.9709238e-06 0)
(0.75504175 1.7496717e-06 0)
(0.75504005 1.5483593e-06 0)
(0.75503854 1.3655691e-06 0)
(0.75503722 1.2000247e-06 0)
(0.75503605 1.0504905e-06 0)
(0.75503503 9.1585077e-07 0)
(0.75503414 7.9501012e-07 0)
(0.75503337 6.8697307e-07 0)
(0.7550327 5.9075546e-07 0)
(0.75503213 5.0545703e-07 0)
(0.75503163 4.3017814e-07 0)
(0.75503121 3.6409037e-07 0)
(0.75503086 3.0637033e-07 0)
(0.75503056 2.5625548e-07 0)
(0.75503031 2.1299449e-07 0)
(0.7550301 1.7588418e-07 0)
(0.75502993 1.4425586e-07 0)
(0.75502979 1.1746933e-07 0)
(0.75502968 9.494407e-08 0)
(0.75502958 7.6096796e-08 0)
(0.75502951 6.0427483e-08 0)
(0.75502945 4.7419052e-08 0)
(0.7550294 3.6608087e-08 0)
(0.75502937 2.7633396e-08 0)
(0.75502934 1.9884245e-08 0)
(0.75502933 1.3520295e-08 0)
(0.7550293 6.9483987e-09 0)
(1.0836004 0.00017011351 0)
(1.0846486 0.00088199004 0)
(1.0846488 0.0013917205 0)
(1.0844111 0.0015305953 0)
(1.0843047 0.0014321646 0)
(1.0843128 0.0012730371 0)
(1.0843227 0.0011412972 0)
(1.084278 0.001044325 0)
(1.0841841 0.00096235707 0)
(1.0840669 0.00088261165 0)
(1.0839447 0.00080441273 0)
(1.083824 0.00073173381 0)
(1.0837051 0.00066710069 0)
(1.0835877 0.00061038249 0)
(1.0834725 0.00056016196 0)
(1.0833606 0.00051508165 0)
(1.0832532 0.00047428721 0)
(1.0831508 0.00043728052 0)
(1.0830535 0.0004036806 0)
(1.0829612 0.00037311506 0)
(1.082874 0.00034522246 0)
(1.0827917 0.00031968327 0)
(1.0827141 0.00029623223 0)
(1.0826412 0.00027465106 0)
(1.0825728 0.00025475512 0)
(1.0825086 0.00023638378 0)
(1.0824484 0.00021939548 0)
(1.0823921 0.0002036656 0)
(1.0823394 0.00018908438 0)
(1.0822902 0.00017555503 0)
(1.0822442 0.0001629915 0)
(1.0822013 0.00015131694 0)
(1.0821613 0.00014046221 0)
(1.082124 0.00013036502 0)
(1.0820893 0.00012096888 0)
(1.0820569 0.00011222257 0)
(1.0820268 0.00010407929 0)
(1.0819988 9.6496371e-05 0)
(1.0819728 8.9434566e-05 0)
(1.0819487 8.2857875e-05 0)
(1.0819262 7.6733046e-05 0)
(1.0819054 7.1029438e-05 0)
(1.0818861 6.5718631e-05 0)
(1.0818682 6.077434e-05 0)
(1.0818517 5.61721e-05 0)
(1.0818363 5.1889229e-05 0)
(1.0818222 4.7904551e-05 0)
(1.0818091 4.4198391e-05 0)
(1.0817969 4.0752335e-05 0)
(1.0817858 3.7549254e-05 0)
(1.0817754 3.4573089e-05 0)
(1.0817659 3.1808878e-05 0)
(1.0817572 2.9242576e-05 0)
(1.0817491 2.6861096e-05 0)
(1.0817417 2.4652134e-05 0)
(1.0817349 2.2604222e-05 0)
(1.0817286 2.0706573e-05 0)
(1.0817228 1.8949131e-05 0)
(1.0817176 1.7322428e-05 0)
(1.0817128 1.5817643e-05 0)
(1.0817084 1.4426471e-05 0)
(1.0817043 1.3141179e-05 0)
(1.0817007 1.1954484e-05 0)
(1.0816973 1.0859611e-05 0)
(1.0816943 9.8501794e-06 0)
(1.0816915 8.9202692e-06 0)
(1.081689 8.064308e-06 0)
(1.0816867 7.2771334e-06 0)
(1.0816846 6.5538934e-06 0)
(1.0816828 5.8901088e-06 0)
(1.0816811 5.2815748e-06 0)
(1.0816796 4.7244185e-06 0)
(1.0816782 4.2150071e-06 0)
(1.081677 3.750005e-06 0)
(1.0816759 3.3262805e-06 0)
(1.081675 2.940957e-06 0)
(1.0816741 2.5913246e-06 0)
(1.0816734 2.2748913e-06 0)
(1.0816727 1.9892931e-06 0)
(1.0816721 1.732343e-06 0)
(1.0816716 1.5019463e-06 0)
(1.0816711 1.2961552e-06 0)
(1.0816707 1.1130828e-06 0)
(1.0816704 9.5096443e-07 0)
(1.0816701 8.0807241e-07 0)
(1.0816699 6.8279487e-07 0)
(1.0816696 5.7353938e-07 0)
(1.0816695 4.7883114e-07 0)
(1.0816693 3.9720537e-07 0)
(1.0816692 3.2732453e-07 0)
(1.0816691 2.6787328e-07 0)
(1.081669 2.1762664e-07 0)
(1.0816689 1.75484e-07 0)
(1.0816689 1.4020517e-07 0)
(1.0816688 1.1117022e-07 0)
(1.0816688 8.6683198e-08 0)
(1.0816688 6.7430379e-08 0)
(1.0816687 4.9789044e-08 0)
(1.0816687 3.8459813e-08 0)
(1.0816687 2.393609e-08 0)
(1.2844392 0.00010581384 0)
(1.2859097 0.0005953008 0)
(1.2862344 0.00098873493 0)
(1.2863222 0.0011366319 0)
(1.2866185 0.0011034844 0)
(1.2871002 0.0010105364 0)
(1.2876045 0.00092892139 0)
(1.2880344 0.00087015258 0)
(1.2883821 0.00082083762 0)
(1.2886767 0.00077041135 0)
(1.2889421 0.00071771497 0)
(1.2891867 0.00066611603 0)
(1.2894106 0.00061835112 0)
(1.2896132 0.00057502184 0)
(1.2897956 0.00053547456 0)
(1.2899605 0.00049892568 0)
(1.2901105 0.00046491729 0)
(1.2902475 0.00043325074 0)
(1.2903729 0.00040379977 0)
(1.2904878 0.00037641571 0)
(1.2905931 0.00035092694 0)
(1.2906898 0.00032716878 0)
(1.2907787 0.00030499985 0)
(1.2908606 0.00028430165 0)
(1.2909361 0.00026497058 0)
(1.2910057 0.00024691256 0)
(1.29107 0.00023004022 0)
(1.2911294 0.00021427317 0)
(1.2911843 0.00019953721 0)
(1.291235 0.00018576439 0)
(1.291282 0.0001728917 0)
(1.2913254 0.00016086099 0)
(1.2913656 0.00014961789 0)
(1.2914028 0.00013911202 0)
(1.2914373 0.00012929615 0)
(1.2914692 0.0001201265 0)
(1.2914987 0.00011156189 0)
(1.291526 0.00010356409 0)
(1.2915513 9.6097086e-05 0)
(1.2915747 8.9127414e-05 0)
(1.2915963 8.2623476e-05 0)
(1.2916163 7.655593e-05 0)
(1.2916347 7.0897007e-05 0)
(1.2916518 6.5620932e-05 0)
(1.2916676 6.0703273e-05 0)
(1.2916821 5.6121363e-05 0)
(1.2916955 5.1853682e-05 0)
(1.2917079 4.788028e-05 0)
(1.2917193 4.4182191e-05 0)
(1.2917297 4.0741847e-05 0)
(1.2917394 3.7542524e-05 0)
(1.2917483 3.4568751e-05 0)
(1.2917564 3.1805778e-05 0)
(1.2917639 2.923998e-05 0)
(1.2917707 2.6858351e-05 0)
(1.291777 2.4648895e-05 0)
(1.2917828 2.2600147e-05 0)
(1.291788 2.0701562e-05 0)
(1.2917928 1.894303e-05 0)
(1.2917972 1.731527e-05 0)
(1.2918012 1.5809387e-05 0)
(1.2918048 1.441723e-05 0)
(1.2918081 1.3130973e-05 0)
(1.2918111 1.1943465e-05 0)
(1.2918139 1.0847832e-05 0)
(1.2918163 9.8378154e-06 0)
(1.2918185 8.9073879e-06 0)
(1.2918205 8.0510875e-06 0)
(1.2918223 7.2636491e-06 0)
(1.2918239 6.5403244e-06 0)
(1.2918254 5.8765296e-06 0)
(1.2918267 5.2681554e-06 0)
(1.2918278 4.7112271e-06 0)
(1.2918288 4.2022023e-06 0)
(1.2918297 3.7376409e-06 0)
(1.2918305 3.3144937e-06 0)
(1.2918312 2.9297813e-06 0)
(1.2918318 2.5808717e-06 0)
(1.2918324 2.2651673e-06 0)
(1.2918328 1.980377e-06 0)
(1.2918332 1.7242106e-06 0)
(1.2918336 1.4946465e-06 0)
(1.2918339 1.2896325e-06 0)
(1.2918341 1.1073568e-06 0)
(1.2918343 9.4595356e-07 0)
(1.2918345 8.0377707e-07 0)
(1.2918346 6.7911478e-07 0)
(1.2918348 5.7045906e-07 0)
(1.2918349 4.7624817e-07 0)
(1.2918349 3.9508348e-07 0)
(1.291835 3.2559854e-07 0)
(1.2918351 2.6642093e-07 0)
(1.2918351 2.1653384e-07 0)
(1.2918351 1.7432796e-07 0)
(1.2918352 1.396441e-07 0)
(1.2918352 1.0984009e-07 0)
(1.2918352 8.6978945e-08 0)
(1.2918352 6.5122678e-08 0)
(1.2918352 5.22616e-08 0)
(1.2918352 3.4004409e-08 0)
(1.3811372 3.5646077e-05 0)
(1.3828107 0.00020776405 0)
(1.3832779 0.00035270014 0)
(1.3835017 0.00041298456 0)
(1.3839759 0.00040644855 0)
(1.3846834 0.00037578252 0)
(1.3854376 0.00034806498 0)
(1.386118 0.00032862738 0)
(1.3867073 0.00031274311 0)
(1.3872351 0.0002962453 0)
(1.3877278 0.00027849101 0)
(1.3881945 0.00026071263 0)
(1.388634 0.00024401473 0)
(1.3890443 0.00022870309 0)
(1.3894258 0.00021457607 0)
(1.389781 0.00020136018 0)
(1.3901124 0.00018890153 0)
(1.3904222 0.00017714833 0)
(1.3907117 0.00016607875 0)
(1.3909822 0.00015566129 0)
(1.3912347 0.00014585308 0)
(1.3914706 0.00013661099 0)
(1.3916908 0.00012789854 0)
(1.3918963 0.00011968612 0)
(1.3920881 0.00011194791 0)
(1.3922671 0.00010465989 0)
(1.3924341 9.7799047e-05 0)
(1.3925897 9.134334e-05 0)
(1.3927348 8.5271804e-05 0)
(1.3928701 7.9564528e-05 0)
(1.392996 7.4202493e-05 0)
(1.3931133 6.9167505e-05 0)
(1.3932224 6.4442078e-05 0)
(1.393324 6.0009467e-05 0)
(1.3934185 5.5853605e-05 0)
(1.3935063 5.195916e-05 0)
(1.3935879 4.831145e-05 0)
(1.3936637 4.489649e-05 0)
(1.393734 4.170092e-05 0)
(1.3937993 3.8712055e-05 0)
(1.3938598 3.5917797e-05 0)
(1.393916 3.330668e-05 0)
(1.393968 3.0867798e-05 0)
(1.3940161 2.8590839e-05 0)
(1.3940607 2.6466008e-05 0)
(1.3941019 2.4484056e-05 0)
(1.39414 2.2636211e-05 0)
(1.3941752 2.0914209e-05 0)
(1.3942077 1.9310219e-05 0)
(1.3942377 1.7816869e-05 0)
(1.3942653 1.6427183e-05 0)
(1.3942907 1.5134608e-05 0)
(1.3943142 1.3932943e-05 0)
(1.3943357 1.281637e-05 0)
(1.3943555 1.1779387e-05 0)
(1.3943737 1.0816846e-05 0)
(1.3943904 9.9238794e-06 0)
(1.3944057 9.0959207e-06 0)
(1.3944196 8.3286743e-06 0)
(1.3944324 7.618127e-06 0)
(1.3944441 6.9604828e-06 0)
(1.3944548 6.3521993e-06 0)
(1.3944645 5.7899329e-06 0)
(1.3944734 5.270572e-06 0)
(1.3944814 4.7911779e-06 0)
(1.3944887 4.3490168e-06 0)
(1.3944953 3.9415096e-06 0)
(1.3945013 3.5662668e-06 0)
(1.3945067 3.2210338e-06 0)
(1.3945116 2.9037235e-06 0)
(1.394516 2.6123703e-06 0)
(1.3945199 2.3451642e-06 0)
(1.3945234 2.1003993e-06 0)
(1.3945266 1.8765064e-06 0)
(1.3945294 1.6720078e-06 0)
(1.3945318 1.4855506e-06 0)
(1.394534 1.3158564e-06 0)
(1.394536 1.1617518e-06 0)
(1.3945377 1.0221247e-06 0)
(1.3945392 8.9595602e-07 0)
(1.3945405 7.8227059e-07 0)
(1.3945416 6.801679e-07 0)
(1.3945426 5.887803e-07 0)
(1.3945435 5.0730533e-07 0)
(1.3945442 4.3496167e-07 0)
(1.3945448 3.710187e-07 0)
(1.3945453 3.1476675e-07 0)
(1.3945458 2.6553507e-07 0)
(1.3945461 2.2268804e-07 0)
(1.3945464 1.8558694e-07 0)
(1.3945467 1.5369734e-07 0)
(1.3945469 1.2635615e-07 0)
(1.3945471 1.0322738e-07 0)
(1.3945472 8.3478133e-08 0)
(1.3945473 6.725324e-08 0)
(1.3945474 5.3131404e-08 0)
(1.3945475 4.2386961e-08 0)
(1.3945475 3.1889669e-08 0)
(1.3945476 2.5714136e-08 0)
(1.3945476 1.6676894e-08 0)
(1.381137 -3.5645787e-05 0)
(1.3828106 -0.00020776269 0)
(1.3832778 -0.00035270131 0)
(1.3835017 -0.00041298429 0)
(1.3839758 -0.0004064383 0)
(1.3846834 -0.00037575666 0)
(1.3854376 -0.00034802568 0)
(1.386118 -0.00032858008 0)
(1.3867073 -0.00031269246 0)
(1.3872351 -0.00029619339 0)
(1.3877278 -0.00027843885 0)
(1.3881945 -0.00026066127 0)
(1.388634 -0.00024396547 0)
(1.3890443 -0.00022865725 0)
(1.3894258 -0.00021453448 0)
(1.389781 -0.00020132346 0)
(1.3901125 -0.00018886991 0)
(1.3904222 -0.00017712212 0)
(1.3907117 -0.00016605788 0)
(1.3909822 -0.00015564585 0)
(1.3912348 -0.00014584275 0)
(1.3914706 -0.00013660566 0)
(1.3916908 -0.0001278978 0)
(1.3918963 -0.00011968966 0)
(1.3920882 -0.00011195516 0)
(1.3922671 -0.00010467065 0)
(1.3924341 -9.781274e-05 0)
(1.3925898 -9.1359741e-05 0)
(1.3927349 -8.529033e-05 0)
(1.3928701 -7.9584982e-05 0)
(1.392996 -7.422433e-05 0)
(1.3931133 -6.919056e-05 0)
(1.3932224 -6.4465852e-05 0)
(1.393324 -6.0033852e-05 0)
(1.3934185 -5.5878163e-05 0)
(1.3935063 -5.1983826e-05 0)
(1.3935879 -4.8335833e-05 0)
(1.3936636 -4.4920578e-05 0)
(1.393734 -4.1724372e-05 0)
(1.3937993 -3.8734883e-05 0)
(1.3938598 -3.5939692e-05 0)
(1.393916 -3.3327687e-05 0)
(1.393968 -3.0887641e-05 0)
(1.3940161 -2.8609574e-05 0)
(1.3940607 -2.6483384e-05 0)
(1.3941019 -2.4500155e-05 0)
(1.39414 -2.2650817e-05 0)
(1.3941752 -2.0927422e-05 0)
(1.3942077 -1.9321857e-05 0)
(1.3942376 -1.7827069e-05 0)
(1.3942653 -1.6435808e-05 0)
(1.3942907 -1.5141822e-05 0)
(1.3943141 -1.3938651e-05 0)
(1.3943357 -1.2820772e-05 0)
(1.3943555 -1.178243e-05 0)
(1.3943737 -1.0818747e-05 0)
(1.3943903 -9.9246047e-06 0)
(1.3944056 -9.0957233e-06 0)
(1.3944196 -8.3275447e-06 0)
(1.3944324 -7.6162872e-06 0)
(1.3944441 -6.9579145e-06 0)
(1.3944548 -6.3491173e-06 0)
(1.3944645 -5.7863112e-06 0)
(1.3944733 -5.2665963e-06 0)
(1.3944814 -4.7868013e-06 0)
(1.3944887 -4.3444032e-06 0)
(1.3944953 -3.9365967e-06 0)
(1.3945013 -3.5611892e-06 0)
(1.3945067 -3.2157115e-06 0)
(1.3945116 -2.8982776e-06 0)
(1.3945159 -2.6067158e-06 0)
(1.3945199 -2.3394072e-06 0)
(1.3945234 -2.0944525e-06 0)
(1.3945265 -1.8704786e-06 0)
(1.3945293 -1.6658215e-06 0)
(1.3945318 -1.4793149e-06 0)
(1.394534 -1.3095038e-06 0)
(1.394536 -1.1554044e-06 0)
(1.3945377 -1.0157314e-06 0)
(1.3945392 -8.8964352e-07 0)
(1.3945405 -7.7599759e-07 0)
(1.3945416 -6.7407145e-07 0)
(1.3945426 -5.8282811e-07 0)
(1.3945434 -5.0163103e-07 0)
(1.3945442 -4.2953038e-07 0)
(1.3945448 -3.6596266e-07 0)
(1.3945453 -3.1004466e-07 0)
(1.3945458 -2.6126512e-07 0)
(1.3945461 -2.1881162e-07 0)
(1.3945464 -1.8221544e-07 0)
(1.3945467 -1.5075849e-07 0)
(1.3945469 -1.2396618e-07 0)
(1.3945471 -1.0129702e-07 0)
(1.3945472 -8.2113553e-08 0)
(1.3945473 -6.630715e-08 0)
(1.3945474 -5.2623761e-08 0)
(1.3945475 -4.2245212e-08 0)
(1.3945475 -3.2047893e-08 0)
(1.3945476 -2.6657494e-08 0)
(1.3945476 -1.8301677e-08 0)
(1.2844393 -0.00010581439 0)
(1.2859097 -0.00059531234 0)
(1.2862344 -0.00098875462 0)
(1.2863222 -0.0011366499 0)
(1.2866185 -0.0011034919 0)
(1.2871002 -0.0010105302 0)
(1.2876045 -0.00092890306 0)
(1.2880344 -0.00087012584 0)
(1.2883821 -0.00082080542 0)
(1.2886767 -0.00077037559 0)
(1.2889421 -0.00071767702 0)
(1.2891867 -0.00066607725 0)
(1.2894107 -0.000618313 0)
(1.2896132 -0.0005749856 0)
(1.2897956 -0.00053544124 0)
(1.2899606 -0.00049889587 0)
(1.2901106 -0.00046489155 0)
(1.2902476 -0.00043322924 0)
(1.290373 -0.00040378276 0)
(1.2904878 -0.00037640307 0)
(1.2905931 -0.00035091867 0)
(1.2906898 -0.00032716457 0)
(1.2907788 -0.00030499952 0)
(1.2908606 -0.00028430482 0)
(1.2909361 -0.00026497707 0)
(1.2910057 -0.00024692188 0)
(1.29107 -0.00023005216 0)
(1.2911294 -0.00021428722 0)
(1.2911843 -0.00019955315 0)
(1.291235 -0.00018578176 0)
(1.291282 -0.00017291032 0)
(1.2913254 -0.00016088042 0)
(1.2913656 -0.00014963799 0)
(1.2914029 -0.00013913241 0)
(1.2914373 -0.00012931674 0)
(1.2914692 -0.00012014695 0)
(1.2914987 -0.00011158215 0)
(1.291526 -0.00010358389 0)
(1.2915513 -9.6116402e-05 0)
(1.2915746 -8.9145996e-05 0)
(1.2915963 -8.2641339e-05 0)
(1.2916162 -7.6572858e-05 0)
(1.2916347 -7.0913029e-05 0)
(1.2916518 -6.5635851e-05 0)
(1.2916675 -6.0717139e-05 0)
(1.2916821 -5.6134009e-05 0)
(1.2916955 -5.1865172e-05 0)
(1.2917078 -4.7890469e-05 0)
(1.2917192 -4.4191171e-05 0)
(1.2917297 -4.0749513e-05 0)
(1.2917393 -3.7548991e-05 0)
(1.2917482 -3.4573944e-05 0)
(1.2917563 -3.1809846e-05 0)
(1.2917638 -2.9242887e-05 0)
(1.2917707 -2.6860267e-05 0)
(1.2917769 -2.4649808e-05 0)
(1.2917827 -2.2600247e-05 0)
(1.291788 -2.070084e-05 0)
(1.2917928 -1.8941668e-05 0)
(1.2917971 -1.7313274e-05 0)
(1.2918011 -1.5806933e-05 0)
(1.2918048 -1.4414317e-05 0)
(1.2918081 -1.3127753e-05 0)
(1.2918111 -1.1939916e-05 0)
(1.2918138 -1.0844087e-05 0)
(1.2918162 -9.8338365e-06 0)
(1.2918185 -8.9032818e-06 0)
(1.2918205 -8.0467987e-06 0)
(1.2918223 -7.2592684e-06 0)
(1.2918239 -6.5357899e-06 0)
(1.2918253 -5.871918e-06 0)
(1.2918266 -5.2633994e-06 0)
(1.2918278 -4.706403e-06 0)
(1.2918288 -4.1972503e-06 0)
(1.2918297 -3.7326381e-06 0)
(1.2918305 -3.3093876e-06 0)
(1.2918312 -2.9246594e-06 0)
(1.2918318 -2.575697e-06 0)
(1.2918323 -2.2600339e-06 0)
(1.2918328 -1.975257e-06 0)
(1.2918332 -1.7192077e-06 0)
(1.2918335 -1.4897434e-06 0)
(1.2918338 -1.284933e-06 0)
(1.2918341 -1.102843e-06 0)
(1.2918343 -9.417281e-07 0)
(1.2918345 -7.9981999e-07 0)
(1.2918346 -6.7551728e-07 0)
(1.2918347 -5.6718805e-07 0)
(1.2918348 -4.7338472e-07 0)
(1.2918349 -3.9258433e-07 0)
(1.291835 -3.2353396e-07 0)
(1.291835 -2.6473607e-07 0)
(1.2918351 -2.1529256e-07 0)
(1.2918351 -1.7346681e-07 0)
(1.2918351 -1.3916607e-07 0)
(1.2918352 -1.0967345e-07 0)
(1.2918352 -8.705843e-08 0)
(1.2918352 -6.5379948e-08 0)
(1.2918352 -5.2870644e-08 0)
(1.2918352 -3.4921078e-08 0)
(1.0836004 -0.00017011259 0)
(1.0846486 -0.00088197902 0)
(1.0846487 -0.0013917061 0)
(1.084411 -0.0015305873 0)
(1.0843047 -0.0014321637 0)
(1.0843128 -0.0012730393 0)
(1.0843227 -0.0011412969 0)
(1.084278 -0.0010443193 0)
(1.0841842 -0.00096234544 0)
(1.0840669 -0.00088259529 0)
(1.0839448 -0.00080439308 0)
(1.0838241 -0.00073171212 0)
(1.0837052 -0.00066707808 0)
(1.0835878 -0.00061035991 0)
(1.0834725 -0.00056014048 0)
(1.0833607 -0.00051506196 0)
(1.0832533 -0.00047427004 0)
(1.0831509 -0.00043726606 0)
(1.0830535 -0.0004036692 0)
(1.0829613 -0.00037310658 0)
(1.082874 -0.00034521705 0)
(1.0827917 -0.00031968059 0)
(1.0827142 -0.00029623229 0)
(1.0826413 -0.00027465348 0)
(1.0825728 -0.00025475988 0)
(1.0825086 -0.00023639038 0)
(1.0824485 -0.00021940385 0)
(1.0823921 -0.00020367525 0)
(1.0823395 -0.0001890953 0)
(1.0822902 -0.00017556674 0)
(1.0822443 -0.000163004 0)
(1.0822013 -0.00015132979 0)
(1.0821613 -0.00014047546 0)
(1.082124 -0.00013037827 0)
(1.0820893 -0.00012098219 0)
(1.0820569 -0.00011223559 0)
(1.0820268 -0.00010409215 0)
(1.0819988 -9.6508733e-05 0)
(1.0819728 -8.9446568e-05 0)
(1.0819486 -8.2869231e-05 0)
(1.0819262 -7.6743915e-05 0)
(1.0819054 -7.1039555e-05 0)
(1.0818861 -6.5728152e-05 0)
(1.0818682 -6.0783025e-05 0)
(1.0818516 -5.6180122e-05 0)
(1.0818363 -5.1896364e-05 0)
(1.0818221 -4.7910969e-05 0)
(1.081809 -4.4203892e-05 0)
(1.0817969 -4.0757111e-05 0)
(1.0817857 -3.7553128e-05 0)
(1.0817754 -3.4576257e-05 0)
(1.0817658 -3.1811194e-05 0)
(1.0817571 -2.9244259e-05 0)
(1.081749 -2.6862023e-05 0)
(1.0817416 -2.4652525e-05 0)
(1.0817348 -2.2603975e-05 0)
(1.0817285 -2.0705915e-05 0)
(1.0817228 -1.8947963e-05 0)
(1.0817175 -1.7320969e-05 0)
(1.0817127 -1.5815806e-05 0)
(1.0817083 -1.4424466e-05 0)
(1.0817042 -1.3138908e-05 0)
(1.0817006 -1.1952129e-05 0)
(1.0816972 -1.0857066e-05 0)
(1.0816942 -9.8476147e-06 0)
(1.0816914 -8.9175654e-06 0)
(1.0816889 -8.061608e-06 0)
(1.0816866 -7.2743135e-06 0)
(1.0816846 -6.5510892e-06 0)
(1.0816827 -5.8871914e-06 0)
(1.081681 -5.278665e-06 0)
(1.0816795 -4.7213928e-06 0)
(1.0816782 -4.2119903e-06 0)
(1.081677 -3.7468791e-06 0)
(1.0816759 -3.3231668e-06 0)
(1.0816749 -2.9377509e-06 0)
(1.0816741 -2.5881586e-06 0)
(1.0816733 -2.2716704e-06 0)
(1.0816726 -1.9861491e-06 0)
(1.081672 -1.7291935e-06 0)
(1.0816715 -1.4989314e-06 0)
(1.0816711 -1.2931965e-06 0)
(1.0816707 -1.1103138e-06 0)
(1.0816704 -9.4831006e-07 0)
(1.0816701 -8.0566615e-07 0)
(1.0816698 -6.8055527e-07 0)
(1.0816696 -5.715862e-07 0)
(1.0816694 -4.7707631e-07 0)
(1.0816693 -3.9576496e-07 0)
(1.0816692 -3.2609752e-07 0)
(1.0816691 -2.6696597e-07 0)
(1.081669 -2.1691811e-07 0)
(1.0816689 -1.7508259e-07 0)
(1.0816688 -1.3996946e-07 0)
(1.0816688 -1.1119281e-07 0)
(1.0816688 -8.6861005e-08 0)
(1.0816687 -6.7704637e-08 0)
(1.0816687 -5.0122511e-08 0)
(1.0816687 -3.8584574e-08 0)
(1.0816687 -2.3914173e-08 0)
(0.7644271 -0.00021480998 0)
(0.76479699 -0.00095160873 0)
(0.76424477 -0.0013504219 0)
(0.76346838 -0.0013387585 0)
(0.76277933 -0.0011334404 0)
(0.76219488 -0.00092232202 0)
(0.76166058 -0.00077024582 0)
(0.76114925 -0.0006660444 0)
(0.76066309 -0.00058449016 0)
(0.76021181 -0.00051280873 0)
(0.75980001 -0.00044950836 0)
(0.7594261 -0.00039607067 0)
(0.75908577 -0.00035239589 0)
(0.75877471 -0.00031665415 0)
(0.75848955 -0.00028666357 0)
(0.7582277 -0.00026080515 0)
(0.75798696 -0.00023812746 0)
(0.75776533 -0.00021807714 0)
(0.75756098 -0.0002002532 0)
(0.75737228 -0.00018430895 0)
(0.75719781 -0.00016994516 0)
(0.75703634 -0.00015692242 0)
(0.75688677 -0.00014505723 0)
(0.75674815 -0.00013420817 0)
(0.75661959 -0.00012426032 0)
(0.75650033 -0.00011511711 0)
(0.75638965 -0.0001066952 0)
(0.75628692 -9.8923345e-05 0)
(0.75619154 -9.1739722e-05 0)
(0.75610299 -8.5091188e-05 0)
(0.75602077 -7.8930792e-05 0)
(0.75594444 -7.3217496e-05 0)
(0.75587358 -6.791436e-05 0)
(0.75580781 -6.298882e-05 0)
(0.75574678 -5.8411236e-05 0)
(0.75569016 -5.4155337e-05 0)
(0.75563764 -5.0196911e-05 0)
(0.75558894 -4.651439e-05 0)
(0.7555438 -4.3087702e-05 0)
(0.75550198 -3.9898904e-05 0)
(0.75546324 -3.6931117e-05 0)
(0.75542738 -3.4169225e-05 0)
(0.75539419 -3.1598908e-05 0)
(0.7553635 -2.9207324e-05 0)
(0.75533512 -2.6982192e-05 0)
(0.75530891 -2.4912506e-05 0)
(0.75528471 -2.2987681e-05 0)
(0.75526237 -2.1198238e-05 0)
(0.75524177 -1.9534982e-05 0)
(0.75522279 -1.7989698e-05 0)
(0.75520531 -1.655438e-05 0)
(0.75518922 -1.5221895e-05 0)
(0.75517443 -1.3985232e-05 0)
(0.75516084 -1.2838167e-05 0)
(0.75514837 -1.1774564e-05 0)
(0.75513693 -1.0788993e-05 0)
(0.75512644 -9.8760563e-06 0)
(0.75511685 -9.0310037e-06 0)
(0.75510807 -8.2490977e-06 0)
(0.75510006 -7.5261926e-06 0)
(0.75509275 -6.8581123e-06 0)
(0.75508609 -6.2412308e-06 0)
(0.75508002 -5.6718857e-06 0)
(0.75507451 -5.1469207e-06 0)
(0.75506951 -4.6631133e-06 0)
(0.75506499 -4.2177157e-06 0)
(0.75506089 -3.8079144e-06 0)
(0.75505719 -3.4313367e-06 0)
(0.75505386 -3.08552e-06 0)
(0.75505086 -2.7684185e-06 0)
(0.75504817 -2.4778985e-06 0)
(0.75504577 -2.2122127e-06 0)
(0.75504362 -1.9695028e-06 0)
(0.75504171 -1.7482736e-06 0)
(0.75504001 -1.5469179e-06 0)
(0.7550385 -1.364161e-06 0)
(0.75503718 -1.1985913e-06 0)
(0.75503602 -1.0491054e-06 0)
(0.755035 -9.1446108e-07 0)
(0.75503411 -7.9369592e-07 0)
(0.75503334 -6.8568577e-07 0)
(0.75503267 -5.8956867e-07 0)
(0.7550321 -5.0432295e-07 0)
(0.75503161 -4.2917197e-07 0)
(0.75503119 -3.6316342e-07 0)
(0.75503084 -3.0558716e-07 0)
(0.75503054 -2.5556417e-07 0)
(0.75503029 -2.1245768e-07 0)
(0.75503008 -1.7544821e-07 0)
(0.75502991 -1.4397153e-07 0)
(0.75502977 -1.1727589e-07 0)
(0.75502966 -9.4878708e-08 0)
(0.75502957 -7.6089903e-08 0)
(0.75502949 -6.0496037e-08 0)
(0.75502943 -4.7561264e-08 0)
(0.75502939 -3.6799085e-08 0)
(0.75502935 -2.7829178e-08 0)
(0.75502932 -2.0059699e-08 0)
(0.75502931 -1.3157568e-08 0)
(0.75502928 -6.3234854e-09 0)
(0.30756028 -0.00019077438 0)
(0.30715093 -0.00056445942 0)
(0.30623002 -0.00062854246 0)
(0.3052908 -0.00048818274 0)
(0.30452561 -0.00032368999 0)
(0.30393586 -0.00021639098 0)
(0.3034672 -0.00016216565 0)
(0.30307466 -0.00013349187 0)
(0.30273505 -0.00011276959 0)
(0.30243867 -9.5053711e-05 0)
(0.30217985 -8.0669428e-05 0)
(0.3019529 -7.0002936e-05 0)
(0.30175195 -6.233166e-05 0)
(0.30157197 -5.6515347e-05 0)
(0.30140926 -5.1691222e-05 0)
(0.30126125 -4.7438297e-05 0)
(0.30112609 -4.3616894e-05 0)
(0.30100231 -4.0181563e-05 0)
(0.30088865 -3.7088883e-05 0)
(0.30078406 -3.4286747e-05 0)
(0.30068763 -3.1727742e-05 0)
(0.30059859 -2.9378383e-05 0)
(0.30051629 -2.7215949e-05 0)
(0.30044014 -2.5223914e-05 0)
(0.30036965 -2.3387091e-05 0)
(0.30030434 -2.1691714e-05 0)
(0.3002438 -2.0124547e-05 0)
(0.30018767 -1.867435e-05 0)
(0.30013561 -1.7330694e-05 0)
(0.30008732 -1.608492e-05 0)
(0.30004252 -1.4928719e-05 0)
(0.30000095 -1.385516e-05 0)
(0.29996238 -1.2857429e-05 0)
(0.2999266 -1.1929949e-05 0)
(0.29989341 -1.1067124e-05 0)
(0.29986263 -1.0264432e-05 0)
(0.29983408 -9.5172046e-06 0)
(0.29980763 -8.821741e-06 0)
(0.29978311 -8.1741138e-06 0)
(0.29976039 -7.5712462e-06 0)
(0.29973936 -7.009779e-06 0)
(0.29971988 -6.487147e-06 0)
(0.29970187 -6.000467e-06 0)
(0.29968521 -5.5475689e-06 0)
(0.29966981 -5.1259402e-06 0)
(0.29965558 -4.7337472e-06 0)
(0.29964244 -4.3688021e-06 0)
(0.29963032 -4.0295344e-06 0)
(0.29961914 -3.7140116e-06 0)
(0.29960884 -3.4208967e-06 0)
(0.29959935 -3.1484911e-06 0)
(0.29959062 -2.8956412e-06 0)
(0.2995826 -2.6608331e-06 0)
(0.29957522 -2.4430832e-06 0)
(0.29956845 -2.2410534e-06 0)
(0.29956224 -2.0538937e-06 0)
(0.29955655 -1.8804049e-06 0)
(0.29955135 -1.7198648e-06 0)
(0.29954658 -1.5712111e-06 0)
(0.29954223 -1.4338217e-06 0)
(0.29953827 -1.3067418e-06 0)
(0.29953465 -1.1894481e-06 0)
(0.29953136 -1.0810943e-06 0)
(0.29952837 -9.8123359e-07 0)
(0.29952565 -8.8910392e-07 0)
(0.2995232 -8.0433713e-07 0)
(0.29952097 -7.2625874e-07 0)
(0.29951897 -6.5456007e-07 0)
(0.29951716 -5.8863379e-07 0)
(0.29951553 -5.2823422e-07 0)
(0.29951407 -4.7282512e-07 0)
(0.29951277 -4.2220643e-07 0)
(0.2995116 -3.7589402e-07 0)
(0.29951056 -3.3373651e-07 0)
(0.29950964 -2.9530501e-07 0)
(0.29950883 -2.6047954e-07 0)
(0.29950811 -2.2886774e-07 0)
(0.29950748 -2.0038317e-07 0)
(0.29950693 -1.7467246e-07 0)
(0.29950644 -1.5166644e-07 0)
(0.29950603 -1.310336e-07 0)
(0.29950567 -1.1272531e-07 0)
(0.29950536 -9.6436112e-08 0)
(0.29950509 -8.2125352e-08 0)
(0.29950487 -6.9500229e-08 0)
(0.29950467 -5.8535146e-08 0)
(0.29950451 -4.8956974e-08 0)
(0.29950438 -4.0747621e-08 0)
(0.29950427 -3.3644072e-08 0)
(0.29950418 -2.764368e-08 0)
(0.2995041 -2.2495744e-08 0)
(0.29950404 -1.8209597e-08 0)
(0.29950399 -1.4533378e-08 0)
(0.29950395 -1.1522265e-08 0)
(0.29950392 -8.9327054e-09 0)
(0.29950389 -6.7517383e-09 0)
(0.29950388 -4.7938441e-09 0)
(0.29950386 -2.9830569e-09 0)
(0.29950386 -5.9018713e-10 0)
(0.29950385 7.3442657e-10 0)
)
;

boundaryField
{
    top
    {
        type            fixedValue;
        value           uniform (0 0 0);
    }
    inlet
    {
        type            pressureNormalInletOutletVelocity;
        phi             phi;
        rho             rho;
        value           nonuniform List<vector> 10((0.30761355 0 0) (0.76457683 0 0) (1.0838967 0 0) (1.2848643 0 0) (1.3816345 0 0) (1.3816343 -0 0) (1.2848644 -0 0) (1.0838967 -0 0) (0.76457684 -0 0) (0.30761367 -0 0));