# Region type : patch outlet
# Faces         : 10
# Area          : 1.00000000e-01
# Scale factor  : 1.00000000e+00
# Time          	max(U)	max(p)
0.05            	(7.32626423e-03 1.26238900e-06 0.00000000e+00)	0.00000000e+00
0.1             	(1.49663233e-02 6.75226351e-07 0.00000000e+00)	0.00000000e+00
0.15            	(2.25698643e-02 9.79795015e-07 0.00000000e+00)	0.00000000e+00
0.2             	(3.01728005e-02 1.13703117e-06 0.00000000e+00)	0.00000000e+00
0.25            	(3.77747621e-02 1.24527398e-06 0.00000000e+00)	0.00000000e+00
0.3             	(4.53768590e-02 1.30924223e-06 0.00000000e+00)	0.00000000e+00
0.35            	(5.29788904e-02 1.33771444e-06 0.00000000e+00)	0.00000000e+00
0.4             	(6.05808356e-02 1.33927278e-06 0.00000000e+00)	0.00000000e+00
0.45            	(6.81823623e-02 1.32028796e-06 0.00000000e+00)	0.00000000e+00
0.5             	(7.57832388e-02 1.28538039e-06 0.00000000e+00)	0.00000000e+00
0.55            	(8.33831601e-02 1.23878115e-06 0.00000000e+00)	0.00000000e+00
0.6             	(9.09817463e-02 1.18386304e-06 0.00000000e+00)	0.00000000e+00
0.65            	(9.85785688e-02 1.12319165e-06 0.00000000e+00)	0.00000000e+00
0.7             	(1.06173167e-01 1.05875234e-06 0.00000000e+00)	0.00000000e+00
0.75            	(1.13765086e-01 9.92112980e-07 0.00000000e+00)	0.00000000e+00
0.8             	(1.21353851e-01 9.24500246e-07 0.00000000e+00)	0.00000000e+00
0.85            	(1.28938962e-01 8.56886445e-07 0.00000000e+00)	0.00000000e+00
0.9             	(1.36519780e-01 7.90146130e-07 0.00000000e+00)	0.00000000e+00
0.95            	(1.44095952e-01 7.24529124e-07 0.00000000e+00)	0.00000000e+00
1               	(1.51666779e-01 6.60949115e-07 0.00000000e+00)	0.00000000e+00
1.05            	(1.59231753e-01 5.99486489e-07 0.00000000e+00)	0.00000000e+00
1.1             	(1.66790056e-01 5.40896265e-07 0.00000000e+00)	0.00000000e+00
1.15            	(1.74341302e-01 4.84681112e-07 0.00000000e+00)	0.00000000e+00
1.2             	(1.81884808e-01 4.31448408e-07 0.00000000e+00)	0.00000000e+00
1.25            	(1.89419714e-01 3.87902056e-07 0.00000000e+00)	0.00000000e+00
1.3             	(1.96945676e-01 3.47128240e-07 0.00000000e+00)	0.00000000e+00
1.35            	(2.04462003e-01 3.07614129e-07 0.00000000e+00)	0.00000000e+00
1.4             	(2.11967804e-01 2.70124448e-07 0.00000000e+00)	0.00000000e+00
1.45            	(2.19462733e-01 2.34204459e-07 0.00000000e+00)	0.00000000e+00
1.5             	(2.26946097e-01 2.00504333e-07 0.00000000e+00)	0.00000000e+00
1.55            	(2.34417015e-01 1.69388658e-07 0.00000000e+00)	0.00000000e+00
1.6             	(2.41875173e-01 1.40088622e-07 0.00000000e+00)	0.00000000e+00
1.65            	(2.49319891e-01 1.13250589e-07 0.00000000e+00)	0.00000000e+00
1.7             	(2.56750310e-01 8.91480275e-08 0.00000000e+00)	0.00000000e+00
1.75            	(2.64166147e-01 6.67886083e-08 0.00000000e+00)	0.00000000e+00
1.8             	(2.71566748e-01 4.68420129e-08 0.00000000e+00)	0.00000000e+00
1.85            	(2.78951289e-01 2.95371599e-08 0.00000000e+00)	0.00000000e+00
1.9             	(2.86319530e-01 1.50819565e-08 0.00000000e+00)	0.00000000e+00
1.95            	(2.93670849e-01 6.83061595e-09 0.00000000e+00)	0.00000000e+00
2               	(3.01004468e-01 1.24157460e-08 0.00000000e+00)	0.00000000e+00
2.05            	(3.08320191e-01 2.13725427e-08 0.00000000e+00)	0.00000000e+00
2.1             	(3.15617432e-01 2.98441894e-08 0.00000000e+00)	0.00000000e+00
2.15            	(3.22895593e-01 3.64760512e-08 0.00000000e+00)	0.00000000e+00
2.2             	(3.30154237e-01 4.17399793e-08 0.00000000e+00)	0.00000000e+00
2.25            	(3.37392928e-01 4.57715470e-08 0.00000000e+00)	0.00000000e+00
2.3             	(3.44611232e-01 4.86464221e-08 0.00000000e+00)	0.00000000e+00
2.35            	(3.51808725e-01 5.04673566e-08 0.00000000e+00)	0.00000000e+00
2.4             	(3.58984995e-01 5.13452401e-08 0.00000000e+00)	0.00000000e+00
2.45            	(3.66139649e-01 5.13968545e-08 0.00000000e+00)	0.00000000e+00
2.5             	(3.73272310e-01 5.07351186e-08 0.00000000e+00)	0.00000000e+00
2.55            	(3.80382617e-01 4.94623672e-08 0.00000000e+00)	0.00000000e+00
2.6             	(3.87470224e-01 4.76728369e-08 0.00000000e+00)	0.00000000e+00
2.65            	(3.94534799e-01 4.54542594e-08 0.00000000e+00)	0.00000000e+00
2.7             	(4.01576028e-01 4.28884150e-08 0.00000000e+00)	0.00000000e+00
2.75            	(4.08593609e-01 4.00506770e-08 0.00000000e+00)	0.00000000e+00
2.8             	(4.15587254e-01 3.70092627e-08 0.00000000e+00)	0.00000000e+00
2.85            	(4.22556693e-01 3.38262207e-08 0.00000000e+00)	0.00000000e+00
2.9             	(4.29501665e-01 3.05570936e-08 0.00000000e+00)	0.00000000e+00
2.95            	(4.36421925e-01 2.72501439e-08 0.00000000e+00)	0.00000000e+00
3               	(4.43317242e-01 2.39529991e-08 0.00000000e+00)	0.00000000e+00
3.05            	(4.50187396e-01 2.06996176e-08 0.00000000e+00)	0.00000000e+00
3.1             	(4.57032181e-01 1.75180890e-08 0.00000000e+00)	0.00000000e+00
3.15            	(4.63851401e-01 1.44489114e-08 0.00000000e+00)	0.00000000e+00
3.2             	(4.70644876e-01 1.20529397e-08 0.00000000e+00)	0.00000000e+00
3.25            	(4.77412432e-01 9.74780178e-09 0.00000000e+00)	0.00000000e+00
3.3             	(4.84153911e-01 7.55225259e-09 0.00000000e+00)	0.00000000e+00
3.35            	(4.90869163e-01 5.47473846e-09 0.00000000e+00)	0.00000000e+00
3.4             	(4.97558049e-01 5.81110218e-09 0.00000000e+00)	0.00000000e+00
3.45            	(5.04220442e-01 7.59264606e-09 0.00000000e+00)	0.00000000e+00
3.5             	(5.10856222e-01 9.26505337e-09 0.00000000e+00)	0.00000000e+00
3.55            	(5.17465280e-01 1.08290628e-08 0.00000000e+00)	0.00000000e+00
3.6             	(5.24047516e-01 1.22879631e-08 0.00000000e+00)	0.00000000e+00
3.65            	(5.30602840e-01 1.36776724e-08 0.00000000e+00)	0.00000000e+00
3.7             	(5.37131169e-01 1.49683629e-08 0.00000000e+00)	0.00000000e+00
3.75            	(5.43632428e-01 1.61660545e-08 0.00000000e+00)	0.00000000e+00
3.8             	(5.50106552e-01 1.72713803e-08 0.00000000e+00)	0.00000000e+00
3.85            	(5.56553481e-01 1.82905883e-08 0.00000000e+00)	0.00000000e+00
3.9             	(5.62973165e-01 1.92293718e-08 0.00000000e+00)	0.00000000e+00
3.95            	(5.69365559e-01 2.00945337e-08 0.00000000e+00)	0.00000000e+00
4               	(5.75730627e-01 2.08900086e-08 0.00000000e+00)	0.00000000e+00
4.05            	(5.82068337e-01 2.15788741e-08 0.00000000e+00)	0.00000000e+00
4.1             	(5.88378666e-01 2.22052939e-08 0.00000000e+00)	0.00000000e+00
4.15            	(5.94661596e-01 2.27779595e-08 0.00000000e+00)	0.00000000e+00
4.2             	(6.00917113e-01 2.33048840e-08 0.00000000e+00)	0.00000000e+00
4.25            	(6.07145215e-01 2.37784787e-08 0.00000000e+00)	0.00000000e+00
4.3             	(6.13345895e-01 2.42466314e-08 0.00000000e+00)	0.00000000e+00
4.35            	(6.19519160e-01 2.46676558e-08 0.00000000e+00)	0.00000000e+00
4.4             	(6.25665019e-01 2.50585108e-08 0.00000000e+00)	0.00000000e+00
4.45            	(6.31783486e-01 2.54173835e-08 0.00000000e+00)	0.00000000e+00
4.5             	(6.37874579e-01 2.57506829e-08 0.00000000e+00)	0.00000000e+00
4.55            	(6.43938320e-01 2.60581826e-08 0.00000000e+00)	0.00000000e+00
4.6             	(6.49974738e-01 2.63450464e-08 0.00000000e+00)	0.00000000e+00
4.65            	(6.55983863e-01 2.66117405e-08 0.00000000e+00)	0.00000000e+00
4.7             	(6.61965730e-01 2.68598421e-08 0.00000000e+00)	0.00000000e+00
4.75            	(6.67920378e-01 2.70897928e-08 0.00000000e+00)	0.00000000e+00
4.8             	(6.73847848e-01 2.73030656e-08 0.00000000e+00)	0.00000000e+00
4.85            	(6.79748187e-01 2.75003064e-08 0.00000000e+00)	0.00000000e+00
4.9             	(6.85621443e-01 2.76796931e-08 0.00000000e+00)	0.00000000e+00
4.95            	(6.91467668e-01 2.78450310e-08 0.00000000e+00)	0.00000000e+00
5               	(6.97286918e-01 2.79970406e-08 0.00000000e+00)	0.00000000e+00
5.05            	(7.03079249e-01 2.80694352e-08 0.00000000e+00)	0.00000000e+00
5.1             	(7.08844722e-01 2.81388125e-08 0.00000000e+00)	0.00000000e+00
5.15            	(7.14583401e-01 2.82084777e-08 0.00000000e+00)	0.00000000e+00
5.2             	(7.20295349e-01 2.82811111e-08 0.00000000e+00)	0.00000000e+00
5.25            	(7.25980636e-01 2.83521379e-08 0.00000000e+00)	0.00000000e+00
5.3             	(7.31639331e-01 2.84219357e-08 0.00000000e+00)	0.00000000e+00
5.35            	(7.37271506e-01 2.84856270e-08 0.00000000e+00)	0.00000000e+00
5.4             	(7.42877235e-01 2.85440670e-08 0.00000000e+00)	0.00000000e+00
5.45            	(7.48456595e-01 2.85960325e-08 0.00000000e+00)	0.00000000e+00
5.5             	(7.54009662e-01 2.86400241e-08 0.00000000e+00)	0.00000000e+00
5.55            	(7.59536517e-01 2.86762907e-08 0.00000000e+00)	0.00000000e+00
5.6             	(7.65037240e-01 2.87054840e-08 0.00000000e+00)	0.00000000e+00
5.65            	(7.70511916e-01 2.87136863e-08 0.00000000e+00)	0.00000000e+00
5.7             	(7.75960626e-01 2.87597054e-08 0.00000000e+00)	0.00000000e+00
5.75            	(7.81383457e-01 2.87686579e-08 0.00000000e+00)	0.00000000e+00
5.8             	(7.86780494e-01 2.87852213e-08 0.00000000e+00)	0.00000000e+00
5.85            	(7.92151828e-01 2.87539970e-08 0.00000000e+00)	0.00000000e+00
5.9             	(7.97497548e-01 2.87351899e-08 0.00000000e+00)	0.00000000e+00
5.95            	(8.02817743e-01 2.86943121e-08 0.00000000e+00)	0.00000000e+00
6               	(8.08112505e-01 2.86549276e-08 0.00000000e+00)	0.00000000e+00
6.05            	(8.13381927e-01 2.85989732e-08 0.00000000e+00)	0.00000000e+00
6.1             	(8.18626101e-01 2.85401080e-08 0.00000000e+00)	0.00000000e+00
6.15            	(8.23845123e-01 2.84709304e-08 0.00000000e+00)	0.00000000e+00
6.2             	(8.29039087e-01 2.83846314e-08 0.00000000e+00)	0.00000000e+00
6.25            	(8.34208088e-01 2.83319197e-08 0.00000000e+00)	0.00000000e+00
6.3             	(8.39352222e-01 2.82574554e-08 0.00000000e+00)	0.00000000e+00
6.35            	(8.44471587e-01 2.81815412e-08 0.00000000e+00)	0.00000000e+00
6.4             	(8.49566281e-01 2.80888855e-08 0.00000000e+00)	0.00000000e+00
6.45            	(8.54636401e-01 2.79897354e-08 0.00000000e+00)	0.00000000e+00
6.5             	(8.59682048e-01 2.78774658e-08 0.00000000e+00)	0.00000000e+00
6.55            	(8.64703320e-01 2.77578700e-08 0.00000000e+00)	0.00000000e+00
6.6             	(8.69700317e-01 2.76264047e-08 0.00000000e+00)	0.00000000e+00
6.65            	(8.74673139e-01 2.74931637e-08 0.00000000e+00)	0.00000000e+00
6.7             	(8.79621887e-01 2.73512701e-08 0.00000000e+00)	0.00000000e+00
6.75            	(8.84546660e-01 2.72053354e-08 0.00000000e+00)	0.00000000e+00
6.8             	(8.89447561e-01 2.70533389e-08 0.00000000e+00)	0.00000000e+00
6.85            	(8.94324690e-01 2.68972034e-08 0.00000000e+00)	0.00000000e+00
6.9             	(8.99178150e-01 2.67364599e-08 0.00000000e+00)	0.00000000e+00
6.95            	(9.04008043e-01 2.65617984e-08 0.00000000e+00)	0.00000000e+00
7               	(9.08814469e-01 2.64097418e-08 0.00000000e+00)	0.00000000e+00
7.05            	(9.13597531e-01 2.62584443e-08 0.00000000e+00)	0.00000000e+00
7.1             	(9.18357330e-01 2.61016868e-08 0.00000000e+00)	0.00000000e+00
7.15            	(9.23093970e-01 2.59381142e-08 0.00000000e+00)	0.00000000e+00
7.2             	(9.27807553e-01 2.57675375e-08 0.00000000e+00)	0.00000000e+00
7.25            	(9.32498181e-01 2.55874380e-08 0.00000000e+00)	0.00000000e+00
7.3             	(9.37165957e-01 2.53979187e-08 0.00000000e+00)	0.00000000e+00
7.35            	(9.41810985e-01 2.51907033e-08 0.00000000e+00)	0.00000000e+00
7.4             	(9.46433366e-01 2.49907623e-08 0.00000000e+00)	0.00000000e+00
7.45            	(9.51033202e-01 2.47991191e-08 0.00000000e+00)	0.00000000e+00
7.5             	(9.55610596e-01 2.46120807e-08 0.00000000e+00)	0.00000000e+00
7.55            	(9.60165650e-01 2.44204896e-08 0.00000000e+00)	0.00000000e+00
7.6             	(9.64698466e-01 2.42262669e-08 0.00000000e+00)	0.00000000e+00
7.65            	(9.69209147e-01 2.40296554e-08 0.00000000e+00)	0.00000000e+00
7.7             	(9.73697795e-01 2.38308791e-08 0.00000000e+00)	0.00000000e+00
7.75            	(9.78164511e-01 2.36299952e-08 0.00000000e+00)	0.00000000e+00
7.8             	(9.82609398e-01 2.34272470e-08 0.00000000e+00)	0.00000000e+00
7.85            	(9.87032556e-01 2.32229726e-08 0.00000000e+00)	0.00000000e+00
7.9             	(9.91434087e-01 2.30174135e-08 0.00000000e+00)	0.00000000e+00
7.95            	(9.95814094e-01 2.28109394e-08 0.00000000e+00)	0.00000000e+00
8               	(1.00017268e+00 2.26040605e-08 0.00000000e+00)	0.00000000e+00
8.05            	(1.00450993e+00 2.23886863e-08 0.00000000e+00)	0.00000000e+00
8.1             	(1.00882597e+00 2.21862854e-08 0.00000000e+00)	0.00000000e+00
8.15            	(1.01312088e+00 2.20260198e-08 0.00000000e+00)	0.00000000e+00
8.2             	(1.01739477e+00 2.18723732e-08 0.00000000e+00)	0.00000000e+00
8.25            	(1.02164773e+00 2.16920001e-08 0.00000000e+00)	0.00000000e+00
8.3             	(1.02587988e+00 2.14428144e-08 0.00000000e+00)	0.00000000e+00
8.35            	(1.03009130e+00 2.12028958e-08 0.00000000e+00)	0.00000000e+00
8.4             	(1.03428210e+00 2.09878329e-08 0.00000000e+00)	0.00000000e+00
8.45            	(1.03845237e+00 2.08009814e-08 0.00000000e+00)	0.00000000e+00
8.5             	(1.04260221e+00 2.05679058e-08 0.00000000e+00)	0.00000000e+00
8.55            	(1.04673173e+00 2.03086947e-08 0.00000000e+00)	0.00000000e+00
8.6             	(1.05084101e+00 2.00251250e-08 0.00000000e+00)	0.00000000e+00
8.65            	(1.05493016e+00 1.97277327e-08 0.00000000e+00)	0.00000000e+00
8.7             	(1.05899928e+00 1.94276029e-08 0.00000000e+00)	0.00000000e+00
8.75            	(1.06304845e+00 1.91438093e-08 0.00000000e+00)	0.00000000e+00
8.8             	(1.06707779e+00 1.89052318e-08 0.00000000e+00)	0.00000000e+00
8.85            	(1.07108738e+00 1.86593994e-08 0.00000000e+00)	0.00000000e+00
8.9             	(1.07507732e+00 1.84083079e-08 0.00000000e+00)	0.00000000e+00
8.95            	(1.07904770e+00 1.81536375e-08 0.00000000e+00)	0.00000000e+00
9               	(1.08299863e+00 1.78965598e-08 0.00000000e+00)	0.00000000e+00
9.05            	(1.08693019e+00 1.76378007e-08 0.00000000e+00)	0.00000000e+00
9.1             	(1.09084249e+00 1.73777818e-08 0.00000000e+00)	0.00000000e+00
9.15            	(1.09473561e+00 1.71167170e-08 0.00000000e+00)	0.00000000e+00
9.2             	(1.09860965e+00 1.68547272e-08 0.00000000e+00)	0.00000000e+00
9.25            	(1.10246470e+00 1.65918600e-08 0.00000000e+00)	0.00000000e+00
9.3             	(1.10630086e+00 1.63281358e-08 0.00000000e+00)	0.00000000e+00
9.35            	(1.11011821e+00 1.60635412e-08 0.00000000e+00)	0.00000000e+00
9.4             	(1.11391686e+00 1.57980369e-08 0.00000000e+00)	0.00000000e+00
9.45            	(1.11769690e+00 1.54970645e-08 0.00000000e+00)	0.00000000e+00
9.5             	(1.12145841e+00 1.52735264e-08 0.00000000e+00)	0.00000000e+00
9.55            	(1.12520148e+00 1.50574047e-08 0.00000000e+00)	0.00000000e+00
9.6             	(1.12892621e+00 1.48133318e-08 0.00000000e+00)	0.00000000e+00
9.65            	(1.13263269e+00 1.45528106e-08 0.00000000e+00)	0.00000000e+00
9.7             	(1.13632101e+00 1.42868984e-08 0.00000000e+00)	0.00000000e+00
9.75            	(1.13999126e+00 1.39482938e-08 0.00000000e+00)	0.00000000e+00
9.8             	(1.14364353e+00 1.36566459e-08 0.00000000e+00)	0.00000000e+00
9.85            	(1.14727790e+00 1.34113992e-08 0.00000000e+00)	0.00000000e+00
9.9             	(1.15089447e+00 1.31697918e-08 0.00000000e+00)	0.00000000e+00
9.95            	(1.15449333e+00 1.29110468e-08 0.00000000e+00)	0.00000000e+00
10              	(1.15807455e+00 1.26359919e-08 0.00000000e+00)	0.00000000e+00
10.05           	(1.16163824e+00 1.24928642e-08 0.00000000e+00)	0.00000000e+00
10.1            	(1.16518447e+00 1.23508324e-08 0.00000000e+00)	0.00000000e+00
10.15           	(1.16871334e+00 1.21731100e-08 0.00000000e+00)	0.00000000e+00
10.2            	(1.17222493e+00 1.19629845e-08 0.00000000e+00)	0.00000000e+00
10.25           	(1.17571933e+00 1.17280266e-08 0.00000000e+00)	0.00000000e+00
10.3            	(1.17919661e+00 1.14738829e-08 0.00000000e+00)	0.00000000e+00
10.35           	(1.18265688e+00 1.12063554e-08 0.00000000e+00)	0.00000000e+00
10.4            	(1.18610020e+00 1.09302990e-08 0.00000000e+00)	0.00000000e+00
10.45           	(1.18952668e+00 1.06492446e-08 0.00000000e+00)	0.00000000e+00
10.5            	(1.19293638e+00 1.03654590e-08 0.00000000e+00)	0.00000000e+00
10.55           	(1.19632940e+00 1.00803716e-08 0.00000000e+00)	0.00000000e+00
10.6            	(1.19970582e+00 9.79491957e-09 0.00000000e+00)	0.00000000e+00
10.65           	(1.20306571e+00 9.50971798e-09 0.00000000e+00)	0.00000000e+00
10.7            	(1.20640917e+00 9.22513847e-09 0.00000000e+00)	0.00000000e+00
10.75           	(1.20973628e+00 8.94135556e-09 0.00000000e+00)	0.00000000e+00
10.8            	(1.21304711e+00 8.65848896e-09 0.00000000e+00)	0.00000000e+00
10.85           	(1.21634175e+00 8.37669041e-09 0.00000000e+00)	0.00000000e+00
10.9            	(1.21962028e+00 8.09603326e-09 0.00000000e+00)	0.00000000e+00
10.95           	(1.22288278e+00 7.81656572e-09 0.00000000e+00)	0.00000000e+00
11              	(1.22612933e+00 7.53841173e-09 0.00000000e+00)	0.00000000e+00
11.05           	(1.22936002e+00 7.18413268e-09 0.00000000e+00)	0.00000000e+00
11.1            	(1.23257492e+00 6.94947219e-09 0.00000000e+00)	0.00000000e+00
11.15           	(1.23577410e+00 6.72475160e-09 0.00000000e+00)	0.00000000e+00
11.2            	(1.23895764e+00 6.52530316e-09 0.00000000e+00)	0.00000000e+00
11.25           	(1.24212563e+00 6.33957768e-09 0.00000000e+00)	0.00000000e+00
11.3            	(1.24527813e+00 6.15615027e-09 0.00000000e+00)	0.00000000e+00
11.35           	(1.24841525e+00 5.76319096e-09 0.00000000e+00)	0.00000000e+00
11.4            	(1.25153705e+00 5.40049049e-09 0.00000000e+00)	0.00000000e+00
11.45           	(1.25464360e+00 5.14041940e-09 0.00000000e+00)	0.00000000e+00
11.5            	(1.25773499e+00 4.93178314e-09 0.00000000e+00)	0.00000000e+00
11.55           	(1.26081128e+00 4.70535823e-09 0.00000000e+00)	0.00000000e+00
11.6            	(1.26387255e+00 4.44619801e-09 0.00000000e+00)	0.00000000e+00
11.65           	(1.26691888e+00 4.17224132e-09 0.00000000e+00)	0.00000000e+00
11.7            	(1.26995035e+00 3.90289781e-09 0.00000000e+00)	0.00000000e+00
11.75           	(1.27296702e+00 3.64381420e-09 0.00000000e+00)	0.00000000e+00
11.8            	(1.27596898e+00 3.39080537e-09 0.00000000e+00)	0.00000000e+00
11.85           	(1.27895629e+00 3.13867849e-09 0.00000000e+00)	0.00000000e+00
11.9            	(1.28192903e+00 2.88561202e-09 0.00000000e+00)	0.00000000e+00
11.95           	(1.28488728e+00 2.63258391e-09 0.00000000e+00)	0.00000000e+00
12              	(1.28783110e+00 2.38113369e-09 0.00000000e+00)	0.00000000e+00
12.05           	(1.29076057e+00 2.13201342e-09 0.00000000e+00)	0.00000000e+00
12.1            	(1.29367576e+00 1.88525761e-09 0.00000000e+00)	0.00000000e+00
12.15           	(1.29657674e+00 1.64037862e-09 0.00000000e+00)	0.00000000e+00
12.2            	(1.29946358e+00 1.39720081e-09 0.00000000e+00)	0.00000000e+00
12.25           	(1.30233636e+00 1.15568720e-09 0.00000000e+00)	0.00000000e+00
12.3            	(1.30519514e+00 9.15634160e-10 0.00000000e+00)	0.00000000e+00
12.35           	(1.30804000e+00 6.76110251e-10 0.00000000e+00)	0.00000000e+00
12.4            	(1.31087100e+00 4.39993848e-10 0.00000000e+00)	0.00000000e+00
12.45           	(1.31368822e+00 5.60696400e-10 0.00000000e+00)	0.00000000e+00
12.5            	(1.31649172e+00 7.73319871e-10 0.00000000e+00)	0.00000000e+00
12.55           	(1.31928157e+00 9.80849355e-10 0.00000000e+00)	0.00000000e+00
12.6            	(1.32205784e+00 1.18290942e-09 0.00000000e+00)	0.00000000e+00
12.65           	(1.32482060e+00 1.37859718e-09 0.00000000e+00)	0.00000000e+00
12.7            	(1.32756992e+00 1.56668199e-09 0.00000000e+00)	0.00000000e+00
12.75           	(1.33030586e+00 1.74586514e-09 0.00000000e+00)	0.00000000e+00
12.8            	(1.33302850e+00 1.91428883e-09 0.00000000e+00)	0.00000000e+00
12.85           	(1.33573789e+00 2.07057477e-09 0.00000000e+00)	0.00000000e+00
12.9            	(1.33843410e+00 2.21364744e-09 0.00000000e+00)	0.00000000e+00
12.95           	(1.34111721e+00 2.34119012e-09 0.00000000e+00)	0.00000000e+00
13              	(1.34378727e+00 2.45018787e-09 0.00000000e+00)	0.00000000e+00
13.05           	(1.34644435e+00 2.53803615e-09 0.00000000e+00)	0.00000000e+00
13.1            	(1.34908852e+00 2.60021316e-09 0.00000000e+00)	0.00000000e+00
13.15           	(1.35171984e+00 2.63790795e-09 0.00000000e+00)	0.00000000e+00
13.2            	(1.35433838e+00 2.64557497e-09 0.00000000e+00)	0.00000000e+00
13.25           	(1.35694420e+00 2.61998201e-09 0.00000000e+00)	0.00000000e+00
13.3            	(1.35953736e+00 2.54977994e-09 0.00000000e+00)	0.00000000e+00
13.35           	(1.36211793e+00 3.37851476e-09 0.00000000e+00)	0.00000000e+00
13.4            	(1.36468596e+00 4.38391653e-09 0.00000000e+00)	0.00000000e+00
13.45           	(1.36724154e+00 5.55063391e-09 0.00000000e+00)	0.00000000e+00
13.5            	(1.36978470e+00 6.89695425e-09 0.00000000e+00)	0.00000000e+00
13.55           	(1.37231553e+00 8.43832184e-09 0.00000000e+00)	0.00000000e+00
13.6            	(1.37483407e+00 1.01910553e-08 0.00000000e+00)	0.00000000e+00
13.65           	(1.37734039e+00 1.21724756e-08 0.00000000e+00)	0.00000000e+00
13.7            	(1.37983456e+00 1.44016005e-08 0.00000000e+00)	0.00000000e+00
13.75           	(1.38231663e+00 1.68972600e-08 0.00000000e+00)	0.00000000e+00
13.8            	(1.38478666e+00 1.96784208e-08 0.00000000e+00)	0.00000000e+00
13.85           	(1.38724471e+00 2.27607503e-08 0.00000000e+00)	0.00000000e+00
13.9            	(1.38969085e+00 2.61637122e-08 0.00000000e+00)	0.00000000e+00
13.95           	(1.39212513e+00 2.99056084e-08 0.00000000e+00)	0.00000000e+00
14              	(1.39454761e+00 3.40044089e-08 0.00000000e+00)	0.00000000e+00
14.05           	(1.39695836e+00 3.84771529e-08 0.00000000e+00)	0.00000000e+00
14.1            	(1.39935742e+00 4.33403950e-08 0.00000000e+00)	0.00000000e+00
14.15           	(1.40174486e+00 4.86095532e-08 0.00000000e+00)	0.00000000e+00
14.2            	(1.40412074e+00 5.42990704e-08 0.00000000e+00)	0.00000000e+00
14.25           	(1.40648511e+00 6.04222105e-08 0.00000000e+00)	0.00000000e+00
14.3            	(1.40883804e+00 6.69910109e-08 0.00000000e+00)	0.00000000e+00
14.35           	(1.41117957e+00 7.40161402e-08 0.00000000e+00)	0.00000000e+00
14.4            	(1.41350977e+00 8.15066519e-08 0.00000000e+00)	0.00000000e+00
14.45           	(1.41582868e+00 8.94702070e-08 0.00000000e+00)	0.00000000e+00
14.5            	(1.41813638e+00 9.79125546e-08 0.00000000e+00)	0.00000000e+00
14.55           	(1.42043291e+00 1.06837990e-07 0.00000000e+00)	0.00000000e+00
14.6            	(1.42271833e+00 1.16248991e-07 0.00000000e+00)	0.00000000e+00
14.65           	(1.42499270e+00 1.26146273e-07 0.00000000e+00)	0.00000000e+00
14.7            	(1.42725607e+00 1.36528786e-07 0.00000000e+00)	0.00000000e+00
14.75           	(1.42950849e+00 1.47393746e-07 0.00000000e+00)	0.00000000e+00
14.8            	(1.43175002e+00 1.58736667e-07 0.00000000e+00)	0.00000000e+00
14.85           	(1.43398072e+00 1.70551426e-07 0.00000000e+00)	0.00000000e+00
14.9            	(1.43620063e+00 1.82829960e-07 0.00000000e+00)	0.00000000e+00
14.95           	(1.43840982e+00 1.95562658e-07 0.00000000e+00)	0.00000000e+00
15              	(1.44060833e+00 2.08739096e-07 0.00000000e+00)	0.00000000e+00
15.05           	(1.44279622e+00 2.22347196e-07 0.00000000e+00)	0.00000000e+00
15.1            	(1.44497354e+00 2.36373668e-07 0.00000000e+00)	0.00000000e+00
15.15           	(1.44714035e+00 2.50804092e-07 0.00000000e+00)	0.00000000e+00
15.2            	(1.44929669e+00 2.65623028e-07 0.00000000e+00)	0.00000000e+00
15.25           	(1.45144262e+00 2.80814037e-07 0.00000000e+00)	0.00000000e+00
15.3            	(1.45357819e+00 2.96360095e-07 0.00000000e+00)	0.00000000e+00
15.35           	(1.45570345e+00 3.12243709e-07 0.00000000e+00)	0.00000000e+00
15.4            	(1.45781846e+00 3.28446542e-07 0.00000000e+00)	0.00000000e+00
15.45           	(1.45992326e+00 3.44950145e-07 0.00000000e+00)	0.00000000e+00
15.5            	(1.46201791e+00 3.61735660e-07 0.00000000e+00)	0.00000000e+00
15.55           	(1.46410245e+00 3.78784184e-07 0.00000000e+00)	0.00000000e+00
15.6            	(1.46617694e+00 3.96076746e-07 0.00000000e+00)	0.00000000e+00
15.65           	(1.46824143e+00 4.13594486e-07 0.00000000e+00)	0.00000000e+00
15.7            	(1.47029596e+00 4.31318713e-07 0.00000000e+00)	0.00000000e+00
15.75           	(1.47234059e+00 4.49230987e-07 0.00000000e+00)	0.00000000e+00
15.8            	(1.47437537e+00 4.67313167e-07 0.00000000e+00)	0.00000000e+00
15.85           	(1.47640033e+00 4.85547598e-07 0.00000000e+00)	0.00000000e+00
15.9            	(1.47841555e+00 5.03917171e-07 0.00000000e+00)	0.00000000e+00
15.95           	(1.48042105e+00 5.22405270e-07 0.00000000e+00)	0.00000000e+00
16              	(1.48241689e+00 5.40995868e-07 0.00000000e+00)	0.00000000e+00
16.05           	(1.48440312e+00 5.59673551e-07 0.00000000e+00)	0.00000000e+00
16.1            	(1.48637979e+00 5.78423554e-07 0.00000000e+00)	0.00000000e+00
16.15           	(1.48834694e+00 5.97231775e-07 0.00000000e+00)	0.00000000e+00
16.2            	(1.49030463e+00 6.16084673e-07 0.00000000e+00)	0.00000000e+00
16.25           	(1.49225289e+00 6.34969363e-07 0.00000000e+00)	0.00000000e+00
16.3            	(1.49419177e+00 6.53873960e-07 0.00000000e+00)	0.00000000e+00
16.35           	(1.49612133e+00 6.72787252e-07 0.00000000e+00)	0.00000000e+00
16.4            	(1.49804160e+00 6.91698550e-07 0.00000000e+00)	0.00000000e+00
16.45           	(1.49995264e+00 7.10597839e-07 0.00000000e+00)	0.00000000e+00
16.5            	(1.50185449e+00 7.29475734e-07 0.00000000e+00)	0.00000000e+00
16.55           	(1.50374719e+00 7.48323460e-07 0.00000000e+00)	0.00000000e+00
16.6            	(1.50563080e+00 7.67132838e-07 0.00000000e+00)	0.00000000e+00
16.65           	(1.50750535e+00 7.85896258e-07 0.00000000e+00)	0.00000000e+00
16.7            	(1.50937090e+00 8.04606656e-07 0.00000000e+00)	0.00000000e+00
16.75           	(1.51122748e+00 8.23257425e-07 0.00000000e+00)	0.00000000e+00
16.8            	(1.51307514e+00 8.41842457e-07 0.00000000e+00)	0.00000000e+00
16.85           	(1.51491392e+00 8.60356213e-07 0.00000000e+00)	0.00000000e+00
16.9            	(1.51674388e+00 8.78793365e-07 0.00000000e+00)	0.00000000e+00
16.95           	(1.51856504e+00 8.97149211e-07 0.00000000e+00)	0.00000000e+00
17              	(1.52037747e+00 9.15419393e-07 0.00000000e+00)	0.00000000e+00
17.05           	(1.52218119e+00 9.33599688e-07 0.00000000e+00)	0.00000000e+00
17.1            	(1.52397625e+00 9.51686399e-07 0.00000000e+00)	0.00000000e+00
17.15           	(1.52576271e+00 9.69676085e-07 0.00000000e+00)	0.00000000e+00
17.2            	(1.52754059e+00 9.87565505e-07 0.00000000e+00)	0.00000000e+00
17.25           	(1.52930994e+00 1.00535166e-06 0.00000000e+00)	0.00000000e+00
17.3            	(1.53107080e+00 1.02303185e-06 0.00000000e+00)	0.00000000e+00
17.35           	(1.53282322e+00 1.04060357e-06 0.00000000e+00)	0.00000000e+00
17.4            	(1.53456724e+00 1.05806440e-06 0.00000000e+00)	0.00000000e+00
17.45           	(1.53630290e+00 1.07541220e-06 0.00000000e+00)	0.00000000e+00
17.5            	(1.53803024e+00 1.09264491e-06 0.00000000e+00)	0.00000000e+00
17.55           	(1.53974929e+00 1.10976062e-06 0.00000000e+00)	0.00000000e+00
17.6            	(1.54146011e+00 1.12675753e-06 0.00000000e+00)	0.00000000e+00
17.65           	(1.54316274e+00 1.14363398e-06 0.00000000e+00)	0.00000000e+00
17.7            	(1.54485721e+00 1.16038843e-06 0.00000000e+00)	0.00000000e+00
17.75           	(1.54654356e+00 1.17701940e-06 0.00000000e+00)	0.00000000e+00
17.8            	(1.54822183e+00 1.19352556e-06 0.00000000e+00)	0.00000000e+00
17.85           	(1.54989207e+00 1.20990561e-06 0.00000000e+00)	0.00000000e+00
17.9            	(1.55155432e+00 1.22615832e-06 0.00000000e+00)	0.00000000e+00
17.95           	(1.55320860e+00 1.24228253e-06 0.00000000e+00)	0.00000000e+00
18              	(1.55485497e+00 1.25827713e-06 0.00000000e+00)	0.00000000e+00
18.05           	(1.55649346e+00 1.27414111e-06 0.00000000e+00)	0.00000000e+00
18.1            	(1.55812412e+00 1.28987354e-06 0.00000000e+00)	0.00000000e+00
18.15           	(1.55974697e+00 1.30547349e-06 0.00000000e+00)	0.00000000e+00
18.2            	(1.56136206e+00 1.32094004e-06 0.00000000e+00)	0.00000000e+00
18.25           	(1.56296942e+00 1.33627241e-06 0.00000000e+00)	0.00000000e+00
18.3            	(1.56456910e+00 1.35146982e-06 0.00000000e+00)	0.00000000e+00
18.35           	(1.56616113e+00 1.36653154e-06 0.00000000e+00)	0.00000000e+00
18.4            	(1.56774556e+00 1.38145687e-06 0.00000000e+00)	0.00000000e+00
18.45           	(1.56932240e+00 1.39624517e-06 0.00000000e+00)	0.00000000e+00
18.5            	(1.57089172e+00 1.41089582e-06 0.00000000e+00)	0.00000000e+00
18.55           	(1.57245353e+00 1.42540826e-06 0.00000000e+00)	0.00000000e+00
18.6            	(1.57400789e+00 1.43978195e-06 0.00000000e+00)	0.00000000e+00
18.65           	(1.57555482e+00 1.45401640e-06 0.00000000e+00)	0.00000000e+00
18.7            	(1.57709436e+00 1.46811114e-06 0.00000000e+00)	0.00000000e+00
18.75           	(1.57862655e+00 1.48206574e-06 0.00000000e+00)	0.00000000e+00
18.8            	(1.58015143e+00 1.49587983e-06 0.00000000e+00)	0.00000000e+00
18.85           	(1.58166902e+00 1.50955303e-06 0.00000000e+00)	0.00000000e+00