/*--------------------------------*- C++ -*----------------------------------*\
| =========                 |                                                 |
| \\      /  F ield         | OpenFOAM: The Open Source CFD Toolbox           |
|  \\    /   O peration     | Version:  v1812                                 |
|   \\  /    A nd           | Web:      www.OpenFOAM.com                      |
|    \\/     M anipulation  |                                                 |
\*---------------------------------------------------------------------------*/
FoamFile
{
    version     2.0;
    format      ascii;
    class       volVectorField;
    location    "19";
    object      U;
}
// * * * * * * * * * * * * * * * * * * * * * * * * * * * * * * * * * * * * * //

dimensions      [0 1 -1 0 0 0 0];


internalField   nonuniform List<vector> 
1000
(
(0.91890839 0.035821912 0)
(0.86271384 0.062195638 0)
(0.7870597 0.062510089 0)
(0.69536033 0.054550394 0)
(0.61089745 0.04453165 0)
(0.54411592 0.034015971 0)
(0.49343012 0.02418754 0)
(0.45479414 0.01614423 0)
(0.42544583 0.010265786 0)
(0.40347313 0.0063041453 0)
(0.38715767 0.0037976293 0)
(0.3749622 0.0023103382 0)
(0.36566193 0.001493015 0)
(0.35836272 0.0010851183 0)
(0.35244268 0.00090607198 0)
(0.34748201 0.00084105104 0)
(0.34320348 0.00082372347 0)
(0.33942726 0.00081930989 0)
(0.33603793 0.00081185196 0)
(0.33296114 0.00079580153 0)
(0.33014778 0.0007708122 0)
(0.32756384 0.00073871018 0)
(0.3251842 0.00070188973 0)
(0.32298902 0.00066256562 0)
(0.32096172 0.00062249903 0)
(0.31908785 0.0005829564 0)
(0.31735449 0.00054477061 0)
(0.31574996 0.00050843327 0)
(0.3142636 0.00047419133 0)
(0.31288575 0.00044212469 0)
(0.31160756 0.00041221009 0)
(0.31042101 0.00038436244 0)
(0.30931883 0.00035846568 0)
(0.30829438 0.00033439065 0)
(0.30734165 0.00031200639 0)
(0.30645515 0.00029118669 0)
(0.30562991 0.00027181287 0)
(0.30486136 0.00025377539 0)
(0.30414535 0.00023697353 0)
(0.30347807 0.00022131464 0)
(0.30285601 0.0002067149 0)
(0.30227596 0.0001930967 0)
(0.30173497 0.00018038994 0)
(0.30123029 0.00016852986 0)
(0.30075942 0.00015745723 0)
(0.30032002 0.00014711819 0)
(0.29990993 0.00013746227 0)
(0.29952715 0.00012844401 0)
(0.29916983 0.00012002047 0)
(0.29883624 0.00011215133 0)
(0.29852479 0.00010480009 0)
(0.29823397 9.7931166e-05 0)
(0.29796241 9.151244e-05 0)
(0.29770883 8.5513715e-05 0)
(0.29747201 7.9906519e-05 0)
(0.29725084 7.4666004e-05 0)
(0.29704429 6.9767611e-05 0)
(0.29685137 6.519084e-05 0)
(0.2966712 6.0914767e-05 0)
(0.29650291 5.6919805e-05 0)
(0.29634572 5.3187714e-05 0)
(0.2961989 4.9700055e-05 0)
(0.29606176 4.6440423e-05 0)
(0.29593366 4.3392893e-05 0)
(0.295814 4.0542946e-05 0)
(0.29570223 3.7878456e-05 0)
(0.29559783 3.5387613e-05 0)
(0.29550031 3.306032e-05 0)
(0.29540922 3.0887969e-05 0)
(0.29532413 2.8859695e-05 0)
(0.29524465 2.6966792e-05 0)
(0.2951704 2.5198747e-05 0)
(0.29510104 2.3545418e-05 0)
(0.29503625 2.1998321e-05 0)
(0.29497572 2.0549883e-05 0)
(0.29491918 1.9194128e-05 0)
(0.29486637 1.7927513e-05 0)
(0.29481705 1.6744387e-05 0)
(0.29477097 1.5643067e-05 0)
(0.29472793 1.4616423e-05 0)
(0.29468772 1.3660587e-05 0)
(0.29465016 1.276682e-05 0)
(0.29461507 1.1930702e-05 0)
(0.29458229 1.1144677e-05 0)
(0.29455167 1.0407794e-05 0)
(0.29452308 9.7132512e-06 0)
(0.29449635 9.0725444e-06 0)
(0.29447142 8.4703401e-06 0)
(0.2944481 7.9182966e-06 0)
(0.29442633 7.3969331e-06 0)
(0.29440598 6.9260993e-06 0)
(0.294387 6.4726714e-06 0)
(0.2943692 6.0617968e-06 0)
(0.29435259 5.6503768e-06 0)
(0.29433714 5.2891155e-06 0)
(0.29432249 4.9685804e-06 0)
(0.29430919 4.687823e-06 0)
(0.29429569 4.5388764e-06 0)
(0.29428502 4.4056124e-06 0)
(0.29426874 5.0574938e-06 0)
(1.0016583 0.05381943 0)
(1.0359761 0.10128443 0)
(1.0597199 0.11073663 0)
(1.0628947 0.10592201 0)
(1.0515569 0.096228725 0)
(1.0340529 0.083934059 0)
(1.0142795 0.070327062 0)
(0.99360703 0.056981334 0)
(0.97292577 0.045107479 0)
(0.9531074 0.03523675 0)
(0.93479539 0.02740165 0)
(0.91829012 0.021387227 0)
(0.90362379 0.016884499 0)
(0.89068068 0.013569709 0)
(0.87928175 0.011147748 0)
(0.86923242 0.0093736578 0)
(0.86034424 0.0080569271 0)
(0.85244667 0.0070571265 0)
(0.84539242 0.0062752379 0)
(0.83905793 0.0056438286 0)
(0.83334127 0.0051180915 0)
(0.82815884 0.0046686728 0)
(0.82344213 0.0042764174 0)
(0.81913467 0.0039287383 0)
(0.81518962 0.0036172025 0)
(0.81156765 0.0033359687 0)
(0.80823544 0.0030808023 0)
(0.8051644 0.0028484673 0)
(0.80232979 0.0026363682 0)
(0.79971 0.002442338 0)
(0.79728598 0.0022645189 0)
(0.79504087 0.0021012905 0)
(0.79295963 0.0019512261 0)
(0.79102881 0.0018130636 0)
(0.78923628 0.0016856836 0)
(0.78757111 0.0015680917 0)
(0.78602339 0.0014594041 0)
(0.78458412 0.0013588338 0)
(0.78324512 0.0012656786 0)
(0.78199889 0.0011793105 0)
(0.78083861 0.0010991669 0)
(0.77975799 0.001024742 0)
(0.77875128 0.00095558 0)
(0.77781318 0.00089126955 0)
(0.77693882 0.00083143769 0)
(0.77612368 0.00077574636 0)
(0.77536363 0.00072388744 0)
(0.77465481 0.00067558002 0)
(0.77399368 0.00063056676 0)
(0.77337694 0.00058861079 0)
(0.77280154 0.00054949471 0)
(0.77226465 0.00051301741 0)
(0.77176364 0.00047899312 0)
(0.77129607 0.00044725071 0)
(0.77085967 0.00041763126 0)
(0.77045234 0.00038998939 0)
(0.77007212 0.00036418995 0)
(0.76971717 0.00034010949 0)
(0.76938581 0.00031763256 0)
(0.76907644 0.00029665114 0)
(0.76878761 0.00027706449 0)
(0.76851792 0.00025877779 0)
(0.7682661 0.00024170233 0)
(0.76803096 0.00022575576 0)
(0.76781139 0.00021086137 0)
(0.76760635 0.00019694923 0)
(0.76741488 0.00018395497 0)
(0.76723608 0.00017181925 0)
(0.7670691 0.0001604879 0)
(0.76691315 0.0001499081 0)
(0.76676752 0.00014003066 0)
(0.7666315 0.00013080685 0)
(0.76650447 0.000122191 0)
(0.76638582 0.00011413976 0)
(0.76627501 0.00010661542 0)
(0.76617152 9.9582097e-05 0)
(0.76607486 9.3012171e-05 0)
(0.76598458 8.6874648e-05 0)
(0.76590026 8.1148658e-05 0)
(0.76582151 7.5802641e-05 0)
(0.76574794 7.0817841e-05 0)
(0.76567924 6.6157757e-05 0)
(0.76561504 6.1808961e-05 0)
(0.76555512 5.7732651e-05 0)
(0.7654991 5.3930414e-05 0)
(0.76544684 5.0355168e-05 0)
(0.76539796 4.7037922e-05 0)
(0.76535239 4.3921099e-05 0)
(0.7653097 4.1053539e-05 0)
(0.76526997 3.8323294e-05 0)
(0.76523272 3.584458e-05 0)
(0.76519804 3.3463945e-05 0)
(0.76516555 3.133223e-05 0)
(0.76513516 2.9189378e-05 0)
(0.76510713 2.7363834e-05 0)
(0.76507998 2.5517189e-05 0)
(0.76505663 2.407141e-05 0)
(0.76503057 2.2554773e-05 0)
(0.76501445 2.159691e-05 0)
(0.76498346 2.0993422e-05 0)
(1.0014244 0.026824854 0)
(1.0291272 0.06279135 0)
(1.0654292 0.077736549 0)
(1.098962 0.080597196 0)
(1.1253149 0.078285167 0)
(1.145053 0.073153897 0)
(1.1594858 0.066111277 0)
(1.1694287 0.058162063 0)
(1.1755354 0.050296754 0)
(1.1785738 0.043150707 0)
(1.1793571 0.036972824 0)
(1.178595 0.031771631 0)
(1.1768304 0.027451838 0)
(1.1744518 0.023886766 0)
(1.1717287 0.020947618 0)
(1.1688444 0.018515779 0)
(1.1659195 0.016488084 0)
(1.1630317 0.014779502 0)
(1.1602295 0.013322984 0)
(1.1575415 0.012067132 0)
(1.1549828 0.010973001 0)
(1.1525601 0.010011061 0)
(1.1502747 0.0091587461 0)
(1.1481246 0.0083986031 0)
(1.1461059 0.0077169491 0)
(1.1442134 0.0071028866 0)
(1.1424414 0.0065475903 0)
(1.1407838 0.0060437941 0)
(1.1392344 0.0055854252 0)
(1.1377869 0.0051673441 0)
(1.1364353 0.0047851569 0)
(1.1351738 0.0044350763 0)
(1.1339968 0.0041138168 0)
(1.1328987 0.0038185126 0)
(1.1318746 0.0035466524 0)
(1.1309195 0.0032960261 0)
(1.1300289 0.0030646818 0)
(1.1291985 0.0028508891 0)
(1.1284242 0.0026531089 0)
(1.1277022 0.0024699674 0)
(1.1270291 0.002300235 0)
(1.1264014 0.0021428069 0)
(1.1258161 0.0019966885 0)
(1.1252702 0.0018609812 0)
(1.1247612 0.0017348714 0)
(1.1242865 0.0016176206 0)
(1.1238437 0.0015085567 0)
(1.1234307 0.0014070668 0)
(1.1230455 0.00131259 0)
(1.1226861 0.0012246127 0)
(1.1223509 0.0011426631 0)
(1.1220381 0.0010663073 0)
(1.1217462 0.00099514546 0)
(1.1214739 0.00092880912 0)
(1.1212198 0.00086695847 0)
(1.1209827 0.00080928008 0)
(1.1207614 0.00075548478 0)
(1.1205548 0.00070530505 0)
(1.1203621 0.00065849253 0)
(1.1201821 0.00061481633 0)
(1.1200142 0.00057406201 0)
(1.1198574 0.00053602959 0)
(1.1197111 0.00050053323 0)
(1.1195745 0.00046740009 0)
(1.1194469 0.00043647036 0)
(1.1193278 0.00040759562 0)
(1.1192167 0.00038063895 0)
(1.1191129 0.000355473 0)
(1.119016 0.0003319794 0)
(1.1189255 0.00031004616 0)
(1.118841 0.00028956942 0)
(1.1187621 0.00027044902 0)
(1.1186884 0.00025259404 0)
(1.1186197 0.00023591675 0)
(1.1185554 0.00022034108 0)
(1.1184954 0.0002057913 0)
(1.1184394 0.00019220584 0)
(1.1183871 0.00017951707 0)
(1.1183382 0.00016767561 0)
(1.1182926 0.00015661394 0)
(1.11825 0.00014629421 0)
(1.1182103 0.00013664332 0)
(1.118173 0.00012764295 0)
(1.1181384 0.00011921018 0)
(1.1181059 0.00011135885 0)
(1.1180757 0.00010398457 0)
(1.1180473 9.7152641e-05 0)
(1.1180211 9.0703625e-05 0)
(1.1179963 8.4785783e-05 0)
(1.1179734 7.9129376e-05 0)
(1.1179516 7.4027821e-05 0)
(1.1179318 6.9016405e-05 0)
(1.1179128 6.4662149e-05 0)
(1.1178955 6.0142409e-05 0)
(1.117879 5.6560998e-05 0)
(1.1178635 5.2423787e-05 0)
(1.1178501 4.9743919e-05 0)
(1.1178349 4.580788e-05 0)
(1.1178261 4.4318976e-05 0)
(1.1178083 4.0574643e-05 0)
(1.0007347 0.011814721 0)
(1.0178472 0.030860924 0)
(1.0462163 0.041434438 0)
(1.0799018 0.045193566 0)
(1.1132664 0.045502348 0)
(1.143782 0.044080305 0)
(1.1708941 0.04143998 0)
(1.1945687 0.037973676 0)
(1.2148582 0.034195728 0)
(1.2319652 0.030536886 0)
(1.2462683 0.027222043 0)
(1.2582339 0.024313918 0)
(1.2683135 0.021797886 0)
(1.2768875 0.019633657 0)
(1.2842554 0.017773824 0)
(1.2906479 0.01616965 0)
(1.296243 0.014775589 0)
(1.3011791 0.013552296 0)
(1.3055645 0.012467863 0)
(1.3094838 0.011497465 0)
(1.3130042 0.010622161 0)
(1.3161792 0.0098275121 0)
(1.3190526 0.0091024094 0)
(1.3216607 0.0084381749 0)
(1.3240343 0.0078279021 0)
(1.3261995 0.0072659731 0)
(1.3281786 0.0067477078 0)
(1.3299913 0.006269116 0)
(1.3316544 0.0058267268 0)
(1.3331829 0.0054174727 0)
(1.3345896 0.0050386117 0)
(1.3358862 0.0046876731 0)
(1.3370827 0.0043624185 0)
(1.3381883 0.0040608132 0)
(1.3392108 0.0037810027 0)
(1.3401576 0.0035212936 0)
(1.3410349 0.0032801375 0)
(1.3418486 0.003056117 0)
(1.3426038 0.0028479338 0)
(1.3433051 0.0026543973 0)
(1.3439569 0.0024744155 0)
(1.3445629 0.0023069853 0)
(1.3451267 0.0021511849 0)
(1.3456513 0.0020061659 0)
(1.3461398 0.0018711471 0)
(1.3465947 0.0017454089 0)
(1.3470185 0.001628287 0)
(1.3474135 0.0015191685 0)
(1.3477816 0.001417487 0)
(1.3481249 0.0013227188 0)
(1.3484449 0.0012343791 0)
(1.3487435 0.001152019 0)
(1.349022 0.0010752227 0)
(1.3492818 0.0010036045 0)
(1.3495242 0.00093680725 0)
(1.3497505 0.00087450012 0)
(1.3499616 0.00081637588 0)
(1.3501587 0.000762149 0)
(1.3503427 0.00071155351 0)
(1.3505145 0.00066434199 0)
(1.3506748 0.00062028445 0)
(1.3508245 0.0005791666 0)
(1.3509643 0.00054078955 0)
(1.3510948 0.00050496802 0)
(1.3512167 0.00047153045 0)
(1.3513305 0.000440317 0)
(1.3514368 0.00041117951 0)
(1.3515361 0.00038397904 0)
(1.3516288 0.00035858676 0)
(1.3517153 0.00033488029 0)
(1.3517962 0.00031274674 0)
(1.3518717 0.00029207861 0)
(1.3519422 0.00027277934 0)
(1.3520081 0.00025475512 0)
(1.3520696 0.00023792568 0)
(1.3521271 0.00022220784 0)
(1.3521807 0.00020753515 0)
(1.3522309 0.00019383106 0)
(1.3522777 0.00018104253 0)
(1.3523214 0.00016909164 0)
(1.3523623 0.0001579414 0)
(1.3524005 0.00014750991 0)
(1.352436 0.00013778773 0)
(1.3524694 0.00012867301 0)
(1.3525004 0.00012020159 0)
(1.3525297 0.00011223964 0)
(1.3525565 0.0001048838 0)
(1.3525822 9.7899327e-05 0)
(1.3526054 9.1530535e-05 0)
(1.3526282 8.5400595e-05 0)
(1.3526479 7.9933937e-05 0)
(1.3526683 7.4425089e-05 0)
(1.352685 6.980087e-05 0)
(1.3527037 6.4833046e-05 0)
(1.3527169 6.1124607e-05 0)
(1.3527348 5.6437315e-05 0)
(1.3527447 5.3737269e-05 0)
(1.3527628 4.9143714e-05 0)
(1.3527683 4.7704294e-05 0)
(1.3527888 4.2956206e-05 0)
(1.0005903 0.0034629152 0)
(1.0136865 0.009366018 0)
(1.0370283 0.013046804 0)
(1.0674202 0.014563259 0)
(1.1000315 0.014854523 0)
(1.1316428 0.014564989 0)
(1.1610745 0.013888337 0)
(1.1880674 0.012919244 0)
(1.2125205 0.011806505 0)
(1.2343939 0.010696425 0)
(1.2538077 0.0096727405 0)
(1.2710339 0.0087628202 0)
(1.286401 0.0079659716 0)
(1.3002111 0.0072722127 0)
(1.3127102 0.006668807 0)
(1.3240903 0.0061419241 0)
(1.3345036 0.0056780713 0)
(1.3440716 0.00526532 0)
(1.3528927 0.004893934 0)
(1.3610463 0.0045563947 0)
(1.3685975 0.0042470687 0)
(1.3756004 0.0039617747 0)
(1.3821012 0.0036973962 0)
(1.3881402 0.0034515808 0)
(1.3937533 0.0032225169 0)
(1.3989728 0.0030087687 0)
(1.403828 0.0028091571 0)
(1.4083456 0.0026226784 0)
(1.4125503 0.0024484487 0)
(1.4164646 0.0022856698 0)
(1.4201094 0.0021336066 0)
(1.423504 0.0019915753 0)
(1.426666 0.0018589352 0)
(1.4296121 0.0017350844 0)
(1.4323573 0.0016194569 0)
(1.4349159 0.00151152 0)
(1.4373007 0.0014107722 0)
(1.4395241 0.001316742 0)
(1.441597 0.0012289866 0)
(1.4435301 0.0011470909 0)
(1.4453328 0.0010706662 0)
(1.4470143 0.00099934894 0)
(1.4485827 0.00093279891 0)
(1.4500459 0.00087069807 0)
(1.451411 0.00081274911 0)
(1.4526846 0.00075867413 0)
(1.4538731 0.0007082134 0)
(1.4549822 0.00066112437 0)
(1.4560172 0.00061718094 0)
(1.4569831 0.00057617213 0)
(1.4578847 0.00053790054 0)
(1.4587262 0.00050218255 0)
(1.4595117 0.0004688468 0)
(1.460245 0.0004377336 0)
(1.4609295 0.00040869417 0)
(1.4615685 0.00038159012 0)
(1.4621651 0.00035629226 0)
(1.4627221 0.00033267924 0)
(1.4632422 0.00031063785 0)
(1.4637278 0.00029006235 0)
(1.4641812 0.00027085394 0)
(1.4646045 0.00025292116 0)
(1.4649998 0.00023617885 0)
(1.4653689 0.00022054787 0)
(1.4657136 0.00020595462 0)
(1.4660355 0.00019233049 0)
(1.4663361 0.00017961145 0)
(1.4666168 0.00016773698 0)
(1.466879 0.0001566508 0)
(1.4671238 0.00014629912 0)
(1.4673525 0.00013663213 0)
(1.467566 0.00012760325 0)
(1.4677653 0.00011917127 0)
(1.4679516 0.00011129612 0)
(1.4681256 0.00010394373 0)
(1.468288 9.7078003e-05 0)
(1.4684397 9.0669973e-05 0)
(1.4685815 8.4684983e-05 0)
(1.4687139 7.9100326e-05 0)
(1.4688374 7.38789e-05 0)
(1.4689528 6.9005684e-05 0)
(1.4690609 6.4444581e-05 0)
(1.4691614 6.0196227e-05 0)
(1.4692555 5.6210162e-05 0)
(1.4693433 5.2511599e-05 0)
(1.4694259 4.9034505e-05 0)
(1.4695019 4.5827992e-05 0)
(1.4695739 4.2770309e-05 0)
(1.4696402 3.9997984e-05 0)
(1.469704 3.7312347e-05 0)
(1.4697606 3.4927703e-05 0)
(1.469817 3.249059e-05 0)
(1.4698653 3.0491066e-05 0)
(1.4699169 2.8309355e-05 0)
(1.469956 2.6730597e-05 0)
(1.4700043 2.4636891e-05 0)
(1.470034 2.348471e-05 0)
(1.4700832 2.1421774e-05 0)
(1.4701001 2.0813204e-05 0)
(1.4701556 1.8648883e-05 0)
(1.0005903 -0.0034629162 0)
(1.0136865 -0.0093660206 0)
(1.0370283 -0.013046807 0)
(1.0674202 -0.014563262 0)
(1.1000315 -0.014854525 0)
(1.1316428 -0.014564991 0)
(1.1610745 -0.013888338 0)
(1.1880674 -0.012919246 0)
(1.2125205 -0.011806507 0)
(1.2343939 -0.010696428 0)
(1.2538077 -0.0096727436 0)
(1.2710339 -0.0087628233 0)
(1.286401 -0.0079659747 0)
(1.3002111 -0.0072722154 0)
(1.3127102 -0.0066688092 0)
(1.3240903 -0.0061419259 0)
(1.3345036 -0.0056780729 0)
(1.3440716 -0.0052653218 0)
(1.3528927 -0.0048939359 0)
(1.3610463 -0.0045563966 0)
(1.3685975 -0.0042470704 0)
(1.3756004 -0.0039617765 0)
(1.3821012 -0.0036973985 0)
(1.3881402 -0.0034515838 0)
(1.3937533 -0.0032225199 0)
(1.3989728 -0.0030087709 0)
(1.403828 -0.0028091587 0)
(1.4083456 -0.0026226798 0)
(1.4125503 -0.0024484502 0)
(1.4164646 -0.0022856709 0)
(1.4201094 -0.0021336075 0)
(1.423504 -0.0019915763 0)
(1.426666 -0.0018589368 0)
(1.4296121 -0.0017350871 0)
(1.4323573 -0.0016194604 0)
(1.4349158 -0.0015115232 0)
(1.4373007 -0.0014107742 0)
(1.439524 -0.0013167424 0)
(1.441597 -0.001228986 0)
(1.4435301 -0.0011470901 0)
(1.4453328 -0.0010706663 0)
(1.4470143 -0.00099935037 0)
(1.4485827 -0.00093280158 0)
(1.4500459 -0.00087070141 0)
(1.451411 -0.00081275227 0)
(1.4526846 -0.00075867639 0)
(1.4538731 -0.00070821451 0)
(1.4549821 -0.00066112454 0)
(1.4560171 -0.00061718025 0)
(1.4569831 -0.00057617068 0)
(1.4578847 -0.00053789932 0)
(1.4587262 -0.00050218245 0)
(1.4595117 -0.00046884834 0)
(1.460245 -0.00043773687 0)
(1.4609295 -0.00040869869 0)
(1.4615685 -0.0003815946 0)
(1.4621651 -0.00035629485 0)
(1.4627221 -0.00033267908 0)
(1.4632422 -0.00031063478 0)
(1.4637278 -0.00029005711 0)
(1.4641812 -0.00027084837 0)
(1.4646045 -0.0002529171 0)
(1.4649998 -0.00023617752 0)
(1.4653689 -0.00022054938 0)
(1.4657136 -0.00020595831 0)
(1.4660355 -0.00019233467 0)
(1.4663361 -0.00017961399 0)
(1.4666168 -0.00016773629 0)
(1.466879 -0.00015664613 0)
(1.4671238 -0.00014629147 0)
(1.4673525 -0.00013662452 0)
(1.467566 -0.00012759842 0)
(1.4677653 -0.0001191708 0)
(1.4679516 -0.00011129985 0)
(1.4681256 -0.00010394974 0)
(1.468288 -9.7083345e-05 0)
(1.4684397 -9.0672208e-05 0)
(1.4685815 -8.4682544e-05 0)
(1.4687139 -7.9092818e-05 0)
(1.4688374 -7.3869994e-05 0)
(1.4689528 -6.9000709e-05 0)
(1.4690609 -6.4444539e-05 0)
(1.4691615 -6.0199523e-05 0)
(1.4692555 -5.6217942e-05 0)
(1.4693433 -5.2519623e-05 0)
(1.4694259 -4.9035657e-05 0)
(1.4695019 -4.582135e-05 0)
(1.4695739 -4.2762034e-05 0)
(1.4696402 -3.998604e-05 0)
(1.469704 -3.7297278e-05 0)
(1.4697606 -3.4929419e-05 0)
(1.469817 -3.2518609e-05 0)
(1.4698654 -3.0516629e-05 0)
(1.4699168 -2.829946e-05 0)
(1.469956 -2.6701795e-05 0)
(1.4700044 -2.4628476e-05 0)
(1.4700341 -2.3495679e-05 0)
(1.4700832 -2.1427012e-05 0)
(1.4701001 -2.0820553e-05 0)
(1.4701556 -1.8663633e-05 0)
(1.0007347 -0.011814722 0)
(1.0178472 -0.030860927 0)
(1.0462163 -0.041434442 0)
(1.0799018 -0.04519357 0)
(1.1132664 -0.045502351 0)
(1.143782 -0.044080308 0)
(1.1708941 -0.041439982 0)
(1.1945687 -0.037973678 0)
(1.2148582 -0.03419573 0)
(1.2319652 -0.030536888 0)
(1.2462683 -0.027222046 0)
(1.2582339 -0.024313921 0)
(1.2683135 -0.021797889 0)
(1.2768875 -0.01963366 0)
(1.2842554 -0.017773826 0)
(1.2906479 -0.016169652 0)
(1.296243 -0.01477559 0)
(1.3011791 -0.013552298 0)
(1.3055645 -0.012467864 0)
(1.3094838 -0.011497466 0)
(1.3130042 -0.010622162 0)
(1.3161792 -0.0098275134 0)
(1.3190526 -0.0091024114 0)
(1.3216607 -0.0084381773 0)
(1.3240343 -0.0078279044 0)
(1.3261995 -0.007265975 0)
(1.3281786 -0.0067477092 0)
(1.3299913 -0.0062691172 0)
(1.3316544 -0.0058267278 0)
(1.3331829 -0.0054174735 0)
(1.3345896 -0.0050386124 0)
(1.3358862 -0.0046876739 0)
(1.3370827 -0.00436242 0)
(1.3381882 -0.0040608154 0)
(1.3392108 -0.0037810053 0)
(1.3401576 -0.0035212958 0)
(1.3410349 -0.0032801389 0)
(1.3418486 -0.0030561176 0)
(1.3426038 -0.0028479337 0)
(1.3433051 -0.0026543973 0)
(1.3439569 -0.0024744159 0)
(1.3445629 -0.0023069864 0)
(1.3451267 -0.0021511865 0)
(1.3456513 -0.0020061678 0)
(1.3461398 -0.001871149 0)
(1.3465947 -0.0017454105 0)
(1.3470185 -0.0016282882 0)
(1.3474135 -0.0015191692 0)
(1.3477816 -0.0014174871 0)
(1.3481249 -0.0013227185 0)
(1.3484449 -0.0012343789 0)
(1.3487435 -0.0011520193 0)
(1.349022 -0.0010752236 0)
(1.3492818 -0.0010036063 0)
(1.3495242 -0.00093680969 0)
(1.3497505 -0.00087450252 0)
(1.3499616 -0.00081637748 0)
(1.3501587 -0.00076214897 0)
(1.3503427 -0.00071155171 0)
(1.3505145 -0.00066433879 0)
(1.3506748 -0.00062028066 0)
(1.3508245 -0.00057916338 0)
(1.3509643 -0.00054078785 0)
(1.3510948 -0.00050496838 0)
(1.3512167 -0.00047153252 0)
(1.3513305 -0.00044031978 0)
(1.3514368 -0.00041118164 0)
(1.3515361 -0.00038397918 0)
(1.3516288 -0.00035858431 0)
(1.3517153 -0.00033487592 0)
(1.3517962 -0.00031274204 0)
(1.3518717 -0.00029207516 0)
(1.3519422 -0.00027277818 0)
(1.3520081 -0.00025475669 0)
(1.3520696 -0.00023792878 0)
(1.3521271 -0.00022221127 0)
(1.3521807 -0.0002075377 0)
(1.3522309 -0.00019383105 0)
(1.3522777 -0.00018103962 0)
(1.3523214 -0.00016908741 0)
(1.3523623 -0.00015793803 0)
(1.3524005 -0.00014750797 0)
(1.352436 -0.0001377877 0)
(1.3524694 -0.00012867596 0)
(1.3525004 -0.00012020707 0)
(1.3525297 -0.0001122422 0)
(1.3525565 -0.00010488081 0)
(1.3525822 -9.7894877e-05 0)
(1.3526054 -9.1528942e-05 0)
(1.3526282 -8.5396332e-05 0)
(1.3526479 -7.9929688e-05 0)
(1.3526683 -7.4431883e-05 0)
(1.352685 -6.9807543e-05 0)
(1.3527037 -6.4827014e-05 0)
(1.352717 -6.1119245e-05 0)
(1.3527348 -5.6445704e-05 0)
(1.3527447 -5.3745909e-05 0)
(1.3527628 -4.9141324e-05 0)
(1.3527683 -4.7705337e-05 0)
(1.3527888 -4.2961697e-05 0)
(1.0014244 -0.026824855 0)
(1.0291272 -0.062791352 0)
(1.0654292 -0.077736552 0)
(1.098962 -0.0805972 0)
(1.1253149 -0.07828517 0)
(1.145053 -0.073153899 0)
(1.1594858 -0.066111278 0)
(1.1694287 -0.058162063 0)
(1.1755354 -0.050296754 0)
(1.1785738 -0.043150708 0)
(1.1793571 -0.036972825 0)
(1.1785949 -0.031771633 0)
(1.1768304 -0.02745184 0)
(1.1744518 -0.023886768 0)
(1.1717287 -0.02094762 0)
(1.1688444 -0.01851578 0)
(1.1659195 -0.016488084 0)
(1.1630317 -0.014779502 0)
(1.1602295 -0.013322985 0)
(1.1575415 -0.012067132 0)
(1.1549828 -0.010973001 0)
(1.1525601 -0.010011062 0)
(1.1502747 -0.0091587473 0)
(1.1481246 -0.0083986045 0)
(1.1461059 -0.0077169506 0)
(1.1442134 -0.0071028881 0)
(1.1424414 -0.0065475916 0)
(1.1407838 -0.006043795 0)
(1.1392344 -0.0055854258 0)
(1.1377869 -0.0051673446 0)
(1.1364353 -0.0047851573 0)
(1.1351738 -0.0044350768 0)
(1.1339968 -0.0041138176 0)
(1.1328987 -0.0038185137 0)
(1.1318746 -0.0035466535 0)
(1.1309195 -0.0032960273 0)
(1.1300289 -0.0030646831 0)
(1.1291985 -0.0028508903 0)
(1.1284242 -0.0026531099 0)
(1.1277022 -0.0024699682 0)
(1.1270291 -0.0023002354 0)
(1.1264014 -0.002142807 0)
(1.1258161 -0.0019966886 0)
(1.1252702 -0.0018609815 0)
(1.1247612 -0.0017348721 0)
(1.1242865 -0.0016176218 0)
(1.1238437 -0.0015085582 0)
(1.1234307 -0.0014070682 0)
(1.1230455 -0.0013125912 0)
(1.1226861 -0.0012246137 0)
(1.1223509 -0.0011426637 0)
(1.1220381 -0.0010663074 0)
(1.1217462 -0.00099514511 0)
(1.1214739 -0.00092880857 0)
(1.1212198 -0.00086695807 0)
(1.1209827 -0.00080928032 0)
(1.1207614 -0.00075548582 0)
(1.1205548 -0.0007053062 0)
(1.1203621 -0.0006584931 0)
(1.1201821 -0.00061481613 0)
(1.1200142 -0.00057406073 0)
(1.1198574 -0.00053602736 0)
(1.1197111 -0.00050053079 0)
(1.1195745 -0.00046739842 0)
(1.1194469 -0.00043646975 0)
(1.1193278 -0.00040759612 0)
(1.1192167 -0.00038064045 0)
(1.1191129 -0.00035547466 0)
(1.119016 -0.00033198055 0)
(1.1189255 -0.00031004655 0)
(1.118841 -0.00028956844 0)
(1.1187621 -0.00027044679 0)
(1.1186884 -0.0002525913 0)
(1.1186197 -0.00023591442 0)
(1.1185554 -0.00022034 0)
(1.1184954 -0.00020579217 0)
(1.1184394 -0.00019220896 0)
(1.1183871 -0.0001795212 0)
(1.1183383 -0.00016767918 0)
(1.1182926 -0.0001566153 0)
(1.11825 -0.00014629231 0)
(1.1182103 -0.00013663895 0)
(1.118173 -0.00012763772 0)
(1.1181384 -0.000119206 0)
(1.1181059 -0.00011135935 0)
(1.1180757 -0.00010398899 0)
(1.1180473 -9.7156145e-05 0)
(1.1180211 -9.0705556e-05 0)
(1.1179963 -8.4791974e-05 0)
(1.1179734 -7.9137499e-05 0)
(1.1179516 -7.4020205e-05 0)
(1.1179318 -6.8990746e-05 0)
(1.1179128 -6.4647148e-05 0)
(1.1178955 -6.0156753e-05 0)
(1.117879 -5.6584726e-05 0)
(1.1178635 -5.2432307e-05 0)
(1.11785 -4.9737269e-05 0)
(1.1178349 -4.5800522e-05 0)
(1.1178261 -4.4314593e-05 0)
(1.1178083 -4.0570283e-05 0)
(1.0016583 -0.05381943 0)
(1.0359761 -0.10128444 0)
(1.0597199 -0.11073663 0)
(1.0628947 -0.10592202 0)
(1.0515569 -0.096228728 0)
(1.0340529 -0.083934061 0)
(1.0142795 -0.070327063 0)
(0.99360703 -0.056981334 0)
(0.97292577 -0.045107479 0)
(0.9531074 -0.03523675 0)
(0.93479538 -0.02740165 0)
(0.91829012 -0.021387228 0)
(0.90362379 -0.0168845 0)
(0.89068067 -0.01356971 0)
(0.87928174 -0.011147749 0)
(0.86923242 -0.0093736586 0)
(0.86034423 -0.0080569275 0)
(0.85244667 -0.0070571267 0)
(0.84539241 -0.006275238 0)
(0.83905793 -0.0056438286 0)
(0.83334126 -0.0051180914 0)
(0.82815884 -0.0046686728 0)
(0.82344212 -0.0042764176 0)
(0.81913467 -0.0039287387 0)
(0.81518961 -0.0036172031 0)
(0.81156765 -0.0033359698 0)
(0.80823544 -0.0030808033 0)
(0.8051644 -0.0028484682 0)
(0.80232979 -0.0026363689 0)
(0.79970999 -0.0024423385 0)
(0.79728597 -0.0022645191 0)
(0.79504086 -0.0021012904 0)
(0.79295963 -0.0019512259 0)
(0.7910288 -0.0018130634 0)
(0.78923627 -0.0016856836 0)
(0.7875711 -0.0015680924 0)
(0.78602338 -0.0014594054 0)
(0.78458411 -0.0013588354 0)
(0.78324511 -0.0012656801 0)
(0.78199889 -0.0011793116 0)
(0.7808386 -0.0010991673 0)
(0.77975798 -0.0010247416 0)
(0.77875127 -0.00095557918 0)
(0.77781317 -0.00089126866 0)
(0.77693881 -0.00083143732 0)
(0.77612368 -0.0007757467 0)
(0.77536362 -0.00072388856 0)
(0.77465481 -0.00067558165 0)
(0.77399367 -0.00063056856 0)
(0.77337693 -0.00058861263 0)
(0.77280153 -0.00054949584 0)
(0.77226464 -0.00051301734 0)
(0.77176363 -0.00047899186 0)
(0.77129606 -0.00044724827 0)
(0.77085966 -0.00041762881 0)
(0.77045234 -0.00038998792 0)
(0.77007211 -0.00036419057 0)
(0.76971717 -0.00034011168 0)
(0.76938581 -0.00031763542 0)
(0.76907644 -0.00029665379 0)
(0.7687876 -0.00027706569 0)
(0.76851791 -0.00025877684 0)
(0.76826609 -0.00024169961 0)
(0.76803095 -0.00022575193 0)
(0.76781139 -0.00021085781 0)
(0.76760635 -0.00019694717 0)
(0.76741488 -0.00018395545 0)
(0.76723608 -0.00017182254 0)
(0.7670691 -0.00016049277 0)
(0.76691316 -0.00014991301 0)
(0.76676752 -0.0001400334 0)
(0.7666315 -0.00013080585 0)
(0.76650446 -0.00012218666 0)
(0.76638582 -0.00011413343 0)
(0.76627501 -0.0001066098 0)
(0.76617152 -9.9579971e-05 0)
(0.76607486 -9.3014816e-05 0)
(0.76598459 -8.6881923e-05 0)
(0.76590026 -8.1157551e-05 0)
(0.76582151 -7.5809205e-05 0)
(0.76574794 -7.0818975e-05 0)
(0.76567924 -6.6152736e-05 0)
(0.76561504 -6.1799823e-05 0)
(0.76555512 -5.7722341e-05 0)
(0.76549911 -5.3925566e-05 0)
(0.76544685 -5.0358147e-05 0)
(0.76539796 -4.7044042e-05 0)
(0.76535239 -4.3930099e-05 0)
(0.76530971 -4.1069227e-05 0)
(0.76526996 -3.8332697e-05 0)
(0.7652327 -3.582864e-05 0)
(0.76519805 -3.3433171e-05 0)
(0.76516559 -3.1318393e-05 0)
(0.76513517 -2.9204183e-05 0)
(0.7651071 -2.7386054e-05 0)
(0.76507997 -2.5524424e-05 0)
(0.76505664 -2.4063725e-05 0)
(0.76503057 -2.2545194e-05 0)
(0.76501445 -2.1587792e-05 0)
(0.76498346 -2.0984898e-05 0)
(0.91890839 -0.035821913 0)
(0.86271384 -0.062195638 0)
(0.7870597 -0.06251009 0)
(0.69536033 -0.054550395 0)
(0.61089745 -0.044531651 0)
(0.54411592 -0.034015972 0)
(0.49343012 -0.02418754 0)
(0.45479413 -0.01614423 0)
(0.42544582 -0.010265785 0)
(0.40347313 -0.006304145 0)
(0.38715766 -0.0037976294 0)
(0.3749622 -0.0023103384 0)
(0.36566192 -0.0014930154 0)
(0.35836272 -0.0010851186 0)
(0.35244268 -0.0009060723 0)
(0.34748201 -0.00084105135 0)
(0.34320348 -0.00082372362 0)
(0.33942726 -0.00081931006 0)
(0.33603793 -0.00081185199 0)
(0.33296114 -0.00079580153 0)
(0.33014778 -0.00077081194 0)
(0.32756384 -0.00073870994 0)
(0.3251842 -0.00070188955 0)
(0.32298902 -0.00066256563 0)
(0.32096172 -0.00062249931 0)
(0.31908785 -0.00058295704 0)
(0.31735449 -0.00054477116 0)
(0.31574995 -0.00050843392 0)
(0.3142636 -0.00047419168 0)
(0.31288574 -0.00044212494 0)
(0.31160755 -0.0004122099 0)
(0.31042101 -0.00038436204 0)
(0.30931883 -0.00035846518 0)
(0.30829438 -0.00033439021 0)
(0.30734165 -0.00031200633 0)
(0.30645515 -0.00029118713 0)
(0.30562991 -0.00027181379 0)
(0.30486136 -0.00025377647 0)
(0.30414535 -0.00023697438 0)
(0.30347807 -0.00022131524 0)
(0.302856 -0.00020671481 0)
(0.30227596 -0.0001930962 0)
(0.30173496 -0.00018038905 0)
(0.30123029 -0.00016852894 0)
(0.30075942 -0.00015745676 0)
(0.30032002 -0.00014711816 0)
(0.29990993 -0.00013746305 0)
(0.29952715 -0.00012844522 0)
(0.29916983 -0.00012002179 0)
(0.29883624 -0.00011215267 0)
(0.29852478 -0.00010480052 0)
(0.29823396 -9.7930722e-05 0)
(0.29796241 -9.1511052e-05 0)
(0.29770882 -8.551162e-05 0)
(0.29747201 -7.9904855e-05 0)
(0.29725084 -7.4665171e-05 0)
(0.29704429 -6.9768579e-05 0)
(0.29685138 -6.5192821e-05 0)
(0.2966712 -6.0917179e-05 0)
(0.29650291 -5.6921939e-05 0)
(0.29634572 -5.3188425e-05 0)
(0.2961989 -4.969923e-05 0)
(0.29606176 -4.6438101e-05 0)
(0.29593366 -4.3389752e-05 0)
(0.29581401 -4.0540305e-05 0)
(0.29570224 -3.7877173e-05 0)
(0.29559784 -3.538863e-05 0)
(0.29550032 -3.3063701e-05 0)
(0.29540922 -3.0892059e-05 0)
(0.29532413 -2.8863461e-05 0)
(0.29524464 -2.6968228e-05 0)
(0.29517039 -2.5197014e-05 0)
(0.29510103 -2.3541366e-05 0)
(0.29503624 -2.1993212e-05 0)
(0.29497572 -2.0546079e-05 0)
(0.29491919 -1.919352e-05 0)
(0.29486638 -1.793036e-05 0)
(0.29481705 -1.6750428e-05 0)
(0.29477097 -1.5649369e-05 0)
(0.29472793 -1.4620427e-05 0)
(0.29468771 -1.3660388e-05 0)
(0.29465016 -1.2762075e-05 0)
(0.29461507 -1.1923781e-05 0)
(0.2945823 -1.1137523e-05 0)
(0.29455168 -1.0405469e-05 0)
(0.29452309 -9.7161764e-06 0)
(0.29449637 -9.0770732e-06 0)
(0.29447142 -8.4789935e-06 0)
(0.29444808 -7.9300682e-06 0)
(0.29442632 -7.3961107e-06 0)
(0.29440599 -6.9097676e-06 0)
(0.294387 -6.4602674e-06 0)
(0.2943692 -6.0628387e-06 0)
(0.29435259 -5.6566199e-06 0)
(0.29433715 -5.2937307e-06 0)
(0.2943225 -4.9716046e-06 0)
(0.29430919 -4.6856444e-06 0)
(0.29429569 -4.5322786e-06 0)
(0.29428502 -4.4001339e-06 0)
(0.29426875 -5.0536071e-06 0)
)
;

boundaryField
{
    top
    {
        type            fixedValue;
        value           uniform (0 0 0);
    }
    inlet
    {
        type            fixedValue;
        value           uniform (1 0 0);
    }
    outlet
    {
        type            zeroGradient;
    }
    bottom
    {
        type            fixedValue;
        value           uniform (0 0 0);
    }
    back
    {
        type            empty;
    }
    front
    {
        type            empty;
    }
}


// ************************************************************************* //
