/*--------------------------------*- C++ -*----------------------------------*\
| =========                 |                                                 |
| \\      /  F ield         | OpenFOAM: The Open Source CFD Toolbox           |
|  \\    /   O peration     | Version:  v1812                                 |
|   \\  /    A nd           | Web:      www.OpenFOAM.com                      |
|    \\/     M anipulation  |                                                 |
\*---------------------------------------------------------------------------*/
FoamFile
{
    version     2.0;
    format      ascii;
    class       volScalarField;
    location    "5.6";
    object      p;
}
// * * * * * * * * * * * * * * * * * * * * * * * * * * * * * * * * * * * * * //

dimensions      [0 2 -2 0 0 0 0];


internalField   nonuniform List<scalar> 
1000
(
1.6765616
1.5554837
1.4595032
1.3958471
1.3473376
1.3048656
1.2673303
1.2351586
1.2077582
1.1839206
1.1625263
1.1427625
1.1240854
1.1061458
1.0887305
1.0717163
1.0550354
1.0386512
1.0225431
1.0066971
0.99110217
0.97574708
0.96062041
0.9457102
0.93100424
0.91649032
0.90215645
0.8879911
0.87398326
0.86012257
0.84639931
0.83280441
0.81932946
0.80596664
0.79270871
0.77954899
0.76648133
0.75350004
0.74059991
0.72777612
0.71502426
0.70234024
0.68972029
0.67716091
0.66465879
0.65221084
0.63981409
0.62746566
0.61516276
0.60290263
0.59068254
0.57849977
0.56635161
0.55423535
0.54214833
0.53008788
0.51805142
0.50603643
0.4940405
0.48206133
0.47009676
0.45814479
0.44620358
0.43427147
0.42234698
0.4104288
0.39851579
0.38660697
0.37470151
0.36279872
0.35089803
0.33899895
0.32710113
0.31520425
0.30330809
0.29141246
0.27951722
0.26762227
0.25572752
0.24383292
0.23193842
0.220044
0.20814963
0.19625529
0.18436098
0.17246668
0.1605724
0.14867811
0.13678383
0.12488956
0.11299529
0.10110104
0.089206786
0.077312524
0.065418245
0.053523963
0.041629691
0.029735448
0.017841213
0.0059470241
1.5593419
1.5044128
1.4434603
1.3918926
1.3486226
1.3096543
1.274068
1.2422954
1.2143345
1.1895566
1.1671548
1.1464534
1.1269718
1.1083837
1.0904701
1.0730854
1.0561336
1.0395522
1.0232995
1.007346
0.99166899
0.97624946
0.96107063
0.94611699
0.93137397
0.91682781
0.90246548
0.88827473
0.87424407
0.86036274
0.84662075
0.83300879
0.81951822
0.80614107
0.79286995
0.77969804
0.76661906
0.75362722
0.7407172
0.72788411
0.71512346
0.70243113
0.68980328
0.67723638
0.66472712
0.65227237
0.63986917
0.62751466
0.61520603
0.60294056
0.59071551
0.57852818
0.56637586
0.55425586
0.54216548
0.53010207
0.51806303
0.50604582
0.49404799
0.48206723
0.47010134
0.45814829
0.44620621
0.43427342
0.42234839
0.4104298
0.39851648
0.38660744
0.37470181
0.36279891
0.35089813
0.33899901
0.32710115
0.31520425
0.30330808
0.29141245
0.27951721
0.26762225
0.25572751
0.24383291
0.23193841
0.22004399
0.20814962
0.19625529
0.18436098
0.17246668
0.1605724
0.14867811
0.13678383
0.12488956
0.11299529
0.10110104
0.089206783
0.077312523
0.065418245
0.05352396
0.041629679
0.029735422
0.017841159
0.0059469785
1.4985207
1.4723456
1.4339487
1.3928158
1.3537305
1.3171397
1.2828421
1.2511245
1.2222685
1.1961674
1.1724134
1.1505234
1.1300735
1.1107327
1.0922525
1.0744515
1.0571996
1.040404
1.023998
1.0079328
0.99217249
0.97668881
0.96145896
0.94646348
0.93168525
0.91710881
0.90272006
0.888506
0.87445462
0.86055481
0.84679625
0.8331694
0.81966543
0.80627617
0.79299409
0.77981223
0.76672418
0.75372405
0.74080642
0.72796632
0.71519918
0.70250079
0.68986728
0.67729506
0.66478078
0.65232129
0.6399136
0.62755483
0.61524218
0.60297289
0.59074426
0.57855357
0.56639812
0.55427522
0.54218218
0.53011635
0.51807513
0.50605598
0.49405643
0.48207417
0.47010699
0.45815284
0.44620984
0.43427628
0.42235062
0.41043151
0.39851778
0.38660841
0.37470254
0.36279944
0.35089851
0.33899928
0.32710134
0.31520439
0.30330817
0.29141251
0.27951725
0.26762228
0.25572752
0.24383292
0.23193842
0.220044
0.20814963
0.19625529
0.18436098
0.17246668
0.1605724
0.14867811
0.13678383
0.12488955
0.11299528
0.10110103
0.089206773
0.077312515
0.065418234
0.053523943
0.041629641
0.029735358
0.017841067
0.0059469095
1.4691121
1.453614
1.4267441
1.3928202
1.3570192
1.3220679
1.288766
1.2574129
1.2282823
1.2014908
1.1769032
1.154211
1.1330592
1.1131305
1.0941723
1.0759926
1.0584468
1.0414258
1.0248472
1.0086492
0.99278523
0.9772195
0.96192355
0.94687389
0.93205049
0.91743582
0.90301426
0.88877176
0.8746955
0.86077376
0.84699579
0.83335168
0.81983231
0.80642926
0.79313481
0.77994183
0.76684376
0.75383457
0.74090875
0.72806121
0.71528729
0.70258271
0.6899435
0.67736601
0.66484682
0.65238273
0.63997069
0.62760777
0.61529115
0.60301805
0.59078573
0.57859149
0.56643261
0.5543064
0.54221019
0.53014135
0.51809727
0.50607543
0.49407339
0.48208882
0.47011954
0.4581635
0.4462188
0.43428374
0.42235677
0.41043654
0.39852185
0.38661167
0.37470512
0.36280147
0.35090009
0.33900049
0.32710226
0.31520508
0.30330869
0.29141289
0.27951753
0.26762248
0.25572767
0.24383302
0.23193849
0.22004405
0.20814966
0.19625531
0.18436099
0.17246669
0.1605724
0.14867812
0.13678383
0.12488955
0.11299528
0.10110102
0.089206761
0.077312501
0.065418215
0.053523916
0.041629597
0.029735292
0.017840982
0.0059468497
1.4563806
1.4444272
1.4221929
1.3919053
1.3580441
1.3240486
1.291351
1.2603454
1.231248
1.2042362
1.1793091
1.1562595
1.134778
1.1145604
1.0953568
1.0769746
1.0592657
1.0421152
1.0254344
1.0091552
0.99322627
0.97760772
0.96226822
0.94718209
0.93232767
0.91768624
0.90324136
0.88897831
0.87488383
0.86094585
0.84715334
0.83349616
0.81996503
0.80655139
0.79324738
0.78004576
0.76693988
0.75392364
0.74099143
0.7281381
0.71535892
0.70264955
0.69000596
0.67742444
0.66490152
0.65243394
0.64001861
0.62765256
0.61533294
0.60305694
0.59082181
0.57862481
0.56646323
0.5543344
0.54223563
0.5301643
0.51811782
0.50609369
0.49408949
0.48210289
0.47013172
0.45817394
0.44622768
0.43429121
0.422363
0.41044168
0.39852604
0.38661506
0.37470783
0.36280361
0.35090177
0.33900179
0.32710326
0.31520584
0.30330926
0.29141332
0.27951784
0.26762271
0.25572783
0.24383314
0.23193857
0.2200441
0.2081497
0.19625534
0.18436101
0.17246671
0.16057241
0.14867812
0.13678383
0.12488955
0.11299527
0.10110101
0.089206751
0.07731249
0.0654182
0.053523899
0.041629569
0.029735253
0.017840935
0.0059468174
1.4563806
1.4444272
1.4221929
1.3919053
1.3580441
1.3240486
1.291351
1.2603454
1.231248
1.2042362
1.1793091
1.1562595
1.134778
1.1145604
1.0953568
1.0769746
1.0592657
1.0421152
1.0254344
1.0091552
0.99322627
0.97760772
0.96226822
0.94718208
0.93232766
0.91768624
0.90324136
0.88897831
0.87488383
0.86094585
0.84715333
0.83349616
0.81996503
0.8065514
0.79324739
0.78004577
0.76693989
0.75392365
0.74099144
0.72813811
0.71535894
0.70264956
0.69000597
0.67742445
0.66490152
0.65243394
0.64001861
0.62765257
0.61533295
0.60305694
0.59082181
0.57862481
0.56646323
0.5543344
0.54223563
0.5301643
0.51811782
0.50609369
0.49408948
0.48210289
0.47013172
0.45817394
0.44622767
0.4342912
0.42236299
0.41044167
0.39852604
0.38661505
0.37470782
0.3628036
0.35090176
0.33900179
0.32710326
0.31520584
0.30330926
0.29141331
0.27951784
0.26762271
0.25572783
0.24383314
0.23193857
0.2200441
0.2081497
0.19625534
0.18436101
0.17246671
0.16057241
0.14867812
0.13678383
0.12488955
0.11299527
0.10110101
0.089206749
0.077312488
0.0654182
0.053523899
0.041629571
0.029735254
0.017840935
0.0059468178
1.4691121
1.453614
1.4267441
1.3928202
1.3570192
1.3220679
1.288766
1.2574129
1.2282823
1.2014908
1.1769032
1.154211
1.1330592
1.1131305
1.0941722
1.0759926
1.0584468
1.0414258
1.0248472
1.0086492
0.99278523
0.97721949
0.96192354
0.94687389
0.93205048
0.91743581
0.90301425
0.88877175
0.87469548
0.86077375
0.84699578
0.83335168
0.81983231
0.80642927
0.79313483
0.77994185
0.76684378
0.7538346
0.74090878
0.72806124
0.71528732
0.70258273
0.68994352
0.67736603
0.66484684
0.65238274
0.63997069
0.62760778
0.61529115
0.60301805
0.59078573
0.57859149
0.56643261
0.5543064
0.5422102
0.53014135
0.51809727
0.50607543
0.49407339
0.48208882
0.47011953
0.45816348
0.44621878
0.43428372
0.42235675
0.41043652
0.39852183
0.38661165
0.3747051
0.36280144
0.35090007
0.33900047
0.32710225
0.31520507
0.30330868
0.29141288
0.27951752
0.26762248
0.25572766
0.24383302
0.23193849
0.22004405
0.20814966
0.19625532
0.184361
0.17246669
0.1605724
0.14867811
0.13678382
0.12488954
0.11299527
0.10110101
0.089206755
0.077312495
0.065418214
0.053523917
0.041629602
0.029735295
0.017840983
0.0059468509
1.4985207
1.4723456
1.4339487
1.3928158
1.3537305
1.3171397
1.2828421
1.2511245
1.2222685
1.1961674
1.1724134
1.1505234
1.1300735
1.1107327
1.0922525
1.0744515
1.0571996
1.040404
1.023998
1.0079328
0.99217248
0.9766888
0.96145895
0.94646347
0.93168523
0.9171088
0.90272004
0.88850598
0.87445461
0.86055479
0.84679624
0.8331694
0.81966543
0.80627619
0.79299412
0.77981226
0.76672422
0.7537241
0.74080647
0.72796637
0.71519922
0.70250082
0.68986731
0.67729508
0.6647808
0.6523213
0.63991361
0.62755483
0.61524218
0.60297289
0.59074426
0.57855357
0.56639812
0.55427522
0.54218219
0.53011636
0.51807514
0.50605598
0.49405643
0.48207417
0.47010698
0.45815283
0.44620982
0.43427625
0.42235059
0.41043148
0.39851775
0.38660838
0.37470251
0.36279941
0.35089849
0.33899926
0.32710132
0.31520437
0.30330816
0.2914125
0.27951724
0.26762227
0.25572752
0.24383291
0.23193842
0.220044
0.20814963
0.19625529
0.18436098
0.17246668
0.16057239
0.1486781
0.13678382
0.12488954
0.11299527
0.10110102
0.089206765
0.07731251
0.065418232
0.053523946
0.041629647
0.029735364
0.017841068
0.0059469102
1.5593419
1.5044128
1.4434603
1.3918926
1.3486226
1.3096543
1.274068
1.2422954
1.2143345
1.1895566
1.1671548
1.1464534
1.1269718
1.1083837
1.0904701
1.0730854
1.0561336
1.0395522
1.0232995
1.007346
0.99166898
0.97624945
0.96107062
0.94611698
0.93137396
0.91682779
0.90246546
0.88827471
0.87424405
0.86036273
0.84662074
0.83300879
0.81951823
0.80614109
0.79286998
0.77969808
0.76661911
0.75362727
0.74071725
0.72788416
0.71512352
0.70243117
0.68980332
0.67723641
0.66472714
0.65227238
0.63986918
0.62751466
0.61520603
0.60294056
0.59071551
0.57852818
0.56637587
0.55425586
0.54216548
0.53010208
0.51806303
0.50604582
0.49404799
0.48206722
0.47010132
0.45814827
0.44620619
0.43427339
0.42234836
0.41042977
0.39851645
0.3866074
0.37470178
0.36279887
0.3508981
0.33899898
0.32710113
0.31520424
0.30330807
0.29141243
0.2795172
0.26762225
0.2557275
0.2438329
0.23193841
0.22004399
0.20814963
0.1962553
0.18436098
0.17246668
0.16057239
0.1486781
0.13678381
0.12488954
0.11299528
0.10110103
0.089206777
0.07731252
0.065418242
0.053523964
0.041629689
0.02973543
0.01784116
0.0059469776
1.6765616
1.5554837
1.4595032
1.3958471
1.3473376
1.3048655
1.2673303
1.2351586
1.2077582
1.1839206
1.1625263
1.1427625
1.1240854
1.1061458
1.0887305
1.0717163
1.0550354
1.0386512
1.0225431
1.0066971
0.99110217
0.97574708
0.9606204
0.94571019
0.93100423
0.9164903
0.90215644
0.88799108
0.87398324
0.86012255
0.8463993
0.83280442
0.81932947
0.80596666
0.79270874
0.77954903
0.76648138
0.7535001
0.74059996
0.72777617
0.7150243
0.70234028
0.68972032
0.67716093
0.6646588
0.65221085
0.63981409
0.62746565
0.61516275
0.60290262
0.59068253
0.57849976
0.5663516
0.55423535
0.54214833
0.53008788
0.51805142
0.50603643
0.4940405
0.48206132
0.47009674
0.45814477
0.44620355
0.43427144
0.42234695
0.41042876
0.39851575
0.38660693
0.37470148
0.36279869
0.35089799
0.33899892
0.32710111
0.31520423
0.30330808
0.29141245
0.27951721
0.26762226
0.25572751
0.24383292
0.23193842
0.220044
0.20814963
0.1962553
0.18436099
0.17246668
0.16057239
0.1486781
0.13678381
0.12488954
0.11299528
0.10110103
0.08920678
0.077312517
0.065418242
0.053523969
0.041629706
0.029735457
0.017841212
0.0059470223
)
;

boundaryField
{
    top
    {
        type            zeroGradient;
    }
    inlet
    {
        type            zeroGradient;
    }
    outlet
    {
        type            fixedValue;
        value           uniform 0;
    }
    bottom
    {
        type            zeroGradient;
    }
    back
    {
        type            empty;
    }
    front
    {
        type            empty;
    }
}


// ************************************************************************* //
