/*--------------------------------*- C++ -*----------------------------------*\
| =========                 |                                                 |
| \\      /  F ield         | OpenFOAM: The Open Source CFD Toolbox           |
|  \\    /   O peration     | Version:  2112                                  |
|   \\  /    A nd           | Website:  www.openfoam.com                      |
|    \\/     M anipulation  |                                                 |
\*---------------------------------------------------------------------------*/
FoamFile
{
    version     2.0;
    format      ascii;
    arch        "LSB;label=32;scalar=64";
    class       surfaceScalarField;
    location    "40";
    object      phi;
}
// * * * * * * * * * * * * * * * * * * * * * * * * * * * * * * * * * * * * * //

dimensions      [0 3 -1 0 0 0 0];

oriented        oriented;

internalField   nonuniform List<scalar> 
1890
(
0.0092502107
0.00074978849
0.0082911051
0.00095910628
0.007362303
0.00092880424
0.0065324224
0.00082988298
0.0058252167
0.00070720699
0.005247848
0.00057736773
0.0047933436
0.00045450163
0.0044449209
0.0003484192
0.0041821223
0.00026279575
0.0039851047
0.00019701632
0.003836779
0.00014832584
0.0037236638
0.00011311638
0.0036356973
8.7968125e-05
0.0035656776
7.0021243e-05
0.0035084945
5.7184326e-05
0.0034604897
4.8005348e-05
0.0034190283
4.1461149e-05
0.0033822341
3.6793036e-05
0.0033488201
3.3412256e-05
0.0033179682
3.085003e-05
0.0032892372
2.8729459e-05
0.0032624846
2.6751552e-05
0.0032377898
2.4694383e-05
0.0032153693
2.2420487e-05
0.0031954866
1.9882982e-05
0.0031783656
1.7121106e-05
0.0031641241
1.4241604e-05
0.003152735
1.1388769e-05
0.0031440235
8.7110258e-06
0.0031376905
6.3321934e-06
0.0031333565
4.3333244e-06
0.0031306088
2.7469027e-06
0.0031290466
1.5614797e-06
0.003128313
7.3307458e-07
0.0031281138
1.9882675e-07
0.0031282236
-1.1019559e-07
0.0031284827
-2.5934974e-07
0.0031287868
-3.0433258e-07
0.0031290751
-2.8859247e-07
0.003129318
-2.4323388e-07
0.0031295063
-1.8858179e-07
0.0031296424
-1.3646487e-07
0.0031297347
-9.2621727e-08
0.0031297932
-5.8837782e-08
0.0031298275
-3.4616065e-08
0.0031298455
-1.8382881e-08
0.0031298535
-8.241464e-09
0.0031298556
-2.4148707e-09
0.0031298549
5.6739612e-10
0.0031298528
1.8041869e-09
0.0031298507
2.0704516e-09
0.0031298486
1.8529117e-09
0.0031298471
1.4701163e-09
0.003129846
1.0450447e-09
0.0031298452
7.205638e-10
0.0031298447
3.9832817e-10
0.0031298444
2.9228095e-10
0.0031298444
1.6958112e-11
0.0031298442
1.8413858e-10
0.0031298444
-2.5953446e-10
0.0031298441
3.5421252e-10
0.0031298447
-6.3699144e-10
0.0031298438
8.4686051e-10
0.0031298451
-1.3229625e-09
0.0031298434
1.7689218e-09
0.0031298458
-2.4567708e-09
0.0031298427
3.1345499e-09
0.0031298466
-3.9235872e-09
0.003129842
4.5880737e-09
0.0031298471
-5.0925597e-09
0.0031298419
5.2163104e-09
0.0031298467
-4.8821633e-09
0.0031298428
4.0050879e-09
0.0031298455
-2.7347852e-09
0.0031298442
1.3251842e-09
0.0031298445
-3.3104002e-10
0.0031298442
3.0038065e-10
0.0031298459
-1.7902727e-09
0.0031298408
5.1068015e-09
0.0031298506
-9.8419149e-09
0.0031298348
1.5851135e-08
0.0031298561
-2.1343658e-08
0.0031298286
2.7567308e-08
0.0031298599
-3.1402934e-08
0.0031298205
3.9385864e-08
0.0031298632
-4.269234e-08
0.0031298043
5.8838009e-08
0.0031298617
-5.7399467e-08
0.0031297755
8.613924e-08
0.0031298323
-5.6849499e-08
0.0031297194
1.1285772e-07
0.0031297284
-9.0096366e-09
0.0031295748
1.5378933e-07
0.0031294363
1.3861505e-07
0.0031292205
2.1600502e-07
0.003128705
5.1554499e-07
0.003128601
1.0370769e-07
0.0031277543
8.4645108e-07
0.00312936
-1.6059829e-06
-1.3356159e-06
0.010379796
0.00036999216
0.010575003
0.00076389926
0.010627612
0.00087619653
0.010566646
0.00089085076
0.010429451
0.00084440245
0.010247257
0.000759561
0.010042743
0.00065901409
0.0098328193
0.00055834115
0.0096293746
0.00046623923
0.0094396009
0.00038678945
0.0092670242
0.00032090264
0.0091125745
0.00026756682
0.0089756525
0.00022489087
0.0088548002
0.00019087431
0.0087481336
0.00016385147
0.0086535992
0.00014253997
0.0085691769
0.00012588319
0.0084930812
0.00011288811
0.0084239364
0.00010255616
0.0083608767
9.3908755e-05
0.0083035399
8.6065399e-05
0.0082519596
7.8331356e-05
0.00820639
7.0263797e-05
0.0081671127
6.1697767e-05
0.0081342712
5.2724562e-05
0.0081077647
4.3627673e-05
0.008087214
3.4792364e-05
0.0080719916
2.661102e-05
0.0080612971
1.9405266e-05
0.0080542508
1.3378016e-05
0.0080499846
8.5992189e-06
0.0080477116
5.0194105e-06
0.0080467716
2.5012169e-06
0.0080466474
8.5691269e-07
0.0080469625
-1.1644528e-07
0.0080474625
-6.103732e-07
0.0080479911
-7.881604e-07
0.0080484643
-7.7767978e-07
0.0080488467
-6.7113437e-07
0.0080491328
-5.2952922e-07
0.0080493331
-3.8907717e-07
0.0080494646
-2.681595e-07
0.0080495452
-1.7333897e-07
0.0080495904
-1.0431645e-07
0.0080496129
-5.7300952e-08
0.0080496218
-2.7390474e-08
0.0080496232
-9.7501009e-09
0.008049621
-3.6996236e-10
0.0080496176
3.8800965e-09
0.0080496141
5.1485207e-09
0.0080496112
4.9216332e-09
0.0080496089
4.0282806e-09
0.0080496074
3.0260015e-09
0.0080496063
2.0664987e-09
0.0080496056
1.3721133e-09
0.0080496052
7.5147534e-10
0.008049605
5.0469306e-10
0.008049605
6.0218948e-11
0.0080496049
2.5414637e-10
0.008049605
-3.6540408e-10
0.0080496049
4.5644511e-10
0.0080496051
-8.853878e-10
0.0080496049
1.1285271e-09
0.0080496053
-1.829099e-09
0.0080496047
2.4261434e-09
0.0080496057
-3.4485945e-09
0.0080496044
4.4392906e-09
0.0080496061
-5.6972892e-09
0.0080496039
6.8164379e-09
0.0080496066
-7.8576653e-09
0.0080496035
8.4228686e-09
0.008049607
-8.4628634e-09
0.0080496034
7.7102588e-09
0.0080496069
-6.3306829e-09
0.0080496038
4.4884992e-09
0.0080496063
-2.8703539e-09
0.0080496044
2.2038652e-09
0.0080496059
-3.3685231e-09
0.0080496039
7.2139822e-09
0.0080496075
-1.3520596e-08
0.0080496004
2.2995977e-08
0.0080496119
-3.2892832e-08
0.0080495933
4.6167016e-08
0.0080496179
-5.599703e-08
0.0080495825
7.4749264e-08
0.0080496235
-8.3738734e-08
0.008049563
1.1940313e-07
0.0080496282
-1.2268351e-07
0.0080495194
1.9498844e-07
0.0080496226
-1.6017497e-07
0.0080494221
3.1336041e-07
0.0080495626
-1.4948102e-07
0.0080491931
5.2343201e-07
0.0080493177
1.4070443e-08
0.0080485814
9.5243544e-07
0.0080484471
6.4977117e-07
0.0080467344
1.8162479e-06
0.0080450801
2.5005468e-06
0.0080397873
3.6866411e-06
6.5016306e-06
0.010194532
0.00017545909
0.010510262
0.00044816912
0.010823831
0.00056262866
0.011103806
0.0006108768
0.011333692
0.0006145175
0.011509109
0.00058414331
0.01163375
0.00053437156
0.01171514
0.00047694941
0.01176202
0.00041935813
0.011782835
0.00036597467
0.011784893
0.0003188445
0.011774096
0.00027836436
0.011754945
0.00024404293
0.011730677
0.00021514298
0.011703494
0.00019103438
0.011674819
0.00017121553
0.011645551
0.00015515097
0.011616315
0.00014212377
0.011587655
0.00013121552
0.011560149
0.00012141426
0.011534426
0.00011178728
0.011511112
0.0001016454
0.011490729
9.0646433e-05
0.011473613
7.8814728e-05
0.011459856
6.6481217e-05
0.011449315
5.4168668e-05
0.01144165
4.245722e-05
0.011436398
3.1863723e-05
0.011433044
2.2758471e-05
0.011431094
1.5328326e-05
0.011430111
9.5822441e-06
0.011429743
5.3865771e-06
0.01142973
2.5147494e-06
0.011429889
6.9767992e-07
0.011430106
-3.3434497e-07
0.011430319
-8.2275083e-07
0.011430496
-9.6504615e-07
0.011430628
-9.10306e-07
0.011430719
-7.6232431e-07
0.011430777
-5.8716278e-07
0.01143081
-4.2217996e-07
0.011430826
-2.8482201e-07
0.011430833
-1.7992174e-07
0.011430834
-1.0532844e-07
0.011430832
-5.5687244e-08
0.01143083
-2.4882231e-08
0.011430827
-7.2722724e-09
0.011430825
1.6901413e-09
0.011430823
5.4081608e-09
0.011430822
6.1987888e-09
0.011430822
5.5804457e-09
0.011430821
4.4148929e-09
0.011430821
3.2176793e-09
0.011430821
2.1487489e-09
0.011430821
1.3761218e-09
0.011430821
7.3148169e-10
0.011430821
4.5120674e-10
0.011430821
2.5317369e-11
0.011430821
1.8377421e-10
0.011430821
-3.772716e-10
0.011430821
3.6455344e-10
0.011430821
-8.4510858e-10
0.011430821
9.8391942e-10
0.011430821
-1.6976578e-09
0.011430821
2.183586e-09
0.011430821
-3.1888187e-09
0.011430821
4.0758785e-09
0.011430821
-5.3313656e-09
0.011430821
6.4197105e-09
0.011430821
-7.577403e-09
0.011430821
8.3029196e-09
0.011430822
-8.701476e-09
0.011430821
8.3773456e-09
0.011430822
-7.5812978e-09
0.01143082
6.2703793e-09
0.011430823
-5.1316863e-09
0.01143082
4.6587204e-09
0.011430823
-5.7982029e-09
0.01143082
9.3870658e-09
0.011430822
-1.5602742e-08
0.01143082
2.5590018e-08
0.011430824
-3.7193375e-08
0.011430816
5.4059666e-08
0.01143083
-6.9297509e-08
0.011430808
9.6229984e-08
0.011430839
-1.1474128e-07
0.011430794
1.6477856e-07
0.011430855
-1.8380176e-07
0.011430765
2.8466927e-07
0.011430884
-2.7862417e-07
0.011430705
4.9147438e-07
0.011430925
-3.6879294e-07
0.011430585
8.6346113e-07
0.011430936
-3.3666708e-07
0.011430285
1.6028091e-06
0.011430645
2.9027875e-07
0.011429174
3.2866454e-06
0.011428345
3.3292836e-06
0.011423953
8.0791286e-06
1.4236814e-05
0.010101097
7.4360987e-05
0.010347823
0.00020144341
0.010645838
0.0002646148
0.010960782
0.00029593362
0.011269169
0.00030613136
0.011554322
0.00029898915
0.01180788
0.00028081262
0.012027572
0.00025725549
0.01221482
0.00023210937
0.012373037
0.0002077573
0.012506403
0.00018547952
0.012619052
0.0001657161
0.012714659
0.00014843661
0.012796326
0.00013347624
0.012866646
0.00012071434
0.012927799
0.00011006265
0.012981604
0.000101346
0.013029525
9.4202449e-05
0.013072661
8.807971e-05
0.013111745
8.2329419e-05
0.013147183
7.6349761e-05
0.01317911
6.971745e-05
0.013207491
6.2265835e-05
0.013232213
5.4092579e-05
0.01325319
4.5504895e-05
0.013270432
3.6926863e-05
0.013284091
2.8798506e-05
0.013294463
2.1491862e-05
0.013301962
1.5258765e-05
0.013307077
1.021337e-05
0.013310316
6.343748e-06
0.013312161
3.5416681e-06
0.013313035
1.6398424e-06
0.013313286
4.4709777e-07
0.013313175
-2.2347709e-07
0.013312889
-5.3626205e-07
0.013312547
-6.2370099e-07
0.013312222
-5.8453106e-07
0.013311946
-4.8661639e-07
0.013311731
-3.7264132e-07
0.013311576
-2.663391e-07
0.013311469
-1.7854041e-07
0.013311401
-1.1196236e-07
0.013311361
-6.4964351e-08
0.013311339
-3.3917525e-08
0.013311329
-1.482874e-08
0.013311326
-4.0314609e-09
0.013311326
1.3594188e-09
0.013311328
3.523791e-09
0.01331133
3.8914413e-09
0.013311333
3.4335549e-09
0.013311334
2.6522389e-09
0.013311336
1.8883311e-09
0.013311337
1.2064611e-09
0.013311337
7.3220582e-10
0.013311338
3.3170215e-10
0.013311338
1.6942829e-10
0.013311338
-8.579575e-11
0.013311338
1.8231716e-11
0.013311338
-3.0769242e-10
0.013311338
1.3661796e-10
0.013311338
-5.615503e-10
0.013311339
5.0989504e-10
0.013311338
-1.0378047e-09
0.013311339
1.2173129e-09
0.013311338
-1.890576e-09
0.013311339
2.332569e-09
0.013311337
-3.1452356e-09
0.01331134
3.7441411e-09
0.013311337
-4.52849e-09
0.01331134
4.9818724e-09
0.013311337
-5.3959855e-09
0.01331134
5.3281998e-09
0.013311337
-5.1386652e-09
0.013311339
4.5645886e-09
0.013311338
-4.2214578e-09
0.013311339
4.1273608e-09
0.013311338
-5.1054921e-09
0.01331134
7.4051525e-09
0.013311336
-1.154147e-08
0.013311344
1.8085546e-08
0.013311333
-2.6298615e-08
0.013311348
3.8407868e-08
0.01331133
-5.068461e-08
0.013311355
7.1367928e-08
0.013311328
-8.8220403e-08
0.013311366
1.2645798e-07
0.01331133
-1.4724816e-07
0.013311392
2.2280964e-07
0.013311347
-2.3446787e-07
0.013311448
3.9082387e-07
0.013311417
-3.3719346e-07
0.013311591
6.8864423e-07
0.013311628
-3.7297271e-07
0.013311972
1.2589966e-06
0.013312232
2.9796198e-08
0.013312965
2.5538226e-06
0.013313898
2.3962973e-06
0.013315613
6.3640885e-06
1.1529607e-05
0.01007436
-4.5938507e-10
0.010275803
-2.4956786e-10
0.01054042
-1.7757108e-10
0.010836354
-1.2930976e-10
0.011142486
-1.2556245e-10
0.011441475
-1.8157559e-10
0.011722287
-3.465934e-10
0.011979541
-5.1164848e-10
0.01221165
-6.4477951e-10
0.012419408
-6.8767897e-10
0.012604889
-6.6295474e-10
0.012770606
-6.4140454e-10
0.012919044
-6.4539699e-10
0.013052521
-7.3411929e-10
0.013173237
-8.6032492e-10
0.013283301
-1.0245347e-09
0.013384648
-1.1628755e-09
0.013478851
-1.2720516e-09
0.013566932
-1.3311586e-09
0.013649262
-1.3607332e-09
0.013725613
-1.3679634e-09
0.013795332
-1.3715435e-09
0.0138576
-1.3704644e-09
0.013911694
-1.3627843e-09
0.0139572
-1.3397319e-09
0.013994129
-1.2871288e-09
0.014022929
-1.2142897e-09
0.014044422
-1.1059704e-09
0.014059682
-1.0010538e-09
0.014069896
-8.7886683e-10
0.014076241
-7.9556665e-10
0.014079783
-7.1422245e-10
0.014081424
-6.8965586e-10
0.014081871
-6.6741865e-10
0.014081649
-6.9480605e-10
0.014081113
-7.1015877e-10
0.01408049
-7.555621e-10
0.014079907
-7.71826e-10
0.014079421
-8.024731e-10
0.014079049
-7.9615775e-10
0.014078784
-8.0007312e-10
0.014078606
-7.6787524e-10
0.014078495
-7.5038079e-10
0.014078431
-7.0225477e-10
0.014078398
-6.7556265e-10
0.014078384
-6.2201831e-10
0.01407838
-5.9470114e-10
0.014078382
-5.4223446e-10
0.014078386
-5.1802905e-10
0.014078391
-4.6775294e-10
0.014078395
-4.4626671e-10
0.014078398
-3.9825416e-10
0.0140784
-3.7926962e-10
0.014078402
-3.3298947e-10
0.014078403
-3.1613434e-10
0.014078403
-2.7255222e-10
0.014078404
-2.5886638e-10
0.014078404
-2.182956e-10
0.014078404
-2.0785248e-10
0.014078404
-1.7104888e-10
0.014078404
-1.6445171e-10
0.014078404
-1.3107574e-10
0.014078405
-1.2790277e-10
0.014078404
-9.8353496e-11
0.014078405
-9.9101813e-11
0.014078403
-7.3144717e-11
0.014078406
-7.7554729e-11
0.014078402
-5.5868986e-11
0.014078406
-6.446404e-11
0.014078402
-4.6712691e-11
0.014078407
-5.8795408e-11
0.014078401
-4.5093797e-11
0.014078407
-6.0773566e-11
0.014078402
-5.0324887e-11
0.014078406
-6.8899065e-11
0.014078402
-6.137975e-11
0.014078406
-8.2430278e-11
0.014078401
-7.5825924e-11
0.014078409
-9.6948381e-11
0.014078397
-8.9395387e-11
0.014078416
-1.08739e-10
0.014078389
-9.7581934e-11
0.014078428
-1.1270267e-10
0.014078377
-9.594747e-11
0.014078449
-1.0579298e-10
0.014078361
-8.3974402e-11
0.014078487
-9.112293e-11
0.01407834
-7.0803317e-11
0.014078563
-7.8551958e-11
0.014078329
-5.8410435e-11
0.014078719
-5.7064311e-11
0.014078382
-3.0981079e-11
0.014079071
-1.5172202e-11
0.014078698
8.0284156e-12
0.014079957
1.8335128e-11
0.014079987
2.78763e-11
0.014082541
3.0434862e-11
0.014084937
3.7898678e-11
0.014091301
7.0342868e-11
7.9949835e-11
0.01007436
-7.4361505e-05
0.010275804
-0.00020144387
0.01054042
-0.0002646152
0.010836355
-0.00029593394
0.011142486
-0.00030613163
0.011441475
-0.00029898951
0.011722287
-0.00028081321
0.011979541
-0.00025725638
0.01221165
-0.00023211051
0.012419408
-0.00020775856
0.012604889
-0.00018548083
0.012770606
-0.00016571741
0.012919044
-0.00014843797
0.013052521
-0.00013347774
0.013173237
-0.00012071608
0.0132833
-0.00011006465
0.013384647
-0.00010134827
0.013478851
-9.4204894e-05
0.013566932
-8.8082269e-05
0.013649262
-8.2332013e-05
0.013725613
-7.6352368e-05
0.013795332
-6.9720051e-05
0.013857599
-6.2268439e-05
0.013911693
-5.4095172e-05
0.0139572
-4.5507453e-05
0.013994128
-3.692934e-05
0.014022928
-2.8800842e-05
0.014044421
-2.1494017e-05
0.014059681
-1.5260701e-05
0.014069896
-1.02151e-05
0.01407624
-6.3452874e-06
0.014079783
-3.5430806e-06
0.014081423
-1.6411743e-06
0.014081871
-4.4841776e-07
0.014081649
2.2213564e-07
0.014081113
5.3486053e-07
0.014080491
6.2224088e-07
0.014079907
5.8301118e-07
0.014079421
4.8506521e-07
0.01407905
3.7107652e-07
0.014078784
2.6479507e-07
0.014078607
1.7703426e-07
0.014078495
1.1051916e-07
0.014078431
6.3590067e-08
0.014078398
3.2624912e-08
0.014078384
1.3614501e-08
0.014078381
2.900376e-09
0.014078382
-2.4156051e-09
0.014078387
-4.502595e-09
0.014078391
-4.8011294e-09
0.014078395
-4.2714171e-09
0.014078398
-3.4264736e-09
0.0140784
-2.5955348e-09
0.014078402
-1.8542611e-09
0.014078403
-1.3174117e-09
0.014078404
-8.6312088e-10
0.014078404
-6.4423002e-10
0.014078404
-3.4134867e-10
0.014078404
-3.9522376e-10
0.014078404
-2.8969338e-11
0.014078404
-4.302968e-10
0.014078404
3.0144032e-10
0.014078405
-7.337446e-10
0.014078404
8.400841e-10
0.014078405
-1.3860793e-09
0.014078403
1.7407538e-09
0.014078406
-2.4607703e-09
0.014078402
3.0277121e-09
0.014078406
-3.8481481e-09
0.014078402
4.4277649e-09
0.014078407
-5.0763408e-09
0.014078401
5.2977527e-09
0.014078407
-5.4271307e-09
0.014078402
5.0303244e-09
0.014078406
-4.6792007e-09
0.014078402
4.092047e-09
0.014078406
-4.2669757e-09
0.014078401
4.9489685e-09
0.014078409
-7.5715614e-09
0.014078397
1.1359855e-08
0.014078416
-1.8273069e-08
0.014078389
2.6102538e-08
0.014078428
-3.8601467e-08
0.014078377
5.0492598e-08
0.014078449
-7.1547102e-08
0.014078361
8.80516e-08
0.014078487
-1.2661097e-07
0.01407834
1.4710201e-07
0.014078563
-2.2294398e-07
0.014078328
2.3434153e-07
0.014078719
-3.9092994e-07
0.014078382
3.3712194e-07
0.014079071
-6.8868515e-07
0.014078698
3.7298471e-07
0.014079957
-1.2589722e-06
0.014079987
-2.9758536e-08
0.01408254
-2.5537572e-06
0.014084937
-2.3962216e-06
0.0140913
-6.3639597e-06
-1.1529462e-05
0.010101097
-0.00017546063
0.010347823
-0.00044817009
0.010645838
-0.00056262947
0.010960782
-0.00061087735
0.011269169
-0.00061451781
0.011554322
-0.00058414347
0.01180788
-0.00053437178
0.012027572
-0.00047694984
0.01221482
-0.00041935886
0.012373037
-0.00036597564
0.012506403
-0.00031884565
0.012619051
-0.00027836562
0.012714658
-0.00024404427
0.012796326
-0.00021514444
0.012866646
-0.000191036
0.012927799
-0.00017121736
0.012981603
-0.00015515298
0.013029524
-0.00014212594
0.01307266
-0.00013121775
0.013111744
-0.00012141651
0.013147181
-0.00011178951
0.013179109
-0.00010164762
0.01320749
-9.0648639e-05
0.013232212
-7.881694e-05
0.013253188
-6.6483414e-05
0.01327043
-5.4170826e-05
0.013284089
-4.2459284e-05
0.013294461
-3.1865654e-05
0.013301961
-2.2760227e-05
0.013307076
-1.5329912e-05
0.013310315
-9.5836645e-06
0.01331216
-5.3878887e-06
0.013313035
-2.5159838e-06
0.013313286
-6.989088e-07
0.013313175
3.3310554e-07
0.013312889
8.2144979e-07
0.013312548
9.6370527e-07
0.013312222
9.0890246e-07
0.013311947
7.6090946e-07
0.013311732
5.8572693e-07
0.013311576
4.2078442e-07
0.01331147
2.8345166e-07
0.013311402
1.7863199e-07
0.013311362
1.0409069e-07
0.01331134
5.4548117e-08
0.01331133
2.3801206e-08
0.013311327
6.2898354e-09
0.013311327
-2.6202884e-09
0.013311329
-6.2461132e-09
0.013311331
-6.9923216e-09
0.013311333
-6.2890381e-09
0.013311335
-5.0857704e-09
0.013311336
-3.8087352e-09
0.013311337
-2.707075e-09
0.013311338
-1.8599861e-09
0.013311338
-1.1879768e-09
0.013311339
-8.3846216e-10
0.013311339
-3.9079362e-10
0.013311339
-4.8646532e-10
0.013311339
9.0101736e-11
0.013311339
-5.9479883e-10
0.013311338
6.2453038e-10
0.013311339
-1.1541409e-09
0.013311338
1.5307581e-09
0.013311339
-2.3064183e-09
0.013311338
3.0628084e-09
0.01331134
-4.1654603e-09
0.013311337
5.2312377e-09
0.01331134
-6.4903624e-09
0.013311337
7.4895794e-09
0.01331134
-8.3676704e-09
0.013311337
8.6137838e-09
0.01331134
-8.4462829e-09
0.013311337
7.4849982e-09
0.013311339
-6.3524148e-09
0.013311338
5.018374e-09
0.013311339
-4.7605815e-09
0.013311338
5.6638354e-09
0.01331134
-9.5101048e-09
0.013311336
1.5449526e-08
0.013311343
-2.5727039e-08
0.013311332
3.7032291e-08
0.013311348
-5.4197303e-08
0.013311329
6.9143166e-08
0.013311354
-9.6353193e-08
0.013311328
1.1460487e-07
0.013311366
-1.6488597e-07
0.013311329
1.8367432e-07
0.013311391
-2.8477508e-07
0.013311347
2.7849828e-07
0.013311448
-4.9156418e-07
0.013311416
3.6869828e-07
0.013311591
-8.6349445e-07
0.013311627
3.3663888e-07
0.013311971
-1.6027882e-06
0.013312232
-2.9024542e-07
0.013312964
-3.2865847e-06
0.013313897
-3.3292277e-06
0.013315612
-8.0790326e-06
-1.42367e-05
0.010194532
-0.00036999373
0.010510263
-0.00076390029
0.010823832
-0.00087619723
0.011103807
-0.00089085108
0.011333692
-0.0008444024
0.011509109
-0.00075956088
0.01163375
-0.00065901401
0.01171514
-0.00055834139
0.01176202
-0.00046623976
0.011782834
-0.00038679024
0.011784893
-0.00032090357
0.011774096
-0.00026756776
0.011754944
-0.00022489186
0.011730676
-0.00019087531
0.011703493
-0.00016385262
0.011674817
-0.00014254126
0.011645549
-0.00012588468
0.011616313
-0.00011288973
0.011587653
-0.00010255787
0.011560147
-9.3910479e-05
0.011534425
-8.6067103e-05
0.01151111
-7.8333019e-05
0.011490727
-7.0265439e-05
0.01147361
-6.1699393e-05
0.011459854
-5.2726185e-05
0.011449313
-4.3629286e-05
0.011441648
-3.4793931e-05
0.011436395
-2.6612537e-05
0.011433042
-1.9406671e-05
0.011431092
-1.3379343e-05
0.011430109
-8.6004216e-06
0.011429742
-5.0205605e-06
0.011429729
-2.5022909e-06
0.011429888
-8.5798837e-07
0.011430107
1.1538352e-07
0.011430319
6.0927463e-07
0.011430496
7.8704874e-07
0.011430629
7.7653552e-07
0.01143072
6.699895e-07
0.011430778
5.2838323e-07
0.011430811
3.8796418e-07
0.011430827
2.6707825e-07
0.011430834
1.7231891e-07
0.011430835
1.0334735e-07
0.011430833
5.6408007e-08
0.01143083
2.6551314e-08
0.011430828
8.9878433e-09
0.011430826
-3.4419651e-10
0.011430824
-4.5212231e-09
0.011430823
-5.7501053e-09
0.011430822
-5.4565788e-09
0.011430822
-4.5303794e-09
0.011430822
-3.4656629e-09
0.011430822
-2.4792334e-09
0.011430822
-1.7277749e-09
0.011430822
-1.0848931e-09
0.011430822
-7.8501375e-10
0.011430822
-3.2355426e-10
0.011430822
-4.700021e-10
0.011430821
1.6199789e-10
0.011430822
-6.1637513e-10
0.011430821
7.3285089e-10
0.011430822
-1.2431955e-09
0.011430821
1.7171515e-09
0.011430822
-2.5050537e-09
0.011430821
3.3664746e-09
0.011430822
-4.4954744e-09
0.011430821
5.6325736e-09
0.011430822
-6.8602801e-09
0.011430821
7.800574e-09
0.011430821
-8.4639239e-09
0.011430822
8.4058441e-09
0.011430821
-7.75342e-09
0.011430822
6.2682216e-09
0.01143082
-4.5409536e-09
0.011430822
2.7958584e-09
0.01143082
-2.2692178e-09
0.011430822
3.280555e-09
0.01143082
-7.2910865e-09
0.011430822
1.3424772e-08
0.01143082
-2.3074941e-08
0.011430824
3.2799006e-08
0.011430816
-4.6240267e-08
0.011430829
5.5911654e-08
0.011430808
-7.4814066e-08
0.011430839
8.3657355e-08
0.011430793
-1.1947544e-07
0.011430854
1.225872e-07
0.011430765
-1.9508034e-07
0.011430883
1.6007109e-07
0.011430705
-3.1344982e-07
0.011430924
1.4940877e-07
0.011430584
-5.2347065e-07
0.011430935
-1.4089729e-08
0.011430285
-9.5241207e-07
0.011430644
-6.4973479e-07
0.011429174
-1.8162115e-06
0.011428345
-2.5005064e-06
0.011423952
-3.6865863e-06
-6.5015653e-06
0.010379796
-0.00074978925
0.010575004
-0.00095910649
0.010627613
-0.00092880391
0.010566647
-0.00082988232
0.010429451
-0.00070720652
0.010247257
-0.00057736776
0.010042742
-0.0004545024
0.0098328185
-0.00034842036
0.0096293737
-0.00026279698
0.0094396002
-0.00019701722
0.0092670237
-0.00014832629
0.0091125739
-0.00011311653
0.0089756518
-8.7968096e-05
0.0088547991
-7.0021297e-05
0.0087481321
-5.7184494e-05
0.0086535974
-4.8005775e-05
0.008569175
-4.1461782e-05
0.0084930793
-3.6793901e-05
0.0084239346
-3.3413275e-05
0.008360875
-3.0851137e-05
0.0083035382
-2.8730561e-05
0.0082519578
-2.6752583e-05
0.008206388
-2.4695293e-05
0.0081671105
-2.2421284e-05
0.0081342689
-1.9883686e-05
0.0081077623
-1.7121763e-05
0.0080872116
-1.4242269e-05
0.0080719894
-1.1389441e-05
0.0080612951
-8.7117598e-06
0.0080542493
-6.3329239e-06
0.0080499833
-4.3340991e-06
0.0080477108
-2.7476328e-06
0.008046771
-1.5622184e-06
0.0080466471
-7.3375152e-07
0.0080469624
-1.9949649e-07
0.0080474626
1.0957546e-07
0.0080479914
2.587329e-07
0.0080484647
3.0374406e-07
0.0080488471
2.8800062e-07
0.0080491333
2.4266115e-07
0.0080493337
1.8800656e-07
0.0080494652
1.3591362e-07
0.0080495458
9.2075268e-08
0.0080495911
5.8327901e-08
0.0080496136
3.4117853e-08
0.0080496225
1.7931526e-08
0.0080496239
7.8049926e-09
0.0080496217
2.0311125e-09
0.0080496183
-9.3779774e-10
0.0080496148
-2.1218728e-09
0.0080496119
-2.3783098e-09
0.0080496096
-2.1099348e-09
0.008049608
-1.7218899e-09
0.0080496069
-1.2499808e-09
0.0080496062
-9.2403094e-10
0.0080496058
-5.580336e-10
0.0080496055
-4.5398949e-10
0.0080496054
-1.385651e-10
0.0080496053
-3.1033086e-10
0.0080496053
1.7104614e-10
0.0080496052
-4.5017622e-10
0.0080496054
5.7533297e-10
0.0080496051
-9.1877491e-10
0.0080496055
1.2822408e-09
0.0080496048
-1.8235314e-09
0.0080496058
2.4287112e-09
0.0080496044
-3.179008e-09
0.0080496062
3.903191e-09
0.0080496039
-4.625753e-09
0.0080496067
5.0772954e-09
0.0080496034
-5.2489665e-09
0.008049607
4.8706402e-09
0.0080496033
-4.0369639e-09
0.0080496068
2.7196233e-09
0.0080496036
-1.3642171e-09
0.0080496062
3.0750752e-10
0.0080496042
-3.4648734e-10
0.0080496058
1.7645164e-09
0.0080496036
-5.1490082e-09
0.0080496073
9.8272146e-09
0.0080496001
-1.5881469e-08
0.0080496117
2.1340677e-08
0.008049593
-2.759213e-08
0.0080496176
3.1396742e-08
0.0080495822
-3.9427461e-08
0.0080496232
4.2652487e-08
0.0080495625
-5.8917397e-08
0.0080496278
5.7327432e-08
0.0080495189
-8.6222613e-08
0.0080496222
5.679539e-08
0.0080494217
-1.1289478e-07
0.0080495623
9.0158959e-09
0.0080491927
-1.5377902e-07
0.0080493174
-1.3856422e-07
0.008048581
-2.1597847e-07
0.0080484467
-5.1552663e-07
0.0080467341
-1.0372571e-07
0.0080450799
-8.4647418e-07
0.0080397872
1.6059655e-06
1.3356261e-06
0.0092502117
0.0082911069
0.0073623048
0.0065324233
0.0058252162
0.0052478462
0.0047933411
0.0044449186
0.0041821208
0.0039851039
0.0038367788
0.0037236637
0.0036356968
0.0035656766
0.0035084928
0.0034604875
0.0034190259
0.003382232
0.0033488185
0.0033179671
0.0032892364
0.0032624839
0.003237789
0.0032153684
0.0031954855
0.0031783645
0.0031641229
0.003152734
0.0031440227
0.00313769
0.0031333562
0.0031306087
0.0031290468
0.0031283133
0.0031281142
0.0031282241
0.0031284832
0.0031287874
0.0031290757
0.0031293187
0.0031295071
0.0031296432
0.0031297355
0.0031297941
0.0031298284
0.0031298464
0.0031298544
0.0031298566
0.0031298558
0.0031298537
0.0031298515
0.0031298495
0.0031298479
0.0031298467
0.0031298459
0.0031298453
0.003129845
0.0031298448
0.0031298446
0.0031298448
0.0031298444
0.003129845
0.0031298441
0.0031298453
0.0031298435
0.0031298459
0.0031298428
0.0031298466
0.003129842
0.0031298471
0.0031298419
0.0031298467
0.0031298427
0.0031298454
0.0031298441
0.0031298444
0.0031298441
0.0031298458
0.0031298407
0.0031298506
0.0031298348
0.0031298561
0.0031298286
0.0031298599
0.0031298205
0.0031298631
0.0031298041
0.0031298614
0.0031297752
0.0031298321
0.0031297193
0.0031297284
0.0031295748
0.0031294363
0.0031292204
0.0031287047
0.0031286008
0.0031277542
0.0031293601
)
;

boundaryField
{
    top
    {
        type            calculated;
        value           uniform 0;
    }
    inlet
    {
        type            calculated;
        value           nonuniform List<scalar> 10(-0.01 -0.01 -0.01 -0.01 -0.01 -0.01 -0.01 -0.01 -0.01 -0.01);
    }
    outlet
    {
        type            calculated;
        value           nonuniform List<scalar> 10(0.0031306956 0.00803195 0.011416217 0.01331832 0.01410283 0.01410283 0.013318319 0.011416217 0.0080319499 0.0031306958);
    }
    bottom
    {
        type            calculated;
        value           uniform 0;
    }
    back
    {
        type            empty;
        value           nonuniform List<scalar> 0();
    }
    front
    {
        type            empty;
        value           nonuniform List<scalar> 0();
    }
}


// ************************************************************************* //
