/*--------------------------------*- C++ -*----------------------------------*\
| =========                 |                                                 |
| \\      /  F ield         | OpenFOAM: The Open Source CFD Toolbox           |
|  \\    /   O peration     | Version:  2112                                  |
|   \\  /    A nd           | Website:  www.openfoam.com                      |
|    \\/     M anipulation  |                                                 |
\*---------------------------------------------------------------------------*/
FoamFile
{
    version     2.0;
    format      ascii;
    arch        "LSB;label=32;scalar=64";
    class       volScalarField;
    location    "2";
    object      p;
}
// * * * * * * * * * * * * * * * * * * * * * * * * * * * * * * * * * * * * * //

dimensions      [0 2 -2 0 0 0 0];

internalField   nonuniform List<scalar> 
1000
(
1.5263746
1.5097775
1.4940381
1.4785843
1.4631994
1.4478486
1.4325185
1.4171958
1.4018744
1.3865532
1.3712322
1.3559113
1.3405904
1.3252695
1.3099486
1.2946277
1.2793068
1.2639859
1.2486649
1.2333439
1.2180229
1.2027019
1.1873809
1.1720598
1.1567388
1.1414178
1.1260967
1.1107757
1.0954546
1.0801336
1.0648126
1.0494915
1.0341705
1.0188494
1.0035284
0.98820734
0.9728863
0.95756525
0.9422442
0.92692316
0.91160211
0.89628107
0.88096002
0.86563898
0.85031794
0.83499689
0.81967585
0.80435481
0.78903377
0.77371273
0.75839168
0.74307064
0.7277496
0.71242855
0.69710751
0.68178646
0.66646541
0.65114437
0.63582332
0.62050227
0.60518122
0.58986018
0.57453913
0.55921809
0.54389705
0.528576
0.51325496
0.49793392
0.48261288
0.46729184
0.45197081
0.43664977
0.42132873
0.40600768
0.39068664
0.3753656
0.36004455
0.34472351
0.32940246
0.31408141
0.29876036
0.28343931
0.26811826
0.25279721
0.23747616
0.2221551
0.20683405
0.191513
0.17619196
0.16087091
0.14554986
0.13022882
0.11490778
0.099586738
0.084265701
0.068944667
0.053623637
0.038302615
0.022981584
0.0076605311
1.526002
1.50942
1.4939619
1.4786202
1.4632298
1.4478617
1.4325257
1.4172009
1.4018776
1.386555
1.3712333
1.3559119
1.3405908
1.3252697
1.3099488
1.2946278
1.2793069
1.2639859
1.2486649
1.2333439
1.2180229
1.2027019
1.1873809
1.1720598
1.1567388
1.1414178
1.1260967
1.1107757
1.0954546
1.0801336
1.0648126
1.0494915
1.0341705
1.0188494
1.0035284
0.98820734
0.9728863
0.95756525
0.9422442
0.92692316
0.91160211
0.89628107
0.88096002
0.86563898
0.85031794
0.83499689
0.81967585
0.80435481
0.78903377
0.77371273
0.75839168
0.74307064
0.7277496
0.71242855
0.69710751
0.68178646
0.66646541
0.65114437
0.63582332
0.62050227
0.60518122
0.58986018
0.57453913
0.55921809
0.54389705
0.528576
0.51325496
0.49793392
0.48261288
0.46729184
0.45197081
0.43664977
0.42132873
0.40600768
0.39068664
0.3753656
0.36004455
0.34472351
0.32940246
0.31408141
0.29876036
0.28343931
0.26811826
0.25279721
0.23747616
0.2221551
0.20683405
0.191513
0.17619196
0.16087091
0.14554986
0.13022882
0.11490778
0.099586737
0.084265699
0.068944665
0.053623631
0.038302608
0.022981579
0.0076605297
1.52557
1.5089626
1.4938051
1.4786139
1.4632397
1.4478645
1.4325283
1.4172041
1.40188
1.3865566
1.3712342
1.3559125
1.3405912
1.32527
1.3099489
1.2946279
1.2793069
1.2639859
1.2486649
1.2333439
1.2180229
1.2027019
1.1873809
1.1720598
1.1567388
1.1414178
1.1260967
1.1107757
1.0954546
1.0801336
1.0648126
1.0494915
1.0341705
1.0188494
1.0035284
0.98820734
0.9728863
0.95756525
0.9422442
0.92692316
0.91160211
0.89628107
0.88096002
0.86563898
0.85031794
0.83499689
0.81967585
0.80435481
0.78903377
0.77371273
0.75839168
0.74307064
0.7277496
0.71242855
0.69710751
0.68178646
0.66646541
0.65114437
0.63582332
0.62050227
0.60518122
0.58986018
0.57453913
0.55921809
0.54389705
0.528576
0.51325496
0.49793392
0.48261288
0.46729184
0.45197081
0.43664977
0.42132873
0.40600768
0.39068664
0.3753656
0.36004455
0.34472351
0.32940246
0.31408141
0.29876036
0.28343931
0.26811826
0.25279721
0.23747616
0.2221551
0.20683405
0.191513
0.17619196
0.16087091
0.14554986
0.13022882
0.11490778
0.099586737
0.084265699
0.068944664
0.053623629
0.038302606
0.022981576
0.0076605232
1.5252801
1.5086352
1.493674
1.478596
1.4632419
1.447865
1.4325295
1.4172063
1.4018819
1.3865578
1.371235
1.3559131
1.3405915
1.3252702
1.3099491
1.294628
1.279307
1.263986
1.248665
1.233344
1.2180229
1.2027019
1.1873809
1.1720599
1.1567388
1.1414178
1.1260967
1.1107757
1.0954546
1.0801336
1.0648126
1.0494915
1.0341705
1.0188494
1.0035284
0.98820734
0.9728863
0.95756525
0.9422442
0.92692316
0.91160211
0.89628107
0.88096002
0.86563898
0.85031794
0.83499689
0.81967585
0.80435481
0.78903377
0.77371273
0.75839168
0.74307064
0.7277496
0.71242855
0.69710751
0.68178646
0.66646541
0.65114436
0.63582332
0.62050227
0.60518122
0.58986018
0.57453913
0.55921809
0.54389705
0.528576
0.51325496
0.49793392
0.48261288
0.46729185
0.45197081
0.43664977
0.42132873
0.40600768
0.39068664
0.3753656
0.36004455
0.34472351
0.32940246
0.31408141
0.29876036
0.28343931
0.26811826
0.25279721
0.23747616
0.2221551
0.20683405
0.191513
0.17619196
0.16087091
0.14554986
0.13022882
0.11490778
0.099586737
0.0842657
0.068944665
0.053623629
0.038302605
0.022981575
0.0076605214
1.5251498
1.5084787
1.4936043
1.4785821
1.4632408
1.4478645
1.4325298
1.4172073
1.4018828
1.3865584
1.3712355
1.3559134
1.3405917
1.3252703
1.3099491
1.2946281
1.279307
1.263986
1.248665
1.233344
1.2180229
1.2027019
1.1873809
1.1720599
1.1567388
1.1414178
1.1260967
1.1107757
1.0954546
1.0801336
1.0648126
1.0494915
1.0341705
1.0188494
1.0035284
0.98820734
0.9728863
0.95756525
0.9422442
0.92692316
0.91160211
0.89628107
0.88096002
0.86563898
0.85031794
0.83499689
0.81967585
0.80435481
0.78903377
0.77371273
0.75839168
0.74307064
0.7277496
0.71242855
0.69710751
0.68178646
0.66646541
0.65114436
0.63582332
0.62050227
0.60518122
0.58986018
0.57453913
0.55921809
0.54389705
0.52857601
0.51325496
0.49793392
0.48261288
0.46729185
0.45197081
0.43664977
0.42132873
0.40600768
0.39068664
0.3753656
0.36004455
0.34472351
0.32940246
0.31408141
0.29876036
0.28343931
0.26811826
0.25279721
0.23747616
0.2221551
0.20683405
0.191513
0.17619196
0.16087091
0.14554986
0.13022882
0.11490778
0.099586738
0.0842657
0.068944666
0.053623629
0.038302606
0.022981575
0.0076605207
1.5251498
1.5084787
1.4936043
1.4785822
1.4632408
1.4478644
1.4325297
1.4172072
1.4018828
1.3865584
1.3712354
1.3559133
1.3405917
1.3252703
1.3099491
1.2946281
1.279307
1.263986
1.248665
1.233344
1.218023
1.2027019
1.1873809
1.1720599
1.1567388
1.1414178
1.1260967
1.1107757
1.0954546
1.0801336
1.0648126
1.0494915
1.0341705
1.0188494
1.0035284
0.98820734
0.9728863
0.95756525
0.9422442
0.92692316
0.91160211
0.89628107
0.88096002
0.86563898
0.85031794
0.83499689
0.81967585
0.80435481
0.78903377
0.77371273
0.75839168
0.74307064
0.7277496
0.71242855
0.6971075
0.68178646
0.66646541
0.65114436
0.63582332
0.62050227
0.60518122
0.58986018
0.57453913
0.55921809
0.54389705
0.52857601
0.51325497
0.49793392
0.48261289
0.46729185
0.45197081
0.43664977
0.42132873
0.40600768
0.39068664
0.3753656
0.36004455
0.34472351
0.32940246
0.31408141
0.29876036
0.28343931
0.26811826
0.25279721
0.23747616
0.2221551
0.20683405
0.191513
0.17619196
0.16087091
0.14554986
0.13022882
0.11490778
0.099586738
0.084265701
0.068944667
0.05362363
0.038302607
0.022981575
0.0076605209
1.52528
1.5086353
1.4936741
1.478596
1.4632418
1.4478648
1.4325292
1.4172061
1.4018817
1.3865576
1.3712349
1.355913
1.3405915
1.3252702
1.309949
1.294628
1.279307
1.263986
1.248665
1.233344
1.218023
1.2027019
1.1873809
1.1720599
1.1567388
1.1414178
1.1260967
1.1107757
1.0954546
1.0801336
1.0648126
1.0494915
1.0341705
1.0188494
1.0035284
0.98820734
0.9728863
0.95756525
0.9422442
0.92692316
0.91160211
0.89628107
0.88096002
0.86563898
0.85031794
0.8349969
0.81967585
0.80435481
0.78903377
0.77371273
0.75839168
0.74307064
0.7277496
0.71242855
0.6971075
0.68178646
0.66646541
0.65114436
0.63582332
0.62050227
0.60518122
0.58986018
0.57453913
0.55921809
0.54389705
0.52857601
0.51325497
0.49793393
0.48261289
0.46729185
0.45197081
0.43664977
0.42132873
0.40600768
0.39068664
0.3753656
0.36004455
0.34472351
0.32940246
0.31408141
0.29876036
0.28343931
0.26811826
0.25279721
0.23747615
0.2221551
0.20683405
0.191513
0.17619196
0.16087091
0.14554986
0.13022882
0.11490778
0.099586739
0.084265702
0.068944668
0.053623632
0.038302608
0.022981577
0.007660522
1.52557
1.5089625
1.493805
1.4786138
1.4632395
1.4478643
1.432528
1.4172038
1.4018798
1.3865564
1.3712341
1.3559124
1.3405911
1.3252699
1.3099489
1.2946279
1.2793069
1.2639859
1.248665
1.233344
1.2180229
1.2027019
1.1873809
1.1720599
1.1567388
1.1414178
1.1260967
1.1107757
1.0954547
1.0801336
1.0648126
1.0494915
1.0341705
1.0188494
1.0035284
0.98820734
0.9728863
0.95756525
0.9422442
0.92692316
0.91160211
0.89628107
0.88096002
0.86563898
0.85031794
0.8349969
0.81967585
0.80435481
0.78903377
0.77371273
0.75839168
0.74307064
0.72774959
0.71242855
0.6971075
0.68178646
0.66646541
0.65114436
0.63582332
0.62050227
0.60518122
0.58986018
0.57453913
0.55921809
0.54389705
0.52857601
0.51325497
0.49793393
0.48261289
0.46729185
0.45197081
0.43664977
0.42132873
0.40600768
0.39068664
0.3753656
0.36004455
0.3447235
0.32940246
0.31408141
0.29876036
0.28343931
0.26811826
0.25279721
0.23747615
0.2221551
0.20683405
0.191513
0.17619196
0.16087091
0.14554986
0.13022882
0.11490778
0.09958674
0.084265703
0.068944669
0.053623633
0.03830261
0.022981579
0.0076605241
1.5260018
1.5094196
1.4939615
1.4786199
1.4632295
1.4478614
1.4325255
1.4172007
1.4018774
1.3865549
1.3712331
1.3559118
1.3405907
1.3252697
1.3099487
1.2946278
1.2793069
1.2639859
1.2486649
1.2333439
1.2180229
1.2027019
1.1873809
1.1720599
1.1567388
1.1414178
1.1260967
1.1107757
1.0954547
1.0801336
1.0648126
1.0494915
1.0341705
1.0188494
1.0035284
0.98820734
0.9728863
0.95756525
0.9422442
0.92692316
0.91160211
0.89628107
0.88096003
0.86563898
0.85031794
0.8349969
0.81967585
0.80435481
0.78903377
0.77371273
0.75839168
0.74307064
0.72774959
0.71242855
0.6971075
0.68178646
0.66646541
0.65114436
0.63582332
0.62050227
0.60518122
0.58986018
0.57453914
0.55921809
0.54389705
0.52857601
0.51325497
0.49793393
0.48261289
0.46729185
0.45197081
0.43664977
0.42132872
0.40600768
0.39068664
0.3753656
0.36004455
0.3447235
0.32940246
0.31408141
0.29876036
0.28343931
0.26811826
0.25279721
0.23747615
0.2221551
0.20683405
0.191513
0.17619196
0.16087091
0.14554986
0.13022882
0.11490778
0.099586741
0.084265705
0.068944671
0.053623637
0.038302612
0.022981582
0.0076605307
1.5263744
1.5097771
1.4940377
1.4785842
1.4631994
1.4478486
1.4325186
1.4171959
1.4018744
1.3865532
1.3712321
1.3559112
1.3405903
1.3252695
1.3099486
1.2946277
1.2793068
1.2639859
1.2486649
1.2333439
1.2180229
1.2027019
1.1873809
1.1720599
1.1567388
1.1414178
1.1260967
1.1107757
1.0954547
1.0801336
1.0648126
1.0494915
1.0341705
1.0188494
1.0035284
0.98820734
0.9728863
0.95756525
0.9422442
0.92692316
0.91160211
0.89628107
0.88096003
0.86563898
0.85031794
0.8349969
0.81967585
0.80435481
0.78903377
0.77371273
0.75839168
0.74307064
0.72774959
0.71242855
0.6971075
0.68178646
0.66646541
0.65114436
0.63582332
0.62050227
0.60518123
0.58986018
0.57453914
0.55921809
0.54389705
0.52857601
0.51325497
0.49793393
0.48261289
0.46729185
0.45197081
0.43664977
0.42132872
0.40600768
0.39068664
0.3753656
0.36004455
0.3447235
0.32940246
0.31408141
0.29876036
0.28343931
0.26811826
0.25279721
0.23747615
0.2221551
0.20683405
0.19151301
0.17619196
0.16087091
0.14554987
0.13022882
0.11490778
0.099586743
0.084265707
0.068944674
0.053623644
0.038302619
0.022981587
0.007660532
)
;

boundaryField
{
    top
    {
        type            zeroGradient;
    }
    inlet
    {
        type            fixedValue;
        value           uniform 1.5352;
    }
    outlet
    {
        type            fixedValue;
        value           uniform 0;
    }
    bottom
    {
        type            zeroGradient;
    }
    back
    {
        type            empty;
    }
    front
    {
        type            empty;
    }
}


// ************************************************************************* //
