/*--------------------------------*- C++ -*----------------------------------*\
| =========                 |                                                 |
| \\      /  F ield         | OpenFOAM: The Open Source CFD Toolbox           |
|  \\    /   O peration     | Version:  2112                                  |
|   \\  /    A nd           | Website:  www.openfoam.com                      |
|    \\/     M anipulation  |                                                 |
\*---------------------------------------------------------------------------*/
FoamFile
{
    version     2.0;
    format      ascii;
    arch        "LSB;label=32;scalar=64";
    class       surfaceScalarField;
    location    "2";
    object      phi;
}
// * * * * * * * * * * * * * * * * * * * * * * * * * * * * * * * * * * * * * //

dimensions      [0 3 -1 0 0 0 0];

oriented        oriented;

internalField   nonuniform List<scalar> 
1890
(
0.0012101083
6.933411e-06
0.0011958977
1.4211393e-05
0.0011858644
1.0033714e-05
0.0011811962
4.6680488e-06
0.001179264
1.9317668e-06
0.0011784202
8.4338716e-07
0.0011780491
3.7078004e-07
0.0011778908
1.5800674e-07
0.0011778154
7.5249311e-08
0.0011777728
4.2515776e-08
0.0011777478
2.4901963e-08
0.0011777338
1.3941591e-08
0.0011777264
7.4241185e-09
0.0011777227
3.7303323e-09
0.001177721
1.7304007e-09
0.0011777204
7.2163698e-10
0.0011777201
2.5366608e-10
0.0011777201
5.697554e-11
0.0011777202
-1.1739488e-11
0.0011777202
-3.1612496e-11
0.0011777203
-3.1072076e-11
0.0011777203
-2.1732126e-11
0.0011777204
-1.3470799e-11
0.0011777204
-7.217119e-12
0.0011777204
-3.2873111e-12
0.0011777204
-6.4197937e-13
0.0011777204
2.0058944e-13
0.0011777204
1.0463381e-12
0.0011777204
6.9869011e-13
0.0011777204
9.3297084e-13
0.0011777204
3.1102614e-13
0.0011777204
3.9483353e-13
0.0011777204
3.5467392e-14
0.0011777204
2.4821717e-13
0.0011777204
6.7681037e-14
0.0011777204
4.2825019e-13
0.0011777204
4.0045137e-13
0.0011777204
8.5271679e-13
0.0011777204
6.8348907e-13
0.0011777204
1.0854351e-12
0.0011777204
7.8074265e-13
0.0011777204
1.0576442e-12
0.0011777204
5.8334367e-13
0.0011777204
6.2703206e-13
0.0011777204
1.5607845e-13
0.0011777204
9.3681397e-14
0.0011777204
-4.9237632e-13
0.0011777204
-5.244786e-13
0.0011777204
-9.845394e-13
0.0011777204
-7.7471686e-13
0.0011777204
-1.1848959e-12
0.0011777204
-8.1902276e-13
0.0011777204
-1.0105284e-12
0.0011777204
-5.1570974e-13
0.0011777204
-5.29571e-13
0.0011777204
-5.3044171e-14
0.0011777204
8.0696843e-14
0.0011777204
6.7789167e-13
0.0011777204
6.9404785e-13
0.0011777204
1.1985035e-12
0.0011777204
1.0486823e-12
0.0011777204
1.5375514e-12
0.0011777204
1.1692387e-12
0.0011777204
1.4783339e-12
0.0011777204
9.8851364e-13
0.0011777204
1.1582463e-12
0.0011777204
5.5009238e-13
0.0011777204
5.1402828e-13
0.0011777204
-3.4596325e-14
0.0011777204
-1.6402355e-13
0.0011777204
-8.383289e-13
0.0011777204
-8.639659e-13
0.0011777204
-1.4797769e-12
0.0011777204
-1.3276001e-12
0.0011777204
-1.9142781e-12
0.0011777204
-1.6376862e-12
0.0011777204
-2.0536714e-12
0.0011777204
-1.596637e-12
0.0011777204
-1.8840815e-12
0.0011777204
-1.3262508e-12
0.0011777204
-1.4209516e-12
0.0011777204
-7.57679e-13
0.0011777204
-7.178848e-13
0.0011777204
-1.0877037e-13
0.0011777204
1.7516201e-13
0.0011777204
9.5800013e-13
0.0011777204
1.0897901e-12
0.0011777204
1.8421356e-12
0.0011777204
1.7746536e-12
0.0011777204
2.2728834e-12
0.0011777204
1.5982212e-12
0.0011777204
4.4600094e-13
0.0011777204
-2.3317354e-12
0.0011777204
-9.9754151e-12
0.0011777205
-3.3236222e-11
0.0011777205
-7.7694497e-11
0.0011777207
-1.7410004e-10
0.0011777213
-5.5655413e-10
0.001177722
-7.1591724e-10
-2.9052875e-11
0.0023380686
7.609101e-06
0.0023339616
1.831926e-05
0.0023289344
1.5061212e-05
0.0023253572
8.2450613e-06
0.0023234306
3.8579679e-06
0.0023224956
1.7779833e-06
0.002322055
8.1108344e-07
0.0023218457
3.6699529e-07
0.0023217383
1.8249775e-07
0.0023216761
1.0465054e-07
0.0023216376
6.339591e-08
0.0023216137
3.7757657e-08
0.0023215995
2.1723692e-08
0.0023215912
1.1999703e-08
0.0023215867
6.3286723e-09
0.0023215843
3.1822304e-09
0.0023215831
1.5249063e-09
0.0023215825
6.8999064e-10
0.0023215822
2.8978138e-10
0.0023215821
1.0594267e-10
0.0023215821
2.891458e-11
0.0023215821
2.5238337e-13
0.0023215821
-6.9360278e-12
0.0023215821
-7.104195e-12
0.0023215821
-4.8422145e-12
0.0023215821
-3.0827524e-12
0.0023215821
-1.2306335e-12
0.0023215821
-7.2202221e-13
0.0023215821
-1.7891449e-14
0.0023215821
-2.6188149e-13
0.0023215821
-6.6109387e-14
0.0023215821
-3.9811731e-13
0.0023215821
-1.7683358e-13
0.0023215821
-1.9967632e-13
0.0023215822
5.7920583e-14
0.0023215822
2.838281e-13
0.0023215822
7.7000629e-13
0.0023215822
8.8014965e-13
0.0023215822
1.3467369e-12
0.0023215822
1.1715564e-12
0.0023215822
1.5249993e-12
0.0023215822
1.0894822e-12
0.0023215822
1.181804e-12
0.0023215821
5.3141821e-13
0.0023215822
4.3024335e-13
0.0023215821
-1.3657618e-13
0.0023215822
-5.0648768e-13
0.0023215821
-1.0929897e-12
0.0023215822
-1.0729124e-12
0.0023215822
-1.5598151e-12
0.0023215822
-1.287798e-12
0.0023215822
-1.5959565e-12
0.0023215822
-1.0481276e-12
0.0023215822
-1.0964737e-12
0.0023215822
-4.3256121e-13
0.0023215822
-2.9926335e-13
0.0023215822
3.0182049e-13
0.0023215822
7.0951855e-13
0.0023215822
1.2943389e-12
0.0023215822
1.3135365e-12
0.0023215822
1.9216267e-12
0.0023215822
1.7076298e-12
0.0023215822
2.1242826e-12
0.0023215822
1.645266e-12
0.0023215822
1.878574e-12
0.0023215821
1.2253051e-12
0.0023215821
1.2237223e-12
0.0023215821
4.4302962e-13
0.0023215821
2.6582897e-13
0.0023215821
-3.6828878e-13
0.0023215821
-8.0666772e-13
0.0023215821
-1.5037933e-12
0.0023215822
-1.5705001e-12
0.0023215822
-2.2711131e-12
0.0023215822
-2.1593238e-12
0.0023215822
-2.7409735e-12
0.0023215822
-2.3895174e-12
0.0023215822
-2.7445728e-12
0.0023215822
-2.2214156e-12
0.0023215822
-2.4007145e-12
0.0023215822
-1.6759048e-12
0.0023215822
-1.6428838e-12
0.0023215822
-8.3478232e-13
0.0023215822
-6.0956919e-13
0.0023215822
1.8096461e-13
0.0023215822
7.8739096e-13
0.0023215822
1.5935438e-12
0.0023215822
1.6700031e-12
0.0023215822
2.0364857e-12
0.0023215822
9.8105376e-13
0.0023215822
-9.8387924e-13
0.0023215822
-6.5225949e-12
0.0023215822
-1.6710069e-11
0.0023215822
-4.0446623e-11
0.0023215823
-9.4937405e-11
0.0023215824
-1.9996997e-10
0.0023215826
-3.8828367e-10
0.002321583
-9.7895999e-10
0.0023215835
-1.1509366e-09
-9.5935686e-11
0.0027959089
4.9610512e-06
0.0028005709
1.3658125e-05
0.0028030969
1.2535559e-05
0.0028037522
7.5896519e-06
0.0028037817
3.8280576e-06
0.0028037259
1.8335076e-06
0.0028036787
8.5797288e-07
0.002803646
3.9950789e-07
0.0028036261
2.0225266e-07
0.0028036137
1.1698044e-07
0.0028036048
7.2281307e-08
0.0028035981
4.4447804e-08
0.0028035934
2.6524546e-08
0.0028035902
1.5244665e-08
0.0028035882
8.4086507e-09
0.002803587
4.4544952e-09
0.0028035863
2.2701278e-09
0.0028035859
1.1117746e-09
0.0028035857
5.1929704e-10
0.0028035857
2.2802196e-10
0.0028035856
9.0660302e-11
0.0028035856
3.0222495e-11
0.0028035856
5.5710992e-12
0.0028035856
-2.5489128e-12
0.0028035857
-4.5597145e-12
0.0028035857
-4.0587356e-12
0.0028035857
-3.2381832e-12
0.0028035857
-2.1839217e-12
0.0028035857
-1.7636349e-12
0.0028035857
-1.2872739e-12
0.0028035857
-1.1233037e-12
0.0028035857
-9.6421925e-13
0.0028035857
-6.3434245e-13
0.0028035857
-5.0587497e-13
0.0028035857
-2.9483716e-14
0.0028035857
1.8548309e-13
0.0028035857
7.4577123e-13
0.0028035857
9.8009916e-13
0.0028035857
1.1817813e-12
0.0028035857
1.3877096e-12
0.0028035857
1.2336011e-12
0.0028035857
1.2427941e-12
0.0028035857
8.5446269e-13
0.0028035857
6.3855097e-13
0.0028035857
1.8740109e-13
0.0028035857
-1.8617542e-13
0.0028035857
-5.2564086e-13
0.0028035857
-1.0040369e-12
0.0028035857
-1.2641114e-12
0.0028035857
-1.2634313e-12
0.0028035857
-1.4557504e-12
0.0028035857
-1.2009308e-12
0.0028035857
-1.1805347e-12
0.0028035857
-7.5022848e-13
0.0028035857
-5.3025345e-13
0.0028035857
-6.2904208e-14
0.0028035857
2.9977021e-13
0.0028035857
6.5524258e-13
0.0028035857
1.1374119e-12
0.0028035857
1.4731745e-12
0.0028035857
1.5204292e-12
0.0028035857
1.824926e-12
0.0028035857
1.6465243e-12
0.0028035857
1.7799514e-12
0.0028035857
1.411357e-12
0.0028035857
1.3592819e-12
0.0028035857
8.5559364e-13
0.0028035857
6.1443879e-13
0.0028035857
1.1041991e-13
0.0028035857
-2.8430236e-13
0.0028035857
-7.0339277e-13
0.0028035857
-1.1741771e-12
0.0028035857
-1.6471184e-12
0.0028035857
-1.750437e-12
0.0028035857
-2.198844e-12
0.0028035857
-2.1315788e-12
0.0028035857
-2.4310368e-12
0.0028035857
-2.1801402e-12
0.0028035857
-2.3109148e-12
0.0028035857
-1.9031992e-12
0.0028035857
-1.861423e-12
0.0028035857
-1.3411536e-12
0.0028035857
-1.1332851e-12
0.0028035857
-5.5585489e-13
0.0028035857
-8.1303695e-14
0.0028035857
4.4297177e-13
0.0028035857
1.0164128e-12
0.0028035857
1.3349165e-12
0.0028035857
1.0011449e-12
0.0028035857
-3.1575288e-13
0.0028035857
-3.7447751e-12
0.0028035857
-1.0477816e-11
0.0028035857
-2.4491849e-11
0.0028035857
-5.2236728e-11
0.0028035857
-1.1263771e-10
0.0028035858
-2.2549771e-10
0.0028035858
-4.0228198e-10
0.0028035857
-8.8496855e-10
0.0028035856
-1.0690971e-09
-1.5061469e-10
0.0029613638
2.2246841e-06
0.0029682922
6.7306285e-06
0.002974199
6.6290357e-06
0.0029775215
4.2670573e-06
0.002979096
2.253253e-06
0.0029798214
1.1077603e-06
0.0029801517
5.2746596e-07
0.0029803014
2.4969563e-07
0.002980376
1.2748856e-07
0.002980419
7.3922848e-08
0.0029804453
4.6066873e-08
0.002980461
2.8772567e-08
0.0029804701
1.748518e-08
0.0029804752
1.0242385e-08
0.0029804779
5.7643122e-09
0.0029804793
3.1168135e-09
0.0029804801
1.6230565e-09
0.0029804804
8.11155e-10
0.0029804806
3.879891e-10
0.0029804807
1.7304225e-10
0.0029804808
7.070507e-11
0.0029804808
2.2465373e-11
0.0029804808
3.6140225e-12
0.0029804809
-4.3849729e-12
0.0029804809
-5.4189629e-12
0.0029804809
-5.9931945e-12
0.0029804809
-4.2332208e-12
0.0029804809
-4.0155423e-12
0.0029804809
-2.6164499e-12
0.0029804809
-2.4917553e-12
0.0029804809
-1.5052755e-12
0.0029804809
-1.5560456e-12
0.0029804809
-7.020806e-13
0.0029804809
-7.5135468e-13
0.0029804809
1.0360831e-13
0.0029804809
5.1023114e-14
0.0029804809
8.5930594e-13
0.0029804809
6.9506334e-13
0.0029804809
1.2974162e-12
0.0029804809
8.587222e-13
0.0029804809
1.2826484e-12
0.0029804809
5.3707406e-13
0.0029804809
9.4328968e-13
0.0029804809
4.3398497e-14
0.0029804809
3.2229744e-13
0.0029804809
-4.5116232e-13
0.0029804809
-2.4182709e-13
0.0029804809
-1.0349351e-12
0.0029804809
-7.1175057e-13
0.0029804809
-1.2617441e-12
0.0029804809
-5.8472728e-13
0.0029804809
-1.1706713e-12
0.0029804809
-3.4177465e-13
0.0029804809
-7.906393e-13
0.0029804809
1.2501024e-13
0.0029804809
-2.3202486e-13
0.0029804809
4.7977599e-13
0.0029804809
3.0449189e-13
0.0029804809
1.0844086e-12
0.0029804809
7.8082431e-13
0.0029804809
1.3808364e-12
0.0029804809
7.6089713e-13
0.0029804809
1.4997997e-12
0.0029804809
6.5941154e-13
0.0029804809
1.2963792e-12
0.0029804809
3.9240414e-13
0.0029804809
9.3773771e-13
0.0029804809
-4.9698927e-14
0.0029804809
3.7524997e-13
0.0029804809
-3.9265312e-13
0.0029804809
-1.9172996e-13
0.0029804809
-1.0392704e-12
0.0029804809
-7.1072363e-13
0.0029804809
-1.4920563e-12
0.0029804809
-8.7373753e-13
0.0029804809
-1.7722835e-12
0.0029804809
-1.0265706e-12
0.0029804809
-1.8311076e-12
0.0029804809
-9.5786863e-13
0.0029804809
-1.6860012e-12
0.0029804809
-7.8238818e-13
0.0029804809
-1.3742433e-12
0.0029804809
-4.3306149e-13
0.0029804809
-8.7394785e-13
0.0029804809
-9.1576687e-14
0.0029804809
-1.5636947e-13
0.0029804809
7.2460557e-13
0.0029804809
4.5871039e-13
0.0029804809
7.1962648e-13
0.0029804809
-7.0061718e-13
0.0029804809
-2.3128794e-12
0.0029804809
-7.7632794e-12
0.0029804809
-1.5658563e-11
0.0029804809
-3.4647109e-11
0.0029804808
-7.0321121e-11
0.0029804808
-1.4025806e-10
0.0029804806
-2.4108789e-10
0.0029804802
-4.9682811e-10
0.0029804797
-6.0448523e-10
-1.0382073e-10
0.0030120558
-1.4035045e-10
0.0030187873
-7.655347e-11
0.003025417
-2.462127e-10
0.0030296844
-4.949237e-10
0.003031938
-5.5935941e-10
0.003033046
-5.129675e-10
0.0030335736
-3.8120828e-10
0.0030338235
-2.6270669e-10
0.0030339511
-1.8500843e-10
0.0030340252
-1.4162685e-10
0.0030340714
-1.1358063e-10
0.0030341004
-9.5675507e-11
0.0030341181
-8.3167969e-11
0.0030341285
-7.2100138e-11
0.0030341344
-6.321156e-11
0.0030341377
-5.4437967e-11
0.0030341395
-4.7780357e-11
0.0030341404
-4.0091997e-11
0.0030341409
-3.4466447e-11
0.0030341411
-2.7908007e-11
0.0030341413
-2.3531031e-11
0.0030341413
-1.8251113e-11
0.0030341414
-1.5163034e-11
0.0030341414
-1.1555558e-11
0.0030341414
-9.7093148e-12
0.0030341414
-7.1369722e-12
0.0030341415
-6.2746879e-12
0.0030341415
-4.3617319e-12
0.0030341415
-4.0502348e-12
0.0030341415
-2.4503032e-12
0.0030341415
-2.4349811e-12
0.0030341415
-1.1278064e-12
0.0030341415
-1.3067151e-12
0.0030341415
-7.9174403e-14
0.0030341415
-3.5312258e-13
0.0030341415
6.3757371e-13
0.0030341415
2.0301244e-13
0.0030341415
1.092239e-12
0.0030341415
4.5716306e-13
0.0030341415
1.0776138e-12
0.0030341415
2.3949925e-13
0.0030341415
8.1572783e-13
0.0030341415
-5.9948696e-14
0.0030341415
4.2609409e-13
0.0030341415
-4.568313e-13
0.0030341415
1.3642802e-13
0.0030341415
-6.6314494e-13
0.0030341415
-1.002754e-13
0.0030341415
-8.4873221e-13
0.0030341415
-7.1897082e-14
0.0030341415
-6.6958737e-13
0.0030341415
8.2198632e-14
0.0030341415
-5.1454914e-13
0.0030341415
3.2945413e-13
0.0030341415
-2.425083e-13
0.0030341415
4.9237101e-13
0.0030341415
-1.3728604e-13
0.0030341415
6.5213631e-13
0.0030341415
5.5400533e-14
0.0030341415
7.4831084e-13
0.0030341415
1.7890165e-14
0.0030341415
7.0242871e-13
0.0030341415
-1.7295293e-14
0.0030341415
5.9864973e-13
0.0030341415
-1.707438e-13
0.0030341415
5.2194783e-13
0.0030341415
-2.492921e-13
0.0030341415
3.9243819e-13
0.0030341415
-3.6462356e-13
0.0030341415
3.4069922e-13
0.0030341415
-4.2241772e-13
0.0030341415
1.4655279e-13
0.0030341415
-6.0126274e-13
0.0030341415
9.9808924e-14
0.0030341415
-5.8893578e-13
0.0030341415
3.2901204e-14
0.0030341415
-6.7822126e-13
0.0030341415
1.143549e-14
0.0030341415
-6.5497575e-13
0.0030341415
-4.3680092e-14
0.0030341415
-7.3907844e-13
0.0030341415
-5.6070248e-14
0.0030341415
-7.2619097e-13
0.0030341415
-9.6637762e-14
0.0030341415
-7.6211686e-13
0.0030341415
9.2307973e-14
0.0030341415
-3.3775482e-13
0.0030341415
5.9857735e-13
0.0030341415
1.8841456e-13
0.0030341415
1.191355e-12
0.0030341415
7.5237084e-13
0.0030341415
2.1330604e-12
0.0030341414
2.2063159e-12
0.0030341414
4.0703437e-12
0.0030341413
3.8981429e-12
0.0030341412
4.9101742e-12
0.0030341409
4.359606e-12
0.0030341404
3.543124e-12
0.0030341398
1.7542352e-12
9.611343e-13
0.003012056
-2.2246303e-06
0.0030187875
-6.7306096e-06
0.0030254172
-6.6295688e-06
0.0030296847
-4.2680028e-06
0.0030319382
-2.2541776e-06
0.003033046
-1.1085293e-06
0.0030335736
-5.2806323e-07
0.0030338234
-2.5014346e-07
0.003033951
-1.2781799e-07
0.0030340251
-7.4173121e-08
0.0030340714
-4.6265873e-08
0.0030341004
-2.8938593e-08
0.003034118
-1.7627542e-08
0.0030341285
-1.036579e-08
0.0030341344
-5.8725439e-09
0.0030341377
-3.2111397e-09
0.0030341395
-1.7055086e-09
0.0030341404
-8.8149909e-10
0.0030341409
-4.4809551e-10
0.0030341411
-2.2284584e-10
0.0030341413
-1.1218911e-10
0.0030341413
-5.5628197e-11
0.0030341414
-3.066433e-11
0.0030341414
-1.6723043e-11
0.0030341414
-1.1857036e-11
0.0030341414
-7.9023018e-12
0.0030341415
-6.7249263e-12
0.0030341415
-4.8147847e-12
0.0030341415
-4.2638988e-12
0.0030341415
-2.6986657e-12
0.0030341415
-2.4438892e-12
0.0030341415
-1.2190408e-12
0.0030341415
-1.1098972e-12
0.0030341415
-3.684405e-14
0.0030341415
-2.4046734e-13
0.0030341415
5.2837402e-13
0.0030341415
1.3277045e-13
0.0030341415
7.7094165e-13
0.0030341415
2.0040992e-13
0.0030341415
5.4618137e-13
0.0030341415
-1.0108724e-13
0.0030341415
3.847606e-13
0.0030341415
-3.5411336e-13
0.0030341415
1.4116142e-13
0.0030341415
-4.544134e-13
0.0030341415
1.8773837e-13
0.0030341415
-3.3028643e-13
0.0030341415
2.0922867e-13
0.0030341415
-2.4096305e-13
0.0030341415
4.2788821e-13
0.0030341415
-1.8620255e-14
0.0030341415
5.719248e-13
0.0030341415
2.0945912e-14
0.0030341415
6.7530715e-13
0.0030341415
1.893734e-14
0.0030341415
4.3964291e-13
0.0030341415
-1.8498528e-13
0.0030341415
2.4522769e-13
0.0030341415
-3.8539795e-13
0.0030341415
6.3321618e-15
0.0030341415
-5.9245318e-13
0.0030341415
-1.1564065e-13
0.0030341415
-7.7825469e-13
0.0030341415
-1.8906015e-13
0.0030341415
-8.1800073e-13
0.0030341415
-3.1522705e-14
0.0030341415
-6.1465781e-13
0.0030341415
1.1437077e-13
0.0030341415
-3.1135773e-13
0.0030341415
5.0024686e-13
0.0030341415
3.5660325e-14
0.0030341415
6.5038567e-13
0.0030341415
2.1618058e-13
0.0030341415
9.179628e-13
0.0030341415
4.118782e-13
0.0030341415
1.0036245e-12
0.0030341415
4.025027e-13
0.0030341415
1.0552452e-12
0.0030341415
3.2145285e-13
0.0030341415
7.9351547e-13
0.0030341415
7.3277606e-14
0.0030341415
4.9644334e-13
0.0030341415
-3.0395272e-13
0.0030341415
-1.912016e-14
0.0030341415
-7.519347e-13
0.0030341415
-2.618154e-13
0.0030341415
-6.9134961e-13
0.0030341415
1.955583e-13
0.0030341415
3.9809308e-13
0.0030341415
2.7225038e-12
0.0030341415
4.3285589e-12
0.0030341415
1.1382829e-11
0.0030341414
2.0367309e-11
0.0030341414
4.1720542e-11
0.0030341413
7.7833089e-11
0.0030341412
1.4943836e-10
0.0030341409
2.495157e-10
0.0030341404
5.0273373e-10
0.0030341398
6.0780161e-10
1.0561157e-10
0.002961365
-4.9610964e-06
0.0029682936
-1.3658201e-05
0.0029742002
-1.2535632e-05
0.0029775221
-7.5897895e-06
0.0029790961
-3.8283355e-06
0.0029798213
-1.8338481e-06
0.0029801515
-8.5829585e-07
0.0029803011
-3.9976535e-07
0.0029803758
-2.0245916e-07
0.0029804189
-1.1714167e-07
0.0029804451
-7.2408688e-08
0.0029804609
-4.4549997e-08
0.00298047
-2.6608164e-08
0.0029804751
-1.531763e-08
0.0029804779
-8.4711327e-09
0.0029804793
-4.5119912e-09
0.00298048
-2.3193752e-09
0.0029804804
-1.1573367e-09
0.0029804806
-5.5695275e-10
0.0029804807
-2.6258595e-10
0.0029804808
-1.1801096e-10
0.0029804808
-5.48972e-11
0.0029804808
-2.4034995e-11
0.0029804808
-1.4196237e-11
0.0029804809
-7.5608231e-12
0.0029804809
-7.421544e-12
0.0029804809
-4.9865233e-12
0.0029804809
-5.4535043e-12
0.0029804809
-3.2568345e-12
0.0029804809
-3.6195189e-12
0.0029804809
-1.5255465e-12
0.0029804809
-2.0955578e-12
0.0029804809
-1.070463e-13
0.0029804809
-9.5315645e-13
0.0029804809
6.3068332e-13
0.0029804809
-6.1020662e-13
0.0029804809
8.7399191e-13
0.0029804809
-5.3999413e-13
0.0029804809
6.6645367e-13
0.0029804809
-8.5640217e-13
0.0029804809
4.6979466e-13
0.0029804809
-9.6580692e-13
0.0029804809
3.1669306e-13
0.0029804809
-9.6062718e-13
0.0029804809
5.2098788e-13
0.0029804809
-6.1174832e-13
0.0029804809
8.4834696e-13
0.0029804809
-3.4930234e-13
0.0029804809
1.2425513e-12
0.0029804809
-5.8542922e-15
0.0029804809
1.4199728e-12
0.0029804809
7.4353964e-14
0.0029804809
1.3702904e-12
0.0029804809
1.4520835e-14
0.0029804809
9.6272024e-13
0.0029804809
-4.8169013e-13
0.0029804809
5.5111542e-13
0.0029804809
-9.8724062e-13
0.0029804809
5.8286465e-14
0.0029804809
-1.523854e-12
0.0029804809
-2.4337648e-13
0.0029804809
-1.7447631e-12
0.0029804809
-4.6916987e-13
0.0029804809
-1.7656079e-12
0.0029804809
-3.2270601e-13
0.0029804809
-1.3776302e-12
0.0029804809
3.9012987e-14
0.0029804809
-9.223347e-13
0.0029804809
7.122015e-13
0.0029804809
-2.8212181e-13
0.0029804809
1.3218507e-12
0.0029804809
1.6638937e-13
0.0029804809
1.8783667e-12
0.0029804809
6.7191499e-13
0.0029804809
2.1334688e-12
0.0029804809
8.7379899e-13
0.0029804809
2.2046596e-12
0.0029804809
9.1851071e-13
0.0029804809
1.9313154e-12
0.0029804809
5.8018033e-13
0.0029804809
1.5490033e-12
0.0029804809
8.1479019e-14
0.0029804809
8.5691652e-13
0.0029804809
-7.9615276e-13
0.0029804809
1.6066808e-13
0.0029804809
-1.4603441e-12
0.0029804809
-2.0221542e-13
0.0029804809
-1.2692746e-12
0.0029804809
1.1067589e-12
0.0029804809
1.2957687e-12
0.0029804809
7.0870189e-12
0.0029804809
1.2388084e-11
0.0029804809
2.9600355e-11
0.0029804809
5.6258287e-11
0.0029804808
1.1993388e-10
0.0029804808
2.3200528e-10
0.0029804806
4.092474e-10
0.0029804802
8.895248e-10
0.0029804797
1.0713832e-09
1.5197017e-10
0.0027959096
-7.6090895e-06
0.0028005715
-1.8319181e-05
0.0028030973
-1.5060947e-05
0.0028037523
-8.2447161e-06
0.0028037816
-3.8577588e-06
0.0028037255
-1.7779782e-06
0.0028036782
-8.1123076e-07
0.0028036456
-3.6718985e-07
0.0028036257
-1.8267519e-07
0.0028036134
-1.0478776e-07
0.0028036046
-6.349419e-08
0.002803598
-3.7825796e-08
0.0028035933
-2.1770395e-08
0.0028035901
-1.2033687e-08
0.0028035881
-6.3543693e-09
0.0028035869
-3.2041098e-09
0.0028035863
-1.5434562e-09
0.0028035859
-7.0739854e-10
0.0028035857
-3.0435177e-10
0.0028035856
-1.2023428e-10
0.0028035856
-4.1287544e-11
0.0028035856
-1.1577467e-11
0.0028035856
-2.1795245e-12
0.0028035856
-9.8858558e-13
0.0028035857
-1.9015892e-12
0.0028035857
-3.1612822e-12
0.0028035857
-3.7962383e-12
0.0028035857
-3.7312703e-12
0.0028035857
-3.2683799e-12
0.0028035857
-2.6774435e-12
0.0028035857
-1.9606272e-12
0.0028035857
-1.2936302e-12
0.0028035857
-6.8249727e-13
0.0028035857
-3.996469e-13
0.0028035857
-1.5181201e-13
0.0028035857
-1.0604191e-13
0.0028035857
-4.1809601e-14
0.0028035857
-2.4946702e-13
0.0028035857
-3.7739604e-13
0.0028035857
-4.990513e-13
0.0028035857
-4.9582958e-13
0.0028035857
-5.930213e-13
0.0028035857
-5.6553023e-13
0.0028035857
-3.6798313e-13
0.0028035857
-1.216615e-13
0.0028035857
6.0277613e-14
0.0028035857
3.1356856e-13
0.0028035857
5.72542e-13
0.0028035857
8.579844e-13
0.0028035857
8.9679854e-13
0.0028035857
9.9872634e-13
0.0028035857
1.0230119e-12
0.0028035857
9.1757297e-13
0.0028035857
7.1881591e-13
0.0028035857
4.1094629e-13
0.0028035857
1.3520849e-13
0.0028035857
-1.6554671e-13
0.0028035857
-5.6052187e-13
0.0028035857
-8.6135542e-13
0.0028035857
-1.101156e-12
0.0028035857
-1.2431512e-12
0.0028035857
-1.4368405e-12
0.0028035857
-1.4960199e-12
0.0028035857
-1.3628982e-12
0.0028035857
-1.2156469e-12
0.0028035857
-9.7408478e-13
0.0028035857
-7.4494002e-13
0.0028035857
-3.3452511e-13
0.0028035857
1.0535871e-13
0.0028035857
4.2789456e-13
0.0028035857
8.0358451e-13
0.0028035857
1.1150449e-12
0.0028035857
1.526157e-12
0.0028035857
1.6906639e-12
0.0028035857
1.8443207e-12
0.0028035857
1.9794389e-12
0.0028035857
2.0085146e-12
0.0028035857
1.9153647e-12
0.0028035857
1.7016037e-12
0.0028035857
1.5507636e-12
0.0028035857
1.2602905e-12
0.0028035857
8.66014e-13
0.0028035857
4.2178485e-13
0.0028035857
-4.4447406e-14
0.0028035857
-4.6553136e-13
0.0028035857
-9.4413919e-13
0.0028035857
-1.2057825e-12
0.0028035857
-1.1967017e-12
0.0028035857
-6.4819753e-13
0.0028035857
4.0454966e-13
0.0028035857
3.0497085e-12
0.0028035857
8.3556395e-12
0.0028035857
1.9453368e-11
0.0028035857
4.2779482e-11
0.0028035858
9.8913696e-11
0.0028035858
2.0469355e-10
0.0028035858
3.9254857e-10
0.0028035857
9.8141253e-10
0.0028035856
1.1521325e-09
9.6608013e-11
0.002338068
-6.9332545e-06
0.0023339608
-1.4211119e-05
0.0023289336
-1.0033323e-05
0.0023253567
-4.6677656e-06
0.0023234302
-1.93164e-06
0.0023224953
-8.4345911e-07
0.0023220547
-3.7099414e-07
0.0023218455
-1.5826775e-07
0.0023217381
-7.5467108e-08
0.0023216759
-4.2672604e-08
0.0023216374
-2.5004125e-08
0.0023216136
-1.4002917e-08
0.0023215994
-7.4566438e-09
0.0023215912
-3.7429833e-09
0.0023215866
-1.7324415e-09
0.0023215842
-7.165943e-10
0.002321583
-2.4678727e-10
0.0023215825
-4.8923625e-11
0.0023215822
2.1263551e-11
0.0023215821
3.8615538e-11
0.0023215821
3.5130608e-11
0.0023215821
2.6036981e-11
0.0023215821
1.6460165e-11
0.0023215821
9.7930547e-12
0.0023215821
3.928711e-12
0.0023215821
1.7124676e-12
0.0023215821
-1.0012173e-12
0.0023215821
-5.9540299e-13
0.0023215821
-1.7839439e-12
0.0023215821
-6.8990281e-13
0.0023215821
-1.3159832e-12
0.0023215821
-1.1926724e-14
0.0023215821
-7.4445922e-13
0.0023215822
3.8986236e-13
0.0023215821
-5.2693319e-13
0.0023215822
4.9027477e-13
0.0023215822
-6.141862e-13
0.0023215822
2.2300729e-13
0.0023215822
-9.0453133e-13
0.0023215822
1.4569349e-14
0.0023215822
-1.0889614e-12
0.0023215822
-1.1824469e-13
0.0023215822
-1.0452312e-12
0.0023215822
1.2461673e-13
0.0023215821
-7.1955164e-13
0.0023215822
4.8872032e-13
0.0023215821
-2.6630773e-13
0.0023215822
9.9466286e-13
0.0023215821
1.7187966e-13
0.0023215822
1.2851989e-12
0.0023215822
3.8702081e-13
0.0023215822
1.3812537e-12
0.0023215822
3.1843505e-13
0.0023215822
1.1008972e-12
0.0023215822
-7.5390628e-14
0.0023215822
6.6424892e-13
0.0023215822
-6.2082957e-13
0.0023215822
4.4384262e-14
0.0023215822
-1.1953348e-12
0.0023215822
-3.9422882e-13
0.0023215822
-1.6008156e-12
0.0023215822
-7.2676218e-13
0.0023215822
-1.7353203e-12
0.0023215822
-6.5869044e-13
0.0023215822
-1.5596572e-12
0.0023215822
-3.7878683e-13
0.0023215821
-1.1293529e-12
0.0023215822
2.2927216e-13
0.0023215821
-4.9016035e-13
0.0023215822
8.3059256e-13
0.0023215821
1.5069727e-13
0.0023215822
1.5028848e-12
0.0023215821
7.2971317e-13
0.0023215822
1.9033666e-12
0.0023215821
1.0864779e-12
0.0023215822
2.1471708e-12
0.0023215822
1.1933259e-12
0.0023215822
2.0396389e-12
0.0023215822
9.8901845e-13
0.0023215822
1.7616987e-12
0.0023215822
5.5922195e-13
0.0023215822
1.1746341e-12
0.0023215822
-1.0406884e-13
0.0023215822
5.1155342e-13
0.0023215822
-8.7035174e-13
0.0023215822
-2.8263971e-13
0.0023215822
-1.5804823e-12
0.0023215822
-7.7903946e-13
0.0023215822
-1.9130399e-12
0.0023215822
-8.5050124e-13
0.0023215822
-1.4711698e-12
0.0023215822
9.5090486e-13
0.0023215822
2.0636327e-12
0.0023215822
1.0903861e-11
0.0023215823
3.4044694e-11
0.0023215824
8.0110269e-11
0.0023215826
1.754961e-10
0.002321583
5.5665376e-10
0.0023215835
7.1574599e-10
2.9167691e-11
0.0012101082
0.0011958974
0.0011858642
0.0011811963
0.0011792644
0.0011784207
0.0011780495
0.0011778911
0.0011778155
0.0011777728
0.0011777478
0.0011777338
0.0011777264
0.0011777227
0.001177721
0.0011777203
0.0011777201
0.0011777201
0.0011777202
0.0011777202
0.0011777203
0.0011777203
0.0011777204
0.0011777204
0.0011777204
0.0011777204
0.0011777204
0.0011777204
0.0011777204
0.0011777204
0.0011777204
0.0011777204
0.0011777204
0.0011777204
0.0011777204
0.0011777204
0.0011777204
0.0011777204
0.0011777204
0.0011777204
0.0011777204
0.0011777204
0.0011777204
0.0011777204
0.0011777204
0.0011777204
0.0011777204
0.0011777204
0.0011777204
0.0011777204
0.0011777204
0.0011777204
0.0011777204
0.0011777204
0.0011777204
0.0011777204
0.0011777204
0.0011777204
0.0011777204
0.0011777204
0.0011777204
0.0011777204
0.0011777204
0.0011777204
0.0011777204
0.0011777204
0.0011777204
0.0011777204
0.0011777204
0.0011777204
0.0011777204
0.0011777204
0.0011777204
0.0011777204
0.0011777204
0.0011777204
0.0011777204
0.0011777204
0.0011777204
0.0011777204
0.0011777204
0.0011777204
0.0011777204
0.0011777204
0.0011777204
0.0011777204
0.0011777204
0.0011777204
0.0011777204
0.0011777204
0.0011777204
0.0011777204
0.0011777204
0.0011777204
0.0011777205
0.0011777205
0.0011777207
0.0011777213
0.001177722
)
;

boundaryField
{
    top
    {
        type            calculated;
        value           uniform 0;
    }
    inlet
    {
        type            calculated;
        value           nonuniform List<scalar> 10(-0.0012170409 -0.0023387435 -0.00279326 -0.0029586266 -0.0030098301 -0.0030098306 -0.0029586278 -0.0027932607 -0.0023387431 -0.0012170411);
    }
    outlet
    {
        type            calculated;
        value           nonuniform List<scalar> 10(0.001177722 0.0023215835 0.0028035857 0.0029804797 0.0030341397 0.0030341397 0.0029804797 0.0028035857 0.0023215835 0.001177722);
    }
    bottom
    {
        type            calculated;
        value           uniform 0;
    }
    back
    {
        type            empty;
        value           nonuniform List<scalar> 0();
    }
    front
    {
        type            empty;
        value           nonuniform List<scalar> 0();
    }
}


// ************************************************************************* //
