/*--------------------------------*- C++ -*----------------------------------*\
| =========                 |                                                 |
| \\      /  F ield         | OpenFOAM: The Open Source CFD Toolbox           |
|  \\    /   O peration     | Version:  2112                                  |
|   \\  /    A nd           | Website:  www.openfoam.com                      |
|    \\/     M anipulation  |                                                 |
\*---------------------------------------------------------------------------*/
FoamFile
{
    version     2.0;
    format      ascii;
    arch        "LSB;label=32;scalar=64";
    class       volVectorField;
    location    "2";
    object      U;
}
// * * * * * * * * * * * * * * * * * * * * * * * * * * * * * * * * * * * * * //

dimensions      [0 1 -1 0 0 0 0];

internalField   nonuniform List<vector> 
1000
(
(0.12150605 0.00043904402 0)
(0.12066971 0.00083297706 0)
(0.11909796 0.00056267418 0)
(0.11827346 0.00024276333 0)
(0.11798659 9.0215006e-05 0)
(0.11787542 3.7492804e-05 0)
(0.11781983 1.6467546e-05 0)
(0.1177947 6.9295847e-06 0)
(0.11778432 3.2539619e-06 0)
(0.11777899 1.8057625e-06 0)
(0.11777576 9.9314322e-07 0)
(0.1177739 4.9557398e-07 0)
(0.11777291 2.2370947e-07 0)
(0.1177724 8.6764721e-08 0)
(0.11777215 2.2724729e-08 0)
(0.11777205 -2.952123e-09 0)
(0.11777202 -1.041299e-08 0)
(0.11777201 -1.0496158e-08 0)
(0.11777201 -8.3667167e-09 0)
(0.11777202 -5.7130928e-09 0)
(0.11777202 -3.5291117e-09 0)
(0.11777203 -1.9995734e-09 0)
(0.11777203 -1.0762348e-09 0)
(0.11777204 -4.7385761e-10 0)
(0.11777204 -1.8055196e-10 0)
(0.11777204 9.5863405e-12 0)
(0.11777204 6.0563326e-11 0)
(0.11777204 1.0129288e-10 0)
(0.11777204 7.4137358e-11 0)
(0.11777204 7.7209887e-11 0)
(0.11777204 3.4197851e-11 0)
(0.11777204 3.985733e-11 0)
(0.11777204 5.4694333e-12 0)
(0.11777204 2.9130189e-11 0)
(0.11777204 3.8149178e-12 0)
(0.11777204 3.6666587e-11 0)
(0.11777204 2.1504462e-11 0)
(0.11777204 5.6678869e-11 0)
(0.11777204 3.9710574e-11 0)
(0.11777204 6.5417524e-11 0)
(0.11777204 4.279764e-11 0)
(0.11777204 6.0277891e-11 0)
(0.11777204 2.4892004e-11 0)
(0.11777204 3.3949098e-11 0)
(0.11777204 -6.3712252e-12 0)
(0.11777204 6.3102758e-12 0)
(0.11777204 -3.6246662e-11 0)
(0.11777204 -2.476289e-11 0)
(0.11777204 -5.9273469e-11 0)
(0.11777204 -4.2198338e-11 0)
(0.11777204 -6.7377663e-11 0)
(0.11777204 -4.2593164e-11 0)
(0.11777204 -5.4807046e-11 0)
(0.11777204 -1.7755688e-11 0)
(0.11777204 -2.6976887e-11 0)
(0.11777204 1.3514746e-11 0)
(0.11777204 4.1352951e-12 0)
(0.11777204 4.6766423e-11 0)
(0.11777204 3.5604841e-11 0)
(0.11777204 7.140411e-11 0)
(0.11777204 5.9889084e-11 0)
(0.11777204 8.7618888e-11 0)
(0.11777204 6.5073157e-11 0)
(0.11777204 8.1512348e-11 0)
(0.11777204 5.1425625e-11 0)
(0.11777204 6.1517936e-11 0)
(0.11777204 2.0450863e-11 0)
(0.11777204 2.4914212e-11 0)
(0.11777204 -1.907745e-11 0)
(0.11777204 -8.6196287e-12 0)
(0.11777204 -5.4650372e-11 0)
(0.11777204 -4.92781e-11 0)
(0.11777204 -8.7190031e-11 0)
(0.11777204 -7.7725289e-11 0)
(0.11777204 -1.0935977e-10 0)
(0.11777204 -9.486597e-11 0)
(0.11777204 -1.1486223e-10 0)
(0.11777204 -8.9881355e-11 0)
(0.11777204 -1.0310434e-10 0)
(0.11777204 -7.1600197e-11 0)
(0.11777204 -7.4935957e-11 0)
(0.11777204 -3.3500761e-11 0)
(0.11777204 -3.4467148e-11 0)
(0.11777204 1.1998291e-11 0)
(0.11777204 1.0460139e-11 0)
(0.11777204 6.4127983e-11 0)
(0.11777204 6.8267513e-11 0)
(0.11777204 1.1599736e-10 0)
(0.11777204 1.1977347e-10 0)
(0.11777204 1.6356336e-10 0)
(0.11777204 1.5700069e-10 0)
(0.11777204 1.8308802e-10 0)
(0.11777204 6.6954535e-11 0)
(0.11777204 -3.1541154e-10 0)
(0.11777204 -1.6959393e-09 0)
(0.11777204 -4.5453977e-09 0)
(0.11777206 -1.1827673e-08 0)
(0.11777211 -3.39572e-08 0)
(0.11777211 -3.6736476e-08 0)
(0.11777225 2.3207384e-09 0)
(0.23352745 0.00077144807 0)
(0.23467827 0.0017945248 0)
(0.23336235 0.0014280004 0)
(0.2325926 0.00074377572 0)
(0.23238264 0.00032779333 0)
(0.23229426 0.00014502082 0)
(0.23222691 6.4875078e-05 0)
(0.23219171 2.88477e-05 0)
(0.23217763 1.4157386e-05 0)
(0.23217029 8.0538472e-06 0)
(0.23216539 4.7886114e-06 0)
(0.23216232 2.7597185e-06 0)
(0.23216051 1.5234648e-06 0)
(0.23215944 8.0177164e-07 0)
(0.23215884 3.9814182e-07 0)
(0.23215851 1.849264e-07 0)
(0.23215835 7.913126e-08 0)
(0.23215827 2.981037e-08 0)
(0.23215823 8.4431274e-09 0)
(0.23215821 3.9778112e-10 0)
(0.23215821 -1.8928789e-09 0)
(0.23215821 -2.0126395e-09 0)
(0.23215821 -1.5126274e-09 0)
(0.23215821 -9.2658198e-10 0)
(0.23215821 -4.7823315e-10 0)
(0.23215821 -1.6863847e-10 0)
(0.23215821 -1.1520443e-11 0)
(0.23215821 6.7135593e-11 0)
(0.23215821 7.5919983e-11 0)
(0.23215821 6.8775747e-11 0)
(0.23215821 3.5134656e-11 0)
(0.23215821 1.6317203e-11 0)
(0.23215821 1.0528152e-12 0)
(0.23215822 7.2259226e-12 0)
(0.23215822 1.5482465e-11 0)
(0.23215822 3.7134387e-11 0)
(0.23215822 6.1307819e-11 0)
(0.23215822 9.4799501e-11 0)
(0.23215822 1.0856589e-10 0)
(0.23215822 1.2662149e-10 0)
(0.23215822 1.2288148e-10 0)
(0.23215822 1.2172478e-10 0)
(0.23215822 9.0147239e-11 0)
(0.23215822 6.5043096e-11 0)
(0.23215821 2.1717324e-11 0)
(0.23215822 -7.5208012e-12 0)
(0.23215821 -4.8831234e-11 0)
(0.23215822 -8.0749015e-11 0)
(0.23215821 -1.1473915e-10 0)
(0.23215822 -1.2367317e-10 0)
(0.23215822 -1.398097e-10 0)
(0.23215822 -1.2831896e-10 0)
(0.23215822 -1.1717194e-10 0)
(0.23215822 -7.9266087e-11 0)
(0.23215822 -5.4107925e-11 0)
(0.23215822 -8.017549e-12 0)
(0.23215822 2.6926937e-11 0)
(0.23215822 7.0096078e-11 0)
(0.23215822 1.0204628e-10 0)
(0.23215822 1.4057758e-10 0)
(0.23215822 1.5988654e-10 0)
(0.23215822 1.838214e-10 0)
(0.23215822 1.7831561e-10 0)
(0.23215822 1.7709073e-10 0)
(0.23215821 1.5310408e-10 0)
(0.23215822 1.3540607e-10 0)
(0.23215821 8.9183583e-11 0)
(0.23215821 5.3582093e-11 0)
(0.23215821 1.455261e-12 0)
(0.23215821 -3.4793911e-11 0)
(0.23215821 -8.4146395e-11 0)
(0.23215821 -1.259376e-10 0)
(0.23215821 -1.7243545e-10 0)
(0.23215822 -1.9608631e-10 0)
(0.23215822 -2.3063979e-10 0)
(0.23215822 -2.4019821e-10 0)
(0.23215822 -2.51777e-10 0)
(0.23215822 -2.3727179e-10 0)
(0.23215822 -2.3210439e-10 0)
(0.23215822 -2.0195601e-10 0)
(0.23215822 -1.7500836e-10 0)
(0.23215822 -1.2453569e-10 0)
(0.23215822 -8.6356713e-11 0)
(0.23215822 -2.5622851e-11 0)
(0.23215822 2.7463412e-11 0)
(0.23215822 9.2542786e-11 0)
(0.23215822 1.4873543e-10 0)
(0.23215822 2.0408052e-10 0)
(0.23215822 2.221998e-10 0)
(0.23215822 2.0266681e-10 0)
(0.23215822 8.6478187e-11 0)
(0.23215822 -1.8067744e-10 0)
(0.23215822 -8.3213954e-10 0)
(0.23215822 -2.4068773e-09 0)
(0.23215822 -6.541235e-09 0)
(0.23215823 -1.4383104e-08 0)
(0.23215825 -3.0464579e-08 0)
(0.23215834 -8.6410195e-08 0)
(0.23215818 -1.0579436e-07 0)
(0.23215848 -7.3539245e-09 0)
(0.27882298 0.00063077445 0)
(0.28133463 0.0016726443 0)
(0.28054833 0.0014883559 0)
(0.28021008 0.0008761397 0)
(0.28032643 0.00043137037 0)
(0.28039376 0.00020313869 0)
(0.28037956 9.3918077e-05 0)
(0.28036504 4.3324128e-05 0)
(0.28036274 2.1850068e-05 0)
(0.2803622 1.2634246e-05 0)
(0.28036104 7.7803063e-06 0)
(0.28036013 4.7496e-06 0)
(0.28035956 2.8085064e-06 0)
(0.28035917 1.597855e-06 0)
(0.28035891 8.7177495e-07 0)
(0.28035875 4.5644646e-07 0)
(0.28035866 2.2980919e-07 0)
(0.28035861 1.1104719e-07 0)
(0.28035858 5.1165816e-08 0)
(0.28035857 2.2048816e-08 0)
(0.28035856 8.5863054e-09 0)
(0.28035856 2.7421103e-09 0)
(0.28035856 4.708867e-10 0)
(0.28035856 -2.828364e-10 0)
(0.28035856 -3.8665766e-10 0)
(0.28035857 -3.1893833e-10 0)
(0.28035857 -2.0274314e-10 0)
(0.28035857 -1.3522529e-10 0)
(0.28035857 -8.2370159e-11 0)
(0.28035857 -7.0978221e-11 0)
(0.28035857 -6.0862995e-11 0)
(0.28035857 -6.5561197e-11 0)
(0.28035857 -4.9292285e-11 0)
(0.28035857 -3.7262666e-11 0)
(0.28035857 -2.9531253e-12 0)
(0.28035857 2.2193867e-11 0)
(0.28035857 6.6741411e-11 0)
(0.28035857 9.3800233e-11 0)
(0.28035857 1.2665044e-10 0)
(0.28035857 1.3324096e-10 0)
(0.28035857 1.4501299e-10 0)
(0.28035857 1.2478408e-10 0)
(0.28035857 1.0980824e-10 0)
(0.28035857 6.5097881e-11 0)
(0.28035857 3.5746018e-11 0)
(0.28035857 -1.8201727e-11 0)
(0.28035857 -5.3306371e-11 0)
(0.28035857 -1.0050552e-10 0)
(0.28035857 -1.2280594e-10 0)
(0.28035857 -1.4984935e-10 0)
(0.28035857 -1.4795968e-10 0)
(0.28035857 -1.5215806e-10 0)
(0.28035857 -1.2283151e-10 0)
(0.28035857 -1.0343678e-10 0)
(0.28035857 -5.6455328e-11 0)
(0.28035857 -2.4675456e-11 0)
(0.28035857 3.3045338e-11 0)
(0.28035857 6.9954023e-11 0)
(0.28035857 1.1898979e-10 0)
(0.28035857 1.4702721e-10 0)
(0.28035857 1.835922e-10 0)
(0.28035857 1.9028259e-10 0)
(0.28035857 2.0462897e-10 0)
(0.28035857 1.8678153e-10 0)
(0.28035857 1.8132463e-10 0)
(0.28035857 1.436856e-10 0)
(0.28035857 1.1691313e-10 0)
(0.28035857 6.1337722e-11 0)
(0.28035857 2.5856191e-11 0)
(0.28035857 -3.5024302e-11 0)
(0.28035857 -7.8457414e-11 0)
(0.28035857 -1.3612639e-10 0)
(0.28035857 -1.7099318e-10 0)
(0.28035857 -2.1568408e-10 0)
(0.28035857 -2.3498017e-10 0)
(0.28035857 -2.6461954e-10 0)
(0.28035857 -2.6169007e-10 0)
(0.28035857 -2.6942865e-10 0)
(0.28035857 -2.477922e-10 0)
(0.28035857 -2.371451e-10 0)
(0.28035857 -1.9478297e-10 0)
(0.28035857 -1.660803e-10 0)
(0.28035857 -1.1011713e-10 0)
(0.28035857 -6.7528427e-11 0)
(0.28035857 6.6708823e-12 0)
(0.28035857 6.3983053e-11 0)
(0.28035857 1.3047096e-10 0)
(0.28035857 1.5774464e-10 0)
(0.28035857 1.4729954e-10 0)
(0.28035857 1.9842933e-11 0)
(0.28035857 -2.8854189e-10 0)
(0.28035857 -9.8083327e-10 0)
(0.28035857 -2.3231791e-09 0)
(0.28035857 -5.1742298e-09 0)
(0.28035857 -1.1473295e-08 0)
(0.28035857 -2.3349982e-08 0)
(0.28035857 -4.3244595e-08 0)
(0.28035867 -1.0247831e-07 0)
(0.28035837 -1.2444467e-07 0)
(0.28035869 -1.3863218e-08 0)
(0.29525855 0.00035621215 0)
(0.29820906 0.0010317486 0)
(0.297547 0.00098596606 0)
(0.29743558 0.00062440078 0)
(0.29778279 0.00032739938 0)
(0.29797877 0.00016041522 0)
(0.29801614 7.6052624e-05 0)
(0.29802377 3.5877028e-05 0)
(0.29803383 1.8339099e-05 0)
(0.29804055 1.0670313e-05 0)
(0.2980437 6.6631891e-06 0)
(0.29804553 4.1653465e-06 0)
(0.29804671 2.5327369e-06 0)
(0.29804737 1.4845167e-06 0)
(0.29804771 8.36325e-07 0)
(0.29804789 4.5337881e-07 0)
(0.29804799 2.3713101e-07 0)
(0.29804803 1.1960954e-07 0)
(0.29804806 5.8011637e-08 0)
(0.29804807 2.6714051e-08 0)
(0.29804808 1.1487302e-08 0)
(0.29804808 4.3392968e-09 0)
(0.29804808 1.2761154e-09 0)
(0.29804808 8.3017986e-12 0)
(0.29804809 -3.4214096e-10 0)
(0.29804809 -4.3790106e-10 0)
(0.29804809 -3.4015572e-10 0)
(0.29804809 -3.1149092e-10 0)
(0.29804809 -2.0721278e-10 0)
(0.29804809 -2.0391796e-10 0)
(0.29804809 -1.2333251e-10 0)
(0.29804809 -1.3269477e-10 0)
(0.29804809 -5.9010819e-11 0)
(0.29804809 -6.2143084e-11 0)
(0.29804809 1.3037279e-11 0)
(0.29804809 1.010202e-11 0)
(0.29804809 7.9918651e-11 0)
(0.29804809 6.5118574e-11 0)
(0.29804809 1.2663046e-10 0)
(0.29804809 9.0958312e-11 0)
(0.29804809 1.3197309e-10 0)
(0.29804809 7.6757541e-11 0)
(0.29804809 9.6765179e-11 0)
(0.29804809 2.3576881e-11 0)
(0.29804809 3.0579639e-11 0)
(0.29804809 -4.6338168e-11 0)
(0.29804809 -3.8198641e-11 0)
(0.29804809 -1.0289776e-10 0)
(0.29804809 -7.8668652e-11 0)
(0.29804809 -1.3391806e-10 0)
(0.29804809 -9.3224342e-11 0)
(0.29804809 -1.2825748e-10 0)
(0.29804809 -6.9966323e-11 0)
(0.29804809 -8.6775002e-11 0)
(0.29804809 -1.4943099e-11 0)
(0.29804809 -2.3213357e-11 0)
(0.29804809 5.2726241e-11 0)
(0.29804809 4.6674105e-11 0)
(0.29804809 1.1286436e-10 0)
(0.29804809 9.194735e-11 0)
(0.29804809 1.5402564e-10 0)
(0.29804809 1.2344449e-10 0)
(0.29804809 1.6896437e-10 0)
(0.29804809 1.205435e-10 0)
(0.29804809 1.4828597e-10 0)
(0.29804809 8.4923531e-11 0)
(0.29804809 1.0035698e-10 0)
(0.29804809 2.664977e-11 0)
(0.29804809 3.2891864e-11 0)
(0.29804809 -4.6118863e-11 0)
(0.29804809 -4.1621711e-11 0)
(0.29804809 -1.1503566e-10 0)
(0.29804809 -1.0187123e-10 0)
(0.29804809 -1.7271204e-10 0)
(0.29804809 -1.518806e-10 0)
(0.29804809 -2.0910943e-10 0)
(0.29804809 -1.7560546e-10 0)
(0.29804809 -2.1666939e-10 0)
(0.29804809 -1.6787633e-10 0)
(0.29804809 -1.9552893e-10 0)
(0.29804809 -1.351952e-10 0)
(0.29804809 -1.5023482e-10 0)
(0.29804809 -7.744825e-11 0)
(0.29804809 -8.1022565e-11 0)
(0.29804809 2.311428e-12 0)
(0.29804809 9.0836941e-12 0)
(0.29804809 8.740606e-11 0)
(0.29804809 6.0931563e-11 0)
(0.29804809 7.3721202e-11 0)
(0.29804809 -9.9320769e-11 0)
(0.29804809 -3.7986009e-10 0)
(0.29804809 -1.0809174e-09 0)
(0.29804809 -2.3331994e-09 0)
(0.29804809 -4.9475733e-09 0)
(0.29804809 -1.0271647e-08 0)
(0.29804808 -2.0282562e-08 0)
(0.29804805 -3.5292037e-08 0)
(0.29804816 -7.42937e-08 0)
(0.29804778 -8.9696051e-08 0)
(0.2980481 -1.4490604e-08 0)
(0.3003352 0.0001096088 0)
(0.30335247 0.00033431121 0)
(0.3026466 0.00033217758 0)
(0.30259004 0.00021858287 0)
(0.30303103 0.00011834146 0)
(0.30328789 5.9197586e-05 0)
(0.30335231 2.8452445e-05 0)
(0.30337223 1.3570014e-05 0)
(0.30338916 6.9695214e-06 0)
(0.30339991 4.0557507e-06 0)
(0.30340552 2.5418638e-06 0)
(0.30340893 1.6024609e-06 0)
(0.30341116 9.8441076e-07 0)
(0.3034125 5.8298314e-07 0)
(0.30341325 3.3150577e-07 0)
(0.30341366 1.8103061e-07 0)
(0.30341389 9.4949657e-08 0)
(0.30341401 4.768795e-08 0)
(0.30341407 2.267198e-08 0)
(0.3034141 9.9409727e-09 0)
(0.30341412 3.7422961e-09 0)
(0.30341413 9.1982308e-10 0)
(0.30341414 -2.4658689e-10 0)
(0.30341414 -6.3536563e-10 0)
(0.30341414 -6.9527248e-10 0)
(0.30341414 -6.2848753e-10 0)
(0.30341415 -5.1763128e-10 0)
(0.30341415 -4.259569e-10 0)
(0.30341415 -3.3348544e-10 0)
(0.30341415 -2.6690219e-10 0)
(0.30341415 -1.9228407e-10 0)
(0.30341415 -1.4824661e-10 0)
(0.30341415 -8.6235362e-11 0)
(0.30341415 -4.9783836e-11 0)
(0.30341415 4.7770435e-12 0)
(0.30341415 2.491126e-11 0)
(0.30341415 6.003969e-11 0)
(0.30341415 6.8478793e-11 0)
(0.30341415 8.9466743e-11 0)
(0.30341415 7.8174821e-11 0)
(0.30341415 7.7655538e-11 0)
(0.30341415 5.8263975e-11 0)
(0.30341415 4.6811913e-11 0)
(0.30341415 1.4647478e-11 0)
(0.30341415 -2.7149706e-12 0)
(0.30341415 -3.118347e-11 0)
(0.30341415 -3.5003395e-11 0)
(0.30341415 -6.0274102e-11 0)
(0.30341415 -5.8804345e-11 0)
(0.30341415 -6.8230454e-11 0)
(0.30341415 -5.6452229e-11 0)
(0.30341415 -5.6020371e-11 0)
(0.30341415 -3.9645912e-11 0)
(0.30341415 -2.7263376e-11 0)
(0.30341415 -1.9006044e-12 0)
(0.30341415 7.4039525e-12 0)
(0.30341415 3.1154639e-11 0)
(0.30341415 3.625373e-11 0)
(0.30341415 5.9573775e-11 0)
(0.30341415 5.6857789e-11 0)
(0.30341415 7.0454282e-11 0)
(0.30341415 6.985573e-11 0)
(0.30341415 7.5551921e-11 0)
(0.30341415 6.4498107e-11 0)
(0.30341415 5.8923546e-11 0)
(0.30341415 4.5131383e-11 0)
(0.30341415 3.9673978e-11 0)
(0.30341415 1.7634233e-11 0)
(0.30341415 6.6478292e-12 0)
(0.30341415 -1.6714776e-11 0)
(0.30341415 -1.7991593e-11 0)
(0.30341415 -4.423385e-11 0)
(0.30341415 -5.1525104e-11 0)
(0.30341415 -7.0180768e-11 0)
(0.30341415 -7.3901503e-11 0)
(0.30341415 -8.7627614e-11 0)
(0.30341415 -9.0310674e-11 0)
(0.30341415 -9.2752156e-11 0)
(0.30341415 -8.6534731e-11 0)
(0.30341415 -8.7911943e-11 0)
(0.30341415 -8.0842489e-11 0)
(0.30341415 -7.5886354e-11 0)
(0.30341415 -5.9781341e-11 0)
(0.30341415 -5.3351789e-11 0)
(0.30341415 -2.8281865e-11 0)
(0.30341415 -1.6024793e-11 0)
(0.30341415 1.912931e-11 0)
(0.30341415 2.9551827e-11 0)
(0.30341415 3.9857391e-11 0)
(0.30341415 -9.8353694e-12 0)
(0.30341415 -1.1726121e-10 0)
(0.30341415 -3.4599192e-10 0)
(0.30341415 -8.1407467e-10 0)
(0.30341414 -1.7584287e-09 0)
(0.30341414 -3.7623061e-09 0)
(0.30341413 -7.4995849e-09 0)
(0.30341409 -1.2903302e-08 0)
(0.30341419 -2.5909903e-08 0)
(0.30341379 -3.136747e-08 0)
(0.3034141 -5.8498678e-09 0)
(0.30033527 -0.00010961588 0)
(0.30335247 -0.00033434172 0)
(0.30264661 -0.00033223629 0)
(0.30259007 -0.00021867061 0)
(0.30303106 -0.00011844255 0)
(0.30328789 -5.9291636e-05 0)
(0.3033523 -2.8525771e-05 0)
(0.30337222 -1.3623372e-05 0)
(0.30338915 -7.0078658e-06 0)
(0.30339991 -4.0846484e-06 0)
(0.30340551 -2.5645117e-06 0)
(0.30340893 -1.6209932e-06 0)
(0.30341116 -1.0000781e-06 0)
(0.30341249 -5.9650207e-07 0)
(0.30341324 -3.4342846e-07 0)
(0.30341366 -1.9141451e-07 0)
(0.30341389 -1.0405395e-07 0)
(0.30341401 -5.5398305e-08 0)
(0.30341407 -2.9272398e-08 0)
(0.3034141 -1.5347578e-08 0)
(0.30341412 -8.2713664e-09 0)
(0.30341413 -4.4811653e-09 0)
(0.30341414 -2.6893179e-09 0)
(0.30341414 -1.5957886e-09 0)
(0.30341414 -1.1744375e-09 0)
(0.30341414 -7.5061417e-10 0)
(0.30341415 -6.8103622e-10 0)
(0.30341415 -4.2773303e-10 0)
(0.30341415 -4.4287855e-10 0)
(0.30341415 -2.2812628e-10 0)
(0.30341415 -2.7092222e-10 0)
(0.30341415 -8.6022343e-11 0)
(0.30341415 -1.4727952e-10 0)
(0.30341415 2.5229218e-11 0)
(0.30341415 -5.5904451e-11 0)
(0.30341415 8.6917289e-11 0)
(0.30341415 -1.3940409e-11 0)
(0.30341415 1.1659397e-10 0)
(0.30341415 -6.8410472e-12 0)
(0.30341415 1.0120899e-10 0)
(0.30341415 -3.1237525e-11 0)
(0.30341415 7.7042832e-11 0)
(0.30341415 -5.6965717e-11 0)
(0.30341415 4.7084546e-11 0)
(0.30341415 -8.1419815e-11 0)
(0.30341415 3.978352e-11 0)
(0.30341415 -8.3830936e-11 0)
(0.30341415 3.5910232e-11 0)
(0.30341415 -7.703301e-11 0)
(0.30341415 5.7112627e-11 0)
(0.30341415 -5.1721762e-11 0)
(0.30341415 7.0743897e-11 0)
(0.30341415 -3.9247493e-11 0)
(0.30341415 8.6008796e-11 0)
(0.30341415 -3.0917757e-11 0)
(0.30341415 8.257037e-11 0)
(0.30341415 -3.9817728e-11 0)
(0.30341415 7.9235283e-11 0)
(0.30341415 -4.6783846e-11 0)
(0.30341415 5.9928681e-11 0)
(0.30341415 -6.9125091e-11 0)
(0.30341415 4.5426667e-11 0)
(0.30341415 -7.8631218e-11 0)
(0.30341415 3.2910073e-11 0)
(0.30341415 -8.5561973e-11 0)
(0.30341415 4.0808787e-11 0)
(0.30341415 -7.5617827e-11 0)
(0.30341415 4.547151e-11 0)
(0.30341415 -6.9088731e-11 0)
(0.30341415 6.4130454e-11 0)
(0.30341415 -5.1111153e-11 0)
(0.30341415 7.3696538e-11 0)
(0.30341415 -3.8465594e-11 0)
(0.30341415 9.1186253e-11 0)
(0.30341415 -2.3140243e-11 0)
(0.30341415 9.0193875e-11 0)
(0.30341415 -2.6628035e-11 0)
(0.30341415 8.8790313e-11 0)
(0.30341415 -3.2022104e-11 0)
(0.30341415 7.2203323e-11 0)
(0.30341415 -5.0932842e-11 0)
(0.30341415 5.7349592e-11 0)
(0.30341415 -7.0326182e-11 0)
(0.30341415 2.8979196e-11 0)
(0.30341415 -9.721741e-11 0)
(0.30341415 2.4894464e-11 0)
(0.30341415 -8.2957025e-11 0)
(0.30341415 6.3648041e-11 0)
(0.30341415 -2.7185379e-12 0)
(0.30341415 2.1569006e-10 0)
(0.30341415 2.9507252e-10 0)
(0.30341415 7.4397011e-10 0)
(0.30341415 1.2891706e-09 0)
(0.30341414 2.5401745e-09 0)
(0.30341414 4.5697853e-09 0)
(0.30341413 8.4738822e-09 0)
(0.30341409 1.3801194e-08 0)
(0.30341419 2.6592875e-08 0)
(0.30341379 3.1734629e-08 0)
(0.3034141 6.0506154e-09 0)
(0.29525865 -0.00035621193 0)
(0.29820921 -0.001031754 0)
(0.29754715 -0.00098599288 0)
(0.29743566 -0.00062445372 0)
(0.29778281 -0.00032746693 0)
(0.29797876 -0.00016047985 0)
(0.29801612 -7.6105674e-05 0)
(0.29802374 -3.5917152e-05 0)
(0.2980338 -1.8369348e-05 0)
(0.29804053 -1.0693386e-05 0)
(0.29804369 -6.6813114e-06 0)
(0.29804552 -4.1800192e-06 0)
(0.2980467 -2.544949e-06 0)
(0.29804736 -1.4949955e-06 0)
(0.29804771 -8.4535184e-07 0)
(0.29804789 -4.6133096e-07 0)
(0.29804798 -2.4399412e-07 0)
(0.29804803 -1.2562277e-07 0)
(0.29804805 -6.3076452e-08 0)
(0.29804807 -3.1077888e-08 0)
(0.29804807 -1.5044702e-08 0)
(0.29804808 -7.3317366e-09 0)
(0.29804808 -3.6243522e-09 0)
(0.29804808 -1.980482e-09 0)
(0.29804809 -1.1483222e-09 0)
(0.29804809 -8.1350638e-10 0)
(0.29804809 -5.7794769e-10 0)
(0.29804809 -4.9744147e-10 0)
(0.29804809 -3.5042844e-10 0)
(0.29804809 -3.0058064e-10 0)
(0.29804809 -1.8024946e-10 0)
(0.29804809 -1.5388925e-10 0)
(0.29804809 -4.8576851e-11 0)
(0.29804809 -4.0061726e-11 0)
(0.29804809 3.0538352e-11 0)
(0.29804809 2.6907913e-12 0)
(0.29804809 5.2920676e-11 0)
(0.29804809 8.5775366e-12 0)
(0.29804809 3.3240313e-11 0)
(0.29804809 -2.7604412e-11 0)
(0.29804809 1.9507128e-12 0)
(0.29804809 -5.0012481e-11 0)
(0.29804809 -1.8013208e-11 0)
(0.29804809 -6.5770231e-11 0)
(0.29804809 -1.4092611e-11 0)
(0.29804809 -4.1890193e-11 0)
(0.29804809 1.2560464e-11 0)
(0.29804809 -1.2768819e-11 0)
(0.29804809 5.3343635e-11 0)
(0.29804809 3.4688552e-11 0)
(0.29804809 8.7159658e-11 0)
(0.29804809 4.9400584e-11 0)
(0.29804809 9.7104046e-11 0)
(0.29804809 5.2281424e-11 0)
(0.29804809 7.9979803e-11 0)
(0.29804809 1.5823965e-11 0)
(0.29804809 3.9599489e-11 0)
(0.29804809 -2.2584121e-11 0)
(0.29804809 -9.7939022e-12 0)
(0.29804809 -8.0265742e-11 0)
(0.29804809 -5.7155089e-11 0)
(0.29804809 -1.1145402e-10 0)
(0.29804809 -8.0041839e-11 0)
(0.29804809 -1.2939297e-10 0)
(0.29804809 -7.5680538e-11 0)
(0.29804809 -1.0409813e-10 0)
(0.29804809 -4.6303599e-11 0)
(0.29804809 -7.2016875e-11 0)
(0.29804809 6.5896693e-13 0)
(0.29804809 -1.0306033e-11 0)
(0.29804809 5.6756449e-11 0)
(0.29804809 3.9567195e-11 0)
(0.29804809 1.1151018e-10 0)
(0.29804809 9.6067289e-11 0)
(0.29804809 1.5028504e-10 0)
(0.29804809 1.1325151e-10 0)
(0.29804809 1.6284092e-10 0)
(0.29804809 1.1986701e-10 0)
(0.29804809 1.5016488e-10 0)
(0.29804809 8.7179765e-11 0)
(0.29804809 1.1274587e-10 0)
(0.29804809 4.8259627e-11 0)
(0.29804809 5.7825489e-11 0)
(0.29804809 -2.1479838e-11 0)
(0.29804809 -8.6487201e-12 0)
(0.29804809 -7.1693885e-11 0)
(0.29804809 -4.0546234e-11 0)
(0.29804809 -6.1894963e-11 0)
(0.29804809 6.9775353e-11 0)
(0.29804809 2.2650308e-10 0)
(0.29804809 6.5946912e-10 0)
(0.29804809 1.3665708e-09 0)
(0.29804809 2.8384601e-09 0)
(0.29804809 5.5188517e-09 0)
(0.29804809 1.1031605e-08 0)
(0.29804808 2.1087462e-08 0)
(0.29804805 3.6083317e-08 0)
(0.29804816 7.4849734e-08 0)
(0.29804778 8.9996217e-08 0)
(0.2980481 1.4662505e-08 0)
(0.27882303 -0.00063077629 0)
(0.2813347 -0.0016726505 0)
(0.2805484 -0.0014883656 0)
(0.28021011 -0.00087614694 0)
(0.28032642 -0.0004313835 0)
(0.28039373 -0.00020315994 0)
(0.28037951 -9.3944778e-05 0)
(0.28036499 -4.3349466e-05 0)
(0.2803627 -2.1871399e-05 0)
(0.28036217 -1.2650722e-05 0)
(0.28036101 -7.7928265e-06 0)
(0.28036011 -4.7590592e-06 0)
(0.28035955 -2.8157695e-06 0)
(0.28035916 -1.6037286e-06 0)
(0.2803589 -8.7659396e-07 0)
(0.28035874 -4.6068891e-07 0)
(0.28035865 -2.3342092e-07 0)
(0.2803586 -1.1433362e-07 0)
(0.28035858 -5.3902996e-08 0)
(0.28035857 -2.4574368e-08 0)
(0.28035856 -1.0655595e-08 0)
(0.28035856 -4.6127574e-09 0)
(0.28035856 -1.9202404e-09 0)
(0.28035856 -1.0477645e-09 0)
(0.28035856 -5.8613086e-10 0)
(0.28035857 -6.0421955e-10 0)
(0.28035857 -4.2830756e-10 0)
(0.28035857 -4.9977153e-10 0)
(0.28035857 -2.9737723e-10 0)
(0.28035857 -3.4705781e-10 0)
(0.28035857 -1.4673416e-10 0)
(0.28035857 -1.9937196e-10 0)
(0.28035857 -1.1086865e-11 0)
(0.28035857 -9.4334257e-11 0)
(0.28035857 5.0751612e-11 0)
(0.28035857 -5.9794065e-11 0)
(0.28035857 6.7995172e-11 0)
(0.28035857 -6.8338677e-11 0)
(0.28035857 3.7810556e-11 0)
(0.28035857 -1.0259621e-10 0)
(0.28035857 1.4647813e-11 0)
(0.28035857 -1.1895115e-10 0)
(0.28035857 5.1946107e-12 0)
(0.28035857 -1.107001e-10 0)
(0.28035857 3.9304321e-11 0)
(0.28035857 -6.6029719e-11 0)
(0.28035857 8.3067874e-11 0)
(0.28035857 -1.6182487e-11 0)
(0.28035857 1.3756378e-10 0)
(0.28035857 3.0124305e-11 0)
(0.28035857 1.6124284e-10 0)
(0.28035857 3.9801338e-11 0)
(0.28035857 1.6301733e-10 0)
(0.28035857 2.0903423e-11 0)
(0.28035857 1.1796396e-10 0)
(0.28035857 -3.6443038e-11 0)
(0.28035857 5.9254005e-11 0)
(0.28035857 -1.0250874e-10 0)
(0.28035857 -1.5572875e-11 0)
(0.28035857 -1.6796915e-10 0)
(0.28035857 -6.0582197e-11 0)
(0.28035857 -2.029371e-10 0)
(0.28035857 -8.7248754e-11 0)
(0.28035857 -2.1055281e-10 0)
(0.28035857 -6.5497905e-11 0)
(0.28035857 -1.7497771e-10 0)
(0.28035857 -2.1667988e-11 0)
(0.28035857 -1.1392615e-10 0)
(0.28035857 5.9057106e-11 0)
(0.28035857 -2.8940516e-11 0)
(0.28035857 1.3395485e-10 0)
(0.28035857 4.635298e-11 0)
(0.28035857 2.0786715e-10 0)
(0.28035857 1.0743597e-10 0)
(0.28035857 2.4745924e-10 0)
(0.28035857 1.3635333e-10 0)
(0.28035857 2.6914662e-10 0)
(0.28035857 1.3959477e-10 0)
(0.28035857 2.4533991e-10 0)
(0.28035857 1.0084059e-10 0)
(0.28035857 1.9868702e-10 0)
(0.28035857 3.6301295e-11 0)
(0.28035857 1.101327e-10 0)
(0.28035857 -6.0011882e-11 0)
(0.28035857 1.8676927e-11 0)
(0.28035857 -1.4998566e-10 0)
(0.28035857 -5.3212718e-11 0)
(0.28035857 -1.6705582e-10 0)
(0.28035857 3.5353583e-11 0)
(0.28035857 8.8898747e-11 0)
(0.28035857 5.623544e-10 0)
(0.28035857 1.1797284e-09 0)
(0.28035857 2.7125776e-09 0)
(0.28035857 5.4997393e-09 0)
(0.28035858 1.2025028e-08 0)
(0.28035857 2.392396e-08 0)
(0.28035857 4.3808689e-08 0)
(0.28035867 1.0284086e-07 0)
(0.28035837 1.2462971e-07 0)
(0.28035869 1.3975273e-08 0)
(0.2335274 -0.00077144188 0)
(0.23467818 -0.0017945084 0)
(0.23336228 -0.0014279662 0)
(0.23259255 -0.00074372906 0)
(0.2323826 -0.00032775275 0)
(0.23229422 -0.00014500025 0)
(0.23222688 -6.487161e-05 0)
(0.23219168 -2.8852673e-05 0)
(0.23217761 -1.4164035e-05 0)
(0.23217027 -8.0596022e-06 0)
(0.23216537 -4.7927664e-06 0)
(0.23216231 -2.7624067e-06 0)
(0.2321605 -1.5250998e-06 0)
(0.23215943 -8.0262548e-07 0)
(0.23215883 -3.9863093e-07 0)
(0.23215851 -1.8512502e-07 0)
(0.23215834 -7.9330609e-08 0)
(0.23215826 -2.9934762e-08 0)
(0.23215823 -8.723894e-09 0)
(0.23215821 -5.4278874e-10 0)
(0.23215821 1.6944562e-09 0)
(0.23215821 1.8699684e-09 0)
(0.23215821 1.2366225e-09 0)
(0.23215821 7.2547334e-10 0)
(0.23215821 2.0166541e-10 0)
(0.23215821 -8.5061855e-12 0)
(0.23215821 -2.2918385e-10 0)
(0.23215821 -2.0068744e-10 0)
(0.23215821 -2.6806087e-10 0)
(0.23215821 -1.5554265e-10 0)
(0.23215821 -1.8076893e-10 0)
(0.23215821 -5.1534203e-11 0)
(0.23215821 -8.5737438e-11 0)
(0.23215821 1.1666621e-11 0)
(0.23215822 -4.9958642e-11 0)
(0.23215821 3.0592928e-11 0)
(0.23215822 -5.1493905e-11 0)
(0.23215822 6.7997167e-12 0)
(0.23215822 -8.289411e-11 0)
(0.23215822 -1.5942334e-11 0)
(0.23215822 -9.887083e-11 0)
(0.23215822 -2.7983646e-11 0)
(0.23215822 -9.7209542e-11 0)
(0.23215822 -1.8019114e-12 0)
(0.23215822 -5.5777435e-11 0)
(0.23215821 4.151889e-11 0)
(0.23215822 -7.7171412e-12 0)
(0.23215821 9.63724e-11 0)
(0.23215822 4.2948709e-11 0)
(0.23215821 1.2855968e-10 0)
(0.23215822 6.0752897e-11 0)
(0.23215822 1.3879209e-10 0)
(0.23215822 5.4233489e-11 0)
(0.23215822 1.0584387e-10 0)
(0.23215822 4.0724234e-12 0)
(0.23215822 5.3801995e-11 0)
(0.23215822 -5.3109279e-11 0)
(0.23215822 -1.492862e-11 0)
(0.23215822 -1.2025942e-10 0)
(0.23215822 -6.5976583e-11 0)
(0.23215822 -1.5945853e-10 0)
(0.23215822 -9.9898056e-11 0)
(0.23215822 -1.8034814e-10 0)
(0.23215822 -9.3766912e-11 0)
(0.23215822 -1.5554126e-10 0)
(0.23215822 -6.0637843e-11 0)
(0.23215822 -1.0881606e-10 0)
(0.23215821 6.5108934e-12 0)
(0.23215822 -3.311993e-11 0)
(0.23215821 7.5681861e-11 0)
(0.23215822 3.5635741e-11 0)
(0.23215821 1.478184e-10 0)
(0.23215822 1.0148122e-10 0)
(0.23215821 1.9462292e-10 0)
(0.23215822 1.365804e-10 0)
(0.23215822 2.2478281e-10 0)
(0.23215822 1.5168795e-10 0)
(0.23215822 2.1476791e-10 0)
(0.23215822 1.2572826e-10 0)
(0.23215822 1.8369688e-10 0)
(0.23215822 8.2078965e-11 0)
(0.23215822 1.1821203e-10 0)
(0.23215822 3.7157634e-12 0)
(0.23215822 4.0280839e-11 0)
(0.23215822 -7.8591593e-11 0)
(0.23215822 -4.8760791e-11 0)
(0.23215822 -1.5601558e-10 0)
(0.23215822 -8.9833315e-11 0)
(0.23215822 -1.5633146e-10 0)
(0.23215822 -3.4135817e-11 0)
(0.23215822 2.2791671e-11 0)
(0.23215822 3.9016787e-10 0)
(0.23215822 9.6049485e-10 0)
(0.23215822 2.6147866e-09 0)
(0.23215822 6.8027845e-09 0)
(0.23215823 1.4788945e-08 0)
(0.23215825 3.0759457e-08 0)
(0.23215834 8.6516114e-08 0)
(0.23215818 1.0581362e-07 0)
(0.23215848 7.3599556e-09 0)
(0.12150602 -0.00043903549 0)
(0.12066969 -0.0008329515 0)
(0.11909794 -0.00056263632 0)
(0.11827346 -0.0002427229 0)
(0.11798661 -9.0180655e-05 0)
(0.11787546 -3.7472039e-05 0)
(0.11781987 -1.6457919e-05 0)
(0.11779473 -6.9262165e-06 0)
(0.11778433 -3.252754e-06 0)
(0.117779 -1.8052758e-06 0)
(0.11777576 -9.9275755e-07 0)
(0.1177739 -4.9507631e-07 0)
(0.1177729 -2.2312703e-07 0)
(0.11777239 -8.5985461e-08 0)
(0.11777215 -2.1959864e-08 0)
(0.11777205 3.8202672e-09 0)
(0.11777201 1.1126338e-08 0)
(0.11777201 1.1220452e-08 0)
(0.11777201 8.8051244e-09 0)
(0.11777202 6.2640086e-09 0)
(0.11777202 3.9389808e-09 0)
(0.11777203 2.4227125e-09 0)
(0.11777203 1.2698322e-09 0)
(0.11777204 7.165021e-10 0)
(0.11777204 2.5795467e-10 0)
(0.11777204 1.4135579e-10 0)
(0.11777204 -3.6850614e-11 0)
(0.11777204 1.347323e-12 0)
(0.11777204 -9.3568423e-11 0)
(0.11777204 -5.0404943e-12 0)
(0.11777204 -7.2878615e-11 0)
(0.11777204 2.4331631e-11 0)
(0.11777204 -4.9450778e-11 0)
(0.11777204 3.7235817e-11 0)
(0.11777204 -3.9967519e-11 0)
(0.11777204 4.0227197e-11 0)
(0.11777204 -4.9586626e-11 0)
(0.11777204 2.4794952e-11 0)
(0.11777204 -6.126021e-11 0)
(0.11777204 1.8025349e-11 0)
(0.11777204 -6.9258897e-11 0)
(0.11777204 1.2156452e-11 0)
(0.11777204 -6.5831786e-11 0)
(0.11777204 2.577221e-11 0)
(0.11777204 -5.0904978e-11 0)
(0.11777204 4.1004173e-11 0)
(0.11777204 -2.9096686e-11 0)
(0.11777204 6.4546423e-11 0)
(0.11777204 -1.2259387e-11 0)
(0.11777204 7.3499004e-11 0)
(0.11777204 -2.2462954e-12 0)
(0.11777204 8.1345152e-11 0)
(0.11777204 -7.6349576e-12 0)
(0.11777204 6.5863892e-11 0)
(0.11777204 -2.3518783e-11 0)
(0.11777204 4.8431622e-11 0)
(0.11777204 -4.8339502e-11 0)
(0.11777204 2.0699471e-11 0)
(0.11777204 -6.9664253e-11 0)
(0.11777204 5.231809e-12 0)
(0.11777204 -8.6904488e-11 0)
(0.11777204 -1.055931e-11 0)
(0.11777204 -9.3710276e-11 0)
(0.11777204 -5.7432847e-12 0)
(0.11777204 -8.6727956e-11 0)
(0.11777204 4.7606593e-12 0)
(0.11777204 -6.6715981e-11 0)
(0.11777204 3.083772e-11 0)
(0.11777204 -4.1957252e-11 0)
(0.11777204 5.3284592e-11 0)
(0.11777204 -1.5020361e-11 0)
(0.11777204 7.9373402e-11 0)
(0.11777204 6.4852377e-12 0)
(0.11777204 9.6348636e-11 0)
(0.11777204 2.3871341e-11 0)
(0.11777204 1.1073341e-10 0)
(0.11777204 2.6922902e-11 0)
(0.11777204 1.0416856e-10 0)
(0.11777204 1.9705965e-11 0)
(0.11777204 9.4425712e-11 0)
(0.11777204 7.2488306e-13 0)
(0.11777204 6.8981326e-11 0)
(0.11777204 -2.2823981e-11 0)
(0.11777204 4.5448656e-11 0)
(0.11777204 -5.3915168e-11 0)
(0.11777204 1.2032902e-11 0)
(0.11777204 -8.320813e-11 0)
(0.11777204 -1.4280543e-11 0)
(0.11777204 -1.1609793e-10 0)
(0.11777204 -5.1540039e-11 0)