/*--------------------------------*- C++ -*----------------------------------*\
| =========                 |                                                 |
| \\      /  F ield         | OpenFOAM: The Open Source CFD Toolbox           |
|  \\    /   O peration     | Version:  2112                                  |
|   \\  /    A nd           | Website:  www.openfoam.com                      |
|    \\/     M anipulation  |                                                 |
\*---------------------------------------------------------------------------*/
FoamFile
{
    version     2.0;
    format      ascii;
    arch        "LSB;label=32;scalar=64";
    class       volScalarField;
    location    "6";
    object      p;
}
// * * * * * * * * * * * * * * * * * * * * * * * * * * * * * * * * * * * * * //

dimensions      [0 2 -2 0 0 0 0];

internalField   nonuniform List<scalar> 
1000
(
1.5262542
1.5090197
1.4924941
1.4763915
1.460518
1.4447847
1.4291517
1.4135957
1.3980986
1.3826455
1.3672259
1.3518331
1.3364623
1.3211103
1.3057743
1.290452
1.2751415
1.2598407
1.2445482
1.2292622
1.2139813
1.1987042
1.1834299
1.1681575
1.1528863
1.1376159
1.1223458
1.1070759
1.091806
1.0765361
1.0612662
1.0459963
1.0307263
1.0154563
1.0001863
0.98491633
0.96964631
0.95437629
0.93910627
0.92383625
0.90856623
0.89329621
0.87802618
0.86275616
0.84748614
0.83221612
0.8169461
0.80167608
0.78640606
0.77113603
0.75586601
0.74059599
0.72532597
0.71005595
0.69478593
0.67951591
0.66424589
0.64897586
0.63370584
0.61843582
0.6031658
0.58789578
0.57262576
0.55735574
0.54208572
0.5268157
0.51154568
0.49627565
0.48100563
0.46573561
0.45046559
0.43519557
0.41992555
0.40465553
0.38938551
0.37411549
0.35884547
0.34357545
0.32830542
0.3130354
0.29776538
0.28249536
0.26722534
0.25195532
0.2366853
0.22141528
0.20614526
0.19087524
0.17560521
0.16033519
0.14506517
0.12979515
0.11452513
0.099255109
0.083985089
0.068715068
0.053445048
0.038175029
0.022905012
0.0076350007
1.5258016
1.5085626
1.4923958
1.4765298
1.4606986
1.4449292
1.4292615
1.4136855
1.398174
1.3827072
1.367275
1.3518716
1.3364927
1.3211342
1.3057929
1.2904663
1.2751522
1.2598486
1.2445537
1.2292659
1.2139838
1.1987058
1.1834308
1.168158
1.1528866
1.137616
1.1223458
1.1070758
1.091806
1.0765361
1.0612662
1.0459963
1.0307263
1.0154563
1.0001863
0.98491633
0.96964631
0.95437629
0.93910627
0.92383625
0.90856623
0.89329621
0.87802618
0.86275616
0.84748614
0.83221612
0.8169461
0.80167608
0.78640606
0.77113603
0.75586601
0.74059599
0.72532597
0.71005595
0.69478593
0.67951591
0.66424589
0.64897586
0.63370584
0.61843582
0.6031658
0.58789578
0.57262576
0.55735574
0.54208572
0.5268157
0.51154568
0.49627565
0.48100563
0.46573561
0.45046559
0.43519557
0.41992555
0.40465553
0.38938551
0.37411549
0.35884547
0.34357545
0.32830542
0.3130354
0.29776538
0.28249536
0.26722534
0.25195532
0.2366853
0.22141528
0.20614526
0.19087523
0.17560521
0.16033519
0.14506517
0.12979515
0.11452513
0.099255109
0.083985088
0.068715067
0.053445047
0.038175027
0.022905008
0.0076349969
1.5250605
1.5077064
1.4920202
1.4765433
1.4608299
1.4450384
1.4293366
1.4137482
1.398233
1.3827599
1.3673184
1.3519062
1.3365203
1.3211565
1.3058109
1.2904806
1.2751634
1.2598572
1.2445603
1.2292708
1.2139873
1.1987082
1.1834325
1.1681591
1.1528873
1.1376164
1.122346
1.107076
1.091806
1.0765361
1.0612662
1.0459963
1.0307263
1.0154563
1.0001863
0.98491633
0.96964631
0.95437629
0.93910627
0.92383625
0.90856623
0.8932962
0.87802618
0.86275616
0.84748614
0.83221612
0.8169461
0.80167608
0.78640606
0.77113603
0.75586601
0.74059599
0.72532597
0.71005595
0.69478593
0.67951591
0.66424589
0.64897586
0.63370584
0.61843582
0.6031658
0.58789578
0.57262576
0.55735574
0.54208572
0.5268157
0.51154568
0.49627565
0.48100563
0.46573561
0.45046559
0.43519557
0.41992555
0.40465553
0.38938551
0.37411549
0.35884547
0.34357545
0.32830542
0.3130354
0.29776538
0.28249536
0.26722534
0.25195532
0.2366853
0.22141528
0.20614526
0.19087523
0.17560521
0.16033519
0.14506517
0.12979515
0.11452513
0.099255109
0.083985087
0.068715066
0.053445044
0.038175023
0.022905001
0.0076349925
1.5243921
1.5068705
1.4915866
1.4764967
1.4609305
1.445135
1.4294043
1.4138063
1.3982914
1.3828152
1.3673659
1.351945
1.336552
1.3211828
1.3058329
1.2904988
1.2751782
1.2598693
1.2445699
1.2292784
1.213993
1.1987125
1.1834356
1.1681613
1.1528887
1.1376173
1.1223466
1.1070763
1.0918062
1.0765362
1.0612662
1.0459963
1.0307263
1.0154563
1.0001863
0.98491632
0.96964631
0.95437629
0.93910627
0.92383625
0.90856623
0.8932962
0.87802618
0.86275616
0.84748614
0.83221612
0.8169461
0.80167608
0.78640606
0.77113603
0.75586601
0.74059599
0.72532597
0.71005595
0.69478593
0.67951591
0.66424589
0.64897586
0.63370584
0.61843582
0.6031658
0.58789578
0.57262576
0.55735574
0.54208572
0.5268157
0.51154568
0.49627565
0.48100563
0.46573561
0.45046559
0.43519557
0.41992555
0.40465553
0.38938551
0.37411549
0.35884547
0.34357545
0.32830542
0.3130354
0.29776538
0.28249536
0.26722534
0.25195532
0.2366853
0.22141528
0.20614526
0.19087523
0.17560521
0.16033519
0.14506517
0.12979515
0.11452513
0.099255108
0.083985086
0.068715064
0.053445041
0.038175019
0.022904996
0.0076349891
1.5240176
1.5063811
1.4913146
1.4764555
1.460987
1.4451942
1.4294468
1.4138433
1.3983297
1.3828526
1.3673988
1.3519725
1.336575
1.3212022
1.3058493
1.2905126
1.2751898
1.2598788
1.2445776
1.2292845
1.2139979
1.1987162
1.1834383
1.1681632
1.15289
1.1376182
1.1223471
1.1070766
1.0918064
1.0765363
1.0612663
1.0459963
1.0307263
1.0154563
1.0001863
0.98491631
0.9696463
0.95437629
0.93910627
0.92383625
0.90856623
0.8932962
0.87802618
0.86275616
0.84748614
0.83221612
0.8169461
0.80167608
0.78640606
0.77113603
0.75586601
0.74059599
0.72532597
0.71005595
0.69478593
0.67951591
0.66424589
0.64897586
0.63370584
0.61843582
0.6031658
0.58789578
0.57262576
0.55735574
0.54208572
0.5268157
0.51154568
0.49627565
0.48100563
0.46573561
0.45046559
0.43519557
0.41992555
0.40465553
0.38938551
0.37411549
0.35884547
0.34357545
0.32830542
0.3130354
0.29776538
0.28249536
0.26722534
0.25195532
0.2366853
0.22141528
0.20614526
0.19087523
0.17560521
0.16033519
0.14506517
0.12979515
0.11452513
0.099255107
0.083985085
0.068715063
0.053445039
0.038175017
0.022904993
0.0076349873
1.5240176
1.5063812
1.4913146
1.4764555
1.4609869
1.4451942
1.4294468
1.4138433
1.3983297
1.3828526
1.3673988
1.3519725
1.336575
1.3212022
1.3058493
1.2905126
1.2751898
1.2598788
1.2445776
1.2292845
1.2139979
1.1987162
1.1834383
1.1681632
1.15289
1.1376182
1.1223471
1.1070766
1.0918064
1.0765363
1.0612663
1.0459963
1.0307263
1.0154563
1.0001863
0.98491631
0.9696463
0.95437629
0.93910627
0.92383625
0.90856623
0.8932962
0.87802618
0.86275616
0.84748614
0.83221612
0.8169461
0.80167608
0.78640606
0.77113603
0.75586601
0.74059599
0.72532597
0.71005595
0.69478593
0.67951591
0.66424589
0.64897586
0.63370584
0.61843582
0.6031658
0.58789578
0.57262576
0.55735574
0.54208572
0.5268157
0.51154568
0.49627565
0.48100563
0.46573561
0.45046559
0.43519557
0.41992555
0.40465553
0.38938551
0.37411549
0.35884547
0.34357545
0.32830542
0.3130354
0.29776538
0.28249536
0.26722534
0.25195532
0.2366853
0.22141528
0.20614526
0.19087523
0.17560521
0.16033519
0.14506517
0.12979515
0.11452513
0.099255107
0.083985085
0.068715063
0.053445039
0.038175017
0.022904993
0.0076349872
1.5243921
1.5068705
1.4915866
1.4764967
1.4609305
1.445135
1.4294043
1.4138063
1.3982914
1.3828152
1.3673659
1.351945
1.336552
1.3211828
1.3058329
1.2904988
1.2751782
1.2598692
1.2445699
1.2292783
1.213993
1.1987125
1.1834356
1.1681613
1.1528887
1.1376173
1.1223466
1.1070763
1.0918062
1.0765362
1.0612662
1.0459963
1.0307263
1.0154563
1.0001863
0.98491632
0.96964631
0.95437629
0.93910627
0.92383625
0.90856623
0.8932962
0.87802618
0.86275616
0.84748614
0.83221612
0.8169461
0.80167608
0.78640606
0.77113603
0.75586601
0.74059599
0.72532597
0.71005595
0.69478593
0.67951591
0.66424589
0.64897586
0.63370584
0.61843582
0.6031658
0.58789578
0.57262576
0.55735574
0.54208572
0.5268157
0.51154568
0.49627565
0.48100563
0.46573561
0.45046559
0.43519557
0.41992555
0.40465553
0.38938551
0.37411549
0.35884547
0.34357545
0.32830542
0.3130354
0.29776538
0.28249536
0.26722534
0.25195532
0.2366853
0.22141528
0.20614526
0.19087523
0.17560521
0.16033519
0.14506517
0.12979515
0.11452513
0.099255107
0.083985085
0.068715063
0.053445041
0.038175019
0.022904996
0.0076349889
1.5250605
1.5077064
1.4920202
1.4765432
1.4608298
1.4450384
1.4293366
1.4137482
1.398233
1.3827599
1.3673184
1.3519062
1.3365203
1.3211565
1.3058109
1.2904806
1.2751634
1.2598572
1.2445603
1.2292708
1.2139873
1.1987082
1.1834325
1.1681591
1.1528873
1.1376164
1.122346
1.107076
1.091806
1.0765361
1.0612662
1.0459963
1.0307263
1.0154563
1.0001863
0.98491633
0.96964631
0.95437629
0.93910627
0.92383625
0.90856623
0.89329621
0.87802618
0.86275616
0.84748614
0.83221612
0.8169461
0.80167608
0.78640606
0.77113603
0.75586601
0.74059599
0.72532597
0.71005595
0.69478593
0.67951591
0.66424589
0.64897586
0.63370584
0.61843582
0.6031658
0.58789578
0.57262576
0.55735574
0.54208572
0.5268157
0.51154568
0.49627565
0.48100563
0.46573561
0.45046559
0.43519557
0.41992555
0.40465553
0.38938551
0.37411549
0.35884547
0.34357545
0.32830542
0.3130354
0.29776538
0.28249536
0.26722534
0.25195532
0.2366853
0.22141528
0.20614526
0.19087523
0.17560521
0.16033519
0.14506517
0.12979515
0.11452513
0.099255108
0.083985086
0.068715065
0.053445043
0.038175023
0.022905001
0.0076349922
1.5258016
1.5085626
1.4923958
1.4765298
1.4606986
1.4449292
1.4292615
1.4136856
1.3981741
1.3827072
1.367275
1.3518716
1.3364927
1.3211342
1.3057929
1.2904663
1.2751522
1.2598485
1.2445537
1.2292659
1.2139837
1.1987058
1.1834308
1.168158
1.1528866
1.1376159
1.1223458
1.1070758
1.091806
1.0765361
1.0612662
1.0459963
1.0307263
1.0154563
1.0001863
0.98491633
0.96964631
0.95437629
0.93910627
0.92383625
0.90856623
0.89329621
0.87802618
0.86275616
0.84748614
0.83221612
0.8169461
0.80167608
0.78640606
0.77113603
0.75586601
0.74059599
0.72532597
0.71005595
0.69478593
0.67951591
0.66424589
0.64897586
0.63370584
0.61843582
0.6031658
0.58789578
0.57262576
0.55735574
0.54208572
0.5268157
0.51154568
0.49627565
0.48100563
0.46573561
0.45046559
0.43519557
0.41992555
0.40465553
0.38938551
0.37411549
0.35884547
0.34357545
0.32830542
0.3130354
0.29776538
0.28249536
0.26722534
0.25195532
0.2366853
0.22141528
0.20614526
0.19087523
0.17560521
0.16033519
0.14506517
0.12979515
0.11452513
0.099255108
0.083985087
0.068715067
0.053445046
0.038175028
0.022905007
0.0076349967
1.5262542
1.5090197
1.4924941
1.4763915
1.460518
1.4447847
1.4291517
1.4135957
1.3980986
1.3826455
1.3672259
1.3518331
1.3364623
1.3211103
1.3057743
1.290452
1.2751414
1.2598407
1.2445482
1.2292622
1.2139813
1.1987042
1.1834299
1.1681575
1.1528863
1.1376159
1.1223458
1.1070759
1.091806
1.0765361
1.0612662
1.0459963
1.0307263
1.0154563
1.0001863
0.98491633
0.96964631
0.95437629
0.93910627
0.92383625
0.90856623
0.89329621
0.87802618
0.86275616
0.84748614
0.83221612
0.8169461
0.80167608
0.78640606
0.77113603
0.75586601
0.74059599
0.72532597
0.71005595
0.69478593
0.67951591
0.66424589
0.64897586
0.63370584
0.61843582
0.6031658
0.58789578
0.57262576
0.55735574
0.54208572
0.5268157
0.51154568
0.49627565
0.48100563
0.46573561
0.45046559
0.43519557
0.41992555
0.40465553
0.38938551
0.37411549
0.35884547
0.34357545
0.32830542
0.3130354
0.29776538
0.28249536
0.26722534
0.25195532
0.2366853
0.22141528
0.20614526
0.19087523
0.17560521
0.16033519
0.14506517
0.12979515
0.11452513
0.099255108
0.083985088
0.068715067
0.053445048
0.03817503
0.022905012
0.0076350006
)
;

boundaryField
{
    top
    {
        type            zeroGradient;
    }
    inlet
    {
        type            fixedValue;
        value           uniform 1.5352;
    }
    outlet
    {
        type            fixedValue;
        value           uniform 0;
    }
    bottom
    {
        type            zeroGradient;
    }
    back
    {
        type            empty;
    }
    front
    {
        type            empty;
    }
}


// ************************************************************************* //
