/*--------------------------------*- C++ -*----------------------------------*\
| =========                 |                                                 |
| \\      /  F ield         | OpenFOAM: The Open Source CFD Toolbox           |
|  \\    /   O peration     | Version:  2112                                  |
|   \\  /    A nd           | Website:  www.openfoam.com                      |
|    \\/     M anipulation  |                                                 |
\*---------------------------------------------------------------------------*/
FoamFile
{
    version     2.0;
    format      ascii;
    arch        "LSB;label=32;scalar=64";
    class       surfaceScalarField;
    location    "6";
    object      phi;
}
// * * * * * * * * * * * * * * * * * * * * * * * * * * * * * * * * * * * * * //

dimensions      [0 3 -1 0 0 0 0];

oriented        oriented;

internalField   nonuniform List<scalar> 
1890
(
0.0021697188
5.0402359e-06
0.0021546991
1.5020793e-05
0.0021384408
1.62586e-05
0.0021254044
1.3036408e-05
0.0021158995
9.5051013e-06
0.002108784
7.1155821e-06
0.0021031761
5.6079341e-06
0.002098671
4.5050416e-06
0.0020950649
3.6061427e-06
0.002092183
2.8820426e-06
0.0020898623
2.3208986e-06
0.0020879754
1.8871238e-06
0.002086435
1.54054e-06
0.002085182
1.2531659e-06
0.0020841724
1.0098269e-06
0.0020833702
8.0237249e-07
0.0020827446
6.2571885e-07
0.0020822682
4.7646492e-07
0.0020819159
3.5238335e-07
0.0020816641
2.5176646e-07
0.0020814914
1.7278194e-07
0.0020813783
1.1311313e-07
0.0020813084
6.9946144e-08
0.0020812682
4.0240529e-08
0.0020812473
2.0931846e-08
0.0020812381
9.2102692e-09
0.0020812356
2.6163144e-09
0.002081236
-4.1616286e-10
0.0020812377
-1.6075801e-09
0.0020812395
-1.8115644e-09
0.0020812411
-1.552059e-09
0.0020812423
-1.1504163e-09
0.0020812431
-7.7179521e-10
0.0020812436
-4.7321508e-10
0.0020812439
-2.6697112e-10
0.002081244
-1.3449964e-10
0.0020812441
-5.8797338e-11
0.0020812441
-1.7363821e-11
0.0020812441
2.7383466e-13
0.0020812441
7.7691576e-12
0.0020812441
8.1978417e-12
0.0020812441
8.0007099e-12
0.0020812441
5.1895827e-12
0.0020812441
4.3898211e-12
0.0020812441
2.1672426e-12
0.0020812441
2.1171317e-12
0.0020812441
7.3500445e-13
0.0020812441
1.2006964e-12
0.0020812441
3.8711739e-13
0.0020812441
1.2034166e-12
0.0020812441
5.0451675e-13
0.0020812441
1.38185e-12
0.0020812441
6.8336008e-13
0.0020812441
1.5491677e-12
0.0020812441
6.8425852e-13
0.0020812441
1.3358088e-12
0.0020812441
4.099628e-13
0.0020812441
8.9799995e-13
0.0020812441
-1.0524895e-13
0.0020812441
1.88693e-13
0.0020812441
-8.0034845e-13
0.0020812441
-2.9391483e-13
0.0020812441
-1.2989062e-12
0.0020812441
-6.5406319e-13
0.0020812441
-1.485282e-12
0.0020812441
-6.2620641e-13
0.0020812441
-1.2867141e-12
0.0020812441
-3.7135416e-13
0.0020812441
-7.8279031e-13
0.0020812441
2.3970749e-13
0.0020812441
-1.5783031e-13
0.0020812441
8.1577372e-13
0.0020812441
3.0125167e-13
0.0020812441
1.3020549e-12
0.0020812441
5.8166385e-13
0.0020812441
1.4039187e-12
0.0020812441
5.8169222e-13
0.0020812441
1.2642268e-12
0.0020812441
3.3103979e-13
0.0020812441
7.8030565e-13
0.0020812441
-1.2674738e-13
0.0020812441
3.2209183e-13
0.0020812441
-6.3653797e-13
0.0020812441
-9.2252425e-14
0.0020812441
-9.3909698e-13
0.0020812441
-1.9246688e-13
0.0020812441
-9.1063228e-13
0.0020812441
-7.9504153e-14
0.0020812441
-3.4752339e-13
0.0020812441
8.2751534e-13
0.0020812441
1.03087e-12
0.0020812441
2.7009855e-12
0.0020812441
4.4179995e-12
0.0020812441
7.9168738e-12
0.002081244
1.5686908e-11
0.002081244
2.6522115e-11
0.002081244
5.1775598e-11
0.0020812439
8.130975e-11
0.0020812437
1.7878074e-10
2.3062854e-10
0.0049822999
5.5916335e-06
0.0049762841
2.103782e-05
0.0049660559
2.6486696e-05
0.0049549734
2.4118685e-05
0.0049447341
1.9744709e-05
0.0049356318
1.6218227e-05
0.004927589
1.3650742e-05
0.0049205699
1.1523981e-05
0.0049145578
9.6181077e-06
0.0049094823
7.9574449e-06
0.0049052287
6.5746014e-06
0.0049016778
5.4380846e-06
0.0048987285
4.4898745e-06
0.0048962984
3.6832936e-06
0.0048943182
2.9900822e-06
0.0048927274
2.393203e-06
0.0048914721
1.8810012e-06
0.0048905033
1.4453016e-06
0.0048897752
1.0805082e-06
0.0048892448
7.8217983e-07
0.004888872
5.4550833e-07
0.0048886207
3.6440532e-07
0.0048884593
2.3141219e-07
0.0048883614
1.3816277e-07
0.0048883062
7.6122247e-08
0.0048882782
3.7287246e-08
0.0048882661
1.4729977e-08
0.0048882629
2.9057461e-09
0.0048882637
-2.4000664e-09
0.004888266
-4.0770972e-09
0.0048882685
-3.9539358e-09
0.0048882705
-3.1399593e-09
0.004888272
-2.2095016e-09
0.0048882729
-1.418204e-09
0.0048882735
-8.3497853e-10
0.0048882738
-4.4991335e-10
0.004888274
-2.1467283e-10
0.0048882741
-8.5368218e-11
0.0048882741
-1.9386289e-11
0.0048882741
7.7380975e-12
0.0048882741
1.7580798e-11
0.0048882741
1.6679281e-11
0.0048882741
1.4196254e-11
0.0048882741
9.5528568e-12
0.0048882741
7.0801161e-12
0.0048882741
4.0008837e-12
0.0048882741
3.0065045e-12
0.0048882741
1.4977317e-12
0.0048882741
1.6498272e-12
0.0048882741
1.0559372e-12
0.0048882741
1.6913394e-12
0.0048882741
1.2872445e-12
0.0048882741
2.1486545e-12
0.0048882741
1.685091e-12
0.0048882741
2.3310958e-12
0.0048882741
1.5718168e-12
0.0048882741
1.9614663e-12
0.0048882741
1.025976e-12
0.0048882741
9.5850799e-13
0.0048882741
-4.4361103e-14
0.0048882741
-2.2326649e-13
0.004888274
-1.2223058e-12
0.004888274
-1.1363802e-12
0.004888274
-2.1204848e-12
0.004888274
-1.6335976e-12
0.004888274
-2.2508236e-12
0.004888274
-1.5209164e-12
0.004888274
-1.7883763e-12
0.004888274
-8.3344843e-13
0.004888274
-6.6328269e-13
0.004888274
3.0786127e-13
0.004888274
3.3841334e-13
0.0048882741
1.4490979e-12
0.004888274
1.2528551e-12
0.0048882741
2.1766809e-12
0.004888274
1.6432758e-12
0.0048882741
2.3383874e-12
0.004888274
1.5836909e-12
0.0048882741
1.8791719e-12
0.004888274
9.5968532e-13
0.0048882741
9.8747304e-13
0.004888274
1.9685422e-13
0.0048882741
6.3450735e-14
0.0048882741
-8.0371398e-13
0.0048882741
-4.6499554e-13
0.0048882741
-1.1745633e-12
0.0048882741
-5.2739743e-13
0.0048882741
-8.9641167e-13
0.0048882741
3.1482741e-13
0.004888274
6.9711848e-13
0.004888274
3.2595846e-12
0.004888274
4.2327737e-12
0.004888274
1.0556424e-11
0.004888274
1.5405684e-11
0.004888274
3.2323379e-11
0.004888274
4.8126679e-11
0.004888274
9.032726e-11
0.0048882739
1.3283683e-10
0.0048882738
2.307748e-10
2.9890518e-10
0.0066789456
3.8829822e-06
0.0066828279
1.7155946e-05
0.0066856263
2.3687935e-05
0.0066865146
2.3230487e-05
0.0066860664
2.0193692e-05
0.006684826
1.7459081e-05
0.0066831109
1.5365827e-05
0.006681139
1.349558e-05
0.0066790893
1.1667631e-05
0.0066770913
9.9554137e-06
0.0066752218
8.4440958e-06
0.00667352
7.1399396e-06
0.0066720033
6.0065636e-06
0.0066706767
5.0099627e-06
0.0066695365
4.130266e-06
0.0066685739
3.3558517e-06
0.0066677766
2.6783326e-06
0.0066671303
2.091579e-06
0.0066666192
1.5915577e-06
0.0066662263
1.1750879e-06
0.0066659336
8.3816025e-07
0.0066657232
5.7479059e-07
0.0066655778
3.7677458e-07
0.0066654817
2.3421664e-07
0.0066654215
1.3641602e-07
0.0066653859
7.2890507e-08
0.0066653665
3.4192882e-08
0.006665357
1.2465356e-08
0.0066653532
1.4442847e-09
0.0066653523
-3.1746148e-09
0.0066653528
-4.3405329e-09
0.0066653536
-3.9344918e-09
0.0066653544
-2.9976424e-09
0.0066653551
-2.0399945e-09
0.0066653555
-1.2680799e-09
0.0066653558
-7.2164234e-10
0.006665356
-3.7240308e-10
0.006665356
-1.6710837e-10
0.0066653561
-5.8317541e-11
0.0066653561
-5.7120471e-12
0.0066653561
1.4374057e-11
0.0066653561
1.9489313e-11
0.0066653561
1.6870513e-11
0.0066653561
1.3411451e-11
0.0066653561
8.9892515e-12
0.0066653561
6.2826691e-12
0.0066653561
3.7554393e-12
0.0066653561
2.7298313e-12
0.0066653561
1.8090494e-12
0.0066653561
1.8004697e-12
0.0066653561
1.5960013e-12
0.0066653561
2.052107e-12
0.0066653561
1.974897e-12
0.0066653561
2.4294372e-12
0.0066653561
2.1394144e-12
0.0066653561
2.3300569e-12
0.0066653561
1.7707375e-12
0.0066653561
1.5353858e-12
0.0066653561
8.2634508e-13
0.0066653561
1.4787253e-13
0.0066653561
-5.3176207e-13
0.0066653561
-1.0129758e-12
0.0066653561
-1.8086679e-12
0.0066653561
-1.8900237e-12
0.0066653561
-2.4045997e-12
0.0066653561
-2.12229e-12
0.0066653561
-2.2269679e-12
0.0066653561
-1.6355396e-12
0.0066653561
-1.2548118e-12
0.0066653561
-6.1542657e-13
0.0066653561
4.7598752e-14
0.0066653561
8.2019728e-13
0.0066653561
1.1661477e-12
0.0066653561
1.9533831e-12
0.0066653561
1.9572899e-12
0.0066653561
2.5066103e-12
0.0066653561
2.1926774e-12
0.0066653561
2.3655508e-12
0.0066653561
1.8017722e-12
0.0066653561
1.6178661e-12
0.0066653561
1.0436712e-12
0.0066653561
5.3972453e-13
0.0066653561
1.0313796e-13
0.0066653561
-2.8479675e-13
0.0066653561
-6.8062066e-13
0.0066653561
-6.132818e-13
0.0066653561
-6.2517818e-13
0.0066653561
-2.3197557e-13
0.0066653561
6.5118683e-13
0.0066653561
1.715587e-12
0.0066653561
3.7996951e-12
0.0066653561
6.42431e-12
0.0066653561
1.2935361e-11
0.0066653561
2.0456799e-11
0.0066653561
3.720764e-11
0.0066653561
5.3907969e-11
0.0066653561
8.9740153e-11
0.0066653561
1.2812384e-10
0.0066653561
1.955373e-10
2.5083653e-10
0.0076132366
1.8775675e-06
0.0076212635
9.1291059e-06
0.0076316799
1.3271006e-05
0.0076413679
1.3542675e-05
0.0076494311
1.2131248e-05
0.0076561315
1.0759268e-05
0.0076617935
9.7037521e-06
0.007666562
8.7268596e-06
0.0076705168
7.7127036e-06
0.0076737588
6.7133832e-06
0.0076764062
5.7968161e-06
0.0076785657
4.9804608e-06
0.0076803216
4.2507274e-06
0.0076817388
3.5928341e-06
0.0076828698
2.9993907e-06
0.0076837586
2.4670815e-06
0.0076844435
1.9934925e-06
0.0076849583
1.5769094e-06
0.0076853334
1.216484e-06
0.0076855968
9.1167574e-07
0.0076857738
6.6115923e-07
0.0076858866
4.6203702e-07
0.0076859538
3.0962096e-07
0.0076859903
1.9771289e-07
0.0076860076
1.1924017e-07
0.0076860136
6.6951912e-08
0.0076860138
3.4070972e-08
0.0076860115
1.480123e-08
0.0076860085
4.4867361e-09
0.0076860059
-4.6926191e-10
0.0076860038
-2.2273035e-09
0.0076860023
-2.4530302e-09
0.0076860014
-2.0352385e-09
0.0076860009
-1.4617455e-09
0.0076860005
-9.4214878e-10
0.0076860004
-5.5532591e-10
0.0076860003
-2.9405982e-10
0.0076860003
-1.3847291e-10
0.0076860003
-5.0335444e-11
0.0076860003
-9.3543102e-12
0.0076860003
1.0403863e-11
0.0076860003
1.2999451e-11
0.0076860003
1.3968824e-11
0.0076860003
9.2238574e-12
0.0076860003
8.0372709e-12
0.0076860003
3.9701229e-12
0.0076860003
3.9306522e-12
0.0076860003
1.4958672e-12
0.0076860004
2.4105196e-12
0.0076860004
9.2576793e-13
0.0076860004
2.4471467e-12
0.0076860004
1.1847801e-12
0.0076860004
2.761022e-12
0.0076860004
1.36241e-12
0.0076860004
2.8026376e-12
0.0076860004
1.1657775e-12
0.0076860004
2.1400666e-12
0.0076860004
4.4098798e-13
0.0076860004
1.0209937e-12
0.0076860004
-8.1676893e-13
0.0076860004
-2.2575279e-13
0.0076860003
-2.0617221e-12
0.0076860003
-1.0274013e-12
0.0076860003
-2.7412707e-12
0.0076860003
-1.3924745e-12
0.0076860003
-2.7576985e-12
0.0076860003
-1.0614313e-12
0.0076860003
-1.94842e-12
0.0076860003
-3.1641036e-13
0.0076860003
-8.1317012e-13
0.0076860003
1.0552243e-12
0.0076860003
3.0772123e-13
0.0076860003
2.1148816e-12
0.0076860003
1.0167735e-12
0.0076860003
2.7674928e-12
0.0076860003
1.3507883e-12
0.0076860004
2.7305024e-12
0.0076860004
1.1019525e-12
0.0076860004
2.2039377e-12
0.0076860004
5.7319882e-13
0.0076860004
1.3251612e-12
0.0076860004
-2.7240045e-13
0.0076860004
5.681475e-13
0.0076860004
-8.8418645e-13
0.0076860004
1.751105e-13
0.0076860004
-9.6896319e-13
0.0076860004
5.4773282e-13
0.0076860004
-4.9919984e-14
0.0076860004
2.0616929e-12
0.0076860003
1.6590848e-12
0.0076860003
5.3976478e-12
0.0076860003
6.214031e-12
0.0076860003
1.3940089e-11
0.0076860003
1.8468079e-11
0.0076860004
3.2677363e-11
0.0076860004
4.0934978e-11
0.0076860004
6.3845051e-11
0.0076860004
8.34311e-11
0.0076860005
1.1740904e-10
1.4782461e-10
0.0080223199
-9.4992432e-12
0.008031449
-1.3255382e-10
0.0080447195
-2.6702255e-10
0.0080582625
-1.8134905e-10
0.0080703947
7.4495303e-11
0.0080811546
2.1965436e-10
0.0080908582
1.8750018e-10
0.0080995847
8.95226e-11
0.0081072972
6.9352026e-11
0.0081140105
8.3064729e-11
0.0081198074
9.1312637e-11
0.008124788
5.8378537e-11
0.0081290388
2.0207002e-11
0.0081326318
-1.7111073e-11
0.0081356313
-3.2898785e-11
0.0081380986
-4.1637416e-11
0.0081400923
-3.7241723e-11
0.0081416693
-2.7262285e-11
0.0081428859
-8.9547835e-12
0.0081437976
1.8469668e-11
0.0081444588
5.166901e-11
0.0081449208
9.0074963e-11
0.0081452304
1.2985089e-10
0.008145428
1.7205949e-10
0.0081455471
2.0741099e-10
0.0081456139
2.3785146e-10
0.0081456478
2.5424735e-10
0.0081456624
2.6566988e-10
0.0081456667
2.5475359e-10
0.0081456661
2.4367204e-10
0.0081456637
2.1980817e-10
0.0081456611
1.9363531e-10
0.0081456589
1.6186299e-10
0.0081456573
1.3296333e-10
0.0081456563
1.031788e-10
0.0081456557
7.9603965e-11
0.0081456553
5.7220877e-11
0.0081456552
4.207171e-11
0.0081456551
2.7881355e-11
0.0081456551
1.9824453e-11
0.0081456551
1.1726122e-11
0.0081456551
8.1319818e-12
0.0081456551
3.7073971e-12
0.0081456551
2.925025e-12
0.0081456551
4.4880906e-13
0.0081456551
1.0798399e-12
0.0081456551
-2.836099e-13
0.0081456551
9.6504724e-13
0.0081456551
-4.5864158e-14
0.0081456551
1.5431977e-12
0.0081456551
7.1391425e-13
0.0081456551
2.133241e-12
0.0081456551
9.3598642e-13
0.0081456551
2.1983704e-12
0.0081456551
8.8597047e-13
0.0081456551
1.7217685e-12
0.0081456551
2.8949631e-14
0.0081456551
7.7377143e-13
0.0081456551
-9.2164732e-13
0.0081456551
-2.0537771e-13
0.0081456551
-2.0060798e-12
0.0081456551
-9.8436901e-13
0.0081456551
-2.3643688e-12
0.0081456551
-1.1754378e-12
0.0081456551
-2.3578011e-12
0.0081456551
-8.3320143e-13
0.0081456551
-1.5466562e-12
0.0081456551
5.6143695e-14
0.0081456551
-7.189652e-13
0.0081456551
1.0732431e-12
0.0081456551
3.1823782e-13
0.0081456551
1.9104674e-12
0.0081456551
8.003652e-13
0.0081456551
2.2239038e-12
0.0081456551
1.0489985e-12
0.0081456551
2.0921107e-12
0.0081456551
5.9176381e-13
0.0081456551
1.5384039e-12
0.0081456551
1.0335871e-13
0.0081456551
9.1158565e-13
0.0081456551
-6.8645935e-13
0.0081456551
3.5369555e-13
0.0081456551
-9.5797375e-13
0.0081456551
2.2373767e-13
0.0081456551
-9.3241963e-13
0.0081456551
6.8495621e-13
0.0081456551
4.1270042e-14
0.0081456551
1.9136253e-12
0.0081456551
1.362248e-12
0.0081456551
3.7926064e-12
0.0081456551
4.0304651e-12
0.0081456551
7.8295537e-12
0.0081456551
9.4905607e-12
0.0081456552
1.5039526e-11
0.0081456552
1.7192822e-11
0.0081456552
1.9766354e-11
0.0081456552
2.1088783e-11
0.0081456553
2.0411662e-11
0.0081456554
2.0564811e-11
2.1827547e-11
0.0080223183
-1.8776381e-06
0.0080314471
-9.1292824e-06
0.0080447175
-1.3270976e-05
0.0080582606
-1.3542602e-05
0.0080703929
-1.2131238e-05
0.008081153
-1.0759208e-05
0.0080908568
-9.7036068e-06
0.0080995834
-8.7267006e-06
0.0081072959
-7.7125567e-06
0.0081140093
-6.7132613e-06
0.0081198063
-5.7967175e-06
0.0081247869
-4.9804123e-06
0.0081290378
-4.2507329e-06
0.0081326308
-3.5928968e-06
0.0081356304
-2.9994869e-06
0.0081380978
-2.4671964e-06
0.0081400915
-1.9936009e-06
0.0081416686
-1.5769976e-06
0.0081428852
-1.2165328e-06
0.008143797
-9.1167124e-07
0.0081444582
-6.6108787e-07
0.0081449202
-4.6189059e-07
0.0081452298
-3.0939419e-07
0.0081454275
-1.9740754e-07
0.0081455466
-1.1886471e-07
0.0081456135
-6.6516826e-08
0.0081456474
-3.3616927e-08
0.0081456621
-1.4313872e-08
0.0081456664
-4.0304849e-09
0.0081456658
9.135178e-10
0.0081456635
2.623725e-09
0.0081456609
2.7986443e-09
0.0081456588
2.3233356e-09
0.0081456573
1.6957678e-09
0.0081456563
1.1235338e-09
0.0081456557
6.9328259e-10
0.0081456553
3.9359872e-10
0.0081456552
2.0996501e-10
0.0081456551
9.7916271e-11
0.0081456551
4.154505e-11
0.0081456551
9.8806808e-12
0.0081456551
-7.714774e-13
0.0081456551
-7.8301948e-12
0.0081456551
-5.6763331e-12
0.0081456552
-7.2509178e-12
0.0081456552
-3.1981692e-12
0.0081456552
-4.0589435e-12
0.0081456552
-8.6179908e-13
0.0081456552
-1.7922896e-12
0.0081456552
1.0522989e-12
0.0081456552
-2.6732813e-13
0.0081456552
1.7727148e-12
0.0081456552
-2.1580314e-14
0.0081456552
1.8066775e-12
0.0081456552
-2.7936815e-13
0.0081456552
1.0403425e-12
0.0081456552
-1.3089103e-12
0.0081456552
2.2424501e-13
0.0081456552
-2.1050789e-12
0.0081456552
-4.8103427e-13
0.0081456552
-2.7516556e-12
0.0081456552
-6.3086087e-13
0.0081456552
-2.5855162e-12
0.0081456552
-4.7251942e-13
0.0081456552
-2.0294445e-12
0.0081456552
3.2863108e-13
0.0081456552
-1.0188468e-12
0.0081456552
1.2574628e-12
0.0081456552
-2.2601999e-13
0.0081456552
2.1344314e-12
0.0081456552
3.5320112e-13
0.0081456552
2.3646624e-12
0.0081456552
3.5361976e-13
0.0081456552
2.2392744e-12
0.0081456552
1.0661991e-13
0.0081456552
1.5436438e-12
0.0081456552
-6.833369e-13
0.0081456552
9.4309401e-13
0.0081456552
-1.2754224e-12
0.0081456552
2.7961333e-13
0.0081456552
-1.7630006e-12
0.0081456552
2.1004277e-13
0.0081456552
-1.5687283e-12
0.0081456552
4.2805303e-13
0.0081456552
-1.0019732e-12
0.0081456552
1.5936086e-12
0.0081456552
2.9161768e-13
0.0081456552
3.0007949e-12
0.0081456552
1.3998289e-12
0.0081456552
4.953797e-12
0.0081456552
3.1141461e-12
0.0081456552
7.4093357e-12
0.0081456552
4.4315851e-12
0.0081456552
7.682627e-12
0.0081456552
-5.3030089e-13
0.0081456552
-5.2448689e-12
0.0081456553
-2.5052292e-11
0.0081456553
-4.6506851e-11
0.0081456554
-7.9620619e-11
-1.0893433e-10
0.0076132317
-3.8828815e-06
0.0076212589
-1.7155787e-05
0.0076316756
-2.3688084e-05
0.0076413639
-2.3230719e-05
0.0076494271
-2.0193833e-05
0.0076561276
-1.7459102e-05
0.0076617898
-1.5365843e-05
0.0076665586
-1.3495577e-05
0.0076705135
-1.1667642e-05
0.0076737557
-9.9554137e-06
0.0076764032
-8.4441309e-06
0.007678563
-7.1399949e-06
0.007680319
-6.00667e-06
0.0076817363
-5.0100921e-06
0.0076828673
-4.1304252e-06
0.0076837563
-3.3560082e-06
0.0076844413
-2.6784815e-06
0.0076849561
-2.0916955e-06
0.0076853313
-1.5916344e-06
0.0076855948
-1.175112e-06
0.0076857719
-8.3812458e-07
0.0076858848
-5.7469306e-07
0.0076859521
-3.7661019e-07
0.0076859888
-2.3399607e-07
0.0076860062
-1.3614182e-07
0.0076860123
-7.2587203e-08
0.0076860127
-3.3847459e-08
0.0076860106
-1.2143233e-08
0.0076860077
-1.1017866e-09
0.0076860052
3.4812207e-09
0.0076860033
4.6184946e-09
0.007686002
4.1686081e-09
0.0076860012
3.1947427e-09
0.0076860007
2.1928913e-09
0.0076860005
1.3889801e-09
0.0076860004
8.0737919e-10
0.0076860003
4.3710682e-10
0.0076860003
2.0817472e-10
0.0076860004
8.7883727e-11
0.0076860004
2.1899868e-11
0.0076860004
-2.2782138e-12
0.0076860004
-1.6180737e-11
0.0076860004
-1.3016519e-11
0.0076860004
-1.5008034e-11
0.0076860005
-7.7928784e-12
0.0076860004
-8.6409439e-12
0.0076860005
-2.817053e-12
0.0076860005
-4.3724247e-12
0.0076860005
2.6292611e-14
0.0076860005
-1.9235744e-12
0.0076860005
1.5720911e-12
0.0076860005
-1.3495289e-12
0.0076860005
1.7713166e-12
0.0076860005
-1.4554556e-12
0.0076860005
1.1887076e-12
0.0076860005
-2.2806579e-12
0.0076860005
3.8507511e-13
0.0076860005
-2.8186653e-12
0.0076860005
-1.1576902e-13
0.0076860005
-3.2395199e-12
0.0076860005
-1.4085059e-13
0.0076860005
-2.8439332e-12
0.0076860005
2.7853016e-13
0.0076860005
-2.3129907e-12
0.0076860005
1.2598507e-12
0.0076860005
-1.2822332e-12
0.0076860005
2.090207e-12
0.0076860004
-5.6140278e-13
0.0076860005
2.7050789e-12
0.0076860004
-1.0097918e-13
0.0076860005
2.768321e-12
0.0076860005
-3.4296601e-13
0.0076860005
2.4311053e-12
0.0076860005
-8.5137615e-13
0.0076860005
1.7311704e-12
0.0076860005
-1.7751723e-12
0.0076860005
9.8649958e-13
0.0076860005
-2.2399532e-12
0.0076860005
4.473955e-13
0.0076860005
-2.6368451e-12
0.0076860005
4.3184857e-13
0.0076860005
-2.2881962e-12
0.0076860005
9.5476823e-13
0.0076860005
-1.7111585e-12
0.0076860005
1.9745004e-12
0.0076860005
-2.6954442e-13
0.0076860005
3.2399225e-12
0.0076860005
7.7826133e-13
0.0076860005
4.5451782e-12
0.0076860005
1.9957653e-12
0.0076860005
5.3687265e-12
0.0076860005
2.3375099e-12
0.0076860005
2.9536937e-12
0.0076860005
-3.2735292e-12
0.0076860005
-1.2403682e-11
0.0076860005
-2.8421357e-11
0.0076860005
-6.0943367e-11
0.0076860006
-1.0101287e-10
0.0076860007
-1.6856426e-10
-2.2400093e-10
0.0066789406
-5.5916009e-06
0.0066828228
-2.1037698e-05
0.0066856215
-2.6486719e-05
0.00668651
-2.4118946e-05
0.0066860619
-1.9745062e-05
0.0066848215
-1.6218475e-05
0.0066831065
-1.3650852e-05
0.0066811348
-1.1524007e-05
0.0066790852
-9.618139e-06
0.0066770874
-7.9574985e-06
0.006675218
-6.5746786e-06
0.0066735163
-5.4381689e-06
0.0066719998
-4.4899768e-06
0.0066706732
-3.683411e-06
0.0066695332
-2.9902156e-06
0.0066685707
-2.3933353e-06
0.0066677735
-1.8811217e-06
0.0066671273
-1.445397e-06
0.0066666164
-1.0805718e-06
0.0066662236
-7.8220672e-07
0.0066659311
-5.4549536e-07
0.0066657209
-3.6435425e-07
0.0066655757
-2.3132282e-07
0.0066654798
-1.3804266e-07
0.0066654198
-7.5979356e-08
0.0066653844
-3.712428e-08
0.0066653653
-1.4566192e-08
0.0066653559
-2.7139002e-09
0.0066653524
2.563622e-09
0.0066653517
4.2300635e-09
0.0066653523
4.0896588e-09
0.0066653533
3.2527659e-09
0.0066653542
2.3017967e-09
0.0066653549
1.4884577e-09
0.0066653555
8.8826314e-10
0.0066653558
4.8671841e-10
0.006665356
2.408711e-10
0.0066653561
1.0083174e-10
0.0066653562
2.944263e-11
0.0066653562
-3.4296579e-12
0.0066653562
-1.4953801e-11
0.0066653563
-1.7356392e-11
0.0066653563
-1.4719692e-11
0.0066653563
-1.1602262e-11
0.0066653563
-7.8458246e-12
0.0066653563
-5.7406481e-12
0.0066653563
-3.3547939e-12
0.0066653563
-2.2727834e-12
0.0066653563
-8.6784649e-13
0.0066653563
-8.0886626e-13
0.0066653563
-1.1203409e-13
0.0066653563
-4.6369496e-13
0.0066653563
-2.6308276e-14
0.0066653563
-8.2199053e-13
0.0066653563
-7.0973929e-13
0.0066653563
-1.2389439e-12
0.0066653563
-1.0041155e-12
0.0066653563
-1.5880755e-12
0.0066653563
-1.2995475e-12
0.0066653563
-1.4378392e-12
0.0066653563
-8.3414163e-13
0.0066653563
-1.0200264e-12
0.0066653563
-3.8707204e-13
0.0066653563
-3.5446479e-13
0.0066653562
5.2334743e-13
0.0066653563
2.9446291e-13
0.0066653562
8.5460104e-13
0.0066653563
7.5836909e-13
0.0066653562
1.2521811e-12
0.0066653563
7.2172043e-13
0.0066653563
8.6157414e-13
0.0066653563
3.6326834e-13
0.0066653563
5.610146e-13
0.0066653563
-2.5989246e-13
0.0066653563
-1.5683421e-13
0.0066653563
-7.5792788e-13
0.0066653563
-4.6858904e-13
0.0066653563
-1.0855442e-12
0.0066653563
-7.874804e-13
0.0066653563
-9.5577675e-13
0.0066653563
-3.3300387e-13
0.0066653563
-5.4116957e-13
0.0066653563
1.2477314e-13
0.0066653563
2.0887155e-13
0.0066653563
1.1850063e-12
0.0066653563
1.1486213e-12
0.0066653563
1.8421909e-12
0.0066653563
2.0488305e-12
0.0066653563
2.6949346e-12
0.0066653563
2.6134206e-12
0.0066653563
2.3104101e-12
0.0066653563
1.5128453e-12
0.0066653563
-1.9807226e-12
0.0066653563
-7.1722465e-12
0.0066653563
-2.0030655e-11
0.0066653563
-3.3381539e-11
0.0066653563
-7.6240927e-11
0.0066653563
-1.1902775e-10
0.0066653563
-2.1789805e-10
-2.8680062e-10
0.0049822961
-5.0399822e-06
0.00497628
-1.5020349e-05
0.0049660521
-1.6258292e-05
0.0049549698
-1.3036442e-05
0.0049447305
-9.5053666e-06
0.004935628
-7.115839e-06
0.0049275853
-5.6079921e-06
0.0049205663
-4.5049845e-06
0.0049145543
-3.6060609e-06
0.004909479
-2.8820021e-06
0.0049052254
-2.3208566e-06
0.0049016746
-1.8870816e-06
0.0048987254
-1.5404844e-06
0.0048962955
-1.2531291e-06
0.0048943154
-1.0098025e-06
0.0048927247
-8.0236937e-07
0.0048914696
-6.2572293e-07
0.0048905009
-4.7647604e-07
0.004889773
-3.5239437e-07
0.0048892427
-2.5177281e-07
0.0048888702
-1.7278192e-07
0.004888619
-1.1309945e-07
0.0048884577
-6.9921422e-08
0.00488836
-4.0201534e-08
0.004888305
-2.0885622e-08
0.0048882772
-9.1483145e-09
0.0048882653
-2.5557042e-09
0.0048882622
4.829636e-10
0.0048882632
1.6654335e-09
0.0048882657
1.8666828e-09
0.0048882682
1.5952745e-09
0.0048882703
1.1890121e-09
0.0048882719
7.9808441e-10
0.0048882729
4.9648101e-10
0.0048882735
2.8005025e-10
0.0048882739
1.4652114e-10
0.0048882741
6.3425968e-11
0.0048882742
2.2449865e-11
0.0048882742
-9.6246543e-14
0.0048882742
-5.6320201e-12
0.0048882742
-1.0258054e-11
0.0048882742
-6.8002271e-12
0.0048882742
-7.7499971e-12
0.0048882742
-3.2430641e-12
0.0048882742
-4.3797549e-12
0.0048882742
-8.5077231e-13
0.0048882742
-2.3788355e-12
0.0048882742
5.6394415e-13
0.0048882742
-1.556723e-12
0.0048882742
9.2474783e-13
0.0048882742
-1.3913539e-12
0.0048882742
9.9515454e-13
0.0048882742
-1.5566264e-12
0.0048882742
6.1946242e-13
0.0048882742
-1.794677e-12
0.0048882742
5.08718e-13
0.0048882742
-1.9362183e-12
0.0048882742
3.1705711e-13
0.0048882742
-1.9059026e-12
0.0048882742
6.0602932e-13
0.0048882742
-1.7137064e-12
0.0048882742
7.7582223e-13
0.0048882742
-1.4265072e-12
0.0048882742
1.2007246e-12
0.0048882742
-1.1029497e-12
0.0048882742
1.3277907e-12
0.0048882742
-9.2909904e-13
0.0048882742
1.558201e-12
0.0048882742
-8.8459637e-13
0.0048882742
1.4006117e-12
0.0048882742
-1.0276555e-12
0.0048882742
1.3648944e-12
0.0048882742
-1.1986546e-12
0.0048882742
1.0543014e-12
0.0048882742
-1.3403899e-12
0.0048882742
1.0432909e-12
0.0048882742
-1.396525e-12
0.0048882742
9.4182581e-13
0.0048882742
-1.3182894e-12
0.0048882742
1.2287999e-12
0.0048882742
-1.1057539e-12
0.0048882742
1.3813261e-12
0.0048882742
-8.1337983e-13
0.0048882742
1.7812225e-12
0.0048882742
-4.3616346e-13
0.0048882742
1.9314664e-12
0.0048882742
-1.96118e-13
0.0048882742
2.2145652e-12
0.0048882742
-5.138507e-14
0.0048882742
2.1919741e-12
0.0048882742
-5.9533261e-13
0.0048882742
9.5888127e-13
0.0048882742
-4.7525427e-12
0.0048882742
-4.8203385e-12
0.0048882742
-1.4334028e-11
0.0048882742
-2.2378043e-11
0.0048882741
-5.0639565e-11
0.0048882741
-7.8888953e-11
0.004888274
-1.7673212e-10
-2.2902062e-10
0.002169718
0.002154698
0.0021384398
0.0021254035
0.0021158983
0.0021087826
0.0021031746
0.0020986697
0.0020950637
0.0020921819
0.0020898612
0.0020879744
0.0020864341
0.0020851812
0.0020841715
0.0020833694
0.0020827438
0.0020822675
0.0020819152
0.0020816635
0.0020814908
0.0020813777
0.0020813079
0.0020812677
0.0020812469
0.0020812378
0.0020812353
0.0020812358
0.0020812376
0.0020812395
0.0020812411
0.0020812423
0.0020812431
0.0020812436
0.0020812439
0.0020812441
0.0020812441
0.0020812442
0.0020812442
0.0020812442
0.0020812442
0.0020812442
0.0020812442
0.0020812441
0.0020812441
0.0020812441
0.0020812441
0.0020812441
0.0020812441
0.0020812441
0.0020812441
0.0020812441
0.0020812441
0.0020812441
0.0020812441
0.0020812441
0.0020812441
0.0020812441
0.0020812441
0.0020812441
0.0020812441
0.0020812441
0.0020812441
0.0020812441
0.0020812441
0.0020812441
0.0020812441
0.0020812441
0.0020812441
0.0020812441
0.0020812441
0.0020812441
0.0020812441
0.0020812441
0.0020812441
0.0020812441
0.0020812441
0.0020812441
0.0020812441
0.0020812441
0.0020812441
0.0020812441
0.0020812441
0.0020812441
0.0020812441
0.0020812441
0.0020812441
0.0020812441
0.0020812441
0.0020812441
0.0020812441
0.0020812441
0.0020812441
0.0020812441
0.0020812441
0.0020812441
0.002081244
0.0020812439
0.0020812438
)
;

boundaryField
{
    top
    {
        type            calculated;
        value           uniform 0;
    }
    inlet
    {
        type            calculated;
        value           nonuniform List<scalar> 10(-0.0021747571 -0.00498285 -0.0066772356 -0.0076112304 -0.0080204416 -0.0080204399 -0.0076112257 -0.0066772306 -0.0049828463 -0.002174757);
    }
    outlet
    {
        type            calculated;
        value           nonuniform List<scalar> 10(0.0020812435 0.0048882738 0.0066653562 0.0076860006 0.0081456555 0.0081456556 0.0076860008 0.0066653564 0.004888274 0.0020812435);
    }
    bottom
    {
        type            calculated;
        value           uniform 0;
    }
    back
    {
        type            empty;
        value           nonuniform List<scalar> 0();
    }
    front
    {
        type            empty;
        value           nonuniform List<scalar> 0();
    }
}


// ************************************************************************* //
