/*--------------------------------*- C++ -*----------------------------------*\
| =========                 |                                                 |
| \\      /  F ield         | OpenFOAM: The Open Source CFD Toolbox           |
|  \\    /   O peration     | Version:  2112                                  |
|   \\  /    A nd           | Website:  www.openfoam.com                      |
|    \\/     M anipulation  |                                                 |
\*---------------------------------------------------------------------------*/
FoamFile
{
    version     2.0;
    format      ascii;
    arch        "LSB;label=32;scalar=64";
    class       volVectorField;
    location    "6";
    object      U;
}
// * * * * * * * * * * * * * * * * * * * * * * * * * * * * * * * * * * * * * //

dimensions      [0 1 -1 0 0 0 0];

internalField   nonuniform List<vector> 
1000
(
(0.21735441 0.00038647534 0)
(0.21650248 0.0010003837 0)
(0.21473149 0.00098855077 0)
(0.21315313 0.0006866199 0)
(0.2120165 0.0004252648 0)
(0.21120251 0.00028070465 0)
(0.21057754 0.00020573033 0)
(0.21007615 0.00015643273 0)
(0.20967277 0.00011847261 0)
(0.20935061 9.0378227e-05 0)
(0.20909274 7.0839289e-05 0)
(0.20888421 5.7004984e-05 0)
(0.20871421 4.6357333e-05 0)
(0.20857556 3.7547173e-05 0)
(0.20846325 3.0048226e-05 0)
(0.20837336 2.3644474e-05 0)
(0.2083026 1.8201059e-05 0)
(0.20824807 1.362444e-05 0)
(0.20820715 9.8561939e-06 0)
(0.2081774 6.848486e-06 0)
(0.20815658 4.5401582e-06 0)
(0.20814262 2.8478309e-06 0)
(0.20813374 1.6698282e-06 0)
(0.20812844 8.9563169e-07 0)
(0.20812553 4.1918495e-07 0)
(0.20812414 1.4978091e-07 0)
(0.20812362 1.1917004e-08 0)
(0.20812355 -5.491041e-08 0)
(0.20812368 -7.5031728e-08 0)
(0.20812386 -6.8348832e-08 0)
(0.20812404 -5.2510228e-08 0)
(0.20812418 -3.6031504e-08 0)
(0.20812428 -2.2621316e-08 0)
(0.20812434 -1.2933339e-08 0)
(0.20812438 -6.7292595e-09 0)
(0.2081244 -2.9871811e-09 0)
(0.20812441 -1.0483865e-09 0)
(0.20812441 -5.0596753e-11 0)
(0.20812441 2.9266483e-10 0)
(0.20812441 4.4473157e-10 0)
(0.20812441 3.5547618e-10 0)
(0.20812441 3.1281473e-10 0)
(0.20812441 1.7695801e-10 0)
(0.20812441 1.5230827e-10 0)
(0.20812441 5.8739911e-11 0)
(0.20812441 7.9506786e-11 0)
(0.20812441 1.4682813e-11 0)
(0.20812441 6.008491e-11 0)
(0.20812441 1.2826258e-11 0)
(0.20812441 7.0255261e-11 0)
(0.20812441 2.4954609e-11 0)
(0.20812441 7.9180583e-11 0)
(0.20812441 3.3469735e-11 0)
(0.20812441 8.3089809e-11 0)
(0.20812441 2.6030409e-11 0)
(0.20812441 6.5222279e-11 0)
(0.20812441 2.1824551e-12 0)
(0.20812441 3.9851861e-11 0)
(0.20812441 -2.9378711e-11 0)
(0.20812441 1.098116e-11 0)
(0.20812441 -5.3869749e-11 0)
(0.20812441 -1.2815543e-11 0)
(0.20812441 -7.2617556e-11 0)
(0.20812441 -2.7329475e-11 0)
(0.20812441 -7.4182448e-11 0)
(0.20812441 -1.6584055e-11 0)
(0.20812441 -5.8703942e-11 0)
(0.20812441 3.4693237e-12 0)
(0.20812441 -3.4634319e-11 0)
(0.20812441 3.2052096e-11 0)
(0.20812441 -1.0520414e-11 0)
(0.20812441 5.2897296e-11 0)
(0.20812441 1.3052664e-11 0)
(0.20812441 7.025046e-11 0)
(0.20812441 2.0607028e-11 0)
(0.20812441 6.6584091e-11 0)
(0.20812441 1.113546e-11 0)
(0.20812441 5.2984447e-11 0)
(0.20812441 -1.0921187e-11 0)
(0.20812441 2.9064549e-11 0)
(0.20812441 -3.1950245e-11 0)
(0.20812441 1.4183704e-11 0)
(0.20812441 -5.0165391e-11 0)
(0.20812441 -5.1657006e-12 0)
(0.20812441 -5.7554792e-11 0)
(0.20812441 -3.332348e-12 0)
(0.20812441 -4.8556183e-11 0)
(0.20812441 1.3406829e-11 0)
(0.20812441 -1.895312e-11 0)
(0.20812441 6.1470644e-11 0)
(0.20812441 6.8010001e-11 0)
(0.20812441 1.7885759e-10 0)
(0.20812441 2.7992606e-10 0)
(0.20812441 5.2251114e-10 0)
(0.2081244 1.003556e-09 0)
(0.2081244 1.7655833e-09 0)
(0.2081244 3.3551204e-09 0)
(0.20812439 5.4877432e-09 0)
(0.20812438 1.1383648e-08 0)
(0.20812436 1.4215144e-08 0)
(0.49800157 0.00052777168 0)
(0.49873885 0.0019573884 0)
(0.49749569 0.0024312601 0)
(0.49604671 0.002134744 0)
(0.49491101 0.00165389 0)
(0.49398649 0.0012800669 0)
(0.49315388 0.0010258392 0)
(0.49239834 0.00083305825 0)
(0.49173988 0.00067217035 0)
(0.49118392 0.00053955129 0)
(0.49071953 0.00043469691 0)
(0.49033182 0.00035259437 0)
(0.49000868 0.00028670601 0)
(0.48974114 0.00023216312 0)
(0.48952191 0.00018617498 0)
(0.4893446 0.0001471721 0)
(0.48920345 0.00011414813 0)
(0.48909331 8.6417631e-05 0)
(0.48900943 6.3513963e-05 0)
(0.4889474 4.5067981e-05 0)
(0.48890305 3.0692098e-05 0)
(0.48887255 1.9918365e-05 0)
(0.48885251 1.2198342e-05 0)
(0.48884001 6.939801e-06 0)
(0.48883271 3.5606158e-06 0)
(0.48882881 1.5365627e-06 0)
(0.48882698 4.2722769e-07 0)
(0.48882633 -1.1141118e-07 0)
(0.48882628 -3.1469028e-07 0)
(0.48882647 -3.3830021e-07 0)
(0.48882673 -2.8306147e-07 0)
(0.48882696 -2.0678314e-07 0)
(0.48882713 -1.3700854e-07 0)
(0.48882725 -8.331491e-08 0)
(0.48882733 -4.6475621e-08 0)
(0.48882737 -2.334297e-08 0)
(0.48882739 -1.0075104e-08 0)
(0.4888274 -3.1007035e-09 0)
(0.48882741 9.3818865e-11 0)
(0.48882741 1.3157472e-09 0)
(0.48882741 1.4991468e-09 0)
(0.48882741 1.3085766e-09 0)
(0.48882741 9.5911384e-10 0)
(0.48882741 6.7586702e-10 0)
(0.48882741 4.2244755e-10 0)
(0.48882741 2.8408548e-10 0)
(0.48882741 1.5974548e-10 0)
(0.48882741 1.2461631e-10 0)
(0.48882741 8.8124982e-11 0)
(0.48882741 1.1371852e-10 0)
(0.48882741 1.0607171e-10 0)
(0.48882741 1.4169975e-10 0)
(0.48882741 1.4169635e-10 0)
(0.48882741 1.7530065e-10 0)
(0.48882741 1.5191098e-10 0)
(0.48882741 1.5671597e-10 0)
(0.48882741 1.1362416e-10 0)
(0.48882741 1.009632e-10 0)
(0.48882741 3.5647973e-11 0)
(0.48882741 3.8085043e-12 0)
(0.4888274 -5.4921634e-11 0)
(0.48882741 -7.4622913e-11 0)
(0.4888274 -1.3249312e-10 0)
(0.4888274 -1.3987526e-10 0)
(0.4888274 -1.6869404e-10 0)
(0.4888274 -1.4189389e-10 0)
(0.4888274 -1.4771113e-10 0)
(0.4888274 -1.0149146e-10 0)
(0.4888274 -8.0515407e-11 0)
(0.4888274 -1.889477e-11 0)
(0.4888274 4.6344043e-12 0)
(0.48882741 6.4465281e-11 0)
(0.4888274 8.7490681e-11 0)
(0.48882741 1.4248832e-10 0)
(0.4888274 1.3995582e-10 0)
(0.48882741 1.6590131e-10 0)
(0.4888274 1.4313669e-10 0)
(0.48882741 1.5065632e-10 0)
(0.4888274 1.012154e-10 0)
(0.48882741 8.4718606e-11 0)
(0.4888274 3.325663e-11 0)
(0.48882741 1.8394973e-11 0)
(0.4888274 -3.213022e-11 0)
(0.48882741 -4.8293553e-11 0)
(0.4888274 -8.5114306e-11 0)
(0.48882741 -7.2830867e-11 0)
(0.4888274 -8.5134946e-11 0)
(0.48882741 -5.0063384e-11 0)
(0.4888274 -7.1071263e-12 0)
(0.48882741 7.5707538e-11 0)
(0.4888274 2.0995799e-10 0)
(0.4888274 3.7490268e-10 0)
(0.4888274 7.772733e-10 0)
(0.4888274 1.234134e-09 0)
(0.4888274 2.5063948e-09 0)
(0.4888274 3.9140694e-09 0)
(0.4888274 7.5565154e-09 0)
(0.4888274 1.1194621e-08 0)
(0.48882737 2.173624e-08 0)
(0.48882739 2.9373975e-08 0)
(0.66720715 0.00042260175 0)
(0.66932665 0.001884177 0)
(0.66907021 0.002640704 0)
(0.66860061 0.0026136316 0)
(0.66849632 0.0022707897 0)
(0.6685113 0.0019354939 0)
(0.66842958 0.0016723886 0)
(0.66824356 0.0014457541 0)
(0.6680217 0.0012332546 0)
(0.66780811 0.0010386339 0)
(0.66761309 0.00086944688 0)
(0.66743521 0.00072600632 0)
(0.66727417 0.00060387351 0)
(0.66713138 0.00049854286 0)
(0.66700768 0.00040706907 0)
(0.66690259 0.00032764213 0)
(0.66681482 0.00025900484 0)
(0.66674291 0.0002002495 0)
(0.66668532 0.00015074201 0)
(0.66664041 0.00010997461 0)
(0.66660642 7.7384824e-05 0)
(0.66658156 5.2235077e-05 0)
(0.66656405 3.3591395e-05 0)
(0.66655223 2.0380182e-05 0)
(0.66654462 1.1482355e-05 0)
(0.66654 5.8298904e-06 0)
(0.66653738 2.4820603e-06 0)
(0.66653602 6.7598911e-07 0)
(0.66653542 -1.7079501e-07 0)
(0.66653523 -4.7547054e-07 0)
(0.66653524 -5.0435571e-07 0)
(0.66653531 -4.173942e-07 0)
(0.6665354 -3.017931e-07 0)
(0.66653548 -1.9786342e-07 0)
(0.66653553 -1.1904115e-07 0)
(0.66653557 -6.5620882e-08 0)
(0.66653559 -3.2499413e-08 0)
(0.6665356 -1.3711832e-08 0)
(0.66653561 -4.0116615e-09 0)
(0.66653561 3.3165979e-10 0)
(0.66653561 1.8966731e-09 0)
(0.66653561 2.0789014e-09 0)
(0.66653561 1.7700711e-09 0)
(0.66653561 1.2950951e-09 0)
(0.66653561 9.053788e-10 0)
(0.66653561 5.7334045e-10 0)
(0.66653561 3.7567935e-10 0)
(0.66653561 2.2715905e-10 0)
(0.66653561 1.827947e-10 0)
(0.66653561 1.4692766e-10 0)
(0.66653561 1.6845461e-10 0)
(0.66653561 1.7040332e-10 0)
(0.66653561 2.137087e-10 0)
(0.66653561 2.1622002e-10 0)
(0.66653561 2.3795585e-10 0)
(0.66653561 2.1105744e-10 0)
(0.66653561 2.0480338e-10 0)
(0.66653561 1.4793402e-10 0)
(0.66653561 1.0381773e-10 0)
(0.66653561 1.9180078e-11 0)
(0.66653561 -3.0763134e-11 0)
(0.66653561 -1.1039071e-10 0)
(0.66653561 -1.508236e-10 0)
(0.66653561 -2.107266e-10 0)
(0.66653561 -2.1506596e-10 0)
(0.66653561 -2.3592692e-10 0)
(0.66653561 -2.0621604e-10 0)
(0.66653561 -1.9042855e-10 0)
(0.66653561 -1.2172149e-10 0)
(0.66653561 -7.2812529e-11 0)
(0.66653561 6.8689091e-12 0)
(0.66653561 5.4606328e-11 0)
(0.66653561 1.3442598e-10 0)
(0.66653561 1.6927268e-10 0)
(0.66653561 2.2187255e-10 0)
(0.66653561 2.2472525e-10 0)
(0.66653561 2.4913674e-10 0)
(0.66653561 2.2107536e-10 0)
(0.66653561 2.0858878e-10 0)
(0.66653561 1.500453e-10 0)
(0.66653561 1.1862622e-10 0)
(0.66653561 4.9186561e-11 0)
(0.66653561 1.0202388e-11 0)
(0.66653561 -5.0282655e-11 0)
(0.66653561 -6.4767283e-11 0)
(0.66653561 -9.7296493e-11 0)
(0.66653561 -7.4737583e-11 0)
(0.66653561 -6.5843147e-11 0)
(0.66653561 3.8103357e-11 0)
(0.66653561 1.0292294e-10 0)
(0.66653561 3.4971057e-10 0)
(0.66653561 5.2118412e-10 0)
(0.66653561 1.1701066e-09 0)
(0.66653561 1.7743512e-09 0)
(0.66653561 3.4865879e-09 0)
(0.66653561 5.0972532e-09 0)
(0.6665356 9.0904398e-09 0)
(0.66653562 1.3236774e-08 0)
(0.66653558 2.1789916e-08 0)
(0.66653564 2.9093433e-08 0)
(0.76041177 0.00025556862 0)
(0.76328808 0.0012616183 0)
(0.76351787 0.0018785537 0)
(0.76363227 0.0019601561 0)
(0.76431929 0.0017842642 0)
(0.76520687 0.0015845667 0)
(0.76594432 0.0014214557 0)
(0.76647833 0.0012733457 0)
(0.76688693 0.0011236234 0)
(0.76722915 0.00097649503 0)
(0.76752063 0.00084083432 0)
(0.76776186 0.00071991678 0)
(0.76795677 0.00061240091 0)
(0.76811323 0.00051613016 0)
(0.76823867 0.0004297614 0)
(0.76833834 0.0003526021 0)
(0.76841606 0.00028420084 0)
(0.76847515 0.00022424044 0)
(0.76851876 0.00017253358 0)
(0.76854985 0.0001289396 0)
(0.76857112 9.3217487e-05 0)
(0.76858495 6.4911192e-05 0)
(0.7685934 4.3315352e-05 0)
(0.76859813 2.7516667e-05 0)
(0.76860048 1.6482705e-05 0)
(0.7686014 9.1644929e-06 0)
(0.76860155 4.589908e-06 0)
(0.76860134 1.9264885e-06 0)
(0.76860103 5.1562761e-07 0)
(0.76860072 -1.307538e-07 0)
(0.76860047 -3.5509168e-07 0)
(0.76860029 -3.7107795e-07 0)
(0.76860017 -3.0248985e-07 0)
(0.7686001 -2.1535811e-07 0)
(0.76860006 -1.3865954e-07 0)
(0.76860004 -8.1776767e-08 0)
(0.76860003 -4.3812595e-08 0)
(0.76860003 -2.0906315e-08 0)
(0.76860003 -8.0849781e-09 0)
(0.76860003 -1.8341169e-09 0)
(0.76860003 9.1268311e-10 0)
(0.76860003 1.6437565e-09 0)
(0.76860003 1.6925957e-09 0)
(0.76860003 1.2868259e-09 0)
(0.76860003 9.9468334e-10 0)
(0.76860003 6.0375041e-10 0)
(0.76860003 4.6000696e-10 0)
(0.76860004 2.4123694e-10 0)
(0.76860003 2.4662251e-10 0)
(0.76860004 1.3817925e-10 0)
(0.76860004 2.1856918e-10 0)
(0.76860004 1.5470072e-10 0)
(0.76860004 2.5128337e-10 0)
(0.76860004 1.8235299e-10 0)
(0.76860004 2.6311625e-10 0)
(0.76860004 1.6889068e-10 0)
(0.76860004 2.1617877e-10 0)
(0.76860004 8.8696526e-11 0)
(0.76860004 1.1241138e-10 0)
(0.76860004 -2.3893278e-11 0)
(0.76860004 -1.2033619e-11 0)
(0.76860004 -1.5394631e-10 0)
(0.76860003 -1.2606071e-10 0)
(0.76860004 -2.4120942e-10 0)
(0.76860003 -1.8095147e-10 0)
(0.76860003 -2.6056962e-10 0)
(0.76860003 -1.5989058e-10 0)
(0.76860003 -2.0018993e-10 0)
(0.76860003 -6.9716091e-11 0)
(0.76860003 -9.1067322e-11 0)
(0.76860003 4.8224006e-11 0)
(0.76860003 3.2543964e-11 0)
(0.76860003 1.6864412e-10 0)
(0.76860003 1.3504603e-10 0)
(0.76860003 2.4896982e-10 0)
(0.76860003 1.872364e-10 0)
(0.76860003 2.674651e-10 0)
(0.76860004 1.7220811e-10 0)
(0.76860003 2.2389186e-10 0)
(0.76860004 1.0690938e-10 0)
(0.76860004 1.4173027e-10 0)
(0.76860004 1.7379117e-11 0)
(0.76860004 5.3449491e-11 0)
(0.76860004 -5.7799539e-11 0)
(0.76860004 2.6946642e-12 0)
(0.76860004 -8.7350092e-11 0)
(0.76860004 1.2578379e-11 0)
(0.76860004 -3.3500028e-11 0)
(0.76860003 1.3266346e-10 0)
(0.76860004 1.5108861e-10 0)
(0.76860003 4.6112944e-10 0)
(0.76860004 6.1083446e-10 0)
(0.76860003 1.3277884e-09 0)
(0.76860004 1.9128767e-09 0)
(0.76860003 3.4903966e-09 0)
(0.76860004 4.7793266e-09 0)
(0.76860003 7.7309811e-09 0)
(0.76860005 1.0800738e-08 0)
(0.76860001 1.5999012e-08 0)
(0.76860008 2.0718119e-08 0)
(0.80122848 8.4079554e-05 0)
(0.80442639 0.00043530045 0)
(0.80480833 0.00066534152 0)
(0.80512467 0.00070911922 0)
(0.80615463 0.00065667481 0)
(0.80747231 0.0005921237 0)
(0.80864813 0.00053936839 0)
(0.80959395 0.00049086891 0)
(0.81038619 0.00044001725 0)
(0.81108705 0.00038821378 0)
(0.81170983 0.00033905464 0)
(0.81225089 0.000294163 0)
(0.81271211 0.00025335001 0)
(0.81310182 0.00021604009 0)
(0.81342893 0.00018192767 0)
(0.81370042 0.00015092725 0)
(0.81392196 0.00012301442 0)
(0.81409901 9.8187854e-05 0)
(0.81423714 7.647636e-05 0)
(0.814342 5.7914063e-05 0)
(0.81441916 4.2484935e-05 0)
(0.81447394 3.0075411e-05 0)
(0.81451129 2.0456648e-05 0)
(0.8145356 1.3298065e-05 0)
(0.81455059 8.2021883e-06 0)
(0.81455924 4.7471005e-06 0)
(0.81456381 2.5287847e-06 0)
(0.81456592 1.1926433e-06 0)
(0.81456667 4.4674675e-07 0)
(0.81456673 7.7417693e-08 0)
(0.81456651 -7.6613588e-08 0)
(0.81456623 -1.1853698e-07 0)
(0.81456598 -1.0901644e-07 0)
(0.81456579 -8.216355e-08 0)
(0.81456567 -5.4520637e-08 0)
(0.81456559 -3.2532122e-08 0)
(0.81456555 -1.7342958e-08 0)
(0.81456552 -7.9663095e-09 0)
(0.81456551 -2.723577e-09 0)
(0.81456551 -1.8468139e-10 0)
(0.81456551 8.3146984e-10 0)
(0.81456551 1.0352152e-09 0)
(0.81456551 9.2960521e-10 0)
(0.81456551 6.9418043e-10 0)
(0.81456551 4.8743867e-10 0)
(0.81456551 3.0638867e-10 0)
(0.81456551 2.1986498e-10 0)
(0.81456551 1.4003952e-10 0)
(0.81456551 1.3535969e-10 0)
(0.81456551 1.2067478e-10 0)
(0.81456551 1.669928e-10 0)
(0.81456551 1.6403427e-10 0)
(0.81456551 1.9483313e-10 0)
(0.81456551 1.7598797e-10 0)
(0.81456552 1.9226246e-10 0)
(0.81456551 1.424534e-10 0)
(0.81456552 1.1884872e-10 0)
(0.81456551 4.4245467e-11 0)
(0.81456552 2.0775475e-11 0)
(0.81456551 -5.7065334e-11 0)
(0.81456551 -8.9167361e-11 0)
(0.81456551 -1.5560937e-10 0)
(0.81456551 -1.6202777e-10 0)
(0.81456551 -2.0039445e-10 0)
(0.81456551 -1.8379232e-10 0)
(0.81456551 -1.8854524e-10 0)
(0.81456551 -1.272522e-10 0)
(0.81456551 -1.0517498e-10 0)
(0.81456551 -3.4565223e-11 0)
(0.81456551 -9.4472179e-12 0)
(0.81456551 7.0901898e-11 0)
(0.81456551 9.3847722e-11 0)
(0.81456551 1.4996228e-10 0)
(0.81456551 1.5532183e-10 0)
(0.81456551 1.953645e-10 0)
(0.81456551 1.7300661e-10 0)
(0.81456551 1.7524569e-10 0)
(0.81456551 1.2783636e-10 0)
(0.81456551 1.2279239e-10 0)
(0.81456551 6.2918504e-11 0)
(0.81456552 4.7963095e-11 0)
(0.81456551 -8.0457371e-12 0)
(0.81456552 3.7581001e-12 0)
(0.81456551 -3.652672e-11 0)
(0.81456552 -1.3398815e-11 0)
(0.81456551 -2.2468202e-11 0)
(0.81456552 4.4508002e-11 0)
(0.81456551 7.0573694e-11 0)
(0.81456551 1.7673566e-10 0)
(0.81456551 2.6562792e-10 0)
(0.81456551 4.6164954e-10 0)
(0.81456551 6.9675426e-10 0)
(0.81456551 1.158515e-09 0)
(0.81456552 1.6693178e-09 0)
(0.81456551 2.5104515e-09 0)
(0.81456552 3.1172086e-09 0)
(0.81456551 4.3228754e-09 0)
(0.81456554 5.363698e-09 0)
(0.81456549 7.0898722e-09 0)
(0.81456557 8.7724036e-09 0)
(0.80122831 -8.4082848e-05 0)
(0.80442623 -0.00043532361 0)
(0.80480814 -0.00066537875 0)
(0.80512445 -0.00070914667 0)
(0.80615444 -0.00065666716 0)
(0.80747215 -0.00059209191 0)
(0.80864799 -0.00053933555 0)
(0.80959381 -0.00049084756 0)
(0.81038605 -0.00044000082 0)
(0.81108692 -0.00038819765 0)
(0.81170972 -0.00033903825 0)
(0.81225078 -0.00029415198 0)
(0.81271201 -0.0002533458 0)
(0.81310173 -0.00021604295 0)
(0.81342884 -0.00018193438 0)
(0.81370033 -0.00015093601 0)
(0.81392188 -0.00012302261 0)
(0.81409893 -9.8194069e-05 0)
(0.81423707 -7.6478716e-05 0)
(0.81434193 -5.7911209e-05 0)
(0.81441909 -4.2475598e-05 0)
(0.81447388 -3.0058407e-05 0)
(0.81451123 -2.0431516e-05 0)
(0.81453554 -1.3264529e-05 0)
(0.81455054 -8.1612058e-06 0)
(0.81455919 -4.6997049e-06 0)
(0.81456377 -2.4773248e-06 0)
(0.81456588 -1.1397512e-06 0)
(0.81456663 -3.9505764e-07 0)
(0.8145667 -2.8502803e-08 0)
(0.81456649 1.209088e-07 0)
(0.81456621 1.5747058e-07 0)
(0.81456597 1.4165454e-07 0)
(0.81456579 1.0888158e-07 0)
(0.81456566 7.5350984e-08 0)
(0.81456559 4.8534426e-08 0)
(0.81456554 2.8956077e-08 0)
(0.81456552 1.6435656e-08 0)
(0.81456551 8.4255494e-09 0)
(0.81456551 4.1689395e-09 0)
(0.81456551 1.5497285e-09 0)
(0.81456551 5.8180963e-10 0)
(0.81456551 -1.4681929e-10 0)
(0.81456551 -1.2704703e-10 0)
(0.81456552 -3.764375e-10 0)
(0.81456552 -1.0874823e-10 0)
(0.81456552 -2.5932078e-10 0)
(0.81456552 3.357096e-11 0)
(0.81456552 -1.3753986e-10 0)
(0.81456552 1.5509942e-10 0)
(0.81456552 -2.8307073e-11 0)
(0.81456552 2.2329552e-10 0)
(0.81456552 -1.3604335e-12 0)
(0.81456552 2.2881193e-10 0)
(0.81456552 -1.9165391e-11 0)
(0.81456552 1.7414068e-10 0)
(0.81456552 -1.0120058e-10 0)
(0.81456552 9.4084353e-11 0)
(0.81456552 -1.7986533e-10 0)
(0.81456552 9.4265481e-13 0)
(0.81456552 -2.6795055e-10 0)
(0.81456552 -5.0646437e-11 0)
(0.81456552 -2.7936541e-10 0)
(0.81456552 -4.2306777e-11 0)
(0.81456552 -2.5023501e-10 0)
(0.81456552 2.1965178e-11 0)
(0.81456552 -1.6523395e-10 0)
(0.81456552 1.0377067e-10 0)
(0.81456552 -9.1291282e-11 0)
(0.81456552 1.9011871e-10 0)
(0.81456552 -1.6271243e-12 0)
(0.81456552 2.4756609e-10 0)
(0.81456552 2.0928347e-11 0)
(0.81456552 2.5347033e-10 0)
(0.81456552 1.25842e-11 0)
(0.81456552 2.1355146e-10 0)
(0.81456552 -4.9151018e-11 0)
(0.81456552 1.5845896e-10 0)
(0.81456552 -9.8552394e-11 0)
(0.81456552 1.0250637e-10 0)
(0.81456552 -1.5792204e-10 0)
(0.81456552 6.8247766e-11 0)
(0.81456552 -1.6371746e-10 0)
(0.81456552 7.4706039e-11 0)
(0.81456552 -1.3887284e-10 0)
(0.81456552 1.4028546e-10 0)
(0.81456552 -3.4321842e-11 0)
(0.81456552 2.6413256e-10 0)
(0.81456552 1.1306776e-10 0)
(0.81456552 4.4940813e-10 0)
(0.81456552 3.4343003e-10 0)
(0.81456552 7.7651588e-10 0)
(0.81456552 6.9535956e-10 0)
(0.81456552 1.1733065e-09 0)
(0.81456552 7.965787e-10 0)
(0.81456553 7.4083036e-10 0)
(0.81456552 -1.2095149e-10 0)
(0.81456554 -1.3068306e-09 0)
(0.8145655 -2.9868545e-09 0)
(0.81456558 -4.4517456e-09 0)
(0.76041131 -0.00025556753 0)
(0.76328758 -0.0012616216 0)
(0.76351741 -0.0018785634 0)
(0.76363184 -0.0019601617 0)
(0.76431891 -0.0017842606 0)
(0.76520648 -0.0015845562 0)
(0.76594394 -0.0014214465 0)
(0.76647796 -0.0012733387 0)
(0.7668866 -0.0011236178 0)
(0.76722884 -0.0009764891 0)
(0.76752033 -0.00084083099 0)
(0.76776157 -0.00071991766 0)
(0.7679565 -0.00061240758 0)
(0.76811297 -0.00051614114 0)
(0.76823842 -0.00042977545 0)
(0.7683381 -0.00035261693 0)
(0.76841583 -0.00028421486 0)
(0.76847493 -0.0002242518 0)
(0.76851855 -0.00017254085 0)
(0.76854965 -0.00012894147 0)
(0.76857093 -9.321274e-05 0)
(0.76858477 -6.4899229e-05 0)
(0.76859322 -4.3295656e-05 0)
(0.76859797 -2.7489721e-05 0)
(0.76860033 -1.6448971e-05 0)
(0.76860127 -9.126013e-06 0)
(0.76860143 -4.5479146e-06 0)
(0.76860124 -1.883056e-06 0)
(0.76860094 -4.7368228e-07 0)
(0.76860065 1.695927e-07 0)
(0.76860041 3.9008888e-07 0)
(0.76860025 4.011928e-07 0)
(0.76860014 3.2769564e-07 0)
(0.76860009 2.3549002e-07 0)
(0.76860005 1.5440047e-07 0)
(0.76860004 9.3445981e-08 0)
(0.76860003 5.2392974e-08 0)
(0.76860003 2.679578e-08 0)
(0.76860003 1.218294e-08 0)
(0.76860004 4.3315405e-09 0)
(0.76860004 7.009501e-10 0)
(0.76860004 -8.3599234e-10 0)
(0.76860004 -1.1758771e-09 0)
(0.76860005 -1.1831401e-09 0)
(0.76860004 -8.8201857e-10 0)
(0.76860005 -6.8444752e-10 0)
(0.76860004 -3.9357822e-10 0)
(0.76860005 -2.8939862e-10 0)
(0.76860004 -8.651103e-11 0)
(0.76860005 -6.2739306e-11 0)
(0.76860005 5.2125373e-11 0)
(0.76860005 3.6106468e-14 0)
(0.76860005 7.3837868e-11 0)
(0.76860005 1.8277415e-12 0)
(0.76860005 4.1813679e-11 0)
(0.76860005 -6.5252265e-11 0)
(0.76860005 -2.6416791e-11 0)
(0.76860005 -1.1863094e-10 0)
(0.76860005 -8.2249657e-11 0)
(0.76860005 -1.8029731e-10 0)
(0.76860005 -1.1535916e-10 0)
(0.76860005 -1.6690768e-10 0)
(0.76860004 -7.9115907e-11 0)
(0.76860005 -1.2864922e-10 0)
(0.76860004 -2.2395396e-11 0)
(0.76860005 -4.1919908e-11 0)
(0.76860004 5.9330151e-11 0)
(0.76860005 1.4139477e-11 0)
(0.76860004 1.1398736e-10 0)
(0.76860005 7.6107192e-11 0)
(0.76860004 1.5145943e-10 0)
(0.76860005 7.0115994e-11 0)
(0.76860004 1.2720286e-10 0)
(0.76860005 4.6896324e-11 0)
(0.76860004 8.4389811e-11 0)
(0.76860005 -2.372825e-11 0)
(0.76860004 1.7393441e-11 0)
(0.76860005 -6.7845003e-11 0)
(0.76860005 -2.2064758e-11 0)
(0.76860005 -1.1342028e-10 0)
(0.76860005 -4.7258687e-11 0)
(0.76860005 -9.9420046e-11 0)
(0.76860005 -1.8354696e-11 0)
(0.76860005 -6.4592803e-11 0)
(0.76860005 4.399247e-11 0)
(0.76860005 3.7995472e-11 0)
(0.76860005 1.6027507e-10 0)
(0.76860005 1.6397172e-10 0)
(0.76860005 2.9263034e-10 0)
(0.76860005 3.3638994e-10 0)
(0.76860004 4.4035058e-10 0)
(0.76860005 4.7959412e-10 0)
(0.76860004 3.9887952e-10 0)
(0.76860005 2.1301993e-10 0)
(0.76860004 -7.2863666e-10 0)
(0.76860006 -1.7000293e-09 0)
(0.76860004 -4.3093693e-09 0)
(0.76860007 -7.509695e-09 0)
(0.76860002 -1.2654712e-08 0)
(0.7686001 -1.7295094e-08 0)
(0.66720665 -0.00042259649 0)
(0.66932616 -0.0018841617 0)
(0.66906969 -0.0026407066 0)
(0.66860012 -0.0026136529 0)
(0.66849587 -0.0022708184 0)
(0.66851087 -0.0019355152 0)
(0.66842913 -0.0016724011 0)
(0.66824312 -0.0014457593 0)
(0.66802128 -0.0012332591 0)
(0.66780772 -0.0010386388 0)
(0.6676127 -0.00086945497 0)
(0.66743484 -0.00072601631 0)
(0.6672738 -0.00060388683 0)
(0.66713103 -0.00049855813 0)
(0.66700734 -0.00040708637 0)
(0.66690226 -0.00032765917 0)
(0.66681451 -0.00025902056 0)
(0.66674261 -0.00020026201 0)
(0.66668503 -0.00015075042 0)
(0.66664013 -0.00010997807 0)
(0.66660617 -7.7382815e-05 0)
(0.66658132 -5.2227682e-05 0)
(0.66656383 -3.357855e-05 0)
(0.66655202 -2.0362677e-05 0)
(0.66654444 -1.1460932e-05 0)
(0.66653984 -5.8059225e-06 0)
(0.66653724 -2.4571588e-06 0)
(0.66653591 -6.5149464e-07 0)
(0.66653533 1.9517577e-07 0)
(0.66653516 4.9797025e-07 0)
(0.66653518 5.2442107e-07 0)
(0.66653527 4.3414557e-07 0)
(0.66653537 3.1564745e-07 0)
(0.66653546 2.0850312e-07 0)
(0.66653552 1.272562e-07 0)
(0.66653557 7.1351083e-08 0)
(0.66653559 3.6683227e-08 0)
(0.66653561 1.625667e-08 0)
(0.66653562 5.7710827e-09 0)
(0.66653562 4.4061846e-10 0)
(0.66653562 -1.3156481e-09 0)
(0.66653562 -2.0491229e-09 0)
(0.66653563 -1.6765037e-09 0)
(0.66653562 -1.5439915e-09 0)
(0.66653563 -9.0882064e-10 0)
(0.66653563 -8.2096416e-10 0)
(0.66653563 -3.3119845e-10 0)
(0.66653563 -3.95774e-10 0)
(0.66653563 -5.0524915e-12 0)
(0.66653563 -1.7968198e-10 0)
(0.66653563 1.007539e-10 0)
(0.66653563 -1.383175e-10 0)
(0.66653563 1.1757998e-10 0)
(0.66653563 -1.539469e-10 0)
(0.66653563 6.1696652e-11 0)
(0.66653563 -2.2245094e-10 0)
(0.66653563 1.3350283e-11 0)
(0.66653563 -2.6157999e-10 0)
(0.66653563 -2.8427112e-11 0)
(0.66653563 -2.785251e-10 0)
(0.66653563 -4.3145975e-13 0)
(0.66653563 -2.2608754e-10 0)
(0.66653563 4.9617866e-11 0)
(0.66653562 -1.647347e-10 0)
(0.66653563 1.3611488e-10 0)
(0.66653562 -7.9354637e-11 0)
(0.66653563 1.9555713e-10 0)
(0.66653562 -3.4729016e-11 0)
(0.66653563 2.4274077e-10 0)
(0.66653562 -9.6785047e-12 0)
(0.66653563 2.2197038e-10 0)
(0.66653562 -5.2051931e-11 0)
(0.66653563 1.8344887e-10 0)
(0.66653563 -1.0090177e-10 0)
(0.66653563 1.0692413e-10 0)
(0.66653563 -1.766214e-10 0)
(0.66653563 5.873545e-11 0)
(0.66653563 -2.137591e-10 0)
(0.66653563 1.962805e-11 0)
(0.66653563 -2.3356812e-10 0)
(0.66653563 4.4025373e-11 0)
(0.66653563 -1.8551082e-10 0)
(0.66653563 9.0011651e-11 0)
(0.66653563 -1.1961582e-10 0)
(0.66653563 1.9237755e-10 0)
(0.66653563 -3.0284599e-12 0)
(0.66653563 2.9410277e-10 0)
(0.66653563 1.1010808e-10 0)
(0.66653563 4.0312994e-10 0)
(0.66653563 2.298902e-10 0)
(0.66653563 4.3302386e-10 0)
(0.66653563 1.910165e-10 0)
(0.66653563 8.4196577e-11 0)
(0.66653563 -5.6738279e-10 0)
(0.66653563 -1.684868e-09 0)
(0.66653563 -3.1086811e-09 0)
(0.66653562 -6.968909e-09 0)
(0.66653564 -1.1196902e-08 0)
(0.6665356 -1.9779116e-08 0)
(0.66653566 -2.7146912e-08 0)
(0.49800119 -0.00052775882 0)
(0.49873847 -0.0019573602 0)
(0.49749528 -0.0024312399 0)
(0.49604632 -0.0021347528 0)
(0.49491066 -0.0016539223 0)
(0.49398615 -0.0012800997 0)
(0.4931535 -0.0010258538 0)
(0.49239797 -0.00083305829 0)
(0.49173952 -0.00067216616 0)
(0.49118358 -0.00053955014 0)
(0.4907192 -0.00043469739 0)
(0.4903315 -0.00035259532 0)
(0.49000837 -0.00028670668 0)
(0.48974084 -0.00023216516 0)
(0.48952162 -0.00018617849 0)
(0.48934432 -0.00014717689 0)
(0.48920319 -0.00011415302 0)
(0.48909306 -8.6421833e-05 0)
(0.48900921 -6.3516788e-05 0)
(0.48894719 -4.5068881e-05 0)
(0.48890286 -3.0690888e-05 0)
(0.48887238 -1.9914795e-05 0)
(0.48885235 -1.2192694e-05 0)
(0.48883986 -6.9321823e-06 0)
(0.48883259 -3.5520427e-06 0)
(0.4888287 -1.5269104e-06 0)
(0.48882689 -4.1779872e-07 0)
(0.48882626 1.2075106e-07 0)
(0.48882622 3.2423732e-07 0)
(0.48882643 3.4721681e-07 0)
(0.4888267 2.9053396e-07 0)
(0.48882694 2.1300233e-07 0)
(0.48882712 1.4173853e-07 0)
(0.48882725 8.6959877e-08 0)
(0.48882733 4.8933691e-08 0)
(0.48882737 2.5120912e-08 0)
(0.4888274 1.1064587e-08 0)
(0.48882741 3.7740473e-09 0)
(0.48882742 9.5281506e-11 0)
(0.48882742 -1.1578232e-09 0)
(0.48882742 -1.6130271e-09 0)
(0.48882742 -1.3516152e-09 0)
(0.48882742 -1.1821503e-09 0)
(0.48882742 -7.3188043e-10 0)
(0.48882742 -6.0204899e-10 0)
(0.48882742 -2.8028387e-10 0)
(0.48882742 -2.8386092e-10 0)
(0.48882742 -4.5738381e-11 0)
(0.48882742 -1.3035345e-10 0)
(0.48882742 3.0226113e-11 0)
(0.48882742 -1.0478273e-10 0)
(0.48882742 4.1524179e-11 0)
(0.48882742 -1.1072259e-10 0)
(0.48882742 2.5655949e-12 0)
(0.48882742 -1.5999087e-10 0)
(0.48882742 -2.466601e-11 0)
(0.48882742 -1.7408388e-10 0)
(0.48882742 -4.4896213e-11 0)
(0.48882742 -1.845683e-10 0)
(0.48882742 -2.2173231e-11 0)
(0.48882742 -1.42371e-10 0)
(0.48882742 1.0874737e-11 0)
(0.48882742 -1.0720524e-10 0)
(0.48882742 7.2596295e-11 0)
(0.48882742 -4.0800325e-11 0)
(0.48882742 1.0918782e-10 0)
(0.48882742 -1.9790765e-11 0)
(0.48882742 1.3902076e-10 0)
(0.48882742 -1.2435691e-12 0)
(0.48882742 1.2169475e-10 0)
(0.48882742 -3.4120165e-11 0)
(0.48882742 1.0107501e-10 0)
(0.48882742 -5.7862089e-11 0)
(0.48882742 5.1693671e-11 0)
(0.48882742 -1.1067797e-10 0)
(0.48882742 2.7010174e-11 0)
(0.48882742 -1.1859103e-10 0)
(0.48882742 1.1550292e-11 0)
(0.48882742 -1.272457e-10 0)
(0.48882742 3.6366521e-11 0)
(0.48882742 -8.4743464e-11 0)
(0.48882742 6.9537315e-11 0)
(0.48882742 -4.6234091e-11 0)
(0.48882742 1.3535506e-10 0)
(0.48882742 2.4039054e-11 0)
(0.48882742 1.8632763e-10 0)
(0.48882742 6.3843163e-11 0)
(0.48882742 2.3907782e-10 0)
(0.48882742 1.0707728e-10 0)
(0.48882742 2.5873753e-10 0)
(0.48882742 5.5543526e-11 0)
(0.48882742 1.2974994e-10 0)
(0.48882742 -3.9958356e-10 0)
(0.48882742 -7.1034157e-10 0)
(0.48882742 -1.8941007e-09 0)
(0.48882742 -3.0542672e-09 0)
(0.48882741 -6.901824e-09 0)
(0.48882742 -1.0534936e-08 0)
(0.48882739 -2.1152833e-08 0)
(0.48882741 -2.8870021e-08 0)
(0.21735439 -0.00038645799 0)
(0.21650238 -0.0010003563 0)
(0.21473138 -0.0009885301 0)
(0.21315303 -0.00068662093 0)
(0.2120164 -0.00042528128 0)
(0.21120238 -0.00028071984 0)
(0.21057739 -0.00020573157 0)
(0.21007601 -0.00015642604 0)
(0.20967265 -0.00011846492 0)
(0.2093505 -9.0373725e-05 0)
(0.20909263 -7.0834881e-05 0)
(0.20888411 -5.7000309e-05 0)
(0.20871412 -4.6351761e-05 0)
(0.20857547 -3.754279e-05 0)
(0.20846317 -3.0044888e-05 0)
(0.20837328 -2.3642638e-05 0)
(0.20830252 -1.8199954e-05 0)
(0.208248 -1.3623979e-05 0)
(0.20820708 -9.8559905e-06 0)
(0.20817734 -6.848265e-06 0)
(0.20815652 -4.5398198e-06 0)
(0.20814256 -2.8470575e-06 0)
(0.20813369 -1.6688259e-06 0)
(0.20812839 -8.9418109e-07 0)
(0.2081255 -4.1758637e-07 0)
(0.2081241 -1.4781121e-07 0)
(0.20812359 -9.987191e-09 0)
(0.20812353 5.7717722e-08 0)
(0.20812366 7.7112455e-08 0)
(0.20812385 7.0310452e-08 0)
(0.20812403 5.3913943e-08 0)
(0.20812418 3.728106e-08 0)
(0.20812428 2.336156e-08 0)
(0.20812434 1.3600389e-08 0)
(0.20812438 7.0014872e-09 0)
(0.2081244 3.3124915e-09 0)
(0.20812441 1.0577402e-09 0)
(0.20812442 1.967787e-10 0)
(0.20812442 -4.0424648e-10 0)
(0.20812442 -3.607988e-10 0)
(0.20812442 -4.9666881e-10 0)
(0.20812442 -2.5623219e-10 0)
(0.20812441 -3.1246992e-10 0)
(0.20812441 -6.6330856e-11 0)
(0.20812441 -1.7099977e-10 0)
(0.20812441 3.0504218e-11 0)
(0.20812441 -1.0383543e-10 0)
(0.20812441 7.7423671e-11 0)
(0.20812441 -9.214965e-11 0)
(0.20812441 6.780848e-11 0)
(0.20812441 -9.3425499e-11 0)
(0.20812441 7.0318751e-11 0)
(0.20812441 -1.0590441e-10 0)
(0.20812441 5.1914651e-11 0)
(0.20812441 -1.0954771e-10 0)
(0.20812441 6.0518037e-11 0)
(0.20812441 -1.1172005e-10 0)
(0.20812441 5.3865013e-11 0)
(0.20812441 -1.0318338e-10 0)
(0.20812441 7.1017251e-11 0)
(0.20812441 -9.7146035e-11 0)
(0.20812441 6.8749548e-11 0)
(0.20812441 -8.6353639e-11 0)
(0.20812441 8.4890773e-11 0)
(0.20812441 -8.5247962e-11 0)
(0.20812441 7.697202e-11 0)
(0.20812441 -8.159748e-11 0)
(0.20812441 8.7368959e-11 0)
(0.20812441 -8.6587488e-11 0)
(0.20812441 7.3465939e-11 0)
(0.20812441 -8.6636243e-11 0)
(0.20812441 8.1453564e-11 0)
(0.20812441 -9.0342437e-11 0)
(0.20812441 7.2637268e-11 0)
(0.20812441 -8.2973916e-11 0)
(0.20812441 8.9619059e-11 0)
(0.20812441 -7.8097335e-11 0)
(0.20812441 8.8241324e-11 0)
(0.20812441 -6.5285937e-11 0)
(0.20812441 1.0972474e-10 0)
(0.20812441 -5.6759196e-11 0)
(0.20812441 1.0892587e-10 0)
(0.20812441 -4.6489315e-11 0)
(0.20812441 1.2387831e-10 0)
(0.20812441 -4.9947572e-11 0)
(0.20812441 1.1380843e-10 0)
(0.20812441 -5.0232802e-11 0)
(0.20812441 1.2087599e-10 0)
(0.20812441 -5.6887629e-11 0)
(0.20812441 1.0275145e-10 0)
(0.20812441 -9.7554883e-11 0)
(0.20812441 4.0611101e-12 0)
(0.20812441 -3.6345687e-10 0)
(0.20812441 -4.1136689e-10 0)
(0.20812441 -9.8763644e-10 0)
(0.20812441 -1.6386964e-09 0)