/*--------------------------------*- C++ -*----------------------------------*\
| =========                 |                                                 |
| \\      /  F ield         | OpenFOAM: The Open Source CFD Toolbox           |
|  \\    /   O peration     | Version:  2112                                  |
|   \\  /    A nd           | Website:  www.openfoam.com                      |
|    \\/     M anipulation  |                                                 |
\*---------------------------------------------------------------------------*/
FoamFile
{
    version     2.0;
    format      ascii;
    arch        "LSB;label=32;scalar=64";
    class       volScalarField;
    location    "9";
    object      p;
}
// * * * * * * * * * * * * * * * * * * * * * * * * * * * * * * * * * * * * * //

dimensions      [0 2 -2 0 0 0 0];

internalField   nonuniform List<scalar> 
1000
(
1.5263795
1.5092253
1.4926274
1.4764003
1.460398
1.4445389
1.4287813
1.4131023
1.3974863
1.3819207
1.3663953
1.3509027
1.3354375
1.3199961
1.3045757
1.289174
1.273789
1.2584189
1.2430623
1.2277178
1.2123843
1.1970607
1.1817461
1.1664396
1.1511404
1.1358479
1.1205614
1.1052804
1.0900042
1.0747324
1.0594645
1.0442002
1.0289391
1.0136808
0.99842507
0.98317154
0.96791995
0.95267005
0.93742162
0.92217443
0.90692829
0.89168302
0.87643846
0.86119447
0.84595093
0.83070773
0.8154648
0.80022207
0.78497947
0.76973698
0.75449455
0.73925217
0.72400982
0.70876749
0.69352517
0.67828285
0.66304054
0.64779822
0.63255591
0.6173136
0.60207129
0.58682898
0.57158667
0.55634436
0.54110205
0.52585973
0.51061742
0.49537511
0.4801328
0.46489049
0.44964818
0.43440586
0.41916355
0.40392124
0.38867893
0.37343662
0.3581943
0.34295199
0.32770968
0.31246737
0.29722506
0.28198274
0.26674043
0.25149812
0.23625581
0.2210135
0.20577118
0.19052887
0.17528656
0.16004425
0.14480194
0.12955963
0.11431732
0.099075004
0.083832693
0.068590382
0.053348071
0.038105762
0.022863454
0.0076211489
1.525965
1.5087847
1.4925027
1.4765137
1.4605735
1.4446875
1.4288945
1.413195
1.3975675
1.3819918
1.366456
1.3509537
1.3354807
1.3200332
1.304608
1.2892022
1.2738138
1.2584407
1.2430816
1.2277348
1.2123994
1.1970741
1.1817579
1.1664501
1.1511497
1.1358561
1.1205686
1.1052866
1.0900096
1.074737
1.0594685
1.0442037
1.028942
1.0136833
0.99842709
0.98317318
0.96792127
0.95267111
0.93742244
0.92217506
0.90692877
0.89168337
0.87643871
0.86119464
0.84595104
0.83070781
0.81546485
0.80022209
0.78497949
0.76973699
0.75449455
0.73925217
0.72400982
0.70876749
0.69352516
0.67828285
0.66304054
0.64779822
0.63255591
0.6173136
0.60207129
0.58682898
0.57158667
0.55634436
0.54110205
0.52585973
0.51061742
0.49537511
0.4801328
0.46489049
0.44964818
0.43440586
0.41916355
0.40392124
0.38867893
0.37343662
0.3581943
0.34295199
0.32770968
0.31246737
0.29722506
0.28198274
0.26674043
0.25149812
0.23625581
0.2210135
0.20577118
0.19052887
0.17528656
0.16004425
0.14480194
0.12955963
0.11431732
0.099075004
0.083832693
0.068590382
0.053348071
0.038105761
0.022863451
0.0076211466
1.5252528
1.5079255
1.4920727
1.4764893
1.4607085
1.4448166
1.4289809
1.4132588
1.3976265
1.3820488
1.3665073
1.3509971
1.3355168
1.3200638
1.3046344
1.2892253
1.273834
1.2584584
1.2430971
1.2277485
1.2124115
1.1970847
1.1817674
1.1664584
1.1511571
1.1358626
1.1205743
1.1052917
1.090014
1.074741
1.059472
1.0442066
1.0289446
1.0136855
0.99842895
0.98317475
0.96792258
0.95267219
0.93742332
0.92217577
0.90692933
0.89168381
0.87643905
0.8611949
0.84595123
0.83070795
0.81546495
0.80022216
0.78497953
0.76973702
0.75449457
0.73925218
0.72400983
0.70876749
0.69352517
0.67828285
0.66304054
0.64779822
0.63255591
0.6173136
0.60207129
0.58682898
0.57158667
0.55634436
0.54110205
0.52585973
0.51061742
0.49537511
0.4801328
0.46489049
0.44964818
0.43440586
0.41916355
0.40392124
0.38867893
0.37343662
0.3581943
0.34295199
0.32770968
0.31246737
0.29722506
0.28198274
0.26674043
0.25149812
0.23625581
0.2210135
0.20577118
0.19052887
0.17528656
0.16004425
0.14480194
0.12955963
0.11431732
0.099075004
0.083832692
0.06859038
0.053348068
0.038105758
0.022863447
0.0076211437
1.524578
1.5070428
1.4915543
1.4763881
1.4608079
1.4449351
1.4290623
1.4133175
1.3976829
1.382107
1.3665622
1.3510446
1.3355567
1.3200976
1.3046637
1.289251
1.2738564
1.2584781
1.2431144
1.2277638
1.212425
1.1970968
1.1817781
1.166468
1.1511657
1.1358703
1.1205812
1.1052978
1.0900195
1.0747458
1.0594763
1.0442105
1.028948
1.0136884
0.99843157
0.98317703
0.96792456
0.95267388
0.93742476
0.92217698
0.90693033
0.89168463
0.87643971
0.86119542
0.84595164
0.83070826
0.81546518
0.80022234
0.78497966
0.76973711
0.75449464
0.73925223
0.72400985
0.70876751
0.69352518
0.67828286
0.66304054
0.64779823
0.63255591
0.6173136
0.60207129
0.58682898
0.57158667
0.55634436
0.54110205
0.52585973
0.51061742
0.49537511
0.4801328
0.46489049
0.44964818
0.43440586
0.41916355
0.40392124
0.38867893
0.37343662
0.3581943
0.34295199
0.32770968
0.31246737
0.29722506
0.28198274
0.26674043
0.25149812
0.23625581
0.2210135
0.20577118
0.19052887
0.17528656
0.16004425
0.14480194
0.12955963
0.11431731
0.099075003
0.083832691
0.068590379
0.053348066
0.038105755
0.022863443
0.0076211415
1.5241859
1.506508
1.4912184
1.4763063
1.4608613
1.4450086
1.4291143
1.4133549
1.3977192
1.3821456
1.3665997
1.3510779
1.335585
1.3201219
1.304685
1.2892698
1.2738731
1.2584929
1.2431275
1.2277755
1.2124354
1.1971061
1.1817865
1.1664755
1.1511724
1.1358763
1.1205866
1.1053027
1.0900239
1.0747497
1.0594798
1.0442136
1.0289508
1.0136909
0.99843376
0.98317896
0.96792624
0.95267534
0.93742601
0.92217804
0.90693122
0.89168536
0.87644031
0.8611959
0.84595202
0.83070856
0.81546541
0.80022251
0.78497979
0.7697372
0.7544947
0.73925227
0.72400988
0.70876753
0.69352519
0.67828286
0.66304054
0.64779823
0.63255592
0.6173136
0.60207129
0.58682898
0.57158667
0.55634436
0.54110205
0.52585973
0.51061742
0.49537511
0.4801328
0.46489049
0.44964818
0.43440586
0.41916355
0.40392124
0.38867893
0.37343662
0.3581943
0.34295199
0.32770968
0.31246737
0.29722506
0.28198274
0.26674043
0.25149812
0.23625581
0.2210135
0.20577118
0.19052887
0.17528656
0.16004425
0.14480194
0.12955963
0.11431731
0.099075002
0.08383269
0.068590378
0.053348065
0.038105753
0.022863441
0.0076211403
1.5241859
1.506508
1.4912184
1.4763063
1.4608613
1.4450086
1.4291143
1.4133549
1.3977192
1.3821456
1.3665997
1.3510779
1.335585
1.3201219
1.304685
1.2892698
1.2738731
1.2584929
1.2431275
1.2277755
1.2124354
1.1971061
1.1817865
1.1664755
1.1511724
1.1358763
1.1205866
1.1053027
1.0900239
1.0747497
1.0594798
1.0442136
1.0289508
1.0136909
0.99843376
0.98317896
0.96792624
0.95267534
0.93742601
0.92217804
0.90693122
0.89168536
0.87644031
0.8611959
0.84595202
0.83070856
0.81546541
0.80022251
0.78497979
0.7697372
0.7544947
0.73925227
0.72400988
0.70876753
0.69352519
0.67828286
0.66304054
0.64779823
0.63255592
0.6173136
0.60207129
0.58682898
0.57158667
0.55634436
0.54110205
0.52585973
0.51061742
0.49537511
0.4801328
0.46489049
0.44964818
0.43440586
0.41916355
0.40392124
0.38867893
0.37343662
0.3581943
0.34295199
0.32770968
0.31246737
0.29722506
0.28198274
0.26674043
0.25149812
0.23625581
0.2210135
0.20577118
0.19052887
0.17528656
0.16004425
0.14480194
0.12955963
0.11431731
0.099075002
0.08383269
0.068590378
0.053348065
0.038105753
0.022863442
0.0076211404
1.524578
1.5070428
1.4915543
1.4763881
1.4608079
1.4449351
1.4290623
1.4133175
1.3976829
1.382107
1.3665622
1.3510446
1.3355567
1.3200976
1.3046637
1.289251
1.2738564
1.2584781
1.2431144
1.2277638
1.212425
1.1970968
1.1817781
1.166468
1.1511657
1.1358703
1.1205812
1.1052978
1.0900195
1.0747458
1.0594763
1.0442105
1.028948
1.0136884
0.99843157
0.98317703
0.96792455
0.95267388
0.93742476
0.92217697
0.90693033
0.89168462
0.8764397
0.86119542
0.84595164
0.83070826
0.81546518
0.80022234
0.78497966
0.76973711
0.75449464
0.73925223
0.72400986
0.70876751
0.69352518
0.67828286
0.66304054
0.64779823
0.63255591
0.6173136
0.60207129
0.58682898
0.57158667
0.55634436
0.54110205
0.52585973
0.51061742
0.49537511
0.4801328
0.46489049
0.44964818
0.43440586
0.41916355
0.40392124
0.38867893
0.37343662
0.3581943
0.34295199
0.32770968
0.31246737
0.29722506
0.28198274
0.26674043
0.25149812
0.23625581
0.2210135
0.20577118
0.19052887
0.17528656
0.16004425
0.14480194
0.12955963
0.11431731
0.099075002
0.08383269
0.068590378
0.053348066
0.038105755
0.022863444
0.0076211417
1.5252528
1.5079255
1.4920727
1.4764894
1.4607085
1.4448165
1.4289809
1.4132588
1.3976265
1.3820488
1.3665073
1.3509971
1.3355168
1.3200638
1.3046344
1.2892253
1.273834
1.2584584
1.2430971
1.2277485
1.2124114
1.1970847
1.1817674
1.1664584
1.1511571
1.1358626
1.1205743
1.1052917
1.090014
1.074741
1.059472
1.0442066
1.0289446
1.0136855
0.99842895
0.98317475
0.96792258
0.95267219
0.93742332
0.92217577
0.90692933
0.89168381
0.87643905
0.8611949
0.84595123
0.83070795
0.81546495
0.80022216
0.78497954
0.76973702
0.75449458
0.73925219
0.72400983
0.70876749
0.69352517
0.67828285
0.66304054
0.64779823
0.63255591
0.6173136
0.60207129
0.58682898
0.57158667
0.55634436
0.54110205
0.52585973
0.51061742
0.49537511
0.4801328
0.46489049
0.44964818
0.43440586
0.41916355
0.40392124
0.38867893
0.37343662
0.3581943
0.34295199
0.32770968
0.31246737
0.29722506
0.28198274
0.26674043
0.25149812
0.23625581
0.2210135
0.20577118
0.19052887
0.17528656
0.16004425
0.14480194
0.12955963
0.11431731
0.099075003
0.083832691
0.06859038
0.053348068
0.038105758
0.022863447
0.0076211439
1.525965
1.5087848
1.4925027
1.4765137
1.4605735
1.4446875
1.4288945
1.413195
1.3975675
1.3819918
1.366456
1.3509537
1.3354807
1.3200332
1.304608
1.2892022
1.2738138
1.2584407
1.2430815
1.2277348
1.2123994
1.1970741
1.1817579
1.1664501
1.1511497
1.1358561
1.1205686
1.1052866
1.0900096
1.074737
1.0594685
1.0442037
1.028942
1.0136833
0.99842708
0.98317318
0.96792127
0.9526711
0.93742244
0.92217506
0.90692876
0.89168337
0.87643871
0.86119464
0.84595105
0.83070781
0.81546485
0.8002221
0.78497949
0.76973699
0.75449456
0.73925217
0.72400982
0.70876749
0.69352517
0.67828285
0.66304054
0.64779823
0.63255591
0.6173136
0.60207129
0.58682898
0.57158667
0.55634436
0.54110205
0.52585973
0.51061742
0.49537511
0.4801328
0.46489049
0.44964818
0.43440586
0.41916355
0.40392124
0.38867893
0.37343662
0.3581943
0.34295199
0.32770968
0.31246737
0.29722506
0.28198274
0.26674043
0.25149812
0.23625581
0.2210135
0.20577118
0.19052887
0.17528656
0.16004425
0.14480194
0.12955963
0.11431731
0.099075003
0.083832692
0.068590381
0.053348071
0.038105761
0.022863451
0.0076211468
1.5263795
1.5092253
1.4926274
1.4764003
1.460398
1.4445389
1.4287813
1.4131023
1.3974863
1.3819207
1.3663953
1.3509027
1.3354375
1.3199961
1.3045757
1.289174
1.273789
1.2584189
1.2430623
1.2277178
1.2123843
1.1970607
1.1817461
1.1664396
1.1511404
1.1358479
1.1205614
1.1052803
1.0900041
1.0747324
1.0594645
1.0442002
1.0289391
1.0136808
0.99842507
0.98317153
0.96791994
0.95267005
0.93742162
0.92217443
0.90692829
0.89168302
0.87643846
0.86119447
0.84595093
0.83070774
0.8154648
0.80022207
0.78497948
0.76973698
0.75449455
0.73925217
0.72400982
0.70876749
0.69352517
0.67828285
0.66304054
0.64779823
0.63255591
0.6173136
0.60207129
0.58682898
0.57158667
0.55634436
0.54110205
0.52585973
0.51061742
0.49537511
0.4801328
0.46489049
0.44964818
0.43440586
0.41916355
0.40392124
0.38867893
0.37343662
0.3581943
0.34295199
0.32770968
0.31246737
0.29722506
0.28198274
0.26674043
0.25149812
0.23625581
0.2210135
0.20577118
0.19052887
0.17528656
0.16004425
0.14480194
0.12955963
0.11431731
0.099075004
0.083832692
0.068590382
0.053348072
0.038105763
0.022863454
0.007621149
)
;

boundaryField
{
    top
    {
        type            zeroGradient;
    }
    inlet
    {
        type            fixedValue;
        value           uniform 1.5352;
    }
    outlet
    {
        type            fixedValue;
        value           uniform 0;
    }
    bottom
    {
        type            zeroGradient;
    }
    back
    {
        type            empty;
    }
    front
    {
        type            empty;
    }
}


// ************************************************************************* //
