/*--------------------------------*- C++ -*----------------------------------*\
| =========                 |                                                 |
| \\      /  F ield         | OpenFOAM: The Open Source CFD Toolbox           |
|  \\    /   O peration     | Version:  2112                                  |
|   \\  /    A nd           | Website:  www.openfoam.com                      |
|    \\/     M anipulation  |                                                 |
\*---------------------------------------------------------------------------*/
FoamFile
{
    version     2.0;
    format      ascii;
    arch        "LSB;label=32;scalar=64";
    class       surfaceScalarField;
    location    "9";
    object      phi;
}
// * * * * * * * * * * * * * * * * * * * * * * * * * * * * * * * * * * * * * //

dimensions      [0 3 -1 0 0 0 0];

oriented        oriented;

internalField   nonuniform List<scalar> 
1890
(
0.002617316
3.711992e-06
0.0026054464
1.187007e-05
0.0025916266
1.3819544e-05
0.002579771
1.1854902e-05
0.0025707054
9.0651454e-06
0.0025637388
6.9661397e-06
0.0025581018
5.6367071e-06
0.0025533737
4.7277809e-06
0.0025493721
4.001443e-06
0.0025459839
3.3881096e-06
0.0025430985
2.8853135e-06
0.0025406118
2.4867203e-06
0.0025384413
2.1704567e-06
0.0025365295
1.9118805e-06
0.0025348363
1.693292e-06
0.0025333317
1.5046629e-06
0.0025319915
1.3403324e-06
0.0025307953
1.1962542e-06
0.0025297264
1.069035e-06
0.0025287707
9.5587503e-07
0.0025279162
8.5463143e-07
0.0025271526
7.6368458e-07
0.002526471
6.8177265e-07
0.0025258633
6.0784611e-07
0.0025253224
5.4101794e-07
0.002524842
4.8052284e-07
0.0025244164
4.2570924e-07
0.0025240406
3.7600917e-07
0.0025237098
3.3093256e-07
0.0025234199
2.9004705e-07
0.002523167
2.5298018e-07
0.0025229478
2.1940744e-07
0.0025227588
1.8905533e-07
0.0025225973
1.616907e-07
0.0025224603
1.3712008e-07
0.0025223452
1.1517836e-07
0.0025222497
9.5723026e-08
0.0025221712
7.8622713e-08
0.0025221075
6.3748917e-08
0.0025220567
5.0968371e-08
0.0025220166
4.0136133e-08
0.0025219856
3.109509e-08
0.002521962
2.3673034e-08
0.0025219444
1.7689732e-08
0.0025219316
1.2956888e-08
0.0025219223
9.2896357e-09
0.0025219159
6.5079507e-09
0.0025219115
4.4474471e-09
0.0025219086
2.9567517e-09
0.0025219067
1.9072355e-09
0.0025219055
1.1875826e-09
0.0025219048
7.1031422e-10
0.0025219045
4.0340839e-10
0.0025219043
2.1470081e-10
0.0025219042
1.0302256e-10
0.0025219041
4.17853e-11
0.0025219041
9.5967461e-12
0.0025219041
-2.4472e-12
0.0025219041
-7.47261e-12
0.0025219042
-7.2889194e-12
0.0025219042
-6.1680003e-12
0.0025219042
-3.806232e-12
0.0025219042
-2.6492096e-12
0.0025219042
-1.1655826e-12
0.0025219042
-9.1767802e-13
0.0025219042
-2.9873179e-13
0.0025219042
-6.6319604e-13
0.0025219042
-3.7817103e-13
0.0025219042
-9.1650382e-13
0.0025219042
-5.8674904e-13
0.0025219042
-1.0670434e-12
0.0025219042
-6.1428727e-13
0.0025219042
-9.023521e-13
0.0025219042
-3.1179741e-13
0.0025219042
-4.3485025e-13
0.0025219042
2.0019959e-13
0.0025219042
1.6660022e-13
0.0025219042
8.9195584e-13
0.0025219042
7.6089175e-13
0.0025219042
1.4697287e-12
0.0025219042
1.2644151e-12
0.0025219042
1.9063033e-12
0.0025219042
1.5755479e-12
0.0025219042
2.0744092e-12
0.0025219042
1.6761164e-12
0.0025219042
2.0618598e-12
0.0025219042
1.6323646e-12
0.0025219042
1.8915649e-12
0.0025219042
1.6263096e-12
0.0025219042
1.8793592e-12
0.0025219042
2.0725753e-12
0.0025219042
2.5546347e-12
0.0025219042
4.040923e-12
0.0025219041
5.8842132e-12
0.0025219041
1.1570588e-11
0.0025219041
1.8578735e-11
0.0025219041
3.5223299e-11
0.002521904
5.4648065e-11
0.0025219039
1.0648843e-10
1.4452658e-10
0.0062771832
4.0344528e-06
0.0062725875
1.646661e-05
0.0062643263
2.2080712e-05
0.0062549218
2.1258878e-05
0.0062459139
1.8072533e-05
0.0062376617
1.5218002e-05
0.0062301084
1.3189787e-05
0.0062232074
1.1628582e-05
0.0062169731
1.0235531e-05
0.006211408
8.9530066e-06
0.0062064692
7.8240277e-06
0.0062020862
6.8697082e-06
0.0061981873
6.0693615e-06
0.0061947116
5.387604e-06
0.0061916089
4.7960088e-06
0.0061888365
4.2771509e-06
0.0061863569
3.819986e-06
0.0061841375
3.4157217e-06
0.0061821501
3.0565162e-06
0.0061803704
2.7356808e-06
0.0061787773
2.4478525e-06
0.0061773522
2.1888174e-06
0.0061760789
1.9551617e-06
0.0061749429
1.7440279e-06
0.006173931
1.5529682e-06
0.0061730317
1.3798836e-06
0.0061722346
1.2229592e-06
0.0061715301
1.0806221e-06
0.0061709096
9.5149308e-07
0.0061703654
8.3436507e-07
0.0061698903
7.2817922e-07
0.0061694778
6.3201782e-07
0.0061691218
5.4508977e-07
0.0061688169
4.6672244e-07
0.0061685578
3.9634514e-07
0.0061683396
3.3347221e-07
0.0061681578
2.7768058e-07
0.0061680079
2.285844e-07
0.0061678859
1.8581217e-07
0.006167788
1.4898206e-07
0.0061677106
1.1768907e-07
0.0061676503
9.149152e-08
0.0061676041
6.9915126e-08
0.0061675694
5.2453977e-08
0.0061675438
3.8588908e-08
0.0061675254
2.7797149e-08
0.0061675124
1.9576073e-08
0.0061675034
1.345208e-08
0.0061674974
8.9996745e-09
0.0061674935
5.8432143e-09
0.0061674911
3.6674429e-09
0.0061674896
2.2109822e-09
0.0061674888
1.2695436e-09
0.0061674883
6.829904e-10
0.0061674881
3.3464582e-10
0.006167488
1.3809363e-10
0.006167488
3.7088991e-11
0.006167488
-8.6198788e-12
0.006167488
-2.4579046e-11
0.006167488
-2.6467456e-11
0.0061674881
-2.1388064e-11
0.0061674881
-1.5614629e-11
0.0061674881
-9.7908464e-12
0.0061674881
-6.0319353e-12
0.0061674881
-3.0560742e-12
0.0061674881
-1.8034724e-12
0.0061674881
-8.8965696e-13
0.0061674881
-1.0017514e-12
0.0061674881
-7.8417769e-13
0.0061674881
-1.2508905e-12
0.0061674881
-1.0854684e-12
0.0061674881
-1.4605027e-12
0.0061674881
-1.0370242e-12
0.0061674881
-1.1008408e-12
0.0061674881
-5.1431328e-13
0.0061674881
-3.2724297e-13
0.0061674881
4.2340299e-13
0.0061674881
6.8490963e-13
0.0061674881
1.5300282e-12
0.0061674881
1.6695482e-12
0.0061674881
2.5341417e-12
0.0061674881
2.5598552e-12
0.0061674881
3.28217e-12
0.0061674881
3.0956402e-12
0.0061674881
3.7502001e-12
0.0061674881
3.4048524e-12
0.0061674881
4.0142455e-12
0.0061674881
3.5031057e-12
0.0061674881
4.4120948e-12
0.0061674881
3.9522439e-12
0.0061674881
5.7288152e-12
0.0061674881
5.7521702e-12
0.0061674881
1.0105277e-11
0.0061674881
1.2935777e-11
0.006167488
2.420214e-11
0.006167488
3.5401719e-11
0.006167488
6.1222189e-11
0.0061674879
9.1868725e-11
0.0061674879
1.4145509e-10
1.8768208e-10
0.0086772918
2.841642e-06
0.0086802468
1.3512449e-05
0.0086826145
1.97129e-05
0.008683601
2.0271898e-05
0.00868356
1.8113155e-05
0.0086828559
1.5921922e-05
0.0086816905
1.4354966e-05
0.0086801979
1.3120854e-05
0.0086785088
1.1924463e-05
0.0086767359
1.0725739e-05
0.0086749581
9.6017639e-06
0.008673223
8.6048318e-06
0.0086715586
7.7337044e-06
0.0086699826
6.9635962e-06
0.0086685055
6.2731807e-06
0.0086671319
5.6507221e-06
0.0086658625
5.089474e-06
0.0086646948
4.5834144e-06
0.0086636251
4.1263127e-06
0.0086626485
3.7123644e-06
0.0086617597
3.3367051e-06
0.0086609532
2.9953532e-06
0.0086602235
2.6849525e-06
0.008659565
2.402556e-06
0.0086589725
2.1455478e-06
0.0086584409
1.9115979e-06
0.0086579653
1.6986393e-06
0.0086575411
1.5048244e-06
0.0086571642
1.3285004e-06
0.0086568305
1.1681804e-06
0.0086565362
1.0225382e-06
0.0086562779
8.9039393e-07
0.0086560523
7.7071381e-07
0.0086558566
6.6259717e-07
0.0086556877
5.6526968e-07
0.0086555432
4.7806279e-07
0.0086554206
4.0039483e-07
0.0086553175
3.3174142e-07
0.0086552318
2.7160781e-07
0.0086551614
2.1949987e-07
0.0086551042
1.7490057e-07
0.0086550585
1.3725523e-07
0.0086550226
1.0596342e-07
0.0086549947
8.0385145e-08
0.0086549735
5.9849899e-08
0.0086549577
4.3678502e-08
0.0086549461
3.1200521e-08
0.0086549378
2.1779521e-08
0.008654932
1.4827081e-08
0.0086549281
9.820648e-09
0.0086549255
6.3073055e-09
0.0086549238
3.9109847e-09
0.0086549228
2.3254815e-09
0.0086549221
1.3126594e-09
0.0086549218
6.9073756e-10
0.0086549216
3.265427e-10
0.0086549215
1.2613496e-10
0.0086549215
2.5679556e-11
0.0086549215
-1.8673034e-11
0.0086549215
-3.1884358e-11
0.0086549215
-3.1275936e-11
0.0086549215
-2.4711188e-11
0.0086549215
-1.769878e-11
0.0086549216
-1.1292919e-11
0.0086549216
-6.9318516e-12
0.0086549216
-3.8286108e-12
0.0086549216
-2.2531221e-12
0.0086549216
-1.2816253e-12
0.0086549216
-1.053825e-12
0.0086549216
-8.6232541e-13
0.0086549216
-1.0192407e-12
0.0086549216
-8.5654633e-13
0.0086549216
-8.8751889e-13
0.0086549216
-5.7291374e-13
0.0086549216
-3.1609414e-13
0.0086549216
5.0458785e-14
0.0086549216
5.1976338e-13
0.0086549216
1.1275722e-12
0.0086549216
1.4781405e-12
0.0086549216
2.1643311e-12
0.0086549216
2.4467167e-12
0.0086549216
3.0497698e-12
0.0086549216
3.2144196e-12
0.0086549216
3.696979e-12
0.0086549216
3.8007344e-12
0.0086549216
4.1267391e-12
0.0086549216
4.2702418e-12
0.0086549216
4.5161642e-12
0.0086549216
5.02085e-12
0.0086549216
5.3388039e-12
0.0086549216
6.8736289e-12
0.0086549216
7.9104727e-12
0.0086549216
1.2501509e-11
0.0086549215
1.6964337e-11
0.0086549215
2.7659678e-11
0.0086549215
4.0225863e-11
0.0086549215
6.0765461e-11
0.0086549215
8.9251424e-11
0.0086549215
1.2188162e-10
1.5736015e-10
0.010107052
1.4057922e-06
0.010113291
7.2736874e-06
0.010121898
1.1105929e-05
0.010130343
1.1827111e-05
0.010137636
1.0819253e-05
0.01014387
9.6879584e-06
0.010149325
8.9000808e-06
0.010154149
8.2959285e-06
0.010158392
7.6817231e-06
0.01016209
7.0271864e-06
0.010165305
6.3868432e-06
0.010168107
5.8024662e-06
0.010170561
5.2796424e-06
0.010172718
4.8065585e-06
0.010174619
4.372588e-06
0.010176297
3.9730164e-06
0.01017778
3.6059591e-06
0.010179094
3.269522e-06
0.010180259
2.9611695e-06
0.010181294
2.6783127e-06
0.010182212
2.4186902e-06
0.010183027
2.1804386e-06
0.01018375
1.9619113e-06
0.010184391
1.7616132e-06
0.010184958
1.5781342e-06
0.01018546
1.4101849e-06
0.010185902
1.2565633e-06
0.010186291
1.1161757e-06
0.010186631
9.8799953e-07
0.010186928
8.7110338e-07
0.010187186
7.6462282e-07
0.010187409
6.6778268e-07
0.0101876
5.798785e-07
0.010187762
5.0029311e-07
0.010187899
4.2847826e-07
0.010188013
3.6396059e-07
0.010188107
3.0631975e-07
0.010188184
2.551811e-07
0.010188246
2.1019213e-07
0.010188294
1.7100719e-07
0.010188332
1.3727009e-07
0.010188361
1.0860011e-07
0.010188382
8.4589081e-08
0.010188398
6.4795721e-08
0.010188409
4.8759264e-08
0.010188417
3.6001531e-08
0.010188422
2.6051114e-08
0.010188425
1.8446886e-08
0.010188427
1.2763805e-08
0.010188428
8.6110277e-09
0.010188429
5.6524494e-09
0.010188429
3.5965993e-09
0.01018843
2.2101365e-09
0.01018843
1.3013339e-09
0.01018843
7.282054e-10
0.01018843
3.787441e-10
0.01018843
1.7750049e-10
0.01018843
6.699967e-11
0.010188429
1.3192455e-11
0.010188429
-1.1232714e-11
0.010188429
-1.731469e-11
0.010188429
-1.773069e-11
0.010188429
-1.3365245e-11
0.010188429
-1.0424923e-11
0.010188429
-6.2815956e-12
0.010188429
-4.689926e-12
0.010188429
-2.2659332e-12
0.010188429
-1.9757369e-12
0.010188429
-6.917847e-13
0.010188429
-9.5852755e-13
0.010188429
-1.2463264e-13
0.010188429
-4.5659152e-13
0.010188429
3.0821775e-13
0.010188429
4.0650655e-14
0.010188429
9.0309983e-13
0.010188429
5.5851972e-13
0.010188429
1.6109469e-12
0.010188429
1.1746291e-12
0.010188429
2.3063425e-12
0.010188429
1.7784577e-12
0.010188429
2.8765759e-12
0.010188429
2.2221122e-12
0.010188429
3.3199798e-12
0.010188429
2.5718873e-12
0.010188429
3.653251e-12
0.010188429
2.8354248e-12
0.010188429
4.0712361e-12
0.010188429
3.2665664e-12
0.010188429
4.8436602e-12
0.010188429
4.1649079e-12
0.010188429
6.6536348e-12
0.010188429
6.866628e-12
0.010188429
1.1698425e-11
0.010188429
1.4587025e-11
0.010188429
2.2765305e-11
0.010188429
3.0195961e-11
0.010188429
4.1840619e-11
0.010188429
5.7591558e-11
0.01018843
7.3143834e-11
9.1173652e-11
0.010770148
3.904598e-11
0.010777422
1.2939365e-10
0.010788528
5.996978e-11
0.010800355
-4.4794305e-11
0.010811174
-8.3273101e-11
0.010820862
-7.4229453e-11
0.010829762
-8.0627939e-11
0.010838057
-1.1111684e-10
0.010845739
-1.4071537e-10
0.010852766
-1.6147382e-10
0.010859153
-1.7166772e-10
0.010864956
-1.8841624e-10
0.010870236
-2.0121578e-10
0.010875042
-2.1427237e-10
0.010879415
-2.1538975e-10
0.010883388
-2.1323508e-10
0.010886995
-2.0086315e-10
0.010890264
-1.8776853e-10
0.010893226
-1.6701913e-10
0.010895904
-1.4655776e-10
0.010898323
-1.2071665e-10
0.010900504
-9.7549407e-11
0.010902466
-7.2221896e-11
0.010904227
-5.1321599e-11
0.010905806
-3.0462422e-11
0.010907216
-1.4969279e-11
0.010908473
-6.6364771e-13
0.010909589
8.6104044e-12
0.010910577
1.7210473e-11
0.010911448
2.2077104e-11
0.010912213
2.7399516e-11
0.010912881
3.1288978e-11
0.01091346
3.7120928e-11
0.010913961
4.3450386e-11
0.010914389
5.2348958e-11
0.010914753
6.2782536e-11
0.01091506
7.5373632e-11
0.010915315
8.9224655e-11
0.010915525
1.0356748e-10
0.010915696
1.1798951e-10
0.010915833
1.3087872e-10
0.010915942
1.4255785e-10
0.010916026
1.5087098e-10
0.010916091
1.5695043e-10
0.01091614
1.5860164e-10
0.010916176
1.5789998e-10
0.010916201
1.5264057e-10
0.01091622
1.4545402e-10
0.010916232
1.3433217e-10
0.010916241
1.2249454e-10
0.010916247
1.0793768e-10
0.01091625
9.3900612e-11
0.010916252
7.838037e-11
0.010916254
6.4874606e-11
0.010916254
5.1217355e-11
0.010916255
4.0168523e-11
0.010916255
2.914366e-11
0.010916255
2.1177574e-11
0.010916255
1.4054111e-11
0.010916255
9.42864e-12
0.010916255
4.8084876e-12
0.010916255
2.7021576e-12
0.010916255
2.8640415e-13
0.010916255
-2.1350418e-13
0.010916255
-1.4524554e-12
0.010916255
-1.0204885e-12
0.010916255
-1.5289586e-12
0.010916255
-6.8893962e-13
0.010916255
-9.505628e-13
0.010916255
8.1969184e-14
0.010916255
-4.3421586e-14
0.010916255
9.5975287e-13
0.010916255
6.5188929e-13
0.010916255
1.690022e-12
0.010916255
1.3191038e-12
0.010916255
2.2175134e-12
0.010916255
1.6676454e-12
0.010916255
2.4698436e-12
0.010916255
1.887676e-12
0.010916255
2.5348344e-12
0.010916255
1.8040257e-12
0.010916255
2.3853327e-12
0.010916255
1.7281469e-12
0.010916255
2.2418174e-12
0.010916255
1.5559443e-12
0.010916255
2.185476e-12
0.010916255
1.7065405e-12
0.010916255
2.4894978e-12
0.010916255
2.1841216e-12
0.010916255
3.2315225e-12
0.010916255
3.5137509e-12
0.010916255
5.3478394e-12
0.010916255
6.4605015e-12
0.010916255
9.2320668e-12
0.010916255
1.0058884e-11
0.010916255
1.2102695e-11
0.010916255
1.1382025e-11
0.010916255
1.1818145e-11
0.010916255
1.0548678e-11
9.8259796e-12
0.010770147
-1.4058566e-06
0.010777422
-7.2739639e-06
0.010788528
-1.1106053e-05
0.010800355
-1.1827104e-05
0.010811173
-1.0819323e-05
0.010820861
-9.6881534e-06
0.010829761
-8.9003189e-06
0.010838057
-8.2961676e-06
0.010845739
-7.6819667e-06
0.010852766
-7.0274605e-06
0.010859153
-6.3871543e-06
0.010864955
-5.802815e-06
0.010870235
-5.2800151e-06
0.010875042
-4.8069478e-06
0.010879415
-4.3729792e-06
0.010883388
-3.9734024e-06
0.010886994
-3.6063263e-06
0.010890264
-3.2698642e-06
0.010893225
-2.9614755e-06
0.010895904
-2.6785795e-06
0.010898322
-2.4189114e-06
0.010900503
-2.1806162e-06
0.010902465
-1.962044e-06
0.010904227
-1.7617067e-06
0.010905805
-1.5781911e-06
0.010907215
-1.4102129e-06
0.010908472
-1.2565665e-06
0.010909588
-1.1161614e-06
0.010910576
-9.8797071e-07
0.010911447
-8.7106507e-07
0.010912212
-7.6457535e-07
0.01091288
-6.6772728e-07
0.01091346
-5.7981249e-07
0.01091396
-5.0021461e-07
0.010914389
-4.2838303e-07
0.010914753
-3.6384551e-07
0.010915059
-3.0618115e-07
0.010915314
-2.5501696e-07
0.010915525
-2.1000154e-07
0.010915696
-1.7079072e-07
0.010915833
-1.3703021e-07
0.010915941
-1.0834005e-07
0.010916026
-8.4314345e-08
0.010916091
-6.4511456e-08
0.010916139
-4.8472478e-08
0.010916175
-3.5717686e-08
0.010916201
-2.5777285e-08
0.01091622
-1.8187666e-08
0.010916232
-1.2524821e-08
0.010916241
-8.3947709e-09
0.010916247
-5.4623594e-09
0.01091625
-3.4328259e-09
0.010916252
-2.0737616e-09
0.010916254
-1.1899747e-09
0.010916254
-6.4039509e-10
0.010916255
-3.1130464e-10
0.010916255
-1.2891457e-10
0.010916255
-3.3264384e-11
0.010916255
9.7094186e-12
0.010916255
2.5364698e-11
0.010916255
2.4237961e-11
0.010916255
2.066845e-11
0.010916255
1.2929661e-11
0.010916255
8.6682818e-12
0.010916255
3.4563849e-12
0.010916255
1.9589007e-12
0.010916255
-4.0745704e-13
0.010916255
2.518215e-14
0.010916255
-7.2530714e-13
0.010916255
7.45525e-13
0.010916255
3.1798299e-13
0.010916255
1.9087722e-12
0.010916255
1.2201044e-12
0.010916255
2.8677717e-12
0.010916255
1.8549346e-12
0.010916255
3.1838369e-12
0.010916255
1.8974484e-12
0.010916255
3.0522933e-12
0.010916255
1.5968697e-12
0.010916255
2.4661455e-12
0.010916255
9.5139637e-13
0.010916255
1.7243805e-12
0.010916255
3.6748371e-13
0.010916255
1.0054405e-12
0.010916255
-1.7884861e-13
0.010916255
6.8198939e-13
0.010916255
-3.8027576e-13
0.010916255
7.3902103e-13
0.010916255
-1.8537052e-13
0.010916255
1.3526992e-12
0.010916255
3.8776704e-13
0.010916255
2.3581991e-12
0.010916255
6.0779681e-13
0.010916255
1.4111869e-12
0.010916255
-4.3120595e-12
0.010916255
-8.5865821e-12
0.010916255
-2.0922256e-11
0.010916255
-3.6658051e-11
0.010916255
-5.3986652e-11
-7.3101734e-11
0.010107052
-2.8415999e-06
0.010113291
-1.3512351e-05
0.010121898
-1.9712967e-05
0.010130343
-2.0272062e-05
0.010137636
-1.8113289e-05
0.01014387
-1.5922006e-05
0.010149324
-1.4355064e-05
0.010154149
-1.3120983e-05
0.010158391
-1.1924636e-05
0.010162089
-1.0725932e-05
0.010165304
-9.6019848e-06
0.010168106
-8.6050658e-06
0.01017056
-7.7339649e-06
0.010172717
-6.9638657e-06
0.010174618
-6.273464e-06
0.010176295
-5.650998e-06
0.010177779
-5.0897456e-06
0.010179093
-4.5836625e-06
0.010180258
-4.1265417e-06
0.010181292
-3.7125592e-06
0.01018221
-3.3368731e-06
0.010183025
-2.9954839e-06
0.010183748
-2.6850556e-06
0.010184389
-2.4026258e-06
0.010184956
-2.1455959e-06
0.010185458
-1.9116211e-06
0.0101859
-1.6986487e-06
0.010186289
-1.5048179e-06
0.010186629
-1.3284867e-06
0.010186927
-1.1681567e-06
0.010187185
-1.0225095e-06
0.010187407
-8.9035574e-07
0.010187598
-7.7066781e-07
0.010187761
-6.6253826e-07
0.010187898
-5.6519717e-07
0.010188012
-4.7797271e-07
0.010188106
-4.0028604e-07
0.010188183
-3.3161271e-07
0.010188244
-2.7145897e-07
0.010188293
-2.1933313e-07
0.010188331
-1.7471697e-07
0.01018836
-1.3706002e-07
0.010188381
-1.0575852e-07
0.010188397
-8.0177673e-08
0.010188408
-5.9641608e-08
0.010188416
-4.3477122e-08
0.010188421
-3.1006992e-08
0.010188425
-2.1600983e-08
0.010188427
-1.466275e-08
0.010188428
-9.6763824e-09
0.010188429
-6.1807204e-09
0.01018843
-3.8061065e-09
0.01018843
-2.2381099e-09
0.01018843
-1.2448515e-09
0.01018843
-6.3708433e-10
0.01018843
-2.8888835e-10
0.01018843
-9.9197919e-11
0.01018843
-9.1692485e-12
0.01018843
2.9818458e-11
0.01018843
3.5673961e-11
0.01018843
3.3429928e-11
0.01018843
2.2590421e-11
0.01018843
1.60011e-11
0.01018843
7.344873e-12
0.01018843
4.4498176e-12
0.01018843
2.5234692e-13
0.01018843
3.7326561e-13
0.01018843
-1.2969127e-12
0.01018843
6.0506208e-13
0.01018843
-1.0129495e-13
0.01018843
2.0475615e-12
0.01018843
9.7686218e-13
0.01018843
3.2130434e-12
0.01018843
1.754739e-12
0.01018843
3.6158879e-12
0.01018843
1.7495809e-12
0.01018843
3.3012592e-12
0.01018843
1.277533e-12
0.01018843
2.4218421e-12
0.01018843
4.1178315e-13
0.01018843
1.3340973e-12
0.01018843
-5.9467942e-13
0.01018843
2.2634915e-13
0.01018843
-1.5636549e-12
0.01018843
-4.1284807e-13
0.01018843
-2.0153105e-12
0.01018843
-6.9970179e-13
0.01018843
-2.0603102e-12
0.01018843
-6.7274196e-13
0.01018843
-1.5808978e-12
0.01018843
-6.5074282e-13
0.01018843
-1.7428807e-12
0.01018843
-2.723969e-12
0.01018843
-6.7479863e-12
0.01018843
-1.3832329e-11
0.01018843
-2.5712139e-11
0.01018843
-4.5312053e-11
0.01018843
-7.4546019e-11
0.01018843
-1.080767e-10
-1.4307528e-10
0.0086772915
-4.0344635e-06
0.0086802464
-1.6466631e-05
0.0086826141
-2.2080796e-05
0.0086836005
-2.1259041e-05
0.0086835595
-1.8072709e-05
0.0086828553
-1.5218129e-05
0.0086816898
-1.3189879e-05
0.0086801972
-1.1628667e-05
0.0086785079
-1.0235631e-05
0.0086767349
-8.9531128e-06
0.008674957
-7.8241357e-06
0.0086732217
-6.8698126e-06
0.0086715572
-6.0694717e-06
0.008669981
-5.3877202e-06
0.0086685038
-4.7961349e-06
0.0086671301
-4.277279e-06
0.0086658605
-3.8201137e-06
0.0086646928
-3.4158401e-06
0.008663623
-3.0566244e-06
0.0086626463
-2.7357729e-06
0.0086617575
-2.4479295e-06
0.008660951
-2.1888759e-06
0.0086602212
-1.9552046e-06
0.0086595628
-1.7440541e-06
0.0086589703
-1.5529821e-06
0.0086584387
-1.3798856e-06
0.0086579631
-1.2229533e-06
0.008657539
-1.0806088e-06
0.0086571621
-9.5147548e-07
0.0086568284
-8.3434252e-07
0.0086565342
-7.2815287e-07
0.008656276
-6.3198599e-07
0.0086560505
-5.4505206e-07
0.0086558548
-4.6667682e-07
0.008655686
-3.962906e-07
0.0086555416
-3.3340738e-07
0.008655419
-2.7760493e-07
0.0086553161
-2.2849824e-07
0.0086552305
-1.8571589e-07
0.0086551601
-1.4887748e-07
0.0086551031
-1.1757749e-07
0.0086550576
-9.137612e-08
0.0086550217
-6.979755e-08
0.008654994
-5.233768e-08
0.0086549729
-3.8475355e-08
0.0086549572
-2.7689797e-08
0.0086549458
-1.9475768e-08
0.0086549376
-1.3361424e-08
0.0086549319
-8.9186505e-09
0.008654928
-5.7737557e-09
0.0086549255
-3.6086415e-09
0.0086549239
-2.1638818e-09
0.0086549229
-1.2317351e-09
0.0086549224
-6.5470255e-10
0.0086549221
-3.1416508e-10
0.0086549219
-1.2540258e-10
0.0086549218
-2.796277e-11
0.0086549218
1.2090961e-11
0.0086549218
2.5920922e-11
0.0086549219
2.5261226e-11
0.0086549219
1.9637699e-11
0.0086549219
1.2562011e-11
0.0086549219
7.0779601e-12
0.0086549219
2.8781016e-12
0.0086549219
7.5474996e-13
0.0086549219
-6.2469963e-13
0.0086549219
-7.2827413e-13
0.0086549219
-5.1612577e-13
0.0086549219
3.1010328e-13
0.0086549219
7.412743e-13
0.0086549219
1.4232348e-12
0.0086549219
1.7603317e-12
0.0086549219
2.2529479e-12
0.0086549219
2.1140911e-12
0.0086549219
2.1866704e-12
0.0086549219
1.8644533e-12
0.0086549219
1.7568006e-12
0.0086549219
1.0651367e-12
0.0086549219
7.4606858e-13
0.0086549219
1.028788e-13
0.0086549219
-1.8616368e-13
0.0086549219
-9.1134271e-13
0.0086549219
-1.2134941e-12
0.0086549219
-1.6097369e-12
0.0086549219
-1.6986213e-12
0.0086549219
-1.9580317e-12
0.0086549219
-1.985584e-12
0.0086549219
-1.8395134e-12
0.0086549219
-1.8083786e-12
0.0086549219
-1.5262157e-12
0.0086549219
-2.1629742e-12
0.0086549219
-2.2229806e-12
0.0086549219
-5.5204373e-12
0.0086549219
-8.4805654e-12
0.0086549219
-1.8290386e-11
0.0086549219
-2.8147394e-11
0.0086549219
-5.3917986e-11
0.0086549219
-8.5232572e-11
0.0086549219
-1.3352242e-10
-1.7843483e-10
0.0062771825
-3.7119028e-06
0.0062725867
-1.1870088e-05
0.0062643256
-1.3819664e-05
0.0062549211
-1.1855105e-05
0.0062459132
-9.0654055e-06
0.006237661
-6.9664077e-06
0.0062301077
-5.6369108e-06
0.0062232065
-4.7279178e-06
0.0062169722
-4.0015233e-06
0.006211407
-3.3881664e-06
0.0062064682
-2.8853452e-06
0.0062020851
-2.4867394e-06
0.0061981861
-2.170457e-06
0.0061947103
-1.9118788e-06
0.0061916075
-1.693284e-06
0.006188835
-1.5046594e-06
0.0061863553
-1.3403229e-06
0.0061841359
-1.1962454e-06
0.0061821484
-1.0690173e-06
0.0061803686
-9.5585552e-07
0.0061787755
-8.5460239e-07
0.0061773504
-7.6365289e-07
0.0061760771
-6.8173216e-07
0.0061749411
-6.078035e-07
0.0061739292
-5.4096832e-07
0.00617303
-4.8047239e-07
0.0061722329
-4.2565411e-07
0.0061715284
-3.7595462e-07
0.006170908
-3.3087517e-07
0.0061703638
-2.8999075e-07
0.0061698888
-2.5292201e-07
0.0061694763
-2.1935009e-07
0.0061691205
-1.8899634e-07
0.0061688156
-1.6163156e-07
0.0061685565
-1.3705932e-07
0.0061683384
-1.1511667e-07
0.0061681567
-9.566027e-08
0.0061680069
-7.8558834e-08
0.006167885
-6.3685156e-08
0.0061677872
-5.0904065e-08
0.0061677099
-4.0073846e-08
0.0061676497
-3.103334e-08
0.0061676036
-2.3615214e-08
0.006167569
-1.7633624e-08
0.0061675436
-1.2906449e-08
0.0061675252
-9.2419408e-09
0.0061675123
-6.4668646e-09
0.0061675034
-4.4096499e-09
0.0061674975
-2.9259566e-09
0.0061674936
-1.8797572e-09
0.0061674912
-1.1666971e-09
0.0061674898
-6.9207865e-10
0.006167489
-3.9091704e-10
0.0061674886
-2.0416563e-10
0.0061674884
-9.7055312e-11
0.0061674883
-3.6606545e-11
0.0061674883
-7.7814145e-12
0.0061674883
4.2506367e-12
0.0061674883
6.804053e-12
0.0061674883
7.780207e-12
0.0061674884
4.3704196e-12
0.0061674884
3.5333726e-12
0.0061674884
6.8463324e-13
0.0061674884
7.5502612e-13
0.0061674884
-8.9520926e-13
0.0061674884
5.2099068e-14
0.0061674884
-8.8770455e-13
0.0061674884
5.913706e-13
0.0061674884
-2.1406539e-13
0.0061674884
1.1913267e-12
0.0061674884
2.9844683e-13
0.0061674884
1.6672532e-12
0.0061674884
5.1122751e-13
0.0061674884
1.6632806e-12
0.0061674884
4.0028703e-13
0.0061674884
1.4346223e-12
0.0061674884
7.2961542e-14
0.0061674884
8.911466e-13
0.0061674884
-5.2125479e-13
0.0061674884
3.8308128e-13
0.0061674884
-1.0715808e-12
0.0061674884
-1.9068484e-13
0.0061674884
-1.5382845e-12
0.0061674884
-4.5579241e-13
0.0061674884
-1.8229355e-12
0.0061674884
-6.1715257e-13
0.0061674884
-1.8723853e-12
0.0061674884
-4.8340751e-13
0.0061674884
-1.7604327e-12
0.0061674884
-3.5161306e-13
0.0061674884
-2.0783929e-12
0.0061674884
-1.0641405e-12
0.0061674884
-4.9863454e-12
0.0061674884
-5.2017441e-12
0.0061674884
-1.2336186e-11
0.0061674883
-1.7969525e-11
0.0061674883
-3.5640826e-11
0.0061674883
-5.4406204e-11
0.0061674882
-1.0378902e-10
-1.4085086e-10
0.002617316
0.0026054461
0.0025916262
0.0025797708
0.0025707051
0.0025637384
0.0025581013
0.0025533733
0.0025493716
0.0025459834
0.002543098
0.0025406113
0.0025384409
0.002536529
0.0025348358
0.0025333312
0.002531991
0.0025307948
0.0025297259
0.0025287701
0.0025279156
0.002527152
0.0025264704
0.0025258627
0.0025253218
0.0025248415
0.0025244159
0.0025240401
0.0025237093
0.0025234194
0.0025231666
0.0025229473
0.0025227585
0.0025225969
0.00252246
0.0025223449
0.0025222494
0.0025221709
0.0025221073
0.0025220565
0.0025220165
0.0025219855
0.002521962
0.0025219444
0.0025219315
0.0025219223
0.0025219159
0.0025219115
0.0025219086
0.0025219068
0.0025219056
0.0025219049
0.0025219046
0.0025219044
0.0025219043
0.0025219043
0.0025219043
0.0025219043
0.0025219043
0.0025219043
0.0025219043
0.0025219043
0.0025219043
0.0025219043
0.0025219043
0.0025219043
0.0025219043
0.0025219043
0.0025219043
0.0025219043
0.0025219043
0.0025219043
0.0025219043
0.0025219043
0.0025219043
0.0025219043
0.0025219043
0.0025219043
0.0025219043
0.0025219043
0.0025219043
0.0025219043
0.0025219043
0.0025219043
0.0025219043
0.0025219043
0.0025219043
0.0025219043
0.0025219043
0.0025219043
0.0025219043
0.0025219043
0.0025219043
0.0025219043
0.0025219043
0.0025219042
0.0025219042
0.0025219041
0.002521904
)
;

boundaryField
{
    top
    {
        type            calculated;
        value           uniform 0;
    }
    inlet
    {
        type            calculated;
        value           nonuniform List<scalar> 10(-0.0026210268 -0.0062775049 -0.0086760977 -0.010105615 -0.010768741 -0.01076874 -0.010105615 -0.0086760974 -0.0062775042 -0.0026210274);
    }
    outlet
    {
        type            calculated;
        value           nonuniform List<scalar> 10(0.0025219038 0.0061674879 0.0086549216 0.01018843 0.010916255 0.010916255 0.01018843 0.008654922 0.0061674882 0.0025219039);
    }
    bottom
    {
        type            calculated;
        value           uniform 0;
    }
    back
    {
        type            empty;
        value           nonuniform List<scalar> 0();
    }
    front
    {
        type            empty;
        value           nonuniform List<scalar> 0();
    }
}


// ************************************************************************* //
