/*--------------------------------*- C++ -*----------------------------------*\
| =========                 |                                                 |
| \\      /  F ield         | OpenFOAM: The Open Source CFD Toolbox           |
|  \\    /   O peration     | Version:  2112                                  |
|   \\  /    A nd           | Website:  www.openfoam.com                      |
|    \\/     M anipulation  |                                                 |
\*---------------------------------------------------------------------------*/
FoamFile
{
    version     2.0;
    format      ascii;
    arch        "LSB;label=32;scalar=64";
    class       volVectorField;
    location    "9";
    object      U;
}
// * * * * * * * * * * * * * * * * * * * * * * * * * * * * * * * * * * * * * //

dimensions      [0 1 -1 0 0 0 0];

internalField   nonuniform List<vector> 
1000
(
(0.26201353 0.00030286901 0)
(0.2613548 0.00084193721 0)
(0.25992496 0.00088853621 0)
(0.25854922 0.00065614946 0)
(0.2574873 0.00042166853 0)
(0.2566957 0.00028130548 0)
(0.25607497 0.0002110398 0)
(0.25556113 0.00016974298 0)
(0.25512644 0.00013794425 0)
(0.25475826 0.00011229412 0)
(0.25444604 9.318866e-05 0)
(0.25417885 7.967569e-05 0)
(0.25394716 6.9800914e-05 0)
(0.25374392 6.1935815e-05 0)
(0.25356432 5.5229002e-05 0)
(0.25340494 4.9358671e-05 0)
(0.25326313 4.4192856e-05 0)
(0.25313667 3.9623613e-05 0)
(0.25302372 3.5546731e-05 0)
(0.25292274 3.1878869e-05 0)
(0.25283245 2.8563518e-05 0)
(0.25275174 2.5561214e-05 0)
(0.25267965 2.2840658e-05 0)
(0.25261533 2.0373482e-05 0)
(0.25255803 1.8134386e-05 0)
(0.25250709 1.6100724e-05 0)
(0.2524619 1.4253008e-05 0)
(0.25242192 1.2573869e-05 0)
(0.25238668 1.1048219e-05 0)
(0.25235572 9.662549e-06 0)
(0.25232866 8.405294e-06 0)
(0.25230512 7.2663572e-06 0)
(0.25228478 6.2373284e-06 0)
(0.25226731 5.3109961e-06 0)
(0.25225244 4.4813584e-06 0)
(0.25223989 3.743147e-06 0)
(0.25222941 3.0916445e-06 0)
(0.25222075 2.5222683e-06 0)
(0.25221369 2.0303262e-06 0)
(0.252208 1.6108059e-06 0)
(0.25220349 1.2581963e-06 0)
(0.25219998 9.6655118e-07 0)
(0.25219727 7.2944193e-07 0)
(0.25219524 5.4026629e-07 0)
(0.25219373 3.9225946e-07 0)
(0.25219264 2.78906e-07 0)
(0.25219187 1.9389208e-07 0)
(0.25219134 1.3159277e-07 0)
(0.25219098 8.6951831e-08 0)
(0.25219075 5.5819282e-08 0)
(0.2521906 3.463485e-08 0)
(0.25219051 2.0705568e-08 0)
(0.25219046 1.1795747e-08 0)
(0.25219043 6.3802386e-09 0)
(0.25219042 3.1783164e-09 0)
(0.25219041 1.4307572e-09 0)
(0.25219041 4.9461061e-10 0)
(0.25219041 4.9928856e-11 0)
(0.25219041 -1.4186254e-10 0)
(0.25219042 -1.3862346e-10 0)
(0.25219042 -1.2590297e-10 0)
(0.25219042 -6.1710458e-11 0)
(0.25219042 -5.378149e-11 0)
(0.25219042 -1.3713854e-11 0)
(0.25219042 -3.1861717e-11 0)
(0.25219042 -9.9303053e-12 0)
(0.25219042 -4.2482958e-11 0)
(0.25219042 -2.7581314e-11 0)
(0.25219042 -5.6775533e-11 0)
(0.25219042 -3.5784656e-11 0)
(0.25219042 -5.8088358e-11 0)
(0.25219042 -2.9046855e-11 0)
(0.25219042 -4.1262513e-11 0)
(0.25219042 -3.4880484e-12 0)
(0.25219042 -1.3181955e-11 0)
(0.25219042 2.8364144e-11 0)
(0.25219042 2.1439387e-11 0)
(0.25219042 6.2520988e-11 0)
(0.25219042 5.4373651e-11 0)
(0.25219042 8.9645006e-11 0)
(0.25219042 7.8419242e-11 0)
(0.25219042 1.0782757e-10 0)
(0.25219042 8.8731207e-11 0)
(0.25219042 1.1005331e-10 0)
(0.25219042 8.6978104e-11 0)
(0.25219042 1.0345926e-10 0)
(0.25219042 7.6907188e-11 0)
(0.25219042 9.0473759e-11 0)
(0.25219042 7.1846634e-11 0)
(0.25219042 9.1601077e-11 0)
(0.25219042 9.787879e-11 0)
(0.25219042 1.4142979e-10 0)
(0.25219042 2.2916466e-10 0)
(0.25219042 3.760977e-10 0)
(0.25219041 7.4713477e-10 0)
(0.25219041 1.2676021e-09 0)
(0.25219041 2.3753307e-09 0)
(0.25219041 3.7501067e-09 0)
(0.25219039 7.0214168e-09 0)
(0.25219038 9.1497745e-09 0)
(0.62752123 0.00037205565 0)
(0.62810424 0.0015253519 0)
(0.6271835 0.0020423603 0)
(0.62599018 0.0019185716 0)
(0.62498571 0.0015601287 0)
(0.62414821 0.0012426739 0)
(0.62338431 0.0010247054 0)
(0.62266493 0.0008692954 0)
(0.62200188 0.00074145919 0)
(0.62140756 0.00063068946 0)
(0.62088196 0.00053791969 0)
(0.62041728 0.00046324714 0)
(0.62000465 0.00040349143 0)
(0.61963696 0.00035452534 0)
(0.61930882 0.00031321809 0)
(0.61901576 0.00027771512 0)
(0.61875384 0.00024691526 0)
(0.61851952 0.00022001272 0)
(0.61830973 0.0001963337 0)
(0.61812184 0.00017532869 0)
(0.61795361 0.00015657739 0)
(0.61780307 0.00013976361 0)
(0.61766848 0.0001246411 0)
(0.6175483 0.00011100793 0)
(0.61744117 9.8694323e-05 0)
(0.61734585 8.7555951e-05 0)
(0.61726124 7.7469955e-05 0)
(0.61718635 6.8330564e-05 0)
(0.61712028 6.0046288e-05 0)
(0.61706221 5.2537447e-05 0)
(0.61701139 4.5735179e-05 0)
(0.61696715 3.9580263e-05 0)
(0.61692885 3.4022534e-05 0)
(0.61689593 2.9019679e-05 0)
(0.61686783 2.4536238e-05 0)
(0.61684407 2.0541952e-05 0)
(0.61682417 1.7010214e-05 0)
(0.61680767 1.3916154e-05 0)
(0.61679417 1.123506e-05 0)
(0.61678325 8.9409321e-06 0)
(0.61677456 7.0056271e-06 0)
(0.61676773 5.3984587e-06 0)
(0.61676247 4.0864259e-06 0)
(0.61675848 3.0348847e-06 0)
(0.61675551 2.208533e-06 0)
(0.61675334 1.572573e-06 0)
(0.6167518 1.0937805e-06 0)
(0.61675073 7.4160899e-07 0)
(0.61675 4.8887216e-07 0)
(0.61674952 3.122536e-07 0)
(0.61674921 1.9229711e-07 0)
(0.61674902 1.1339543e-07 0)
(0.61674891 6.3295115e-08 0)
(0.61674885 3.2802809e-08 0)
(0.61674882 1.5157152e-08 0)
(0.6167488 5.6363661e-09 0)
(0.6167488 9.10917e-10 0)
(0.6167488 -1.1200798e-09 0)
(0.6167488 -1.6829562e-09 0)
(0.6167488 -1.5259755e-09 0)
(0.6167488 -1.1536007e-09 0)
(0.61674881 -7.4889181e-10 0)
(0.61674881 -4.5004546e-10 0)
(0.61674881 -2.3140479e-10 0)
(0.61674881 -1.2242305e-10 0)
(0.61674881 -5.8087519e-11 0)
(0.61674881 -6.028804e-11 0)
(0.61674881 -6.5710822e-11 0)
(0.61674881 -9.6715391e-11 0)
(0.61674881 -1.0501862e-10 0)
(0.61674881 -1.2793513e-10 0)
(0.61674881 -1.1875078e-10 0)
(0.61674881 -1.1503031e-10 0)
(0.61674881 -7.8785049e-11 0)
(0.61674881 -5.6237091e-11 0)
(0.61674881 -9.81957e-12 0)
(0.61674881 2.7734494e-11 0)
(0.61674881 8.7534139e-11 0)
(0.61674881 1.2412627e-10 0)
(0.61674881 1.7624823e-10 0)
(0.61674881 2.0668539e-10 0)
(0.61674881 2.4906007e-10 0)
(0.61674881 2.6381004e-10 0)
(0.61674881 2.8631848e-10 0)
(0.61674881 2.9091482e-10 0)
(0.61674881 2.996665e-10 0)
(0.61674881 2.9787512e-10 0)
(0.61674881 2.9227151e-10 0)
(0.61674881 3.1058833e-10 0)
(0.61674881 3.1003197e-10 0)
(0.61674881 3.9671069e-10 0)
(0.61674881 4.3538524e-10 0)
(0.61674881 7.2872422e-10 0)
(0.61674881 9.7421681e-10 0)
(0.6167488 1.8663453e-09 0)
(0.6167488 2.7999553e-09 0)
(0.6167488 5.1247364e-09 0)
(0.6167488 7.6577934e-09 0)
(0.61674878 1.3020325e-08 0)
(0.6167488 1.8393104e-08 0)
(0.86717204 0.00029443722 0)
(0.86883364 0.0014366625 0)
(0.86874233 0.0021550746 0)
(0.86836535 0.0022625196 0)
(0.86824033 0.0020472385 0)
(0.86826078 0.0017886281 0)
(0.86824127 0.0015866809 0)
(0.86812801 0.0014279104 0)
(0.86795596 0.0012825433 0)
(0.86776821 0.0011419857 0)
(0.86758474 0.0010116526 0)
(0.86740873 0.00089679346 0)
(0.86723931 0.00079766006 0)
(0.86707705 0.00071160381 0)
(0.86692369 0.00063590415 0)
(0.86678059 0.00056877449 0)
(0.86664819 0.00050909153 0)
(0.8665263 0.00045595306 0)
(0.86641446 0.00040851068 0)
(0.86631218 0.00036599622 0)
(0.86621895 0.00032776597 0)
(0.86613425 0.00029329888 0)
(0.86605752 0.00026216651 0)
(0.86598819 0.00023400562 0)
(0.86592573 0.00020850242 0)
(0.86586961 0.00018538469 0)
(0.86581933 0.0001644157 0)
(0.86577442 0.00014538871 0)
(0.86573444 0.00012812198 0)
(0.86569898 0.00011245537 0)
(0.86566764 9.824804e-05 0)
(0.86564008 8.5377001e-05 0)
(0.86561595 7.3735903e-05 0)
(0.86559494 6.3233741e-05 0)
(0.86557676 5.3793262e-05 0)
(0.86556114 4.5348726e-05 0)
(0.86554783 3.7843278e-05 0)
(0.86553658 3.1225704e-05 0)
(0.86552718 2.5447295e-05 0)
(0.86551941 2.0458723e-05 0)
(0.86551307 1.6207818e-05 0)
(0.86550796 1.2637974e-05 0)
(0.8655039 9.6879103e-06 0)
(0.86550074 7.2921734e-06 0)
(0.86549831 5.3827719e-06 0)
(0.86549648 3.8910639e-06 0)
(0.86549512 2.750186e-06 0)
(0.86549415 1.897027e-06 0)
(0.86549345 1.2741306e-06 0)
(0.86549298 8.3077372e-07 0)
(0.86549266 5.2376935e-07 0)
(0.86549245 3.1742856e-07 0)
(0.86549232 1.8331472e-07 0)
(0.86549224 9.9361587e-08 0)
(0.86549219 4.9130709e-08 0)
(0.86549217 2.0730703e-08 0)
(0.86549216 5.8796063e-09 0)
(0.86549215 -1.0192176e-09 0)
(0.86549215 -3.5084079e-09 0)
(0.86549215 -3.8301565e-09 0)
(0.86549215 -3.2013681e-09 0)
(0.86549215 -2.3427301e-09 0)
(0.86549215 -1.5348371e-09 0)
(0.86549216 -9.3265312e-10 0)
(0.86549216 -5.0746168e-10 0)
(0.86549216 -2.6946126e-10 0)
(0.86549216 -1.3588982e-10 0)
(0.86549216 -9.7625359e-11 0)
(0.86549216 -8.4406161e-11 0)
(0.86549216 -1.0470597e-10 0)
(0.86549216 -1.1472414e-10 0)
(0.86549216 -1.3029009e-10 0)
(0.86549216 -1.1687131e-10 0)
(0.86549216 -1.0318198e-10 0)
(0.86549216 -6.3616529e-11 0)
(0.86549216 -2.9241295e-11 0)
(0.86549216 3.1341164e-11 0)
(0.86549216 7.8091908e-11 0)
(0.86549216 1.4414503e-10 0)
(0.86549216 1.8925973e-10 0)
(0.86549216 2.5382211e-10 0)
(0.86549216 2.8960725e-10 0)
(0.86549216 3.4214788e-10 0)
(0.86549216 3.5882224e-10 0)
(0.86549216 4.0428791e-10 0)
(0.86549216 4.0375852e-10 0)
(0.86549216 4.4922471e-10 0)
(0.86549216 4.3194558e-10 0)
(0.86549216 5.0959282e-10 0)
(0.86549216 4.9454447e-10 0)
(0.86549216 6.6788714e-10 0)
(0.86549216 7.0774102e-10 0)
(0.86549215 1.154409e-09 0)
(0.86549216 1.4967774e-09 0)
(0.86549215 2.597499e-09 0)
(0.86549216 3.7630881e-09 0)
(0.86549215 6.0793196e-09 0)
(0.86549216 9.1294237e-09 0)
(0.86549213 1.3321896e-08 0)
(0.86549217 1.8230107e-08 0)
(1.0099441 0.00018048159 0)
(1.0122406 0.00096600813 0)
(1.0125977 0.0015319199 0)
(1.012701 0.0016866392 0)
(1.0132046 0.0015888922 0)
(1.0139536 0.0014359506 0)
(1.0146642 0.0013127192 0)
(1.0152264 0.0012159773 0)
(1.0156682 0.0011235232 0)
(1.0160433 0.0010277241 0)
(1.0163789 0.00093321538 0)
(1.0166793 0.00084569503 0)
(1.0169434 0.00076696212 0)
(1.0171737 0.00069603296 0)
(1.017375 0.00063146705 0)
(1.0175524 0.00057238247 0)
(1.0177094 0.00051833829 0)
(1.0178486 0.00046898944 0)
(1.0179721 0.00042394367 0)
(1.0180815 0.00038279327 0)
(1.0181787 0.00034516923 0)
(1.018265 0.00031075851 0)
(1.0183415 0.00027929023 0)
(1.0184095 0.00025052183 0)
(1.0184696 0.00022423072 0)
(1.0185229 0.00020021363 0)
(1.0185698 0.00017828464 0)
(1.0186112 0.0001582746 0)
(1.0186475 0.00014002853 0)
(1.0186793 0.00012340524 0)
(1.0187069 0.00010827604 0)
(1.0187308 9.452522e-05 0)
(1.0187514 8.2049415e-05 0)
(1.018769 7.0757872e-05 0)
(1.0187839 6.0571389e-05 0)
(1.0187963 5.1421511e-05 0)
(1.0188067 4.3248462e-05 0)
(1.0188151 3.5998965e-05 0)
(1.018822 2.9623377e-05 0)
(1.0188274 2.4072921e-05 0)
(1.0188316 1.9297235e-05 0)
(1.0188349 1.5242402e-05 0)
(1.0188374 1.1850169e-05 0)
(1.0188392 9.0577178e-06 0)
(1.0188405 6.7989039e-06 0)
(1.0188414 5.0055356e-06 0)
(1.018842 3.6098433e-06 0)
(1.0188424 2.546195e-06 0)
(1.0188427 1.7535559e-06 0)
(1.0188428 1.1765505e-06 0)
(1.0188429 7.6702868e-07 0)
(1.0188429 4.839937e-07 0)
(1.018843 2.9410883e-07 0)
(1.018843 1.7067326e-07 0)
(1.018843 9.3415805e-08 0)
(1.018843 4.6989712e-08 0)
(1.018843 2.0643953e-08 0)
(1.018843 6.6603669e-09 0)
(1.0188429 7.7857163e-11 0)
(1.0188429 -2.5413264e-09 0)
(1.0188429 -3.0336454e-09 0)
(1.0188429 -2.6989772e-09 0)
(1.0188429 -2.0054187e-09 0)
(1.0188429 -1.4044765e-09 0)
(1.0188429 -8.5827191e-10 0)
(1.0188429 -5.4254359e-10 0)
(1.0188429 -2.7979934e-10 0)
(1.0188429 -1.9101936e-10 0)
(1.0188429 -8.6565805e-11 0)
(1.0188429 -9.7022983e-11 0)
(1.0188429 -4.3543434e-11 0)
(1.0188429 -7.5491887e-11 0)
(1.0188429 -2.5036817e-11 0)
(1.0188429 -4.5840538e-11 0)
(1.0188429 2.0168521e-11 0)
(1.0188429 2.0177097e-11 0)
(1.0188429 9.8405052e-11 0)
(1.0188429 1.0170944e-10 0)
(1.0188429 1.8462102e-10 0)
(1.0188429 1.8767202e-10 0)
(1.0188429 2.6833695e-10 0)
(1.0188429 2.6204688e-10 0)
(1.0188429 3.3724744e-10 0)
(1.0188429 3.1962371e-10 0)
(1.0188429 3.9148821e-10 0)
(1.0188429 3.6168669e-10 0)
(1.0188429 4.4254841e-10 0)
(1.0188429 4.0792241e-10 0)
(1.0188429 5.2366966e-10 0)
(1.0188429 4.9762274e-10 0)
(1.0188429 7.0592428e-10 0)
(1.0188429 7.504304e-10 0)
(1.0188429 1.2141874e-09 0)
(1.0188429 1.5652026e-09 0)
(1.0188429 2.4956617e-09 0)
(1.018843 3.5252048e-09 0)
(1.0188429 5.0935823e-09 0)
(1.018843 7.4349673e-09 0)
(1.0188429 9.9305114e-09 0)
(1.018843 1.2939456e-08 0)
(1.0761577 6.0133589e-05 0)
(1.0787462 0.00033552867 0)
(1.0792779 0.00054495693 0)
(1.0795629 0.00061168405 0)
(1.0803374 0.00058463155 0)
(1.0814354 0.00053423016 0)
(1.0825213 0.00049345751 0)
(1.0834494 0.00046224383 0)
(1.0842397 0.00043219645 0)
(1.0849493 0.00040003265 0)
(1.0856076 0.00036735937 0)
(1.0862169 0.0003364558 0)
(1.0867736 0.00030818482 0)
(1.0872783 0.00028230164 0)
(1.0877357 0.00025834381 0)
(1.0881513 0.00023605099 0)
(1.088529 0.00021533318 0)
(1.0888719 0.00019613392 0)
(1.0891828 0.00017836961 0)
(1.0894641 0.00016193951 0)
(1.0897183 0.00014674818 0)
(1.0899477 0.00013271347 0)
(1.0901543 0.00011976273 0)
(1.09034 0.00010782793 0)
(1.0905065 9.684344e-05 0)
(1.0906555 8.6746321e-05 0)
(1.0907885 7.7476609e-05 0)
(1.0909068 6.8977573e-05 0)
(1.0910117 6.1195485e-05 0)
(1.0911043 5.407977e-05 0)
(1.0911858 4.7583064e-05 0)
(1.0912572 4.1661643e-05 0)
(1.0913194 3.6275542e-05 0)
(1.0913732 3.1388869e-05 0)
(1.0914194 2.6969667e-05 0)
(1.0914588 2.2989842e-05 0)
(1.0914922 1.9424535e-05 0)
(1.0915201 1.6251481e-05 0)
(1.0915432 1.3449946e-05 0)
(1.0915621 1.0999784e-05 0)
(1.0915773 8.8803646e-06 0)
(1.0915895 7.0698439e-06 0)
(1.091599 5.5446264e-06 0)
(1.0916064 4.2792853e-06 0)
(1.0916119 3.2468167e-06 0)
(1.0916161 2.4192042e-06 0)
(1.0916191 1.7682233e-06 0)
(1.0916213 1.2662831e-06 0)
(1.0916228 8.8731775e-07 0)
(1.0916238 6.0744213e-07 0)
(1.0916245 4.055152e-07 0)
(1.0916249 2.6334761e-07 0)
(1.0916252 1.658495e-07 0)
(1.0916253 1.0082575e-07 0)
(1.0916254 5.8803118e-08 0)
(1.0916254 3.2541439e-08 0)
(1.0916255 1.6764001e-08 0)
(1.0916255 7.7237805e-09 0)
(1.0916255 2.9053112e-09 0)
(1.0916255 5.1318232e-10 0)
(1.0916255 -5.0968575e-10 0)
(1.0916255 -8.2568146e-10 0)
(1.0916255 -7.9986286e-10 0)
(1.0916255 -6.6083279e-10 0)
(1.0916255 -4.8991672e-10 0)
(1.0916255 -3.5363138e-10 0)
(1.0916255 -2.3209937e-10 0)
(1.0916255 -1.588844e-10 0)
(1.0916255 -8.9143721e-11 0)
(1.0916255 -5.1621898e-11 0)
(1.0916255 -1.9711467e-12 0)
(1.0916255 2.0080398e-11 0)
(1.0916255 5.6367053e-11 0)
(1.0916255 7.4510033e-11 0)
(1.0916255 1.1338225e-10 0)
(1.0916255 1.3263926e-10 0)
(1.0916255 1.6468377e-10 0)
(1.0916255 1.8058399e-10 0)
(1.0916255 2.0902058e-10 0)
(1.0916255 2.183652e-10 0)
(1.0916255 2.3563643e-10 0)
(1.0916255 2.357191e-10 0)
(1.0916255 2.5312254e-10 0)
(1.0916255 2.5063481e-10 0)
(1.0916255 2.6667826e-10 0)
(1.0916255 2.6356879e-10 0)
(1.0916255 2.9367344e-10 0)
(1.0916255 3.0107695e-10 0)
(1.0916255 3.5800687e-10 0)
(1.0916255 3.8580643e-10 0)
(1.0916255 5.1192515e-10 0)
(1.0916255 6.1411222e-10 0)
(1.0916255 9.0252224e-10 0)
(1.0916255 1.1893092e-09 0)
(1.0916255 1.6342453e-09 0)
(1.0916255 2.1593843e-09 0)
(1.0916255 2.679494e-09 0)
(1.0916255 3.5543582e-09 0)
(1.0916255 4.3253974e-09 0)
(1.0916255 5.2451981e-09 0)
(1.0761577 -6.0131873e-05 0)
(1.0787461 -0.00033552021 0)
(1.0792779 -0.00054495071 0)
(1.0795629 -0.00061168764 0)
(1.0803373 -0.00058464249 0)
(1.0814354 -0.00053424585 0)
(1.0825213 -0.00049347667 0)
(1.0834494 -0.00046226751 0)
(1.0842396 -0.00043222379 0)
(1.0849493 -0.00040006382 0)
(1.0856076 -0.00036739362 0)
(1.0862169 -0.00033649372 0)
(1.0867736 -0.00030822541 0)
(1.0872782 -0.00028234446 0)
(1.0877357 -0.00025838699 0)
(1.0881512 -0.00023609367 0)
(1.0885289 -0.00021537366 0)
(1.0888719 -0.00019617168 0)
(1.0891827 -0.00017840335 0)
(1.089464 -0.00016196903 0)
(1.0897182 -0.00014677266 0)
(1.0899476 -0.00013273318 0)
(1.0901542 -0.00011977745 0)
(1.0903399 -0.00010783833 0)
(1.0905064 -9.6849712e-05 0)
(1.0906554 -8.6749384e-05 0)
(1.0907884 -7.7476847e-05 0)
(1.0909067 -6.8975862e-05 0)
(1.0910116 -6.1192122e-05 0)
(1.0911043 -5.4075362e-05 0)
(1.0911858 -4.7577656e-05 0)
(1.0912571 -4.1655425e-05 0)
(1.0913193 -3.6268236e-05 0)
(1.0913731 -3.1380294e-05 0)
(1.0914193 -2.6959372e-05 0)
(1.0914588 -2.2977474e-05 0)
(1.0914921 -1.9409689e-05 0)
(1.09152 -1.6233877e-05 0)
(1.0915431 -1.3429473e-05 0)
(1.091562 -1.0976424e-05 0)
(1.0915773 -8.8543863e-06 0)
(1.0915895 -7.0415187e-06 0)
(1.091599 -5.5145676e-06 0)
(1.0916063 -4.2479898e-06 0)
(1.0916119 -3.2151e-06 0)
(1.0916161 -2.3876183e-06 0)
(1.0916191 -1.7376074e-06 0)
(1.0916212 -1.2371059e-06 0)
(1.0916227 -8.602896e-07 0)
(1.0916238 -5.8280541e-07 0)
(1.0916244 -3.8373906e-07 0)
(1.0916249 -2.4440976e-07 0)
(1.0916252 -1.4996274e-07 0)
(1.0916253 -8.7693062e-08 0)
(1.0916254 -4.8397572e-08 0)
(1.0916255 -2.4408643e-08 0)
(1.0916255 -1.0795385e-08 0)
(1.0916255 -3.3575993e-09 0)
(1.0916255 -1.693035e-11 0)
(1.0916255 1.3919786e-09 0)
(1.0916255 1.5168873e-09 0)
(1.0916255 1.3684905e-09 0)
(1.0916255 8.7534222e-10 0)
(1.0916255 6.0947433e-10 0)
(1.0916255 2.1583395e-10 0)
(1.0916255 1.4340414e-10 0)
(1.0916255 -6.3193592e-11 0)
(1.0916255 1.4027791e-11 0)
(1.0916255 -8.8558241e-11 0)
(1.0916255 6.0044168e-11 0)
(1.0916255 -3.7469885e-12 0)
(1.0916255 1.5096272e-10 0)
(1.0916255 8.7190177e-11 0)
(1.0916255 2.3498697e-10 0)
(1.0916255 1.6029936e-10 0)
(1.0916255 2.8327486e-10 0)
(1.0916255 1.8342387e-10 0)
(1.0916255 2.9180998e-10 0)
(1.0916255 1.7741806e-10 0)
(1.0916255 2.6948128e-10 0)
(1.0916255 1.354733e-10 0)
(1.0916255 2.2274878e-10 0)
(1.0916255 8.5765518e-11 0)
(1.0916255 1.7569343e-10 0)
(1.0916255 4.3712763e-11 0)
(1.0916255 1.5492051e-10 0)
(1.0916255 4.0904844e-11 0)
(1.0916255 1.7016498e-10 0)
(1.0916255 6.7214569e-11 0)
(1.0916255 2.3006922e-10 0)
(1.0916255 1.6267899e-10 0)
(1.0916255 3.8156494e-10 0)
(1.0916255 3.2628312e-10 0)
(1.0916255 5.457265e-10 0)
(1.0916255 2.9978519e-10 0)
(1.0916255 1.9817948e-10 0)
(1.0916255 -4.1415704e-10 0)
(1.0916255 -1.2202249e-09 0)
(1.0916255 -2.158245e-09 0)
(1.0916255 -3.2588565e-09 0)
(1.0099441 -0.00018048114 0)
(1.0122406 -0.00096601545 0)
(1.0125977 -0.0015319344 0)
(1.0127009 -0.001686655 0)
(1.0132046 -0.001588907 0)
(1.0139536 -0.0014359644 0)
(1.0146642 -0.0013127347 0)
(1.0152263 -0.0012159953 0)
(1.0156681 -0.0011235446 0)
(1.0160433 -0.0010277481 0)
(1.0163788 -0.0009332425 0)
(1.0166792 -0.00084572486 0)
(1.0169433 -0.00076699477 0)
(1.0171736 -0.00069606725 0)
(1.0173749 -0.00063150231 0)
(1.0175523 -0.0005724172 0)
(1.0177093 -0.00051837182 0)
(1.0178485 -0.00046902054 0)
(1.0179719 -0.0004239719 0)
(1.0180814 -0.00038281776 0)
(1.0181785 -0.00034518993 0)
(1.0182648 -0.00031077505 0)
(1.0183414 -0.00027930297 0)
(1.0184093 -0.00025053082 0)
(1.0184695 -0.00022423663 0)
(1.0185227 -0.00020021678 0)
(1.0185697 -0.00017828573 0)
(1.018611 -0.00015827397 0)
(1.0186474 -0.00014002676 0)
(1.0186791 -0.00012340248 0)
(1.0187067 -0.00010827253 0)
(1.0187307 -9.4520834e-05 0)
(1.0187513 -8.2044059e-05 0)
(1.0187688 -7.0751213e-05 0)
(1.0187837 -6.0563133e-05 0)
(1.0187962 -5.1411304e-05 0)
(1.0188065 -4.3236024e-05 0)
(1.018815 -3.5984133e-05 0)
(1.0188218 -2.9606074e-05 0)
(1.0188273 -2.4053295e-05 0)
(1.0188315 -1.9275461e-05 0)
(1.0188348 -1.521892e-05 0)
(1.0188373 -1.1825369e-05 0)
(1.0188391 -9.0322391e-06 0)
(1.0188404 -6.7732156e-06 0)
(1.0188413 -4.9803206e-06 0)
(1.018842 -3.5855325e-06 0)
(1.0188424 -2.5233979e-06 0)
(1.0188426 -1.7325434e-06 0)
(1.0188428 -1.1577511e-06 0)
(1.0188429 -7.5050706e-07 0)
(1.0188429 -4.6996973e-07 0)
(1.018843 -2.8241299e-07 0)
(1.018843 -1.6129108e-07 0)
(1.018843 -8.6024225e-08 0)
(1.018843 -4.1507527e-08 0)
(1.018843 -1.6599815e-08 0)
(1.018843 -3.9610822e-09 0)
(1.018843 1.6558729e-09 0)
(1.018843 3.4466741e-09 0)
(1.018843 3.4734688e-09 0)
(1.018843 2.7135917e-09 0)
(1.018843 1.8728236e-09 0)
(1.018843 1.0798971e-09 0)
(1.018843 5.6592402e-10 0)
(1.018843 1.9557648e-10 0)
(1.018843 5.7319655e-11 0)
(1.018843 -3.9472209e-11 0)
(1.018843 2.9560673e-12 0)
(1.018843 1.7018243e-11 0)
(1.018843 1.1071247e-10 0)
(1.018843 1.3787449e-10 0)
(1.018843 2.2536569e-10 0)
(1.018843 2.3574378e-10 0)
(1.018843 2.8942755e-10 0)
(1.018843 2.5566337e-10 0)
(1.018843 2.7674657e-10 0)
(1.018843 2.2085e-10 0)
(1.018843 2.1753368e-10 0)
(1.018843 1.3543366e-10 0)
(1.018843 1.2140456e-10 0)
(1.018843 4.8719671e-11 0)
(1.018843 3.6520941e-11 0)
(1.018843 -3.2130504e-11 0)
(1.018843 -3.8001323e-11 0)
(1.018843 -7.3528205e-11 0)
(1.018843 -6.663786e-11 0)
(1.018843 -7.8071158e-11 0)
(1.018843 -6.6215164e-11 0)
(1.018843 -3.4252736e-11 0)
(1.018843 -3.3190245e-11 0)
(1.018843 6.5626845e-12 0)
(1.018843 -1.2581738e-10 0)
(1.018843 -2.6352225e-10 0)
(1.018843 -8.9560805e-10 0)
(1.018843 -1.7031435e-09 0)
(1.018843 -3.2553971e-09 0)
(1.018843 -5.5846115e-09 0)
(1.018843 -8.2225831e-09 0)
(1.018843 -1.1273868e-08 0)
(0.86717201 -0.00029443682 0)
(0.86883362 -0.0014366595 0)
(0.86874229 -0.0021550798 0)
(0.86836529 -0.0022625338 0)
(0.86824028 -0.0020472551 0)
(0.86826073 -0.0017886409 0)
(0.86824121 -0.0015866906 0)
(0.86812794 -0.0014279194 0)
(0.86795588 -0.0012825547 0)
(0.86776812 -0.0011419991 0)
(0.86758463 -0.0010116682 0)
(0.86740861 -0.00089681004 0)
(0.86723917 -0.00079767824 0)
(0.8670769 -0.00071162281 0)
(0.86692352 -0.0006359243 0)
(0.86678041 -0.00056879452 0)
(0.866648 -0.00050911135 0)
(0.8665261 -0.00045597139 0)
(0.86641425 -0.00040852754 0)
(0.86631197 -0.00036601066 0)
(0.86621873 -0.00032777829 0)
(0.86613403 -0.00029330852 0)
(0.8660573 -0.00026217397 0)
(0.86598797 -0.00023401068 0)
(0.86592551 -0.00020850578 0)
(0.86586939 -0.00018538631 0)
(0.86581911 -0.00016441626 0)
(0.8657742 -0.00014538819 0)
(0.86573423 -0.00012812088 0)
(0.86569877 -0.00011245357 0)
(0.86566744 -9.824577e-05 0)
(0.86563988 -8.537398e-05 0)
(0.86561576 -7.3732114e-05 0)
(0.86559475 -6.322885e-05 0)
(0.86557658 -5.3787132e-05 0)
(0.86556097 -4.5341114e-05 0)
(0.86554767 -3.7834084e-05 0)
(0.86553644 -3.1214909e-05 0)
(0.86552705 -2.5434931e-05 0)
(0.86551929 -2.0445022e-05 0)
(0.86551295 -1.6192931e-05 0)
(0.86550786 -1.2622336e-05 0)
(0.86550381 -9.6717439e-06 0)
(0.86550066 -7.2760085e-06 0)
(0.86549824 -5.3667981e-06 0)
(0.86549642 -3.8758176e-06 0)
(0.86549509 -2.7357807e-06 0)
(0.86549412 -1.8839223e-06 0)
(0.86549344 -1.2622947e-06 0)
(0.86549297 -8.205528e-07 0)
(0.86549266 -5.1499934e-07 0)
(0.86549246 -3.1031815e-07 0)
(0.86549233 -1.7753306e-07 0)
(0.86549226 -9.5045482e-08 0)
(0.86549222 -4.5893411e-08 0)
(0.8654922 -1.8593878e-08 0)
(0.86549219 -4.4146899e-09 0)
(0.86549218 1.7256065e-09 0)
(0.86549218 3.8943957e-09 0)
(0.86549219 3.7779872e-09 0)
(0.86549219 3.0677476e-09 0)
(0.86549219 1.973972e-09 0)
(0.86549219 1.2348112e-09 0)
(0.86549219 5.0100608e-10 0)
(0.86549219 2.4072533e-10 0)
(0.86549219 -7.6215831e-11 0)
(0.86549219 -2.3932027e-11 0)
(0.86549219 -1.3223212e-10 0)
(0.86549219 5.1005382e-11 0)
(0.86549219 2.4968386e-12 0)
(0.86549219 1.9110315e-10 0)
(0.86549219 1.3394678e-10 0)
(0.86549219 2.9842776e-10 0)
(0.86549219 2.0618701e-10 0)
(0.86549219 3.2054094e-10 0)
(0.86549219 1.870238e-10 0)
(0.86549219 2.7714368e-10 0)
(0.86549219 1.1667156e-10 0)
(0.86549219 1.7653435e-10 0)
(0.86549219 -1.2451142e-12 0)
(0.86549219 6.5679556e-11 0)
(0.86549219 -1.0166375e-10 0)
(0.86549219 -3.2352219e-11 0)
(0.86549219 -1.8811279e-10 0)
(0.86549219 -1.0143741e-10 0)
(0.86549219 -2.2987655e-10 0)
(0.86549219 -1.3855913e-10 0)
(0.86549219 -2.3332013e-10 0)
(0.86549219 -1.3143493e-10 0)
(0.86549219 -1.8912011e-10 0)
(0.86549219 -1.4670271e-10 0)
(0.86549219 -2.3077318e-10 0)
(0.86549219 -4.1918146e-10 0)
(0.86549219 -7.725885e-10 0)
(0.86549219 -1.6237712e-09 0)
(0.8654922 -2.7039228e-09 0)
(0.86549219 -4.9451312e-09 0)
(0.8654922 -8.069589e-09 0)
(0.86549217 -1.2278382e-08 0)
(0.86549221 -1.7051515e-08 0)
(0.62752117 -0.00037205201 0)
(0.62810418 -0.0015253529 0)
(0.62718343 -0.002042371 0)
(0.6259901 -0.0019185919 0)
(0.62498563 -0.0015601539 0)
(0.62414815 -0.0012426987 0)
(0.62338424 -0.0010247254 0)
(0.62266485 -0.00086931079 0)
(0.62200179 -0.00074147089 0)
(0.62140747 -0.00063069907 0)
(0.62088185 -0.00053792712 0)
(0.62041717 -0.00046325298 0)
(0.62000453 -0.00040349575 0)
(0.61963683 -0.00035452924 0)
(0.61930868 -0.00031322165 0)
(0.61901562 -0.00027771884 0)
(0.61875368 -0.00024691856 0)
(0.61851935 -0.00022001563 0)
(0.61830955 -0.00019633565 0)
(0.61812167 -0.00017532985 0)
(0.61795343 -0.0001565774 0)
(0.61780289 -0.00013976273 0)
(0.6176683 -0.00012463911 0)
(0.61754812 -0.00011100518 0)
(0.61744099 -9.8690741e-05 0)
(0.61734567 -8.7551878e-05 0)
(0.61726107 -7.7465361e-05 0)
(0.61718618 -6.8325736e-05 0)
(0.61712012 -6.0041167e-05 0)
(0.61706205 -5.2532186e-05 0)
(0.61701124 -4.5729669e-05 0)
(0.616967 -3.9574545e-05 0)
(0.61692871 -3.4016477e-05 0)
(0.61689579 -2.9013258e-05 0)
(0.61686771 -2.4529368e-05 0)
(0.61684395 -2.053461e-05 0)
(0.61682406 -1.7002421e-05 0)
(0.61680757 -1.3907931e-05 0)
(0.61679407 -1.1226538e-05 0)
(0.61678317 -8.9321697e-06 0)
(0.61677448 -6.996836e-06 0)
(0.61676767 -5.3897174e-06 0)
(0.61676242 -4.0779762e-06 0)
(0.61675843 -3.0267659e-06 0)
(0.61675548 -2.2009757e-06 0)
(0.61675332 -1.5655765e-06 0)
(0.61675179 -1.0875466e-06 0)
(0.61675072 -7.3606368e-07 0)
(0.61675 -4.8417017e-07 0)
(0.61674952 -3.0825978e-07 0)
(0.61674922 -1.8911494e-07 0)
(0.61674904 -1.1082346e-07 0)
(0.61674893 -6.1425318e-08 0)
(0.61674887 -3.1426058e-08 0)
(0.61674884 -1.4293894e-08 0)
(0.61674883 -5.0316292e-09 0)
(0.61674883 -6.9137242e-10 0)
(0.61674883 1.2233109e-09 0)
(0.61674883 1.5699759e-09 0)
(0.61674883 1.4002314e-09 0)
(0.61674884 9.1349976e-10 0)
(0.61674884 5.650168e-10 0)
(0.61674884 1.9171066e-10 0)
(0.61674884 7.2982619e-11 0)
(0.61674884 -8.7374105e-11 0)
(0.61674884 -4.7755073e-11 0)
(0.61674884 -1.0106813e-10 0)
(0.61674884 1.5827059e-11 0)
(0.61674884 1.8332884e-12 0)
(0.61674884 1.1824623e-10 0)
(0.61674884 9.1031149e-11 0)
(0.61674884 1.9073549e-10 0)
(0.61674884 1.4091302e-10 0)
(0.61674884 2.0247626e-10 0)
(0.61674884 1.2169385e-10 0)
(0.61674884 1.6899126e-10 0)
(0.61674884 7.0546726e-11 0)
(0.61674884 9.6565521e-11 0)
(0.61674884 -1.3031601e-11 0)
(0.61674884 2.0652516e-11 0)
(0.61674884 -8.6911667e-11 0)
(0.61674884 -5.9903119e-11 0)
(0.61674884 -1.6655285e-10 0)
(0.61674884 -1.1678339e-10 0)
(0.61674884 -2.0303336e-10 0)
(0.61674884 -1.4247416e-10 0)
(0.61674884 -2.2012642e-10 0)
(0.61674884 -1.264616e-10 0)
(0.61674884 -1.9967903e-10 0)
(0.61674884 -9.583571e-11 0)
(0.61674884 -2.3267622e-10 0)
(0.61674884 -1.7438205e-10 0)
(0.61674884 -5.6433245e-10 0)
(0.61674884 -7.6041639e-10 0)
(0.61674884 -1.6831024e-09 0)
(0.61674884 -2.4991014e-09 0)
(0.61674883 -4.8683349e-09 0)
(0.61674883 -7.4741576e-09 0)
(0.61674881 -1.2612502e-08 0)
(0.61674883 -1.7797e-08 0)
(0.26201358 -0.00030286324 0)
(0.26135479 -0.00084193779 0)
(0.25992492 -0.00088854397 0)
(0.25854918 -0.00065616283 0)
(0.25748727 -0.00042168575 0)
(0.25669567 -0.00028132372 0)
(0.25607493 -0.00021105418 0)
(0.25556108 -0.00016975252 0)
(0.25512639 -0.00013794923 0)
(0.25475821 -0.00011229677 0)
(0.25444599 -9.3189257e-05 0)
(0.25417881 -7.9675207e-05 0)
(0.25394712 -6.9799098e-05 0)
(0.25374388 -6.1933736e-05 0)
(0.25356427 -5.5226497e-05 0)
(0.25340489 -4.9356415e-05 0)
(0.25326308 -4.4190271e-05 0)
(0.25313661 -3.9621089e-05 0)
(0.25302366 -3.5543751e-05 0)
(0.25292268 -3.1875866e-05 0)
(0.25283239 -2.8560075e-05 0)
(0.25275168 -2.5557735e-05 0)
(0.25267959 -2.2836801e-05 0)
(0.25261527 -2.0369625e-05 0)
(0.25255798 -1.8130245e-05 0)
(0.25250703 -1.609663e-05 0)
(0.25246184 -1.4248737e-05 0)
(0.25242187 -1.2569701e-05 0)
(0.25238663 -1.104396e-05 0)
(0.25235568 -9.6584081e-06 0)
(0.25232862 -8.4011193e-06 0)
(0.25230508 -7.2623004e-06 0)
(0.25228474 -6.2332806e-06 0)
(0.25226728 -5.307047e-06 0)
(0.25225241 -4.4774555e-06 0)
(0.25223986 -3.7393364e-06 0)
(0.25222938 -3.0879385e-06 0)
(0.25222073 -2.518667e-06 0)
(0.25221367 -2.0268928e-06 0)
(0.25220798 -1.6075013e-06 0)
(0.25220348 -1.2551329e-06 0)
(0.25219996 -9.6364928e-07 0)
(0.25219726 -7.2683198e-07 0)
(0.25219523 -5.3783074e-07 0)
(0.25219373 -3.9015014e-07 0)
(0.25219264 -2.7697381e-07 0)
(0.25219188 -1.9229045e-07 0)
(0.25219135 -1.3014308e-07 0)
(0.25219099 -8.5820241e-08 0)
(0.25219076 -5.4809892e-08 0)
(0.25219061 -3.3913207e-08 0)
(0.25219052 -2.0061312e-08 0)
(0.25219047 -1.1395237e-08 0)
(0.25219045 -5.9874865e-09 0)
(0.25219043 -2.980661e-09 0)
(0.25219043 -1.2229526e-09 0)
(0.25219043 -4.4722058e-10 0)
(0.25219043 4.0563533e-11 0)
(0.25219043 9.2058951e-11 0)
(0.25219043 1.6494106e-10 0)
(0.25219043 4.1709127e-11 0)
(0.25219043 6.9386798e-11 0)
(0.25219043 -3.7714859e-11 0)
(0.25219043 3.1455706e-11 0)
(0.25219043 -5.4952833e-11 0)
(0.25219043 2.9805761e-11 0)
(0.25219043 -3.8302368e-11 0)
(0.25219043 5.5777429e-11 0)
(0.25219043 -1.7441497e-11 0)
(0.25219043 7.2253829e-11 0)
(0.25219043 3.8631161e-12 0)
(0.25219043 9.011576e-11 0)
(0.25219043 7.0516665e-12 0)
(0.25219043 7.8976161e-11 0)
(0.25219043 -5.2003809e-12 0)
(0.25219043 6.637255e-11 0)
(0.25219043 -3.0659764e-11 0)
(0.25219043 3.6603805e-11 0)
(0.25219043 -5.0532773e-11 0)
(0.25219043 2.1480506e-11 0)
(0.25219043 -7.4038473e-11 0)
(0.25219043 -6.7726211e-12 0)
(0.25219043 -9.2881819e-11 0)
(0.25219043 -1.5648991e-11 0)
(0.25219043 -1.0242802e-10 0)
(0.25219043 -2.4699302e-11 0)
(0.25219043 -1.0031029e-10 0)
(0.25219043 -9.5837824e-12 0)
(0.25219043 -9.1832769e-11 0)
(0.25219043 -6.968337e-12 0)
(0.25219043 -1.1974889e-10 0)
(0.25219043 -8.3401327e-11 0)
(0.25219043 -3.3471828e-10 0)
(0.25219043 -4.1035184e-10 0)
(0.25219043 -8.6222498e-10 0)
(0.25219043 -1.3206413e-09 0)
(0.25219042 -2.502508e-09 0)
(0.25219042 -3.8269411e-09 0)
(0.25219041 -6.9222534e-09 0)
(0.2521904 -9.0082667e-09 0)
)
;

boundaryField
{
    top
    {
        type            fixedValue;
        value           uniform (0 0 0);
    }
    inlet
    {
        type            pressureNormalInletOutletVelocity;
        phi             phi;
        rho             rho;