/*--------------------------------*- C++ -*----------------------------------*\
| =========                 |                                                 |
| \\      /  F ield         | OpenFOAM: The Open Source CFD Toolbox           |
|  \\    /   O peration     | Version:  2112                                  |
|   \\  /    A nd           | Website:  www.openfoam.com                      |
|    \\/     M anipulation  |                                                 |
\*---------------------------------------------------------------------------*/
FoamFile
{
    version     2.0;
    format      ascii;
    arch        "LSB;label=32;scalar=64";
    class       volScalarField;
    location    "7";
    object      p;
}
// * * * * * * * * * * * * * * * * * * * * * * * * * * * * * * * * * * * * * //

dimensions      [0 2 -2 0 0 0 0];

internalField   nonuniform List<scalar> 
1000
(
1.5262838
1.5090456
1.4924641
1.4762929
1.4603546
1.4445606
1.4288694
1.4132575
1.3977078
1.382206
1.3667412
1.3513063
1.3358962
1.3205075
1.3051372
1.2897832
1.2744432
1.2591158
1.2437994
1.2284926
1.2131944
1.1979037
1.1826195
1.1673408
1.1520667
1.1367966
1.1215295
1.106265
1.0910023
1.075741
1.0604806
1.045221
1.0299618
1.0147028
0.99944407
0.98418537
0.9689267
0.95366805
0.93840939
0.92315073
0.90789206
0.89263338
0.87737469
0.86211601
0.84685732
0.83159863
0.81633994
0.80108125
0.78582256
0.77056387
0.75530518
0.74004649
0.7247878
0.70952911
0.69427042
0.67901173
0.66375304
0.64849435
0.63323566
0.61797697
0.60271828
0.58745959
0.5722009
0.5569422
0.54168351
0.52642482
0.51116612
0.49590743
0.48064874
0.46539005
0.45013135
0.43487266
0.41961397
0.40435528
0.38909659
0.37383789
0.3585792
0.34332051
0.32806182
0.31280313
0.29754444
0.28228575
0.26702706
0.25176837
0.23650968
0.22125099
0.2059923
0.19073361
0.17547492
0.16021623
0.14495754
0.12969885
0.11444016
0.099181469
0.083922778
0.068664087
0.053405396
0.038146707
0.022888019
0.0076293364
1.5258387
1.508587
1.4923535
1.4764247
1.4605376
1.4447103
1.4289835
1.4133514
1.3977885
1.3822741
1.3667973
1.3513521
1.3359339
1.3205388
1.3051634
1.289805
1.2744615
1.2591309
1.2438118
1.2285028
1.2132026
1.1979102
1.1826245
1.1673446
1.1520696
1.1367986
1.1215309
1.1062659
1.0910029
1.0757413
1.0604808
1.0452211
1.0299618
1.0147029
0.99944406
0.98418535
0.96892669
0.95366804
0.93840939
0.92315072
0.90789205
0.89263338
0.87737469
0.86211601
0.84685732
0.83159863
0.81633994
0.80108125
0.78582256
0.77056387
0.75530518
0.74004649
0.7247878
0.70952911
0.69427042
0.67901173
0.66375304
0.64849435
0.63323566
0.61797697
0.60271828
0.58745959
0.5722009
0.5569422
0.54168351
0.52642482
0.51116612
0.49590743
0.48064874
0.46539005
0.45013135
0.43487266
0.41961397
0.40435528
0.38909659
0.37383789
0.3585792
0.34332051
0.32806182
0.31280313
0.29754444
0.28228575
0.26702706
0.25176837
0.23650968
0.22125099
0.2059923
0.19073361
0.17547492
0.16021623
0.14495754
0.12969885
0.11444016
0.099181469
0.083922778
0.068664086
0.053405395
0.038146705
0.022888015
0.0076293329
1.5250945
1.5077124
1.491949
1.4764249
1.4606744
1.4448298
1.4290642
1.4134158
1.3978494
1.3823306
1.3668456
1.3513915
1.3359661
1.3205656
1.305186
1.2898241
1.2744775
1.2591443
1.2438231
1.2285122
1.2132104
1.1979166
1.1826297
1.1673487
1.1520728
1.1368011
1.1215328
1.1062673
1.0910038
1.075742
1.0604813
1.0452214
1.029962
1.014703
0.99944413
0.98418539
0.96892671
0.95366805
0.93840939
0.92315072
0.90789205
0.89263338
0.87737469
0.86211601
0.84685732
0.83159863
0.81633994
0.80108125
0.78582256
0.77056387
0.75530518
0.74004649
0.7247878
0.70952911
0.69427042
0.67901173
0.66375304
0.64849435
0.63323566
0.61797697
0.60271828
0.58745959
0.5722009
0.5569422
0.54168351
0.52642482
0.51116612
0.49590743
0.48064874
0.46539005
0.45013135
0.43487266
0.41961397
0.40435528
0.38909659
0.37383789
0.3585792
0.34332051
0.32806182
0.31280313
0.29754444
0.28228575
0.26702706
0.25176837
0.23650968
0.22125099
0.2059923
0.19073361
0.17547492
0.16021623
0.14495754
0.12969885
0.11444016
0.099181468
0.083922776
0.068664085
0.053405392
0.038146701
0.022888009
0.0076293286
1.5244089
1.5068392
1.4914727
1.4763578
1.4607787
1.4449373
1.4291379
1.4134751
1.3979089
1.3823891
1.3668977
1.351435
1.336002
1.3205959
1.3052118
1.2898461
1.2744963
1.2591604
1.2438368
1.2285239
1.2132204
1.1979251
1.1826369
1.1673547
1.1520777
1.1368051
1.121536
1.1062697
1.0910057
1.0757434
1.0604823
1.0452221
1.0299625
1.0147033
0.99944432
0.98418551
0.96892678
0.95366808
0.9384094
0.92315073
0.90789205
0.89263337
0.87737469
0.862116
0.84685732
0.83159863
0.81633994
0.80108125
0.78582256
0.77056387
0.75530518
0.74004649
0.7247878
0.70952911
0.69427042
0.67901173
0.66375304
0.64849435
0.63323566
0.61797697
0.60271828
0.58745959
0.5722009
0.5569422
0.54168351
0.52642482
0.51116612
0.49590743
0.48064874
0.46539005
0.45013135
0.43487266
0.41961397
0.40435528
0.38909659
0.37383789
0.3585792
0.34332051
0.32806182
0.31280313
0.29754444
0.28228575
0.26702706
0.25176837
0.23650968
0.22125099
0.2059923
0.19073361
0.17547492
0.16021623
0.14495754
0.12969885
0.11444016
0.099181468
0.083922775
0.068664083
0.053405389
0.038146697
0.022888003
0.0076293253
1.5240187
1.5063203
1.4911696
1.4763011
1.4608366
1.4450037
1.4291845
1.4135128
1.3979475
1.3824284
1.3669336
1.3514655
1.3360277
1.3206178
1.3052308
1.2898625
1.2745105
1.2591726
1.2438474
1.2285331
1.2132284
1.197932
1.1826427
1.1673597
1.1520819
1.1368085
1.1215388
1.1062719
1.0910074
1.0757446
1.0604832
1.0452227
1.0299629
1.0147036
0.99944451
0.98418562
0.96892684
0.95366812
0.93840942
0.92315074
0.90789206
0.89263337
0.87737469
0.862116
0.84685732
0.83159863
0.81633994
0.80108125
0.78582256
0.77056387
0.75530518
0.74004649
0.7247878
0.70952911
0.69427042
0.67901173
0.66375304
0.64849435
0.63323566
0.61797697
0.60271828
0.58745959
0.57220089
0.5569422
0.54168351
0.52642482
0.51116612
0.49590743
0.48064874
0.46539005
0.45013135
0.43487266
0.41961397
0.40435528
0.38909659
0.37383789
0.3585792
0.34332051
0.32806182
0.31280313
0.29754444
0.28228575
0.26702706
0.25176837
0.23650968
0.22125099
0.2059923
0.19073361
0.17547492
0.16021623
0.14495754
0.12969885
0.11444016
0.099181467
0.083922774
0.068664081
0.053405387
0.038146694
0.022888
0.0076293234
1.5240187
1.5063203
1.4911696
1.4763011
1.4608366
1.4450037
1.4291845
1.4135128
1.3979475
1.3824284
1.3669336
1.3514655
1.3360277
1.3206178
1.3052308
1.2898625
1.2745105
1.2591726
1.2438474
1.2285331
1.2132284
1.197932
1.1826427
1.1673597
1.1520819
1.1368085
1.1215388
1.1062719
1.0910074
1.0757446
1.0604832
1.0452227
1.0299629
1.0147036
0.99944451
0.98418562
0.96892684
0.95366812
0.93840942
0.92315074
0.90789206
0.89263337
0.87737469
0.862116
0.84685732
0.83159863
0.81633994
0.80108125
0.78582256
0.77056387
0.75530518
0.74004649
0.7247878
0.70952911
0.69427042
0.67901173
0.66375304
0.64849435
0.63323566
0.61797697
0.60271828
0.58745959
0.57220089
0.5569422
0.54168351
0.52642482
0.51116612
0.49590743
0.48064874
0.46539005
0.45013135
0.43487266
0.41961397
0.40435528
0.38909659
0.37383789
0.3585792
0.34332051
0.32806182
0.31280313
0.29754444
0.28228575
0.26702706
0.25176837
0.23650968
0.22125099
0.2059923
0.19073361
0.17547492
0.16021623
0.14495754
0.12969885
0.11444016
0.099181466
0.083922774
0.068664081
0.053405387
0.038146694
0.022888
0.0076293232
1.5244089
1.5068393
1.4914728
1.4763578
1.4607787
1.4449373
1.4291379
1.4134751
1.3979089
1.3823891
1.3668977
1.351435
1.336002
1.3205959
1.3052118
1.2898461
1.2744963
1.2591604
1.2438368
1.2285239
1.2132204
1.1979251
1.1826369
1.1673547
1.1520777
1.1368051
1.121536
1.1062697
1.0910057
1.0757434
1.0604823
1.0452221
1.0299625
1.0147033
0.99944432
0.98418551
0.96892678
0.95366809
0.93840941
0.92315073
0.90789206
0.89263338
0.87737469
0.86211601
0.84685732
0.83159863
0.81633994
0.80108125
0.78582256
0.77056387
0.75530518
0.74004649
0.7247878
0.70952911
0.69427042
0.67901173
0.66375304
0.64849435
0.63323566
0.61797697
0.60271828
0.58745959
0.57220089
0.5569422
0.54168351
0.52642482
0.51116612
0.49590743
0.48064874
0.46539005
0.45013135
0.43487266
0.41961397
0.40435528
0.38909659
0.37383789
0.3585792
0.34332051
0.32806182
0.31280313
0.29754444
0.28228575
0.26702706
0.25176837
0.23650968
0.22125099
0.2059923
0.19073361
0.17547492
0.16021623
0.14495754
0.12969885
0.11444016
0.099181467
0.083922774
0.068664082
0.053405389
0.038146697
0.022888003
0.0076293249
1.5250945
1.5077124
1.491949
1.4764249
1.4606744
1.4448298
1.4290642
1.4134158
1.3978494
1.3823306
1.3668456
1.3513915
1.3359661
1.3205656
1.305186
1.2898241
1.2744775
1.2591443
1.2438231
1.2285122
1.2132104
1.1979166
1.1826297
1.1673487
1.1520728
1.1368011
1.1215328
1.1062673
1.0910038
1.075742
1.0604813
1.0452214
1.029962
1.014703
0.99944413
0.9841854
0.96892672
0.95366806
0.9384094
0.92315073
0.90789206
0.89263338
0.8773747
0.86211601
0.84685732
0.83159863
0.81633994
0.80108125
0.78582256
0.77056387
0.75530518
0.74004649
0.7247878
0.70952911
0.69427042
0.67901173
0.66375304
0.64849435
0.63323566
0.61797697
0.60271828
0.58745959
0.57220089
0.5569422
0.54168351
0.52642482
0.51116612
0.49590743
0.48064874
0.46539005
0.45013135
0.43487266
0.41961397
0.40435528
0.38909659
0.37383789
0.3585792
0.34332051
0.32806182
0.31280313
0.29754444
0.28228575
0.26702706
0.25176837
0.23650968
0.22125099
0.2059923
0.19073361
0.17547492
0.16021623
0.14495754
0.12969885
0.11444016
0.099181467
0.083922775
0.068664084
0.053405391
0.038146701
0.022888008
0.0076293282
1.5258387
1.508587
1.4923536
1.4764247
1.4605376
1.4447103
1.4289835
1.4133514
1.3977885
1.3822741
1.3667973
1.3513521
1.3359339
1.3205388
1.3051634
1.289805
1.2744615
1.2591309
1.2438118
1.2285028
1.2132026
1.1979102
1.1826245
1.1673446
1.1520696
1.1367986
1.1215309
1.1062659
1.0910029
1.0757413
1.0604808
1.0452211
1.0299618
1.0147029
0.99944407
0.98418536
0.9689267
0.95366805
0.93840939
0.92315073
0.90789206
0.89263338
0.8773747
0.86211601
0.84685732
0.83159863
0.81633994
0.80108125
0.78582256
0.77056387
0.75530518
0.74004649
0.7247878
0.70952911
0.69427042
0.67901173
0.66375304
0.64849435
0.63323566
0.61797697
0.60271828
0.58745959
0.57220089
0.5569422
0.54168351
0.52642482
0.51116612
0.49590743
0.48064874
0.46539005
0.45013135
0.43487266
0.41961397
0.40435528
0.38909659
0.3738379
0.3585792
0.34332051
0.32806182
0.31280313
0.29754444
0.28228575
0.26702706
0.25176837
0.23650968
0.22125099
0.2059923
0.19073361
0.17547492
0.16021623
0.14495754
0.12969885
0.11444016
0.099181468
0.083922776
0.068664085
0.053405394
0.038146705
0.022888015
0.0076293326
1.5262838
1.5090456
1.4924641
1.4762929
1.4603546
1.4445606
1.4288694
1.4132575
1.3977078
1.382206
1.3667412
1.3513063
1.3358962
1.3205075
1.3051372
1.2897832
1.2744432
1.2591158
1.2437994
1.2284926
1.2131944
1.1979037
1.1826195
1.1673408
1.1520667
1.1367966
1.1215295
1.106265
1.0910023
1.0757409
1.0604806
1.045221
1.0299618
1.0147028
0.99944407
0.98418538
0.96892671
0.95366806
0.9384094
0.92315073
0.90789206
0.89263338
0.8773747
0.86211601
0.84685732
0.83159863
0.81633994
0.80108125
0.78582256
0.77056387
0.75530518
0.74004649
0.7247878
0.70952911
0.69427042
0.67901173
0.66375304
0.64849435
0.63323566
0.61797697
0.60271828
0.58745959
0.57220089
0.5569422
0.54168351
0.52642482
0.51116612
0.49590743
0.48064874
0.46539005
0.45013135
0.43487266
0.41961397
0.40435528
0.38909659
0.3738379
0.3585792
0.34332051
0.32806182
0.31280313
0.29754444
0.28228575
0.26702706
0.25176837
0.23650968
0.22125099
0.2059923
0.19073361
0.17547492
0.16021623
0.14495754
0.12969885
0.11444016
0.099181468
0.083922777
0.068664086
0.053405396
0.038146707
0.022888019
0.0076293363
)
;

boundaryField
{
    top
    {
        type            zeroGradient;
    }
    inlet
    {
        type            fixedValue;
        value           uniform 1.5352;
    }
    outlet
    {
        type            fixedValue;
        value           uniform 0;
    }
    bottom
    {
        type            zeroGradient;
    }
    back
    {
        type            empty;
    }
    front
    {
        type            empty;
    }
}


// ************************************************************************* //
