/*--------------------------------*- C++ -*----------------------------------*\
| =========                 |                                                 |
| \\      /  F ield         | OpenFOAM: The Open Source CFD Toolbox           |
|  \\    /   O peration     | Version:  2112                                  |
|   \\  /    A nd           | Website:  www.openfoam.com                      |
|    \\/     M anipulation  |                                                 |
\*---------------------------------------------------------------------------*/
FoamFile
{
    version     2.0;
    format      ascii;
    arch        "LSB;label=32;scalar=64";
    class       surfaceScalarField;
    location    "7";
    object      phi;
}
// * * * * * * * * * * * * * * * * * * * * * * * * * * * * * * * * * * * * * //

dimensions      [0 3 -1 0 0 0 0];

oriented        oriented;

internalField   nonuniform List<scalar> 
1890
(
0.0023366472
4.5516483e-06
0.0023226786
1.3969911e-05
0.0023070963
1.558249e-05
0.0022942491
1.2847212e-05
0.0022846971
9.5520227e-06
0.0022774625
7.2346009e-06
0.002271683
5.7794915e-06
0.0022669392
4.7438286e-06
0.0022630381
3.9010487e-06
0.002259831
3.2071397e-06
0.0022571727
2.6585077e-06
0.0022549402
2.2325333e-06
0.0022530455
1.8948686e-06
0.0022514284
1.617251e-06
0.0022500458
1.3827369e-06
0.0022488641
1.1818782e-06
0.0022478559
1.0083575e-06
0.0022469989
8.5710592e-07
0.002246275
7.2412814e-07
0.0022456686
6.0653315e-07
0.0022451663
5.0238679e-07
0.0022447561
4.1041727e-07
0.0022444264
3.297959e-07
0.0022441666
2.5994958e-07
0.0022439662
2.0041675e-07
0.0022438156
1.5070696e-07
0.0022437055
1.102005e-07
0.0022436275
7.8100374e-08
0.0022435741
5.3434491e-08
0.0022435391
3.511186e-08
0.0022435171
2.2004795e-08
0.0022435042
1.3015168e-08
0.0022434971
7.1301961e-09
0.0022434936
3.4818542e-09
0.0022434923
1.3642636e-09
0.0022434921
2.3269561e-10
0.0022434924
-2.2168911e-10
0.0022434928
-3.917107e-10
0.0022434932
-3.9193285e-10
0.0022434935
-3.1862517e-10
0.0022434938
-2.3085101e-10
0.0022434939
-1.5123159e-10
0.002243494
-9.1968811e-11
0.0022434941
-4.9755544e-11
0.0022434941
-2.4238144e-11
0.0022434941
-8.2396225e-12
0.0022434941
-7.1270301e-13
0.0022434941
3.4490258e-12
0.0022434941
4.068963e-12
0.0022434941
5.0151719e-12
0.0022434941
3.7055992e-12
0.0022434941
3.8336741e-12
0.0022434941
2.3635172e-12
0.0022434941
2.4902068e-12
0.0022434941
1.1254814e-12
0.0022434941
1.2604056e-12
0.0022434941
1.4241787e-13
0.0022434941
2.9907347e-13
0.0022434941
-7.4359595e-13
0.0022434941
-4.9018705e-13
0.0022434941
-1.4474934e-12
0.0022434941
-9.7224579e-13
0.0022434941
-1.9024091e-12
0.0022434941
-1.3007034e-12
0.0022434941
-2.0815335e-12
0.0022434941
-1.2966821e-12
0.0022434941
-1.970075e-12
0.0022434941
-1.0961813e-12
0.0022434941
-1.5907215e-12
0.0022434941
-6.1415472e-13
0.0022434941
-9.9864626e-13
0.0022434941
-1.0594826e-13
0.0022434941
-3.0752901e-13
0.0022434941
6.5235921e-13
0.0022434941
2.714552e-13
0.0022434941
1.2123917e-12
0.0022434941
7.2452356e-13
0.0022434941
1.6562307e-12
0.0022434941
9.9754415e-13
0.0022434941
1.785073e-12
0.0022434941
1.0427521e-12
0.0022434941
1.7478209e-12
0.0022434941
8.9438122e-13
0.0022434941
1.4697051e-12
0.0022434941
6.4398185e-13
0.0022434941
1.203311e-12
0.0022434941
4.4119435e-13
0.0022434941
9.7444363e-13
0.0022434941
5.1175852e-13
0.0022434941
1.2128596e-12
0.0022434941
1.3380874e-12
0.0022434941
2.3866266e-12
0.0022434941
4.1546515e-12
0.0022434941
6.9574044e-12
0.0022434941
1.4485663e-11
0.0022434941
2.425304e-11
0.002243494
4.7862019e-11
0.0022434939
7.535436e-11
0.0022434938
1.6047696e-10
2.1277698e-10
0.0054614144
5.0078773e-06
0.0054558889
1.9497054e-05
0.0054462704
2.5201244e-05
0.0054356332
2.348426e-05
0.0054256522
1.9533111e-05
0.0054166567
1.6230288e-05
0.0054085744
1.3861899e-05
0.0054013665
1.1951636e-05
0.0053950356
1.0231785e-05
0.0053895452
8.6974949e-06
0.005384809
7.3947741e-06
0.0053807249
6.3167219e-06
0.0053772012
5.4185603e-06
0.0053741628
4.6557342e-06
0.005371547
3.9986221e-06
0.0053693002
3.4287376e-06
0.0053673764
2.932187e-06
0.0053657365
2.4970818e-06
0.0053643471
2.1135723e-06
0.0053631796
1.7741762e-06
0.0053622085
1.473536e-06
0.005361411
1.2079356e-06
0.0053607661
9.7482115e-07
0.0053602537
7.7240232e-07
0.0053598549
5.9926213e-07
0.0053595517
4.5398462e-07
0.0053593271
3.3486871e-07
0.0053591655
2.3975786e-07
0.0053590529
1.660386e-07
0.0053589774
1.1073363e-07
0.0053589287
7.0710105e-08
0.0053588989
4.2862707e-08
0.0053588818
2.4323265e-08
0.0053588727
1.2591584e-08
0.0053588685
5.6078113e-09
0.005358867
1.7454555e-09
0.005358867
-1.0894756e-10
0.0053588674
-8.5668598e-10
0.0053588681
-1.0019639e-09
0.0053588687
-8.758732e-10
0.0053588691
-6.6117187e-10
0.0053588694
-4.5268391e-10
0.0053588696
-2.8369042e-10
0.0053588697
-1.640744e-10
0.0053588698
-8.4598305e-11
0.0053588698
-3.7797809e-11
0.0053588699
-1.0889029e-11
0.0053588699
1.2575522e-12
0.0053588699
7.4991034e-12
0.0053588699
8.2443263e-12
0.0053588699
8.4265889e-12
0.0053588698
6.5800266e-12
0.0053588698
5.9378922e-12
0.0053588698
4.1195652e-12
0.0053588698
3.6027191e-12
0.0053588698
2.1035897e-12
0.0053588698
1.8456593e-12
0.0053588698
6.8624998e-13
0.0053588698
3.6954488e-13
0.0053588698
-5.7712753e-13
0.0053588698
-6.9106872e-13
0.0053588698
-1.5921463e-12
0.0053588698
-1.5062295e-12
0.0053588698
-2.3934786e-12
0.0053588698
-2.0246321e-12
0.0053588698
-2.7047769e-12
0.0053588698
-2.1788913e-12
0.0053588698
-2.6810615e-12
0.0053588698
-1.8907539e-12
0.0053588698
-2.1119977e-12
0.0053588698
-1.2470864e-12
0.0053588698
-1.267856e-12
0.0053588698
-3.6546157e-13
0.0053588698
-1.0027665e-13
0.0053588698
7.4109951e-13
0.0053588698
7.2019781e-13
0.0053588698
1.7018666e-12
0.0053588698
1.5024618e-12
0.0053588698
2.3107916e-12
0.0053588698
1.8576601e-12
0.0053588698
2.5389295e-12
0.0053588698
1.943407e-12
0.0053588698
2.3921567e-12
0.0053588698
1.6456241e-12
0.0053588698
2.0838251e-12
0.0053588698
1.3698831e-12
0.0053588698
1.8649475e-12
0.0053588698
1.2138334e-12
0.0053588698
2.2626311e-12
0.0053588698
1.9143486e-12
0.0053588698
4.247434e-12
0.0053588698
4.533538e-12
0.0053588698
1.0437132e-11
0.0053588698
1.4405232e-11
0.0053588698
3.0231963e-11
0.0053588698
4.5037945e-11
0.0053588697
8.3590827e-11
0.0053588697
1.2498744e-10
0.0053588696
2.0941329e-10
2.7617794e-10
0.007413699
3.4957497e-06
0.0074172558
1.5941575e-05
0.0074199319
2.2525205e-05
0.0074208915
2.2524729e-05
0.0074206156
1.9809407e-05
0.0074195755
1.7270704e-05
0.0074180435
1.5393959e-05
0.0074162067
1.3788195e-05
0.0074142293
1.2209085e-05
0.0074122383
1.0688403e-05
0.0074103148
9.3182895e-06
0.0074085038
8.1278152e-06
0.0074068291
7.0932748e-06
0.0074053025
6.1823249e-06
0.0074039273
5.3738533e-06
0.0074027006
4.6554575e-06
0.0074016158
4.0170718e-06
0.0074006641
3.4487831e-06
0.0073998361
2.9415887e-06
0.0073991221
2.4882144e-06
0.0073985125
2.0832073e-06
0.0073979979
1.7225961e-06
0.0073975692
1.4035648e-06
0.0073972175
1.1241153e-06
0.0073969341
8.8270767e-07
0.0073967103
6.7783992e-07
0.0073965375
5.0768119e-07
0.0073964075
3.6982789e-07
0.0073963124
2.6122696e-07
0.0073962449
1.7827652e-07
0.0073961986
1.1701425e-07
0.0073961681
7.3416074e-08
0.0073961489
4.3610164e-08
0.0073961373
2.4148049e-08
0.0073961309
1.2099108e-08
0.0073961276
5.0872846e-09
0.0073961261
1.3632934e-09
0.0073961257
-3.8421014e-10
0.0073961257
-1.0130881e-09
0.0073961259
-1.0701979e-09
0.0073961262
-8.9128823e-10
0.0073961264
-6.5066737e-10
0.0073961266
-4.323312e-10
0.0073961267
-2.6312854e-10
0.0073961267
-1.467228e-10
0.0073961268
-7.2362668e-11
0.0073961268
-2.9391733e-11
0.0073961268
-6.4767323e-12
0.0073961268
4.2843164e-12
0.0073961268
8.5726764e-12
0.0073961268
8.6124235e-12
0.0073961268
8.0966309e-12
0.0073961268
6.2875523e-12
0.0073961268
5.24524e-12
0.0073961268
3.6584962e-12
0.0073961268
2.9524333e-12
0.0073961268
1.8212527e-12
0.0073961268
1.2566345e-12
0.0073961268
5.3134162e-13
0.0073961268
-7.305835e-14
0.0073961268
-5.9256171e-13
0.0073961268
-9.5448291e-13
0.0073961268
-1.5722609e-12
0.0073961268
-1.6689159e-12
0.0073961268
-2.2089088e-12
0.0073961268
-2.111356e-12
0.0073961268
-2.5019899e-12
0.0073961268
-2.1608501e-12
0.0073961268
-2.3040093e-12
0.0073961268
-1.796484e-12
0.0073961268
-1.6974983e-12
0.0073961268
-1.0708854e-12
0.0073961268
-6.2803055e-13
0.0073961268
-1.2653997e-13
0.0073961268
3.6491988e-13
0.0073961268
1.0357414e-12
0.0073961268
1.2403973e-12
0.0073961268
1.8942948e-12
0.0073961268
1.8590527e-12
0.0073961268
2.3702615e-12
0.0073961268
2.1441569e-12
0.0073961268
2.4408452e-12
0.0073961268
2.0658385e-12
0.0073961268
2.2343859e-12
0.0073961268
1.8876536e-12
0.0073961268
2.0025679e-12
0.0073961268
1.8668698e-12
0.0073961268
2.1222285e-12
0.0073961268
2.5957608e-12
0.0073961268
3.2672269e-12
0.0073961268
5.0674215e-12
0.0073961268
6.8896179e-12
0.0073961268
1.3019952e-11
0.0073961268
1.943155e-11
0.0073961268
3.4923934e-11
0.0073961268
5.1003441e-11
0.0073961268
8.3217805e-11
0.0073961268
1.2124395e-10
0.0073961268
1.7971164e-10
2.332097e-10
0.0085258097
1.7062653e-06
0.0085332276
8.5249394e-06
0.0085431026
1.2650214e-05
0.0085524938
1.3133578e-05
0.0085604356
1.1867963e-05
0.0085671228
1.05839e-05
0.008572871
9.6458102e-06
0.0085778269
8.8321221e-06
0.0085820526
7.9832247e-06
0.0085856209
7.1200537e-06
0.0085886278
6.311446e-06
0.0085911684
5.5872826e-06
0.0085933211
4.9405955e-06
0.008595147
4.3564468e-06
0.008596695
3.825926e-06
0.0085980055
3.345012e-06
0.0085991123
2.9102856e-06
0.0086000435
2.517643e-06
0.0086008223
2.162873e-06
0.0086014681
1.8424409e-06
0.0086019978
1.5535954e-06
0.0086024262
1.2943103e-06
0.0086027667
1.0631027e-06
0.008603032
8.589441e-07
0.0086032337
6.8104459e-07
0.0086033829
5.2863498e-07
0.00860349
4.0071056e-07
0.008603564
2.9586105e-07
0.0086036131
2.1219678e-07
0.0086036441
1.4737763e-07
0.0086036624
9.8756478e-08
0.0086036723
6.3533575e-08
0.008603677
3.8976561e-08
0.0086036786
2.2560787e-08
0.0086036787
1.2094583e-08
0.008603678
5.7820697e-09
0.0086036772
2.2487228e-09
0.0086036764
4.451543e-10
0.0086036758
-3.6632911e-10
0.0086036753
-6.0091382e-10
0.008603675
-5.738588e-10
0.0086036749
-4.532427e-10
0.0086036748
-3.1504307e-10
0.0086036747
-2.0126317e-10
0.0086036747
-1.1527785e-10
0.0086036747
-6.0891262e-11
0.0086036747
-2.5704092e-11
0.0086036747
-8.4908549e-12
0.0086036747
2.1383795e-12
0.0086036747
4.2759977e-12
0.0086036747
6.6059945e-12
0.0086036747
4.6076082e-12
0.0086036747
5.0662997e-12
0.0086036747
2.6698424e-12
0.0086036747
3.1123311e-12
0.0086036747
1.2034191e-12
0.0086036747
1.6714675e-12
0.0086036747
1.4221296e-13
0.0086036747
6.6373932e-13
0.0086036747
-6.7044823e-13
0.0086036747
-1.8407843e-14
0.0086036747
-1.4020578e-12
0.0086036747
-4.973041e-13
0.0086036747
-1.91613e-12
0.0086036747
-8.7674452e-13
0.0086036747
-2.2591785e-12
0.0086036747
-9.9608466e-13
0.0086036747
-2.1987361e-12
0.0086036747
-8.6040811e-13
0.0086036747
-1.8586612e-12
0.0086036747
-4.5175181e-13
0.0086036747
-1.1318631e-12
0.0086036747
2.2162481e-13
0.0086036747
-2.9877966e-13
0.0086036747
1.138984e-12
0.0086036747
3.4808694e-13
0.0086036747
1.8641785e-12
0.0086036747
8.1342576e-13
0.0086036747
2.3295349e-12
0.0086036747
1.0818952e-12
0.0086036747
2.4123777e-12
0.0086036747
1.0298252e-12
0.0086036747
2.3097566e-12
0.0086036747
9.2394855e-13
0.0086036747
2.1697778e-12
0.0086036747
8.8889258e-13
0.0086036747
2.4257495e-12
0.0086036747
1.3482378e-12
0.0086036747
3.4372872e-12
0.0086036747
2.6554071e-12
0.0086036747
6.0683359e-12
0.0086036747
6.5152785e-12
0.0086036747
1.3519421e-11
0.0086036747
1.7538564e-11
0.0086036747
3.0336686e-11
0.0086036747
3.8765428e-11
0.0086036747
5.9059309e-11
0.0086036748
7.8808929e-11
0.0086036748
1.0858696e-10
1.3831393e-10
0.0090252363
2.7890033e-11
0.0090337624
1.6746389e-11
0.0090464127
-1.5019093e-10
0.0090595464
-2.4604481e-10
0.0090714151
-1.3379514e-10
0.0090819995
-4.8638824e-11
0.0090916455
-2.6158541e-11
0.0091004774
-6.4002168e-11
0.0091084606
-7.2153713e-11
0.0091155807
-4.1184874e-11
0.0091218922
6.2571335e-12
0.0091274795
3.1285353e-11
0.0091324201
4.2406255e-11
0.0091367766
3.9312621e-11
0.0091406025
4.1219405e-11
0.0091439476
3.40451e-11
0.0091468579
2.7653909e-11
0.0091493757
1.3460034e-11
0.0091515386
4.1971663e-12
0.0091533812
-4.1144717e-12
0.0091549349
-2.5638783e-12
0.0091562293
4.6308281e-12
0.0091572925
2.0621058e-11
0.0091581515
4.1392157e-11
0.0091588325
6.7268565e-11
0.0091593612
9.5484632e-11
0.0091597618
1.2384675e-10
0.0091600576
1.5217453e-10
0.0091602697
1.7699183e-10
0.009160417
1.9958267e-10
0.0091605156
2.1587941e-10
0.009160579
2.2726912e-10
0.0091606178
2.302946e-10
0.0091606402
2.2856405e-10
0.0091606521
2.1515865e-10
0.0091606578
2.0090807e-10
0.0091606599
1.8274805e-10
0.0091606602
1.6420251e-10
0.0091606597
1.326777e-10
0.009160659
1.0914238e-10
0.0091606584
8.5245918e-11
0.0091606579
6.6473922e-11
0.0091606575
4.8342902e-11
0.0091606573
3.5770104e-11
0.0091606572
2.3790293e-11
0.0091606571
1.7044472e-11
0.0091606571
1.0156307e-11
0.0091606571
7.2759884e-12
0.0091606571
3.5464571e-12
0.0091606571
2.7847139e-12
0.0091606571
6.7519992e-13
0.0091606571
1.0207622e-12
0.0091606571
-5.3466595e-13
0.0091606571
2.7598543e-13
0.0091606571
-8.6232045e-13
0.0091606571
9.2504109e-14
0.0091606571
-1.1295498e-12
0.0091606571
-6.5651054e-14
0.0091606571
-1.1539641e-12
0.0091606571
-1.6134727e-13
0.0091606571
-1.33537e-12
0.0091606571
-2.6924949e-13
0.0091606571
-1.2983611e-12
0.0091606571
-2.9814938e-13
0.0091606571
-1.3995846e-12
0.0091606571
-2.9856121e-13
0.0091606571
-1.1732958e-12
0.0091606571
-4.3614589e-14
0.009160657
-9.665919e-13
0.0091606571
2.536419e-13
0.009160657
-4.7864582e-13
0.0091606571
7.6901652e-13
0.009160657
-9.9953071e-14
0.0091606571
1.2427007e-12
0.009160657
3.7547731e-13
0.0091606571
1.5775673e-12
0.009160657
5.0596206e-13
0.0091606571
1.6310136e-12
0.0091606571
6.1142876e-13
0.0091606571
1.5270932e-12
0.0091606571
3.0683136e-13
0.0091606571
1.2452599e-12
0.0091606571
1.681248e-13
0.0091606571
1.1203963e-12
0.0091606571
5.3757347e-14
0.0091606571
1.2990625e-12
0.0091606571
6.3811707e-13
0.0091606571
2.1282499e-12
0.0091606571
1.6333278e-12
0.0091606571
3.6451357e-12
0.0091606571
3.9054055e-12
0.0091606571
7.2197518e-12
0.0091606571
8.7829264e-12
0.0091606571
1.3615267e-11
0.0091606571
1.5631394e-11
0.0091606571
1.7991496e-11
0.0091606572
1.9225626e-11
0.0091606572
1.8533022e-11
0.0091606573
1.8673533e-11
2.0679887e-11
0.0090252349
-1.7063227e-06
0.009033761
-8.5251632e-06
0.0090464112
-1.2650305e-05
0.0090595449
-1.3133679e-05
0.0090714135
-1.1868207e-05
0.0090819981
-1.0584194e-05
0.0090916441
-9.6460319e-06
0.0091004762
-8.8322789e-06
0.0091084593
-7.9833413e-06
0.0091155794
-7.1201382e-06
0.009121891
-6.3114813e-06
0.0091274784
-5.5872776e-06
0.009132419
-4.940559e-06
0.0091367755
-4.3564001e-06
0.0091406015
-3.825875e-06
0.0091439466
-3.344972e-06
0.009146857
-2.9102598e-06
0.0091493748
-2.5176403e-06
0.0091515378
-2.1628874e-06
0.0091533803
-1.8424683e-06
0.0091549341
-1.5536201e-06
0.0091562285
-1.294321e-06
0.0091572917
-1.0630834e-06
0.0091581508
-8.5888546e-07
0.0091588319
-6.8093672e-07
0.0091593605
-5.2847376e-07
0.0091597613
-4.0049465e-07
0.0091600571
-2.9559154e-07
0.0091602692
-2.1187913e-07
0.0091604165
-1.4701803e-07
0.0091605152
-9.8364845e-08
0.0091605786
-6.3121996e-08
0.0091606175
-3.8560475e-08
0.0091606399
-2.2145656e-08
0.0091606519
-1.1707464e-08
0.0091606576
-5.4265616e-09
0.0091606597
-1.9240082e-09
0.0091606601
-1.4317133e-10
0.0091606597
5.9662361e-10
0.009160659
7.9090229e-10
0.0091606584
7.2251379e-10
0.0091606579
5.6744615e-10
0.0091606576
3.9807998e-10
0.0091606574
2.611676e-10
0.0091606572
1.5544145e-10
0.0091606572
8.8430022e-11
0.0091606571
4.2406495e-11
0.0091606571
1.9244459e-11
0.0091606571
3.8657291e-12
0.0091606571
-8.3460205e-13
0.0091606571
-5.5582119e-12
0.0091606571
-3.93745e-12
0.0091606571
-5.8389123e-12
0.0091606571
-3.0366861e-12
0.0091606571
-4.4110881e-12
0.0091606571
-1.9268115e-12
0.0091606571
-3.3228146e-12
0.0091606571
-1.001144e-12
0.0091606571
-2.4277979e-12
0.0091606571
-4.4698768e-13
0.0091606571
-1.9340394e-12
0.0091606571
1.0131795e-13
0.0091606571
-1.3464109e-12
0.0091606571
3.8969473e-13
0.0091606571
-9.4896778e-13
0.0091606571
8.43207e-13
0.0091606571
-4.4380203e-13
0.0091606571
1.2363521e-12
0.0091606571
-1.0041392e-13
0.0091606571
1.6874091e-12
0.0091606571
2.4582436e-13
0.0091606571
1.90755e-12
0.0091606571
2.6676039e-13
0.0091606571
2.1082773e-12
0.0091606571
2.5867081e-13
0.0091606571
1.8544004e-12
0.0091606571
-6.2452092e-14
0.0091606571
1.482414e-12
0.0091606571
-3.8961728e-13
0.0091606571
8.5787789e-13
0.0091606571
-9.3918382e-13
0.0091606571
4.944284e-13
0.0091606571
-1.2131315e-12
0.0091606571
3.0953908e-13
0.0091606571
-1.2096469e-12
0.0091606571
8.2155398e-13
0.0091606571
-3.6626957e-13
0.0091606571
1.875254e-12
0.0091606571
6.1068234e-13
0.0091606572
3.6750725e-12
0.0091606572
2.2075507e-12
0.0091606572
6.1096531e-12
0.0091606572
3.5112351e-12
0.0091606572
6.2931249e-12
0.0091606572
-1.1652933e-12
0.0091606572
-6.1752305e-12
0.0091606572
-2.3695426e-11
0.0091606573
-4.504404e-11
0.0091606574
-7.3900058e-11
-1.0136411e-10
0.0085258064
-3.4956697e-06
0.0085332242
-1.5941427e-05
0.0085430993
-2.2525334e-05
0.0085524906
-2.2525003e-05
0.0085604323
-1.9809665e-05
0.0085671195
-1.7270899e-05
0.0085728676
-1.5394164e-05
0.0085778237
-1.3788379e-05
0.0085820494
-1.2209259e-05
0.0085856178
-1.0688528e-05
0.0085886248
-9.3183887e-06
0.0085911655
-8.1278708e-06
0.0085933183
-7.0933182e-06
0.0085951443
-6.182345e-06
0.0085966923
-5.3738798e-06
0.008598003
-4.6554809e-06
0.0085991099
-4.0171155e-06
0.0086000412
-3.4488331e-06
0.00860082
-2.9416558e-06
0.008601466
-2.4882791e-06
0.0086019957
-2.0832696e-06
0.0086024241
-1.7226364e-06
0.0086027647
-1.4035785e-06
0.00860303
-1.1240901e-06
0.0086032319
-8.8264048e-07
0.0086033812
-6.7772774e-07
0.0086034884
-5.0752338e-07
0.0086035625
-3.6963023e-07
0.0086036117
-2.6099041e-07
0.0086036428
-1.7801143e-07
0.0086036613
-1.1672585e-07
0.0086036713
-7.3117053e-08
0.0086036762
-4.3306392e-08
0.008603678
-2.3862088e-08
0.0086036782
-1.1813505e-08
0.0086036776
-4.8377727e-09
0.0086036769
-1.1440086e-09
0.0086036762
5.8162777e-10
0.0086036757
1.1720056e-09
0.0086036753
1.192186e-09
0.0086036751
9.8824084e-10
0.0086036749
7.1932758e-10
0.0086036749
4.8427833e-10
0.0086036748
2.9564877e-10
0.0086036748
1.7091307e-10
0.0086036748
8.4791011e-11
0.0086036749
3.9088921e-11
0.0086036749
9.1500839e-12
0.0086036749
-7.2618965e-13
0.0086036749
-9.5877554e-12
0.0086036749
-7.4745029e-12
0.0086036749
-1.0467244e-11
0.0086036749
-5.9133071e-12
0.0086036749
-7.8194408e-12
0.0086036749
-3.6366391e-12
0.0086036749
-5.68005e-12
0.0086036749
-1.91991e-12
0.0086036749
-3.9421381e-12
0.0086036749
-7.2013079e-13
0.0086036749
-2.831929e-12
0.0086036749
1.9311086e-13
0.0086036749
-1.7345706e-12
0.0086036749
1.0330882e-12
0.0086036749
-1.0981601e-12
0.0086036749
1.8781403e-12
0.0086036749
-2.9399753e-13
0.0086036749
2.4204898e-12
0.0086036748
1.3882897e-13
0.0086036749
2.8331056e-12
0.0086036748
4.5532608e-13
0.0086036749
2.9268731e-12
0.0086036748
2.7682767e-13
0.0086036749
2.7656061e-12
0.0086036748
6.2322459e-14
0.0086036749
2.2534475e-12
0.0086036748
-5.9026696e-13
0.0086036749
1.5970442e-12
0.0086036749
-1.2516741e-12
0.0086036749
8.652292e-13
0.0086036749
-2.0930636e-12
0.0086036749
2.5034714e-13
0.0086036749
-2.3794453e-12
0.0086036749
-4.3901067e-14
0.0086036749
-2.4487726e-12
0.0086036749
2.8796891e-13
0.0086036749
-1.7093559e-12
0.0086036749
1.2055033e-12
0.0086036749
-5.4490175e-13
0.0086036749
2.408406e-12
0.0086036749
9.7571431e-13
0.0086036749
3.5305248e-12
0.0086036749
1.7188778e-12
0.0086036749
1.6891855e-12
0.0086036749
-3.4817912e-12
0.0086036749
-1.2360517e-11
0.0086036749
-2.7526888e-11
0.008603675
-5.6902257e-11
0.008603675
-9.5959672e-11
0.0086036751
-1.543329e-10
-2.0770385e-10
0.0074136955
-5.0078851e-06
0.0074172521
-1.9496996e-05
0.0074199283
-2.5201232e-05
0.0074208879
-2.3484397e-05
0.0074206119
-1.9533362e-05
0.0074195718
-1.6230537e-05
0.0074180397
-1.3862096e-05
0.007416203
-1.1951773e-05
0.0074142256
-1.02319e-05
0.0074122346
-8.6975963e-06
0.0074103112
-7.3948631e-06
0.0074085002
-6.3167831e-06
0.0074068256
-5.4186036e-06
0.0074052991
-4.655765e-06
0.007403924
-3.9986578e-06
0.0074026974
-3.4287787e-06
0.0074016126
-2.9322397e-06
0.007400661
-2.4971398e-06
0.0073998332
-2.1136361e-06
0.0073991193
-1.7742366e-06
0.0073985097
-1.4735892e-06
0.0073979952
-1.207972e-06
0.0073975666
-9.7483615e-07
0.0073972151
-7.7239085e-07
0.0073969318
-5.9922245e-07
0.0073967081
-4.539176e-07
0.0073965355
-3.3477502e-07
0.0073964057
-2.3964143e-07
0.0073963107
-1.6590282e-07
0.0073962434
-1.1058394e-07
0.0073961973
-7.0551345e-08
0.007396167
-4.2699915e-08
0.007396148
-2.4164037e-08
0.0073961366
-1.2439511e-08
0.0073961303
-5.4596714e-09
0.0073961272
-1.6279664e-09
0.0073961259
2.1932695e-10
0.0073961256
9.490665e-10
0.0073961257
1.0755871e-09
0.007396126
9.3088506e-10
0.0073961263
7.0264252e-10
0.0073961266
4.8078146e-10
0.0073961268
3.0327705e-10
0.0073961269
1.7545312e-10
0.007396127
9.2120758e-11
0.007396127
4.0716552e-11
0.0073961271
1.2746075e-11
0.0073961271
-1.8090187e-12
0.0073961271
-7.5543224e-12
0.0073961271
-9.775694e-12
0.0073961271
-9.187345e-12
0.0073961271
-8.3308159e-12
0.0073961271
-6.6453351e-12
0.0073961271
-5.8875071e-12
0.0073961271
-4.5656467e-12
0.0073961271
-3.893358e-12
0.0073961271
-2.7303969e-12
0.0073961271
-2.4556329e-12
0.0073961271
-1.5719391e-12
0.0073961271
-1.2044376e-12
0.0073961271
-3.253686e-13
0.0073961271
-2.0513547e-13
0.007396127
4.8541129e-13
0.007396127
5.5913378e-13
0.007396127
1.4155985e-12
0.007396127
1.2166756e-12
0.007396127
1.6958881e-12
0.007396127
1.5762276e-12
0.007396127
2.0107069e-12
0.007396127
1.5337849e-12
0.007396127
1.6412374e-12
0.007396127
1.2302017e-12
0.007396127
1.340792e-12
0.007396127
6.1795824e-13
0.007396127
4.8862916e-13
0.007396127
-9.3126975e-14
0.007396127
-9.6533441e-14
0.0073961271
-8.7325989e-13
0.007396127
-8.5761872e-13
0.0073961271
-1.3960908e-12
0.0073961271
-1.1284896e-12
0.0073961271
-1.6222395e-12
0.0073961271
-1.2786368e-12
0.0073961271
-1.3226074e-12
0.0073961271
-6.5936093e-13
0.0073961271
-6.3113125e-13
0.0073961271
1.3820213e-13
0.0073961271
4.9828744e-13
0.0073961271
1.2495746e-12
0.0073961271
1.6816288e-12
0.0073961271
1.4745132e-12
0.0073961271
1.3389222e-12
0.0073961271
-2.1481991e-12
0.0073961271
-6.3709178e-12
0.0073961271
-1.8889109e-11
0.0073961271
-3.1431254e-11
0.0073961271
-7.0693576e-11
0.0073961271
-1.1170906e-10
0.0073961271
-1.9701351e-10
-2.6499415e-10
0.0054614117
-4.5514652e-06
0.0054558859
-1.3969617e-05
0.0054462675
-1.5582238e-05
0.0054356304
-1.2847158e-05
0.0054256494
-9.552184e-06
0.0054166538
-7.234847e-06
0.0054085714
-5.7796368e-06
0.0054013635
-4.7438735e-06
0.0053950327
-3.901039e-06
0.0053895423
-3.2071403e-06
0.0053848061
-2.6584977e-06
0.005380722
-2.232513e-06
0.0053771984
-1.8948193e-06
0.00537416
-1.6171997e-06
0.0053715443
-1.3826801e-06
0.0053692975
-1.1818333e-06
0.0053673738
-1.0083114e-06
0.005365734
-8.5706879e-07
0.0053643447
-7.2408962e-07
0.0053631772
-6.0650164e-07
0.0053622062
-5.0235387e-07
0.0053614089
-4.1038683e-07
0.005360764
-3.2976225e-07
0.0053602518
-2.5991381e-07
0.0053598531
-2.003773e-07
0.0053595501
-1.506624e-07
0.0053593256
-1.1015274e-07
0.0053591642
-7.8046296e-08
0.0053590518
-5.3379281e-08
0.0053589764
-3.5051344e-08
0.0053589279
-2.1946044e-08
0.0053588982
-1.2954015e-08
0.0053588812
-7.0730513e-09
0.0053588723
-3.4275765e-09
0.0053588682
-1.3170275e-09
0.0053588669
-1.9106055e-10
0.0053588669
2.5462642e-10
0.0053588675
4.2320195e-10
0.0053588682
4.1371515e-10
0.0053588688
3.3781256e-10
0.0053588693
2.4142581e-10
0.0053588696
1.6136298e-10
0.0053588698
9.5677119e-11
0.00535887
5.4535263e-11
0.00535887
2.4491183e-11
0.0053588701
1.021225e-11
0.0053588701
-2.6447675e-13
0.0053588701
-2.2173466e-12
0.0053588701
-6.021013e-12
0.0053588701
-3.979447e-12
0.0053588701
-5.912488e-12
0.0053588701
-3.0323134e-12
0.0053588701
-4.7324022e-12
0.0053588701
-2.0279318e-12
0.0053588701
-3.6090624e-12
0.0053588701
-1.0157092e-12
0.0053588701
-2.6529135e-12
0.0053588701
-2.6106885e-13
0.0053588701
-1.8104419e-12
0.0053588701
5.9326801e-13
0.00535887
-1.0828969e-12
0.00535887
1.1866187e-12
0.00535887
-5.178548e-13
0.00535887
1.7599825e-12
0.00535887
-8.9029983e-14
0.00535887
1.9280361e-12
0.00535887
8.1049932e-14
0.00535887
2.053149e-12
0.00535887
1.1990197e-14
0.00535887
1.7631661e-12
0.00535887
-2.8692415e-13
0.00535887
1.5036206e-12
0.00535887
-6.8206383e-13
0.0053588701
9.8032219e-13
0.00535887
-1.2085765e-12
0.0053588701
6.6451621e-13
0.00535887
-1.6001203e-12
0.0053588701
2.3220196e-13
0.0053588701
-1.849068e-12
0.0053588701
1.6480074e-13
0.0053588701
-1.8724447e-12
0.0053588701
1.2546224e-13
0.0053588701
-1.6694772e-12
0.0053588701
5.7143451e-13
0.0053588701
-1.2538512e-12
0.0053588701
1.0369063e-12
0.0053588701
-6.7288336e-13
0.0053588701
1.8121725e-12
0.0053588701
-3.553806e-14
0.0053588701
2.3673385e-12
0.0053588701
-5.2643787e-14
0.0053588701
1.6157572e-12
0.0053588701
-3.5915396e-12
0.0053588701
-3.6902719e-12
0.0053588701
-1.2944334e-11
0.00535887
-2.054567e-11
0.00535887
-4.6774988e-11
0.00535887
-7.2601294e-11
0.0053588699
-1.5849032e-10
-2.1176442e-10
0.0023366468
0.0023226777
0.0023070956
0.0022942485
0.0022846963
0.0022774616
0.0022716819
0.0022669381
0.0022630371
0.00225983
0.0022571716
0.0022549392
0.0022530445
0.0022514275
0.0022500449
0.0022488632
0.0022478551
0.0022469982
0.0022462742
0.0022456679
0.0022451657
0.0022447554
0.0022444258
0.002244166
0.0022439657
0.0022438151
0.0022437051
0.0022436271
0.0022435738
0.0022435388
0.0022435169
0.002243504
0.002243497
0.0022434936
0.0022434923
0.0022434921
0.0022434924
0.0022434928
0.0022434933
0.0022434936
0.0022434939
0.002243494
0.0022434942
0.0022434942
0.0022434942
0.0022434942
0.0022434943
0.0022434942
0.0022434942
0.0022434942
0.0022434942
0.0022434942
0.0022434942
0.0022434942
0.0022434942
0.0022434942
0.0022434942
0.0022434942
0.0022434942
0.0022434942
0.0022434942
0.0022434942
0.0022434942
0.0022434942
0.0022434942
0.0022434942
0.0022434942
0.0022434942
0.0022434942
0.0022434942
0.0022434942
0.0022434942
0.0022434942
0.0022434942
0.0022434942
0.0022434942
0.0022434942
0.0022434942
0.0022434942
0.0022434942
0.0022434942
0.0022434942
0.0022434942
0.0022434942
0.0022434942
0.0022434942
0.0022434942
0.0022434942
0.0022434942
0.0022434942
0.0022434942
0.0022434942
0.0022434942
0.0022434942
0.0022434942
0.0022434942
0.0022434941
0.002243494
0.0022434939
)
;

boundaryField
{
    top
    {
        type            calculated;
        value           uniform 0;
    }
    inlet
    {
        type            calculated;
        value           nonuniform List<scalar> 10(-0.0023411969 -0.0054618691 -0.0074121848 -0.0085240185 -0.0090235283 -0.0090235267 -0.0085240155 -0.0074121815 -0.0054618666 -0.0023411973);
    }
    outlet
    {
        type            calculated;
        value           nonuniform List<scalar> 10(0.0022434936 0.0053588696 0.0073961269 0.0086036749 0.0091606574 0.0091606575 0.0086036752 0.0073961272 0.0053588699 0.0022434937);
    }
    bottom
    {
        type            calculated;
        value           uniform 0;
    }
    back
    {
        type            empty;
        value           nonuniform List<scalar> 0();
    }
    front
    {
        type            empty;
        value           nonuniform List<scalar> 0();
    }
}


// ************************************************************************* //
