/*--------------------------------*- C++ -*----------------------------------*\
| =========                 |                                                 |
| \\      /  F ield         | OpenFOAM: The Open Source CFD Toolbox           |
|  \\    /   O peration     | Version:  2112                                  |
|   \\  /    A nd           | Website:  www.openfoam.com                      |
|    \\/     M anipulation  |                                                 |
\*---------------------------------------------------------------------------*/
FoamFile
{
    version     2.0;
    format      ascii;
    arch        "LSB;label=32;scalar=64";
    class       volVectorField;
    location    "7";
    object      U;
}
// * * * * * * * * * * * * * * * * * * * * * * * * * * * * * * * * * * * * * //

dimensions      [0 1 -1 0 0 0 0];

internalField   nonuniform List<vector> 
1000
(
(0.23401034 0.00035793154 0)
(0.23322501 0.00095312296 0)
(0.231564 0.00096736846 0)
(0.2300357 0.00068890871 0)
(0.22890285 0.0004333044 0)
(0.22807786 0.00028788173 0)
(0.22743795 0.00021394567 0)
(0.2269162 0.00016726239 0)
(0.22648595 0.00013102113 0)
(0.2261324 0.00010325743 0)
(0.2258411 8.3541237e-05 0)
(0.2255983 6.9717962e-05 0)
(0.22539326 5.9349901e-05 0)
(0.22521863 5.0899097e-05 0)
(0.22506938 4.3695407e-05 0)
(0.22494176 3.746544e-05 0)
(0.22483275 3.2032179e-05 0)
(0.2247399 2.7241687e-05 0)
(0.22466121 2.2978812e-05 0)
(0.22459499 1.9172055e-05 0)
(0.22453984 1.5781898e-05 0)
(0.22449447 1.2785006e-05 0)
(0.22445771 1.0166114e-05 0)
(0.22442846 7.9127171e-06 0)
(0.22440566 6.0115955e-06 0)
(0.2243883 4.4451036e-06 0)
(0.22437544 3.1890339e-06 0)
(0.22436618 2.2123095e-06 0)
(0.22435973 1.4781628e-06 0)
(0.22435541 9.4653305e-07 0)
(0.22435264 5.7643566e-07 0)
(0.22435095 3.2975257e-07 0)
(0.22434999 1.7327304e-07 0)
(0.2243495 7.9982553e-08 0)
(0.22434928 2.810726e-08 0)
(0.22434921 1.5941422e-09 0)
(0.22434922 -1.1722319e-08 0)
(0.22434926 -1.4741106e-08 0)
(0.2243493 -1.3164496e-08 0)
(0.22434934 -9.9776707e-09 0)
(0.22434937 -6.8526081e-09 0)
(0.22434939 -4.2486963e-09 0)
(0.2243494 -2.4476568e-09 0)
(0.22434941 -1.2033418e-09 0)
(0.22434941 -5.156798e-10 0)
(0.22434941 -6.9483434e-11 0)
(0.22434941 8.7028948e-11 0)
(0.22434941 2.2349433e-10 0)
(0.22434941 2.088704e-10 0)
(0.22434941 2.3682218e-10 0)
(0.22434941 1.693214e-10 0)
(0.22434941 1.7600603e-10 0)
(0.22434941 1.0446995e-10 0)
(0.22434941 1.1329434e-10 0)
(0.22434941 4.0103514e-11 0)
(0.22434941 5.0710942e-11 0)
(0.22434941 -1.8753577e-11 0)
(0.22434941 1.757131e-12 0)
(0.22434941 -6.437956e-11 0)
(0.22434941 -4.0508019e-11 0)
(0.22434941 -9.6465682e-11 0)
(0.22434941 -6.6641128e-11 0)
(0.22434941 -1.1596824e-10 0)
(0.22434941 -8.0134939e-11 0)
(0.22434941 -1.1789955e-10 0)
(0.22434941 -7.1875265e-11 0)
(0.22434941 -1.0430974e-10 0)
(0.22434941 -5.2588335e-11 0)
(0.22434941 -7.6718498e-11 0)
(0.22434941 -1.7544036e-11 0)
(0.22434941 -4.2198972e-11 0)
(0.22434941 1.8466224e-11 0)
(0.22434941 -9.2510877e-12 0)
(0.22434941 5.2604767e-11 0)
(0.22434941 2.3330312e-11 0)
(0.22434941 7.7099444e-11 0)
(0.22434941 4.7067156e-11 0)
(0.22434941 9.5070591e-11 0)
(0.22434941 5.6681784e-11 0)
(0.22434941 9.6193807e-11 0)
(0.22434941 5.4557167e-11 0)
(0.22434941 9.0577627e-11 0)
(0.22434941 4.2189286e-11 0)
(0.22434941 7.3715623e-11 0)
(0.22434941 2.5966744e-11 0)
(0.22434941 5.9301641e-11 0)
(0.22434941 1.1429875e-11 0)
(0.22434941 4.7459392e-11 0)
(0.22434941 1.4031529e-11 0)
(0.22434941 6.4373806e-11 0)
(0.22434941 6.5536287e-11 0)
(0.22434941 1.4823455e-10 0)
(0.22434941 2.4627273e-10 0)
(0.22434941 4.5566898e-10 0)
(0.22434941 9.2956285e-10 0)
(0.22434941 1.6371939e-09 0)
(0.2243494 3.1558077e-09 0)
(0.2243494 5.1408352e-09 0)
(0.22434938 1.0377675e-08 0)
(0.22434937 1.3265474e-08 0)
(0.5459216 0.00046873911 0)
(0.54660569 0.0018114165 0)
(0.54547815 0.0023205645 0)
(0.54410524 0.0020946924 0)
(0.54299616 0.0016553918 0)
(0.54208368 0.001297711 0)
(0.54125606 0.0010550286 0)
(0.54049139 0.00087539733 0)
(0.53980734 0.00072543008 0)
(0.53921335 0.00059902754 0)
(0.53870313 0.00049705235 0)
(0.53826429 0.000416764 0)
(0.53788565 0.00035271536 0)
(0.53755879 0.00030005304 0)
(0.53727713 0.00025570471 0)
(0.53703497 0.0002178687 0)
(0.53682733 0.00018530281 0)
(0.53664993 0.00015701407 0)
(0.53649913 0.00013222425 0)
(0.53637188 0.00011037334 0)
(0.53626548 9.1084796e-05 0)
(0.53617755 7.411127e-05 0)
(0.53610589 5.9289382e-05 0)
(0.53604846 4.6504245e-05 0)
(0.5360033 3.5660117e-05 0)
(0.53596858 2.6654543e-05 0)
(0.53594253 1.9360619e-05 0)
(0.53592353 1.3619043e-05 0)
(0.53591009 9.2408434e-06 0)
(0.5359009 6.0169659e-06 0)
(0.53589487 3.7321987e-06 0)
(0.53589109 2.1800871e-06 0)
(0.53588884 1.1752023e-06 0)
(0.53588761 5.6071863e-07 0)
(0.53588699 2.1089448e-07 0)
(0.53588674 2.9738211e-08 0)
(0.53588668 -5.2403773e-08 0)
(0.53588671 -7.6827191e-08 0)
(0.53588678 -7.2703348e-08 0)
(0.53588684 -5.7551576e-08 0)
(0.53588689 -4.0790005e-08 0)
(0.53588693 -2.6445351e-08 0)
(0.53588695 -1.5795187e-08 0)
(0.53588697 -8.5598493e-09 0)
(0.53588698 -4.0801575e-09 0)
(0.53588698 -1.4794369e-09 0)
(0.53588699 -1.5313358e-10 0)
(0.53588699 4.8477709e-10 0)
(0.53588699 6.899169e-10 0)
(0.53588699 7.2295369e-10 0)
(0.53588699 6.2613138e-10 0)
(0.53588699 5.3857796e-10 0)
(0.53588698 4.1833105e-10 0)
(0.53588698 3.4363344e-10 0)
(0.53588698 2.3829732e-10 0)
(0.53588698 1.7738206e-10 0)
(0.53588698 9.2051272e-11 0)
(0.53588698 4.9640579e-11 0)
(0.53588698 -2.2600318e-11 0)
(0.53588698 -6.3507226e-11 0)
(0.53588698 -1.2240577e-10 0)
(0.53588698 -1.4286641e-10 0)
(0.53588698 -1.9391832e-10 0)
(0.53588698 -2.0360141e-10 0)
(0.53588698 -2.3311731e-10 0)
(0.53588698 -2.1827008e-10 0)
(0.53588698 -2.3257944e-10 0)
(0.53588698 -2.0272897e-10 0)
(0.53588698 -1.9360582e-10 0)
(0.53588698 -1.4107537e-10 0)
(0.53588698 -1.2130465e-10 0)
(0.53588698 -6.2025629e-11 0)
(0.53588698 -3.1289445e-11 0)
(0.53588698 2.7482801e-11 0)
(0.53588698 5.5472767e-11 0)
(0.53588698 1.1115019e-10 0)
(0.53588698 1.3214753e-10 0)
(0.53588698 1.7953448e-10 0)
(0.53588698 1.7931059e-10 0)
(0.53588698 2.0419932e-10 0)
(0.53588698 1.9071813e-10 0)
(0.53588698 2.0429649e-10 0)
(0.53588698 1.7284564e-10 0)
(0.53588698 1.703312e-10 0)
(0.53588698 1.3882658e-10 0)
(0.53588698 1.3825073e-10 0)
(0.53588698 1.1172765e-10 0)
(0.53588698 1.1365133e-10 0)
(0.53588698 1.2811327e-10 0)
(0.53588698 1.6109886e-10 0)
(0.53588698 2.7109902e-10 0)
(0.53588698 3.676705e-10 0)
(0.53588698 7.4655204e-10 0)
(0.53588698 1.1141658e-09 0)
(0.53588698 2.3271647e-09 0)
(0.53588698 3.6107568e-09 0)
(0.53588697 6.9833667e-09 0)
(0.53588698 1.0464563e-08 0)
(0.53588695 1.9537407e-08 0)
(0.53588697 2.7082522e-08 0)
(0.74072547 0.00037316785 0)
(0.7426881 0.0017289155 0)
(0.74250179 0.0024926247 0)
(0.74206061 0.0025276242 0)
(0.74194427 0.0022331987 0)
(0.74196381 0.0019250276 0)
(0.74190782 0.0016857839 0)
(0.74174656 0.0014865767 0)
(0.7415369 0.0012998583 0)
(0.7413251 0.0011245585 0)
(0.74112607 0.00096857232 0)
(0.74093987 0.00083485903 0)
(0.74076576 0.00072079932 0)
(0.74060507 0.00062237841 0)
(0.74045935 0.00053659534 0)
(0.74032899 0.000461519 0)
(0.74021345 0.00039566955 0)
(0.74011176 0.00033771635 0)
(0.74002292 0.00028649502 0)
(0.73994597 0.00024107769 0)
(0.73987996 0.00020077709 0)
(0.73982392 0.00016510422 0)
(0.73977692 0.00013371898 0)
(0.73973807 0.00010638321 0)
(0.73970648 8.2913454e-05 0)
(0.73968127 6.313276e-05 0)
(0.73966159 4.683109e-05 0)
(0.73964659 3.3740562e-05 0)
(0.73963546 2.3530529e-05 0)
(0.73962744 1.5818975e-05 0)
(0.73962185 1.0196298e-05 0)
(0.7396181 6.2523428e-06 0)
(0.73961568 3.6024299e-06 0)
(0.73961419 1.9073133e-06 0)
(0.73961334 8.8413755e-07 0)
(0.73961288 3.1116695e-07 0)
(0.73961266 2.36536e-08 0)
(0.73961258 -9.6936762e-08 0)
(0.73961256 -1.2841468e-07 0)
(0.73961258 -1.1721595e-07 0)
(0.73961261 -9.0840313e-08 0)
(0.73961263 -6.3328988e-08 0)
(0.73961265 -4.0471963e-08 0)
(0.73961266 -2.3807426e-08 0)
(0.73961267 -1.2695223e-08 0)
(0.73961268 -5.911908e-09 0)
(0.73961268 -2.0683633e-09 0)
(0.73961268 -1.3635337e-10 0)
(0.73961268 7.2084133e-10 0)
(0.73961268 9.6488986e-10 0)
(0.73961268 9.5979734e-10 0)
(0.73961268 8.1416901e-10 0)
(0.73961268 6.7671428e-10 0)
(0.73961268 5.1734809e-10 0)
(0.73961268 4.0500516e-10 0)
(0.73961268 2.8548635e-10 0)
(0.73961268 2.1215041e-10 0)
(0.73961268 1.2280315e-10 0)
(0.73961268 6.2387174e-11 0)
(0.73961268 -1.3114818e-11 0)
(0.73961268 -5.6432728e-11 0)
(0.73961268 -1.2185492e-10 0)
(0.73961268 -1.5549024e-10 0)
(0.73961268 -2.0916562e-10 0)
(0.73961268 -2.2222298e-10 0)
(0.73961268 -2.5515194e-10 0)
(0.73961268 -2.5109537e-10 0)
(0.73961268 -2.6342288e-10 0)
(0.73961268 -2.3198216e-10 0)
(0.73961268 -2.1861151e-10 0)
(0.73961268 -1.699641e-10 0)
(0.73961268 -1.3824552e-10 0)
(0.73961268 -6.7971109e-11 0)
(0.73961268 -2.0510858e-11 0)
(0.73961268 4.7045065e-11 0)
(0.73961268 8.4788673e-11 0)
(0.73961268 1.4990103e-10 0)
(0.73961268 1.7712377e-10 0)
(0.73961268 2.2152141e-10 0)
(0.73961268 2.2563642e-10 0)
(0.73961268 2.5319689e-10 0)
(0.73961268 2.3881649e-10 0)
(0.73961268 2.454813e-10 0)
(0.73961268 2.1345335e-10 0)
(0.73961268 2.1947235e-10 0)
(0.73961268 1.8571023e-10 0)
(0.73961268 2.0528939e-10 0)
(0.73961268 1.7780634e-10 0)
(0.73961268 2.5912539e-10 0)
(0.73961268 2.6602221e-10 0)
(0.73961268 4.8520017e-10 0)
(0.73961268 5.7486293e-10 0)
(0.73961268 1.1790628e-09 0)
(0.73961268 1.6756993e-09 0)
(0.73961268 3.2568813e-09 0)
(0.73961268 4.7806911e-09 0)
(0.73961267 8.3594272e-09 0)
(0.73961269 1.2434184e-08 0)
(0.73961265 1.9788278e-08 0)
(0.7396127 2.6917876e-08 0)
(0.85171574 0.00022688364 0)
(0.85440076 0.0011600569 0)
(0.8546959 0.0017732855 0)
(0.85480488 0.0018912544 0)
(0.85542764 0.0017456144 0)
(0.85628194 0.0015628317 0)
(0.85703212 0.0014165265 0)
(0.85759531 0.0012909226 0)
(0.85803118 0.0011650418 0)
(0.8584001 0.0010381153 0)
(0.85872317 0.00091821097 0)
(0.85900149 0.00081018411 0)
(0.85923636 0.00071395489 0)
(0.85943365 0.00062764828 0)
(0.85960031 0.00054979243 0)
(0.85974176 0.00047956714 0)
(0.85986169 0.00041635152 0)
(0.8599629 0.00035948538 0)
(0.86004777 0.00030830207 0)
(0.86011845 0.00026222404 0)
(0.86017674 0.00022079839 0)
(0.86022423 0.00018368984 0)
(0.86026229 0.00015065829 0)
(0.86029222 0.00012153637 0)
(0.86031523 9.6198478e-05 0)
(0.86033245 7.4524573e-05 0)
(0.86034495 5.6363596e-05 0)
(0.86035373 4.1507073e-05 0)
(0.86035963 2.9678313e-05 0)
(0.86036343 2.0537429e-05 0)
(0.86036572 1.37005e-05 0)
(0.860367 8.7648984e-06 0)
(0.86036764 5.337322e-06 0)
(0.86036788 3.0570228e-06 0)
(0.86036792 1.612125e-06 0)
(0.86036786 7.4802466e-07 0)
(0.86036777 2.6867499e-07 0)
(0.86036768 2.9072146e-08 0)
(0.86036761 -7.0466423e-08 0)
(0.86036755 -9.6691771e-08 0)
(0.86036751 -8.852507e-08 0)
(0.86036749 -6.8415196e-08 0)
(0.86036748 -4.7264324e-08 0)
(0.86036747 -2.9939459e-08 0)
(0.86036747 -1.728563e-08 0)
(0.86036747 -9.0709713e-09 0)
(0.86036747 -3.9966342e-09 0)
(0.86036747 -1.2961867e-09 0)
(0.86036747 1.2590303e-10 0)
(0.86036747 6.1112129e-10 0)
(0.86036747 8.1903827e-10 0)
(0.86036747 7.0068988e-10 0)
(0.86036747 6.4708248e-10 0)
(0.86036747 4.4565239e-10 0)
(0.86036747 3.9438348e-10 0)
(0.86036747 2.2623494e-10 0)
(0.86036747 2.1278414e-10 0)
(0.86036747 7.6343942e-11 0)
(0.86036747 8.4653998e-11 0)
(0.86036747 -2.9609512e-11 0)
(0.86036747 -7.675716e-12 0)
(0.86036747 -1.1646169e-10 0)
(0.86036747 -8.6058896e-11 0)
(0.86036747 -1.8438064e-10 0)
(0.86036747 -1.4278468e-10 0)
(0.86036747 -2.2914173e-10 0)
(0.86036747 -1.6957979e-10 0)
(0.86036747 -2.3475448e-10 0)
(0.86036747 -1.5538396e-10 0)
(0.86036747 -2.0283992e-10 0)
(0.86036747 -1.0296863e-10 0)
(0.86036747 -1.3192339e-10 0)
(0.86036747 -2.2330407e-11 0)
(0.86036747 -4.1611402e-11 0)
(0.86036747 7.0782909e-11 0)
(0.86036747 5.0156593e-11 0)
(0.86036747 1.586872e-10 0)
(0.86036747 1.2490217e-10 0)
(0.86036747 2.1958261e-10 0)
(0.86036747 1.6945034e-10 0)
(0.86036747 2.4555452e-10 0)
(0.86036747 1.7568399e-10 0)
(0.86036747 2.3987928e-10 0)
(0.86036747 1.6171811e-10 0)
(0.86036747 2.2625998e-10 0)
(0.86036747 1.4836412e-10 0)
(0.86036747 2.3647992e-10 0)
(0.86036747 1.7584445e-10 0)
(0.86036747 3.2232624e-10 0)
(0.86036747 2.9819141e-10 0)
(0.86036747 5.7556883e-10 0)
(0.86036747 6.6327675e-10 0)
(0.86036747 1.3179597e-09 0)
(0.86036747 1.818473e-09 0)
(0.86036747 3.2398946e-09 0)
(0.86036748 4.5032451e-09 0)
(0.86036746 7.1109095e-09 0)
(0.86036749 1.0149079e-08 0)
(0.86036745 1.4674005e-08 0)
(0.86036751 1.9310242e-08 0)
(0.90156194 7.5040862e-05 0)
(0.90456552 0.00040148662 0)
(0.90502753 0.00062938144 0)
(0.90533295 0.00068497766 0)
(0.9062742 0.00064228509 0)
(0.90753455 0.00058269592 0)
(0.90870848 0.00053514766 0)
(0.90967614 0.00049454062 0)
(0.91049302 0.00045268137 0)
(0.91122366 0.00040893468 0)
(0.91188881 0.00036641124 0)
(0.91248591 0.0003272245 0)
(0.91301348 0.00029159957 0)
(0.91347679 0.00025900821 0)
(0.91388352 0.00022904226 0)
(0.9142402 0.00020153213 0)
(0.91455169 0.00017637194 0)
(0.91482206 0.0001534192 0)
(0.91505511 0.00013250566 0)
(0.91525445 0.00011347641 0)
(0.91542339 9.6207651e-05 0)
(0.91556501 8.0607321e-05 0)
(0.91568214 6.6609971e-05 0)
(0.91577753 5.4171605e-05 0)
(0.91585382 4.3260439e-05 0)
(0.91591362 3.3844838e-05 0)
(0.91595943 2.587944e-05 0)
(0.91599363 1.9294575e-05 0)
(0.91601846 1.3990683e-05 0)
(0.91603594 9.8393423e-06 0)
(0.91604781 6.6900003e-06 0)
(0.91605557 4.3800389e-06 0)
(0.91606042 2.7465757e-06 0)
(0.91606328 1.6364677e-06 0)
(0.91606485 9.1476597e-07 0)
(0.91606563 4.6862131e-07 0)
(0.91606596 2.0890246e-07 0)
(0.91606604 6.9529111e-08 0)
(0.91606601 3.7336864e-09 0)
(0.91606594 -2.2098314e-08 0)
(0.91606587 -2.7402722e-08 0)
(0.91606581 -2.3783117e-08 0)
(0.91606577 -1.747162e-08 0)
(0.91606574 -1.1450072e-08 0)
(0.91606572 -6.7515879e-09 0)
(0.91606571 -3.5473887e-09 0)
(0.91606571 -1.5404218e-09 0)
(0.91606571 -4.4686766e-10 0)
(0.91606571 1.1351481e-10 0)
(0.91606571 3.0766274e-10 0)
(0.91606571 3.6261487e-10 0)
(0.91606571 3.1346602e-10 0)
(0.91606571 2.5716836e-10 0)
(0.91606571 1.7653122e-10 0)
(0.91606571 1.3493364e-10 0)
(0.91606571 7.0175276e-11 0)
(0.91606571 4.5775854e-11 0)
(0.91606571 -3.3022932e-12 0)
(0.91606571 -3.0885284e-12 0)
(0.91606571 -4.4783597e-11 0)
(0.91606571 -4.987384e-11 0)
(0.91606571 -8.3627484e-11 0)
(0.91606571 -7.9943849e-11 0)
(0.91606571 -1.1019998e-10 0)
(0.91606571 -1.073801e-10 0)
(0.9160657 -1.3008373e-10 0)
(0.91606571 -1.0816658e-10 0)
(0.9160657 -1.1679906e-10 0)
(0.91606571 -8.8664069e-11 0)
(0.9160657 -8.6313069e-11 0)
(0.91606571 -3.8013166e-11 0)
(0.9160657 -2.8480243e-11 0)
(0.91606571 1.5982889e-11 0)
(0.9160657 2.3263514e-11 0)
(0.91606571 7.480631e-11 0)
(0.9160657 8.5761327e-11 0)
(0.91606571 1.2038433e-10 0)
(0.9160657 1.1874076e-10 0)
(0.91606571 1.4779456e-10 0)
(0.9160657 1.3336691e-10 0)
(0.91606571 1.4275117e-10 0)
(0.91606571 1.1802035e-10 0)
(0.91606571 1.2994e-10 0)
(0.91606571 1.0651595e-10 0)
(0.91606571 1.2008501e-10 0)
(0.91606571 1.0976706e-10 0)
(0.91606571 1.575278e-10 0)
(0.91606571 1.7636426e-10 0)
(0.91606571 2.5990771e-10 0)
(0.91606571 3.2238561e-10 0)
(0.91606571 4.9522401e-10 0)
(0.91606571 6.8553673e-10 0)
(0.91606571 1.10312e-09 0)
(0.91606571 1.5472853e-09 0)
(0.91606571 2.3020078e-09 0)
(0.91606572 2.8977527e-09 0)
(0.9160657 3.9629118e-09 0)
(0.91606573 5.0042807e-09 0)
(0.91606569 6.5130689e-09 0)
(0.91606576 8.2208871e-09 0)
(0.90156177 -7.5039416e-05 0)
(0.9045654 -0.00040148956 0)
(0.90502739 -0.00062940333 0)
(0.90533277 -0.0006850148 0)
(0.90627404 -0.00064231486 0)
(0.90753441 -0.00058271074 0)
(0.90870835 -0.00053515551 0)
(0.909676 -0.0004945521 0)
(0.91049289 -0.00045269361 0)
(0.91122353 -0.00040894266 0)
(0.91188869 -0.00036641125 0)
(0.91248579 -0.00032721956 0)
(0.91301337 -0.00029159163 0)
(0.91347668 -0.00025899998 0)
(0.91388342 -0.00022903381 0)
(0.9142401 -0.00020152504 0)
(0.91455159 -0.00017636635 0)
(0.91482197 -0.00015341631 0)
(0.91505502 -0.00013250475 0)
(0.91525436 -0.00011347713 0)
(0.91542331 -9.6208217e-05 0)
(0.91556493 -8.0606586e-05 0)
(0.91568207 -6.6606272e-05 0)
(0.91577746 -5.4163877e-05 0)
(0.91585376 -4.3247661e-05 0)
(0.91591356 -3.3826455e-05 0)
(0.91595937 -2.5855338e-05 0)
(0.91599357 -1.9264757e-05 0)
(0.91601841 -1.3955724e-05 0)
(0.91603589 -9.7997679e-06 0)
(0.91604777 -6.6469716e-06 0)
(0.91605553 -4.3345812e-06 0)
(0.91606038 -2.7002775e-06 0)
(0.91606325 -1.5906502e-06 0)
(0.91606483 -8.7099076e-07 0)
(0.91606561 -4.2785515e-07 0)
(0.91606594 -1.7282177e-07 0)
(0.91606603 -3.80252e-08 0)
(0.916066 2.2836905e-08 0)
(0.91606593 4.4045144e-08 0)
(0.91606587 4.4663325e-08 0)
(0.91606581 3.7183732e-08 0)
(0.91606577 2.7294069e-08 0)
(0.91606574 1.865622e-08 0)
(0.91606573 1.1620006e-08 0)
(0.91606572 6.9706648e-09 0)
(0.91606571 3.6337465e-09 0)
(0.91606571 1.8906585e-09 0)
(0.91606571 6.025258e-10 0)
(0.91606571 2.3174556e-10 0)
(0.91606571 -2.0985401e-10 0)
(0.91606571 -1.3096983e-10 0)
(0.91606571 -3.4106871e-10 0)
(0.91606571 -1.3597714e-10 0)
(0.91606571 -2.9369566e-10 0)
(0.91606571 -8.1686728e-11 0)
(0.91606571 -2.5163878e-10 0)
(0.91606571 -3.4867153e-11 0)
(0.91606571 -2.0559792e-10 0)
(0.91606571 -3.8851147e-12 0)
(0.91606571 -1.8873459e-10 0)
(0.91606571 1.9000445e-11 0)
(0.91606571 -1.5816385e-10 0)
(0.91606571 4.2713401e-11 0)
(0.91606571 -1.4225012e-10 0)
(0.91606571 6.9223076e-11 0)
(0.91606571 -1.0820107e-10 0)
(0.91606571 9.5066112e-11 0)
(0.91606571 -8.9316336e-11 0)
(0.91606571 1.2725689e-10 0)
(0.91606571 -4.6510416e-11 0)
(0.91606571 1.6050192e-10 0)
(0.91606571 -2.1162372e-11 0)
(0.91606571 1.9068893e-10 0)
(0.91606571 9.7433315e-12 0)
(0.91606571 1.9957552e-10 0)
(0.91606571 -4.7923011e-12 0)
(0.91606571 1.8118588e-10 0)
(0.91606571 -2.6344359e-11 0)
(0.91606571 1.4432993e-10 0)
(0.91606571 -7.4588636e-11 0)
(0.91606571 1.0978801e-10 0)
(0.91606571 -9.3064656e-11 0)
(0.91606571 9.6326285e-11 0)
(0.91606571 -9.7827307e-11 0)
(0.91606571 1.2513948e-10 0)
(0.91606571 -3.6359681e-11 0)
(0.91606571 2.1573855e-10 0)
(0.91606571 7.5438358e-11 0)
(0.91606572 3.760853e-10 0)
(0.91606571 2.8158636e-10 0)
(0.91606572 6.7578224e-10 0)
(0.91606571 6.0336886e-10 0)
(0.91606572 1.0208463e-09 0)
(0.91606571 7.0108194e-10 0)
(0.91606573 6.0529756e-10 0)
(0.91606571 -1.4345703e-10 0)
(0.91606574 -1.3043366e-09 0)
(0.9160657 -2.7808456e-09 0)
(0.91606577 -4.1391486e-09 0)
(0.85171544 -0.00022688183 0)
(0.85440041 -0.0011600611 0)
(0.85469556 -0.0017733017 0)
(0.85480454 -0.001891277 0)
(0.85542733 -0.0017456361 0)
(0.85628161 -0.0015628504 0)
(0.85703179 -0.0014165456 0)
(0.85759497 -0.0012909413 0)
(0.85803086 -0.0011650584 0)
(0.85839978 -0.0010381267 0)
(0.85872287 -0.00091821792 0)
(0.85900119 -0.00081018699 0)
(0.85923608 -0.00071395584 0)
(0.85943337 -0.0006276478 0)
(0.85960005 -0.00054979197 0)
(0.8597415 -0.00047956705 0)
(0.85986145 -0.00041635304 0)
(0.85996265 -0.00035948843 0)
(0.86004754 -0.0003083068 0)
(0.86011822 -0.00026222935 0)
(0.86017653 -0.0002208034 0)
(0.86022402 -0.00018369306 0)
(0.86026209 -0.00015065859 0)
(0.86029203 -0.00012153263 0)
(0.86031504 -9.6189989e-05 0)
(0.86033227 -7.451097e-05 0)
(0.86034478 -5.6344726e-05 0)
(0.86035357 -4.1483271e-05 0)
(0.86035949 -2.9649893e-05 0)
(0.8603633 -2.0505246e-05 0)
(0.8603656 -1.36653e-05 0)
(0.8603669 -8.7279651e-06 0)
(0.86036754 -5.299734e-06 0)
(0.86036781 -3.020114e-06 0)
(0.86036786 -1.5769129e-06 0)
(0.86036782 -7.1593128e-07 0)
(0.86036773 -2.4013708e-07 0)
(0.86036766 -5.2331704e-09 0)
(0.86036759 9.0690604e-08 0)
(0.86036755 1.129428e-07 0)
(0.86036751 1.0130409e-07 0)
(0.8603675 7.7934311e-08 0)
(0.86036749 5.4278769e-08 0)
(0.86036749 3.4735942e-08 0)
(0.86036748 2.0612782e-08 0)
(0.86036748 1.1117654e-08 0)
(0.86036748 5.3540257e-09 0)
(0.86036749 1.9745356e-09 0)
(0.86036748 3.1827703e-10 0)
(0.86036749 -4.9372743e-10 0)
(0.86036749 -7.0731526e-10 0)
(0.86036749 -7.9511591e-10 0)
(0.86036749 -6.5936138e-10 0)
(0.86036749 -6.0071675e-10 0)
(0.86036749 -4.390993e-10 0)
(0.86036749 -4.1100017e-10 0)
(0.86036749 -2.7498894e-10 0)
(0.86036749 -2.5952571e-10 0)
(0.86036749 -1.4921416e-10 0)
(0.86036749 -1.6717952e-10 0)
(0.86036749 -6.5398964e-11 0)
(0.86036749 -7.958018e-11 0)
(0.86036748 1.0608167e-11 0)
(0.86036749 -2.8344546e-11 0)
(0.86036748 5.6023476e-11 0)
(0.86036749 2.9405976e-11 0)
(0.86036748 1.0506659e-10 0)
(0.86036749 5.4326525e-11 0)
(0.86036748 1.2786207e-10 0)
(0.86036749 9.0018503e-11 0)
(0.86036748 1.5368824e-10 0)
(0.86036749 9.1382201e-11 0)
(0.86036748 1.4926841e-10 0)
(0.86036749 8.8290783e-11 0)
(0.86036748 1.2794396e-10 0)
(0.86036749 3.7049705e-11 0)
(0.86036748 6.9286327e-11 0)
(0.86036749 -1.0042603e-11 0)
(0.86036748 1.7071247e-11 0)
(0.86036749 -7.4906598e-11 0)
(0.86036748 -3.92406e-11 0)
(0.86036749 -1.0477726e-10 0)
(0.86036748 -5.4777184e-11 0)
(0.86036749 -1.1500438e-10 0)
(0.86036749 -4.367188e-11 0)
(0.86036749 -5.9641592e-11 0)
(0.86036749 2.7030521e-11 0)
(0.86036749 3.1607862e-11 0)
(0.86036749 1.303264e-10 0)
(0.86036749 1.9570513e-10 0)
(0.86036749 2.8008399e-10 0)
(0.86036749 3.629003e-10 0)
(0.86036749 2.7003368e-10 0)
(0.86036749 1.3357047e-10 0)
(0.86036749 -7.2181023e-10 0)
(0.8603675 -1.6861721e-09 0)
(0.86036748 -3.9944597e-09 0)
(0.86036751 -7.1245473e-09 0)
(0.86036747 -1.1584608e-08 0)
(0.86036754 -1.6058816e-08 0)
(0.74072513 -0.0003731656 0)
(0.74268778 -0.0017289057 0)
(0.74250142 -0.0024926269 0)
(0.74206022 -0.0025276412 0)
(0.7419439 -0.0022332249 0)
(0.74196346 -0.0019250536 0)
(0.74190745 -0.0016858073 0)
(0.74174618 -0.001486595 0)
(0.74153653 -0.0012998739 0)
(0.74132474 -0.0011245709 0)
(0.74112571 -0.00096858301 0)
(0.74093952 -0.00083486665 0)
(0.7407654 -0.00072080542 0)
(0.74060473 -0.00062238283 0)
(0.74045901 -0.00053660012 0)
(0.74032867 -0.00046152402 0)
(0.74021313 -0.00039567611 0)
(0.74011145 -0.00033772365 0)
(0.74002262 -0.00028650337 0)
(0.73994568 -0.00024108577 0)
(0.73987967 -0.00020078447 0)
(0.73982364 -0.00016510952 0)
(0.73977666 -0.00013372156 0)
(0.73973782 -0.00010638226 0)
(0.73970624 -8.2908663e-05 0)
(0.73968105 -6.3124092e-05 0)
(0.73966138 -4.681859e-05 0)
(0.73964639 -3.3724788e-05 0)
(0.73963528 -2.3511748e-05 0)
(0.73962728 -1.5798106e-05 0)
(0.73962171 -1.0173788e-05 0)
(0.73961798 -6.2292621e-06 0)
(0.73961558 -3.5793324e-06 0)
(0.73961411 -1.8851462e-06 0)
(0.73961327 -8.6353262e-07 0)
(0.73961283 -2.9286649e-07 0)
(0.73961263 -7.1672615e-09 0)
(0.73961256 1.1085161e-07 0)
(0.73961256 1.3946728e-07 0)
(0.73961258 1.255359e-07 0)
(0.73961262 9.7231089e-08 0)
(0.73961264 6.7731634e-08 0)
(0.73961267 4.3645373e-08 0)
(0.73961268 2.5680349e-08 0)
(0.73961269 1.4001925e-08 0)
(0.7396127 6.4606347e-09 0)
(0.73961271 2.4755226e-09 0)
(0.73961271 1.1293792e-10 0)
(0.73961271 -6.284348e-10 0)
(0.73961271 -1.1551769e-09 0)
(0.73961271 -9.7379815e-10 0)
(0.73961271 -1.0592258e-09 0)
(0.73961271 -6.9666124e-10 0)
(0.73961271 -7.536111e-10 0)
(0.73961271 -4.316047e-10 0)
(0.73961271 -5.3304205e-10 0)
(0.73961271 -2.2917261e-10 0)
(0.73961271 -3.5962597e-10 0)
(0.73961271 -9.3026416e-11 0)
(0.73961271 -2.4247998e-10 0)
(0.73961271 3.2581783e-11 0)
(0.7396127 -1.2741898e-10 0)
(0.73961271 1.1974748e-10 0)
(0.7396127 -5.3152164e-11 0)
(0.73961271 2.0010265e-10 0)
(0.7396127 1.4914634e-11 0)
(0.7396127 2.4226564e-10 0)
(0.7396127 4.4894987e-11 0)
(0.7396127 2.7905341e-10 0)
(0.7396127 6.9793658e-11 0)
(0.7396127 2.6996196e-10 0)
(0.7396127 4.367008e-11 0)
(0.7396127 2.4268125e-10 0)
(0.7396127 2.6215511e-12 0)
(0.73961271 1.7026589e-10 0)
(0.7396127 -8.1613027e-11 0)
(0.73961271 1.0110172e-10 0)
(0.7396127 -1.4744184e-10 0)
(0.73961271 2.3234078e-11 0)
(0.7396127 -2.184053e-10 0)
(0.73961271 -1.4689892e-11 0)
(0.7396127 -2.3832528e-10 0)
(0.73961271 -3.2262751e-11 0)
(0.73961271 -2.3307171e-10 0)
(0.73961271 1.2144589e-11 0)
(0.73961271 -1.5673029e-10 0)
(0.73961271 8.715493e-11 0)
(0.73961271 -5.1958798e-11 0)
(0.73961271 2.0359391e-10 0)
(0.73961271 9.9413537e-11 0)
(0.73961271 2.7448696e-10 0)
(0.73961271 1.2715161e-10 0)
(0.73961271 3.6578489e-12 0)
(0.73961271 -5.1773943e-10 0)
(0.73961271 -1.598962e-09 0)
(0.73961271 -2.9452299e-09 0)
(0.7396127 -6.4172157e-09 0)
(0.73961272 -1.0515887e-08 0)
(0.73961268 -1.7872699e-08 0)
(0.73961274 -2.5065234e-08 0)
(0.54592134 -0.00046873179 0)
(0.54660544 -0.0018114004 0)
(0.54547785 -0.002320548 0)
(0.54410494 -0.0020946903 0)
(0.54299588 -0.0016554093 0)
(0.54208341 -0.0012977387 0)
(0.54125578 -0.0010550504 0)
(0.54049109 -0.00087540892 0)
(0.53980704 -0.00072543505 0)
(0.53921305 -0.00059903148 0)
(0.53870283 -0.00049705533 0)
(0.538264 -0.00041676542 0)
(0.53788536 -0.00035271414 0)
(0.53755851 -0.00030005081 0)
(0.53727685 -0.00025570223 0)
(0.5370347 -0.00021786721 0)
(0.53682707 -0.00018530191 0)
(0.53664967 -0.00015701395 0)
(0.53649889 -0.00013222432 0)
(0.53637164 -0.00011037358 0)
(0.53626525 -9.1084613e-05 0)
(0.53617733 -7.4110406e-05 0)
(0.53610568 -5.9287404e-05 0)
(0.53604826 -4.6500951e-05 0)
(0.53600312 -3.5655431e-05 0)
(0.53596841 -2.6648431e-05 0)
(0.53594238 -1.935327e-05 0)
(0.53592339 -1.361054e-05 0)
(0.53590996 -9.2315896e-06 0)
(0.5359008 -6.007113e-06 0)
(0.53589478 -3.7222294e-06 0)
(0.53589101 -2.1701105e-06 0)
(0.53588878 -1.1657775e-06 0)
(0.53588756 -5.5191083e-07 0)
(0.53588696 -2.0305912e-07 0)
(0.53588672 -2.2350762e-08 0)
(0.53588667 5.85049e-08 0)
(0.53588671 8.1943642e-08 0)
(0.53588678 7.6421905e-08 0)
(0.53588685 6.0343922e-08 0)
(0.53588691 4.2627124e-08 0)
(0.53588695 2.7746779e-08 0)
(0.53588697 1.6483436e-08 0)
(0.53588699 9.0439397e-09 0)
(0.535887 4.2166207e-09 0)
(0.53588701 1.6063075e-09 0)
(0.53588701 5.4945476e-11 0)
(0.53588701 -4.8114816e-10 0)
(0.53588701 -8.2697587e-10 0)
(0.53588701 -7.4688418e-10 0)
(0.53588701 -7.8985542e-10 0)
(0.53588701 -5.7111719e-10 0)
(0.53588701 -5.8212228e-10 0)
(0.53588701 -3.8994946e-10 0)
(0.53588701 -4.3018773e-10 0)
(0.53588701 -2.3886299e-10 0)
(0.53588701 -2.9064996e-10 0)
(0.53588701 -1.2697308e-10 0)
(0.53588701 -1.9316523e-10 0)
(0.535887 -1.7842287e-11 0)
(0.53588701 -8.7533272e-11 0)
(0.535887 6.563501e-11 0)
(0.53588701 -1.7001501e-11 0)
(0.535887 1.463948e-10 0)
(0.535887 5.6100137e-11 0)
(0.535887 1.8582108e-10 0)
(0.535887 7.5822584e-11 0)
(0.535887 2.1107542e-10 0)
(0.535887 9.031739e-11 0)
(0.535887 1.9074217e-10 0)
(0.53588701 5.1724899e-11 0)
(0.535887 1.5703041e-10 0)
(0.53588701 1.2756717e-11 0)
(0.535887 9.4029219e-11 0)
(0.53588701 -5.817457e-11 0)
(0.535887 3.929132e-11 0)
(0.53588701 -1.070598e-10 0)
(0.535887 -2.3058503e-11 0)
(0.53588701 -1.6696363e-10 0)
(0.535887 -5.2576948e-11 0)
(0.53588701 -1.7539574e-10 0)
(0.535887 -5.9880253e-11 0)
(0.53588701 -1.7339574e-10 0)
(0.53588701 -2.2403638e-11 0)
(0.53588701 -1.131261e-10 0)
(0.53588701 3.8856699e-11 0)
(0.53588701 -4.7387431e-11 0)
(0.53588701 1.3737778e-10 0)
(0.53588701 4.9715324e-11 0)
(0.53588701 2.2307405e-10 0)
(0.53588701 5.917998e-11 0)
(0.53588701 1.6689558e-10 0)
(0.53588701 -3.2539964e-10 0)
(0.53588701 -5.8804467e-10 0)
(0.53588701 -1.7599304e-09 0)
(0.53588701 -2.8334837e-09 0)
(0.535887 -6.3967803e-09 0)
(0.535887 -9.8129208e-09 0)
(0.53588697 -1.8957602e-08 0)
(0.535887 -2.6638746e-08 0)
(0.23401037 -0.00035791894 0)
(0.23322496 -0.00095310402 0)
(0.23156391 -0.00096735017 0)
(0.23003562 -0.00068890343 0)
(0.22890278 -0.00043331453 0)
(0.22807778 -0.0002878977 0)
(0.22743784 -0.00021395412 0)
(0.22691609 -0.00016726309 0)
(0.22648584 -0.00013101811 0)
(0.22613229 -0.00010325547 0)
(0.225841 -8.3539039e-05 0)
(0.2255982 -6.9715151e-05 0)
(0.22539316 -5.9345289e-05 0)
(0.22521854 -5.0894382e-05 0)
(0.22506929 -4.369052e-05 0)
(0.22494167 -3.7461352e-05 0)
(0.22483267 -3.2028074e-05 0)
(0.22473982 -2.7238084e-05 0)
(0.22466113 -2.2975178e-05 0)
(0.22459492 -1.9168889e-05 0)
(0.22453977 -1.5778825e-05 0)
(0.2244944 -1.2782256e-05 0)
(0.22445764 -1.0163439e-05 0)
(0.2244284 -7.9101712e-06 0)
(0.2244056 -6.009116e-06 0)
(0.22438825 -4.442608e-06 0)
(0.22437539 -3.1865958e-06 0)
(0.22436614 -2.2097775e-06 0)
(0.2243597 -1.4757534e-06 0)
(0.22435538 -9.4405254e-07 0)
(0.22435262 -5.7417499e-07 0)
(0.22435093 -3.2748594e-07 0)
(0.22434998 -1.7138275e-07 0)
(0.22434949 -7.8101996e-08 0)
(0.22434927 -2.650589e-08 0)
(0.22434921 -1.2323093e-10 0)
(0.22434922 1.2813945e-08 0)
(0.22434926 1.5771606e-08 0)
(0.22434931 1.3767177e-08 0)
(0.22434935 1.05364e-08 0)
(0.22434938 7.0828655e-09 0)
(0.2243494 4.5264947e-09 0)
(0.22434941 2.4844158e-09 0)
(0.22434942 1.3700421e-09 0)
(0.22434942 4.7397964e-10 0)
(0.22434942 1.9003933e-10 0)
(0.22434942 -1.6810466e-10 0)
(0.22434942 -1.2307855e-10 0)
(0.22434942 -2.9591419e-10 0)
(0.22434942 -1.6304677e-10 0)
(0.22434942 -2.7456915e-10 0)
(0.22434942 -1.1283691e-10 0)
(0.22434942 -2.3117699e-10 0)
(0.22434942 -7.7062196e-11 0)
(0.22434942 -1.8596553e-10 0)
(0.22434942 -2.1481701e-11 0)
(0.22434942 -1.440834e-10 0)
(0.22434942 1.1812152e-11 0)
(0.22434942 -1.0083304e-10 0)
(0.22434942 6.2068292e-11 0)
(0.22434942 -6.6841331e-11 0)
(0.22434942 8.3592808e-11 0)
(0.22434942 -3.7739445e-11 0)
(0.22434942 1.1304874e-10 0)
(0.22434942 -2.5891236e-11 0)
(0.22434942 1.1356765e-10 0)
(0.22434942 -2.131506e-11 0)
(0.22434942 1.2054963e-10 0)
(0.22434942 -3.2506319e-11 0)
(0.22434942 9.6773888e-11 0)
(0.22434942 -4.8560915e-11 0)
(0.22434942 8.585244e-11 0)
(0.22434942 -7.3070287e-11 0)
(0.22434942 5.4752732e-11 0)
(0.22434942 -8.8767123e-11 0)
(0.22434942 4.6784137e-11 0)
(0.22434942 -1.0576877e-10 0)
(0.22434942 2.6529718e-11 0)
(0.22434942 -1.0867441e-10 0)
(0.22434942 3.6237875e-11 0)
(0.22434942 -1.0727407e-10 0)
(0.22434942 3.6170403e-11 0)
(0.22434942 -9.2384163e-11 0)
(0.22434942 6.2311368e-11 0)
(0.22434942 -7.4277011e-11 0)
(0.22434942 7.6083184e-11 0)
(0.22434942 -4.6991401e-11 0)
(0.22434942 1.11107e-10 0)
(0.22434942 -2.5074969e-11 0)
(0.22434942 1.2569049e-10 0)
(0.22434942 -3.7548916e-11 0)
(0.22434942 5.552101e-11 0)
(0.22434942 -2.8832953e-10 0)
(0.22434942 -3.4762177e-10 0)
(0.22434942 -9.2164533e-10 0)
(0.22434942 -1.5423112e-09 0)
(0.22434941 -3.2187268e-09 0)