/*--------------------------------*- C++ -*----------------------------------*\
| =========                 |                                                 |
| \\      /  F ield         | OpenFOAM: The Open Source CFD Toolbox           |
|  \\    /   O peration     | Version:  v1812                                 |
|   \\  /    A nd           | Web:      www.OpenFOAM.com                      |
|    \\/     M anipulation  |                                                 |
\*---------------------------------------------------------------------------*/
FoamFile
{
    version     2.0;
    format      ascii;
    class       surfaceScalarField;
    location    "14";
    object      phi;
}
// * * * * * * * * * * * * * * * * * * * * * * * * * * * * * * * * * * * * * //

dimensions      [0 3 -1 0 0 0 0];
oriented        oriented;


internalField   nonuniform List<scalar> 
1890
(
0.0093061958
0.00069380425
0.0082843931
0.0010218027
0.0073298986
0.00095449447
0.0064869552
0.00084294332
0.0057695844
0.00071737079
0.00518986
0.00057972444
0.004738168
0.00045169206
0.00439519
0.00034297802
0.0041390268
0.00025616318
0.003949107
0.00018991983
0.003807888
0.00014121897
0.0037013782
0.0001065098
0.003619058
8.232022e-05
0.0035534117
6.5646243e-05
0.0034992845
5.4127249e-05
0.0034532444
4.6040041e-05
0.0034130501
4.0194288e-05
0.0033772574
3.5792756e-05
0.0033449386
3.2318764e-05
0.0033154893
2.9449287e-05
0.0032885008
2.6988584e-05
0.0032636805
2.4820304e-05
0.003240805
2.2875479e-05
0.0032196926
2.1112413e-05
0.0032001879
1.9504649e-05
0.0031821539
1.803401e-05
0.0031654671
1.6686726e-05
0.0031500158
1.5451366e-05
0.0031356979
1.4317871e-05
0.0031224208
1.3277078e-05
0.0031101003
1.2320598e-05
0.0030986596
1.1440723e-05
0.0030880291
1.0630433e-05
0.0030781458
9.883361e-06
0.003068952
9.1937647e-06
0.0030603955
8.5564897e-06
0.0030524285
7.9669144e-06
0.0030450076
7.4209047e-06
0.0030380929
6.9147537e-06
0.0030316478
6.4451325e-06
0.0030256387
6.0090626e-06
0.0030200349
5.6038476e-06
0.0030148078
5.2270692e-06
0.0030099313
4.876529e-06
0.0030053811
4.5502381e-06
0.0030011347
4.2463924e-06
0.0029971713
3.9633343e-06
0.0029934717
3.6995649e-06
0.002990018
3.453693e-06
0.0029867936
3.2244382e-06
0.002983783
3.0106346e-06
0.0029809718
2.8111837e-06
0.0029783468
2.6250908e-06
0.0029758953
2.4514285e-06
0.002973606
2.2893371e-06
0.0029714679
2.1380413e-06
0.0029694711
1.9968e-06
0.0029676061
1.8649594e-06
0.0029658642
1.7418792e-06
0.0029642372
1.626969e-06
0.0029627176
1.5196795e-06
0.0029612981
1.4194827e-06
0.0029599723
1.3259036e-06
0.0029587338
1.2384894e-06
0.002957577
1.1568279e-06
0.0029564964
1.0805512e-06
0.002955487
1.0093051e-06
0.0029545442
9.4277272e-07
0.0029536635
8.8066292e-07
0.0029528408
8.2266296e-07
0.0029520724
7.6851058e-07
0.0029513545
7.1792221e-07
0.002950684
6.706438e-07
0.0029500576
6.2645042e-07
0.0029494724
5.8514073e-07
0.0029489258
5.4653376e-07
0.0029484153
5.1048982e-07
0.0029479383
4.768278e-07
0.0029474928
4.4544629e-07
0.0029470767
4.161413e-07
0.0029466879
3.8880768e-07
0.0029463248
3.6323113e-07
0.0029459856
3.393367e-07
0.0029456688
3.1692776e-07
0.0029453727
2.9601129e-07
0.0029450962
2.7636847e-07
0.0029448379
2.5820531e-07
0.0029445966
2.4110356e-07
0.0029443711
2.2539285e-07
0.0029441608
2.1046916e-07
0.0029439641
1.9689959e-07
0.0029437804
1.8378745e-07
0.0029436085
1.7203407e-07
0.0029434482
1.6025995e-07
0.0029432979
1.5014619e-07
0.0029431574
1.403325e-07
0.0029430254
1.3214673e-07
0.0029429003
1.2512278e-07
0.0029427808
1.1942796e-07
1.2578972e-07
0.010339525
0.00035427931
0.010570754
0.00079057333
0.010606301
0.00091894818
0.010547572
0.00090167134
0.010422317
0.00084262622
0.010244356
0.00075768559
0.01003942
0.00065662746
0.0098287427
0.00055365588
0.009625135
0.00045977084
0.0094353013
0.00037975354
0.0092624277
0.00031409259
0.0091075332
0.00026140425
0.008970154
0.00021969948
0.0088489023
0.00018689786
0.0087419716
0.00016105801
0.0086474927
0.00014051894
0.008563694
0.00012399296
0.0084890107
0.000110476
0.0084221096
9.9219878e-05
0.0083618775
8.9681413e-05
0.0083073954
8.1470674e-05
0.0082579079
7.4307848e-05
0.0082127929
6.7990492e-05
0.0081715353
6.2369981e-05
0.0081337049
5.7335005e-05
0.0080989388
5.2800178e-05
0.0080669272
4.8698266e-05
0.0080374036
4.4974963e-05
0.0080101361
4.1585401e-05
0.0079849213
3.8491859e-05
0.0079615798
3.5662164e-05
0.0079399519
3.3068615e-05
0.0079198952
3.0687169e-05
0.0079012817
2.8496842e-05
0.0078839962
2.6479231e-05
0.0078679345
2.4618135e-05
0.0078530022
2.289924e-05
0.0078391132
2.130985e-05
0.0078261893
1.9838673e-05
0.0078141588
1.8475626e-05
0.0078029562
1.7211679e-05
0.0077925214
1.6038732e-05
0.007782799
1.4949478e-05
0.0077737382
1.3937328e-05
0.0077652921
1.2996306e-05
0.0077574175
1.2120988e-05
0.0077500744
1.1306442e-05
0.0077432258
1.0548148e-05
0.0077368375
9.8419821e-06
0.0077308778
9.1841511e-06
0.0077253173
8.5711652e-06
0.0077201286
7.9998266e-06
0.0077152866
7.4671685e-06
0.0077107676
6.9704732e-06
0.0077065497
6.5072272e-06
0.0077026126
6.0751104e-06
0.0076989373
5.671996e-06
0.0076955064
5.2958953e-06
0.0076923033
4.9449716e-06
0.0076893127
4.6174971e-06
0.0076865206
4.3118652e-06
0.0076839135
4.0265892e-06
0.0076814792
3.7602679e-06
0.0076792061
3.511625e-06
0.0076770834
3.2794696e-06
0.0076751012
3.0627051e-06
0.0076732502
2.8603259e-06
0.0076715215
2.671386e-06
0.0076699071
2.4949979e-06
0.0076683995
2.3303296e-06
0.0076669915
2.176574e-06
0.0076656765
2.0329752e-06
0.0076644483
1.8988428e-06
0.0076633013
1.7735169e-06
0.00766223
1.6564457e-06
0.0076612294
1.5470811e-06
0.0076602948
1.444976e-06
0.007659422
1.3496395e-06
0.0076586067
1.2606891e-06
0.0076578452
1.1776128e-06
0.007657134
1.1000989e-06
0.0076564697
1.0275685e-06
0.0076558492
9.5989085e-07
0.0076552697
8.9645029e-07
0.0076547283
8.3736063e-07
0.0076542228
7.8184043e-07
0.0076537505
7.3045823e-07
0.0076533093
6.8215109e-07
0.0076528971
6.3765887e-07
0.0076525125
5.9508325e-07
0.0076521527
5.5677448e-07
0.0076518172
5.1947885e-07
0.007651503
4.8632031e-07
0.0076512107
4.5241229e-07
0.0076509355
4.2507782e-07
0.0076506806
3.9523074e-07
0.0076504386
3.7434475e-07
0.0076502166
3.4714219e-07
0.0076499999
3.3608539e-07
3.1078901e-07
0.010188704
0.00016557515
0.010530487
0.00044879097
0.010851453
0.00059798174
0.011124174
0.00062895022
0.011350581
0.00061621885
0.011524486
0.00058378056
0.01164633
0.00053478422
0.011724155
0.00047583052
0.011767999
0.00041592667
0.011786639
0.000361114
0.011787114
0.00031361711
0.011775058
0.00027346025
0.011754861
0.00023989718
0.011729768
0.0002119903
0.011702054
0.0001887726
0.011673239
0.00016933388
0.011644339
0.00015289297
0.011616003
0.00013881184
0.011588629
0.0001265938
0.011562446
0.00011586445
0.011537572
0.00010634494
0.011514052
9.7826999e-05
0.01149189
9.0153358e-05
0.011471056
8.320336e-05
0.011451509
7.6882606e-05
0.011433193
7.1115558e-05
0.011416051
6.5840296e-05
0.011400021
6.1004914e-05
0.011385042
5.6565079e-05
0.011371051
5.2482346e-05
0.01135799
4.8723036e-05
0.011345801
4.5257393e-05
0.01133443
4.2058995e-05
0.011323822
3.9104268e-05
0.011313929
3.6372112e-05
0.011304704
3.3843597e-05
0.011296101
3.1501685e-05
0.01128808
2.9331016e-05
0.011280601
2.7317706e-05
0.011273628
2.5449187e-05
0.011267125
2.3714063e-05
0.011261062
2.2101964e-05
0.011255408
2.0603463e-05
0.011250135
1.9209948e-05
0.011245218
1.791356e-05
0.011240632
1.6707102e-05
0.011236354
1.5583972e-05
0.011232364
1.4538111e-05
0.011228643
1.3563936e-05
0.01122517
1.265631e-05
0.011221931
1.1810501e-05
0.011218909
1.1022122e-05
0.011216089
1.0287143e-05
0.011213457
9.6018216e-06
0.011211002
8.9627067e-06
0.01120871
8.3666132e-06
0.011206572
7.8105827e-06
0.011204576
7.2918763e-06
0.011202713
6.8079282e-06
0.011200974
6.3563642e-06
0.011199351
5.9349766e-06
0.011197836
5.541695e-06
0.011196422
5.1746233e-06
0.011195101
4.8319778e-06
0.011193868
4.5121259e-06
0.011192718
4.2135421e-06
0.011191643
3.9348133e-06
0.01119064
3.6746185e-06
0.011189703
3.4317245e-06
0.011188829
3.2049505e-06
0.011188012
2.9932243e-06
0.01118725
2.7954951e-06
0.011186538
2.6108395e-06
0.011185873
2.4383678e-06
0.011185252
2.2773128e-06
0.011184672
2.1268956e-06
0.01118413
1.9864883e-06
0.011183624
1.8553613e-06
0.011183152
1.7330046e-06
0.011182711
1.6186719e-06
0.0111823
1.5119771e-06
0.011181915
1.4121498e-06
0.011181556
1.3190735e-06
0.01118122
1.2318264e-06
0.011180907
1.1506671e-06
0.011180614
1.0744831e-06
0.01118034
1.0040695e-06
0.011180085
9.3727122e-07
0.011179847
8.7623876e-07
0.011179624
8.1778357e-07
0.011179416
7.6532037e-07
0.011179222
7.1275928e-07
0.011179041
6.681293e-07
0.011178872
6.2099475e-07
0.011178712
5.8522594e-07
0.011178565
5.4112798e-07
0.011178425
5.152146e-07
0.0111783
4.72258e-07
0.011178177
4.5902543e-07
4.1608189e-07
0.010097182
6.8393548e-05
0.010346961
0.0001990111
0.010662469
0.00028247385
0.010982753
0.00030866647
0.011290229
0.00030874341
0.011575251
0.00029875789
0.011829022
0.00028101347
0.012047865
0.00025698757
0.012233272
0.00023051983
0.01238924
0.0002051459
0.012520295
0.00018256236
0.012630755
0.00016299956
0.012724428
0.0001462249
0.012804515
0.00013190312
0.012873613
0.00011967426
0.012933772
0.00010917461
0.012986596
0.00010006908
0.013033332
9.2076373e-05
0.01307495
8.4975259e-05
0.013112216
7.8598616e-05
0.013145739
7.2822303e-05
0.013176012
6.7553936e-05
0.013203441
6.272392e-05
0.013228366
5.8278891e-05
0.013251071
5.4176985e-05
0.013271802
5.0384432e-05
0.01329077
4.6873166e-05
0.013308155
4.3619185e-05
0.013324119
4.0601467e-05
0.0133388
3.7801289e-05
0.013352321
3.5201761e-05
0.013364791
3.2787537e-05
0.013376306
3.0544595e-05
0.01338695
2.8460087e-05
0.0133968
2.6522216e-05
0.013405923
2.472013e-05
0.013414381
2.304384e-05
0.013422228
2.1484144e-05
0.013429513
2.0032563e-05
0.013436281
1.8681276e-05
0.013442572
1.7423069e-05
0.013448423
1.6251284e-05
0.013453866
1.5159765e-05
0.013458933
1.414283e-05
0.013463652
1.3195219e-05
0.013468047
1.2312067e-05
0.013472142
1.1488867e-05
0.013475958
1.072144e-05
0.013479517
1.0005915e-05
0.013482834
9.3386967e-06
0.013485928
8.7164477e-06
0.013488814
8.1360785e-06
0.013491507
7.5947064e-06
0.013494019
7.0896692e-06
0.013496363
6.6184927e-06
0.013498551
6.1788799e-06
0.013500593
5.7686895e-06
0.013502499
5.3859205e-06
0.013504278
5.0287157e-06
0.013505939
4.6953417e-06
0.01350749
4.3841802e-06
0.013508938
4.0937401e-06
0.01351029
3.8226202e-06
0.013511552
3.569532e-06
0.013512731
3.3332696e-06
0.013513832
3.1127139e-06
0.01351486
2.9068225e-06
0.01351582
2.7146083e-06
0.013516716
2.5351575e-06
0.013517554
2.3676066e-06
0.013518336
2.211143e-06
0.013519066
2.0650242e-06
0.013519749
1.9285735e-06
0.013520386
1.8011386e-06
0.013520981
1.6821687e-06
0.013521537
1.5710702e-06
0.013522056
1.4673741e-06
0.01352254
1.3705192e-06
0.013522993
1.2801215e-06
0.013523417
1.1956157e-06
0.013523812
1.1167558e-06
0.013524181
1.0429531e-06
0.013524526
9.7418631e-07
0.013524848
9.0970758e-07
0.013525149
8.4988999e-07
0.013525429
7.9363941e-07
0.013525692
7.4161969e-07
0.013525937
6.9217588e-07
0.013526166
6.473882e-07
0.01352638
6.0398639e-07
0.01352658
5.6513446e-07
0.013526767
5.2581624e-07
0.013526942
4.93692e-07
0.013527104
4.5840621e-07
0.013527256
4.3262105e-07
0.013527398
3.9889823e-07
0.013527533
3.8080181e-07
0.013527659
3.4708882e-07
0.01352778
3.3799648e-07
3.0562437e-07
0.010068394
-5.430671e-12
0.010267405
-1.3567518e-11
0.010549879
-1.2030719e-11
0.010858545
-5.7371381e-12
0.011167288
1.208783e-12
0.011466046
3.4382418e-12
0.01174706
3.2034028e-12
0.012004047
1.8376252e-12
0.012234567
2.7989694e-14
0.012439713
-2.6550041e-12
0.012622275
-3.3254459e-12
0.012785275
-2.3315746e-12
0.0129315
-1.3114831e-12
0.013063403
9.5124848e-13
0.013183077
3.5971229e-12
0.013292252
4.2781095e-12
0.013392321
3.8098471e-12
0.013484397
3.2532942e-12
0.013569373
3.0772357e-12
0.013647971
1.7136643e-12
0.013720794
-9.2614712e-13
0.013788347
-3.367411e-12
0.013851071
-3.6346114e-12
0.01390935
-3.5616761e-12
0.013963527
-2.0003933e-12
0.014013912
8.2045569e-13
0.014060785
2.3683647e-12
0.014104404
3.4574624e-12
0.014145006
5.7368879e-12
0.014182807
6.1516101e-12
0.014218009
4.8103503e-12
0.014250796
1.1189544e-12
0.014281341
-3.0139173e-12
0.014309801
-7.3818425e-12
0.014336323
-9.5641554e-12
0.014361043
-7.2939116e-12
0.014384087
-1.7321242e-12
0.014405571
4.0798436e-12
0.014425604
8.4939322e-12
0.014444285
1.0559303e-11
0.014461708
8.9771647e-12
0.014477959
3.6428064e-12
0.014493119
-2.1013574e-12
0.014507262
-7.6439798e-12
0.014520457
-1.0290291e-11
0.014532769
-9.04377e-12
0.014544258
-5.0963254e-12
0.014554979
1.071866e-12
0.014564985
9.7516421e-12
0.014574324
1.8530134e-11
0.014583041
2.0767999e-11
0.014591177
1.2903617e-11
0.014598771
2.1937475e-12
0.014605861
-1.2713484e-11
0.014612479
-2.2257188e-11
0.014618658
-2.0292702e-11
0.014624427
-7.6177195e-12
0.014629813
8.4999235e-12
0.014634842
2.404621e-11
0.014639537
3.0647331e-11
0.014643921
2.660006e-11
0.014648015
1.2338124e-11
0.014651838
-4.2711675e-12
0.014655407
-1.9715546e-11
0.01465874
-2.7886672e-11
0.014661853
-2.3539395e-11
0.01466476
-8.9266223e-12
0.014667474
1.5106522e-11
0.01467001
3.8130954e-11
0.014672377
4.7034769e-11
0.014674588
4.0641188e-11
0.014676653
1.5631046e-11
0.014678582
-1.5791646e-11
0.014680383
-4.0105297e-11
0.014682065
-5.055783e-11
0.014683636
-3.1945351e-11
0.014685104
4.2167254e-12
0.014686474
4.5020893e-11
0.014687754
6.9963516e-11
0.01468895
6.0339678e-11
0.014690067
2.5875664e-11
0.01469111
-1.2539415e-11
0.014692084
-5.2402274e-11
0.014692994
-6.7633929e-11
0.014693843
-3.0184626e-11
0.014694637
1.698045e-11
0.014695378
3.0720696e-11
0.014696071
5.9164662e-11
0.014696718
1.2883835e-10
0.014697321
6.7609971e-11
0.014697887
-1.0055607e-10
0.014698415
-1.5770658e-10
0.014698907
-1.1559331e-10
0.014699364
5.2331741e-11
0.014699797
1.6598066e-10
0.014700197
7.22216e-11
0.014700578
-5.6376355e-11
0.014700925
-9.8334345e-11
0.014701263
-1.0101462e-10
-7.9053346e-11
0.010068394
-6.8393558e-05
0.010267405
-0.00019901113
0.010549879
-0.00028247388
0.010858545
-0.00030866649
0.011167288
-0.00030874342
0.011466046
-0.00029875788
0.01174706
-0.00028101346
0.012004047
-0.00025698756
0.012234567
-0.00023051982
0.012439713
-0.0002051459
0.012622275
-0.00018256236
0.012785275
-0.00016299957
0.0129315
-0.00014622491
0.013063403
-0.00013190312
0.013183077
-0.00011967426
0.013292252
-0.00010917461
0.013392321
-0.00010006907
0.013484397
-9.2076363e-05
0.013569373
-8.497525e-05
0.013647971
-7.8598613e-05
0.013720794
-7.2822305e-05
0.013788347
-6.7553939e-05
0.013851071
-6.2723927e-05
0.01390935
-5.8278898e-05
0.013963527
-5.4176988e-05
0.014013912
-5.0384432e-05
0.014060785
-4.6873163e-05
0.014104404
-4.3619177e-05
0.014145006
-4.0601457e-05
0.014182807
-3.7801277e-05
0.014218009
-3.5201754e-05
0.014250796
-3.2787536e-05
0.014281341
-3.0544601e-05
0.014309801
-2.8460101e-05
0.014336323
-2.6522231e-05
0.014361043
-2.472014e-05
0.014384087
-2.3043842e-05
0.014405571
-2.1484138e-05
0.014425604
-2.0032549e-05
0.014444285
-1.8681258e-05
0.014461708
-1.7423054e-05
0.014477959
-1.6251275e-05
0.014493119
-1.5159766e-05
0.014507262
-1.414284e-05
0.014520457
-1.3195236e-05
0.014532769
-1.2312085e-05
0.014544258
-1.1488878e-05
0.014554979
-1.0721439e-05
0.014564985
-1.0005897e-05
0.014574324
-9.3386664e-06
0.014583041
-8.7164193e-06
0.014591177
-8.1360566e-06
0.014598771
-7.5947035e-06
0.014605861
-7.0896866e-06
0.014612479
-6.6185219e-06
0.014618658
-6.1789057e-06
0.014624427
-5.7686979e-06
0.014629813
-5.3859107e-06
0.014634842
-5.0286858e-06
0.014639537
-4.6952947e-06
0.014643921
-4.3841389e-06
0.014648015
-4.093715e-06
0.014651838
-3.8226227e-06
0.014655407
-3.5695575e-06
0.01465874
-3.3333128e-06
0.014661853
-3.1127555e-06
0.01466476
-2.9068378e-06
0.014667474
-2.7145894e-06
0.01467001
-2.5351065e-06
0.014672377
-2.3675313e-06
0.014674588
-2.2110852e-06
0.014676653
-2.0649984e-06
0.014678582
-1.9285916e-06
0.014680383
-1.8011959e-06
0.014682065
-1.6822308e-06
0.014683636
-1.5711089e-06
0.014685104
-1.4673651e-06
0.014686474
-1.3704613e-06
0.014687754
-1.2800396e-06
0.01468895
-1.195537e-06
0.014690067
-1.1167177e-06
0.01469111
-1.0429712e-06
0.014692084
-9.7424167e-07
0.014692994
-9.0978594e-07
0.014693843
-8.4993659e-07
0.014694637
-7.9362177e-07
0.014695379
-7.4157669e-07
0.014696071
-6.9211484e-07
0.014696718
-6.4724609e-07
0.014697321
-6.0382009e-07
0.014697888
-5.6530919e-07
0.014698415
-5.261659e-07
0.014698907
-4.936196e-07
0.014699363
-4.5815645e-07
0.014699797
-4.3269095e-07
0.014700198
-3.9908947e-07
0.014700579
-3.8084544e-07
0.014700924
-3.4706317e-07
0.014701262
-3.3805887e-07
-3.0572616e-07
0.010097182
-0.00016557515
0.010346961
-0.000448791
0.010662469
-0.00059798177
0.010982753
-0.00062895025
0.011290229
-0.00061621886
0.011575251
-0.00058378055
0.011829022
-0.00053478421
0.012047865
-0.0004758305
0.012233272
-0.00041592666
0.01238924
-0.000361114
0.012520295
-0.00031361712
0.012630755
-0.00027346026
0.012724428
-0.00023989718
0.012804515
-0.00021199031
0.012873613
-0.0001887726
0.012933772
-0.00016933388
0.012986596
-0.00015289296
0.013033332
-0.00013881183
0.01307495
-0.00012659379
0.013112216
-0.00011586445
0.013145739
-0.00010634494
0.013176012
-9.7827002e-05
0.013203441
-9.0153364e-05
0.013228366
-8.3203366e-05
0.013251071
-7.6882614e-05
0.013271802
-7.1115561e-05
0.01329077
-6.5840293e-05
0.013308155
-6.1004908e-05
0.013324119
-5.6565069e-05
0.0133388
-5.2482339e-05
0.013352321
-4.8723029e-05
0.013364791
-4.5257392e-05
0.013376306
-4.2058999e-05
0.01338695
-3.9104275e-05
0.0133968
-3.6372123e-05
0.013405923
-3.3843608e-05
0.013414381
-3.1501692e-05
0.013422228
-2.9331014e-05
0.013429513
-2.7317697e-05
0.013436281
-2.5449175e-05
0.013442572
-2.3714045e-05
0.013448423
-2.2101953e-05
0.013453866
-2.0603459e-05
0.013458933
-1.9209955e-05
0.013463652
-1.7913575e-05
0.013468047
-1.6707118e-05
0.013472142
-1.5583985e-05
0.013475958
-1.4538111e-05
0.013479517
-1.3563927e-05
0.013482834
-1.2656296e-05
0.013485928
-1.1810479e-05
0.013488814
-1.1022106e-05
0.013491507
-1.0287132e-05
0.013494019
-9.6018214e-06
0.013496363
-8.9627191e-06
0.013498551
-8.3666335e-06
0.013500593
-7.810606e-06
0.013502499
-7.2918827e-06
0.013504278
-6.8079177e-06
0.013505939
-6.3563401e-06
0.01350749
-5.9349384e-06
0.013508938
-5.5416626e-06
0.01351029
-5.1746048e-06
0.013511552
-4.8319849e-06
0.013512731
-4.5121494e-06
0.013513832
-4.2135729e-06
0.01351486
-3.9348413e-06
0.01351582
-3.6746259e-06
0.013516716
-3.4317061e-06
0.013517554
-3.2049188e-06
0.013518336
-2.9931765e-06
0.013519066
-2.7954557e-06
0.013519749
-2.6108215e-06
0.013520386
-2.4383744e-06
0.013520981
-2.2773399e-06
0.013521537
-2.1269344e-06
0.013522056
-1.9865224e-06
0.013522541
-1.8553724e-06
0.013522994
-1.7329813e-06
0.013523417
-1.6186205e-06
0.013523812
-1.5119148e-06
0.013524181
-1.4121003e-06
0.013524526
-1.3190544e-06
0.013524848
-1.2318425e-06
0.013525149
-1.150746e-06
0.01352543
-1.0745468e-06
0.013525692
-1.0040396e-06
0.013525937
-9.3723517e-07
0.013526166
-8.7630562e-07
0.01352638
-8.1779658e-07
0.013526581
-7.6508436e-07
0.013526767
-7.1256353e-07
0.01352694
-6.6830621e-07
0.013527104
-6.2127919e-07
0.013527257
-5.8529423e-07
0.0135274
-5.4110051e-07
0.013527533
-5.1518011e-07
0.013527658
-4.7220327e-07
0.013527779
-4.5901184e-07
-4.1610282e-07
0.010188704
-0.00035427932
0.010530487
-0.00079057335
0.010851453
-0.0009189482
0.011124174
-0.00090167137
0.011350581
-0.00084262624
0.011524487
-0.0007576856
0.01164633
-0.00065662744
0.011724155
-0.00055365586
0.011767999
-0.00045977083
0.011786639
-0.00037975353
0.011787114
-0.00031409259
0.011775058
-0.00026140426
0.011754861
-0.00021969949
0.011729768
-0.00018689787
0.011702054
-0.00016105802
0.011673239
-0.00014051894
0.011644339
-0.00012399295
0.011616003
-0.00011047599
0.011588629
-9.9219871e-05
0.011562446
-8.9681407e-05
0.011537572
-8.1470672e-05
0.011514052
-7.4307849e-05
0.01149189
-6.7990496e-05
0.011471056
-6.2369987e-05
0.011451509
-5.7335012e-05
0.011433193
-5.2800183e-05
0.011416051
-4.8698267e-05
0.011400021
-4.4974958e-05
0.011385042
-4.1585396e-05
0.011371051
-3.8491853e-05
0.01135799
-3.5662159e-05
0.011345801
-3.3068612e-05
0.01133443
-3.0687169e-05
0.011323822
-2.8496845e-05
0.011313929
-2.6479237e-05
0.011304704
-2.4618144e-05
0.011296101
-2.2899249e-05
0.01128808
-2.1309855e-05
0.011280601
-1.9838671e-05
0.011273628
-1.8475617e-05
0.011267125
-1.7211667e-05
0.011261062
-1.6038718e-05
0.011255408
-1.494947e-05
0.011250135
-1.3937327e-05
0.011245218
-1.2996313e-05
0.011240632
-1.2121002e-05
0.011236354
-1.1306453e-05
0.011232364
-1.0548157e-05
0.011228643
-9.8419843e-06
0.01122517
-9.1841465e-06
0.011221931
-8.5711573e-06
0.011218909
-7.9998098e-06
0.011216089
-7.4671514e-06
0.011213457
-6.9704584e-06
0.011211002
-6.507222e-06
0.01120871
-6.0751247e-06
0.011206572
-5.6720201e-06
0.011204576
-5.2959211e-06
0.011202713
-4.944984e-06
0.011200974
-4.6174924e-06
0.011199351
-4.3118453e-06
0.011197836
-4.0265531e-06
0.011196422
-3.7602357e-06
0.011195101
-3.5116047e-06
0.011193868
-3.2794685e-06
0.011192718
-3.0627251e-06
0.011191643
-2.8603592e-06
0.01119064
-2.6714203e-06
0.011189703
-2.4950238e-06
0.011188829
-2.3303282e-06
0.011188012
-2.1765469e-06
0.011187249
-2.0329253e-06
0.011186537
-1.8987878e-06
0.011185873
-1.7734798e-06
0.011185252
-1.6564412e-06
0.011184672
-1.5471135e-06
0.01118413
-1.4450406e-06
0.011183625
-1.3497056e-06
0.011183152
-1.2607285e-06
0.011182711
-1.1775963e-06
0.0111823
-1.100029e-06
0.011181915
-1.0274788e-06
0.011181556
-9.5980456e-07
0.01118122
-8.964131e-07
0.011180907
-8.3740113e-07
0.011180614
-7.8194352e-07
0.011180341
-7.3054958e-07
0.011180086
-6.8218916e-07
0.011179847
-6.3771181e-07
0.011179625
-5.9510786e-07
0.011179416
-5.5654645e-07
0.011179222
-5.1910807e-07
0.01117904
-4.8630448e-07
0.011178872
-4.5284128e-07
0.011178712
-4.2541285e-07
0.011178566
-3.9514084e-07
0.011178425
-3.7414389e-07
0.0111783
-3.4707749e-07
0.011178177
-3.3603254e-07
-3.1075914e-07
0.010339525
-0.00069380425
0.010570754
-0.0010218027
0.010606301
-0.00095449448
0.010547572
-0.00084294334
0.010422317
-0.0007173708
0.010244356
-0.00057972444
0.010039421
-0.00045169205
0.0098287427
-0.00034297801
0.009625135
-0.00025616317
0.0094353013
-0.00018991983
0.0092624277
-0.00014121897
0.0091075332
-0.0001065098
0.008970154
-8.2320224e-05
0.0088489023
-6.5646245e-05
0.0087419716
-5.4127251e-05
0.0086474927
-4.6040042e-05
0.008563694
-4.0194287e-05
0.0084890108
-3.5792755e-05
0.0084221096
-3.2318762e-05
0.0083618775
-2.9449285e-05
0.0083073954
-2.6988579e-05
0.0082579079
-2.4820301e-05
0.0082127929
-2.2875478e-05
0.0081715353
-2.1112414e-05
0.008133705
-1.9504653e-05
0.0080989388
-1.8034017e-05
0.0080669272
-1.668673e-05
0.0080374036
-1.545137e-05
0.0080101361
-1.431787e-05
0.0079849213
-1.3277076e-05
0.0079615798
-1.2320592e-05
0.0079399519
-1.1440717e-05
0.0079198951
-1.0630428e-05
0.0079012817
-9.8833579e-06
0.0078839962
-9.1937664e-06
0.0078679345
-8.5564962e-06
0.0078530022
-7.9669243e-06
0.0078391133
-7.420913e-06
0.0078261893
-6.914757e-06
0.0078141589
-6.4451326e-06
0.0078029562
-6.009055e-06
0.0077925214
-5.6038382e-06
0.007782799
-5.2270582e-06
0.0077737382
-4.8765212e-06
0.0077652921
-4.5502374e-06
0.0077574175
-4.2463964e-06
0.0077500744
-3.9633463e-06
0.0077432258
-3.699577e-06
0.0077368375
-3.4537028e-06
0.0077308778
-3.2244462e-06
0.0077253173
-3.0106307e-06
0.0077201286
-2.811173e-06
0.0077152865
-2.6250732e-06
0.0077107675
-2.451408e-06
0.0077065497
-2.2893265e-06
0.0077026126
-2.1380415e-06
0.0076989374
-1.9968202e-06
0.0076955064
-1.8649835e-06
0.0076923033
-1.7419012e-06
0.0076893128
-1.6269823e-06
0.0076865206
-1.5196739e-06
0.0076839135
-1.4194629e-06
0.0076814791
-1.3258729e-06
0.007679206
-1.2384585e-06
0.0076770834
-1.1568104e-06
0.0076751013
-1.0805513e-06
0.0076732503
-1.0093294e-06
0.0076715216
-9.4281483e-07
0.0076699072
-8.8069996e-07
0.0076683995
-8.2268833e-07
0.0076669915
-7.6850403e-07
0.0076656764
-7.1788417e-07
0.0076644483
-6.7059186e-07
0.0076633013
-6.2639988e-07
0.00766223
-5.8511658e-07
0.0076612295
-5.4654845e-07
0.007660295
-5.1053633e-07
0.0076594221
-4.7689774e-07
0.0076586068
-4.4550079e-07
0.0076578453
-4.1615841e-07
0.007657134
-3.8877504e-07
0.0076564697
-3.6315815e-07
0.0076558493
-3.3925843e-07
0.0076552698
-3.1686246e-07
0.0076547284
-2.9602012e-07
0.007654223
-2.7643289e-07
0.0076537507
-2.5826255e-07
0.0076533095
-2.4119464e-07
0.007652897
-2.2550685e-07
0.0076525124
-2.1041692e-07
0.0076521528
-1.9668582e-07
0.0076518175
-1.836593e-07
0.007651503
-1.7207511e-07
0.0076512104
-1.6036824e-07
0.0076509354
-1.5024141e-07
0.0076506809
-1.4037948e-07
0.0076504388
-1.3208952e-07
0.0076502166
-1.250315e-07
0.0076499999
-1.1938823e-07
-1.2577294e-07
0.0093061957
0.0082843931
0.0073298986
0.0064869553
0.0057695845
0.00518986
0.004738168
0.00439519
0.0041390268
0.0039491069
0.003807888
0.0037013782
0.003619058
0.0035534117
0.0034992845
0.0034532444
0.0034130501
0.0033772574
0.0033449386
0.0033154893
0.0032885008
0.0032636805
0.003240805
0.0032196926
0.0032001879
0.0031821539
0.0031654672
0.0031500158
0.0031356979
0.0031224208
0.0031101003
0.0030986596
0.0030880291
0.0030781458
0.003068952
0.0030603955
0.0030524286
0.0030450076
0.0030380929
0.0030316477
0.0030256387
0.0030200349
0.0030148078
0.0030099313
0.0030053811
0.0030011347
0.0029971713
0.0029934717
0.002990018
0.0029867936
0.0029837829
0.0029809718
0.0029783467
0.0029758953
0.002973606
0.002971468
0.0029694711
0.0029676061
0.0029658642
0.0029642372
0.0029627175
0.0029612981
0.0029599723
0.0029587338
0.002957577
0.0029564965
0.0029554871
0.0029545442
0.0029536635
0.0029528408
0.0029520723
0.0029513545
0.0029506839
0.0029500576
0.0029494725
0.0029489259
0.0029484153
0.0029479384
0.0029474928
0.0029470766
0.0029466879
0.0029463248
0.0029459856
0.0029456688
0.0029453728
0.0029450964
0.0029448379
0.0029445965
0.0029443711
0.002944161
0.0029439642
0.0029437802
0.0029436083
0.0029434483
0.0029432981
0.0029431575
0.0029430253
0.0029429002
0.0029427808
)
;

boundaryField
{
    top
    {
        type            calculated;
        value           uniform 0;
    }
    inlet
    {
        type            calculated;
        value           nonuniform List<scalar> 10(-0.01 -0.01 -0.01 -0.01 -0.01 -0.01 -0.01 -0.01 -0.01 -0.01);
    }
    outlet
    {
        type            calculated;
        value           nonuniform List<scalar> 10(0.002942655 0.0076498149 0.011178072 0.01352789 0.014701568 0.014701568 0.01352789 0.011178072 0.0076498149 0.0029426551);
    }
    bottom
    {
        type            calculated;
        value           uniform 0;
    }
    back
    {
        type            empty;
        value           nonuniform 0();
    }
    front
    {
        type            empty;
        value           nonuniform 0();
    }
}


// ************************************************************************* //
