/*--------------------------------*- C++ -*----------------------------------*\
| =========                 |                                                 |
| \\      /  F ield         | OpenFOAM: The Open Source CFD Toolbox           |
|  \\    /   O peration     | Version:  v1812                                 |
|   \\  /    A nd           | Web:      www.OpenFOAM.com                      |
|    \\/     M anipulation  |                                                 |
\*---------------------------------------------------------------------------*/
FoamFile
{
    version     2.0;
    format      ascii;
    class       surfaceScalarField;
    location    "6.45";
    object      phi;
}
// * * * * * * * * * * * * * * * * * * * * * * * * * * * * * * * * * * * * * //

dimensions      [0 3 -1 0 0 0 0];
oriented        oriented;


internalField   nonuniform List<scalar> 
1890
(
0.0093061957
0.00069380425
0.0082843931
0.0010218027
0.0073298986
0.00095449449
0.0064869553
0.00084294334
0.0057695845
0.0007173708
0.00518986
0.00057972444
0.004738168
0.00045169205
0.00439519
0.00034297801
0.0041390268
0.00025616318
0.003949107
0.00018991983
0.003807888
0.00014121897
0.0037013782
0.0001065098
0.003619058
8.2320222e-05
0.0035534117
6.5646247e-05
0.0034992845
5.4127259e-05
0.0034532444
4.6040055e-05
0.0034130501
4.0194301e-05
0.0033772573
3.5792765e-05
0.0033449386
3.2318768e-05
0.0033154893
2.9449289e-05
0.0032885007
2.6988584e-05
0.0032636804
2.482031e-05
0.0032408049
2.2875495e-05
0.0032196924
2.1112441e-05
0.0032001878
1.950469e-05
0.0031821537
1.8034065e-05
0.0031654669
1.6686789e-05
0.0031500154
1.5451443e-05
0.0031356975
1.4317958e-05
0.0031224203
1.3277187e-05
0.0031100996
1.2320731e-05
0.0030986587
1.1440887e-05
0.0030880281
1.0630628e-05
0.0030781445
9.883574e-06
0.0030689505
9.1939653e-06
0.0030603939
8.5566142e-06
0.0030524271
7.9668551e-06
0.0030450066
7.4204882e-06
0.0030380929
6.9137243e-06
0.0030316498
6.4431293e-06
0.0030256443
6.0055789e-06
0.0030200461
5.5982122e-06
0.0030148278
5.2184022e-06
0.0030099641
4.863718e-06
0.0030054324
4.5319167e-06
0.0030012116
4.2209148e-06
0.0029972829
3.9287994e-06
0.0029936293
3.6538035e-06
0.0029902352
3.3943343e-06
0.0029870864
3.1489499e-06
0.0029841702
2.916396e-06
0.0029814749
2.6955764e-06
0.0029789895
2.4855935e-06
0.002976704
2.2857068e-06
0.0029746088
2.0953692e-06
0.0029726949
1.9141728e-06
0.0029709531
1.7418775e-06
0.0029693749
1.5783442e-06
0.0029679515
1.4235548e-06
0.0029666741
1.2775411e-06
0.0029655337
1.1403978e-06
0.0029645215
1.0122129e-06
0.0029636284
8.9307737e-07
0.0029628454
7.8302972e-07
0.0029621632
6.8206261e-07
0.0029615731
5.9008692e-07
0.002961066
5.0693773e-07
0.0029606335
4.3236334e-07
0.0029602674
3.6602855e-07
0.0029599597
3.0752573e-07
0.0029597033
2.5637457e-07
0.0029594911
2.1205325e-07
0.002959317
1.7398993e-07
0.0029591753
1.4160699e-07
0.002959061
1.143029e-07
0.0029589694
9.1505394e-08
0.0029588967
7.2639908e-08
0.0029588395
5.7186175e-08
0.0029587948
4.4637159e-08
0.0029587602
3.455431e-08
0.0029587337
2.651834e-08
0.0029587135
2.018267e-08
0.0029586983
1.522299e-08
0.0029586869
1.1385877e-08
0.0029586785
8.436942e-09
0.0029586723
6.2024967e-09
0.0029586678
4.5208755e-09
0.0029586645
3.2760146e-09
0.0029586621
2.359545e-09
0.0029586604
1.6925419e-09
0.0029586592
1.2086802e-09
0.0029586584
8.5818877e-10
0.0029586578
6.1229457e-10
0.0029586574
4.4502148e-10
0.0029586571
3.6140379e-10
0.0029586567
3.4629362e-10
0.0029586562
4.223734e-10
0.0029586556
6.1579135e-10
0.0029586545
1.0614768e-09
1.5747033e-09
0.010339525
0.00035427932
0.010570754
0.00079057335
0.010606301
0.00091894821
0.010547572
0.00090167137
0.010422317
0.00084262624
0.010244356
0.00075768559
0.010039421
0.00065662744
0.0098287427
0.00055365586
0.009625135
0.00045977083
0.0094353013
0.00037975354
0.0092624277
0.00031409259
0.0091075332
0.00026140426
0.0089701539
0.00021969949
0.0088489023
0.00018689787
0.0087419715
0.00016105804
0.0086474926
0.00014051897
0.0085636939
0.00012399298
0.0084890107
0.00011047602
0.0084221096
9.9219889e-05
0.0083618774
8.9681421e-05
0.0083073953
8.1470686e-05
0.0082579078
7.4307868e-05
0.0082127927
6.7990526e-05
0.0081715352
6.2370029e-05
0.0081337048
5.7335064e-05
0.0080989386
5.280024e-05
0.0080669271
4.8698322e-05
0.0080374035
4.4975e-05
0.0080101361
4.1585411e-05
0.0079849214
3.8491821e-05
0.0079615801
3.5662051e-05
0.0079399526
3.3068378e-05
0.0079198965
3.0686727e-05
0.007901284
2.8496063e-05
0.0078840001
2.6477909e-05
0.0078679407
2.4615958e-05
0.0078530118
2.2895748e-05
0.0078391279
2.1304395e-05
0.0078262113
1.9830355e-05
0.0078141912
1.8463232e-05
0.0078030031
1.7193607e-05
0.0077925885
1.6012907e-05
0.0077828936
1.4913277e-05
0.0077738698
1.3887508e-05
0.0077654728
1.292895e-05
0.0077576623
1.2031489e-05
0.0077504017
1.1189491e-05
0.0077436577
1.0397818e-05
0.0077374003
9.6517931e-06
0.0077316021
8.947246e-06
0.0077262381
8.2804796e-06
0.0077212854
7.6483244e-06
0.0077167229
7.0480911e-06
0.0077125311
6.477619e-06
0.0077086913
5.9352008e-06
0.0077051859
5.4196107e-06
0.0077019978
4.9299998e-06
0.0076991102
4.4658974e-06
0.0076965066
4.0270862e-06
0.0076941705
3.6135807e-06
0.0076920854
3.2254981e-06
0.0076902345
2.8630219e-06
0.0076886011
2.526292e-06
0.0076871686
2.2153665e-06
0.0076859204
1.9301458e-06
0.00768484
1.6703436e-06
0.0076839113
1.4354572e-06
0.0076831187
1.2247524e-06
0.0076824473
1.0372798e-06
0.0076818828
8.7187232e-07
0.0076814118
7.2719777e-07
0.0076810219
6.017648e-07
0.0076807018
4.939997e-07
0.0076804411
4.022469e-07
0.0076802304
3.2485806e-07
0.0076800617
2.6018087e-07
0.0076799276
2.0664724e-07
0.007679822
1.6274293e-07
0.0076797395
1.2709039e-07
0.0076796756
9.8400172e-08
0.0076796266
7.5545083e-08
0.0076795892
5.74945e-08
0.0076795611
4.3386904e-08
0.00767954
3.2447838e-08
0.0076795245
2.4065107e-08
0.007679513
1.768494e-08
0.0076795046
1.289989e-08
0.0076794985
9.3258688e-09
0.0076794941
6.7085093e-09
0.007679491
4.7827342e-09
0.0076794888
3.4055423e-09
0.0076794873
2.4002971e-09
0.0076794863
1.7094758e-09
0.0076794855
1.2305124e-09
0.007679485
9.5163269e-10
0.0076794845
8.4081156e-10
0.007679484
8.6778443e-10
0.0076794834
1.1238487e-09
0.0076794831
1.4595204e-09
2.0110769e-09
0.010188704
0.00016557515
0.010530487
0.000448791
0.010851453
0.00059798178
0.011124174
0.00062895025
0.011350581
0.00061621887
0.011524486
0.00058378056
0.01164633
0.00053478421
0.011724155
0.0004758305
0.011767999
0.00041592666
0.011786639
0.000361114
0.011787114
0.00031361712
0.011775058
0.00027346027
0.011754861
0.0002398972
0.011729768
0.00021199033
0.011702054
0.00018877263
0.011673239
0.0001693339
0.011644339
0.00015289299
0.011616003
0.00013881186
0.011588629
0.00012659382
0.011562446
0.00011586448
0.011537571
0.00010634498
0.011514052
9.7827044e-05
0.011491889
9.0153413e-05
0.011471056
8.3203423e-05
0.011451508
7.6882674e-05
0.011433193
7.111562e-05
0.011416051
6.5840342e-05
0.011400021
6.1004934e-05
0.011385041
5.6565049e-05
0.011371051
5.2482235e-05
0.01135799
4.872279e-05
0.011345802
4.5256933e-05
0.01133443
4.2058194e-05
0.011323823
3.9102935e-05
0.011313931
3.6369962e-05
0.011304707
3.3840211e-05
0.011296106
3.1496468e-05
0.011288088
2.9323141e-05
0.011280612
2.7306049e-05
0.011273643
2.5432248e-05
0.011267147
2.3689867e-05
0.011261091
2.2067987e-05
0.011255448
2.0556515e-05
0.01125019
1.9146107e-05
0.011245291
1.7828089e-05
0.011240728
1.6594416e-05
0.01123648
1.5437635e-05
0.011232527
1.4350874e-05
0.011228851
1.3327846e-05
0.011225435
1.2362846e-05
0.011222265
1.1450787e-05
0.011219326
1.0587186e-05
0.011216606
9.7682095e-06
0.011214093
8.9906352e-06
0.011211777
8.2518831e-06
0.011209646
7.5499406e-06
0.011207693
6.8833703e-06
0.011205908
6.2511929e-06
0.011204282
5.6528694e-06
0.011202807
5.088153e-06
0.011201476
4.557052e-06
0.011200279
4.0596729e-06
0.011199209
3.5961761e-06
0.011198258
3.1666357e-06
0.011197417
2.7710044e-06
0.011196678
2.4090118e-06
0.011196033
2.0801481e-06
0.011195474
1.7836139e-06
0.011194993
1.5183294e-06
0.011194581
1.2829351e-06
0.011194233
1.0758183e-06
0.011193939
8.9515831e-07
0.011193694
7.3896348e-07
0.011193491
6.0513897e-07
0.011193324
4.9152199e-07
0.011193188
3.9595738e-07
0.011193079
3.1632083e-07
0.011192991
2.5058696e-07
0.011192921
1.968361e-07
0.011192866
1.5330538e-07
0.011192823
1.1838133e-07
0.01119279
9.0630839e-08
0.011192765
6.8786525e-08
0.011192745
5.1755676e-08
0.011192731
3.860472e-08
0.01119272
2.854697e-08
0.011192712
2.0934323e-08
0.011192706
1.5225456e-08
0.011192702
1.0992416e-08
0.011192699
7.8770516e-09
0.011192696
5.6107537e-09
0.011192695
3.977222e-09
0.011192694
2.8159268e-09
0.011192693
2.0324447e-09
0.011192692
1.5052744e-09
0.011192692
1.2505151e-09
0.011192692
1.1155202e-09
0.011192692
1.2620853e-09
0.011192692
1.4162013e-09
1.7559736e-09
0.010097182
6.8393556e-05
0.010346961
0.00019901112
0.010662469
0.00028247387
0.010982753
0.00030866649
0.011290229
0.00030874342
0.011575251
0.00029875789
0.011829022
0.00028101346
0.012047865
0.00025698756
0.012233272
0.00023051982
0.01238924
0.0002051459
0.012520295
0.00018256237
0.012630755
0.00016299958
0.012724428
0.00014622492
0.012804515
0.00013190314
0.012873613
0.00011967428
0.012933772
0.00010917463
0.012986596
0.00010006909
0.013033332
9.2076397e-05
0.01307495
8.4975291e-05
0.013112216
7.8598659e-05
0.013145739
7.2822357e-05
0.013176012
6.7553999e-05
0.013203441
6.2723991e-05
0.013228366
5.827897e-05
0.013251071
5.4177067e-05
0.013271802
5.0384515e-05
0.013290769
4.6873245e-05
0.013308155
4.3619251e-05
0.013324119
4.0601507e-05
0.0133388
3.7801276e-05
0.013352321
3.5201659e-05
0.01336479
3.2787286e-05
0.013376304
3.0544107e-05
0.013386948
2.8459227e-05
0.013396797
2.6520784e-05
0.01340592
2.4717839e-05
0.013414376
2.3040289e-05
0.01342222
2.147878e-05
0.013429502
2.0024639e-05
0.013436264
1.8669795e-05
0.013442547
1.7406731e-05
0.013448387
1.6228419e-05
0.013453815
1.5128277e-05
0.013458861
1.4100135e-05
0.013463551
1.3138195e-05
0.013467908
1.2237034e-05
0.013471954
1.1391563e-05
0.013475708
1.0597059e-05
0.013479187
9.8491328e-06
0.013482406
9.1437893e-06
0.013485379
8.4773822e-06
0.01348812
7.8467009e-06
0.013490639
7.248899e-06
0.013492948
6.6815966e-06
0.013495058
6.1427735e-06
0.013496977
5.6308736e-06
0.013498715
5.1446598e-06
0.013500283
4.683308e-06
0.01350169
4.2462316e-06
0.013502945
3.8331593e-06
0.013504058
3.4439436e-06
0.013505039
3.0786211e-06
0.013505898
2.7372259e-06
0.013506645
2.4198377e-06
0.013507289
2.1264237e-06
0.013507841
1.8568748e-06
0.01350831
1.6108955e-06
0.013508706
1.3880349e-06
0.013509037
1.187633e-06
0.013509311
1.0088435e-06
0.013509536
8.5063452e-07
0.013509719
7.1180734e-07
0.013509867
5.910456e-07
0.013509985
4.869112e-07
0.013510079
3.9793232e-07
0.013510152
3.2257699e-07
0.013510209
2.5936362e-07
0.013510253
2.0680698e-07
0.013510286
1.6353988e-07
0.013510311
1.2823065e-07
0.01351033
9.9710168e-08
0.013510344
7.6864943e-08
0.013510354
5.8763887e-08
0.013510361
4.4530276e-08
0.013510366
3.3471982e-08
0.01351037
2.4934099e-08
0.013510373
1.8436139e-08
0.013510374
1.3507716e-08
0.013510375
9.8361628e-09
0.013510376
7.097263e-09
0.013510377
5.1011522e-09
0.013510377
3.6396977e-09
0.013510377
2.6050552e-09
0.013510377
1.8799918e-09
0.013510378
1.3956221e-09
0.013510378
1.1027845e-09
0.013510378
9.3894229e-10
0.013510378
9.3325732e-10
0.013510379
9.7721628e-10
1.1101382e-09
0.010068394
2.0795343e-13
0.010267405
4.9031602e-13
0.010549879
8.3977785e-13
0.010858545
1.2689457e-12
0.011167288
1.7620895e-12
0.011466046
2.3502175e-12
0.01174706
3.0656721e-12
0.012004047
3.9596206e-12
0.012234567
5.1011207e-12
0.012439713
6.5579826e-12
0.012622275
8.3916639e-12
0.012785275
1.0686284e-11
0.0129315
1.3432826e-11
0.013063403
1.6719443e-11
0.013183077
2.0447125e-11
0.013292252
2.4733809e-11
0.013392321
2.9470994e-11
0.013484397
3.4883085e-11
0.013569373
4.0942914e-11
0.013647971
4.8001784e-11
0.013720793
5.6052964e-11
0.013788347
6.5539717e-11
0.013851071
7.6302127e-11
0.01390935
8.8852267e-11
0.013963527
1.0262709e-10
0.014013912
1.1813833e-10
0.014060785
1.3438618e-10
0.014104404
1.5191806e-10
0.014145005
1.694036e-10
0.014182806
1.874787e-10
0.014218008
2.0471994e-10
0.014250795
2.2179865e-10
0.014281339
2.3709283e-10
0.014309798
2.509522e-10
0.014336318
2.6160971e-10
0.014361036
2.6903954e-10
0.014384076
2.7109118e-10
0.014405554
2.6705237e-10
0.014425578
2.5535564e-10
0.014444248
2.345233e-10
0.014461654
2.0422476e-10
0.014477883
1.6272352e-10
0.014493011
1.1270386e-10
0.014507111
5.2854904e-11
0.014520249
-2.0400029e-11
0.014532486
-1.0232149e-10
0.014543878
-1.844223e-10
0.014554475
-2.7384197e-10
0.014564325
-3.5679471e-10
0.014573469
-4.4362275e-10
0.014581947
-5.1661653e-10
0.014589794
-5.8906661e-10
0.014597044
-6.4072772e-10
0.014603726
-6.8921616e-10
0.014609869
-7.1274301e-10
0.014615501
-7.3090867e-10
0.014620646
-7.2234599e-10
0.01462533
-7.0917145e-10
0.014629577
-6.7208245e-10
0.014633411
-6.3125853e-10
0.014636856
-5.7099033e-10
0.014639935
-5.0978682e-10
0.014642673
-4.3624978e-10
0.014645093
-3.6387898e-10
0.01464722
-2.8585339e-10
0.014649077
-2.1132485e-10
0.014650688
-1.3845864e-10
0.014652076
-7.1255541e-11
0.014653264
-1.0277755e-11
0.014654272
5.1356321e-11
0.014655123
9.8811315e-11
0.014655835
1.4276007e-10
0.014656426
1.7504785e-10
0.014656912
2.068292e-10
0.01465731
2.2617015e-10
0.014657633
2.4699399e-10
0.014657892
2.5369378e-10
0.014658098
2.6401052e-10
0.014658262
2.5934231e-10
0.01465839
2.5884374e-10
0.014658489
2.4368768e-10
0.014658566
2.3643241e-10
0.014658625
2.1750687e-10
0.014658669
2.0939687e-10
0.014658702
1.9052963e-10
0.014658727
1.8481929e-10
0.014658745
1.6765083e-10
0.014658759
1.6208934e-10
0.014658768
1.4355293e-10
0.014658775
1.3787832e-10
0.01465878
1.2247144e-10
0.014658784
1.2366159e-10
0.014658786
1.1735967e-10
0.014658788
1.2763819e-10
0.01465879
1.2857029e-10
0.01465879
1.2837486e-10
0.014658791
1.3205587e-10
0.014658792
1.0738769e-10
0.014658793
1.1249826e-10
1.439912e-10
0.010068394
-6.8393556e-05
0.010267405
-0.00019901112
0.010549879
-0.00028247387
0.010858545
-0.00030866649
0.011167288
-0.00030874342
0.011466046
-0.00029875788
0.01174706
-0.00028101345
0.012004047
-0.00025698755
0.012234567
-0.00023051981
0.012439713
-0.00020514589
0.012622275
-0.00018256235
0.012785275
-0.00016299956
0.0129315
-0.0001462249
0.013063403
-0.00013190311
0.013183077
-0.00011967424
0.013292252
-0.00010917458
0.013392321
-0.00010006904
0.013484397
-9.2076331e-05
0.013569373
-8.4975214e-05
0.013647971
-7.8598568e-05
0.013720794
-7.2822251e-05
0.013788347
-6.7553875e-05
0.013851071
-6.2723848e-05
0.01390935
-5.8278803e-05
0.013963527
-5.4176874e-05
0.014013912
-5.0384294e-05
0.014060785
-4.6872995e-05
0.014104404
-4.3618969e-05
0.014145005
-4.0601193e-05
0.014182806
-3.780093e-05
0.014218008
-3.5201282e-05
0.014250795
-3.2786879e-05
0.014281339
-3.0543673e-05
0.014309798
-2.8458769e-05
0.014336318
-2.6520307e-05
0.014361036
-2.4717349e-05
0.014384076
-2.3039796e-05
0.014405555
-2.1478295e-05
0.014425579
-2.0024174e-05
0.014444249
-1.8669366e-05
0.014461655
-1.7406355e-05
0.014477883
-1.6228114e-05
0.014493011
-1.5128061e-05
0.014507111
-1.4100027e-05
0.01452025
-1.3138213e-05
0.014532487
-1.2237192e-05
0.014543878
-1.1391865e-05
0.014554476
-1.0597513e-05
0.014564325
-9.849735e-06
0.014573469
-9.1445399e-06
0.014581947
-8.4782655e-06
0.014589794
-7.8477087e-06
0.014597043
-7.250006e-06
0.014603725
-6.682789e-06
0.014609869
-6.1440181e-06
0.0146155
-5.6321529e-06
0.014620646
-5.1459379e-06
0.01462533
-4.6845687e-06
0.014629576
-4.2474404e-06
0.01463341
-3.8343026e-06
0.014636855
-3.4449929e-06
0.014639934
-3.0795683e-06
0.014642671
-2.7380513e-06
0.014645092
-2.420539e-06
0.014647218
-2.1269907e-06
0.014649075
-1.857311e-06
0.014650687
-1.6112017e-06
0.014652075
-1.3882183e-06
0.014653262
-1.1877006e-06
0.014654271
-1.0088027e-06
0.014655122
-8.5050158e-07
0.014655834
-7.1159248e-07
0.014656425
-5.9076415e-07
0.014656912
-4.8656956e-07
0.014657309
-3.9754703e-07
0.014657632
-3.2215282e-07
0.014657891
-2.5891833e-07
0.014658098
-2.0634385e-07
0.014658261
-1.6307847e-07
0.014658389
-1.2777329e-07
0.014658489
-9.9273807e-08
0.014658566
-7.6445605e-08
0.014658624
-5.8373195e-08
0.014658669
-4.4158785e-08
0.014658702
-3.3127691e-08
0.014658727
-2.4605285e-08
0.014658745
-1.813278e-08
0.014658759
-1.3221062e-08
0.014658768
-9.576498e-09
0.014658775
-6.8541284e-09
0.01465878
-4.8793015e-09
0.014658784
-3.4237445e-09
0.014658786
-2.392815e-09
0.014658788
-1.6565709e-09
0.01465879
-1.1675852e-09
0.01465879
-8.7376498e-10
0.014658791
-7.0301256e-10
0.014658792
-7.256103e-10
0.014658793
-7.6754667e-10
-8.6735406e-10
0.010097182
-0.00016557515
0.010346961
-0.000448791
0.010662469
-0.00059798177
0.010982753
-0.00062895025
0.011290229
-0.00061621886
0.011575251
-0.00058378055
0.011829022
-0.0005347842
0.012047865
-0.00047583049
0.012233272
-0.00041592665
0.01238924
-0.00036111399
0.012520295
-0.00031361711
0.012630755
-0.00027346025
0.012724428
-0.00023989717
0.012804515
-0.0002119903
0.012873613
-0.00018877259
0.012933772
-0.00016933386
0.012986596
-0.00015289294
0.013033332
-0.0001388118
0.01307495
-0.00012659376
0.013112216
-0.00011586441
0.013145739
-0.00010634489
0.013176012
-9.7826944e-05
0.013203441
-9.0153297e-05
0.013228366
-8.320329e-05
0.013251071
-7.6882522e-05
0.013271803
-7.1115447e-05
0.01329077
-6.5840147e-05
0.013308155
-6.1004717e-05
0.013324119
-5.6564809e-05
0.0133388
-5.2481974e-05
0.013352321
-4.8722508e-05
0.013364791
-4.5256633e-05
0.013376305
-4.2057878e-05
0.013386949
-3.9102606e-05
0.013396798
-3.6369625e-05
0.013405921
-3.383987e-05
0.013414377
-3.1496131e-05
0.013422222
-2.9322816e-05
0.013429503
-2.7305747e-05
0.013436266
-2.5431978e-05
0.013442549
-2.3689645e-05
0.013448389
-2.2067821e-05
0.013453817
-2.0556424e-05
0.013458863
-1.9146095e-05
0.013463553
-1.7828177e-05
0.01346791
-1.6594597e-05
0.013471956
-1.5437929e-05
0.01347571
-1.4351264e-05
0.013479188
-1.3328349e-05
0.013482407
-1.2363436e-05
0.01348538
-1.1451479e-05
0.013488121
-1.0587943e-05
0.013490639
-9.7690479e-06
0.013492948
-8.9915097e-06
0.013495057
-8.2528074e-06
0.013496976
-7.5508665e-06
0.013498714
-6.8843119e-06
0.013500281
-6.2521024e-06
0.013501688
-5.6537596e-06
0.013502942
-5.0889814e-06
0.013504055
-4.5578315e-06
0.013505036
-4.0603694e-06
0.013505895
-3.5968005e-06
0.013506641
-3.1671653e-06
0.013507286
-2.7714484e-06
0.013507838
-2.4093599e-06
0.013508307
-2.0804064e-06
0.013508702
-1.7837851e-06
0.013509033
-1.518416e-06
0.013509307
-1.2829493e-06
0.013509533
-1.0757593e-06
0.013509716
-8.9504709e-07
0.013509864
-7.3879206e-07
0.013509982
-6.0493312e-07
0.013510076
-4.9126878e-07
0.01351015
-3.9568756e-07
0.013510207
-3.1601713e-07
0.013510251
-2.5028518e-07
0.013510284
-1.9651767e-07
0.01351031
-1.530072e-07
0.013510329
-1.1807941e-07
0.013510343
-9.0359402e-08
0.013510353
-6.851581e-08
0.01351036
-5.15168e-08
0.013510366
-3.8362213e-08
0.013510369
-2.8334349e-08
0.013510372
-2.0717163e-08
0.013510374
-1.5040722e-08
0.013510375
-1.0804065e-08
0.013510376
-7.7214468e-09
0.013510376
-5.448687e-09
0.013510377
-3.8435073e-09
0.013510377
-2.6630647e-09
0.013510377
-1.8977883e-09
0.013510378
-1.3434798e-09
0.013510378
-1.0945795e-09
0.013510378
-9.4503809e-10
0.013510378
-1.0941383e-09
0.013510379
-1.2616332e-09
-1.6044992e-09
0.010188704
-0.00035427932
0.010530487
-0.00079057335
0.010851453
-0.00091894821
0.011124174
-0.00090167137
0.011350581
-0.00084262624
0.011524486
-0.00075768559
0.01164633
-0.00065662744
0.011724155
-0.00055365586
0.011767999
-0.00045977083
0.011786639
-0.00037975353
0.011787114
-0.00031409258
0.011775058
-0.00026140425
0.011754861
-0.00021969948
0.011729768
-0.00018689786
0.011702054
-0.00016105801
0.011673239
-0.00014051894
0.011644339
-0.00012399295
0.011616003
-0.00011047599
0.011588629
-9.9219849e-05
0.011562446
-8.9681375e-05
0.011537572
-8.1470633e-05
0.011514052
-7.4307807e-05
0.01149189
-6.7990456e-05
0.011471056
-6.2369949e-05
0.011451509
-5.7334973e-05
0.011433193
-5.2800138e-05
0.011416052
-4.8698209e-05
0.011400022
-4.4974877e-05
0.011385042
-4.1585278e-05
0.011371052
-3.849168e-05
0.011357991
-3.5661902e-05
0.011345803
-3.3068223e-05
0.011334431
-3.0686568e-05
0.011323825
-2.8495902e-05
0.011313933
-2.6477749e-05
0.011304709
-2.4615803e-05
0.011296108
-2.2895603e-05
0.01128809
-2.1304264e-05
0.011280614
-1.9830246e-05
0.011273645
-1.846315e-05
0.011267149
-1.7193561e-05
0.011261094
-1.6012899e-05
0.011255451
-1.4913317e-05
0.011250192
-1.3887597e-05
0.011245293
-1.2929097e-05
0.01124073
-1.203169e-05
0.011236482
-1.1189751e-05
0.011232528
-1.0398129e-05
0.011228852
-9.6521595e-06
0.011225436
-8.9476542e-06
0.011222266
-8.2809325e-06
0.011219326
-7.6488059e-06
0.011216606
-7.0486034e-06
0.011214092
-6.4781424e-06
0.011211775
-5.9357378e-06
0.011209644
-5.420142e-06
0.01120769
-4.9305278e-06
0.011205905
-4.4664031e-06
0.011204278
-4.0275727e-06
0.011202803
-3.6140324e-06
0.011201471
-3.2259176e-06
0.011200274
-2.8633978e-06
0.011199204
-2.5266267e-06
0.011198253
-2.215653e-06
0.011197411
-1.930386e-06
0.011196673
-1.6705365e-06
0.011196028
-1.4356042e-06
0.011195469
-1.2248569e-06
0.011194988
-1.0373426e-06
0.011194577
-8.7190064e-07
0.011194228
-7.2719103e-07
0.011193935
-6.0173139e-07
0.01119369
-4.9393638e-07
0.011193487
-4.0216435e-07
0.011193321
-3.2475194e-07
0.011193185
-2.6006262e-07
0.011193076
-2.0651316e-07
0.011192988
-1.6260865e-07
0.011192919
-1.2695207e-07
0.011192864
-9.8270648e-08
0.011192821
-7.5416579e-08
0.011192788
-5.7377617e-08
0.011192763
-4.3270185e-08
0.011192744
-3.2338954e-08
0.01119273
-2.3952768e-08
0.011192719
-1.7582186e-08
0.011192711
-1.2798089e-08
0.011192705
-9.2379797e-09
0.011192701
-6.6234536e-09
0.011192698
-4.7116331e-09
0.011192696
-3.3335305e-09
0.011192695
-2.3368724e-09
0.011192694
-1.6408667e-09
0.011192693
-1.1708565e-09
0.011192692
-8.8100174e-10
0.011192692
-7.6002107e-10
0.011192692
-7.9085646e-10
0.011192692
-1.0272998e-09
0.011192692
-1.3655414e-09
-1.9349052e-09
0.010339525
-0.00069380425
0.010570754
-0.0010218027
0.010606301
-0.00095449449
0.010547572
-0.00084294334
0.010422317
-0.0007173708
0.010244356
-0.00057972444
0.010039421
-0.00045169204
0.0098287427
-0.00034297801
0.009625135
-0.00025616317
0.0094353013
-0.00018991983
0.0092624277
-0.00014121897
0.0091075332
-0.00010650979
0.008970154
-8.2320216e-05
0.0088489024
-6.564624e-05
0.0087419716
-5.4127251e-05
0.0086474927
-4.6040046e-05
0.008563694
-4.0194291e-05
0.0084890108
-3.5792754e-05
0.0084221097
-3.2318755e-05
0.0083618776
-2.9449274e-05
0.0083073956
-2.6988566e-05
0.008257908
-2.482029e-05
0.0082127931
-2.2875472e-05
0.0081715355
-2.1112415e-05
0.0081337052
-1.9504662e-05
0.0080989391
-1.8034035e-05
0.0080669276
-1.6686758e-05
0.0080374042
-1.545141e-05
0.0080101368
-1.4317923e-05
0.0079849223
-1.3277151e-05
0.007961581
-1.2320693e-05
0.0079399537
-1.1440848e-05
0.0079198977
-1.0630588e-05
0.0079012853
-9.8835335e-06
0.0078840014
-9.193925e-06
0.0078679422
-8.5565757e-06
0.0078530134
-7.9668188e-06
0.0078391295
-7.420456e-06
0.0078262129
-6.9136955e-06
0.0078141928
-6.4431062e-06
0.0078030047
-6.0055586e-06
0.00779259
-5.5981987e-06
0.007782895
-5.2183902e-06
0.0077738711
-4.863714e-06
0.0077654739
-4.5319123e-06
0.0077576631
-4.2209206e-06
0.0077504022
-3.9288039e-06
0.0077436579
-3.6538205e-06
0.0077374001
-3.3943488e-06
0.0077316015
-3.1489794e-06
0.0077262371
-2.9164223e-06
0.0077212839
-2.6956201e-06
0.0077167211
-2.4856325e-06
0.0077125288
-2.2857637e-06
0.0077086886
-2.0954208e-06
0.0077051828
-1.9142429e-06
0.0077019944
-1.7419414e-06
0.0076991065
-1.5784249e-06
0.0076965027
-1.4236292e-06
0.0076941664
-1.2776298e-06
0.0076920811
-1.14048e-06
0.0076902301
-1.0123042e-06
0.0076885968
-8.9316195e-07
0.0076871643
-7.8311754e-07
0.0076859161
-6.8214459e-07
0.0076848358
-5.9016573e-07
0.0076839072
-5.0701175e-07
0.0076831148
-4.3242886e-07
0.0076824436
-3.6609153e-07
0.0076818793
-3.0757452e-07
0.0076814085
-2.5642108e-07
0.0076810189
-2.1207993e-07
0.007680699
-1.7401572e-07
0.0076804385
-1.4160932e-07
0.0076802281
-1.1430738e-07
0.0076800596
-9.1488138e-08
0.0076799257
-7.2633411e-08
0.0076798203
-5.7163744e-08
0.007679738
-4.4630617e-08
0.0076796743
-3.4532394e-08
0.0076796254
-2.6510201e-08
0.0076795883
-2.0153168e-08
0.0076795603
-1.5201922e-08
0.0076795394
-1.1341842e-08
0.0076795239
-8.4076985e-09
0.0076795125
-6.1604155e-09
0.0076795042
-4.5038487e-09
0.0076794982
-3.2523277e-09
0.0076794939
-2.3587897e-09
0.0076794909
-1.6758565e-09
0.0076794887
-1.2021877e-09
0.0076794873
-8.2862884e-10
0.0076794863
-5.9953564e-10
0.0076794856
-4.1724275e-10
0.0076794851
-3.5213031e-10
0.0076794846
-3.3417888e-10
0.0076794841
-4.2133482e-10
0.0076794837
-5.8579596e-10
0.0076794834
-1.0216054e-09
-1.548669e-09
0.0093061957
0.0082843931
0.0073298986
0.0064869553
0.0057695845
0.00518986
0.004738168
0.00439519
0.0041390268
0.003949107
0.003807888
0.0037013782
0.003619058
0.0035534117
0.0034992845
0.0034532444
0.0034130502
0.0033772574
0.0033449386
0.0033154894
0.0032885008
0.0032636805
0.0032408051
0.0032196926
0.003200188
0.0031821539
0.0031654672
0.0031500158
0.0031356978
0.0031224207
0.0031101
0.0030986591
0.0030880285
0.003078145
0.0030689511
0.0030603945
0.0030524276
0.0030450072
0.0030380934
0.0030316503
0.0030256447
0.0030200465
0.0030148282
0.0030099645
0.0030054326
0.0030012117
0.0029972829
0.0029936292
0.0029902349
0.0029870861
0.0029841697
0.0029814742
0.0029789887
0.0029767031
0.0029746078
0.0029726937
0.0029709519
0.0029693736
0.0029679501
0.0029666726
0.0029655322
0.00296452
0.0029636269
0.0029628438
0.0029621617
0.0029615716
0.0029610646
0.0029606322
0.0029602661
0.0029599586
0.0029597022
0.0029594901
0.0029593161
0.0029591745
0.0029590603
0.0029589688
0.0029588962
0.002958839
0.0029587944
0.0029587599
0.0029587334
0.0029587132
0.0029586981
0.0029586868
0.0029586784
0.0029586723
0.0029586678
0.0029586645
0.0029586621
0.0029586604
0.0029586593
0.0029586584
0.0029586579
0.0029586575
0.0029586571
0.0029586567
0.0029586563
0.0029586557
0.0029586547
)
;

boundaryField
{
    top
    {
        type            calculated;
        value           uniform 0;
    }
    inlet
    {
        type            calculated;
        value           nonuniform List<scalar> 10(-0.01 -0.01 -0.01 -0.01 -0.01 -0.01 -0.01 -0.01 -0.01 -0.01);
    }
    outlet
    {
        type            calculated;
        value           nonuniform List<scalar> 10(0.002958653 0.0076794827 0.011192692 0.01351038 0.014658794 0.014658794 0.01351038 0.011192692 0.007679483 0.0029586531);
    }
    bottom
    {
        type            calculated;
        value           uniform 0;
    }
    back
    {
        type            empty;
        value           nonuniform 0();
    }
    front
    {
        type            empty;
        value           nonuniform 0();
    }
}


// ************************************************************************* //
