/*--------------------------------*- C++ -*----------------------------------*\
| =========                 |                                                 |
| \\      /  F ield         | OpenFOAM: The Open Source CFD Toolbox           |
|  \\    /   O peration     | Version:  v1812                                 |
|   \\  /    A nd           | Web:      www.OpenFOAM.com                      |
|    \\/     M anipulation  |                                                 |
\*---------------------------------------------------------------------------*/
FoamFile
{
    version     2.0;
    format      ascii;
    class       volScalarField;
    location    "7.65";
    object      p;
}
// * * * * * * * * * * * * * * * * * * * * * * * * * * * * * * * * * * * * * //

dimensions      [0 2 -2 0 0 0 0];


internalField   nonuniform List<scalar> 
1000
(
1.6753891
1.5543112
1.4583307
1.3946746
1.3461651
1.303693
1.2661578
1.2339861
1.2065857
1.1827481
1.1613538
1.14159
1.1229129
1.1049733
1.087558
1.0705438
1.0538629
1.0374787
1.0213705
1.0055246
0.98992964
0.97457455
0.95944786
0.94453762
0.92983161
0.9153176
0.90098362
0.8868181
0.87281004
0.85894904
0.84522534
0.83162981
0.81815394
0.80478978
0.79152995
0.77836757
0.76529624
0.75231001
0.73940332
0.72657099
0.71380819
0.70111039
0.68847337
0.67589318
0.66336613
0.65088876
0.63845785
0.6260704
0.6137236
0.60141484
0.58914168
0.57690183
0.56469317
0.5525137
0.54036158
0.52823506
0.51613254
0.50405253
0.49199365
0.47995462
0.46793424
0.45593141
0.44394508
0.43197428
0.42001809
0.40807564
0.39614609
0.38422869
0.37232268
0.36042738
0.34854208
0.33666612
0.32479884
0.31293959
0.30108774
0.28924266
0.2774038
0.26557061
0.25374261
0.2419193
0.23010022
0.2182849
0.20647289
0.19466373
0.18285701
0.1710524
0.15924959
0.14744837
0.13564855
0.12384996
0.11205241
0.10025572
0.088459695
0.076664164
0.064868994
0.053074108
0.041279467
0.029485062
0.01769088
0.0058968941
1.5581694
1.5032403
1.4422878
1.3907201
1.3474501
1.3084818
1.2728955
1.2411229
1.213162
1.1883841
1.1659823
1.1452809
1.1257993
1.1072112
1.0892976
1.0719129
1.054961
1.0383796
1.022127
1.0061735
0.99049645
0.97507693
0.95989809
0.94494443
0.93020137
0.91565514
0.90129271
0.88710182
0.87307098
0.8591894
0.84544705
0.83183456
0.81834323
0.80496496
0.79169221
0.77851799
0.7654358
0.75243957
0.73952367
0.72668284
0.7139122
0.70120715
0.68856343
0.67597702
0.66344421
0.6509615
0.63852563
0.62613356
0.61378247
0.60146971
0.58919281
0.57694948
0.56473756
0.55255504
0.54040006
0.52827086
0.51616582
0.50408343
0.4920223
0.47998114
0.46795874
0.455954
0.44396585
0.43199333
0.42003551
0.4080915
0.3961605
0.3842417
0.37233439
0.36043785
0.3485514
0.33667437
0.32480611
0.31294596
0.30109328
0.28924745
0.27740791
0.26557412
0.25374556
0.24192176
0.23010225
0.21828657
0.20647425
0.19466485
0.18285793
0.17105314
0.15925019
0.14744884
0.1356489
0.12385021
0.11205258
0.10025584
0.088459782
0.076664236
0.064869059
0.053074165
0.041279508
0.029485082
0.01769088
0.0058968784
1.4973482
1.4711731
1.4327762
1.3916433
1.352558
1.3159672
1.2816696
1.249952
1.2210959
1.1949949
1.1712409
1.1493509
1.1289011
1.1095602
1.09108
1.073279
1.0560271
1.0392315
1.0228254
1.0067603
0.99099995
0.97551628
0.96028642
0.94529093
0.93051265
0.91593615
0.90154731
0.88733312
0.87328156
0.8593815
0.84562259
0.83199523
0.81849052
0.80510018
0.79181653
0.77863244
0.76554129
0.75253691
0.73961359
0.72676599
0.71398915
0.70127842
0.6886295
0.67603832
0.66350111
0.65101435
0.63857474
0.62617922
0.61382493
0.60150921
0.58922957
0.57698368
0.5647694
0.55258468
0.54042765
0.52829654
0.51618972
0.50410566
0.49204297
0.48000033
0.46797655
0.4559705
0.44398112
0.43200743
0.4200485
0.40810345
0.39617145
0.38425171
0.3723435
0.36044611
0.34855886
0.33668108
0.32481211
0.31295131
0.30109803
0.28925165
0.2774116
0.26557733
0.25374833
0.24192412
0.23010425
0.21828826
0.20647567
0.19466604
0.18285894
0.17105399
0.1592509
0.14744942
0.13564936
0.12385055
0.11205283
0.10025601
0.088459914
0.076664349
0.06486916
0.053074255
0.041279577
0.029485121
0.017690884
0.005896866
1.4679396
1.4524415
1.4255716
1.3916477
1.3558467
1.3208954
1.2875935
1.2562404
1.2271097
1.2003183
1.1757307
1.1530385
1.1318867
1.111958
1.0929997
1.07482
1.0572743
1.0402533
1.0236747
1.0074767
0.9916127
0.97604696
0.96075101
0.94570134
0.9308779
0.91626316
0.9018415
0.88759885
0.87352238
0.85960037
0.84582201
0.83217733
0.81865714
0.80525291
0.79195676
0.77876139
0.76566003
0.7526464
0.73971465
0.72685938
0.71407552
0.70135839
0.68870358
0.67610701
0.66356485
0.65107353
0.63862973
0.62623033
0.61387247
0.60155344
0.58927073
0.57702202
0.56480511
0.55261797
0.54045869
0.52832551
0.51621676
0.50413092
0.49206657
0.48002239
0.46799717
0.45598977
0.44399913
0.43202426
0.42006422
0.40811812
0.39618512
0.38426444
0.37235533
0.36045707
0.34856899
0.33669042
0.3248207
0.31295917
0.30110521
0.28925818
0.27741751
0.26558264
0.25375307
0.24192833
0.23010796
0.2182915
0.2064785
0.1946685
0.18286108
0.17105585
0.1592525
0.14745077
0.13565048
0.12385147
0.11205357
0.10025661
0.088460391
0.07666474
0.064869486
0.053074528
0.041279793
0.029485284
0.017690979
0.0058969229
1.4552081
1.4432547
1.4210204
1.3907328
1.3568716
1.322876
1.2901785
1.2591729
1.2300755
1.2030637
1.1781366
1.155087
1.1336055
1.1133879
1.0941843
1.0758021
1.0580932
1.0409427
1.0242618
1.0079827
0.99205373
0.97643519
0.96109568
0.94600953
0.93115507
0.91651357
0.90206857
0.88780536
0.87371066
0.85977236
0.8459794
0.8323216
0.81878956
0.80537462
0.79206876
0.77886458
0.76575519
0.75273424
0.73979582
0.72693444
0.71414499
0.70142273
0.68876322
0.67616233
0.66361619
0.65112121
0.63867403
0.62627152
0.61391077
0.60158908
0.58930391
0.57705293
0.56483391
0.55264483
0.54048376
0.52834891
0.51623863
0.50415137
0.49208571
0.48004032
0.46801397
0.45600552
0.44401391
0.43203812
0.42007723
0.40813032
0.39619656
0.38427515
0.37236534
0.36046642
0.34857771
0.33669852
0.3248282
0.31296611
0.30111159
0.28926403
0.27742284
0.26558748
0.25375744
0.24193224
0.23011144
0.21829458
0.20648122
0.19467089
0.18286317
0.17105766
0.15925406
0.14745211
0.13565161
0.1238524
0.11205433
0.10025723
0.088460897
0.076665156
0.064869829
0.053074811
0.041280018
0.02948546
0.017691092
0.0058970012
1.4552081
1.4432547
1.4210204
1.3907328
1.3568716
1.322876
1.2901785
1.2591729
1.2300755
1.2030637
1.1781366
1.155087
1.1336055
1.1133879
1.0941843
1.0758021
1.0580932
1.0409427
1.0242618
1.0079827
0.99205373
0.97643519
0.96109568
0.94600953
0.93115507
0.91651357
0.90206857
0.88780536
0.87371065
0.85977236
0.8459794
0.83232159
0.81878956
0.80537462
0.79206876
0.77886458
0.76575519
0.75273424
0.73979582
0.72693444
0.71414499
0.70142273
0.68876322
0.67616233
0.66361619
0.65112121
0.63867403
0.62627152
0.61391078
0.60158908
0.58930392
0.57705293
0.56483392
0.55264483
0.54048376
0.52834891
0.51623863
0.50415138
0.49208571
0.48004032
0.46801397
0.45600553
0.44401391
0.43203813
0.42007723
0.40813032
0.39619656
0.38427515
0.37236534
0.36046642
0.3485777
0.33669851
0.3248282
0.31296611
0.3011116
0.28926404
0.27742284
0.26558747
0.25375742
0.24193222
0.23011143
0.21829457
0.20648121
0.19467089
0.18286318
0.17105767
0.15925407
0.14745211
0.1356516
0.12385239
0.11205432
0.10025722
0.088460893
0.076665155
0.06486983
0.053074813
0.04128002
0.029485462
0.017691094
0.0058970017
1.4679396
1.4524415
1.4255716
1.3916477
1.3558467
1.3208954
1.2875935
1.2562404
1.2271097
1.2003183
1.1757307
1.1530385
1.1318867
1.111958
1.0929997
1.07482
1.0572743
1.0402533
1.0236747
1.0074767
0.99161269
0.97604697
0.96075101
0.94570134
0.93087791
0.91626316
0.9018415
0.88759884
0.87352238
0.85960036
0.845822
0.83217733
0.81865714
0.80525291
0.79195677
0.7787614
0.76566004
0.7526464
0.73971465
0.72685937
0.71407551
0.70135838
0.68870357
0.67610701
0.66356485
0.65107354
0.63862974
0.62623035
0.61387248
0.60155345
0.58927074
0.57702202
0.56480511
0.55261797
0.5404587
0.52832551
0.51621676
0.50413093
0.49206657
0.4800224
0.46799718
0.45598978
0.44399915
0.43202428
0.42006423
0.40811812
0.39618511
0.38426442
0.3723553
0.36045705
0.34856897
0.33669041
0.3248207
0.31295919
0.30110522
0.28925819
0.2774175
0.26558261
0.25375303
0.24192829
0.23010792
0.21829148
0.2064785
0.19466852
0.18286111
0.17105588
0.15925251
0.14745077
0.13565047
0.12385144
0.11205354
0.10025658
0.088460379
0.076664736
0.064869489
0.053074534
0.041279799
0.02948529
0.017690984
0.0058969239
1.4973482
1.4711731
1.4327762
1.3916433
1.352558
1.3159672
1.2816696
1.249952
1.2210959
1.1949949
1.1712409
1.1493509
1.1289011
1.1095602
1.09108
1.073279
1.0560271
1.0392315
1.0228254
1.0067603
0.99099995
0.97551628
0.96028643
0.94529094
0.93051266
0.91593616
0.9015473
0.88733311
0.87328155
0.85938148
0.84562258
0.83199523
0.81849052
0.80510019
0.79181655
0.77863246
0.7655413
0.75253692
0.73961358
0.72676598
0.71398913
0.70127841
0.68862948
0.67603831
0.66350111
0.65101436
0.63857476
0.62617924
0.61382495
0.60150922
0.58922957
0.57698369
0.5647694
0.55258468
0.54042765
0.52829654
0.51618972
0.50410567
0.49204298
0.48000035
0.46797657
0.45597052
0.44398114
0.43200745
0.42004851
0.40810345
0.39617143
0.38425168
0.37234346
0.36044607
0.34855884
0.33668108
0.32481213
0.31295134
0.30109806
0.28925167
0.27741159
0.26557728
0.25374826
0.24192406
0.2301042
0.21828823
0.20647568
0.19466607
0.18285899
0.17105404
0.15925092
0.14744941
0.13564933
0.1238505
0.11205279
0.10025598
0.088459901
0.076664348
0.064869168
0.053074266
0.041279587
0.029485129
0.017690889
0.0058968675
1.5581694
1.5032403
1.4422878
1.3907201
1.3474501
1.3084818
1.2728955
1.2411229
1.213162
1.1883841
1.1659823
1.1452809
1.1257993
1.1072112
1.0892976
1.0719129
1.054961
1.0383796
1.022127
1.0061735
0.99049645
0.97507694
0.9598981
0.94494444
0.93020138
0.91565514
0.9012927
0.88710181
0.87307096
0.85918938
0.84544703
0.83183456
0.81834324
0.80496497
0.79169223
0.77851801
0.76543581
0.75243957
0.73952366
0.72668283
0.71391218
0.70120713
0.68856341
0.67597702
0.66344422
0.65096152
0.63852565
0.62613359
0.61378249
0.60146972
0.58919282
0.57694948
0.56473756
0.55255504
0.54040006
0.52827086
0.51616582
0.50408344
0.49202231
0.47998115
0.46795876
0.45595402
0.44396588
0.43199336
0.42003552
0.4080915
0.39616047
0.38424166
0.37233434
0.36043781
0.34855138
0.33667438
0.32480614
0.31294599
0.30109331
0.28924746
0.27740789
0.26557406
0.25374548
0.24192168
0.2301022
0.21828656
0.20647428
0.1946649
0.18285799
0.17105318
0.1592502
0.14744882
0.13564886
0.12385016
0.11205254
0.10025581
0.088459772
0.076664238
0.064869066
0.053074174
0.041279516
0.029485091
0.017690889
0.0058968829
1.6753891
1.5543112
1.4583307
1.3946746
1.3461651
1.303693
1.2661578
1.2339861
1.2065857
1.1827481
1.1613538
1.14159
1.1229129
1.1049733
1.087558
1.0705438
1.0538629
1.0374787
1.0213705
1.0055246
0.98992964
0.97457455
0.95944787
0.94453763
0.92983162
0.9153176
0.90098361
0.88681808
0.87281002
0.85894902
0.84522533
0.83162981
0.81815394
0.80478979
0.79152996
0.77836758
0.76529625
0.75231001
0.73940331
0.72657098
0.71380817
0.70111038
0.68847337
0.67589318
0.66336614
0.65088878
0.63845787
0.62607042
0.61372362
0.60141485
0.58914169
0.57690183
0.56469317
0.55251371
0.54036158
0.52823506
0.51613254
0.50405254
0.49199366
0.47995463
0.46793426
0.45593143
0.4439451
0.4319743
0.42001809
0.40807562
0.39614606
0.38422864
0.37232264
0.36042734
0.34854207
0.33666613
0.32479887
0.31293963
0.30108775
0.28924265
0.27740376
0.26557055
0.25374254
0.24191924
0.23010019
0.21828491
0.20647292
0.19466377
0.18285705
0.17105241
0.15924959
0.14744836
0.13564853
0.12384994
0.11205239
0.10025571
0.08845968
0.076664149
0.064868983
0.053074105
0.041279475
0.029485081
0.017690902
0.0058969045
)
;

boundaryField
{
    top
    {
        type            zeroGradient;
    }
    inlet
    {
        type            zeroGradient;
    }
    outlet
    {
        type            fixedValue;
        value           uniform 0;
    }
    bottom
    {
        type            zeroGradient;
    }
    back
    {
        type            empty;
    }
    front
    {
        type            empty;
    }
}


// ************************************************************************* //
