/*--------------------------------*- C++ -*----------------------------------*\
| =========                 |                                                 |
| \\      /  F ield         | OpenFOAM: The Open Source CFD Toolbox           |
|  \\    /   O peration     | Version:  v1812                                 |
|   \\  /    A nd           | Web:      www.OpenFOAM.com                      |
|    \\/     M anipulation  |                                                 |
\*---------------------------------------------------------------------------*/
FoamFile
{
    version     2.0;
    format      ascii;
    class       surfaceScalarField;
    location    "7.65";
    object      phi;
}
// * * * * * * * * * * * * * * * * * * * * * * * * * * * * * * * * * * * * * //

dimensions      [0 3 -1 0 0 0 0];
oriented        oriented;


internalField   nonuniform List<scalar> 
1890
(
0.0093061957
0.00069380425
0.0082843931
0.0010218027
0.0073298986
0.00095449449
0.0064869553
0.00084294334
0.0057695845
0.0007173708
0.00518986
0.00057972444
0.004738168
0.00045169205
0.00439519
0.00034297801
0.0041390268
0.00025616318
0.0039491069
0.00018991983
0.003807888
0.00014121897
0.0037013782
0.0001065098
0.003619058
8.2320218e-05
0.0035534117
6.5646242e-05
0.0034992845
5.4127252e-05
0.0034532444
4.6040048e-05
0.0034130501
4.0194295e-05
0.0033772574
3.579276e-05
0.0033449386
3.2318764e-05
0.0033154893
2.9449285e-05
0.0032885007
2.6988579e-05
0.0032636804
2.4820302e-05
0.003240805
2.2875481e-05
0.0032196926
2.1112419e-05
0.0032001879
1.9504659e-05
0.0031821539
1.8034023e-05
0.0031654671
1.6686736e-05
0.0031500158
1.5451376e-05
0.0031356979
1.4317875e-05
0.0031224208
1.3277084e-05
0.0031101001
1.2320603e-05
0.0030986594
1.1440732e-05
0.003088029
1.0630448e-05
0.0030781456
9.8833834e-06
0.0030689518
9.1937971e-06
0.0030603953
8.5565323e-06
0.0030524284
7.966968e-06
0.0030450074
7.4209677e-06
0.0030380925
6.9148265e-06
0.0030316473
6.4452227e-06
0.0030256381
6.0091714e-06
0.0030200341
5.6039849e-06
0.0030148069
5.2272364e-06
0.0030099302
4.8767275e-06
0.0030053797
4.5504615e-06
0.0030011331
4.2466175e-06
0.0029971696
3.9635296e-06
0.00299347
3.6996668e-06
0.0029900164
3.4536165e-06
0.0029867923
3.2240702e-06
0.0029837824
3.0098112e-06
0.0029809727
2.8097039e-06
0.00297835
2.6226874e-06
0.0029759023
2.4477666e-06
0.0029736183
2.2840112e-06
0.0029714878
2.1305471e-06
0.0029695013
1.9865596e-06
0.0029676501
1.8512851e-06
0.0029659262
1.7240186e-06
0.0029643221
1.6041044e-06
0.0029628312
1.4909472e-06
0.0029614473
1.384003e-06
0.0029601645
1.2827925e-06
0.0029589777
1.1868896e-06
0.0029578819
1.0959361e-06
0.0029568723
1.0096252e-06
0.0029559447
9.277146e-07
0.0029550948
8.5000575e-07
0.0029543185
7.763532e-07
0.0029536118
7.066415e-07
0.0029529711
6.4079415e-07
0.0029523923
5.7874946e-07
0.0029518719
5.2047257e-07
0.0029514061
4.6593033e-07
0.0029509911
4.1510241e-07
0.0029506232
3.6795993e-07
0.0029502987
3.244676e-07
0.0029500141
2.8456944e-07
0.0029497658
2.4818571e-07
0.0029495505
2.1520833e-07
0.0029493649
1.8550398e-07
0.002949206
1.5891508e-07
0.0029490707
1.352717e-07
0.0029489565
1.1439269e-07
0.0029488605
9.6093215e-08
0.0029487804
8.0184409e-08
0.0029487139
6.6469429e-08
0.0029486591
5.4746538e-08
0.0029486141
4.480621e-08
0.0029485775
3.6433773e-08
0.002948548
2.9431086e-08
0.0029485244
2.3595919e-08
0.0029485057
1.878347e-08
0.002948491
1.4821016e-08
0.0029484795
1.1643413e-08
0.0029484705
9.0700339e-09
0.0029484633
7.1334531e-09
0.0029484576
5.5656987e-09
0.0029484529
4.6242137e-09
3.6512293e-09
0.010339525
0.00035427932
0.010570754
0.00079057335
0.010606301
0.00091894821
0.010547572
0.00090167137
0.010422317
0.00084262624
0.010244356
0.00075768559
0.010039421
0.00065662744
0.0098287426
0.00055365586
0.009625135
0.00045977083
0.0094353013
0.00037975354
0.0092624277
0.00031409259
0.0091075332
0.00026140426
0.008970154
0.00021969948
0.0088489023
0.00018689786
0.0087419716
0.00016105802
0.0086474927
0.00014051895
0.008563694
0.00012399297
0.0084890107
0.00011047601
0.0084221096
9.9219876e-05
0.0083618775
8.9681408e-05
0.0083073954
8.1470671e-05
0.0082579078
7.430785e-05
0.0082127928
6.7990503e-05
0.0081715353
6.237e-05
0.0081337049
5.7335029e-05
0.0080989387
5.2800203e-05
0.0080669272
4.8698289e-05
0.0080374036
4.497498e-05
0.008010136
4.1585418e-05
0.0079849212
3.8491875e-05
0.0079615796
3.5662185e-05
0.0079399517
3.3068645e-05
0.0079198949
3.0687211e-05
0.0079012814
2.8496899e-05
0.007883996
2.6479304e-05
0.0078679343
2.4618223e-05
0.0078530019
2.2899339e-05
0.0078391129
2.1309957e-05
0.0078261889
1.9838785e-05
0.0078141584
1.8475743e-05
0.0078029557
1.7211801e-05
0.0077925209
1.603885e-05
0.0077827985
1.4949578e-05
0.0077737379
1.3937371e-05
0.0077652921
1.2996232e-05
0.0077574181
1.2120698e-05
0.0077500759
1.1305779e-05
0.0077432286
1.0546902e-05
0.0077368424
9.8398577e-06
0.0077308857
9.1807593e-06
0.0077253295
8.5660051e-06
0.0077201469
7.9922485e-06
0.0077153132
7.4563698e-06
0.0077108055
6.9554602e-06
0.0077066027
6.4867994e-06
0.0077026854
6.0478506e-06
0.0076990358
5.6362431e-06
0.0076956373
5.2497765e-06
0.0076924749
4.8864075e-06
0.0076895348
4.54426e-06
0.0076868041
4.2216143e-06
0.0076842712
3.9169237e-06
0.0076819252
3.6288002e-06
0.0076797561
3.3560344e-06
0.0076777544
3.097575e-06
0.0076759116
2.8525449e-06
0.0076742191
2.6202133e-06
0.0076726691
2.4000033e-06
0.007671254
2.1914564e-06
0.0076699663
1.9942344e-06
0.007668799
1.8080784e-06
0.0076677449
1.6328094e-06
0.0076667971
1.468287e-06
0.0076659486
1.3144084e-06
0.0076651927
1.1710749e-06
0.0076645225
1.0381811e-06
0.0076639314
9.1559412e-07
0.0076634127
8.0313323e-07
0.0076629602
7.0056341e-07
0.0076625677
6.0758025e-07
0.0076622292
5.2381696e-07
0.0076619392
4.4884432e-07
0.0076616923
3.821901e-07
0.0076614835
3.2333846e-07
0.007661308
2.7176184e-07
0.0076611613
2.2689526e-07
0.0076610396
1.8818625e-07
0.0076609392
1.5504108e-07
0.007660857
1.2690041e-07
0.0076607901
1.0316546e-07
0.0076607361
8.3317344e-08
0.0076606928
6.6791499e-08
0.0076606585
5.3193825e-08
0.0076606315
4.2001616e-08
0.0076606102
3.3033177e-08
0.0076605936
2.5695583e-08
0.0076605805
2.0175758e-08
0.0076605705
1.546136e-08
0.0076605624
1.2677452e-08
9.0710278e-09
0.010188704
0.00016557515
0.010530487
0.000448791
0.010851453
0.00059798177
0.011124174
0.00062895025
0.011350581
0.00061621887
0.011524486
0.00058378055
0.01164633
0.00053478421
0.011724155
0.0004758305
0.011767999
0.00041592666
0.011786639
0.000361114
0.011787114
0.00031361712
0.011775058
0.00027346026
0.011754861
0.00023989719
0.011729768
0.00021199031
0.011702054
0.00018877261
0.011673239
0.00016933389
0.011644339
0.00015289297
0.011616003
0.00013881184
0.011588629
0.0001265938
0.011562446
0.00011586446
0.011537571
0.00010634495
0.011514052
9.7827014e-05
0.011491889
9.0153378e-05
0.011471056
8.3203383e-05
0.011451509
7.6882632e-05
0.011433193
7.1115583e-05
0.011416051
6.5840319e-05
0.011400021
6.1004941e-05
0.011385041
5.6565108e-05
0.011371051
5.2482383e-05
0.01135799
4.872308e-05
0.011345801
4.5257448e-05
0.011334429
4.2059062e-05
0.011323822
3.9104348e-05
0.011313929
3.6372207e-05
0.011304704
3.3843702e-05
0.011296101
3.1501798e-05
0.01128808
2.9331132e-05
0.011280601
2.7317825e-05
0.011273627
2.5449306e-05
0.011267125
2.3714171e-05
0.011261062
2.2102047e-05
0.011255408
2.0603483e-05
0.011250135
1.9209852e-05
0.011245218
1.7913255e-05
0.011240633
1.6706451e-05
0.011236356
1.558278e-05
0.011232366
1.4536106e-05
0.011228646
1.3560758e-05
0.011225175
1.2651481e-05
0.011221937
1.1803394e-05
0.011218918
1.1011952e-05
0.011216101
1.0272916e-05
0.011213474
9.5823249e-06
0.011211025
8.9364733e-06
0.01120874
8.3318977e-06
0.011206611
7.7653617e-06
0.011204627
7.2338475e-06
0.011202779
6.7345525e-06
0.011201059
6.2648843e-06
0.011199458
5.8224655e-06
0.01119797
5.4051299e-06
0.011196587
5.0109327e-06
0.011195305
4.6381424e-06
0.011194118
4.2852525e-06
0.011193019
3.9509632e-06
0.011192005
3.6341897e-06
0.011191071
3.3340323e-06
0.011190213
3.0497783e-06
0.011189426
2.7808615e-06
0.011188708
2.5268595e-06
0.011188053
2.2874465e-06
0.011187459
2.0623897e-06
0.011186922
1.8515001e-06
0.011186438
1.6546278e-06
0.011186005
1.4716155e-06
0.011185618
1.3022924e-06
0.011185275
1.1464348e-06
0.011184971
1.0037627e-06
0.011184705
8.7391465e-07
0.011184472
7.5645674e-07
0.01118427
6.5087309e-07
0.011184096
5.5658868e-07
0.011183946
4.7296401e-07
0.011183819
3.9932479e-07
0.011183711
3.3495166e-07
0.01118362
2.7911214e-07
0.011183544
2.3103853e-07
0.01118348
1.8998354e-07
0.011183428
1.5516284e-07
0.011183386
1.2588599e-07
0.011183351
1.0138545e-07
0.011183323
8.1142022e-08
0.011183301
6.4375292e-08
0.011183283
5.0910887e-08
0.011183269
3.9710484e-08
0.011183258
3.1361919e-08
0.011183249
2.38182e-08
0.011183242
1.9658783e-08
1.3811899e-08
0.010097182
6.8393555e-05
0.010346961
0.00019901112
0.010662469
0.00028247387
0.010982753
0.00030866649
0.011290229
0.00030874342
0.011575251
0.00029875789
0.011829022
0.00028101346
0.012047865
0.00025698756
0.012233272
0.00023051982
0.01238924
0.0002051459
0.012520295
0.00018256236
0.012630755
0.00016299957
0.012724428
0.00014622491
0.012804515
0.00013190312
0.012873613
0.00011967427
0.012933772
0.00010917461
0.012986596
0.00010006907
0.013033332
9.2076374e-05
0.01307495
8.4975266e-05
0.013112216
7.859863e-05
0.013145739
7.2822322e-05
0.013176012
6.7553957e-05
0.013203441
6.2723942e-05
0.013228366
5.8278914e-05
0.013251071
5.4177006e-05
0.013271802
5.0384455e-05
0.01329077
4.6873193e-05
0.013308155
4.3619217e-05
0.013324119
4.0601508e-05
0.0133388
3.7801337e-05
0.013352321
3.5201819e-05
0.013364791
3.2787604e-05
0.013376305
3.0544673e-05
0.01338695
2.8460176e-05
0.0133968
2.6522312e-05
0.013405923
2.4720232e-05
0.013414381
2.3043947e-05
0.013422228
2.1484256e-05
0.013429513
2.0032681e-05
0.013436281
1.8681397e-05
0.013442572
1.7423187e-05
0.013448422
1.6251382e-05
0.013453866
1.5159818e-05
0.013458933
1.4142792e-05
0.013463651
1.3195026e-05
0.013468046
1.2311623e-05
0.013472141
1.1488039e-05
0.013475957
1.0720048e-05
0.013479514
1.0003718e-05
0.01348283
9.3353785e-06
0.013485922
8.7116006e-06
0.013488805
8.1291756e-06
0.013491492
7.5850975e-06
0.013493998
7.076546e-06
0.013496334
6.6008766e-06
0.01349851
6.1556082e-06
0.013500537
5.7384121e-06
0.013502424
5.3471142e-06
0.013504179
4.9796811e-06
0.013505809
4.6342325e-06
0.013507323
4.3090242e-06
0.013508725
4.0024709e-06
0.013510023
3.7131226e-06
0.013511222
3.4396964e-06
0.013512326
3.1810414e-06
0.013513341
2.9361756e-06
0.013514271
2.7042407e-06
0.01351512
2.4845375e-06
0.013515893
2.2764734e-06
0.013516595
2.0795937e-06
0.013517228
1.8935224e-06
0.013517797
1.7179924e-06
0.013518307
1.5527792e-06
0.013518761
1.3977329e-06
0.013519163
1.2527083e-06
0.013519517
1.1175943e-06
0.013519827
9.922551e-07
0.013520097
8.7654447e-07
0.01352033
7.7027109e-07
0.013520531
6.7320176e-07
0.013520702
5.8505263e-07
0.013520847
5.0549008e-07
0.01352097
4.3413498e-07
0.013521072
3.7056379e-07
0.013521158
3.143229e-07
0.013521228
2.6491633e-07
0.013521285
2.2184431e-07
0.013521332
1.8455764e-07
0.013521369
1.5254471e-07
0.013521399
1.2522977e-07
0.013521422
1.021433e-07
0.013521441
8.2699809e-08
0.013521456
6.6566988e-08
0.013521467
5.3092964e-08
0.013521476
4.226196e-08
0.013521482
3.3099372e-08
0.013521487
2.6339617e-08
0.013521491
1.9975795e-08
0.013521494
1.663155e-08
1.1659966e-08
0.010068394
-1.0620661e-12
0.010267405
-8.9680003e-13
0.010549879
-4.8587647e-13
0.010858545
8.2248409e-14
0.011167288
8.1133538e-13
0.011466046
1.6013243e-12
0.01174706
2.133266e-12
0.012004047
2.2955905e-12
0.012234567
2.007977e-12
0.012439713
1.3591356e-12
0.012622275
7.7110203e-13
0.012785275
4.7047522e-13
0.0129315
9.2657691e-13
0.013063403
2.2023376e-12
0.013183077
4.2056553e-12
0.013292252
6.7915309e-12
0.013392321
9.320982e-12
0.013484397
1.1635067e-11
0.013569373
1.3203595e-11
0.013647971
1.4011281e-11
0.013720793
1.434445e-11
0.013788347
1.4490036e-11
0.013851071
1.5448887e-11
0.01390935
1.7622815e-11
0.013963527
2.1581228e-11
0.014013912
2.7304646e-11
0.014060785
3.4113037e-11
0.014104404
4.1637391e-11
0.014145005
4.8630529e-11
0.014182807
5.4949245e-11
0.014218008
6.0088363e-11
0.014250796
6.4288936e-11
0.014281341
6.8291395e-11
0.014309801
7.2595571e-11
0.014336323
7.8369126e-11
0.014361043
8.6039131e-11
0.014384087
9.5614812e-11
0.014405571
1.0692181e-10
0.014425604
1.1832687e-10
0.014444285
1.2933243e-10
0.014461708
1.3800412e-10
0.014477959
1.4428104e-10
0.014493119
1.4742616e-10
0.014507261
1.4779523e-10
0.014520456
1.4569629e-10
0.014532768
1.4134052e-10
0.014544256
1.350099e-10
0.014554976
1.2646042e-10
0.014564979
1.1492679e-10
0.014574315
9.9540689e-11
0.014583026
7.9362882e-11
0.014591155
5.3344772e-11
0.01459874
2.324674e-11
0.014605817
-1.8755032e-11
0.014612418
-6.2596887e-11
0.014618573
-1.1206431e-10
0.014624312
-1.6338043e-10
0.014629659
-2.1851322e-10
0.014634639
-2.7279971e-10
0.014639274
-3.2922645e-10
0.014643583
-3.8128895e-10
0.014647586
-4.3288642e-10
0.0146513
-4.7492478e-10
0.01465474
-5.1182298e-10
0.014657921
-5.3400612e-10
0.014660858
-5.4821699e-10
0.014663563
-5.4714717e-10
0.014666048
-5.3929986e-10
0.014668325
-5.1933558e-10
0.014670405
-4.9630597e-10
0.014672299
-4.6342991e-10
0.014674017
-4.2795821e-10
0.014675571
-3.8094724e-10
0.014676969
-3.2885046e-10
0.014678222
-2.6486916e-10
0.01467934
-1.9481901e-10
0.014680332
-1.2011454e-10
0.014681209
-4.4704597e-11
0.014681979
2.3759974e-11
0.014682652
8.3649917e-11
0.014683237
1.2859146e-10
0.014683742
1.6152912e-10
0.014684176
1.8637776e-10
0.014684547
2.0803518e-10
0.014684861
2.2845894e-10
0.014685126
2.5177795e-10
0.014685347
2.7106897e-10
0.014685532
2.8970265e-10
0.014685684
2.9694936e-10
0.014685809
2.9989891e-10
0.01468591
2.9171612e-10
0.014685993
2.825671e-10
0.014686059
2.6855201e-10
0.014686112
2.5825265e-10
0.014686154
2.4642316e-10
0.014686187
2.3466056e-10
0.014686213
2.2345036e-10
0.014686233
2.0466549e-10
0.014686249
1.9398987e-10
1.840918e-10
0.010068394
-6.8393557e-05
0.010267405
-0.00019901112
0.010549879
-0.00028247387
0.010858545
-0.00030866649
0.011167288
-0.00030874342
0.011466046
-0.00029875788
0.01174706
-0.00028101345
0.012004047
-0.00025698755
0.012234567
-0.00023051982
0.012439713
-0.0002051459
0.012622275
-0.00018256236
0.012785275
-0.00016299957
0.0129315
-0.00014622491
0.013063403
-0.00013190312
0.013183077
-0.00011967426
0.013292252
-0.0001091746
0.013392321
-0.00010006906
0.013484397
-9.2076352e-05
0.013569373
-8.4975241e-05
0.013647971
-7.8598603e-05
0.013720793
-7.2822295e-05
0.013788347
-6.755393e-05
0.013851071
-6.2723914e-05
0.01390935
-5.8278881e-05
0.013963527
-5.4176966e-05
0.014013912
-5.0384403e-05
0.014060785
-4.6873128e-05
0.014104404
-4.3619138e-05
0.014145006
-4.0601416e-05
0.014182807
-3.7801234e-05
0.014218009
-3.5201707e-05
0.014250796
-3.2787485e-05
0.014281341
-3.0544547e-05
0.014309801
-2.8460042e-05
0.014336323
-2.6522168e-05
0.014361043
-2.4720074e-05
0.014384087
-2.304377e-05
0.014405571
-2.1484059e-05
0.014425604
-2.0032463e-05
0.014444285
-1.8681159e-05
0.014461708
-1.7422934e-05
0.014477959
-1.6251118e-05
0.014493119
-1.515955e-05
0.014507262
-1.4142525e-05
0.014520457
-1.3194764e-05
0.014532768
-1.231137e-05
0.014544256
-1.1487798e-05
0.014554976
-1.0719824e-05
0.01456498
-1.0003516e-05
0.014574315
-9.3352038e-06
0.014583027
-8.7114627e-06
0.014591156
-8.129085e-06
0.014598741
-7.5850657e-06
0.014605817
-7.0765865e-06
0.014612418
-6.6009972e-06
0.014618574
-6.1558167e-06
0.014624312
-5.7387131e-06
0.01462966
-5.3475125e-06
0.01463464
-4.9801769e-06
0.014639274
-4.634827e-06
0.014643583
-4.3097124e-06
0.014647586
-4.0032484e-06
0.0146513
-3.7139753e-06
0.01465474
-3.4406109e-06
0.014657921
-3.1819953e-06
0.014660858
-2.9371506e-06
0.014663563
-2.7052133e-06
0.014666048
-2.4854932e-06
0.014668324
-2.2773953e-06
0.014670404
-2.0804742e-06
0.014672298
-1.8943477e-06
0.014674016
-1.7187547e-06
0.01467557
-1.5534605e-06
0.014676968
-1.3983201e-06
0.014678221
-1.253181e-06
0.014679339
-1.1179403e-06
0.014680331
-9.924646e-07
0.014681208
-8.7661873e-07
0.014681978
-7.7022252e-07
0.014682651
-6.7305096e-07
0.014683236
-5.8482427e-07
0.014683741
-5.0520548e-07
0.014684175
-4.3380708e-07
0.014684546
-3.7019772e-07
0.01468486
-3.139176e-07
0.014685125
-2.644689e-07
0.014685347
-2.2135884e-07
0.014685531
-1.8404e-07
0.014685683
-1.520118e-07
0.014685808
-1.2469364e-07
0.01468591
-1.016204e-07
0.014685992
-8.2195762e-08
0.014686059
-6.608588e-08
0.014686112
-5.2633403e-08
0.014686154
-4.1822912e-08
0.014686187
-3.2683134e-08
0.014686213
-2.5939928e-08
0.014686233
-1.9611561e-08
0.014686249
-1.6280126e-08
-1.13325e-08
0.010097182
-0.00016557515
0.010346961
-0.000448791
0.010662469
-0.00059798177
0.010982753
-0.00062895025
0.011290229
-0.00061621886
0.011575251
-0.00058378055
0.011829022
-0.0005347842
0.012047865
-0.00047583049
0.012233272
-0.00041592665
0.01238924
-0.000361114
0.012520295
-0.00031361712
0.012630755
-0.00027346026
0.012724428
-0.00023989719
0.012804515
-0.00021199031
0.012873613
-0.0001887726
0.012933772
-0.00016933387
0.012986596
-0.00015289295
0.013033332
-0.00013881182
0.01307495
-0.00012659378
0.013112216
-0.00011586444
0.013145739
-0.00010634493
0.013176012
-9.7826994e-05
0.013203441
-9.0153356e-05
0.013228366
-8.3203357e-05
0.013251071
-7.68826e-05
0.013271803
-7.1115541e-05
0.01329077
-6.5840265e-05
0.013308155
-6.1004875e-05
0.013324119
-5.6565033e-05
0.0133388
-5.24823e-05
0.013352321
-4.8722992e-05
0.013364791
-4.5257356e-05
0.013376306
-4.2058967e-05
0.01338695
-3.9104247e-05
0.0133968
-3.6372099e-05
0.013405923
-3.3843583e-05
0.013414381
-3.1501663e-05
0.013422228
-2.9330982e-05
0.013429513
-2.7317657e-05
0.013436281
-2.5449126e-05
0.013442572
-2.3713981e-05
0.013448423
-2.2101853e-05
0.013453867
-2.0603291e-05
0.013458934
-1.9209665e-05
0.013463652
-1.7913077e-05
0.013468047
-1.6706283e-05
0.013472142
-1.5582625e-05
0.013475958
-1.4535966e-05
0.013479515
-1.3560636e-05
0.013482831
-1.2651383e-05
0.013485923
-1.1803327e-05
0.013488806
-1.1011925e-05
0.013491494
-1.0272938e-05
0.013494
-9.5824018e-06
0.013496335
-8.9366143e-06
0.013498511
-8.332103e-06
0.013500538
-7.7656384e-06
0.013502425
-7.2341913e-06
0.01350418
-6.7349691e-06
0.01350581
-6.265365e-06
0.013507323
-5.8230153e-06
0.013508726
-5.405733e-06
0.013510023
-5.0115894e-06
0.013511222
-4.6388289e-06
0.013512326
-4.2859641e-06
0.01351334
-3.9516733e-06
0.01351427
-3.6348942e-06
0.013515119
-3.33471e-06
0.013515892
-3.0504325e-06
0.013516593
-2.7814756e-06
0.013517226
-2.52744e-06
0.013517795
-2.2879736e-06
0.013518304
-2.0628649e-06
0.013518758
-1.8518985e-06
0.01351916
-1.6549435e-06
0.013519514
-1.4718311e-06
0.013519824
-1.3024059e-06
0.013520094
-1.1464496e-06
0.013520327
-1.0036916e-06
0.013520528
-8.7377761e-07
0.013520699
-7.5627459e-07
0.013520844
-6.5066148e-07
0.013520967
-5.5635506e-07
0.01352107
-4.727093e-07
0.013521155
-3.9903932e-07
0.013521225
-3.3463725e-07
0.013521283
-2.7875961e-07
0.01352133
-2.3066645e-07
0.013521367
-1.8959221e-07
0.013521397
-1.5477947e-07
0.013521421
-1.2551087e-07
0.01352144
-1.0103868e-07
0.013521454
-8.0811399e-08
0.013521466
-6.4072767e-08
0.013521475
-5.061528e-08
0.013521482
-3.9431722e-08
0.013521487
-3.1086422e-08
0.013521491
-2.35599e-08
0.013521494
-1.9410882e-08
-1.3586028e-08
0.010188704
-0.00035427932
0.010530487
-0.00079057335
0.010851453
-0.00091894821
0.011124174
-0.00090167137
0.011350581
-0.00084262623
0.011524486
-0.00075768559
0.01164633
-0.00065662744
0.011724155
-0.00055365586
0.011767999
-0.00045977083
0.011786639
-0.00037975354
0.011787114
-0.00031409259
0.011775058
-0.00026140426
0.011754861
-0.00021969948
0.011729768
-0.00018689786
0.011702054
-0.00016105802
0.011673239
-0.00014051894
0.011644339
-0.00012399296
0.011616003
-0.00011047599
0.011588629
-9.9219864e-05
0.011562446
-8.9681397e-05
0.011537572
-8.1470661e-05
0.011514052
-7.430784e-05
0.01149189
-6.799049e-05
0.011471056
-6.2369983e-05
0.011451509
-5.7335007e-05
0.011433193
-5.2800174e-05
0.011416051
-4.8698253e-05
0.011400021
-4.4974938e-05
0.011385042
-4.1585372e-05
0.011371051
-3.8491827e-05
0.01135799
-3.5662136e-05
0.011345801
-3.3068595e-05
0.01133443
-3.068716e-05
0.011323822
-2.8496844e-05
0.011313929
-2.6479243e-05
0.011304704
-2.4618154e-05
0.011296102
-2.289926e-05
0.011288081
-2.130987e-05
0.011280602
-1.983869e-05
0.011273628
-1.8475644e-05
0.011267126
-1.7211702e-05
0.011261063
-1.6038754e-05
0.011255409
-1.4949486e-05
0.011250136
-1.3937287e-05
0.011245219
-1.2996154e-05
0.011240634
-1.2120628e-05
0.011236357
-1.1305718e-05
0.011232368
-1.0546852e-05
0.011228647
-9.8398209e-06
0.011225176
-9.1807402e-06
0.011221939
-8.5660086e-06
0.011218919
-7.992279e-06
0.011216103
-7.4564322e-06
0.011213476
-6.9555564e-06
0.011211026
-6.4869321e-06
0.011208742
-6.0480189e-06
0.011206613
-5.6364489e-06
0.011204629
-5.2500174e-06
0.01120278
-4.8866851e-06
0.011201059
-4.5445711e-06
0.011199458
-4.2219588e-06
0.01119797
-3.917293e-06
0.011196587
-3.6291899e-06
0.011195305
-3.356431e-06
0.011194117
-3.0979721e-06
0.011193018
-2.8529296e-06
0.011192004
-2.6205839e-06
0.011191069
-2.4003542e-06
0.011190211
-2.1917918e-06
0.011189424
-1.9945509e-06
0.011188704
-1.8083777e-06
0.011188049
-1.6330813e-06
0.011187455
-1.4685248e-06
0.011186918
-1.314597e-06
0.011186434
-1.1712067e-06
0.011186001
-1.03825e-06
0.011185614
-9.1560426e-07
0.011185271
-8.0309568e-07
0.011184967
-7.0049318e-07
0.011184701
-6.0749275e-07
0.011184468
-5.2372193e-07
0.011184266
-4.4874444e-07
0.011184092
-3.8207936e-07
0.011183943
-3.2320907e-07
0.011183816
-2.7160481e-07
0.011183708
-2.2671372e-07
0.011183617
-1.8798351e-07
0.011183541
-1.5483354e-07
0.011183478
-1.2669681e-07
0.011183426
-1.0297835e-07
0.011183384
-8.314556e-08
0.011183349
-6.6635269e-08
0.011183322
-5.3045326e-08
0.0111833
-4.1861424e-08
0.011183282
-3.2892623e-08
0.011183268
-2.5554445e-08
0.011183257
-2.004206e-08
0.011183249
-1.5335558e-08
0.011183242
-1.2554344e-08
-8.9561681e-09
0.010339525
-0.00069380425
0.010570754
-0.0010218027
0.010606301
-0.00095449449
0.010547572
-0.00084294334
0.010422317
-0.0007173708
0.010244356
-0.00057972444
0.010039421
-0.00045169205
0.0098287426
-0.00034297801
0.009625135
-0.00025616318
0.0094353013
-0.00018991984
0.0092624277
-0.00014121897
0.0091075332
-0.00010650979
0.008970154
-8.2320214e-05
0.0088489024
-6.5646236e-05
0.0087419716
-5.4127247e-05
0.0086474927
-4.6040043e-05
0.008563694
-4.0194292e-05
0.0084890108
-3.579276e-05
0.0084221096
-3.2318765e-05
0.0083618775
-2.9449286e-05
0.0083073954
-2.6988578e-05
0.0082579079
-2.4820298e-05
0.0082127929
-2.2875473e-05
0.0081715354
-2.1112407e-05
0.008133705
-1.9504644e-05
0.0080989389
-1.8034007e-05
0.0080669273
-1.6686722e-05
0.0080374037
-1.5451365e-05
0.0080101362
-1.4317867e-05
0.0079849214
-1.3277078e-05
0.0079615798
-1.2320597e-05
0.007939952
-1.1440723e-05
0.0079198953
-1.0630434e-05
0.0079012818
-9.883363e-06
0.0078839964
-9.1937709e-06
0.0078679348
-8.5565023e-06
0.0078530025
-7.9669375e-06
0.0078391135
-7.4209392e-06
0.0078261896
-6.9148028e-06
0.0078141591
-6.4452038e-06
0.0078029565
-6.0091567e-06
0.0077925217
-5.6039722e-06
0.0077827994
-5.2272226e-06
0.0077737389
-4.8767113e-06
0.0077652932
-4.5504415e-06
0.0077574192
-4.2465957e-06
0.007750077
-3.9635083e-06
0.0077432298
-3.6996498e-06
0.0077368436
-3.4536071e-06
0.0077308869
-3.2240707e-06
0.0077253306
-3.0098215e-06
0.007720148
-2.8097237e-06
0.0077153142
-2.6227127e-06
0.0077108064
-2.447797e-06
0.0077066035
-2.2840425e-06
0.0077026861
-2.1305822e-06
0.0076990363
-1.9865965e-06
0.0076956376
-1.851331e-06
0.007692475
-1.7240714e-06
0.0076895346
-1.6041705e-06
0.0076868036
-1.4910188e-06
0.0076842704
-1.3840828e-06
0.0076819241
-1.2828677e-06
0.0076797547
-1.1869628e-06
0.0076777528
-1.095997e-06
0.0076759096
-1.0096832e-06
0.0076742168
-9.2776697e-07
0.0076726665
-8.5006662e-07
0.0076712512
-7.7641798e-07
0.0076699633
-7.0671811e-07
0.0076687958
-6.4086619e-07
0.0076677415
-5.7881525e-07
0.0076667937
-5.2051149e-07
0.0076659452
-4.6594291e-07
0.0076651893
-4.1508498e-07
0.0076645191
-3.6792625e-07
0.007663928
-3.2443293e-07
0.0076634094
-2.8454888e-07
0.007662957
-2.4818782e-07
0.0076625645
-2.1522865e-07
0.0076622262
-1.8552774e-07
0.0076619364
-1.5892129e-07
0.0076616897
-1.3524508e-07
0.0076614811
-1.1432503e-07
0.0076613058
-9.60011e-08
0.0076611594
-8.008073e-08
0.0076610378
-6.6389587e-08
0.0076609376
-5.4694461e-08
0.0076608555
-4.4795506e-08
0.0076607888
-3.6437452e-08
0.0076607349
-2.9438449e-08
0.0076606919
-2.3576686e-08
0.0076606577
-1.8744605e-08
0.0076606308
-1.4754188e-08
0.0076606097
-1.1576952e-08
0.0076605932
-9.0119179e-09
0.0076605802
-7.1036593e-09
0.0076605703
-5.5521051e-09
0.0076605623
-4.6084992e-09
-3.6189573e-09
0.0093061957
0.0082843931
0.0073298986
0.0064869553
0.0057695845
0.00518986
0.004738168
0.00439519
0.0041390268
0.0039491069
0.003807888
0.0037013782
0.003619058
0.0035534118
0.0034992845
0.0034532445
0.0034130502
0.0033772574
0.0033449386
0.0033154893
0.0032885007
0.0032636805
0.003240805
0.0032196926
0.003200188
0.003182154
0.0031654672
0.0031500159
0.003135698
0.0031224209
0.0031101003
0.0030986595
0.0030880291
0.0030781458
0.003068952
0.0030603956
0.0030524286
0.0030450077
0.0030380928
0.0030316476
0.0030256384
0.0030200344
0.0030148072
0.0030099305
0.0030053801
0.0030011335
0.00299717
0.0029934704
0.0029900168
0.0029867927
0.0029837828
0.0029809731
0.0029783503
0.0029759025
0.0029736185
0.002971488
0.0029695014
0.0029676501
0.002965926
0.0029643219
0.0029628309
0.0029614468
0.002960164
0.0029589771
0.0029578811
0.0029568715
0.0029559438
0.0029550937
0.0029543173
0.0029536106
0.0029529698
0.002952391
0.0029518706
0.0029514048
0.0029509898
0.002950622
0.0029502976
0.002950013
0.0029497647
0.0029495494
0.0029493639
0.002949205
0.0029490699
0.0029489557
0.0029488598
0.0029487798
0.0029487134
0.0029486586
0.0029486137
0.0029485772
0.0029485477
0.0029485242
0.0029485056
0.0029484909
0.0029484794
0.0029484704
0.0029484632
0.0029484576
0.002948453
)
;

boundaryField
{
    top
    {
        type            calculated;
        value           uniform 0;
    }
    inlet
    {
        type            calculated;
        value           nonuniform List<scalar> 10(-0.01 -0.01 -0.01 -0.01 -0.01 -0.01 -0.01 -0.01 -0.01 -0.01);
    }
    outlet
    {
        type            calculated;
        value           nonuniform List<scalar> 10(0.0029484492 0.007660557 0.011183238 0.013521496 0.014686261 0.014686261 0.013521496 0.011183237 0.0076605569 0.0029484493);
    }
    bottom
    {
        type            calculated;
        value           uniform 0;
    }
    back
    {
        type            empty;
        value           nonuniform 0();
    }
    front
    {
        type            empty;
        value           nonuniform 0();
    }
}


// ************************************************************************* //
