/*--------------------------------*- C++ -*----------------------------------*\
| =========                 |                                                 |
| \\      /  F ield         | OpenFOAM: The Open Source CFD Toolbox           |
|  \\    /   O peration     | Version:  v1812                                 |
|   \\  /    A nd           | Web:      www.OpenFOAM.com                      |
|    \\/     M anipulation  |                                                 |
\*---------------------------------------------------------------------------*/
FoamFile
{
    version     2.0;
    format      ascii;
    class       surfaceScalarField;
    location    "16";
    object      phi;
}
// * * * * * * * * * * * * * * * * * * * * * * * * * * * * * * * * * * * * * //

dimensions      [0 3 -1 0 0 0 0];
oriented        oriented;


internalField   nonuniform List<scalar> 
1890
(
0.0093061958
0.00069380425
0.0082843931
0.0010218027
0.0073298986
0.00095449446
0.0064869553
0.00084294331
0.0057695845
0.00071737078
0.00518986
0.00057972443
0.004738168
0.00045169205
0.00439519
0.00034297802
0.0041390268
0.00025616318
0.003949107
0.00018991983
0.003807888
0.00014121897
0.0037013782
0.0001065098
0.003619058
8.232022e-05
0.0035534117
6.5646243e-05
0.0034992845
5.4127248e-05
0.0034532444
4.6040037e-05
0.0034130502
4.0194282e-05
0.0033772574
3.5792748e-05
0.0033449386
3.2318758e-05
0.0033154894
2.9449284e-05
0.0032885008
2.6988587e-05
0.0032636805
2.4820311e-05
0.003240805
2.2875489e-05
0.0032196926
2.1112422e-05
0.0032001879
1.9504655e-05
0.0031821539
1.803401e-05
0.0031654672
1.6686721e-05
0.0031500158
1.5451358e-05
0.0031356979
1.4317862e-05
0.0031224209
1.3277072e-05
0.0031101003
1.2320597e-05
0.0030986596
1.1440728e-05
0.0030880291
1.0630443e-05
0.0030781458
9.8833724e-06
0.003068952
9.1937747e-06
0.0030603955
8.5564947e-06
0.0030524285
7.9669123e-06
0.0030450076
7.4208956e-06
0.0030380929
6.9147411e-06
0.0030316478
6.4451202e-06
0.0030256387
6.0090552e-06
0.0030200349
5.6038475e-06
0.0030148078
5.227077e-06
0.0030099313
4.8765428e-06
0.003005381
4.5502532e-06
0.0030011346
4.2464042e-06
0.0029971713
3.9633379e-06
0.0029934717
3.6995583e-06
0.002990018
3.4536784e-06
0.0029867936
3.2244194e-06
0.002983783
3.0106183e-06
0.0029809718
2.8111758e-06
0.0029783467
2.6250948e-06
0.0029758953
2.4514446e-06
0.002973606
2.2893596e-06
0.0029714679
2.1380632e-06
0.0029694711
1.996811e-06
0.0029676061
1.8649542e-06
0.0029658642
1.7418585e-06
0.0029642372
1.6269393e-06
0.0029627176
1.5196518e-06
0.0029612982
1.4194672e-06
0.0029599723
1.3259071e-06
0.0029587338
1.2385122e-06
0.002957577
1.1568624e-06
0.0029564964
1.0805852e-06
0.002955487
1.009325e-06
0.0029545442
9.4276779e-07
0.0029536635
8.8063354e-07
0.0029528409
8.2261749e-07
0.0029520724
7.684661e-07
0.0029513546
7.1789737e-07
0.002950684
6.7064927e-07
0.0029500575
6.2648594e-07
0.0029494724
5.8519291e-07
0.0029489258
5.4658101e-07
0.0029484152
5.1051278e-07
0.0029479383
4.768135e-07
0.0029474929
4.4539825e-07
0.0029470768
4.160766e-07
0.002946688
3.8875156e-07
0.0029463249
3.6320901e-07
0.0029459856
3.393566e-07
0.0029456687
3.1698495e-07
0.0029453726
2.9608334e-07
0.0029450962
2.7642448e-07
0.0029448379
2.5821432e-07
0.0029445967
2.4105882e-07
0.0029443712
2.253273e-07
0.0029441609
2.1041188e-07
0.0029439642
1.9684698e-07
0.0029437803
1.8377519e-07
0.0029436083
1.7211627e-07
0.002943448
1.603797e-07
0.0029432978
1.5018959e-07
0.0029431574
1.4029638e-07
0.0029430254
1.3211e-07
0.0029429003
1.2511276e-07
0.0029427808
1.1941354e-07
1.2577211e-07
0.010339525
0.00035427931
0.010570754
0.00079057333
0.010606301
0.00091894817
0.010547572
0.00090167133
0.010422317
0.0008426262
0.010244356
0.00075768557
0.010039421
0.00065662743
0.0098287427
0.00055365586
0.009625135
0.00045977083
0.0094353013
0.00037975353
0.0092624277
0.00031409258
0.0091075333
0.00026140425
0.008970154
0.00021969948
0.0088489024
0.00018689785
0.0087419716
0.00016105801
0.0086474927
0.00014051893
0.008563694
0.00012399295
0.0084890108
0.00011047599
0.0084221097
9.9219865e-05
0.0083618776
8.9681405e-05
0.0083073955
8.1470671e-05
0.0082579079
7.4307853e-05
0.0082127929
6.7990501e-05
0.0081715353
6.2369992e-05
0.008133705
5.7335014e-05
0.0080989388
5.2800182e-05
0.0080669272
4.8698264e-05
0.0080374036
4.4974957e-05
0.0080101361
4.1585392e-05
0.0079849213
3.8491852e-05
0.0079615798
3.566216e-05
0.0079399519
3.3068618e-05
0.0079198951
3.0687178e-05
0.0079012817
2.8496855e-05
0.0078839962
2.6479245e-05
0.0078679345
2.4618144e-05
0.0078530022
2.2899242e-05
0.0078391132
2.1309845e-05
0.0078261893
1.9838661e-05
0.0078141589
1.8475612e-05
0.0078029562
1.7211667e-05
0.0077925214
1.6038728e-05
0.007782799
1.4949482e-05
0.0077737382
1.393734e-05
0.0077652921
1.2996323e-05
0.0077574175
1.2121003e-05
0.0077500744
1.1306451e-05
0.0077432258
1.0548147e-05
0.0077368375
9.8419706e-06
0.0077308778
9.1841337e-06
0.0077253173
8.5711451e-06
0.0077201286
7.9998136e-06
0.0077152866
7.4671662e-06
0.0077107675
6.9704844e-06
0.0077065496
6.5072495e-06
0.0077026125
6.0751344e-06
0.0076989373
5.6720139e-06
0.0076955064
5.2958966e-06
0.0076923033
4.9449562e-06
0.0076893128
4.6174696e-06
0.0076865206
4.3118334e-06
0.0076839135
4.0265669e-06
0.0076814792
3.7602622e-06
0.007679206
3.5116412e-06
0.0076770834
3.2795026e-06
0.0076751012
3.0627416e-06
0.0076732501
2.8603534e-06
0.0076715215
2.6713916e-06
0.0076699072
2.4949747e-06
0.0076683996
2.3302875e-06
0.0076669915
2.1765251e-06
0.0076656765
2.0329394e-06
0.0076644483
1.8988363e-06
0.0076633013
1.7735419e-06
0.0076622299
1.6564933e-06
0.0076612293
1.547132e-06
0.0076602948
1.4450078e-06
0.007659422
1.3496385e-06
0.0076586068
1.2606489e-06
0.0076578453
1.177549e-06
0.0076571341
1.100037e-06
0.0076564698
1.0275318e-06
0.0076558493
9.5989592e-07
0.0076552697
8.9649632e-07
0.0076547283
8.3743396e-07
0.0076542228
7.8189286e-07
0.0076537505
7.3046704e-07
0.0076533094
6.8214724e-07
0.0076528972
6.3761333e-07
0.0076525127
5.9497029e-07
0.0076521529
5.5670865e-07
0.0076518171
5.1953592e-07
0.0076515027
4.8640176e-07
0.0076512105
4.5244593e-07
0.0076509356
4.2510158e-07
0.0076506807
3.9526803e-07
0.0076504386
3.7433284e-07
0.0076502165
3.4709917e-07
0.0076499998
3.360785e-07
3.1077743e-07
0.010188704
0.00016557515
0.010530487
0.00044879097
0.010851453
0.00059798174
0.011124174
0.00062895021
0.011350581
0.00061621883
0.011524486
0.00058378053
0.01164633
0.00053478419
0.011724155
0.00047583049
0.011767999
0.00041592665
0.011786639
0.00036111399
0.011787114
0.0003136171
0.011775058
0.00027346024
0.011754861
0.00023989717
0.011729768
0.00021199029
0.011702054
0.00018877259
0.011673239
0.00016933387
0.011644339
0.00015289295
0.011616003
0.00013881182
0.011588629
0.00012659378
0.011562446
0.00011586444
0.011537572
0.00010634493
0.011514052
9.7826992e-05
0.01149189
9.0153359e-05
0.011471056
8.3203365e-05
0.011451509
7.6882614e-05
0.011433193
7.1115564e-05
0.011416051
6.58403e-05
0.011400021
6.1004913e-05
0.011385042
5.6565075e-05
0.011371051
5.2482341e-05
0.01135799
4.8723032e-05
0.011345801
4.5257392e-05
0.01133443
4.2058998e-05
0.011323822
3.9104276e-05
0.011313929
3.6372123e-05
0.011304704
3.3843607e-05
0.011296101
3.1501692e-05
0.01128808
2.9331019e-05
0.011280601
2.7317703e-05
0.011273628
2.544918e-05
0.011267125
2.3714055e-05
0.011261062
2.2101957e-05
0.011255408
2.0603461e-05
0.011250135
1.9209951e-05
0.011245218
1.7913568e-05
0.011240632
1.6707113e-05
0.011236354
1.5583981e-05
0.011232364
1.4538117e-05
0.011228643
1.3563935e-05
0.01122517
1.2656302e-05
0.011221931
1.1810492e-05
0.011218909
1.1022112e-05
0.011216089
1.0287138e-05
0.011213457
9.6018233e-06
0.011211002
8.9627149e-06
0.01120871
8.3666263e-06
0.011206572
7.8105945e-06
0.011204576
7.2918833e-06
0.011202713
6.8079259e-06
0.011200974
6.3563523e-06
0.011199351
5.9349617e-06
0.011197836
5.5416799e-06
0.011196421
5.1746157e-06
0.011195101
4.8319798e-06
0.011193868
4.5121384e-06
0.011192718
4.213561e-06
0.011191643
3.9348301e-06
0.01119064
3.6746265e-06
0.011189703
3.4317208e-06
0.011188829
3.2049317e-06
0.011188012
2.9931997e-06
0.011187249
2.7954728e-06
0.011186537
2.6108272e-06
0.011185873
2.4383718e-06
0.011185252
2.2773303e-06
0.011184672
2.1269181e-06
0.01118413
1.9865062e-06
0.011183625
1.8553653e-06
0.011183152
1.7329923e-06
0.011182711
1.6186455e-06
0.0111823
1.5119448e-06
0.011181915
1.4121263e-06
0.011181556
1.3190648e-06
0.01118122
1.2318393e-06
0.011180907
1.1506857e-06
0.011180614
1.0745045e-06
0.011180341
1.0040962e-06
0.011180086
9.3726767e-07
0.011179847
8.7619672e-07
0.011179624
8.1775775e-07
0.011179416
7.6533103e-07
0.011179222
7.1275873e-07
0.01117904
6.6811318e-07
0.011178872
6.2102986e-07
0.011178712
5.852844e-07
0.011178566
5.4112767e-07
0.011178425
5.1518266e-07
0.0111783
4.7224926e-07
0.011178177
4.5904439e-07
4.1609467e-07
0.010097182
6.8393549e-05
0.010346961
0.0001990111
0.010662469
0.00028247385
0.010982753
0.00030866646
0.011290229
0.00030874339
0.011575251
0.00029875786
0.011829022
0.00028101344
0.012047865
0.00025698755
0.012233272
0.00023051981
0.01238924
0.00020514589
0.012520295
0.00018256234
0.012630755
0.00016299955
0.012724428
0.00014622489
0.012804515
0.0001319031
0.012873613
0.00011967425
0.012933772
0.0001091746
0.012986596
0.00010006906
0.013033332
9.2076356e-05
0.01307495
8.4975239e-05
0.013112216
7.8598597e-05
0.013145739
7.2822286e-05
0.013176012
6.7553925e-05
0.013203441
6.2723914e-05
0.013228366
5.8278891e-05
0.013251071
5.4176988e-05
0.013271803
5.0384436e-05
0.01329077
4.6873169e-05
0.013308155
4.3619186e-05
0.013324119
4.0601466e-05
0.0133388
3.7801287e-05
0.013352321
3.5201758e-05
0.013364791
3.2787536e-05
0.013376306
3.0544597e-05
0.01338695
2.8460092e-05
0.0133968
2.6522224e-05
0.013405923
2.4720139e-05
0.013414381
2.3043848e-05
0.013422228
2.1484148e-05
0.013429513
2.0032564e-05
0.013436281
1.8681274e-05
0.013442572
1.7423065e-05
0.013448423
1.6251281e-05
0.013453866
1.5159763e-05
0.013458933
1.4142831e-05
0.013463652
1.3195222e-05
0.013468047
1.2312072e-05
0.013472142
1.1488873e-05
0.013475958
1.0721443e-05
0.013479517
1.0005916e-05
0.013482834
9.338695e-06
0.013485928
8.7164434e-06
0.013488814
8.1360756e-06
0.013491507
7.5947051e-06
0.013494019
7.0896707e-06
0.013496363
6.6184983e-06
0.013498551
6.1788879e-06
0.013500593
5.7686966e-06
0.013502499
5.3859226e-06
0.013504278
5.0287126e-06
0.013505939
4.695335e-06
0.01350749
4.3841712e-06
0.013508938
4.0937346e-06
0.01351029
3.8226191e-06
0.013511552
3.5695364e-06
0.013512731
3.3332781e-06
0.013513832
3.1127236e-06
0.01351486
2.90683e-06
0.01351582
2.7146094e-06
0.013516716
2.5351507e-06
0.013517554
2.3675954e-06
0.013518336
2.2111288e-06
0.013519066
2.0650139e-06
0.013519748
1.9285715e-06
0.013520386
1.8011452e-06
0.013520981
1.682182e-06
0.013521537
1.5710826e-06
0.013522056
1.4673789e-06
0.013522541
1.3705139e-06
0.013522994
1.2801051e-06
0.013523417
1.1955936e-06
0.013523812
1.116739e-06
0.013524181
1.0429466e-06
0.013524526
9.7418626e-07
0.013524848
9.0971562e-07
0.013525149
8.499177e-07
0.01352543
7.9365791e-07
0.013525692
7.4158879e-07
0.013525937
6.9214742e-07
0.013526167
6.4740766e-07
0.01352638
6.0399477e-07
0.013526579
5.6507505e-07
0.013526767
5.2579378e-07
0.013526942
4.937937e-07
0.013527104
4.5849665e-07
0.013527256
4.3257092e-07
0.013527399
3.9882981e-07
0.013527534
3.8080817e-07
0.013527658
3.4708619e-07
0.013527779
3.3801358e-07
3.0565348e-07
0.010068394
-5.0996368e-12
0.010267405
-1.3169613e-11
0.010549879
-1.4218715e-11
0.010858545
-1.2296603e-11
0.011167288
-9.7625845e-12
0.011466046
-9.7054563e-12
0.01174706
-1.0226694e-11
0.012004047
-1.155299e-11
0.012234567
-1.3301113e-11
0.012439713
-1.5608704e-11
0.012622275
-1.6382555e-11
0.012785275
-1.5036231e-11
0.0129315
-1.3397841e-11
0.013063403
-1.1396211e-11
0.013183077
-9.5382545e-12
0.013292252
-8.5908613e-12
0.013392321
-8.8720993e-12
0.013484397
-1.0609487e-11
0.013569373
-1.170567e-11
0.013647971
-1.2554226e-11
0.013720793
-1.3569766e-11
0.013788347
-1.3823316e-11
0.013851071
-1.0795482e-11
0.01390935
-7.3898307e-12
0.013963527
-3.4928822e-12
0.014013912
3.7570197e-13
0.014060785
2.387827e-12
0.014104404
3.6167372e-12
0.014145005
5.5706611e-12
0.014182807
5.6236853e-12
0.014218009
5.3899674e-12
0.014250796
3.0913928e-12
0.014281341
3.3755814e-13
0.014309801
-2.6811262e-12
0.014336323
-3.9306118e-12
0.014361043
-1.9390888e-12
0.014384087
2.5601307e-12
0.014405571
7.2712538e-12
0.014425604
1.060427e-11
0.014444285
1.1684617e-11
0.014461708
9.9911261e-12
0.014477959
4.9439382e-12
0.014493119
3.0550268e-13
0.014507262
-5.7068444e-12
0.014520457
-8.7202933e-12
0.014532769
-8.2381615e-12
0.014544258
-5.4238429e-12
0.014554979
-2.3229322e-13
0.014564985
8.5257396e-12
0.014574324
1.7826211e-11
0.01458304
2.2058396e-11
0.014591177
1.6321322e-11
0.014598771
7.1322505e-12
0.014605861
-5.724805e-12
0.014612479
-1.7208096e-11
0.014618658
-1.9018928e-11
0.014624427
-1.0498778e-11
0.014629813
3.92725e-13
0.014634842
1.6825015e-11
0.014639537
2.5759198e-11
0.014643921
2.5527138e-11
0.014648015
1.6611389e-11
0.014651837
5.5862928e-12
0.014655407
-8.9756893e-12
0.01465874
-2.0562116e-11
0.014661853
-2.1367414e-11
0.01466476
-1.373766e-11
0.014667475
4.3289481e-13
0.01467001
2.4157808e-11
0.014672377
3.731104e-11
0.014674588
3.9433408e-11
0.014676653
2.3121935e-11
0.014678582
2.7982876e-12
0.014680383
-2.4773035e-11
0.014682065
-4.2972517e-11
0.014683636
-3.5322458e-11
0.014685104
-1.2262935e-11
0.014686474
1.9645394e-11
0.014687754
4.8012302e-11
0.01468895
4.8579435e-11
0.014690067
2.961974e-11
0.01469111
6.8987262e-12
0.014692083
-3.1021004e-11
0.014692993
-5.1939445e-11
0.014693844
-2.5589464e-11
0.014694638
-5.9221269e-12
0.014695378
2.5955109e-13
0.01469607
3.950926e-11
0.01469672
1.1535807e-10
0.014697323
5.7631436e-11
0.014697885
-5.7524129e-11
0.014698412
-9.0734471e-11
0.014698909
-7.7747673e-11
0.014699366
3.7785793e-11
0.014699796
1.1186158e-10
0.014700196
6.0343247e-11
0.014700579
-2.1263867e-11
0.014700925
-9.1552708e-11
0.014701262
-8.4994218e-11
-5.5604686e-11
0.010068394
-6.8393558e-05
0.010267405
-0.00019901113
0.010549879
-0.00028247388
0.010858545
-0.00030866649
0.011167288
-0.00030874342
0.011466046
-0.00029875789
0.01174706
-0.00028101346
0.012004047
-0.00025698756
0.012234567
-0.00023051983
0.012439713
-0.00020514591
0.012622275
-0.00018256237
0.012785275
-0.00016299958
0.0129315
-0.00014622491
0.013063403
-0.00013190313
0.013183077
-0.00011967427
0.013292252
-0.00010917462
0.013392321
-0.00010006908
0.013484397
-9.207637e-05
0.013569373
-8.4975257e-05
0.013647971
-7.8598619e-05
0.013720793
-7.2822311e-05
0.013788347
-6.7553945e-05
0.013851071
-6.2723932e-05
0.01390935
-5.8278903e-05
0.013963527
-5.4176992e-05
0.014013912
-5.0384435e-05
0.014060785
-4.6873165e-05
0.014104404
-4.3619178e-05
0.014145005
-4.0601456e-05
0.014182807
-3.7801275e-05
0.014218008
-3.5201751e-05
0.014250796
-3.2787532e-05
0.014281341
-3.0544596e-05
0.014309801
-2.8460097e-05
0.014336323
-2.6522228e-05
0.014361043
-2.4720137e-05
0.014384087
-2.3043841e-05
0.014405571
-2.1484138e-05
0.014425604
-2.0032548e-05
0.014444285
-1.8681255e-05
0.014461708
-1.7423051e-05
0.014477959
-1.6251271e-05
0.014493119
-1.5159761e-05
0.014507262
-1.4142837e-05
0.014520457
-1.3195236e-05
0.014532769
-1.2312087e-05
0.014544258
-1.1488882e-05
0.014554979
-1.0721443e-05
0.014564985
-1.0005899e-05
0.014574324
-9.338666e-06
0.014583041
-8.7164163e-06
0.014591177
-8.1360502e-06
0.014598771
-7.5946951e-06
0.014605861
-7.0896793e-06
0.014612479
-6.6185187e-06
0.014618658
-6.1789084e-06
0.014624427
-5.7687059e-06
0.014629813
-5.3859216e-06
0.014634842
-5.0286946e-06
0.014639537
-4.695297e-06
0.014643921
-4.3841351e-06
0.014648015
-4.0937054e-06
0.014651837
-3.8226092e-06
0.014655407
-3.5695452e-06
0.01465874
-3.3333086e-06
0.014661853
-3.1127613e-06
0.01466476
-2.9068514e-06
0.014667475
-2.7146077e-06
0.01467001
-2.5351223e-06
0.014672377
-2.3675365e-06
0.014674588
-2.211079e-06
0.014676653
-2.0649813e-06
0.014678582
-1.9285708e-06
0.014680383
-1.8011819e-06
0.014682065
-1.6822296e-06
0.014683636
-1.5711222e-06
0.014685104
-1.4673892e-06
0.014686474
-1.37049e-06
0.014687754
-1.280062e-06
0.01468895
-1.1955409e-06
0.014690067
-1.1167028e-06
0.01469111
-1.0429474e-06
0.014692084
-9.7421354e-07
0.014692993
-9.0976753e-07
0.014693844
-8.4995259e-07
0.014694638
-7.9366338e-07
0.014695378
-7.4159639e-07
0.01469607
-6.9212446e-07
0.01469672
-6.4727882e-07
0.014697322
-6.0382048e-07
0.014697885
-5.6524801e-07
0.014698413
-5.2609226e-07
0.014698909
-4.9357273e-07
0.014699366
-4.5818195e-07
0.014699796
-4.3277313e-07
0.014700196
-3.9912253e-07
0.014700579
-3.8080665e-07
0.014700925
-3.4701728e-07
0.014701262
-3.3803746e-07
-3.057116e-07
0.010097182
-0.00016557515
0.010346961
-0.000448791
0.010662469
-0.00059798177
0.010982753
-0.00062895025
0.011290229
-0.00061621886
0.011575251
-0.00058378055
0.011829022
-0.0005347842
0.012047865
-0.0004758305
0.012233272
-0.00041592666
0.01238924
-0.000361114
0.012520295
-0.00031361712
0.012630755
-0.00027346026
0.012724428
-0.00023989719
0.012804515
-0.00021199031
0.012873613
-0.00018877261
0.012933772
-0.00016933388
0.012986596
-0.00015289296
0.013033332
-0.00013881183
0.01307495
-0.00012659379
0.013112216
-0.00011586445
0.013145739
-0.00010634494
0.013176012
-9.7827005e-05
0.013203441
-9.0153367e-05
0.013228366
-8.320337e-05
0.013251071
-7.6882618e-05
0.013271802
-7.1115565e-05
0.01329077
-6.5840294e-05
0.013308155
-6.1004907e-05
0.013324119
-5.6565067e-05
0.0133388
-5.2482336e-05
0.013352321
-4.8723024e-05
0.013364791
-4.5257387e-05
0.013376306
-4.2058995e-05
0.01338695
-3.9104273e-05
0.0133968
-3.6372123e-05
0.013405923
-3.384361e-05
0.013414381
-3.1501694e-05
0.013422228
-2.9331014e-05
0.013429513
-2.7317696e-05
0.013436281
-2.5449171e-05
0.013442572
-2.371404e-05
0.013448423
-2.2101948e-05
0.013453866
-2.0603456e-05
0.013458933
-1.9209954e-05
0.013463652
-1.7913576e-05
0.013468047
-1.6707123e-05
0.013472142
-1.558399e-05
0.013475959
-1.4538115e-05
0.013479517
-1.3563928e-05
0.013482834
-1.2656294e-05
0.013485928
-1.1810473e-05
0.013488814
-1.1022097e-05
0.013491507
-1.0287125e-05
0.013494019
-9.6018184e-06
0.013496363
-8.9627218e-06
0.013498551
-8.3666415e-06
0.013500593
-7.810617e-06
0.013502499
-7.2918911e-06
0.013504278
-6.8079208e-06
0.013505939
-6.3563377e-06
0.01350749
-5.9349297e-06
0.013508938
-5.5416502e-06
0.01351029
-5.1745944e-06
0.013511552
-4.8319812e-06
0.013512731
-4.5121529e-06
0.013513832
-4.2135838e-06
0.01351486
-3.9348573e-06
0.01351582
-3.67464e-06
0.013516716
-3.4317131e-06
0.013517554
-3.2049164e-06
0.013518336
-2.9931631e-06
0.013519066
-2.7954386e-06
0.013519748
-2.6108088e-06
0.013520386
-2.4383717e-06
0.013520981
-2.2773501e-06
0.013521537
-2.1269558e-06
0.013522056
-1.9865478e-06
0.013522541
-1.8553909e-06
0.013522994
-1.7329856e-06
0.013523417
-1.6186107e-06
0.013523812
-1.5118948e-06
0.013524181
-1.4120803e-06
0.013524526
-1.3190451e-06
0.013524848
-1.2318501e-06
0.013525149
-1.150767e-06
0.01352543
-1.0745685e-06
0.013525692
-1.0040571e-06
0.013525937
-9.3724225e-07
0.013526167
-8.7630402e-07
0.01352638
-8.1778242e-07
0.013526579
-7.6502094e-07
0.013526767
-7.1250847e-07
0.013526942
-6.6834992e-07
0.013527104
-6.2134606e-07
0.013527256
-5.8526762e-07
0.013527399
-5.4103161e-07
0.013527534
-5.1515986e-07
0.013527658
-4.7222286e-07
0.013527779
-4.5901611e-07
-4.1607264e-07
0.010188704
-0.00035427932
0.010530487
-0.00079057335
0.010851453
-0.0009189482
0.011124174
-0.00090167137
0.011350581
-0.00084262623
0.011524486
-0.00075768559
0.01164633
-0.00065662744
0.011724155
-0.00055365586
0.011767999
-0.00045977083
0.011786639
-0.00037975354
0.011787114
-0.00031409259
0.011775058
-0.00026140427
0.011754861
-0.00021969949
0.011729768
-0.00018689787
0.011702054
-0.00016105802
0.011673239
-0.00014051894
0.011644339
-0.00012399295
0.011616003
-0.00011047599
0.011588629
-9.9219868e-05
0.011562446
-8.9681405e-05
0.011537572
-8.1470672e-05
0.011514052
-7.4307852e-05
0.011491889
-6.7990501e-05
0.011471056
-6.2369993e-05
0.011451509
-5.7335016e-05
0.011433193
-5.2800184e-05
0.011416051
-4.8698265e-05
0.011400021
-4.4974953e-05
0.011385042
-4.158539e-05
0.011371051
-3.8491846e-05
0.01135799
-3.5662155e-05
0.011345801
-3.306861e-05
0.01133443
-3.0687171e-05
0.011323822
-2.8496849e-05
0.011313929
-2.6479242e-05
0.011304704
-2.4618148e-05
0.011296101
-2.2899249e-05
0.01128808
-2.1309852e-05
0.011280601
-1.9838665e-05
0.011273628
-1.847561e-05
0.011267125
-1.7211662e-05
0.011261062
-1.6038715e-05
0.011255408
-1.4949472e-05
0.011250135
-1.3937333e-05
0.011245218
-1.2996321e-05
0.011240632
-1.212101e-05
0.011236354
-1.1306458e-05
0.011232364
-1.0548156e-05
0.011228643
-9.8419784e-06
0.01122517
-9.1841362e-06
0.011221931
-8.5711467e-06
0.011218909
-7.9998027e-06
0.011216089
-7.467151e-06
0.011213457
-6.9704658e-06
0.011211002
-6.5072353e-06
0.01120871
-6.0751387e-06
0.011206572
-5.6720293e-06
0.011204576
-5.2959226e-06
0.011202713
-4.9449768e-06
0.011200974
-4.6174781e-06
0.011199351
-4.3118294e-06
0.011197836
-4.0265415e-06
0.011196422
-3.7602329e-06
0.011195101
-3.5116131e-06
0.011193868
-3.2794871e-06
0.011192718
-3.0627472e-06
0.011191643
-2.860376e-06
0.01119064
-2.6714254e-06
0.011189703
-2.4950137e-06
0.011188829
-2.3303059e-06
0.011188012
-2.1765227e-06
0.011187249
-2.0329093e-06
0.011186537
-1.8987878e-06
0.011185873
-1.7734978e-06
0.011185252
-1.6564715e-06
0.011184672
-1.5471445e-06
0.01118413
-1.4450606e-06
0.011183625
-1.3497075e-06
0.011183152
-1.2607107e-06
0.011182711
-1.1775665e-06
0.0111823
-1.1000016e-06
0.011181915
-1.0274638e-06
0.011181556
-9.5980999e-07
0.01118122
-8.96442e-07
0.011180907
-8.3743668e-07
0.011180614
-7.8196389e-07
0.011180341
-7.305616e-07
0.011180086
-6.8219829e-07
0.011179847
-6.376679e-07
0.011179624
-5.9502676e-07
0.011179416
-5.5653617e-07
0.011179223
-5.1915888e-07
0.01117904
-4.8629894e-07
0.011178872
-4.5280075e-07
0.011178712
-4.2542018e-07
0.011178566
-3.9517751e-07
0.011178425
-3.7415077e-07
0.0111783
-3.4705431e-07
0.011178177
-3.3599426e-07
-3.1069752e-07
0.010339525
-0.00069380425
0.010570754
-0.0010218027
0.010606301
-0.00095449448
0.010547572
-0.00084294333
0.010422317
-0.0007173708
0.010244356
-0.00057972444
0.010039421
-0.00045169205
0.0098287427
-0.00034297801
0.009625135
-0.00025616318
0.0094353013
-0.00018991983
0.0092624277
-0.00014121897
0.0091075332
-0.0001065098
0.008970154
-8.2320226e-05
0.0088489023
-6.5646249e-05
0.0087419716
-5.4127255e-05
0.0086474927
-4.6040044e-05
0.008563694
-4.0194286e-05
0.0084890108
-3.5792751e-05
0.0084221096
-3.2318757e-05
0.0083618775
-2.9449283e-05
0.0083073954
-2.698858e-05
0.0082579079
-2.4820304e-05
0.0082127929
-2.2875483e-05
0.0081715353
-2.1112419e-05
0.0081337049
-1.9504656e-05
0.0080989388
-1.8034017e-05
0.0080669272
-1.6686726e-05
0.0080374036
-1.5451364e-05
0.0080101361
-1.4317863e-05
0.0079849213
-1.3277072e-05
0.0079615798
-1.2320591e-05
0.0079399519
-1.1440719e-05
0.0079198951
-1.0630432e-05
0.0079012817
-9.8833635e-06
0.0078839962
-9.1937709e-06
0.0078679345
-8.5564977e-06
0.0078530022
-7.9669224e-06
0.0078391133
-7.4209081e-06
0.0078261894
-6.9147505e-06
0.0078141589
-6.4451267e-06
0.0078029563
-6.0090517e-06
0.0077925214
-5.6038386e-06
0.007782799
-5.2270621e-06
0.0077737382
-4.8765277e-06
0.0077652921
-4.5502447e-06
0.0077574175
-4.2464021e-06
0.0077500744
-3.963348e-06
0.0077432258
-3.6995736e-06
0.0077368375
-3.4536949e-06
0.0077308778
-3.2244367e-06
0.0077253173
-3.0106234e-06
0.0077201286
-2.8111707e-06
0.0077152866
-2.6250771e-06
0.0077107675
-2.4514171e-06
0.0077065496
-2.2893376e-06
0.0077026125
-2.1380507e-06
0.0076989373
-1.9968244e-06
0.0076955064
-1.8649809e-06
0.0076923033
-1.7418921e-06
0.0076893128
-1.6269696e-06
0.0076865206
-1.5196625e-06
0.0076839135
-1.4194571e-06
0.0076814792
-1.3258753e-06
0.007679206
-1.2384694e-06
0.0076770834
-1.1568267e-06
0.0076751012
-1.0805671e-06
0.0076732502
-1.0093384e-06
0.0076715216
-9.4281304e-07
0.0076699072
-8.8068732e-07
0.0076683996
-8.2266948e-07
0.0076669915
-7.6848689e-07
0.0076656765
-7.1787621e-07
0.0076644483
-6.7059711e-07
0.0076633012
-6.264173e-07
0.0076622299
-5.851398e-07
0.0076612294
-5.4656879e-07
0.0076602949
-5.1054633e-07
0.007659422
-4.7689403e-07
0.0076586068
-4.454852e-07
0.0076578453
-4.1613676e-07
0.0076571341
-3.8875503e-07
0.0076564698
-3.6314838e-07
0.0076558492
-3.3926428e-07
0.0076552697
-3.1688003e-07
0.0076547283
-2.9604372e-07
0.0076542229
-2.7645978e-07
0.0076537506
-2.5827221e-07
0.0076533094
-2.4117103e-07
0.0076528971
-2.2548316e-07
0.0076525126
-2.1041744e-07
0.0076521529
-1.9666656e-07
0.0076518173
-1.8360907e-07
0.0076515028
-1.7205752e-07
0.0076512105
-1.6040695e-07
0.0076509355
-1.5028704e-07
0.0076506807
-1.4040336e-07
0.0076504386
-1.3208726e-07
0.0076502165
-1.2500237e-07
0.0076499999
-1.1933608e-07
-1.2571479e-07
0.0093061957
0.0082843931
0.0073298986
0.0064869553
0.0057695845
0.00518986
0.004738168
0.00439519
0.0041390268
0.003949107
0.003807888
0.0037013782
0.003619058
0.0035534117
0.0034992845
0.0034532444
0.0034130501
0.0033772574
0.0033449386
0.0033154893
0.0032885008
0.0032636805
0.003240805
0.0032196926
0.0032001879
0.0031821539
0.0031654672
0.0031500158
0.0031356979
0.0031224208
0.0031101003
0.0030986595
0.0030880291
0.0030781458
0.003068952
0.0030603955
0.0030524286
0.0030450076
0.0030380929
0.0030316478
0.0030256387
0.0030200349
0.0030148078
0.0030099313
0.0030053811
0.0030011347
0.0029971713
0.0029934717
0.002990018
0.0029867936
0.0029837829
0.0029809718
0.0029783467
0.0029758953
0.002973606
0.002971468
0.0029694711
0.0029676061
0.0029658642
0.0029642372
0.0029627175
0.0029612981
0.0029599722
0.0029587338
0.002957577
0.0029564965
0.0029554871
0.0029545443
0.0029536635
0.0029528408
0.0029520723
0.0029513545
0.0029506839
0.0029500575
0.0029494724
0.0029489259
0.0029484153
0.0029479384
0.0029474928
0.0029470767
0.0029466879
0.0029463248
0.0029459856
0.0029456687
0.0029453727
0.0029450963
0.002944838
0.0029445965
0.0029443711
0.002944161
0.0029439642
0.0029437802
0.0029436083
0.0029434482
0.002943298
0.0029431574
0.0029430253
0.0029429003
0.0029427809
)
;

boundaryField
{
    top
    {
        type            calculated;
        value           uniform 0;
    }
    inlet
    {
        type            calculated;
        value           nonuniform List<scalar> 10(-0.01 -0.01 -0.01 -0.01 -0.01 -0.01 -0.01 -0.01 -0.01 -0.01);
    }
    outlet
    {
        type            calculated;
        value           nonuniform List<scalar> 10(0.002942655 0.0076498148 0.011178072 0.01352789 0.014701568 0.014701568 0.01352789 0.011178072 0.0076498149 0.0029426552);
    }
    bottom
    {
        type            calculated;
        value           uniform 0;
    }
    back
    {
        type            empty;
        value           nonuniform 0();
    }
    front
    {
        type            empty;
        value           nonuniform 0();
    }
}


// ************************************************************************* //
