/*--------------------------------*- C++ -*----------------------------------*\
| =========                 |                                                 |
| \\      /  F ield         | OpenFOAM: The Open Source CFD Toolbox           |
|  \\    /   O peration     | Version:  v1812                                 |
|   \\  /    A nd           | Web:      www.OpenFOAM.com                      |
|    \\/     M anipulation  |                                                 |
\*---------------------------------------------------------------------------*/
FoamFile
{
    version     2.0;
    format      ascii;
    class       surfaceScalarField;
    location    "11.55";
    object      phi;
}
// * * * * * * * * * * * * * * * * * * * * * * * * * * * * * * * * * * * * * //

dimensions      [0 3 -1 0 0 0 0];
oriented        oriented;


internalField   nonuniform List<scalar> 
1890
(
0.0093061957
0.00069380425
0.0082843931
0.0010218027
0.0073298986
0.00095449448
0.0064869553
0.00084294333
0.0057695845
0.00071737079
0.00518986
0.00057972443
0.004738168
0.00045169205
0.0043951899
0.00034297802
0.0041390268
0.00025616319
0.0039491069
0.00018991984
0.003807888
0.00014121897
0.0037013782
0.00010650978
0.003619058
8.2320207e-05
0.0035534118
6.5646236e-05
0.0034992845
5.4127254e-05
0.0034532444
4.6040056e-05
0.0034130501
4.0194304e-05
0.0033772574
3.5792767e-05
0.0033449386
3.2318764e-05
0.0033154893
2.9449278e-05
0.0032885008
2.6988567e-05
0.0032636805
2.4820288e-05
0.003240805
2.287547e-05
0.0032196926
2.1112414e-05
0.0032001879
1.950466e-05
0.0031821539
1.8034029e-05
0.0031654672
1.6686743e-05
0.0031500158
1.5451379e-05
0.0031356979
1.4317871e-05
0.0031224208
1.327707e-05
0.0031101002
1.232058e-05
0.0030986595
1.1440703e-05
0.0030880291
1.0630417e-05
0.0030781458
9.8833535e-06
0.003068952
9.1937706e-06
0.0030603955
8.5565071e-06
0.0030524286
7.9669395e-06
0.0030450076
7.4209278e-06
0.0030380929
6.9147656e-06
0.0030316477
6.4451328e-06
0.0030256387
6.0090458e-06
0.0030200349
5.6038226e-06
0.0030148078
5.2270407e-06
0.0030099313
4.8765078e-06
0.0030053811
4.5502344e-06
0.0030011347
4.2464056e-06
0.0029971713
3.9633673e-06
0.0029934717
3.6996028e-06
0.002990018
3.4537231e-06
0.0029867935
3.2244545e-06
0.0029837829
3.0106229e-06
0.0029809717
2.8111521e-06
0.0029783467
2.6250458e-06
0.0029758953
2.4513847e-06
0.002973606
2.2893174e-06
0.002971468
2.1380496e-06
0.0029694711
1.996847e-06
0.0029676061
1.8650216e-06
0.0029658641
1.741936e-06
0.0029642371
1.6270014e-06
0.0029627175
1.5196676e-06
0.002961298
1.4194334e-06
0.0029599722
1.3258282e-06
0.0029587338
1.2384166e-06
0.002957577
1.1567914e-06
0.0029564965
1.0805634e-06
0.0029554871
1.0093732e-06
0.0029545442
9.4287564e-07
0.0029536634
8.8075371e-07
0.0029528407
8.2271636e-07
0.0029520722
7.6849282e-07
0.0029513544
7.178412e-07
0.0029506839
6.7053558e-07
0.0029500575
6.2635822e-07
0.0029494724
5.8511512e-07
0.0029489258
5.4659321e-07
0.0029484152
5.1062003e-07
0.0029479382
4.7699684e-07
0.0029474926
4.4558125e-07
0.0029470764
4.1620208e-07
0.0029466876
3.8876613e-07
0.0029463245
3.6310847e-07
0.0029459854
3.391963e-07
0.0029456686
3.1681803e-07
0.0029453726
2.9600732e-07
0.0029450962
2.7646308e-07
0.0029448378
2.5832549e-07
0.0029445967
2.4117405e-07
0.0029443713
2.2534823e-07
0.0029441611
2.1023547e-07
0.0029439646
1.9649731e-07
0.0029437815
1.8317349e-07
0.0029436102
1.7137347e-07
0.0029434506
1.5963139e-07
0.002943301
1.4959174e-07
0.0029431617
1.3938189e-07
0.0029430308
1.3096283e-07
0.0029429076
1.2329804e-07
0.0029427901
1.1746011e-07
1.2216308e-07
0.010339525
0.00035427932
0.010570754
0.00079057334
0.010606301
0.0009189482
0.010547573
0.00090167135
0.010422317
0.00084262622
0.010244356
0.00075768558
0.010039421
0.00065662744
0.0098287426
0.00055365588
0.009625135
0.00045977085
0.0094353013
0.00037975356
0.0092624277
0.00031409259
0.0091075332
0.00026140425
0.008970154
0.00021969947
0.0088489024
0.00018689785
0.0087419716
0.00016105801
0.0086474927
0.00014051895
0.008563694
0.00012399297
0.0084890107
0.00011047601
0.0084221096
9.9219879e-05
0.0083618775
8.9681406e-05
0.0083073954
8.1470664e-05
0.0082579079
7.4307838e-05
0.0082127929
6.7990488e-05
0.0081715353
6.2369985e-05
0.008133705
5.7335016e-05
0.0080989388
5.2800192e-05
0.0080669272
4.8698278e-05
0.0080374036
4.4974967e-05
0.0080101361
4.15854e-05
0.0079849213
3.8491849e-05
0.0079615797
3.566215e-05
0.0079399519
3.3068601e-05
0.0079198952
3.0687159e-05
0.0079012817
2.849684e-05
0.0078839962
2.647924e-05
0.0078679346
2.4618153e-05
0.0078530022
2.2899261e-05
0.0078391133
2.1309868e-05
0.0078261893
1.9838681e-05
0.0078141588
1.8475621e-05
0.0078029562
1.7211665e-05
0.0077925213
1.603871e-05
0.0077827989
1.4949457e-05
0.0077737382
1.3937314e-05
0.0077652921
1.2996306e-05
0.0077574175
1.2121007e-05
0.0077500744
1.1306471e-05
0.0077432258
1.0548183e-05
0.0077368375
9.8420104e-06
0.0077308777
9.1841631e-06
0.0077253172
8.5711594e-06
0.0077201285
7.9997981e-06
0.0077152865
7.4671303e-06
0.0077107675
6.9704372e-06
0.0077065497
6.5072102e-06
0.0077026126
6.075128e-06
0.0076989374
5.6720422e-06
0.0076955064
5.2959585e-06
0.0076923032
4.9450261e-06
0.0076893126
4.6175253e-06
0.0076865204
4.3118581e-06
0.0076839134
4.0265421e-06
0.0076814791
3.7602023e-06
0.007679206
3.5115621e-06
0.0076770834
3.2794386e-06
0.0076751013
3.0627263e-06
0.0076732502
2.8603975e-06
0.0076715215
2.6714866e-06
0.0076699071
2.4950959e-06
0.0076683993
2.3303814e-06
0.0076669912
2.1765628e-06
0.0076656762
2.0329068e-06
0.0076644481
1.8987469e-06
0.0076633012
1.7734471e-06
0.0076622299
1.6564412e-06
0.0076612293
1.5471623e-06
0.0076602948
1.4451298e-06
0.0076594218
1.3498177e-06
0.0076586064
1.2608306e-06
0.0076578449
1.177663e-06
0.0076571337
1.1000264e-06
0.0076564695
1.0274132e-06
0.0076558491
9.5968582e-07
0.0076552698
8.9626452e-07
0.0076547286
8.3722512e-07
0.0076542232
7.8179052e-07
0.0076537511
7.3037073e-07
0.0076533103
6.817984e-07
0.0076528984
6.3706592e-07
0.0076525143
5.943029e-07
0.0076521553
5.5553698e-07
0.007651821
5.1762248e-07
0.007651508
4.8439982e-07
0.0076512172
4.5041249e-07
0.007650944
4.2269192e-07
0.0076506916
3.9169654e-07
0.007650452
3.703188e-07
0.0076502333
3.418826e-07
0.0076500203
3.3033209e-07
3.029373e-07
0.010188704
0.00016557515
0.010530487
0.00044879099
0.010851453
0.00059798176
0.011124174
0.00062895023
0.011350581
0.00061621884
0.011524487
0.00058378054
0.01164633
0.0005347842
0.011724155
0.0004758305
0.011767999
0.00041592668
0.011786639
0.00036111402
0.011787114
0.00031361714
0.011775058
0.00027346027
0.011754861
0.00023989718
0.011729768
0.00021199029
0.011702054
0.00018877258
0.011673239
0.00016933386
0.011644339
0.00015289295
0.011616003
0.00013881183
0.011588629
0.00012659381
0.011562446
0.00011586447
0.011537571
0.00010634496
0.011514052
9.7827018e-05
0.011491889
9.0153368e-05
0.011471056
8.3203358e-05
0.011451509
7.6882596e-05
0.011433193
7.111554e-05
0.011416051
6.5840276e-05
0.011400021
6.1004901e-05
0.011385042
5.6565075e-05
0.011371051
5.2482354e-05
0.01135799
4.8723051e-05
0.011345801
4.5257411e-05
0.01133443
4.205901e-05
0.011323822
3.9104277e-05
0.011313929
3.6372114e-05
0.011304704
3.384359e-05
0.011296101
3.1501672e-05
0.01128808
2.9330999e-05
0.011280601
2.7317694e-05
0.011273628
2.5449186e-05
0.011267125
2.3714071e-05
0.011261062
2.2101983e-05
0.011255408
2.0603483e-05
0.011250135
1.9209967e-05
0.011245218
1.791357e-05
0.011240632
1.6707101e-05
0.011236354
1.5583963e-05
0.011232365
1.4538095e-05
0.011228643
1.3563925e-05
0.01122517
1.265631e-05
0.011221931
1.181051e-05
0.011218909
1.1022145e-05
0.011216089
1.0287167e-05
0.011213457
9.6018447e-06
0.011211002
8.9627248e-06
0.01120871
8.3666208e-06
0.011206572
7.8105789e-06
0.011204576
7.2918572e-06
0.011202713
6.8079097e-06
0.011200974
6.3563569e-06
0.011199351
5.934984e-06
0.011197836
5.5417255e-06
0.011196421
5.1746605e-06
0.011195101
4.8320177e-06
0.011193868
4.512152e-06
0.011192718
4.2135493e-06
0.011191643
3.9348033e-06
0.01119064
3.6745958e-06
0.011189703
3.4317012e-06
0.011188828
3.2049464e-06
0.011188012
2.9932412e-06
0.011187249
2.7955457e-06
0.011186537
2.6109122e-06
0.011185872
2.4384509e-06
0.011185252
2.27738e-06
0.011184672
2.1269384e-06
0.01118413
1.986496e-06
0.011183625
1.8553479e-06
0.011183152
1.7329715e-06
0.011182711
1.6186428e-06
0.011182299
1.5119588e-06
0.011181915
1.4121482e-06
0.011181555
1.3190414e-06
0.01118122
1.2317625e-06
0.011180907
1.1505385e-06
0.011180615
1.0741788e-06
0.011180341
1.0035278e-06
0.011180086
9.366472e-07
0.011179848
8.7542571e-07
0.011179625
8.1648417e-07
0.011179417
7.6370025e-07
0.011179224
7.1104919e-07
0.011179042
6.6620157e-07
0.011178875
6.1818441e-07
0.011178716
5.8168212e-07
0.011178571
5.3651427e-07
0.011178431
5.1006819e-07
0.011178307
4.6559432e-07
0.011178185
4.5208097e-07
4.0722241e-07
0.010097182
6.839355e-05
0.010346961
0.00019901111
0.010662469
0.00028247386
0.010982753
0.00030866647
0.011290229
0.0003087434
0.011575251
0.00029875788
0.011829022
0.00028101346
0.012047865
0.00025698757
0.012233272
0.00023051984
0.01238924
0.00020514592
0.012520295
0.00018256238
0.012630755
0.00016299958
0.012724428
0.0001462249
0.012804515
0.0001319031
0.012873613
0.00011967423
0.012933772
0.00010917458
0.012986596
0.00010006905
0.013033332
9.2076369e-05
0.01307495
8.4975277e-05
0.013112216
7.8598649e-05
0.013145739
7.2822341e-05
0.013176012
6.7553963e-05
0.013203441
6.2723929e-05
0.013228366
5.827888e-05
0.013251071
5.4176956e-05
0.013271803
5.0384396e-05
0.01329077
4.6873134e-05
0.013308155
4.3619168e-05
0.013324119
4.0601472e-05
0.0133388
3.780131e-05
0.013352321
3.5201794e-05
0.013364791
3.278757e-05
0.013376305
3.0544619e-05
0.01338695
2.8460096e-05
0.0133968
2.6522206e-05
0.013405923
2.4720104e-05
0.013414381
2.3043805e-05
0.013422228
2.1484114e-05
0.013429513
2.0032549e-05
0.013436281
1.8681284e-05
0.013442572
1.7423099e-05
0.013448422
1.6251324e-05
0.013453866
1.5159806e-05
0.013458933
1.4142856e-05
0.013463652
1.3195224e-05
0.013468047
1.231205e-05
0.013472142
1.1488832e-05
0.013475959
1.0721402e-05
0.013479517
1.0005889e-05
0.013482834
9.338695e-06
0.013485928
8.7164763e-06
0.013488814
8.1361254e-06
0.013491507
7.5947654e-06
0.013494019
7.0897211e-06
0.013496363
6.6185215e-06
0.013498551
6.1788736e-06
0.013500593
5.7686459e-06
0.013502499
5.385861e-06
0.013504278
5.0286643e-06
0.013505939
4.6953247e-06
0.01350749
4.384215e-06
0.013508938
4.0938143e-06
0.013510289
3.8227189e-06
0.013511552
3.5696184e-06
0.013512731
3.3333157e-06
0.013513832
3.1127035e-06
0.01351486
2.9067541e-06
0.01351582
2.7145132e-06
0.013516716
2.5350745e-06
0.013517554
2.3675743e-06
0.013518336
2.2111943e-06
0.013519066
2.0651496e-06
0.013519748
1.92874e-06
0.013520385
1.801295e-06
0.013520981
1.6822509e-06
0.013521537
1.5710575e-06
0.013522056
1.4672671e-06
0.013522541
1.3703689e-06
0.013522994
1.2799869e-06
0.013523417
1.1955583e-06
0.013523812
1.1167987e-06
0.013524181
1.0430778e-06
0.013524526
9.7431577e-07
0.013524848
9.0978314e-07
0.013525149
8.4976442e-07
0.01352543
7.9326114e-07
0.013525692
7.4112068e-07
0.013525937
6.9163059e-07
0.013526166
6.4660219e-07
0.013526379
6.0293521e-07
0.013526578
5.6428509e-07
0.013526764
5.2505815e-07
0.013526938
4.9242501e-07
0.0135271
4.5627006e-07
0.013527252
4.3008508e-07
0.013527393
3.9563994e-07
0.013527526
3.7719807e-07
0.013527649
3.4257003e-07
0.013527767
3.3343056e-07
2.9995005e-07
0.010068394
-7.2276265e-12
0.010267405
-1.5080495e-11
0.010549879
-1.7301818e-11
0.010858545
-1.3739194e-11
0.011167289
-3.2717477e-12
0.011466046
8.1672815e-12
0.01174706
1.8920389e-11
0.012004047
2.4535235e-11
0.012234567
2.071964e-11
0.012439713
8.43544e-12
0.012622275
-7.010501e-12
0.012785275
-2.1081219e-11
0.0129315
-3.002608e-11
0.013063403
-3.0089408e-11
0.013183077
-1.9551453e-11
0.013292252
-1.4749824e-12
0.013392321
1.4000148e-11
0.013484397
2.7469527e-11
0.013569373
3.1588986e-11
0.013647971
2.5467325e-11
0.013720793
9.0257283e-12
0.013788347
-7.8213582e-12
0.013851071
-2.2122845e-11
0.01390935
-3.1202837e-11
0.013963527
-2.8284992e-11
0.014013912
-1.60327e-11
0.014060785
2.1318568e-12
0.014104404
1.8640017e-11
0.014145006
2.9613079e-11
0.014182807
3.1962598e-11
0.014218009
2.3168283e-11
0.014250796
5.7580198e-12
0.014281341
-1.0434273e-11
0.014309801
-2.5171318e-11
0.014336323
-3.1022553e-11
0.014361043
-2.6110874e-11
0.014384087
-8.7629089e-12
0.014405571
1.0704468e-11
0.014425604
2.6908768e-11
0.014444285
3.6718988e-11
0.014461708
3.3345069e-11
0.014477959
1.8706662e-11
0.014493119
-1.3688548e-12
0.014507262
-1.9855221e-11
0.014520457
-3.2289436e-11
0.014532769
-3.1642756e-11
0.014544258
-1.4243616e-11
0.01455498
8.4275889e-12
0.014564985
3.2193362e-11
0.014574324
4.8237737e-11
0.014583041
4.9280586e-11
0.014591177
3.5029106e-11
0.014598771
7.1277375e-12
0.014605861
-1.8927051e-11
0.014612479
-3.869627e-11
0.014618658
-4.2364844e-11
0.014624427
-2.1103767e-11
0.014629813
9.6940408e-12
0.014634842
4.5747687e-11
0.014639537
7.0937336e-11
0.014643921
7.5020772e-11
0.014648015
5.5486127e-11
0.014651837
1.5696889e-11
0.014655407
-2.6035082e-11
0.01465874
-5.9187739e-11
0.014661853
-6.776498e-11
0.01466476
-4.2775402e-11
0.014667475
3.4758193e-12
0.01467001
5.5763024e-11
0.014672377
9.5492977e-11
0.014674588
1.072652e-10
0.014676653
8.4323959e-11
0.014678582
3.2862863e-11
0.014680383
-2.3908129e-11
0.014682065
-6.9060127e-11
0.014683636
-8.5039424e-11
0.014685104
-5.9927845e-11
0.014686474
-4.8196419e-12
0.014687754
4.5900617e-11
0.01468895
9.3313568e-11
0.014690067
9.9847635e-11
0.014691109
6.1019089e-11
0.014692084
-6.231282e-12
0.014692993
-7.9155744e-11
0.014693843
-1.2759261e-10
0.014694637
-1.3517963e-10
0.014695378
-1.0621831e-10
0.01469607
-4.634826e-11
0.014696717
6.4379651e-12
0.01469732
3.574772e-11
0.014697884
1.61999e-11
0.014698409
-3.3190973e-11
0.014698901
-1.1759733e-10
0.014699358
-1.7769881e-10
0.014699788
-2.1574617e-10
0.014700184
-1.8937588e-10
0.014700562
-1.5585659e-10
0.014700904
-8.7416899e-11
0.014701238
-1.6514399e-11
3.1875552e-11
0.010068394
-6.8393564e-05
0.010267405
-0.00019901114
0.010549879
-0.00028247389
0.010858545
-0.00030866649
0.011167289
-0.0003087434
0.011466046
-0.00029875785
0.01174706
-0.00028101342
0.012004047
-0.00025698752
0.012234567
-0.00023051981
0.012439713
-0.00020514592
0.012622275
-0.0001825624
0.012785275
-0.00016299963
0.0129315
-0.00014622496
0.013063403
-0.00013190314
0.013183077
-0.00011967425
0.013292252
-0.00010917457
0.013392321
-0.00010006901
0.013484397
-9.2076314e-05
0.013569373
-8.4975226e-05
0.013647971
-7.8598619e-05
0.013720793
-7.282234e-05
0.013788347
-6.7553994e-05
0.013851071
-6.2723981e-05
0.01390935
-5.8278934e-05
0.013963527
-5.4176995e-05
0.014013912
-5.0384407e-05
0.014060785
-4.6873114e-05
0.014104404
-4.3619121e-05
0.014145006
-4.0601413e-05
0.014182807
-3.780126e-05
0.014218009
-3.5201768e-05
0.014250796
-3.2787576e-05
0.014281341
-3.0544655e-05
0.014309801
-2.8460149e-05
0.014336323
-2.6522256e-05
0.014361043
-2.4720133e-05
0.014384087
-2.3043802e-05
0.014405571
-2.1484077e-05
0.014425604
-2.0032487e-05
0.014444285
-1.8681218e-05
0.014461708
-1.742305e-05
0.014477959
-1.6251308e-05
0.014493119
-1.5159827e-05
0.014507262
-1.4142906e-05
0.014520457
-1.3195279e-05
0.014532769
-1.2312087e-05
0.014544258
-1.1488833e-05
0.01455498
-1.0721362e-05
0.014564985
-1.0005813e-05
0.014574324
-9.3386036e-06
0.014583041
-8.7163991e-06
0.014591177
-8.136087e-06
0.014598771
-7.5947757e-06
0.014605861
-7.0897724e-06
0.014612479
-6.6185879e-06
0.014618658
-6.1789225e-06
0.014624427
-5.7686487e-06
0.014629813
-5.3858045e-06
0.014634842
-5.0285554e-06
0.014639537
-4.6951888e-06
0.014643921
-4.3840963e-06
0.014648015
-4.0937509e-06
0.014651837
-3.8227288e-06
0.014655407
-3.5696927e-06
0.01465874
-3.3334193e-06
0.014661853
-3.112789e-06
0.01466476
-2.9067775e-06
0.014667475
-2.7144512e-06
0.01467001
-2.5349314e-06
0.014672377
-2.367384e-06
0.014674588
-2.2110175e-06
0.014676653
-2.065042e-06
0.014678582
-1.928734e-06
0.014680383
-1.8013843e-06
0.014682065
-1.6823948e-06
0.014683636
-1.5711906e-06
0.014685104
-1.4673274e-06
0.014686474
-1.3703275e-06
0.014687755
-1.2798519e-06
0.01468895
-1.1953897e-06
0.014690067
-1.1166641e-06
0.01469111
-1.0430374e-06
0.014692084
-9.7439035e-07
0.014692993
-9.0995822e-07
0.014693843
-8.4998822e-07
0.014694637
-7.9346622e-07
0.014695378
-7.412455e-07
0.01469607
-6.9167213e-07
0.014696717
-6.4657434e-07
0.01469732
-6.0291013e-07
0.014697884
-5.6431531e-07
0.014698409
-5.2520607e-07
0.014698901
-4.9267933e-07
0.014699358
-4.5661911e-07
0.014699788
-4.304528e-07
0.014700184
-3.9596761e-07
0.014700562
-3.774224e-07
0.014700904
-3.4270373e-07
0.014701238
-3.3346489e-07
-2.9994439e-07
0.010097182
-0.00016557516
0.010346961
-0.00044879101
0.010662469
-0.00059798178
0.010982753
-0.00062895023
0.011290229
-0.00061621883
0.011575251
-0.00058378051
0.011829022
-0.00053478417
0.012047865
-0.00047583049
0.012233272
-0.00041592669
0.01238924
-0.00036111406
0.012520295
-0.00031361718
0.012630755
-0.0002734603
0.012724428
-0.00023989719
0.012804515
-0.00021199028
0.012873613
-0.00018877255
0.012933772
-0.00016933382
0.012986596
-0.00015289292
0.013033332
-0.00013881182
0.01307495
-0.00012659381
0.013112216
-0.0001158645
0.013145739
-0.00010634499
0.013176012
-9.7827047e-05
0.013203441
-9.0153384e-05
0.013228366
-8.3203356e-05
0.013251071
-7.6882576e-05
0.013271803
-7.1115508e-05
0.01329077
-6.5840243e-05
0.013308155
-6.1004878e-05
0.013324119
-5.6565069e-05
0.0133388
-5.2482367e-05
0.013352321
-4.8723076e-05
0.013364791
-4.5257442e-05
0.013376305
-4.2059034e-05
0.01338695
-3.9104284e-05
0.0133968
-3.6372102e-05
0.013405923
-3.3843559e-05
0.013414381
-3.1501633e-05
0.013422228
-2.9330966e-05
0.013429513
-2.7317676e-05
0.013436281
-2.544919e-05
0.013442572
-2.3714093e-05
0.013448422
-2.2102016e-05
0.013453866
-2.0603512e-05
0.013458933
-1.9209977e-05
0.013463652
-1.7913555e-05
0.013468047
-1.670706e-05
0.013472142
-1.5583907e-05
0.013475959
-1.4538042e-05
0.013479517
-1.356389e-05
0.013482834
-1.2656306e-05
0.013485928
-1.1810533e-05
0.013488814
-1.1022184e-05
0.013491507
-1.0287204e-05
0.013494019
-9.6018578e-06
0.013496363
-8.9627028e-06
0.013498551
-8.3665589e-06
0.013500593
-7.8104945e-06
0.013502499
-7.2917741e-06
0.013504278
-6.8078532e-06
0.013505939
-6.3563455e-06
0.01350749
-5.9350143e-06
0.013508938
-5.5417838e-06
0.013510289
-5.1747175e-06
0.013511552
-4.8320417e-06
0.013512731
-4.5121275e-06
0.013513832
-4.2134708e-06
0.01351486
-3.9346945e-06
0.01351582
-3.6744892e-06
0.013516717
-3.4316281e-06
0.013517554
-3.204929e-06
0.013518336
-2.9932737e-06
0.013519066
-2.7956097e-06
0.013519748
-2.6109733e-06
0.013520386
-2.4384726e-06
0.013520981
-2.2773495e-06
0.013521537
-2.1268561e-06
0.013522056
-1.9863937e-06
0.013522541
-1.8552634e-06
0.013522994
-1.7329359e-06
0.013523417
-1.6186757e-06
0.013523812
-1.5120474e-06
0.013524181
-1.4122632e-06
0.013524526
-1.3191439e-06
0.013524848
-1.2318187e-06
0.013525149
-1.150549e-06
0.01352543
-1.0741575e-06
0.013525692
-1.0035116e-06
0.013525937
-9.3667239e-07
0.013526166
-8.7551483e-07
0.013526379
-8.1663993e-07
0.013526578
-7.6390477e-07
0.013526764
-7.1126732e-07
0.013526938
-6.6640998e-07
0.0135271
-6.1836224e-07
0.013527252
-5.8184184e-07
0.013527393
-5.3665956e-07
0.013527526
-5.1020812e-07
0.013527649
-4.6572554e-07
0.013527767
-4.5225074e-07
-4.0734755e-07
0.010188704
-0.00035427933
0.010530487
-0.00079057335
0.010851453
-0.0009189482
0.011124174
-0.00090167134
0.011350582
-0.00084262619
0.011524487
-0.00075768556
0.01164633
-0.00065662745
0.011724155
-0.00055365591
0.011767999
-0.0004597709
0.011786639
-0.0003797536
0.011787114
-0.00031409261
0.011775058
-0.00026140424
0.011754861
-0.00021969943
0.011729768
-0.0001868978
0.011702054
-0.00016105797
0.011673239
-0.00014051893
0.011644339
-0.00012399298
0.011616003
-0.00011047605
0.011588629
-9.9219926e-05
0.011562446
-8.9681448e-05
0.011537571
-8.1470686e-05
0.011514052
-7.4307832e-05
0.011491889
-6.7990457e-05
0.011471056
-6.2369939e-05
0.011451509
-5.7334971e-05
0.011433193
-5.2800163e-05
0.011416051
-4.8698275e-05
0.011400021
-4.497499e-05
0.011385042
-4.1585442e-05
0.011371051
-3.8491895e-05
0.01135799
-3.5662185e-05
0.011345801
-3.3068611e-05
0.011334429
-3.068714e-05
0.011323822
-2.8496798e-05
0.011313929
-2.6479187e-05
0.011304704
-2.4618108e-05
0.011296101
-2.2899239e-05
0.01128808
-2.1309878e-05
0.011280601
-1.9838719e-05
0.011273628
-1.8475674e-05
0.011267125
-1.7211713e-05
0.011261062
-1.6038734e-05
0.011255408
-1.4949446e-05
0.011250135
-1.3937268e-05
0.011245218
-1.2996238e-05
0.011240632
-1.212094e-05
0.011236355
-1.1306428e-05
0.011232365
-1.054818e-05
0.011228643
-9.8420491e-06
0.01122517
-9.1842286e-06
0.011221931
-8.5712271e-06
0.011218909
-7.9998385e-06
0.011216089
-7.4671226e-06
0.011213457
-6.9703779e-06
0.011211002
-6.5071134e-06
0.011208711
-6.0750261e-06
0.011206572
-5.6719701e-06
0.011204576
-5.2959438e-06
0.011202713
-4.9450757e-06
0.011200974
-4.6176191e-06
0.011199351
-4.3119595e-06
0.011197836
-4.0266066e-06
0.011196421
-3.7601976e-06
0.011195101
-3.5114822e-06
0.011193869
-3.279304e-06
0.011192718
-3.0625842e-06
0.011191643
-2.8602981e-06
0.01119064
-2.6714678e-06
0.011189704
-2.495165e-06
0.011188829
-2.330508e-06
0.011188012
-2.1766956e-06
0.011187249
-2.0329868e-06
0.011186537
-1.8987352e-06
0.011185872
-1.7733404e-06
0.011185252
-1.6562739e-06
0.011184672
-1.546999e-06
0.011184131
-1.4450339e-06
0.011183625
-1.3498293e-06
0.011183153
-1.2609466e-06
0.011182711
-1.1778369e-06
0.011182299
-1.1001922e-06
0.011181915
-1.0275044e-06
0.011181555
-9.5967216e-07
0.01118122
-8.961606e-07
0.011180907
-8.3708659e-07
0.011180615
-7.81689e-07
0.011180341
-7.3036625e-07
0.011180086
-6.8190772e-07
0.011179848
-6.3727167e-07
0.011179625
-5.9453829e-07
0.011179417
-5.5574876e-07
0.011179224
-5.1775466e-07
0.011179042
-4.8445919e-07
0.011178874
-4.5041329e-07
0.011178715
-4.227017e-07
0.01117857
-3.9173711e-07
0.01117843
-3.7043273e-07
0.011178306
-3.4205187e-07
0.011178185
-3.3055468e-07
-3.03105e-07
0.010339525
-0.00069380425
0.010570754
-0.0010218027
0.010606301
-0.00095449446
0.010547573
-0.00084294331
0.010422317
-0.00071737079
0.010244356
-0.00057972445
0.010039421
-0.00045169208
0.0098287426
-0.00034297805
0.0096251349
-0.00025616321
0.0094353012
-0.00018991985
0.0092624277
-0.00014121896
0.0091075333
-0.00010650976
0.008970154
-8.232018e-05
0.0088489024
-6.5646213e-05
0.0087419717
-5.4127242e-05
0.0086474927
-4.6040061e-05
0.008563694
-4.0194325e-05
0.0084890107
-3.5792795e-05
0.0084221096
-3.231879e-05
0.0083618774
-2.9449293e-05
0.0083073954
-2.6988565e-05
0.0082579079
-2.482027e-05
0.0082127929
-2.2875442e-05
0.0081715354
-2.1112385e-05
0.008133705
-1.9504641e-05
0.0080989388
-1.8034026e-05
0.0080669272
-1.6686756e-05
0.0080374036
-1.5451405e-05
0.008010136
-1.4317901e-05
0.0079849213
-1.3277093e-05
0.0079615797
-1.2320589e-05
0.0079399519
-1.1440694e-05
0.0079198952
-1.0630392e-05
0.0079012817
-9.8833219e-06
0.0078839963
-9.1937421e-06
0.0078679346
-8.5564925e-06
0.0078530023
-7.9669438e-06
0.0078391133
-7.4209503e-06
0.0078261893
-6.9147989e-06
0.0078141588
-6.4451639e-06
0.0078029562
-6.0090641e-06
0.0077925213
-5.6038194e-06
0.007782799
-5.2270164e-06
0.0077737382
-4.8764702e-06
0.0077652922
-4.5501953e-06
0.0077574176
-4.2463804e-06
0.0077500745
-3.9633642e-06
0.0077432258
-3.6996246e-06
0.0077368374
-3.4537626e-06
0.0077308777
-3.2244958e-06
0.0077253171
-3.0106514e-06
0.0077201286
-2.8111532e-06
0.0077152866
-2.6250172e-06
0.0077107676
-2.4513342e-06
0.0077065498
-2.2892608e-06
0.0077026128
-2.1380096e-06
0.0076989375
-1.9968373e-06
0.0076955065
-1.8650486e-06
0.0076923033
-1.741991e-06
0.0076893126
-1.6270619e-06
0.0076865204
-1.5197121e-06
0.0076839134
-1.4194395e-06
0.0076814792
-1.3257915e-06
0.0076792062
-1.2383474e-06
0.0076770837
-1.1567119e-06
0.0076751016
-1.0805054e-06
0.0076732505
-1.0093563e-06
0.0076715217
-9.4290898e-07
0.0076699072
-8.8082584e-07
0.0076683994
-8.2279718e-07
0.0076669913
-7.6855315e-07
0.0076656764
-7.1785215e-07
0.0076644483
-6.7049078e-07
0.0076633015
-6.262731e-07
0.0076622303
-5.8501732e-07
0.0076612297
-5.4652494e-07
0.007660295
-5.1060489e-07
0.007659422
-4.770433e-07
0.0076586065
-4.4567206e-07
0.007657845
-4.162985e-07
0.0076571337
-3.8883283e-07
0.0076564696
-3.6311814e-07
0.0076558493
-3.3914532e-07
0.00765527
-3.1673411e-07
0.0076547288
-2.9592194e-07
0.0076542234
-2.7642143e-07
0.0076537511
-2.5834366e-07
0.0076533102
-2.4125403e-07
0.0076528983
-2.2546161e-07
0.0076525141
-2.1034907e-07
0.0076521551
-1.965712e-07
0.0076518207
-1.8320097e-07
0.0076515078
-1.7134463e-07
0.007651217
-1.5958693e-07
0.0076509438
-1.4954481e-07
0.0076506913
-1.3937842e-07
0.0076504517
-1.3099659e-07
0.0076502329
-1.2337834e-07
0.0076500199
-1.1755881e-07
-1.2224911e-07
0.0093061957
0.0082843931
0.0073298987
0.0064869554
0.0057695845
0.00518986
0.0047381679
0.0043951899
0.0041390267
0.0039491069
0.003807888
0.0037013783
0.003619058
0.0035534118
0.0034992845
0.0034532444
0.0034130501
0.0033772573
0.0033449386
0.0033154893
0.0032885008
0.0032636805
0.003240805
0.0032196926
0.003200188
0.0031821539
0.0031654671
0.0031500157
0.0031356979
0.0031224208
0.0031101002
0.0030986596
0.0030880292
0.0030781458
0.0030689521
0.0030603955
0.0030524286
0.0030450076
0.0030380928
0.0030316477
0.0030256387
0.0030200349
0.0030148079
0.0030099314
0.0030053811
0.0030011347
0.0029971713
0.0029934717
0.0029900179
0.0029867935
0.0029837829
0.0029809718
0.0029783468
0.0029758954
0.0029736061
0.002971468
0.0029694711
0.0029676061
0.0029658641
0.0029642371
0.0029627175
0.0029612981
0.0029599724
0.002958734
0.0029575772
0.0029564966
0.0029554871
0.0029545442
0.0029536634
0.0029528407
0.0029520723
0.0029513545
0.002950684
0.0029500577
0.0029494726
0.0029489259
0.0029484152
0.0029479382
0.0029474926
0.0029470764
0.0029466877
0.0029463246
0.0029459855
0.0029456687
0.0029453726
0.0029450961
0.0029448377
0.0029445965
0.0029443712
0.002944161
0.0029439645
0.0029437814
0.0029436101
0.0029434505
0.0029433009
0.0029431616
0.0029430307
0.0029429074
0.0029427899
)
;

boundaryField
{
    top
    {
        type            calculated;
        value           uniform 0;
    }
    inlet
    {
        type            calculated;
        value           nonuniform List<scalar> 10(-0.01 -0.01 -0.01 -0.01 -0.01 -0.01 -0.01 -0.01 -0.01 -0.01);
    }
    outlet
    {
        type            calculated;
        value           nonuniform List<scalar> 10(0.002942668 0.0076498395 0.011178081 0.013527875 0.014701538 0.014701538 0.013527875 0.01117808 0.0076498391 0.0029426678);
    }
    bottom
    {
        type            calculated;
        value           uniform 0;
    }
    back
    {
        type            empty;
        value           nonuniform 0();
    }
    front
    {
        type            empty;
        value           nonuniform 0();
    }
}


// ************************************************************************* //
