/*--------------------------------*- C++ -*----------------------------------*\
| =========                 |                                                 |
| \\      /  F ield         | OpenFOAM: The Open Source CFD Toolbox           |
|  \\    /   O peration     | Version:  v1812                                 |
|   \\  /    A nd           | Web:      www.OpenFOAM.com                      |
|    \\/     M anipulation  |                                                 |
\*---------------------------------------------------------------------------*/
FoamFile
{
    version     2.0;
    format      ascii;
    class       volVectorField;
    location    "11.55";
    object      U;
}
// * * * * * * * * * * * * * * * * * * * * * * * * * * * * * * * * * * * * * //

dimensions      [0 1 -1 0 0 0 0];


internalField   nonuniform List<vector> 
1000
(
(0.91890839 0.035821913 0)
(0.86271384 0.062195638 0)
(0.7870597 0.06251009 0)
(0.69536033 0.054550395 0)
(0.61089745 0.044531651 0)
(0.54411592 0.034015971 0)
(0.49343012 0.02418754 0)
(0.45479413 0.01614423 0)
(0.42544582 0.010265786 0)
(0.40347313 0.0063041454 0)
(0.38715766 0.0037976292 0)
(0.3749622 0.0023103377 0)
(0.36566193 0.0014930145 0)
(0.35836273 0.001085118 0)
(0.35244268 0.00090607247 0)
(0.34748201 0.00084105218 0)
(0.34320348 0.00082372467 0)
(0.33942726 0.00081931081 0)
(0.33603793 0.00081185209 0)
(0.33296114 0.00079580101 0)
(0.33014778 0.00077081104 0)
(0.32756384 0.00073870903 0)
(0.3251842 0.00070188903 0)
(0.32298902 0.00066256564 0)
(0.32096172 0.00062249987 0)
(0.31908785 0.00058295796 0)
(0.31735449 0.00054477215 0)
(0.31574995 0.00050843462 0)
(0.3142636 0.00047419177 0)
(0.31288574 0.00044212444 0)
(0.31160755 0.00041220898 0)
(0.31042101 0.00038436098 0)
(0.30931883 0.00035846435 0)
(0.30829438 0.00033438989 0)
(0.30734165 0.00031200662 0)
(0.30645516 0.00029118791 0)
(0.30562991 0.00027181487 0)
(0.30486136 0.00025377749 0)
(0.30414535 0.00023697493 0)
(0.30347806 0.00022131514 0)
(0.302856 0.00020671404 0)
(0.30227596 0.00019309497 0)
(0.30173496 0.00018038773 0)
(0.30123029 0.00016852796 0)
(0.30075942 0.00015745653 0)
(0.30032002 0.00014711881 0)
(0.29990993 0.0001374645 0)
(0.29952715 0.00012844696 0)
(0.29916983 0.0001200231 0)
(0.29883624 0.00011215307 0)
(0.29852478 0.0001047998 0)
(0.29823396 9.7929122e-05 0)
(0.29796241 9.1509095e-05 0)
(0.29770882 8.5510045e-05 0)
(0.29747201 7.9904307e-05 0)
(0.29725085 7.4665823e-05 0)
(0.29704429 6.9770435e-05 0)
(0.29685138 6.5195343e-05 0)
(0.29667119 6.0919373e-05 0)
(0.2965029 5.6922978e-05 0)
(0.29634571 5.3187765e-05 0)
(0.29619889 4.9697069e-05 0)
(0.29606175 4.6435052e-05 0)
(0.29593366 4.3387024e-05 0)
(0.29581401 4.0539173e-05 0)
(0.29570224 3.7878096e-05 0)
(0.29559784 3.5391515e-05 0)
(0.29550032 3.306751e-05 0)
(0.29540922 3.089525e-05 0)
(0.29532412 2.8864887e-05 0)
(0.29524463 2.696719e-05 0)
(0.29517038 2.5194049e-05 0)
(0.29510102 2.3537728e-05 0)
(0.29503624 2.1990653e-05 0)
(0.29497572 2.0546096e-05 0)
(0.29491919 1.9196353e-05 0)
(0.29486638 1.7935453e-05 0)
(0.29481704 1.6756311e-05 0)
(0.29477095 1.565415e-05 0)
(0.2947279 1.4623129e-05 0)
(0.29468769 1.3660322e-05 0)
(0.29465013 1.2759973e-05 0)
(0.29461504 1.1921279e-05 0)
(0.29458228 1.1136238e-05 0)
(0.29455166 1.0406426e-05 0)
(0.29452308 9.7203084e-06 0)
(0.29449635 9.0835468e-06 0)
(0.29447141 8.4805844e-06 0)
(0.29444809 7.9244902e-06 0)
(0.29442635 7.3933504e-06 0)
(0.29440601 6.9111601e-06 0)
(0.29438707 6.4449626e-06 0)
(0.29436935 6.0315362e-06 0)
(0.29435282 5.6262508e-06 0)
(0.29433741 5.274114e-06 0)
(0.29432287 4.9398024e-06 0)
(0.29430964 4.6463293e-06 0)
(0.29429636 4.4663042e-06 0)
(0.29428576 4.3176228e-06 0)
(0.29426997 4.874684e-06 0)
(1.0016583 0.05381943 0)
(1.0359761 0.10128444 0)
(1.0597199 0.11073663 0)
(1.0628947 0.10592201 0)
(1.0515569 0.096228726 0)
(1.0340529 0.08393406 0)
(1.0142795 0.070327063 0)
(0.99360703 0.056981335 0)
(0.97292576 0.045107481 0)
(0.95310739 0.035236751 0)
(0.93479538 0.02740165 0)
(0.91829012 0.021387226 0)
(0.90362379 0.016884497 0)
(0.89068068 0.013569708 0)
(0.87928175 0.011147748 0)
(0.86923242 0.0093736595 0)
(0.86034423 0.0080569295 0)
(0.85244667 0.0070571289 0)
(0.84539241 0.0062752392 0)
(0.83905792 0.0056438286 0)
(0.83334126 0.0051180902 0)
(0.82815884 0.004668671 0)
(0.82344212 0.004276416 0)
(0.81913467 0.0039287378 0)
(0.81518962 0.0036172032 0)
(0.81156765 0.0033359709 0)
(0.80823544 0.003080805 0)
(0.8051644 0.00284847 0)
(0.80232979 0.00263637 0)
(0.79970999 0.0024423386 0)
(0.79728597 0.0022645181 0)
(0.79504086 0.0021012886 0)
(0.79295963 0.0019512239 0)
(0.79102881 0.0018130619 0)
(0.78923628 0.0016856832 0)
(0.7875711 0.001568093 0)
(0.78602338 0.001459407 0)
(0.78458412 0.0013588375 0)
(0.78324511 0.0012656819 0)
(0.78199889 0.0011793126 0)
(0.7808386 0.001099167 0)
(0.77975798 0.0010247401 0)
(0.77875127 0.00095557684 0)
(0.77781318 0.00089126612 0)
(0.77693881 0.00083143553 0)
(0.77612368 0.00077574637 0)
(0.77536363 0.00072389013 0)
(0.77465481 0.00067558475 0)
(0.77399367 0.00063057203 0)
(0.77337693 0.0005886152 0)
(0.77280152 0.0005494965 0)
(0.77226463 0.00051301584 0)
(0.77176362 0.00047898861 0)
(0.77129606 0.00044724447 0)
(0.77085967 0.00041762601 0)
(0.77045234 0.00038998711 0)
(0.77007212 0.00036419247 0)
(0.76971717 0.00034011607 0)
(0.76938581 0.00031764093 0)
(0.76907643 0.00029665851 0)
(0.76878759 0.00027706779 0)
(0.7685179 0.00025877554 0)
(0.76826608 0.00024169503 0)
(0.76803095 0.00022574571 0)
(0.76781139 0.00021085271 0)
(0.76760636 0.00019694549 0)
(0.76741489 0.00018395848 0)
(0.76723608 0.00017182962 0)
(0.76706909 0.00016050137 0)
(0.76691314 0.00014992009 0)
(0.76676749 0.00014003613 0)
(0.76663147 0.00013080361 0)
(0.76650444 0.00012218054 0)
(0.76638581 0.00011412669 0)
(0.766275 0.00010660613 0)
(0.76617152 9.9581811e-05 0)
(0.76607485 9.3022458e-05 0)
(0.76598457 8.6893596e-05 0)
(0.76590023 8.1169308e-05 0)
(0.76582147 7.5817846e-05 0)
(0.7657479 7.0820858e-05 0)
(0.7656792 6.6147364e-05 0)
(0.76561502 6.1788713e-05 0)
(0.76555512 5.7708779e-05 0)
(0.76549912 5.3910735e-05 0)
(0.76544688 5.0345904e-05 0)
(0.76539801 4.7035728e-05 0)
(0.76535246 4.3910741e-05 0)
(0.7653098 4.1024916e-05 0)
(0.76527012 3.8274079e-05 0)
(0.76523292 3.5766538e-05 0)
(0.76519835 3.3336977e-05 0)
(0.76516598 3.1178003e-05 0)
(0.76513578 2.9023849e-05 0)
(0.76510784 2.7195012e-05 0)
(0.76508098 2.5282757e-05 0)
(0.76505775 2.3799285e-05 0)
(0.76503218 2.218022e-05 0)
(0.76501612 2.1200195e-05 0)
(0.76498593 2.0391306e-05 0)
(1.0014244 0.026824854 0)
(1.0291272 0.062791352 0)
(1.0654292 0.077736552 0)
(1.098962 0.080597198 0)
(1.1253149 0.078285169 0)
(1.145053 0.073153898 0)
(1.1594858 0.066111278 0)
(1.1694287 0.058162064 0)
(1.1755354 0.050296756 0)
(1.1785738 0.04315071 0)
(1.1793571 0.036972827 0)
(1.1785949 0.031771632 0)
(1.1768304 0.027451838 0)
(1.1744518 0.023886766 0)
(1.1717287 0.020947618 0)
(1.1688444 0.018515779 0)
(1.1659195 0.016488085 0)
(1.1630317 0.014779504 0)
(1.1602295 0.013322987 0)
(1.1575415 0.012067134 0)
(1.1549828 0.010973002 0)
(1.1525601 0.010011062 0)
(1.1502747 0.0091587463 0)
(1.1481246 0.0083986031 0)
(1.1461059 0.0077169491 0)
(1.1442134 0.007102887 0)
(1.1424414 0.0065475912 0)
(1.1407838 0.0060437954 0)
(1.1392344 0.0055854269 0)
(1.1377869 0.0051673459 0)
(1.1364353 0.0047851583 0)
(1.1351738 0.0044350771 0)
(1.1339968 0.0041138171 0)
(1.1328987 0.0038185125 0)
(1.1318746 0.0035466521 0)
(1.1309195 0.0032960261 0)
(1.1300289 0.0030646824 0)
(1.1291985 0.0028508903 0)
(1.1284242 0.0026531107 0)
(1.1277022 0.0024699696 0)
(1.1270291 0.0023002369 0)
(1.1264014 0.0021428082 0)
(1.1258161 0.0019966888 0)
(1.1252702 0.0018609807 0)
(1.1247612 0.0017348705 0)
(1.1242865 0.0016176199 0)
(1.1238437 0.001508557 0)
(1.1234307 0.0014070682 0)
(1.1230455 0.0013125927 0)
(1.1226861 0.0012246161 0)
(1.1223509 0.0011426664 0)
(1.1220381 0.0010663094 0)
(1.1217462 0.00099514574 0)
(1.1214739 0.00092880768 0)
(1.1212198 0.00086695608 0)
(1.1209827 0.00080927804 0)
(1.1207614 0.00075548421 0)
(1.1205548 0.0007053063 0)
(1.1203621 0.0006584956 0)
(1.1201821 0.00061482054 0)
(1.1200142 0.00057406595 0)
(1.1198574 0.00053603191 0)
(1.1197111 0.0005005329 0)
(1.1195744 0.00046739735 0)
(1.1194469 0.00043646621 0)
(1.1193278 0.00040759206 0)
(1.1192167 0.00038063796 0)
(1.1191129 0.00035547546 0)
(1.119016 0.0003319851 0)
(1.1189255 0.00031005368 0)
(1.118841 0.00028957615 0)
(1.1187621 0.00027045327 0)
(1.1186884 0.00025259463 0)
(1.1186196 0.00023591489 0)
(1.1185554 0.00022033842 0)
(1.1184954 0.00020579087 0)
(1.1184394 0.00019220942 0)
(1.1183871 0.00017952529 0)
(1.1183382 0.0001676861 0)
(1.1182926 0.0001566239 0)
(1.11825 0.00014629874 0)
(1.1182102 0.00013664104 0)
(1.118173 0.00012763137 0)
(1.1181384 0.00011919179 0)
(1.1181059 0.00011133454 0)
(1.1180758 0.00010395593 0)
(1.1180474 9.7116552e-05 0)
(1.1180211 9.0654787e-05 0)
(1.1179963 8.4714475e-05 0)
(1.1179735 7.9024692e-05 0)
(1.1179517 7.3885598e-05 0)
(1.117932 6.8823643e-05 0)
(1.1179129 6.4432338e-05 0)
(1.1178957 5.9854741e-05 0)
(1.1178793 5.6227728e-05 0)
(1.1178639 5.1975409e-05 0)
(1.1178505 4.9239011e-05 0)
(1.1178355 4.5144844e-05 0)
(1.1178268 4.3616053e-05 0)
(1.1178092 3.9630199e-05 0)
(1.0007347 0.011814721 0)
(1.0178472 0.030860926 0)
(1.0462163 0.04143444 0)
(1.0799018 0.045193568 0)
(1.1132664 0.045502349 0)
(1.143782 0.044080306 0)
(1.1708941 0.041439982 0)
(1.1945687 0.037973679 0)
(1.2148582 0.034195731 0)
(1.2319652 0.030536889 0)
(1.2462683 0.027222047 0)
(1.2582339 0.024313921 0)
(1.2683135 0.021797887 0)
(1.2768875 0.019633658 0)
(1.2842554 0.017773823 0)
(1.2906479 0.016169649 0)
(1.296243 0.014775588 0)
(1.3011791 0.013552298 0)
(1.3055645 0.012467865 0)
(1.3094838 0.011497469 0)
(1.3130042 0.010622165 0)
(1.3161792 0.0098275154 0)
(1.3190526 0.0091024116 0)
(1.3216607 0.0084381756 0)
(1.3240343 0.0078279014 0)
(1.3261995 0.0072659715 0)
(1.3281786 0.0067477063 0)
(1.3299913 0.0062691156 0)
(1.3316544 0.005826728 0)
(1.3331829 0.0054174754 0)
(1.3345896 0.0050386153 0)
(1.3358862 0.0046876767 0)
(1.3370827 0.0043624215 0)
(1.3381882 0.004060815 0)
(1.3392108 0.003781003 0)
(1.3401576 0.0035212926 0)
(1.3410349 0.0032801356 0)
(1.3418486 0.0030561151 0)
(1.3426038 0.0028479331 0)
(1.3433051 0.0026543986 0)
(1.3439569 0.0024744188 0)
(1.3445629 0.0023069898 0)
(1.3451267 0.0021511893 0)
(1.3456513 0.002006169 0)
(1.3461398 0.0018711482 0)
(1.3465947 0.0017454078 0)
(1.3470185 0.0016282845 0)
(1.3474135 0.0015191659 0)
(1.3477816 0.0014174857 0)
(1.3481249 0.0013227198 0)
(1.3484449 0.0012343826 0)
(1.3487435 0.0011520242 0)
(1.349022 0.0010752282 0)
(1.3492818 0.001003609 0)
(1.3495242 0.00093680966 0)
(1.3497505 0.00087449985 0)
(1.3499616 0.00081637306 0)
(1.3501587 0.00076214474 0)
(1.3503427 0.00071154983 0)
(1.3505145 0.00066434094 0)
(1.3506748 0.00062028702 0)
(1.3508245 0.00057917231 0)
(1.3509643 0.00054079656 0)
(1.3510948 0.0005049741 0)
(1.3512167 0.00047153338 0)
(1.3513305 0.00044031595 0)
(1.3514368 0.00041117484 0)
(1.3515361 0.00038397286 0)
(1.3516288 0.00035858173 0)
(1.3517153 0.00033487931 0)
(1.3517962 0.00031275134 0)
(1.3518717 0.00029208847 0)
(1.3519422 0.00027279164 0)
(1.3520081 0.0002547668 0)
(1.3520696 0.00023793242 0)
(1.3521271 0.00022220877 0)
(1.3521807 0.00020753056 0)
(1.3522309 0.00019382439 0)
(1.3522777 0.00018103662 0)
(1.3523215 0.00016909058 0)
(1.3523623 0.00015794566 0)
(1.3524005 0.00014751803 0)
(1.352436 0.00013779309 0)
(1.3524694 0.00012867331 0)
(1.3525004 0.00012018963 0)
(1.3525296 0.00011220794 0)
(1.3525565 0.00010483203 0)
(1.3525822 9.7839247e-05 0)
(1.3526054 9.1457187e-05 0)
(1.3526281 8.5290793e-05 0)
(1.3526479 7.9802009e-05 0)
(1.3526681 7.4281505e-05 0)
(1.3526847 6.9632699e-05 0)
(1.3527033 6.4574229e-05 0)
(1.3527167 6.0803238e-05 0)
(1.3527343 5.6015038e-05 0)
(1.352744 5.3273769e-05 0)
(1.3527619 4.8534102e-05 0)
(1.3527674 4.7068604e-05 0)
(1.3527874 4.2135209e-05 0)
(1.0005903 0.0034629152 0)
(1.0136865 0.0093660184 0)
(1.0370283 0.013046804 0)
(1.0674202 0.01456326 0)
(1.1000315 0.014854524 0)
(1.1316428 0.014564991 0)
(1.1610745 0.013888339 0)
(1.1880674 0.012919247 0)
(1.2125205 0.011806508 0)
(1.2343939 0.010696428 0)
(1.2538077 0.0096727428 0)
(1.2710339 0.0087628215 0)
(1.286401 0.0079659719 0)
(1.3002112 0.0072722121 0)
(1.3127102 0.006668806 0)
(1.3240903 0.0061419236 0)
(1.3345036 0.005678072 0)
(1.3440716 0.0052653223 0)
(1.3528927 0.0048939376 0)
(1.3610463 0.0045563987 0)
(1.3685975 0.0042470721 0)
(1.3756004 0.0039617768 0)
(1.3821012 0.003697397 0)
(1.3881402 0.0034515805 0)
(1.3937533 0.0032225158 0)
(1.3989728 0.0030087673 0)
(1.403828 0.0028091565 0)
(1.4083456 0.0026226792 0)
(1.4125503 0.0024484512 0)
(1.4164646 0.0022856732 0)
(1.4201094 0.0021336102 0)
(1.423504 0.0019915782 0)
(1.426666 0.0018589369 0)
(1.4296121 0.001735085 0)
(1.4323573 0.0016194566 0)
(1.4349159 0.0015115189 0)
(1.4373007 0.0014107709 0)
(1.4395241 0.0013167412 0)
(1.441597 0.001228987 0)
(1.4435301 0.0011470929 0)
(1.4453328 0.0010706697 0)
(1.4470143 0.00099935298 0)
(1.4485827 0.00093280253 0)
(1.4500459 0.00087070029 0)
(1.451411 0.00081274939 0)
(1.4526846 0.00075867267 0)
(1.4538731 0.00070821114 0)
(1.4549822 0.00066112281 0)
(1.4560172 0.00061718102 0)
(1.4569831 0.00057617403 0)
(1.4578847 0.00053790423 0)
(1.4587262 0.00050218717 0)
(1.4595117 0.00046885132 0)
(1.460245 0.0004377369 0)
(1.4609295 0.00040869567 0)
(1.4615685 0.00038158964 0)
(1.4621651 0.00035629007 0)
(1.4627221 0.00033267673 0)
(1.4632422 0.00031063642 0)
(1.4637278 0.0002900629 0)
(1.4641812 0.00027085703 0)
(1.4646045 0.00025292599 0)
(1.4649998 0.00023618407 0)
(1.4653689 0.00022055158 0)
(1.4657136 0.00020595552 0)
(1.4660355 0.00019232829 0)
(1.4663361 0.00017960693 0)
(1.4666168 0.00016773232 0)
(1.466879 0.0001566479 0)
(1.4671238 0.0001462995 0)
(1.4673524 0.00013663681 0)
(1.467566 0.00012761153 0)
(1.4677654 0.0001191809 0)
(1.4679516 0.00011130404 0)
(1.4681256 0.00010394711 0)
(1.468288 9.7076143e-05 0)
(1.4684397 9.0663783e-05 0)
(1.4685815 8.4677747e-05 0)
(1.4687138 7.909414e-05 0)
(1.4688375 7.3877723e-05 0)
(1.4689529 6.9010899e-05 0)
(1.4690608 6.4453736e-05 0)
(1.4691614 6.0203161e-05 0)
(1.4692557 5.6213003e-05 0)
(1.4693433 5.2505149e-05 0)
(1.4694257 4.9013364e-05 0)
(1.4695019 4.5795347e-05 0)
(1.469574 4.2737696e-05 0)
(1.4696401 3.9960879e-05 0)
(1.4697036 3.7260691e-05 0)
(1.4697604 3.4877693e-05 0)
(1.4698168 3.2448447e-05 0)
(1.4698649 3.0436017e-05 0)
(1.4699159 2.8196211e-05 0)
(1.4699553 2.6578135e-05 0)
(1.4700032 2.4449649e-05 0)
(1.4700328 2.3292364e-05 0)
(1.4700811 2.1175226e-05 0)
(1.4700981 2.0563707e-05 0)
(1.4701526 1.8337524e-05 0)
(1.0005903 -0.0034629166 0)
(1.0136865 -0.0093660213 0)
(1.0370283 -0.013046808 0)
(1.0674202 -0.014563262 0)
(1.1000315 -0.014854524 0)
(1.1316428 -0.014564989 0)
(1.1610745 -0.013888335 0)
(1.1880674 -0.012919242 0)
(1.2125205 -0.011806505 0)
(1.2343939 -0.010696427 0)
(1.2538077 -0.0096727446 0)
(1.2710339 -0.0087628259 0)
(1.286401 -0.0079659776 0)
(1.3002112 -0.0072722175 0)
(1.3127102 -0.0066688093 0)
(1.3240903 -0.0061419236 0)
(1.3345036 -0.0056780688 0)
(1.3440716 -0.0052653169 0)
(1.3528927 -0.0048939318 0)
(1.3610463 -0.0045563943 0)
(1.3685975 -0.0042470707 0)
(1.3756004 -0.0039617788 0)
(1.3821012 -0.0036974017 0)
(1.3881402 -0.0034515863 0)
(1.3937533 -0.0032225208 0)
(1.3989728 -0.0030087698 0)
(1.403828 -0.0028091556 0)
(1.4083456 -0.0026226752 0)
(1.4125503 -0.0024484454 0)
(1.4164646 -0.0022856674 0)
(1.4201094 -0.0021336063 0)
(1.423504 -0.0019915774 0)
(1.426666 -0.0018589395 0)
(1.4296121 -0.0017350901 0)
(1.4323573 -0.0016194623 0)
(1.4349159 -0.0015115233 0)
(1.4373007 -0.0014107722 0)
(1.4395241 -0.0013167386 0)
(1.441597 -0.0012289814 0)
(1.4435301 -0.0011470859 0)
(1.4453329 -0.0010706637 0)
(1.4470143 -0.00099934989 0)
(1.4485827 -0.0009328033 0)
(1.4500459 -0.00087070448 0)
(1.451411 -0.00081275534 0)
(1.4526846 -0.00075867801 0)
(1.4538731 -0.00070821338 0)
(1.4549822 -0.0006611204 0)
(1.4560172 -0.00061717419 0)
(1.4569831 -0.0005761647 0)
(1.4578847 -0.00053789525 0)
(1.4587262 -0.00050218127 0)
(1.4595117 -0.00046885032 0)
(1.460245 -0.00043774093 0)
(1.4609295 -0.00040870281 0)
(1.4615685 -0.00038159672 0)
(1.4621651 -0.00035629337 0)
(1.4627221 -0.00033267365 0)
(1.4632422 -0.00031062671 0)
(1.4637278 -0.00029004912 0)
(1.4641812 -0.0002708433 0)
(1.4646045 -0.00025291656 0)
(1.4649998 -0.00023618188 0)
(1.4653689 -0.00022055717 0)
(1.4657136 -0.00020596639 0)
(1.4660355 -0.00019233983 0)
(1.4663361 -0.00017961364 0)
(1.4666168 -0.00016772998 0)
(1.466879 -0.00015663571 0)
(1.4671238 -0.00014628063 0)
(1.4673524 -0.00013661687 0)
(1.467566 -0.00012759674 0)
(1.4677654 -0.00011917572 0)
(1.4679516 -0.00011130989 0)
(1.4681256 -0.00010396076 0)
(1.468288 -9.7091549e-05 0)
(1.4684398 -9.0673928e-05 0)
(1.4685815 -8.4677599e-05 0)
(1.4687138 -7.908349e-05 0)
(1.4688375 -7.3860075e-05 0)
(1.4689529 -6.8993299e-05 0)
(1.4690608 -6.4443817e-05 0)
(1.4691614 -6.0206034e-05 0)
(1.4692557 -5.6229127e-05 0)
(1.4693433 -5.2529223e-05 0)
(1.4694257 -4.9037946e-05 0)
(1.4695019 -4.5813721e-05 0)
(1.469574 -4.2745601e-05 0)
(1.4696401 -3.9959604e-05 0)
(1.4697036 -3.725531e-05 0)
(1.4697604 -3.4876407e-05 0)
(1.4698168 -3.2457822e-05 0)
(1.4698649 -3.0459932e-05 0)
(1.4699159 -2.8231832e-05 0)
(1.4699553 -2.6618925e-05 0)
(1.4700032 -2.4486216e-05 0)
(1.4700328 -2.3320354e-05 0)
(1.4700811 -2.1191887e-05 0)
(1.4700981 -2.0567403e-05 0)
(1.4701526 -1.8332487e-05 0)
(1.0007347 -0.011814722 0)
(1.0178472 -0.030860928 0)
(1.0462163 -0.041434443 0)
(1.0799018 -0.045193569 0)
(1.1132664 -0.045502348 0)
(1.143782 -0.044080304 0)
(1.1708941 -0.041439978 0)
(1.1945687 -0.037973676 0)
(1.2148582 -0.03419573 0)
(1.2319652 -0.030536891 0)
(1.2462683 -0.02722205 0)
(1.2582339 -0.024313926 0)
(1.2683135 -0.021797891 0)
(1.2768875 -0.019633659 0)
(1.2842554 -0.017773823 0)
(1.2906479 -0.016169647 0)
(1.296243 -0.014775585 0)
(1.3011791 -0.013552294 0)
(1.3055645 -0.012467863 0)
(1.3094838 -0.011497468 0)
(1.3130042 -0.010622166 0)
(1.3161792 -0.0098275184 0)
(1.3190526 -0.0091024152 0)
(1.3216607 -0.0084381784 0)
(1.3240343 -0.0078279026 0)
(1.3261995 -0.0072659705 0)
(1.3281786 -0.0067477035 0)
(1.3299913 -0.0062691119 0)
(1.3316544 -0.0058267245 0)
(1.3331829 -0.0054174733 0)
(1.3345896 -0.0050386152 0)
(1.3358862 -0.0046876785 0)
(1.3370827 -0.0043624246 0)
(1.3381882 -0.0040608183 0)
(1.3392108 -0.0037810052 0)
(1.3401576 -0.0035212926 0)
(1.3410349 -0.0032801334 0)
(1.3418486 -0.0030561114 0)
(1.3426038 -0.0028479288 0)
(1.3433051 -0.0026543952 0)
(1.3439569 -0.0024744172 0)
(1.3445629 -0.0023069906 0)
(1.3451267 -0.002151192 0)
(1.3456513 -0.0020061723 0)
(1.3461398 -0.0018711505 0)
(1.3465947 -0.0017454078 0)
(1.3470185 -0.0016282818 0)
(1.3474135 -0.001519161 0)
(1.3477816 -0.0014174798 0)
(1.3481249 -0.0013227145 0)
(1.3484449 -0.0012343795 0)
(1.3487435 -0.0011520242 0)
(1.349022 -0.0010752308 0)
(1.3492818 -0.0010036127 0)
(1.3495242 -0.00093681236 0)
(1.3497505 -0.00087449951 0)
(1.3499616 -0.00081636889 0)
(1.3501588 -0.00076213731 0)
(1.3503427 -0.00071154089 0)
(1.3505145 -0.00066433288 0)
(1.3506748 -0.00062028205 0)
(1.3508245 -0.00057917181 0)
(1.3509643 -0.00054080016 0)
(1.3510948 -0.00050497963 0)
(1.3512167 -0.000471538 0)
(1.3513305 -0.00044031672 0)
(1.3514368 -0.00041117044 0)
(1.3515361 -0.00038396381 0)
(1.3516288 -0.00035857002 0)
(1.3517154 -0.00033486799 0)
(1.3517962 -0.00031274339 0)
(1.3518717 -0.00029208595 0)
(1.3519422 -0.00027279464 0)
(1.3520081 -0.00025477299 0)
(1.3520696 -0.00023793879 0)
(1.3521271 -0.00022221184 0)
(1.3521808 -0.00020752845 0)
(1.3522309 -0.00019381757 0)
(1.3522777 -0.00018102716 0)
(1.3523215 -0.00016908277 0)
(1.3523623 -0.00015794283 0)
(1.3524005 -0.00014752194 0)
(1.352436 -0.00013780282 0)
(1.3524694 -0.00012868603 0)
(1.3525004 -0.00012020236 0)
(1.3525296 -0.00011221784 0)
(1.3525565 -0.00010483753 0)
(1.3525822 -9.7842018e-05 0)
(1.3526054 -9.145958e-05 0)
(1.3526281 -8.5296927e-05 0)
(1.3526479 -7.9813969e-05 0)
(1.3526681 -7.430072e-05 0)
(1.3526847 -6.9657276e-05 0)
(1.3527033 -6.4601817e-05 0)
(1.3527166 -6.0830392e-05 0)
(1.3527343 -5.6039191e-05 0)
(1.352744 -5.3292218e-05 0)
(1.3527619 -4.8546753e-05 0)
(1.3527674 -4.7078236e-05 0)
(1.3527874 -4.2141133e-05 0)
(1.0014244 -0.026824855 0)
(1.0291272 -0.062791353 0)
(1.0654292 -0.077736552 0)
(1.098962 -0.080597197 0)
(1.1253149 -0.078285167 0)
(1.145053 -0.073153896 0)
(1.1594858 -0.066111277 0)
(1.1694287 -0.058162065 0)
(1.1755354 -0.050296759 0)
(1.1785738 -0.043150715 0)
(1.1793571 -0.03697283 0)
(1.1785949 -0.031771634 0)
(1.1768304 -0.027451837 0)
(1.1744518 -0.023886763 0)
(1.1717287 -0.020947614 0)
(1.1688444 -0.018515776 0)
(1.1659195 -0.016488083 0)
(1.1630317 -0.014779505 0)
(1.1602295 -0.01332299 0)
(1.1575415 -0.012067138 0)
(1.1549828 -0.010973005 0)
(1.1525601 -0.010011064 0)
(1.1502747 -0.0091587457 0)
(1.1481246 -0.0083986005 0)
(1.1461059 -0.0077169454 0)
(1.1442135 -0.0071028833 0)
(1.1424415 -0.0065475889 0)
(1.1407838 -0.0060437952 0)
(1.1392344 -0.0055854288 0)
(1.1377869 -0.0051673492 0)
(1.1364353 -0.0047851619 0)
(1.1351738 -0.0044350797 0)
(1.1339968 -0.0041138177 0)
(1.1328987 -0.0038185107 0)
(1.1318746 -0.0035466485 0)
(1.1309195 -0.0032960217 0)
(1.1300289 -0.0030646787 0)
(1.1291985 -0.0028508886 0)
(1.1284242 -0.0026531116 0)
(1.1277022 -0.0024699727 0)
(1.1270291 -0.0023002411 0)
(1.1264014 -0.0021428118 0)
(1.1258161 -0.0019966903 0)
(1.1252702 -0.0018609791 0)
(1.1247612 -0.001734866 0)
(1.1242865 -0.0016176138 0)
(1.1238437 -0.0015085511 0)
(1.1234308 -0.0014070646 0)
(1.1230455 -0.0013125925 0)
(1.1226861 -0.0012246194 0)
(1.1223509 -0.0011426716 0)
(1.1220381 -0.0010663145 0)
(1.1217462 -0.00099514816 0)
(1.1214739 -0.00092880582 0)
(1.1212198 -0.00086694987 0)
(1.1209827 -0.00080926892 0)
(1.1207614 -0.00075547506 0)
(1.1205549 -0.00070530022 0)
(1.1203621 -0.00065849459 0)
(1.1201821 -0.00061482484 0)
(1.1200142 -0.00057407357 0)
(1.1198574 -0.00053603958 0)
(1.1197111 -0.00050053696 0)
(1.1195744 -0.00046739529 0)
(1.1194469 -0.00043645794 0)
(1.1193279 -0.0004075797 0)
(1.1192167 -0.00038062565 0)
(1.1191129 -0.00035546746 0)
(1.119016 -0.00033198399 0)
(1.1189255 -0.00031005947 0)
(1.118841 -0.00028958596 0)
(1.1187621 -0.00027046266 0)
(1.1186884 -0.00025259914 0)
(1.1186196 -0.00023591167 0)
(1.1185554 -0.00022032812 0)
(1.1184955 -0.00020577686 0)
(1.1184395 -0.00019219714 0)
(1.1183872 -0.00017951967 0)
(1.1183383 -0.00016768942 0)
(1.1182927 -0.00015663521 0)
(1.11825 -0.00014631377 0)
(1.1182102 -0.00013665409 0)
(1.118173 -0.00012763794 0)
(1.1181384 -0.00011919016 0)
(1.1181059 -0.00011132729 0)
(1.1180758 -0.00010394776 0)
(1.1180474 -9.7113219e-05 0)
(1.1180212 -9.0660054e-05 0)
(1.1179963 -8.472927e-05 0)
(1.1179735 -7.9045813e-05 0)
(1.1179517 -7.3908885e-05 0)
(1.1179319 -6.8843535e-05 0)
(1.1179129 -6.4446988e-05 0)
(1.1178957 -5.9863474e-05 0)
(1.1178793 -5.623463e-05 0)
(1.1178639 -5.1982759e-05 0)
(1.1178505 -4.9249967e-05 0)
(1.1178355 -4.515878e-05 0)
(1.1178268 -4.3635528e-05 0)
(1.1178092 -3.9646599e-05 0)
(1.0016583 -0.053819431 0)
(1.0359761 -0.10128444 0)
(1.0597199 -0.11073663 0)
(1.0628947 -0.10592201 0)
(1.0515569 -0.096228725 0)
(1.0340529 -0.08393406 0)
(1.0142795 -0.070327065 0)
(0.99360702 -0.056981338 0)
(0.97292576 -0.045107484 0)
(0.95310739 -0.035236754 0)
(0.93479538 -0.027401651 0)
(0.91829012 -0.021387225 0)
(0.90362379 -0.016884494 0)
(0.89068068 -0.013569704 0)
(0.87928175 -0.011147746 0)
(0.86923242 -0.0093736589 0)
(0.86034423 -0.0080569312 0)
(0.85244667 -0.0070571323 0)
(0.84539241 -0.0062752432 0)
(0.83905792 -0.0056438317 0)
(0.83334126 -0.0051180913 0)
(0.82815883 -0.0046686697 0)
(0.82344212 -0.0042764126 0)
(0.81913468 -0.0039287337 0)
(0.81518962 -0.0036171997 0)
(0.81156766 -0.0033359691 0)
(0.80823544 -0.0030808056 0)
(0.8051644 -0.0028484728 0)
(0.80232978 -0.0026363739 0)
(0.79970998 -0.0024423423 0)
(0.79728596 -0.0022645204 0)
(0.79504086 -0.0021012886 0)
(0.79295963 -0.0019512215 0)
(0.79102881 -0.0018130579 0)
(0.78923628 -0.0016856787 0)
(0.78757111 -0.0015680898 0)
(0.78602339 -0.0014594061 0)
(0.78458412 -0.0013588393 0)
(0.78324511 -0.0012656859 0)
(0.78199888 -0.0011793173 0)
(0.7808386 -0.0010991707 0)
(0.77975798 -0.0010247413 0)
(0.77875127 -0.00095557488 0)
(0.77781318 -0.00089126155 0)
(0.77693882 -0.0008314297 0)
(0.77612369 -0.00077574138 0)
(0.77536364 -0.00072388771 0)
(0.77465482 -0.00067558589 0)
(0.77399368 -0.00063057644 0)
(0.77337693 -0.00058862116 0)
(0.77280152 -0.00054950182 0)
(0.77226463 -0.00051301814 0)
(0.77176363 -0.00047898661 0)
(0.77129607 -0.00044723847 0)
(0.77085968 -0.00041761769 0)
(0.77045236 -0.00038997948 0)
(0.77007214 -0.00036418823 0)
(0.76971719 -0.000340117 0)
(0.76938581 -0.0003176469 0)
(0.76907643 -0.00029666715 0)
(0.76878759 -0.00027707588 0)
(0.7685179 -0.00025877947 0)
(0.76826609 -0.00024169278 0)
(0.76803097 -0.0002257376 0)
(0.76781141 -0.00021084112 0)
(0.76760639 -0.00019693477 0)
(0.76741492 -0.00018395247 0)
(0.7672361 -0.00017183079 0)
(0.7670691 -0.00016050947 0)
(0.76691314 -0.00014993176 0)
(0.7667675 -0.00014004691 0)
(0.76663148 -0.00013080873 0)
(0.76650446 -0.00012217751 0)
(0.76638583 -0.00011411626 0)
(0.76627504 -0.00010659176 0)
(0.76617155 -9.9569322e-05 0)
(0.76607489 -9.3016675e-05 0)
(0.76598459 -8.689706e-05 0)
(0.76590025 -8.1180872e-05 0)
(0.76582148 -7.5832777e-05 0)
(0.7657479 -7.0833514e-05 0)
(0.76567921 -6.6152712e-05 0)
(0.76561504 -6.1784895e-05 0)
(0.76555514 -5.7698195e-05 0)
(0.76549915 -5.3898187e-05 0)
(0.7654469 -5.0337753e-05 0)
(0.76539802 -4.7036164e-05 0)
(0.76535246 -4.3920737e-05 0)
(0.76530979 -4.1041846e-05 0)
(0.7652701 -3.8292521e-05 0)
(0.76523289 -3.5781255e-05 0)
(0.76519833 -3.3344678e-05 0)
(0.76516596 -3.1178482e-05 0)
(0.76513576 -2.9020297e-05 0)
(0.76510782 -2.719181e-05 0)
(0.76508096 -2.5283726e-05 0)
(0.76505773 -2.3806302e-05 0)
(0.76503215 -2.2192875e-05 0)
(0.76501609 -2.1216683e-05 0)
(0.76498589 -2.0405194e-05 0)
(0.91890839 -0.035821913 0)
(0.86271384 -0.062195638 0)
(0.78705971 -0.062510089 0)
(0.69536034 -0.054550394 0)
(0.61089745 -0.044531651 0)
(0.54411592 -0.034015972 0)
(0.49343012 -0.024187541 0)
(0.45479413 -0.016144231 0)
(0.42544582 -0.010265787 0)
(0.40347313 -0.0063041455 0)
(0.38715767 -0.0037976286 0)
(0.3749622 -0.0023103366 0)
(0.36566193 -0.0014930132 0)
(0.35836273 -0.001085117 0)
(0.35244268 -0.00090607213 0)
(0.34748201 -0.00084105265 0)
(0.34320347 -0.0008237258 0)
(0.33942725 -0.00081931219 0)
(0.33603792 -0.00081185326 0)
(0.33296113 -0.00079580153 0)
(0.33014778 -0.00077081073 0)
(0.32756384 -0.00073870798 0)
(0.3251842 -0.00070188757 0)
(0.32298903 -0.00066256431 0)
(0.32096172 -0.00062249907 0)
(0.31908785 -0.00058295799 0)
(0.31735449 -0.00054477299 0)
(0.31574995 -0.00050843596 0)
(0.3142636 -0.00047419318 0)
(0.31288574 -0.0004421254 0)
(0.31160755 -0.00041220919 0)
(0.31042101 -0.00038436031 0)
(0.30931883 -0.00035846302 0)
(0.30829439 -0.00033438835 0)
(0.30734165 -0.00031200537 0)
(0.30645516 -0.00029118743 0)
(0.30562991 -0.00027181532 0)
(0.30486136 -0.00025377877 0)
(0.30414535 -0.0002369766 0)
(0.30347806 -0.00022131655 0)
(0.302856 -0.00020671471 0)
(0.30227596 -0.00019309456 0)
(0.30173497 -0.00018038636 0)
(0.3012303 -0.00016852608 0)
(0.30075943 -0.00015745475 0)
(0.30032002 -0.00014711785 0)
(0.29990993 -0.00013746468 0)
(0.29952715 -0.00012844831 0)
(0.29916982 -0.00012002515 0)
(0.29883623 -0.00011215501 0)
(0.29852477 -0.00010480094 0)
(0.29823396 -9.7928847e-05 0)
(0.29796241 -9.1507431e-05 0)
(0.29770883 -8.5507503e-05 0)
(0.29747202 -7.990172e-05 0)
(0.29725085 -7.4664271e-05 0)
(0.2970443 -6.9770468e-05 0)
(0.29685138 -6.5197103e-05 0)
(0.29667119 -6.0922284e-05 0)
(0.2965029 -5.692586e-05 0)
(0.29634571 -5.3189609e-05 0)
(0.2961989 -4.9696914e-05 0)
(0.29606176 -4.6432898e-05 0)
(0.29593367 -4.3383563e-05 0)
(0.29581402 -4.0535557e-05 0)
(0.29570226 -3.7875849e-05 0)
(0.29559785 -3.5391401e-05 0)
(0.29550032 -3.3069743e-05 0)
(0.29540921 -3.0899061e-05 0)
(0.29532412 -2.88687e-05 0)
(0.29524463 -2.6969657e-05 0)
(0.29517039 -2.5193952e-05 0)
(0.29510104 -2.3535031e-05 0)
(0.29503626 -2.1986347e-05 0)
(0.29497574 -2.054161e-05 0)
(0.2949192 -1.9193673e-05 0)
(0.29486638 -1.7935469e-05 0)
(0.29481704 -1.6759137e-05 0)
(0.29477095 -1.5658715e-05 0)
(0.2947279 -1.462747e-05 0)
(0.29468769 -1.3662856e-05 0)
(0.29465014 -1.2759628e-05 0)
(0.29461506 -1.1918168e-05 0)
(0.29458229 -1.1131934e-05 0)
(0.29455167 -1.0402471e-05 0)
(0.29452308 -9.7187833e-06 0)
(0.29449635 -9.0849479e-06 0)
(0.2944714 -8.4847519e-06 0)
(0.29444808 -7.9298635e-06 0)
(0.29442633 -7.3983482e-06 0)
(0.294406 -6.9139995e-06 0)
(0.29438706 -6.4456166e-06 0)
(0.29436934 -6.0297078e-06 0)
(0.29435281 -5.6240548e-06 0)
(0.2943374 -5.2720522e-06 0)
(0.29432286 -4.9399964e-06 0)
(0.29430963 -4.6484106e-06 0)
(0.29429634 -4.470881e-06 0)
(0.29428574 -4.3232386e-06 0)
(0.29426995 -4.8794775e-06 0)
)
;

boundaryField
{
    top
    {
        type            fixedValue;
        value           uniform (0 0 0);
    }
    inlet
    {
        type            fixedValue;
        value           uniform (1 0 0);
    }
    outlet
    {
        type            zeroGradient;
    }
    bottom
    {
        type            fixedValue;
        value           uniform (0 0 0);
    }
    back
    {
        type            empty;
    }
    front
    {
        type            empty;
    }
}


// ************************************************************************* //
