/*--------------------------------*- C++ -*----------------------------------*\
| =========                 |                                                 |
| \\      /  F ield         | OpenFOAM: The Open Source CFD Toolbox           |
|  \\    /   O peration     | Version:  v1812                                 |
|   \\  /    A nd           | Web:      www.OpenFOAM.com                      |
|    \\/     M anipulation  |                                                 |
\*---------------------------------------------------------------------------*/
FoamFile
{
    version     2.0;
    format      ascii;
    class       surfaceScalarField;
    location    "1.7";
    object      phi;
}
// * * * * * * * * * * * * * * * * * * * * * * * * * * * * * * * * * * * * * //

dimensions      [0 3 -1 0 0 0 0];
oriented        oriented;


internalField   nonuniform List<scalar> 
1890
(
0.0093061778
0.00069382281
0.0082845568
0.001021621
0.0073305512
0.00095400496
0.006488517
0.00084203359
0.0057730239
0.00071549287
0.0051962646
0.00057675937
0.0047482376
0.00044802695
0.0044097924
0.00033844487
0.00416087
0.00024892221
0.0039823154
0.00017855475
0.0038565394
0.00012577657
0.0037690355
8.7504434e-05
0.0037090797
5.9956064e-05
0.003668928
4.015163e-05
0.0036427481
2.6179643e-05
0.0036261183
1.6629385e-05
0.0036159211
1.0196774e-05
0.0036099942
5.9266139e-06
0.0036068184
3.17558e-06
0.0036053195
1.4988742e-06
0.0036047885
5.3115652e-07
0.0036047213
6.7345367e-08
0.0036048416
-1.2002214e-07
0.0036050375
-1.9576825e-07
0.0036052383
-2.0068385e-07
0.0036054069
-1.6859251e-07
0.0036055337
-1.2691544e-07
0.003605622
-8.8383969e-08
0.0036056796
-5.7702227e-08
0.0036057149
-3.5488051e-08
0.0036057353
-2.0511164e-08
0.0036057462
-1.0990899e-08
0.0036057514
-5.3259619e-09
0.0036057536
-2.1898942e-09
0.0036057541
-5.911547e-10
0.0036057541
5.0201175e-11
0.0036057538
2.8671327e-10
0.0036057534
3.3853867e-10
0.0036057531
2.9345193e-10
0.0036057529
2.2984424e-10
0.0036057527
1.6345791e-10
0.0036057526
1.1724952e-10
0.0036057525
7.8481912e-11
0.0036057525
5.8409726e-11
0.0036057525
3.9868164e-11
0.0036057524
3.3845021e-11
0.0036057524
2.413453e-11
0.0036057524
2.3517599e-11
0.0036057524
1.7115007e-11
0.0036057524
1.8340932e-11
0.0036057523
1.2774177e-11
0.0036057523
1.4517643e-11
0.0036057523
9.4591173e-12
0.0036057523
1.152345e-11
0.0036057523
6.6070887e-12
0.0036057523
8.7975243e-12
0.0036057523
4.3618332e-12
0.0036057523
6.7251035e-12
0.0036057523
2.690505e-12
0.0036057523
4.9244343e-12
0.0036057523
1.58654e-12
0.0036057523
3.7296224e-12
0.0036057523
1.032883e-12
0.0036057523
2.3119767e-12
0.0036057523
2.0043697e-12
0.0036057523
-5.455125e-13
0.0036057523
6.1605203e-12
0.0036057523
-9.182244e-12
0.0036057522
2.2182614e-11
0.0036057523
-3.8223408e-11
0.0036057522
7.2746846e-11
0.0036057523
-1.2521831e-10
0.0036057521
2.1677797e-10
0.0036057525
-3.5812156e-10
0.0036057519
5.8186346e-10
0.0036057528
-9.075051e-10
0.0036057514
1.3802842e-09
0.0036057534
-1.9980195e-09
0.0036057506
2.7963111e-09
0.0036057543
-3.659324e-09
0.0036057498
4.534335e-09
0.0036057548
-5.0404775e-09
0.0036057498
4.9544302e-09
0.0036057534
-3.5578827e-09
0.0036057527
6.7937101e-10
0.0036057484
4.3297019e-09
0.0036057589
-1.0452474e-08
0.0036057411
1.7780776e-08
0.003605763
-2.1920023e-08
0.0036057393
2.3809372e-08
0.0036057547
-1.5401439e-08
0.0036057482
6.5190754e-09
0.0036057323
1.5836625e-08
0.0036057496
-1.7390422e-08
0.003605711
3.8457496e-08
0.0036057158
-4.8706673e-09
0.0036056843
3.1542711e-08
0.0036056658
1.8723749e-08
0.003605635
3.1026905e-08
1.9149868e-08
0.010339549
0.00035427419
0.010570888
0.00079028224
0.010606859
0.00091803355
0.010548396
0.00090049619
0.010423509
0.00084037921
0.010247115
0.00075315335
0.010045119
0.00065002333
0.0098384992
0.00054506393
0.0096405126
0.00044690847
0.0094593005
0.00035976709
0.0092993528
0.0002857248
0.0091626189
0.00022423876
0.0090495212
0.00017305401
0.0089592627
0.00013041003
0.0088898392
9.560279e-05
0.0088383891
6.8078968e-05
0.008801653
4.6932479e-05
0.0087764517
3.1127511e-05
0.008759906
1.9721006e-05
0.0087495637
1.1841124e-05
0.0087434514
6.6436091e-06
0.0087401128
3.4061304e-06
0.008738484
1.509032e-06
0.0087378049
4.8342059e-07
0.0087376351
-3.0729504e-08
0.0087376911
-2.2463323e-07
0.0087378257
-2.6157454e-07
0.0087379661
-2.288678e-07
0.0087380826
-1.7438583e-07
0.0087381683
-1.2127314e-07
0.0087382261
-7.8462723e-08
0.0087382626
-4.7572673e-08
0.0087382842
-2.7033617e-08
0.0087382962
-1.4291483e-08
0.0087383025
-6.8690528e-09
0.0087383054
-2.8537037e-09
0.0087383065
-8.4710663e-10
0.0087383068
6.021281e-11
0.0087383067
3.7719746e-10
0.0087383065
4.2888931e-10
0.0087383063
3.7713888e-10
0.0087383061
2.9741449e-10
0.008738306
2.2590983e-10
0.0087383059
1.6879094e-10
0.0087383058
1.2962039e-10
0.0087383057
1.012219e-10
0.0087383057
8.3390623e-11
0.0087383056
6.9504292e-11
0.0087383056
6.1048482e-11
0.0087383056
5.2833729e-11
0.0087383055
4.7566831e-11
0.0087383055
4.1279018e-11
0.0087383055
3.7372379e-11
0.0087383054
3.2020416e-11
0.0087383054
2.8717163e-11
0.0087383054
2.3979748e-11
0.0087383054
2.1502851e-11
0.0087383054
1.7473584e-11
0.0087383054
1.5686859e-11
0.0087383054
1.2138221e-11
0.0087383054
1.1475075e-11
0.0087383053
8.0636535e-12
0.0087383053
9.0758434e-12
0.0087383053
3.9245003e-12
0.0087383053
1.0091958e-11
0.0087383053
-3.0975262e-12
0.0087383053
1.9557434e-11
0.0087383053
-2.3578799e-11
0.0087383053
5.4454114e-11
0.0087383053
-8.6200241e-11
0.0087383053
1.6158063e-10
0.0087383054
-2.670234e-10
0.0087383052
4.5667334e-10
0.0087383055
-7.3407652e-10
0.008738305
1.1729252e-09
0.0087383058
-1.7824457e-09
0.0087383046
2.6471845e-09
0.0087383063
-3.7134127e-09
0.0087383041
5.0141274e-09
0.0087383067
-6.2542323e-09
0.0087383039
7.2741871e-09
0.0087383062
-7.2960402e-09
0.0087383052
5.9431334e-09
0.0087383036
-1.9632365e-09
0.0087383087
-4.4927063e-09
0.0087382991
1.3968743e-08
0.0087383123
-2.3596405e-08
0.0087382972
3.2842683e-08
0.0087383089
-3.3518421e-08
0.0087383043
2.8409585e-08
0.0087382937
-4.8486506e-09
0.0087383155
-1.5200183e-08
0.0087382814
4.9869988e-08
0.0087383076
-4.362861e-08
0.0087382892
5.6698305e-08
0.0087382831
1.1240666e-09
0.0087382957
1.9019024e-08
0.0087382716
4.3000389e-08
0.0087382616
4.1300105e-08
2.1484516e-08
0.010188731
0.00016554341
0.010530435
0.0004485787
0.010851228
0.00059723954
0.011123832
0.00062789186
0.011349781
0.00061443005
0.011522893
0.00058004187
0.011644077
0.0005288392
0.011721372
0.00046776788
0.011764101
0.00040417904
0.011780737
0.00034313169
0.011778697
0.00028776512
0.01176408
0.00023885641
0.011741739
0.00019539454
0.011715637
0.00015651275
0.011688935
0.00012230411
0.011663898
9.3115165e-05
0.011641913
6.8917347e-05
0.011623652
4.9388271e-05
0.01160924
3.4132154e-05
0.011598407
2.2674645e-05
0.011590619
1.4432134e-05
0.011585273
8.7522645e-06
0.011581769
5.013023e-06
0.011579584
2.6687666e-06
0.011578277
1.2760569e-06
0.011577545
5.0780322e-07
0.011577162
1.2058416e-07
0.011576982
-4.8054743e-08
0.011576909
-1.0183169e-07
0.011576889
-1.0195327e-07
0.011576893
-8.1960739e-08
0.011576904
-5.8423713e-08
0.011576915
-3.8235761e-08
0.011576924
-2.3294505e-08
0.01157693
-1.3240122e-08
0.011576934
-6.977337e-09
0.011576937
-3.3346793e-09
0.011576938
-1.3461126e-09
0.011576939
-3.6351711e-10
0.011576939
8.8253696e-11
0.011576939
2.4793608e-10
0.011576939
2.7500338e-10
0.011576939
2.5325894e-10
0.011576939
2.1561448e-10
0.011576939
1.8162108e-10
0.011576939
1.5169758e-10
0.011576939
1.3039435e-10
0.011576939
1.122229e-10
0.011576939
9.9864072e-11
0.011576939
8.7770159e-11
0.011576939
7.9389176e-11
0.011576939
6.9982234e-11
0.011576939
6.3433468e-11
0.011576939
5.5240016e-11
0.011576939
4.9690523e-11
0.011576939
4.2525833e-11
0.011576939
3.8022552e-11
0.011576939
3.1742381e-11
0.011576939
2.828273e-11
0.011576939
2.2921195e-11
0.011576939
2.0932894e-11
0.011576939
1.5785358e-11
0.011576939
1.6206707e-11
0.011576939
9.1619123e-12
0.011576939
1.6164678e-11
0.011576939
-8.2317535e-13
0.011576939
2.6726791e-11
0.011576939
-2.6135669e-11
0.011576939
6.7484474e-11
0.011576939
-9.9955774e-11
0.011576939
1.9063934e-10
0.011576939
-3.0480262e-10
0.011576939
5.1870807e-10
0.011576939
-8.1237067e-10
0.011576939
1.2777923e-09
0.011576939
-1.8875307e-09
0.011576939
2.7323875e-09
0.011576939
-3.6896653e-09
0.011576939
4.7746732e-09
0.011576938
-5.5826193e-09
0.01157694
5.9367393e-09
0.011576937
-4.9758282e-09
0.011576941
2.451881e-09
0.011576936
2.6696205e-09
0.011576941
-9.6468071e-09
0.011576937
1.8546383e-08
0.011576939
-2.5524568e-08
0.011576942
2.9725421e-08
0.011576932
-2.3267504e-08
0.011576949
1.1113077e-08
0.011576928
1.606967e-08
0.011576946
-3.3031455e-08
0.01157694
5.5272018e-08
0.011576933
-3.6017416e-08
0.011576958
3.1676e-08
0.011576935
2.3557518e-08
0.011576952
1.732762e-09
0.011576961
3.4152503e-08
0.011576964
3.9291463e-08
1.1776367e-08
0.010097183
6.8361017e-05
0.010346844
0.00019891807
0.010661984
0.00028209882
0.010981802
0.00030807362
0.011288455
0.00030777678
0.01157172
0.00029677719
0.011822818
0.0002777413
0.01203814
0.00025244528
0.012218316
0.0002240021
0.012366165
0.00019528282
0.012485598
0.00016833251
0.012580665
0.00014379033
0.012654817
0.00012124266
0.012711056
0.00010027403
0.012752327
8.1032933e-05
0.012781541
6.3900556e-05
0.012801378
4.908053e-05
0.012814172
3.6593585e-05
0.012821905
2.6399173e-05
0.01282619
1.8389727e-05
0.012828275
1.2347404e-05
0.012829056
7.9714786e-06
0.012829142
4.9267163e-06
0.012828912
2.8987839e-06
0.012828581
1.607668e-06
0.012828261
8.2753412e-07
0.012828
3.8127967e-07
0.012827808
1.4470357e-07
0.012827675
3.0449346e-08
0.01282759
-1.6579203e-08
0.012827538
-2.9875515e-08
0.012827508
-2.839911e-08
0.012827491
-2.1964268e-08
0.012827483
-1.5109697e-08
0.012827479
-9.5303441e-09
0.012827478
-5.5709623e-09
0.012827478
-2.9996333e-09
0.012827478
-1.453167e-09
0.012827478
-5.908054e-10
0.012827478
-1.3738456e-10
0.012827478
8.1719094e-11
0.012827478
1.6350324e-10
0.012827479
1.8939608e-10
0.012827479
1.825198e-10
0.012827479
1.7132229e-10
0.012827479
1.5232412e-10
0.012827479
1.3988202e-10
0.012827479
1.2337215e-10
0.012827479
1.1407521e-10
0.012827479
1.0044258e-10
0.012827479
9.3574856e-11
0.012827479
8.1742507e-11
0.012827479
7.6129305e-11
0.012827479
6.5380866e-11
0.012827479
6.0871917e-11
0.012827479
5.1125919e-11
0.012827479
4.7475887e-11
0.012827479
3.8676541e-11
0.012827479
3.6219889e-11
0.012827479
2.8443422e-11
0.012827479
2.7216449e-11
0.012827479
2.0019212e-11
0.012827478
2.0972894e-11
0.012827478
1.2925979e-11
0.012827478
1.8564254e-11
0.012827478
4.2982064e-12
0.012827478
2.4106682e-11
0.012827478
-1.3646861e-11
0.012827478
4.9780674e-11
0.012827478
-6.2318007e-11
0.012827479
1.2837621e-10
0.012827478
-1.9222339e-10
0.012827479
3.3326465e-10
0.012827478
-5.0375984e-10
0.012827479
7.9153873e-10
0.012827478
-1.1342523e-09
0.012827479
1.621799e-09
0.012827478
-2.1108913e-09
0.01282748
2.6564331e-09
0.012827477
-2.9161419e-09
0.01282748
2.8684682e-09
0.012827477
-1.8983782e-09
0.012827479
7.1999806e-11
0.012827479
3.2481641e-09
0.012827476
-7.248837e-09
0.012827483
1.1905049e-08
0.012827472
-1.4517339e-08
0.012827487
1.4891647e-08
0.012827472
-8.5143637e-09
0.012827484
-2.9056412e-10
0.012827483
1.6150629e-08
0.012827474
-2.3405498e-08
0.012827498
3.0942792e-08
0.012827477
-1.4653217e-08
0.012827499
9.4467063e-09
0.012827503
1.9766009e-08
0.012827505
-1.0485733e-09
0.012827526
1.3898208e-08
0.012827541
2.4684142e-08
4.6527424e-09
0.010068362
-1.9171019e-10
0.010267281
-4.0893913e-10
0.010549379
-4.2278406e-10
0.010857453
-3.5472193e-10
0.01116523
-2.7801574e-10
0.011462008
-2.3070116e-10
0.011739749
-2.4371114e-10
0.011992194
-2.7162697e-10
0.012216196
-3.0043227e-10
0.01241148
-3.0746833e-10
0.012579813
-3.2725965e-10
0.012723604
-3.5636339e-10
0.012844848
-3.9501101e-10
0.012945123
-3.9894073e-10
0.013026156
-3.8799699e-10
0.013090056
-3.3313539e-10
0.013139137
-2.9117142e-10
0.01317573
-2.5410259e-10
0.01320213
-2.5887638e-10
0.01322052
-3.0048847e-10
0.013232868
-3.6074579e-10
0.01324084
-4.338302e-10
0.013245767
-5.02422e-10
0.013248667
-5.3117995e-10
0.013250275
-5.1779357e-10
0.013251103
-4.705192e-10
0.013251485
-3.8726344e-10
0.01325163
-2.7924052e-10
0.01325166
-1.7540239e-10
0.013251644
-8.1282346e-11
0.013251614
-1.0366359e-11
0.013251585
4.1648647e-11
0.013251563
7.0335133e-11
0.013251548
9.0476043e-11
0.013251538
9.5838197e-11
0.013251533
1.0420237e-10
0.01325153
1.0567496e-10
0.013251528
1.1361928e-10
0.013251527
1.1456851e-10
0.013251527
1.2444549e-10
0.013251527
1.2600998e-10
0.013251527
1.315813e-10
0.013251527
1.2812775e-10
0.013251527
1.2944777e-10
0.013251527
1.2170628e-10
0.013251527
1.1979988e-10
0.013251527
1.0952673e-10
0.013251527
1.0565285e-10
0.013251528
9.431651e-11
0.013251528
9.0259424e-11
0.013251528
7.9182286e-11
0.013251528
7.543491e-11
0.013251528
6.481111e-11
0.013251528
6.1808488e-11
0.013251528
5.2001296e-11
0.013251528
4.9596939e-11
0.013251528
4.0416567e-11
0.013251528
3.8880919e-11
0.013251528
3.0660757e-11
0.013251528
2.9882612e-11
0.013251528
2.2448777e-11
0.013251528
2.2666604e-11
0.013251528
1.6301445e-11
0.013251528
1.7286783e-11
0.013251528
1.1772259e-11
0.013251528
1.3578294e-11
0.013251528
8.9279549e-12
0.013251528
1.1332684e-11
0.013251528
7.1020139e-12
0.013251528
1.0163376e-11
0.013251528
6.4960512e-12
0.013251527
9.8832212e-12
0.013251528
6.6724963e-12
0.013251527
1.0859564e-11
0.013251528
8.7680312e-12
0.013251527
1.4057865e-11
0.013251529
1.3330488e-11
0.013251526
2.0277473e-11
0.013251529
2.1120232e-11
0.013251526
2.8952992e-11
0.013251529
3.0063143e-11
0.013251527
3.7940867e-11
0.013251527
3.8412351e-11
0.01325153
4.5837181e-11
0.013251523
4.4244613e-11
0.013251535
5.1788399e-11
0.01325152
4.8395719e-11
0.013251535
5.2089778e-11
0.013251527
4.5808944e-11
0.013251526
4.8229325e-11
0.013251542
4.9537903e-11
0.013251519
5.9199755e-11
0.01325155
7.2936396e-11
0.013251535
8.4042767e-11
0.013251544
8.2231831e-11
0.013251564
7.3908109e-11
0.013251563
6.2587535e-11
0.013251577
4.8271435e-11
0.013251602
3.3381771e-11
1.2990392e-11
0.010068362
-6.8361443e-05
0.010267281
-0.00019891886
0.010549379
-0.00028209965
0.010857453
-0.00030807429
0.01116523
-0.00030777729
0.011462008
-0.00029677765
0.011739749
-0.00027774178
0.011992194
-0.00025244581
0.012216196
-0.00022400265
0.012411479
-0.00019528341
0.012579813
-0.00016833316
0.012723604
-0.00014379108
0.012844848
-0.00012124348
0.012945122
-0.00010027488
0.013026156
-8.1033713e-05
0.013090056
-6.3901237e-05
0.013139137
-4.9081088e-05
0.01317573
-3.659405e-05
0.01320213
-2.6399626e-05
0.013220519
-1.839028e-05
0.013232867
-1.2348035e-05
0.013240839
-7.9722797e-06
0.013245767
-4.9276547e-06
0.013248666
-2.8997781e-06
0.013250274
-1.6086237e-06
0.013251102
-8.2840232e-07
0.013251484
-3.8198415e-07
0.013251629
-1.4519889e-07
0.01325166
-3.0750935e-08
0.013251643
1.6451883e-08
0.013251613
2.9877497e-08
0.013251585
2.8491782e-08
0.013251563
2.2107071e-08
0.013251547
1.5282375e-08
0.013251538
9.7129505e-09
0.013251532
5.7626757e-09
0.013251529
3.1952539e-09
0.013251528
1.6612136e-09
0.013251527
7.9811834e-10
0.013251527
3.6046351e-10
0.013251527
1.5061949e-10
0.013251527
7.3728839e-11
0.013251527
4.452569e-11
0.013251527
4.9325116e-11
0.013251527
4.9572226e-11
0.013251527
6.1176528e-11
0.013251527
5.8061661e-11
0.013251527
6.3603687e-11
0.013251527
5.5942302e-11
0.013251527
5.842121e-11
0.013251527
4.8832026e-11
0.013251527
5.0237256e-11
0.013251527
4.0481964e-11
0.013251527
4.2189499e-11
0.013251527
3.2680849e-11
0.013251528
3.4549071e-11
0.013251528
2.5500914e-11
0.013251528
2.7982894e-11
0.013251528
1.9309888e-11
0.013251528
2.2215311e-11
0.013251528
1.3893082e-11
0.013251528
1.7986892e-11
0.013251528
9.2515957e-12
0.013251528
1.5521259e-11
0.013251528
4.0641564e-12
0.013251528
1.7721898e-11
0.013251528
-6.5262936e-12
0.013251528
3.1901682e-11
0.013251528
-3.5271546e-11
0.013251528
7.8860101e-11
0.013251528
-1.1487619e-10
0.013251527
2.0845948e-10
0.013251528
-3.1914026e-10
0.013251527
5.2216253e-10
0.013251528
-7.7345231e-10
0.013251527
1.1589648e-09
0.013251529
-1.5949424e-09
0.013251526
2.1478284e-09
0.013251529
-2.6149158e-09
0.013251526
2.9694228e-09
0.013251529
-2.8099755e-09
0.013251527
1.9677445e-09
0.013251527
2.0703188e-12
0.01325153
-3.1645199e-09
0.013251523
7.3326531e-09
0.013251535
-1.1812757e-08
0.01325152
1.4609059e-08
0.013251535
-1.4797527e-08
0.013251527
8.598693e-09
0.013251526
3.8143137e-10
0.013251542
-1.6058135e-08
0.013251519
2.3519948e-08
0.01325155
-3.0802712e-08
0.013251535
1.4812205e-08
0.013251544
-9.2943785e-09
0.013251564
-1.9631389e-08
0.013251563
1.1605958e-09
0.013251577
-1.3813988e-08
0.013251602
-2.4636513e-08
-4.6341285e-09
0.010097183
-0.00016554372
0.010346844
-0.00044857933
0.010661984
-0.00059724018
0.010981802
-0.00062789241
0.011288455
-0.00061443048
0.01157172
-0.00058004225
0.011822818
-0.00052883956
0.012038139
-0.00046776829
0.012218316
-0.0004041795
0.012366165
-0.0003431322
0.012485598
-0.00028776572
0.012580665
-0.00023885711
0.012654817
-0.00019539533
0.012711056
-0.00015651353
0.012752327
-0.00012230482
0.012781541
-9.3115721e-05
0.012801377
-6.8917752e-05
0.012814172
-4.9388588e-05
0.012821904
-3.413242e-05
0.012826189
-2.2675023e-05
0.012828274
-1.4432591e-05
0.012829055
-8.7529122e-06
0.012829141
-5.0137604e-06
0.012828911
-2.6695556e-06
0.01282858
-1.2768159e-06
0.01282826
-5.0846773e-07
0.012827999
-1.2109469e-07
0.012827806
4.7710314e-08
0.012827674
1.0165325e-07
0.012827588
1.0190162e-07
0.012827536
8.2009697e-08
0.012827506
5.8523882e-08
0.01282749
3.8373039e-08
0.012827481
2.3434754e-08
0.012827478
1.3391831e-08
0.012827476
7.1225723e-09
0.012827476
3.4837128e-09
0.012827476
1.4964541e-09
0.012827477
5.2265452e-10
0.012827477
7.3452525e-11
0.012827477
-7.3168052e-11
0.012827478
-1.0862202e-10
0.012827478
-7.9610935e-11
0.012827478
-5.5503189e-11
0.012827478
-2.0502471e-11
0.012827478
-6.2973572e-12
0.012827478
1.2830465e-11
0.012827478
1.1757663e-11
0.012827478
2.2610226e-11
0.012827478
1.5589561e-11
0.012827478
2.287791e-11
0.012827478
1.4082538e-11
0.012827478
2.0710749e-11
0.012827478
1.1866698e-11
0.012827478
1.8103939e-11
0.012827478
9.4043261e-12
0.012827478
1.5618075e-11
0.012827478
7.3484034e-12
0.012827478
1.3080077e-11
0.012827478
5.53388e-12
0.012827478
1.0684568e-11
0.012827478
4.58891e-12
0.012827478
7.9650382e-12
0.012827478
5.1028572e-12
0.012827478
3.2399304e-12
0.012827478
1.0699945e-11
0.012827478
-1.0239216e-11
0.012827478
3.3364605e-11
0.012827478
-5.169376e-11
0.012827478
1.0630029e-10
0.012827479
-1.7524599e-10
0.012827478
3.1130503e-10
0.012827479
-5.0206865e-10
0.012827478
8.2118714e-10
0.012827479
-1.2574191e-09
0.012827478
1.9016645e-09
0.012827479
-2.7038256e-09
0.012827478
3.7139591e-09
0.01282748
-4.7339463e-09
0.012827477
5.6199926e-09
0.01282748
-5.8827441e-09
0.012827477
5.0255461e-09
0.012827479
-2.3890212e-09
0.012827479
-2.6061861e-09
0.012827477
9.7148472e-09
0.012827483
-1.8482831e-08
0.012827472
2.5597411e-08
0.012827487
-2.9660293e-08
0.012827472
2.3338204e-08
0.012827484
-1.10477e-08
0.012827484
-1.5986602e-08
0.012827474
3.3116527e-08
0.012827498
-5.5149001e-08
0.012827477
3.6138613e-08
0.012827499
-3.1550126e-08
0.012827503
-2.3466642e-08
0.012827506
-1.6684043e-09
0.012827526
-3.4114808e-08
0.012827541
-3.9270126e-08
-1.176805e-08
0.010188732
-0.00035427428
0.010530435
-0.00079028253
0.010851229
-0.00091803391
0.011123833
-0.00090049652
0.011349782
-0.00084037948
0.011522893
-0.00075315356
0.011644076
-0.00065002355
0.011721372
-0.00054506421
0.011764101
-0.00044690881
0.011780736
-0.00035976745
0.011778696
-0.00028572519
0.011764079
-0.00022423919
0.011741739
-0.00017305448
0.011715636
-0.00013041051
0.011688934
-9.5603184e-05
0.011663898
-6.8079265e-05
0.011641912
-4.6932655e-05
0.011623651
-3.1127652e-05
0.01160924
-1.972115e-05
0.011598406
-1.184131e-05
0.011590617
-6.6439154e-06
0.011585271
-3.4065267e-06
0.011581767
-1.5094748e-06
0.011579582
-4.838799e-07
0.011578275
3.0298284e-08
0.011577542
2.2427707e-07
0.01157716
2.6131674e-07
0.011576979
2.2870793e-07
0.011576906
1.7431742e-07
0.011576887
1.2126922e-07
0.011576891
7.8505257e-08
0.011576901
4.7635997e-08
0.011576913
2.7111298e-08
0.011576922
1.4363618e-08
0.011576928
6.9419898e-09
0.011576932
2.9347266e-09
0.011576935
9.1979696e-10
0.011576937
1.9126634e-11
0.011576937
-2.9281215e-10
0.011576938
-3.4490803e-10
0.011576938
-2.8673787e-10
0.011576938
-2.1097349e-10
0.011576938
-1.3747239e-10
0.011576938
-8.7726505e-11
0.011576938
-4.9190211e-11
0.011576938
-3.004154e-11
0.011576938
-1.3984257e-11
0.011576939
-9.8751296e-12
0.011576939
-3.0602621e-12
0.011576939
-3.9356676e-12
0.011576939
3.5811811e-14
0.011576939
-2.029927e-12
0.011576939
1.497945e-12
0.011576939
-1.0446814e-12
0.011576939
2.0395539e-12
0.011576939
-2.8304746e-13
0.011576939
2.6534571e-12
0.011576939
4.9632211e-14
0.011576939
2.5936596e-12
0.011576939
3.6142643e-13
0.011576939
2.5836732e-12
0.011576939
7.5218945e-13
0.011576939
1.5855088e-12
0.011576939
2.2924122e-12
0.011576939
-1.4309201e-12
0.011576939
7.5777361e-12
0.011576939
-1.1923918e-11
0.011576939
2.7222069e-11
0.011576939
-4.6771062e-11
0.011576939
8.9949746e-11
0.011576939
-1.5383351e-10
0.011576939
2.7149781e-10
0.011576939
-4.4738279e-10
0.011576939
7.4072111e-10
0.011576939
-1.1607937e-09
0.011576939
1.7933429e-09
0.011576939
-2.6292948e-09
0.011576939
3.7309005e-09
0.011576939
-4.9893399e-09
0.011576938
6.2790285e-09
0.01157694
-7.2423589e-09
0.011576937
7.3267186e-09
0.011576941
-5.9065115e-09
0.011576936
2.0003152e-09
0.011576941
4.5278434e-09
0.011576937
-1.3931251e-08
0.011576939
2.363785e-08
0.011576942
-3.2803818e-08
0.011576932
3.3561532e-08
0.011576949
-2.8369196e-08
0.011576928
4.8980587e-09
0.011576946
1.5255917e-08
0.011576941
-4.9791714e-08
0.011576933
4.3702708e-08
0.011576958
-5.6644056e-08
0.011576935
-1.096578e-09
0.011576953
-1.9007224e-08
0.011576962
-4.2986878e-08
0.011576964
-4.1285194e-08
-2.1472621e-08
0.010339549
-0.00069382261
0.010570888
-0.0010216209
0.010606859
-0.00095400505
0.010548396
-0.00084203376
0.01042351
-0.00071549304
0.010247115
-0.00057675956
0.010045118
-0.00044802715
0.0098384986
-0.00033844512
0.009640512
-0.00024892242
0.0094592999
-0.00017855487
0.0092993522
-0.00012577656
0.0091626183
-8.7504372e-05
0.0090495206
-5.9956036e-05
0.0089592621
-4.0151668e-05
0.0088898387
-2.617975e-05
0.0088383886
-1.6629515e-05
0.0088016523
-1.0196937e-05
0.008776451
-5.926771e-06
0.0087599052
-3.1757356e-06
0.0087495627
-1.499008e-06
0.0087434502
-5.3127502e-07
0.0087401114
-6.7424085e-08
0.0087384823
1.1994122e-07
0.0087378031
1.9570438e-07
0.008737633
2.0062209e-07
0.008737689
1.6853965e-07
0.0087378235
1.268631e-07
0.0087379639
8.8343629e-08
0.0087380805
5.7662521e-08
0.0087381663
3.5462495e-08
0.0087382242
2.048363e-08
0.0087382609
1.0979099e-08
0.0087382826
5.3141933e-09
0.0087382948
2.1894637e-09
0.0087383011
5.9045072e-10
0.0087383041
-4.0905284e-11
0.0087383053
-2.7874369e-10
0.0087383057
-3.1692981e-10
0.0087383057
-2.7770073e-10
0.0087383056
-2.0186126e-10
0.0087383055
-1.4461656e-10
0.0087383054
-8.7945656e-11
0.0087383053
-6.0415904e-11
0.0087383053
-3.1213988e-11
0.0087383053
-2.4630057e-11
0.0087383053
-1.0989494e-11
0.0087383053
-1.217689e-11
0.0087383053
-3.9701059e-12
0.0087383053
-8.5726777e-12
0.0087383053
-1.7382232e-12
0.0087383053
-6.9620478e-12
0.0087383053
-3.4277743e-13
0.0087383053
-5.8845859e-12
0.0087383053
5.4914245e-13
0.0087383053
-4.9542373e-12
0.0087383053
1.5871153e-12
0.0087383053
-4.3520616e-12
0.0087383053
2.1579811e-12
0.0087383053
-3.8981795e-12
0.0087383053
2.7983818e-12
0.0087383053
-3.7109305e-12
0.0087383053
3.1423932e-12
0.0087383053
-3.8619841e-12
0.0087383053
4.1543729e-12
0.0087383053
-5.306734e-12
0.0087383053
6.6622367e-12
0.0087383053
-1.0187449e-11
0.0087383054
1.5972018e-11
0.0087383053
-2.6466205e-11
0.0087383054
4.5336428e-11
0.0087383053
-7.6617237e-11
0.0087383054
1.3321846e-10
0.0087383052
-2.1946565e-10
0.0087383056
3.6782398e-10
0.008738305
-5.8249929e-10
0.0087383059
9.1954475e-10
0.0087383046
-1.3791124e-09
0.0087383064
2.0112951e-09
0.0087383042
-2.7947293e-09
0.0087383068
3.6724826e-09
0.008738304
-4.5330121e-09
0.0087383063
5.0535111e-09
0.0087383053
-4.9514231e-09
0.0087383037
3.5739297e-09
0.0087383089
-6.7327438e-10
0.0087382993
-4.3092459e-09
0.0087383125
1.0463588e-08
0.0087382975
-1.7757711e-08
0.0087383091
2.1930902e-08
0.0087383045
-2.3788571e-08
0.008738294
1.5416331e-08
0.0087383158
-6.4867254e-09
0.0087382818
-1.5821677e-08
0.0087383079
1.7394029e-08
0.0087382895
-3.8478167e-08
0.0087382835
4.8567819e-09
0.0087382962
-3.1543577e-08
0.0087382721
-1.8693074e-08
0.008738262
-3.0979155e-08
-1.9128135e-08
0.0093061778
0.0082845569
0.0073305516
0.0064885177
0.0057730245
0.0051962647
0.0047482373
0.0044097919
0.0041608696
0.0039823152
0.0038565392
0.0037690353
0.0037090795
0.0036689279
0.003642748
0.0036261182
0.003615921
0.0036099939
0.003606818
0.003605319
0.0036047878
0.0036047206
0.0036048407
0.0036050366
0.0036052373
0.0036054059
0.0036055328
0.0036056212
0.0036056788
0.0036057142
0.0036057347
0.0036057456
0.0036057509
0.0036057531
0.0036057537
0.0036057536
0.0036057534
0.0036057531
0.0036057528
0.0036057526
0.0036057525
0.0036057524
0.0036057524
0.0036057523
0.0036057523
0.0036057523
0.0036057523
0.0036057523
0.0036057523
0.0036057523
0.0036057523
0.0036057523
0.0036057523
0.0036057523
0.0036057523
0.0036057523
0.0036057523
0.0036057523
0.0036057523
0.0036057523
0.0036057523
0.0036057523
0.0036057523
0.0036057523
0.0036057523
0.0036057523
0.0036057523
0.0036057523
0.0036057523
0.0036057523
0.0036057522
0.0036057524
0.0036057521
0.0036057525
0.0036057519
0.0036057529
0.0036057515
0.0036057535
0.0036057507
0.0036057544
0.0036057498
0.0036057549
0.0036057499
0.0036057535
0.0036057528
0.0036057485
0.003605759
0.0036057412
0.0036057632
0.0036057394
0.0036057548
0.0036057483
0.0036057324
0.0036057497
0.0036057112
0.003605716
0.0036056846
0.003605666
0.0036056351
)
;

boundaryField
{
    top
    {
        type            calculated;
        value           uniform 0;
    }
    inlet
    {
        type            calculated;
        value           nonuniform List<scalar> 10(-0.01 -0.01 -0.01 -0.01 -0.01 -0.01 -0.01 -0.01 -0.01 -0.01);
    }
    outlet
    {
        type            calculated;
        value           nonuniform List<scalar> 10(0.0036056159 0.0087382593 0.011576973 0.012827548 0.013251606 0.013251606 0.012827548 0.011576974 0.0087382597 0.003605616);
    }
    bottom
    {
        type            calculated;
        value           uniform 0;
    }
    back
    {
        type            empty;
        value           nonuniform 0();
    }
    front
    {
        type            empty;
        value           nonuniform 0();
    }
}


// ************************************************************************* //
