/*--------------------------------*- C++ -*----------------------------------*\
| =========                 |                                                 |
| \\      /  F ield         | OpenFOAM: The Open Source CFD Toolbox           |
|  \\    /   O peration     | Version:  v1812                                 |
|   \\  /    A nd           | Web:      www.OpenFOAM.com                      |
|    \\/     M anipulation  |                                                 |
\*---------------------------------------------------------------------------*/
FoamFile
{
    version     2.0;
    format      ascii;
    class       volScalarField;
    location    "60";
    object      p;
}
// * * * * * * * * * * * * * * * * * * * * * * * * * * * * * * * * * * * * * //

dimensions      [0 2 -2 0 0 0 0];


internalField   nonuniform List<scalar> 
1000
(
1.7036915
1.5735411
1.4828867
1.4247212
1.3751371
1.3306203
1.292346
1.2598452
1.2318733
1.2072817
1.1851388
1.1647461
1.1455671
1.1272409
1.1095383
1.0923167
1.0754888
1.0590018
1.0428221
1.0269261
1.0112947
0.9959108
0.98075871
0.96582423
0.95109433
0.93655673
0.92219943
0.90801058
0.89397866
0.88009297
0.86634417
0.85272465
0.8392286
0.8258518
0.81259108
0.79944361
0.78640618
0.77347448
0.76064271
0.74790339
0.73524745
0.72266463
0.71014398
0.69767447
0.68524554
0.67284754
0.66047213
0.64811237
0.63576275
0.62341917
0.61107866
0.59873928
0.58639983
0.57405966
0.5617185
0.54937633
0.53703326
0.52468944
0.51234506
0.50000027
0.48765521
0.47530998
0.46296464
0.45061925
0.43827384
0.42592844
0.41358302
0.40123764
0.38889224
0.37654689
0.36420149
0.35185617
0.33951076
0.32716547
0.31482003
0.30247478
0.29012929
0.2777841
0.26543855
0.25309344
0.24074779
0.22840279
0.21605702
0.20371218
0.19136623
0.17902161
0.16667548
0.15433109
0.14198486
0.1296407
0.11729469
0.1049506
0.092605844
0.080261461
0.067920513
0.055575138
0.043243192
0.030895269
0.018572788
0.0062130845
1.5801437
1.5137263
1.4553041
1.4109301
1.3690855
1.3294765
1.2941
1.2630426
1.235555
1.2108858
1.18839
1.1675187
1.1478523
1.129086
1.1110086
1.0934794
1.0764092
1.0597404
1.0434314
1.027446
1.0117505
0.99631569
0.9811187
0.96614288
0.95137568
0.93680604
0.92242249
0.90821263
0.89416366
0.88026341
0.86650122
0.85286856
0.83935913
0.82596857
0.81269381
0.7995323
0.78648118
0.77353651
0.76069283
0.7479429
0.73527782
0.72268736
0.71016054
0.69768618
0.68525357
0.67285287
0.66047554
0.64811444
0.63576395
0.6234198
0.61107895
0.59873938
0.58639981
0.57405959
0.56171841
0.54937625
0.53703318
0.52468939
0.51234501
0.50000024
0.48765518
0.47530996
0.46296462
0.45061925
0.43827383
0.42592844
0.41358301
0.40123765
0.38889223
0.37654691
0.36420147
0.3518562
0.33951072
0.32716551
0.31481997
0.30247485
0.2901292
0.27778421
0.26543842
0.2530936
0.24074759
0.22840303
0.21605672
0.20371252
0.19136581
0.17902206
0.16667489
0.15433164
0.14198409
0.12964118
0.11729373
0.1049506
0.092604863
0.080260039
0.067920743
0.055572278
0.04325508
0.030908912
0.018667695
0.0062805967
1.5175998
1.4891409
1.4510859
1.4142015
1.3769118
1.3399792
1.3052559
1.2734413
1.2444903
1.2181473
1.1940616
1.1718408
1.1511068
1.1315271
1.1128352
1.0948417
1.077428
1.0605205
1.0440617
1.0279918
1.0122491
0.99677964
0.981546
0.96652775
0.95171556
0.93710354
0.92268384
0.90844505
0.89437334
0.88045465
0.86667655
0.85302932
0.83950603
0.82610212
0.81281456
0.79964084
0.78657813
0.77362252
0.7607685
0.7480088
0.73533452
0.72273544
0.71020062
0.69771896
0.6852798
0.67287335
0.66049109
0.6481259
0.63577208
0.62342534
0.61108252
0.59874152
0.58640096
0.57406009
0.5617185
0.54937612
0.53703294
0.52468913
0.51234476
0.50000003
0.48765501
0.47530984
0.46296453
0.45061919
0.43827379
0.42592843
0.41358299
0.40123766
0.38889221
0.37654693
0.36420144
0.35185623
0.33951068
0.32716556
0.31481991
0.30247492
0.29012911
0.27778432
0.26543828
0.25309376
0.24074738
0.22840327
0.2160564
0.20371286
0.19136531
0.17902251
0.16667408
0.15433215
0.14198268
0.12964151
0.11729107
0.10494984
0.092599268
0.080255693
0.067908426
0.055558962
0.043230561
0.030881537
0.018632657
0.0062481223
1.4885198
1.472344
1.4434162
1.4111724
1.3774887
1.3432546
1.3100052
1.278713
1.249687
1.2229218
1.1982529
1.1754168
1.1541037
1.1340025
1.1148457
1.0964434
1.0786866
1.0615146
1.0448726
1.0286871
1.0128717
0.99734726
0.98206008
0.9669846
0.95211418
0.93744815
0.92298261
0.90870739
0.8946077
0.88066751
0.86687243
0.85321122
0.83967601
0.82626157
0.81296436
0.79978143
0.7867095
0.7737443
0.76088006
0.74810947
0.73542369
0.7228128
0.71026619
0.69777314
0.68532335
0.67290734
0.66051677
0.64814462
0.63578519
0.62343407
0.61108799
0.59874465
0.58640251
0.57406062
0.56171844
0.54937576
0.53703246
0.52468864
0.51234433
0.49999969
0.48765475
0.47530965
0.4629644
0.45061911
0.43827374
0.4259284
0.41358297
0.40123766
0.3888922
0.37654694
0.36420143
0.35185625
0.33951066
0.32716559
0.31481988
0.30247496
0.29012907
0.27778437
0.26543821
0.25309384
0.24074727
0.22840339
0.21605621
0.20371302
0.19136496
0.17902273
0.16667337
0.15433239
0.14198109
0.12964155
0.11728715
0.10494881
0.092588899
0.080250109
0.067878845
0.055534147
0.043136988
0.030773524
0.018328084
0.0060145514
1.475513
1.4631359
1.4387991
1.4095688
1.3780576
1.345373
1.3129935
1.2820268
1.2529602
1.2259311
1.2008916
1.1776637
1.1559836
1.1355547
1.1161082
1.0974535
1.079487
1.0621556
1.0454055
1.0291544
1.0132995
0.99774548
0.98242802
0.96731824
0.95241133
0.93771031
0.92321419
0.90891402
0.89479474
0.88083929
0.86703214
0.8533611
0.83981753
0.82639565
0.81309143
0.79990144
0.78682203
0.77384863
0.76097538
0.748195
0.73549887
0.72287737
0.71032028
0.69781726
0.68535831
0.67293421
0.66053673
0.6481589
0.63579496
0.62344041
0.61109182
0.59874673
0.58640343
0.57406083
0.56171825
0.54937539
0.53703204
0.52468825
0.512344
0.49999942
0.48765455
0.47530951
0.46296431
0.45061906
0.4382737
0.42592839
0.41358296
0.40123766
0.3888922
0.37654695
0.36420143
0.35185626
0.33951066
0.3271656
0.31481987
0.30247497
0.29012905
0.27778439
0.26543818
0.25309386
0.24074723
0.22840341
0.21605614
0.20371305
0.19136481
0.17902276
0.166673
0.15433241
0.14198007
0.12964147
0.11728428
0.10494813
0.092580497
0.080246246
0.067852488
0.055513268
0.043044911
0.030666929
0.018007031
0.0057674366
1.475513
1.4631359
1.4387991
1.4095688
1.3780576
1.3453731
1.3129936
1.2820268
1.2529602
1.2259311
1.2008916
1.1776637
1.1559836
1.1355547
1.1161082
1.0974535
1.079487
1.0621556
1.0454055
1.0291544
1.0132995
0.99774548
0.98242803
0.96731824
0.95241133
0.93771031
0.9232142
0.90891403
0.89479475
0.8808393
0.86703215
0.8533611
0.83981753
0.82639566
0.81309143
0.79990144
0.78682203
0.77384864
0.76097539
0.748195
0.73549887
0.72287737
0.71032028
0.69781726
0.68535832
0.67293421
0.66053674
0.6481589
0.63579496
0.62344042
0.61109182
0.59874673
0.58640343
0.57406083
0.56171825
0.54937539
0.53703204
0.52468825
0.512344
0.49999942
0.48765455
0.47530951
0.46296431
0.45061905
0.4382737
0.42592838
0.41358296
0.40123766
0.3888922
0.37654695
0.36420143
0.35185626
0.33951066
0.3271656
0.31481987
0.30247497
0.29012905
0.27778438
0.26543818
0.25309386
0.24074723
0.22840341
0.21605614
0.20371305
0.19136481
0.17902276
0.166673
0.15433241
0.14198007
0.12964147
0.11728428
0.10494813
0.092580495
0.080246244
0.067852488
0.055513268
0.043044911
0.03066693
0.018007031
0.0057674365
1.4885197
1.4723439
1.4434162
1.4111724
1.3774887
1.3432547
1.3100052
1.278713
1.249687
1.2229218
1.1982528
1.1754168
1.1541037
1.1340025
1.1148457
1.0964434
1.0786866
1.0615147
1.0448726
1.0286872
1.0128717
0.99734727
0.98206008
0.9669846
0.95211419
0.93744817
0.92298263
0.90870741
0.89460772
0.88066752
0.86687244
0.85321124
0.83967602
0.82626158
0.81296437
0.79978144
0.78670951
0.7737443
0.76088007
0.74810947
0.7354237
0.72281281
0.71026619
0.69777315
0.68532336
0.67290735
0.66051678
0.64814463
0.6357852
0.62343408
0.611088
0.59874466
0.58640251
0.57406063
0.56171844
0.54937576
0.53703246
0.52468864
0.51234433
0.49999969
0.48765474
0.47530965
0.4629644
0.45061911
0.43827373
0.4259284
0.41358297
0.40123766
0.3888922
0.37654694
0.36420143
0.35185625
0.33951066
0.32716559
0.31481988
0.30247496
0.29012907
0.27778437
0.2654382
0.25309384
0.24074726
0.22840338
0.21605621
0.20371302
0.19136496
0.17902273
0.16667337
0.15433239
0.14198109
0.12964155
0.11728715
0.10494881
0.092588895
0.080250105
0.067878843
0.055534145
0.043136988
0.030773525
0.018328085
0.0060145514
1.5175997
1.4891409
1.4510859
1.4142015
1.3769119
1.3399792
1.305256
1.2734414
1.2444903
1.2181473
1.1940616
1.1718407
1.1511068
1.1315271
1.1128352
1.0948418
1.077428
1.0605206
1.0440617
1.0279918
1.0122491
0.99677964
0.981546
0.96652775
0.95171558
0.93710357
0.92268387
0.90844508
0.89437338
0.88045468
0.86667658
0.85302934
0.83950604
0.82610214
0.81281457
0.79964085
0.78657815
0.77362253
0.76076851
0.74800881
0.73533452
0.72273545
0.71020063
0.69771897
0.68527981
0.67287336
0.6604911
0.64812591
0.6357721
0.62342535
0.61108253
0.59874153
0.58640097
0.57406009
0.5617185
0.54937612
0.53703294
0.52468912
0.51234476
0.50000003
0.48765501
0.47530983
0.46296452
0.45061919
0.43827378
0.42592842
0.41358299
0.40123766
0.38889221
0.37654693
0.36420144
0.35185623
0.33951068
0.32716556
0.31481991
0.30247492
0.29012911
0.27778431
0.26543828
0.25309376
0.24074738
0.22840327
0.2160564
0.20371285
0.19136531
0.17902251
0.16667408
0.15433216
0.14198268
0.12964151
0.11729107
0.10494983
0.092599261
0.080255687
0.067908422
0.055558961
0.043230562
0.030881539
0.018632658
0.0062481223
1.5801436
1.5137262
1.455304
1.4109301
1.3690855
1.3294766
1.2941001
1.2630426
1.235555
1.2108857
1.1883899
1.1675187
1.1478522
1.129086
1.1110086
1.0934795
1.0764092
1.0597405
1.0434315
1.027446
1.0117505
0.99631569
0.9811187
0.96614288
0.95137569
0.93680606
0.92242252
0.90821267
0.8941637
0.88026344
0.86650125
0.85286858
0.83935915
0.82596859
0.81269383
0.79953232
0.78648119
0.77353653
0.76069284
0.74794291
0.73527783
0.72268737
0.71016055
0.6976862
0.68525358
0.67285289
0.66047555
0.64811446
0.63576397
0.62341982
0.61107896
0.59873939
0.58639982
0.5740596
0.56171842
0.54937625
0.53703318
0.52468938
0.512345
0.50000024
0.48765517
0.47530995
0.46296461
0.45061924
0.43827382
0.42592844
0.41358301
0.40123765
0.38889222
0.37654691
0.36420146
0.3518562
0.33951071
0.32716551
0.31481997
0.30247485
0.2901292
0.27778421
0.26543841
0.2530936
0.24074759
0.22840303
0.21605672
0.20371252
0.19136581
0.17902206
0.1666749
0.15433164
0.14198409
0.12964119
0.11729373
0.1049506
0.092604854
0.080260033
0.067920738
0.055572278
0.043255083
0.030908915
0.018667697
0.0062805967
1.7036914
1.5735411
1.4828867
1.4247212
1.3751371
1.3306204
1.2923461
1.2598452
1.2318732
1.2072816
1.1851387
1.164746
1.1455671
1.127241
1.1095383
1.0923167
1.0754889
1.0590018
1.0428221
1.0269262
1.0112948
0.99591084
0.98075873
0.96582423
0.95109433
0.93655674
0.92219946
0.90801061
0.89397869
0.880093
0.8663442
0.85272467
0.83922862
0.82585182
0.81259109
0.79944363
0.7864062
0.7734745
0.76064273
0.7479034
0.73524746
0.72266464
0.710144
0.69767449
0.68524555
0.67284756
0.66047215
0.64811238
0.63576277
0.62341918
0.61107868
0.59873929
0.58639984
0.57405966
0.5617185
0.54937633
0.53703325
0.52468944
0.51234505
0.50000027
0.4876552
0.47530997
0.46296463
0.45061925
0.43827383
0.42592843
0.41358302
0.40123764
0.38889224
0.37654689
0.36420149
0.35185617
0.33951075
0.32716546
0.31482002
0.30247477
0.29012929
0.2777841
0.26543855
0.25309343
0.24074779
0.22840279
0.21605701
0.20371218
0.19136623
0.17902161
0.16667548
0.1543311
0.14198486
0.12964069
0.11729469
0.1049506
0.092605838
0.080261457
0.06792051
0.055575136
0.043243192
0.030895269
0.018572788
0.0062130843
)
;

boundaryField
{
    top
    {
        type            zeroGradient;
    }
    inlet
    {
        type            zeroGradient;
    }
    outlet
    {
        type            fixedValue;
        value           uniform 0;
    }
    bottom
    {
        type            zeroGradient;
    }
    back
    {
        type            empty;
    }
    front
    {
        type            empty;
    }
}


// ************************************************************************* //
