/*--------------------------------*- C++ -*----------------------------------*\
| =========                 |                                                 |
| \\      /  F ield         | OpenFOAM: The Open Source CFD Toolbox           |
|  \\    /   O peration     | Version:  v1812                                 |
|   \\  /    A nd           | Web:      www.OpenFOAM.com                      |
|    \\/     M anipulation  |                                                 |
\*---------------------------------------------------------------------------*/
FoamFile
{
    version     2.0;
    format      ascii;
    class       volVectorField;
    location    "1.75";
    object      U;
}
// * * * * * * * * * * * * * * * * * * * * * * * * * * * * * * * * * * * * * //

dimensions      [0 1 -1 0 0 0 0];


internalField   nonuniform List<vector> 
1000
(
(0.91890972 0.035823716 0)
(0.86270741 0.062184903 0)
(0.78708401 0.062493564 0)
(0.69539725 0.054531116 0)
(0.61102243 0.044418626 0)
(0.54450146 0.033779648 0)
(0.49412282 0.023913991 0)
(0.45577053 0.015783118 0)
(0.42686783 0.0096524477 0)
(0.40567046 0.005410552 0)
(0.39048833 0.0027469497 0)
(0.37975805 0.0012110044 0)
(0.37224311 0.00037770363 0)
(0.36704777 -3.5663183e-05 0)
(0.36352219 -0.00019593668 0)
(0.36117552 -0.00021852824 0)
(0.3596496 -0.00018274816 0)
(0.35868589 -0.00013154433 0)
(0.35810477 -8.4418744e-05 0)
(0.35777592 -4.8138303e-05 0)
(0.35760595 -2.3359071e-05 0)
(0.35753104 -8.6251369e-06 0)
(0.35750793 -2.8762425e-06 0)
(0.35750856 -1.5168956e-06 0)
(0.35751892 -1.0330642e-06 0)
(0.35753245 -7.4761058e-07 0)
(0.35754525 -4.6611896e-07 0)
(0.35755555 -2.605866e-07 0)
(0.35756306 -1.1869163e-07 0)
(0.35756814 -2.6135937e-08 0)
(0.35757137 2.5534051e-08 0)
(0.35757329 4.4609496e-08 0)
(0.35757435 4.2862092e-08 0)
(0.35757489 3.3943787e-08 0)
(0.35757512 2.435724e-08 0)
(0.3575752 1.7843323e-08 0)
(0.3575752 1.5291361e-08 0)
(0.35757518 1.2606541e-08 0)
(0.35757516 9.3906881e-09 0)
(0.35757513 6.7565648e-09 0)
(0.35757511 4.4531668e-09 0)
(0.3575751 3.1362938e-09 0)
(0.35757509 2.0067155e-09 0)
(0.35757508 1.5657987e-09 0)
(0.35757507 1.0384491e-09 0)
(0.35757507 9.6818942e-10 0)
(0.35757507 6.4991578e-10 0)
(0.35757506 7.0058033e-10 0)
(0.35757506 4.5802361e-10 0)
(0.35757506 5.4769494e-10 0)
(0.35757506 3.174968e-10 0)
(0.35757506 4.1946727e-10 0)
(0.35757506 2.0951861e-10 0)
(0.35757506 3.2443233e-10 0)
(0.35757506 1.1483424e-10 0)
(0.35757505 2.3900752e-10 0)
(0.35757505 4.6837786e-11 0)
(0.35757505 1.843939e-10 0)
(0.35757505 -1.0637378e-11 0)
(0.35757505 1.3581568e-10 0)
(0.35757505 -3.6661619e-11 0)
(0.35757505 1.1148061e-10 0)
(0.35757505 -3.7722516e-11 0)
(0.35757505 7.0051687e-11 0)
(0.35757505 3.2517901e-11 0)
(0.35757505 -2.5118496e-11 0)
(0.35757505 2.6790794e-10 0)
(0.35757505 -4.4267375e-10 0)
(0.35757505 9.9039866e-10 0)
(0.35757505 -1.7121533e-09 0)
(0.35757504 3.1568905e-09 0)
(0.35757506 -5.4104484e-09 0)
(0.35757503 9.1691483e-09 0)
(0.35757509 -1.5005555e-08 0)
(0.35757498 2.4030718e-08 0)
(0.35757517 -3.7035104e-08 0)
(0.35757486 5.5845094e-08 0)
(0.35757535 -7.9927079e-08 0)
(0.35757459 1.1161335e-07 0)
(0.35757573 -1.453143e-07 0)
(0.35757407 1.8180655e-07 0)
(0.35757641 -2.0503361e-07 0)
(0.35757319 2.1227093e-07 0)
(0.35757746 -1.7252753e-07 0)
(0.35757199 9.0234337e-08 0)
(0.35757872 7.6971438e-08 0)
(0.3575707 -2.7458901e-07 0)
(0.35757986 5.6629182e-07 0)
(0.35756964 -7.52035e-07 0)
(0.35758058 1.0162256e-06 0)
(0.35756883 -8.3464818e-07 0)
(0.35758089 8.8976129e-07 0)
(0.35756785 7.2939603e-09 0)
(0.35758062 2.2921389e-07 0)
(0.35756615 1.7137261e-06 0)
(0.35757843 -1.4167303e-07 0)
(0.3575634 3.2668756e-06 0)
(0.35757179 5.5734513e-07 0)
(0.35755861 1.5836182e-06 0)
(0.35756396 1.0951215e-06 0)
(1.0016649 0.053819928 0)
(1.0359637 0.10127343 0)
(1.0597139 0.11068306 0)
(1.0628899 0.10585352 0)
(1.0515451 0.096090089 0)
(1.0341677 0.083597786 0)
(1.0146809 0.069830555 0)
(0.99428281 0.056394192 0)
(0.97390849 0.04425827 0)
(0.9546575 0.033840399 0)
(0.93729005 0.025320555 0)
(0.92211713 0.018616156 0)
(0.90923879 0.013421924 0)
(0.89866517 0.0094245605 0)
(0.8902878 0.0064121083 0)
(0.88386642 0.0042175033 0)
(0.87910636 0.0026707576 0)
(0.87570003 0.001613752 0)
(0.87335525 0.00091693703 0)
(0.87180854 0.00047843456 0)
(0.87083587 0.00021820186 0)
(0.87025551 7.3977988e-05 0)
(0.86993212 -3.6383777e-07 0)
(0.86976953 -3.3149746e-05 0)
(0.86969966 -4.1526514e-05 0)
(0.86967871 -3.7777378e-05 0)
(0.86968083 -2.9826158e-05 0)
(0.86969142 -2.1480148e-05 0)
(0.86970338 -1.4402668e-05 0)
(0.86971366 -9.0682717e-06 0)
(0.86972136 -5.3684324e-06 0)
(0.86972664 -2.9751578e-06 0)
(0.86973002 -1.525436e-06 0)
(0.86973204 -7.0227449e-07 0)
(0.86973317 -2.6754823e-07 0)
(0.86973377 -5.6352155e-08 0)
(0.86973405 3.4735677e-08 0)
(0.86973416 6.3196175e-08 0)
(0.86973419 6.1616041e-08 0)
(0.86973418 5.0399925e-08 0)
(0.86973416 3.7430768e-08 0)
(0.86973414 2.6638693e-08 0)
(0.86973413 1.8355074e-08 0)
(0.86973411 1.2901914e-08 0)
(0.8697341 9.1075881e-09 0)
(0.86973409 6.9204603e-09 0)
(0.86973409 5.291489e-09 0)
(0.86973408 4.463872e-09 0)
(0.86973408 3.6632957e-09 0)
(0.86973407 3.3120166e-09 0)
(0.86973407 2.7626924e-09 0)
(0.86973407 2.554122e-09 0)
(0.86973406 2.108158e-09 0)
(0.86973406 1.9695176e-09 0)
(0.86973406 1.5612894e-09 0)
(0.86973406 1.4627445e-09 0)
(0.86973406 1.1138238e-09 0)
(0.86973406 1.0684861e-09 0)
(0.86973405 7.5720766e-10 0)
(0.86973405 7.4097516e-10 0)
(0.86973405 5.1567095e-10 0)
(0.86973405 4.9824699e-10 0)
(0.86973405 4.1144621e-10 0)
(0.86973405 2.1456517e-10 0)
(0.86973405 5.8548687e-10 0)
(0.86973405 -3.4801014e-10 0)
(0.86973405 1.48164e-09 0)
(0.86973406 -2.0946106e-09 0)
(0.86973404 4.4850266e-09 0)
(0.86973407 -7.392801e-09 0)
(0.86973401 1.3448739e-08 0)
(0.86973412 -2.2392641e-08 0)
(0.86973393 3.7616277e-08 0)
(0.86973425 -6.030001e-08 0)
(0.86973371 9.5167798e-08 0)
(0.8697346 -1.4375926e-07 0)
(0.86973317 2.1164616e-07 0)
(0.86973542 -2.9514925e-07 0)
(0.86973197 3.9635587e-07 0)
(0.86973711 -4.9299675e-07 0)
(0.86972965 5.728855e-07 0)
(0.86974013 -5.7835363e-07 0)
(0.86972588 4.7826333e-07 0)
(0.86974454 -1.8351845e-07 0)
(0.86972104 -3.0294022e-07 0)
(0.86974938 1.0479675e-06 0)
(0.86971671 -1.8406603e-06 0)
(0.8697525 2.6474816e-06 0)
(0.86971523 -2.8500208e-06 0)
(0.86975188 2.5843693e-06 0)
(0.86971751 -8.7855124e-07 0)
(0.86974785 -7.4180531e-07 0)
(0.86972158 3.7450075e-06 0)
(0.86974302 -3.637874e-06 0)
(0.8697242 5.0538359e-06 0)
(0.86973844 -1.7116209e-08 0)
(0.86972319 2.0797208e-06 0)
(0.86973374 4.0262802e-06 0)
(0.8697161 4.2466746e-06 0)
(0.86973415 3.2011038e-06 0)
(1.0014318 0.026822558 0)
(1.0291121 0.062779472 0)
(1.0653975 0.077671334 0)
(1.0989059 0.080494196 0)
(1.1251613 0.078117817 0)
(1.1448782 0.072806221 0)
(1.1594307 0.065554234 0)
(1.169378 0.057427451 0)
(1.1752655 0.049247604 0)
(1.1780831 0.041509288 0)
(1.1787709 0.034538562 0)
(1.1779078 0.028446666 0)
(1.1759402 0.023123545 0)
(1.173356 0.018429356 0)
(1.1705806 0.014328926 0)
(1.1678769 0.010843744 0)
(1.1653936 0.0079692102 0)
(1.1632302 0.0056641392 0)
(1.1614454 0.0038746324 0)
(1.1600472 0.0025395721 0)
(1.1590011 0.0015867626 0)
(1.1582507 0.00093745772 0)
(1.1577345 0.0005169412 0)
(1.1573954 0.00025886262 0)
(1.1571834 0.00011029311 0)
(1.1570567 3.1883886e-05 0)
(1.156985 -4.755777e-06 0)
(1.1569473 -1.8193931e-05 0)
(1.1569293 -2.0040318e-05 0)
(1.1569219 -1.7014439e-05 0)
(1.1569198 -1.266321e-05 0)
(1.15692 -8.6220523e-06 0)
(1.1569209 -5.4648485e-06 0)
(1.156922 -3.2443301e-06 0)
(1.1569228 -1.8000479e-06 0)
(1.1569235 -9.230023e-07 0)
(1.1569239 -4.253897e-07 0)
(1.1569241 -1.6228142e-07 0)
(1.1569242 -3.5378045e-08 0)
(1.1569243 1.8040181e-08 0)
(1.1569243 3.5270799e-08 0)
(1.1569244 3.6140408e-08 0)
(1.1569244 3.1264767e-08 0)
(1.1569244 2.5111319e-08 0)
(1.1569244 1.9882288e-08 0)
(1.1569244 1.5692136e-08 0)
(1.1569243 1.2785673e-08 0)
(1.1569243 1.0561175e-08 0)
(1.1569243 9.0976939e-09 0)
(1.1569243 7.8350569e-09 0)
(1.1569243 6.974929e-09 0)
(1.1569243 6.0931174e-09 0)
(1.1569243 5.481838e-09 0)
(1.1569243 4.7583992e-09 0)
(1.1569243 4.2559997e-09 0)
(1.1569243 3.6290475e-09 0)
(1.1569243 3.2318501e-09 0)
(1.1569243 2.6888e-09 0)
(1.1569243 2.388542e-09 0)
(1.1569243 1.9117176e-09 0)
(1.1569243 1.7666028e-09 0)
(1.1569243 1.276884e-09 0)
(1.1569243 1.4134532e-09 0)
(1.1569243 6.1144833e-10 0)
(1.1569243 1.5831389e-09 0)
(1.1569243 -5.5462664e-10 0)
(1.1569243 3.0421917e-09 0)
(1.1569243 -3.692852e-09 0)
(1.1569243 8.177505e-09 0)
(1.1569244 -1.2768727e-08 0)
(1.1569242 2.3139319e-08 0)
(1.1569245 -3.7295208e-08 0)
(1.156924 6.1745611e-08 0)
(1.1569248 -9.6121148e-08 0)
(1.1569235 1.480744e-07 0)
(1.1569256 -2.1611956e-07 0)
(1.1569223 3.0662451e-07 0)
(1.1569273 -4.0722145e-07 0)
(1.1569198 5.1447755e-07 0)
(1.1569309 -5.8642134e-07 0)
(1.1569151 5.980361e-07 0)
(1.1569367 -4.6543398e-07 0)
(1.1569081 1.5866334e-07 0)
(1.1569445 4.0604778e-07 0)
(1.1569003 -1.1536872e-06 0)
(1.1569513 2.052841e-06 0)
(1.1568958 -2.7074222e-06 0)
(1.1569523 2.9814951e-06 0)
(1.156899 -2.1666529e-06 0)
(1.1569449 7.2035961e-07 0)
(1.1569095 1.9884289e-06 0)
(1.1569333 -3.5991189e-06 0)
(1.1569194 5.508603e-06 0)
(1.1569269 -3.1471181e-06 0)
(1.1569212 2.6705131e-06 0)
(1.1569277 2.575133e-06 0)
(1.1569172 6.6925497e-07 0)
(1.1569294 3.3160756e-06 0)
(1.156911 5.0082503e-06 0)
(1.1569336 2.7368637e-06 0)
(1.0007417 0.011811198 0)
(1.0178281 0.03085012 0)
(1.0461741 0.041386923 0)
(1.0798183 0.045106103 0)
(1.1130391 0.045366576 0)
(1.143475 0.043832148 0)
(1.1706334 0.041033651 0)
(1.1941445 0.037396023 0)
(1.2138761 0.03335695 0)
(1.2302723 0.029266213 0)
(1.2438542 0.025380231 0)
(1.2548496 0.021812467 0)
(1.2634582 0.018526776 0)
(1.2700718 0.015460641 0)
(1.2751132 0.012622516 0)
(1.2788679 0.010065467 0)
(1.2815372 0.0078265893 0)
(1.2833348 0.0059162887 0)
(1.2844863 0.0043337672 0)
(1.2851845 0.0030694063 0)
(1.2855745 0.0020983088 0)
(1.2857641 0.0013812923 0)
(1.2858337 0.00087259719 0)
(1.2858397 0.00052646003 0)
(1.2858172 0.00030093125 0)
(1.2857859 0.00016075998 0)
(1.2857558 7.841541e-05 0)
(1.2857313 3.3030933e-05 0)
(1.2857131 9.9874893e-06 0)
(1.2857007 -3.5469301e-07 0)
(1.2856926 -4.0108199e-06 0)
(1.2856877 -4.5051277e-06 0)
(1.2856849 -3.7581241e-06 0)
(1.2856833 -2.71905e-06 0)
(1.2856826 -1.7885866e-06 0)
(1.2856822 -1.088735e-06 0)
(1.2856821 -6.1486809e-07 0)
(1.285682 -3.1920146e-07 0)
(1.2856821 -1.4643651e-07 0)
(1.2856821 -5.3538442e-08 0)
(1.2856821 -7.355805e-09 0)
(1.2856821 1.2781397e-08 0)
(1.2856821 2.0104314e-08 0)
(1.2856821 2.0985091e-08 0)
(1.2856821 1.9727163e-08 0)
(1.2856822 1.7443371e-08 0)
(1.2856822 1.5507388e-08 0)
(1.2856822 1.3516395e-08 0)
(1.2856822 1.2131529e-08 0)
(1.2856821 1.0663371e-08 0)
(1.2856821 9.697628e-09 0)
(1.2856821 8.5416625e-09 0)
(1.2856821 7.7972653e-09 0)
(1.2856821 6.7992556e-09 0)
(1.2856821 6.1866087e-09 0)
(1.2856821 5.306231e-09 0)
(1.2856821 4.8049119e-09 0)
(1.2856821 4.0197969e-09 0)
(1.2856821 3.641542e-09 0)
(1.2856821 2.9473169e-09 0)
(1.2856821 2.7358104e-09 0)
(1.2856821 2.0464163e-09 0)
(1.2856821 2.1486954e-09 0)
(1.2856821 1.1871272e-09 0)
(1.2856821 2.1170326e-09 0)
(1.2856821 -1.0203648e-10 0)
(1.2856821 3.3539716e-09 0)
(1.2856822 -3.1364151e-09 0)
(1.2856821 7.9613578e-09 0)
(1.2856822 -1.140907e-08 0)
(1.285682 2.1184223e-08 0)
(1.2856824 -3.2769418e-08 0)
(1.2856817 5.401525e-08 0)
(1.2856829 -8.1494346e-08 0)
(1.2856809 1.2336605e-07 0)
(1.285684 -1.7394836e-07 0)
(1.2856792 2.3953141e-07 0)
(1.2856866 -3.0307474e-07 0)
(1.2856756 3.6287792e-07 0)
(1.2856915 -3.7686073e-07 0)
(1.2856692 3.3156073e-07 0)
(1.2856992 -1.5879782e-07 0)
(1.2856604 -1.3898762e-07 0)
(1.2857085 6.0974637e-07 0)
(1.2856518 -1.1355961e-06 0)
(1.285715 1.6629975e-06 0)
(1.285649 -1.8528171e-06 0)
(1.2857127 1.6660688e-06 0)
(1.285657 -6.39333e-07 0)
(1.2857 -6.1316486e-07 0)
(1.2856727 2.5027776e-06 0)
(1.2856849 -3.0468823e-06 0)
(1.2856842 3.5726918e-06 0)
(1.2856801 -1.0810444e-06 0)
(1.2856829 6.1273423e-07 0)
(1.2856862 2.6532973e-06 0)
(1.2856757 4.9674273e-07 0)
(1.285691 1.6591121e-06 0)
(1.2856716 3.7031726e-06 0)
(1.2856952 1.6111969e-06 0)
(1.0005979 0.0034612944 0)
(1.0136638 0.0093615784 0)
(1.0369799 0.01302951 0)
(1.0673296 0.014529409 0)
(1.0997837 0.014803766 0)
(1.1312998 0.014479338 0)
(1.1607626 0.013746582 0)
(1.1875382 0.012708622 0)
(1.2113144 0.011497056 0)
(1.2323166 0.010236315 0)
(1.2508235 0.0090171133 0)
(1.2668254 0.0078788532 0)
(1.2803295 0.0068108045 0)
(1.2916006 0.0057928439 0)
(1.3009662 0.0048287478 0)
(1.3086183 0.0039386284 0)
(1.3146794 0.0031385107 0)
(1.3193254 0.0024361479 0)
(1.322789 0.0018364158 0)
(1.325301 0.0013417618 0)
(1.3270634 0.0009489598 0)
(1.3282533 0.00064864275 0)
(1.3290251 0.00042757777 0)
(1.3295053 0.00027108328 0)
(1.3297907 0.00016466851 0)
(1.3299511 9.5293774e-05 0)
(1.3300352 5.2101659e-05 0)
(1.3300752 2.6518972e-05 0)
(1.3300913 1.2187346e-05 0)
(1.3300956 4.6879602e-06 0)
(1.3300948 1.1102574e-06 0)
(1.3300925 -3.5652348e-07 0)
(1.33009 -7.8271586e-07 0)
(1.330088 -7.5878865e-07 0)
(1.3300866 -5.8489135e-07 0)
(1.3300857 -3.9643162e-07 0)
(1.3300852 -2.4379948e-07 0)
(1.3300849 -1.361286e-07 0)
(1.3300847 -6.6982389e-08 0)
(1.3300847 -2.5715938e-08 0)
(1.3300846 -3.1420765e-09 0)
(1.3300846 8.3464659e-09 0)
(1.3300846 1.3448451e-08 0)
(1.3300846 1.5280323e-08 0)
(1.3300847 1.5308642e-08 0)
(1.3300847 1.4694828e-08 0)
(1.3300847 1.3659263e-08 0)
(1.3300847 1.2648322e-08 0)
(1.3300847 1.1529669e-08 0)
(1.3300847 1.0579411e-08 0)
(1.3300847 9.576582e-09 0)
(1.3300847 8.738922e-09 0)
(1.3300847 7.8348405e-09 0)
(1.3300847 7.0989312e-09 0)
(1.3300847 6.3010327e-09 0)
(1.3300847 5.6553737e-09 0)
(1.3300847 4.9406312e-09 0)
(1.3300847 4.3868463e-09 0)
(1.3300847 3.785802e-09 0)
(1.3300847 3.3210584e-09 0)
(1.3300847 2.8355227e-09 0)
(1.3300847 2.4338447e-09 0)
(1.3300847 2.1478066e-09 0)
(1.3300847 1.6909622e-09 0)
(1.3300847 1.7894486e-09 0)
(1.3300847 8.874428e-10 0)
(1.3300847 2.048751e-09 0)
(1.3300847 -4.8456433e-10 0)
(1.3300846 3.6856956e-09 0)
(1.3300848 -3.7951322e-09 0)
(1.3300845 8.673091e-09 0)
(1.330085 -1.1922053e-08 0)
(1.3300842 2.0943537e-08 0)
(1.3300856 -2.9832625e-08 0)
(1.3300833 4.6182584e-08 0)
(1.3300869 -6.2327147e-08 0)
(1.3300812 8.6292585e-08 0)
(1.3300899 -1.0394511e-07 0)
(1.3300771 1.2306568e-07 0)
(1.3300954 -1.1708563e-07 0)
(1.3300701 9.4581e-08 0)
(1.3301038 -1.7111722e-08 0)
(1.3300607 -9.3348533e-08 0)
(1.3301134 2.6825294e-07 0)
(1.3300521 -4.333456e-07 0)
(1.3301193 5.9384561e-07 0)
(1.3300506 -5.9467811e-07 0)
(1.3301153 4.7146567e-07 0)
(1.3300607 -3.9798584e-08 0)
(1.3301005 -3.9160947e-07 0)
(1.3300781 1.0217978e-06 0)
(1.3300846 -1.0604496e-06 0)
(1.3300896 1.1217356e-06 0)
(1.3300811 -1.3571904e-07 0)
(1.3300866 1.6057829e-08 0)
(1.3300896 1.0196053e-06 0)
(1.3300781 2.3166988e-07 0)
(1.3300951 4.2406042e-07 0)
(1.3300752 1.2972377e-06 0)
(1.3300987 5.2559425e-07 0)
(1.0005979 -0.0034613238 0)
(1.0136638 -0.0093616528 0)
(1.0369799 -0.013029594 0)
(1.0673296 -0.014529479 0)
(1.0997837 -0.014803817 0)
(1.1312998 -0.014479377 0)
(1.1607626 -0.013746625 0)
(1.1875382 -0.012708675 0)
(1.2113144 -0.011497117 0)
(1.2323166 -0.010236379 0)
(1.2508235 -0.0090171802 0)
(1.2668253 -0.0078789261 0)
(1.2803295 -0.0068108829 0)
(1.2916006 -0.0057929237 0)
(1.3009662 -0.0048288235 0)
(1.3086183 -0.0039386956 0)
(1.3146794 -0.0031385689 0)
(1.3193254 -0.0024361988 0)
(1.322789 -0.0018364653 0)
(1.325301 -0.0013418155 0)
(1.3270634 -0.00094902401 0)
(1.3282533 -0.00064872075 0)
(1.3290251 -0.00042767049 0)
(1.3295053 -0.00027118569 0)
(1.3297906 -0.00016477304 0)
(1.3299511 -9.5390929e-05 0)
(1.3300352 -5.2184317e-05 0)
(1.3300751 -2.6582343e-05 0)
(1.3300912 -1.2230275e-05 0)
(1.3300955 -4.7112223e-06 0)
(1.3300948 -1.1175382e-06 0)
(1.3300924 3.6165527e-07 0)
(1.3300899 7.9567123e-07 0)
(1.3300879 7.7693879e-07 0)
(1.3300865 6.0524538e-07 0)
(1.3300856 4.1859425e-07 0)
(1.3300851 2.6639109e-07 0)
(1.3300848 1.5984703e-07 0)
(1.3300847 9.1102248e-08 0)
(1.3300846 5.1094787e-08 0)
(1.3300846 2.8731992e-08 0)
(1.3300846 1.8027268e-08 0)
(1.3300846 1.2583398e-08 0)
(1.3300846 1.0809625e-08 0)
(1.3300846 9.6359618e-09 0)
(1.3300846 9.6398199e-09 0)
(1.3300846 8.9858581e-09 0)
(1.3300846 8.942951e-09 0)
(1.3300847 8.1070622e-09 0)
(1.3300847 7.9143628e-09 0)
(1.3300847 6.9767648e-09 0)
(1.3300847 6.7263071e-09 0)
(1.3300847 5.7826174e-09 0)
(1.3300847 5.580181e-09 0)
(1.3300847 4.6872137e-09 0)
(1.3300847 4.5283939e-09 0)
(1.3300847 3.6843752e-09 0)
(1.3300847 3.6085887e-09 0)
(1.3300847 2.8268429e-09 0)
(1.3300847 2.8211221e-09 0)
(1.3300847 2.0792205e-09 0)
(1.3300847 2.208235e-09 0)
(1.3300847 1.4608956e-09 0)
(1.3300847 1.8071494e-09 0)
(1.3300847 8.2623417e-10 0)
(1.3300847 1.7939105e-09 0)
(1.3300847 -6.4228273e-11 0)
(1.3300847 2.6483045e-09 0)
(1.3300846 -2.0987653e-09 0)
(1.3300848 5.6719232e-09 0)
(1.3300845 -7.2618293e-09 0)
(1.330085 1.3702993e-08 0)
(1.3300842 -1.9522037e-08 0)
(1.3300856 3.1796055e-08 0)
(1.3300833 -4.4361192e-08 0)
(1.3300869 6.4930505e-08 0)
(1.3300812 -8.3569995e-08 0)
(1.3300899 1.0775905e-07 0)
(1.3300771 -1.1885904e-07 0)
(1.3300954 1.2254507e-07 0)
(1.3300701 -8.8656424e-08 0)
(1.3301038 2.4289701e-08 0)
(1.3300607 1.00918e-07 0)
(1.3301134 -2.5950055e-07 0)
(1.3300521 4.423011e-07 0)
(1.3301194 -5.8383474e-07 0)
(1.3300506 6.0463066e-07 0)
(1.3301154 -4.6115417e-07 0)
(1.3300607 4.9247767e-08 0)
(1.3301005 4.0080467e-07 0)
(1.3300781 -1.0126843e-06 0)
(1.3300846 1.0714306e-06 0)
(1.3300896 -1.1081466e-06 0)
(1.3300811 1.5157717e-07 0)
(1.3300866 -4.6205545e-10 0)
(1.3300896 -1.0051775e-06 0)
(1.3300781 -2.1917856e-07 0)
(1.3300951 -4.1314639e-07 0)
(1.3300752 -1.2889659e-06 0)
(1.3300987 -5.2181028e-07 0)
(1.0007417 -0.011811228 0)
(1.0178282 -0.030850187 0)
(1.0461741 -0.041386998 0)
(1.0798184 -0.045106168 0)
(1.1130391 -0.045366624 0)
(1.143475 -0.043832188 0)
(1.1706334 -0.041033691 0)
(1.1941445 -0.037396071 0)
(1.2138761 -0.033357003 0)
(1.2302723 -0.029266268 0)
(1.2438542 -0.025380291 0)
(1.2548496 -0.021812535 0)
(1.2634581 -0.018526853 0)
(1.2700718 -0.015460721 0)
(1.2751131 -0.012622593 0)
(1.2788678 -0.010065533 0)
(1.2815371 -0.0078266434 0)
(1.2833348 -0.0059163324 0)
(1.2844862 -0.0043338062 0)
(1.2851844 -0.0030694492 0)
(1.2855744 -0.0020983621 0)
(1.285764 -0.0013813602 0)
(1.2858336 -0.00087267809 0)
(1.2858396 -0.00052654916 0)
(1.2858171 -0.00030102261 0)
(1.2857858 -0.00016084327 0)
(1.2857557 -7.8484511e-05 0)
(1.2857311 -3.3082176e-05 0)
(1.285713 -1.001976e-05 0)
(1.2857005 3.3942353e-07 0)
(1.2856924 4.0094806e-06 0)
(1.2856875 4.5133034e-06 0)
(1.2856847 3.7724916e-06 0)
(1.2856832 2.7363216e-06 0)
(1.2856824 1.807421e-06 0)
(1.2856821 1.1078746e-06 0)
(1.2856819 6.3461663e-07 0)
(1.2856819 3.3906959e-07 0)
(1.2856819 1.6704398e-07 0)
(1.285682 7.4293367e-08 0)
(1.285682 2.8704939e-08 0)
(1.285682 8.4775348e-09 0)
(1.285682 1.3587898e-09 0)
(1.2856821 -1.8436278e-10 0)
(1.2856821 6.8241934e-10 0)
(1.2856821 1.7206706e-09 0)
(1.2856821 2.7930135e-09 0)
(1.2856821 3.2479069e-09 0)
(1.2856821 3.6150976e-09 0)
(1.2856821 3.5163654e-09 0)
(1.2856821 3.4913017e-09 0)
(1.2856821 3.1560172e-09 0)
(1.2856821 3.0334215e-09 0)
(1.2856821 2.6770811e-09 0)
(1.2856821 2.5410025e-09 0)
(1.2856821 2.1797666e-09 0)
(1.2856821 2.070662e-09 0)
(1.2856821 1.7533807e-09 0)
(1.2856821 1.6490936e-09 0)
(1.2856821 1.3609106e-09 0)
(1.2856821 1.2466546e-09 0)
(1.2856821 1.1135192e-09 0)
(1.2856821 8.2693356e-10 0)
(1.2856821 1.1050077e-09 0)
(1.2856821 1.3989706e-10 0)
(1.2856821 1.8259296e-09 0)
(1.2856821 -1.5527319e-09 0)
(1.2856822 4.5050538e-09 0)
(1.2856821 -6.4302836e-09 0)
(1.2856822 1.2602439e-08 0)
(1.285682 -1.9762597e-08 0)
(1.2856824 3.3927171e-08 0)
(1.2856817 -5.2516349e-08 0)
(1.2856829 8.2873836e-08 0)
(1.2856809 -1.2147638e-07 0)
(1.2856841 1.7591932e-07 0)
(1.2856792 -2.3679412e-07 0)
(1.2856866 3.0614739e-07 0)
(1.2856756 -3.5883585e-07 0)
(1.2856915 3.8136731e-07 0)
(1.2856693 -3.2602875e-07 0)
(1.2856992 1.6475496e-07 0)
(1.2856604 1.4594803e-07 0)
(1.2857085 -6.0271201e-07 0)
(1.2856518 1.1434033e-06 0)
(1.285715 -1.654961e-06 0)
(1.285649 1.8613944e-06 0)
(1.2857128 -1.657832e-06 0)
(1.285657 6.4741749e-07 0)
(1.2857 6.2065336e-07 0)
(1.2856727 -2.4944469e-06 0)
(1.285685 3.0564471e-06 0)
(1.2856842 -3.5600244e-06 0)
(1.2856801 1.094924e-06 0)
(1.2856829 -5.9885394e-07 0)
(1.2856863 -2.6414765e-06 0)
(1.2856758 -4.8727684e-07 0)
(1.285691 -1.6516084e-06 0)
(1.2856716 -3.698037e-06 0)
(1.2856952 -1.6091034e-06 0)
(1.0014318 -0.026822575 0)
(1.0291121 -0.062779515 0)
(1.0653975 -0.077671386 0)
(1.098906 -0.080494244 0)
(1.1251614 -0.078117854 0)
(1.1448782 -0.072806251 0)
(1.1594307 -0.065554263 0)
(1.169378 -0.057427484 0)
(1.1752654 -0.04924764 0)
(1.178083 -0.041509326 0)
(1.1787708 -0.034538604 0)
(1.1779077 -0.028446715 0)
(1.1759401 -0.023123604 0)
(1.1733559 -0.018429419 0)
(1.1705805 -0.014328986 0)
(1.1678768 -0.010843794 0)
(1.1653935 -0.0079692464 0)
(1.1632301 -0.0056641659 0)
(1.1614453 -0.0038746541 0)
(1.1600471 -0.0025395978 0)
(1.159001 -0.0015867984 0)
(1.1582505 -0.00093750607 0)
(1.1577343 -0.00051699901 0)
(1.1573953 -0.00025892522 0)
(1.1571832 -0.00011035242 0)
(1.1570565 -3.1937678e-05 0)
(1.1569848 4.7130098e-06 0)
(1.1569471 1.816436e-05 0)
(1.1569291 2.0024454e-05 0)
(1.1569217 1.70096e-05 0)
(1.1569195 1.2667067e-05 0)
(1.1569198 8.6308109e-06 0)
(1.1569207 5.4768262e-06 0)
(1.1569218 3.2567672e-06 0)
(1.1569227 1.813154e-06 0)
(1.1569233 9.3512131e-07 0)
(1.1569237 4.3779904e-07 0)
(1.1569239 1.7409712e-07 0)
(1.1569241 4.7947144e-08 0)
(1.1569242 -5.7771463e-09 0)
(1.1569242 -2.2072169e-08 0)
(1.1569242 -2.3298759e-08 0)
(1.1569243 -1.8011816e-08 0)
(1.1569243 -1.2746943e-08 0)
(1.1569243 -7.5118694e-09 0)
(1.1569243 -4.6005584e-09 0)
(1.1569243 -1.9692981e-09 0)
(1.1569243 -1.1315502e-09 0)
(1.1569243 5.5948745e-11 0)
(1.1569243 -4.9189408e-11 0)
(1.1569243 5.7673505e-10 0)
(1.1569243 1.7027255e-10 0)
(1.1569243 6.7406872e-10 0)
(1.1569243 1.9852926e-10 0)
(1.1569243 6.5852066e-10 0)
(1.1569243 1.7102698e-10 0)
(1.1569243 6.4007916e-10 0)
(1.1569243 1.48189e-10 0)
(1.1569243 5.8068327e-10 0)
(1.1569243 1.0580223e-10 0)
(1.1569243 5.0545608e-10 0)
(1.1569243 1.3168294e-10 0)
(1.1569243 3.1813303e-10 0)
(1.1569243 3.4943304e-10 0)
(1.1569243 -1.7523268e-10 0)
(1.1569243 1.278642e-09 0)
(1.1569243 -1.8702971e-09 0)
(1.1569243 4.2644648e-09 0)
(1.1569243 -7.1115772e-09 0)
(1.1569244 1.3295917e-08 0)
(1.1569242 -2.2092356e-08 0)
(1.1569245 3.7871606e-08 0)
(1.156924 -6.0546002e-08 0)
(1.1569248 9.6945911e-08 0)
(1.1569235 -1.4652399e-07 0)
(1.1569256 2.1743516e-07 0)
(1.1569223 -3.043874e-07 0)
(1.1569273 4.0935956e-07 0)
(1.1569198 -5.1133416e-07 0)
(1.1569309 5.8952238e-07 0)
(1.1569151 -5.9393616e-07 0)
(1.1569368 4.6939431e-07 0)
(1.1569081 -1.5393209e-07 0)
(1.1569445 -4.0150884e-07 0)
(1.1569003 1.1592065e-06 0)
(1.1569513 -2.0475534e-06 0)
(1.1568958 2.7132897e-06 0)
(1.1569524 -2.9762436e-06 0)
(1.156899 2.172168e-06 0)
(1.1569449 -7.1555055e-07 0)
(1.1569096 -1.9824118e-06 0)
(1.1569334 3.6061664e-06 0)
(1.1569195 -5.4989075e-06 0)
(1.1569269 3.1569791e-06 0)
(1.1569212 -2.6612648e-06 0)
(1.1569277 -2.5687598e-06 0)
(1.1569172 -6.6511764e-07 0)
(1.1569294 -3.3129861e-06 0)
(1.1569111 -5.0059219e-06 0)
(1.1569337 -2.7357656e-06 0)
(1.0016649 -0.053819919 0)
(1.0359637 -0.10127344 0)
(1.0597139 -0.11068308 0)
(1.0628899 -0.10585355 0)
(1.0515451 -0.096090105 0)
(1.0341678 -0.083597798 0)
(1.0146809 -0.069830569 0)
(0.99428277 -0.056394212 0)
(0.97390843 -0.044258295 0)
(0.95465743 -0.033840424 0)
(0.93728998 -0.025320573 0)
(0.92211705 -0.018616172 0)
(0.90923871 -0.013421941 0)
(0.8986651 -0.0094245809 0)
(0.89028774 -0.0064121309 0)
(0.88386636 -0.0042175228 0)
(0.87910629 -0.0026707737 0)
(0.87569996 -0.0016137655 0)
(0.87335518 -0.00091695101 0)
(0.87180846 -0.0004784511 0)
(0.87083577 -0.00021822188 0)
(0.87025539 -7.3999851e-05 0)
(0.86993198 3.4133464e-07 0)
(0.86976936 3.3128788e-05 0)
(0.86969947 4.1509676e-05 0)
(0.8696785 3.7762523e-05 0)
(0.86968062 2.9814596e-05 0)
(0.8696912 2.1472804e-05 0)
(0.86970317 1.4398775e-05 0)
(0.86971345 9.0674798e-06 0)
(0.86972117 5.3691857e-06 0)
(0.86972646 2.9771776e-06 0)
(0.86972985 1.5275035e-06 0)
(0.86973188 7.0478222e-07 0)
(0.86973303 2.6992294e-07 0)
(0.86973363 5.9332035e-08 0)
(0.86973393 -3.1665123e-08 0)
(0.86973404 -5.9280461e-08 0)
(0.86973408 -5.7607084e-08 0)
(0.86973408 -4.5631631e-08 0)
(0.86973407 -3.2840806e-08 0)
(0.86973406 -2.1703428e-08 0)
(0.86973405 -1.3915975e-08 0)
(0.86973405 -8.3301535e-09 0)
(0.86973405 -5.1896564e-09 0)
(0.86973404 -2.9430633e-09 0)
(0.86973404 -2.0294459e-09 0)
(0.86973404 -1.1650118e-09 0)
(0.86973404 -1.034952e-09 0)
(0.86973404 -6.1977019e-10 0)
(0.86973405 -7.1093434e-10 0)
(0.86973404 -3.7831025e-10 0)
(0.86973405 -5.2167276e-10 0)
(0.86973405 -2.3412348e-10 0)
(0.86973405 -3.9701728e-10 0)
(0.86973405 -1.0581574e-10 0)
(0.86973405 -2.8436879e-10 0)
(0.86973405 -2.4190698e-11 0)
(0.86973405 -2.2627319e-10 0)
(0.86973405 5.8563808e-11 0)
(0.86973405 -1.8339923e-10 0)
(0.86973405 1.2883615e-10 0)
(0.86973405 -2.3206764e-10 0)
(0.86973405 3.0123872e-10 0)
(0.86973405 -4.7176527e-10 0)
(0.86973405 8.035965e-10 0)
(0.86973405 -1.4083409e-09 0)
(0.86973405 2.5152479e-09 0)
(0.86973404 -4.3846342e-09 0)
(0.86973407 7.8483685e-09 0)
(0.86973401 -1.3294745e-08 0)
(0.86973412 2.2952056e-08 0)
(0.86973393 -3.729605e-08 0)
(0.86973425 6.1081422e-08 0)
(0.86973372 -9.4584416e-08 0)
(0.8697346 1.4487574e-07 0)
(0.86973318 -2.1068992e-07 0)
(0.86973542 2.9662283e-07 0)
(0.86973198 -3.9509885e-07 0)
(0.86973712 4.9472139e-07 0)
(0.86972966 -5.7139825e-07 0)
(0.86974015 5.8026197e-07 0)
(0.8697259 -4.7655639e-07 0)
(0.86974456 1.8581857e-07 0)
(0.86972106 3.0524752e-07 0)
(0.8697494 -1.0452064e-06 0)
(0.86971674 1.8431643e-06 0)
(0.86975252 -2.6446134e-06 0)
(0.86971525 2.8524643e-06 0)
(0.8697519 -2.5815746e-06 0)
(0.86971754 8.8144631e-07 0)
(0.86974788 7.4598668e-07 0)
(0.86972162 -3.7407755e-06 0)
(0.86974305 3.6412664e-06 0)
(0.86972424 -5.0526506e-06 0)
(0.86973848 1.6622143e-08 0)
(0.86972323 -2.0797953e-06 0)
(0.86973378 -4.0241495e-06 0)
(0.86971614 -4.2429074e-06 0)
(0.86973419 -3.198671e-06 0)
(0.91890973 -0.035823705 0)
(0.86270742 -0.062184896 0)
(0.78708402 -0.062493564 0)
(0.6953973 -0.05453112 0)
(0.61102249 -0.044418632 0)
(0.5445015 -0.033779654 0)
(0.49412281 -0.023913999 0)
(0.45577048 -0.015783131 0)
(0.42686778 -0.0096524612 0)
(0.40567043 -0.0054105615 0)
(0.39048831 -0.0027469506 0)
(0.37975803 -0.001210999 0)
(0.37224309 -0.00037769656 0)
(0.36704775 3.5667829e-05 0)
(0.36352217 0.00019593639 0)
(0.36117551 0.00021852476 0)
(0.35964957 0.00018274115 0)
(0.35868586 0.00013153614 0)
(0.35810474 8.4409631e-05 0)
(0.35777588 4.8131322e-05 0)
(0.3576059 2.3354434e-05 0)
(0.35753098 8.62408e-06 0)
(0.35750786 2.877797e-06 0)
(0.35750848 1.5197297e-06 0)
(0.35751883 1.0343091e-06 0)
(0.35753236 7.4884549e-07 0)
(0.35754516 4.6586293e-07 0)
(0.35755546 2.594869e-07 0)
(0.35756297 1.1658534e-07 0)
(0.35756807 2.4035024e-08 0)
(0.3575713 -2.8039791e-08 0)
(0.35757322 -4.6619618e-08 0)
(0.35757429 -4.5104772e-08 0)
(0.35757483 -3.5249845e-08 0)
(0.35757507 -2.5600223e-08 0)
(0.35757515 -1.7888167e-08 0)
(0.35757516 -1.5575901e-08 0)
(0.35757515 -1.2042503e-08 0)
(0.35757512 -9.2671531e-09 0)
(0.3575751 -6.0224949e-09 0)
(0.35757508 -4.2161157e-09 0)
(0.35757507 -2.3919141e-09 0)
(0.35757506 -1.7985571e-09 0)
(0.35757506 -8.7660863e-10 0)
(0.35757506 -8.9621996e-10 0)
(0.35757506 -3.320935e-10 0)
(0.35757505 -5.8397829e-10 0)
(0.35757505 -1.4370749e-10 0)
(0.35757505 -4.7220362e-10 0)
(0.35757505 -6.2063601e-11 0)
(0.35757505 -3.9318511e-10 0)
(0.35757505 2.9493922e-11 0)
(0.35757505 -3.3067246e-10 0)
(0.35757505 7.3700047e-11 0)
(0.35757505 -2.8203862e-10 0)
(0.35757505 1.2265881e-10 0)
(0.35757505 -2.5385216e-10 0)
(0.35757505 1.3147065e-10 0)
(0.35757505 -2.326899e-10 0)
(0.35757505 1.6063935e-10 0)
(0.35757505 -2.2615321e-10 0)
(0.35757505 1.6508281e-10 0)
(0.35757505 -2.3341052e-10 0)
(0.35757505 2.0908826e-10 0)
(0.35757505 -2.9928615e-10 0)
(0.35757505 3.0134057e-10 0)
(0.35757505 -5.0831695e-10 0)
(0.35757505 7.1557047e-10 0)
(0.35757505 -1.2048133e-09 0)
(0.35757506 2.0025009e-09 0)
(0.35757504 -3.3315634e-09 0)
(0.35757507 5.7665915e-09 0)
(0.35757503 -9.2568461e-09 0)
(0.3575751 1.5466407e-08 0)
(0.35757498 -2.4004297e-08 0)
(0.35757517 3.7610984e-08 0)
(0.35757486 -5.5758916e-08 0)
(0.35757535 8.0492386e-08 0)
(0.3575746 -1.1160372e-07 0)
(0.35757573 1.4576958e-07 0)
(0.35757407 -1.8189378e-07 0)
(0.35757642 2.0543725e-07 0)
(0.3575732 -2.1225822e-07 0)
(0.35757746 1.7316616e-07 0)
(0.357572 -8.9978848e-08 0)
(0.35757873 -7.6125157e-08 0)
(0.35757071 2.7502475e-07 0)
(0.35757987 -5.653675e-07 0)
(0.35756965 7.5236982e-07 0)
(0.35758059 -1.0152989e-06 0)
(0.35756885 8.3536532e-07 0)
(0.3575809 -8.8857337e-07 0)
(0.35756787 -7.046381e-09 0)
(0.35758063 -2.2967242e-07 0)
(0.35756616 -1.715388e-06 0)
(0.35757844 1.4016055e-07 0)
(0.35756342 -3.2668473e-06 0)
(0.35757181 -5.5543551e-07 0)
(0.35755863 -1.5807309e-06 0)
(0.35756397 -1.0935863e-06 0)
)
;

boundaryField
{
    top
    {
        type            fixedValue;
        value           uniform (0 0 0);
    }
    inlet
    {
        type            fixedValue;
        value           uniform (1 0 0);
    }
    outlet
    {
        type            zeroGradient;
    }
    bottom
    {
        type            fixedValue;
        value           uniform (0 0 0);
    }
    back
    {
        type            empty;
    }
    front
    {
        type            empty;
    }
}


// ************************************************************************* //
