/*--------------------------------*- C++ -*----------------------------------*\
| =========                 |                                                 |
| \\      /  F ield         | OpenFOAM: The Open Source CFD Toolbox           |
|  \\    /   O peration     | Version:  v1812                                 |
|   \\  /    A nd           | Web:      www.OpenFOAM.com                      |
|    \\/     M anipulation  |                                                 |
\*---------------------------------------------------------------------------*/
FoamFile
{
    version     2.0;
    format      ascii;
    class       volVectorField;
    location    "19.1";
    object      U;
}
// * * * * * * * * * * * * * * * * * * * * * * * * * * * * * * * * * * * * * //

dimensions      [0 1 -1 0 0 0 0];


internalField   nonuniform List<vector> 
1000
(
(0.91890839 0.035821912 0)
(0.86271384 0.062195638 0)
(0.7870597 0.062510089 0)
(0.69536033 0.054550394 0)
(0.61089745 0.04453165 0)
(0.54411592 0.034015971 0)
(0.49343012 0.02418754 0)
(0.45479414 0.01614423 0)
(0.42544583 0.010265786 0)
(0.40347313 0.0063041453 0)
(0.38715767 0.0037976293 0)
(0.3749622 0.0023103382 0)
(0.36566193 0.001493015 0)
(0.35836272 0.0010851183 0)
(0.35244268 0.00090607198 0)
(0.34748201 0.00084105104 0)
(0.34320348 0.00082372347 0)
(0.33942726 0.00081930988 0)
(0.33603793 0.00081185196 0)
(0.33296114 0.00079580153 0)
(0.33014778 0.0007708122 0)
(0.32756384 0.00073871018 0)
(0.3251842 0.00070188973 0)
(0.32298902 0.00066256561 0)
(0.32096172 0.00062249903 0)
(0.31908785 0.0005829564 0)
(0.31735449 0.00054477061 0)
(0.31574996 0.00050843327 0)
(0.3142636 0.00047419133 0)
(0.31288575 0.00044212469 0)
(0.31160756 0.00041221009 0)
(0.31042101 0.00038436244 0)
(0.30931883 0.00035846568 0)
(0.30829438 0.00033439065 0)
(0.30734165 0.00031200639 0)
(0.30645515 0.00029118669 0)
(0.30562991 0.00027181287 0)
(0.30486136 0.00025377538 0)
(0.30414535 0.00023697352 0)
(0.30347807 0.00022131463 0)
(0.30285601 0.00020671489 0)
(0.30227596 0.00019309669 0)
(0.30173497 0.00018038993 0)
(0.30123029 0.00016852985 0)
(0.30075942 0.00015745723 0)
(0.30032002 0.00014711818 0)
(0.29990993 0.00013746226 0)
(0.29952715 0.00012844399 0)
(0.29916983 0.00012002045 0)
(0.29883624 0.00011215131 0)
(0.29852479 0.00010480007 0)
(0.29823397 9.793115e-05 0)
(0.29796241 9.1512429e-05 0)
(0.29770883 8.5513708e-05 0)
(0.29747201 7.9906516e-05 0)
(0.29725084 7.4666004e-05 0)
(0.29704429 6.9767612e-05 0)
(0.29685137 6.5190842e-05 0)
(0.2966712 6.0914768e-05 0)
(0.29650291 5.6919806e-05 0)
(0.29634572 5.3187714e-05 0)
(0.2961989 4.9700054e-05 0)
(0.29606176 4.6440422e-05 0)
(0.29593366 4.3392893e-05 0)
(0.295814 4.0542947e-05 0)
(0.29570223 3.7878459e-05 0)
(0.29559783 3.5387617e-05 0)
(0.29550031 3.3060324e-05 0)
(0.29540922 3.0887973e-05 0)
(0.29532413 2.8859698e-05 0)
(0.29524465 2.6966795e-05 0)
(0.2951704 2.5198749e-05 0)
(0.29510104 2.3545419e-05 0)
(0.29503625 2.199832e-05 0)
(0.29497572 2.0549881e-05 0)
(0.29491918 1.9194125e-05 0)
(0.29486637 1.7927511e-05 0)
(0.29481705 1.6744387e-05 0)
(0.29477097 1.5643069e-05 0)
(0.29472793 1.4616426e-05 0)
(0.29468772 1.3660591e-05 0)
(0.29465016 1.2766825e-05 0)
(0.29461507 1.1930704e-05 0)
(0.29458229 1.1144676e-05 0)
(0.29455167 1.0407794e-05 0)
(0.29452308 9.7132525e-06 0)
(0.29449635 9.0725414e-06 0)
(0.29447142 8.4703333e-06 0)
(0.2944481 7.9182954e-06 0)
(0.29442633 7.396937e-06 0)
(0.29440598 6.9260966e-06 0)
(0.294387 6.4726689e-06 0)
(0.2943692 6.0618083e-06 0)
(0.29435259 5.6503871e-06 0)
(0.29433714 5.2891076e-06 0)
(0.29432249 4.9685691e-06 0)
(0.29430919 4.6878257e-06 0)
(0.29429569 4.5388764e-06 0)
(0.29428502 4.4056016e-06 0)
(0.29426874 5.0574917e-06 0)
(1.0016583 0.05381943 0)
(1.0359761 0.10128443 0)
(1.0597199 0.11073663 0)
(1.0628947 0.10592201 0)
(1.0515569 0.096228725 0)
(1.0340529 0.083934059 0)
(1.0142795 0.070327062 0)
(0.99360703 0.056981334 0)
(0.97292577 0.045107479 0)
(0.9531074 0.03523675 0)
(0.93479539 0.02740165 0)
(0.91829012 0.021387227 0)
(0.90362379 0.016884499 0)
(0.89068068 0.013569709 0)
(0.87928175 0.011147748 0)
(0.86923242 0.0093736578 0)
(0.86034424 0.0080569271 0)
(0.85244667 0.0070571265 0)
(0.84539242 0.0062752379 0)
(0.83905793 0.0056438286 0)
(0.83334127 0.0051180915 0)
(0.82815884 0.0046686728 0)
(0.82344213 0.0042764174 0)
(0.81913467 0.0039287383 0)
(0.81518962 0.0036172024 0)
(0.81156765 0.0033359687 0)
(0.80823544 0.0030808023 0)
(0.8051644 0.0028484673 0)
(0.80232979 0.0026363682 0)
(0.79971 0.002442338 0)
(0.79728598 0.0022645189 0)
(0.79504087 0.0021012905 0)
(0.79295963 0.0019512261 0)
(0.79102881 0.0018130636 0)
(0.78923628 0.0016856836 0)
(0.78757111 0.0015680917 0)
(0.78602339 0.0014594041 0)
(0.78458412 0.0013588338 0)
(0.78324512 0.0012656786 0)
(0.78199889 0.0011793105 0)
(0.78083861 0.0010991669 0)
(0.77975799 0.0010247419 0)
(0.77875128 0.00095557996 0)
(0.77781318 0.00089126953 0)
(0.77693882 0.00083143769 0)
(0.77612368 0.00077574638 0)
(0.77536363 0.00072388746 0)
(0.77465481 0.00067558003 0)
(0.77399368 0.00063056674 0)
(0.77337694 0.00058861074 0)
(0.77280154 0.00054949464 0)
(0.77226465 0.00051301733 0)
(0.77176364 0.00047899304 0)
(0.77129607 0.00044725065 0)
(0.77085967 0.00041763121 0)
(0.77045235 0.00038998936 0)
(0.77007212 0.00036418994 0)
(0.76971717 0.0003401095 0)
(0.76938581 0.00031763258 0)
(0.76907645 0.00029665116 0)
(0.76878761 0.00027706449 0)
(0.76851792 0.00025877779 0)
(0.7682661 0.00024170232 0)
(0.76803096 0.00022575575 0)
(0.76781139 0.00021086135 0)
(0.76760635 0.00019694922 0)
(0.76741489 0.00018395497 0)
(0.76723608 0.00017181925 0)
(0.7670691 0.00016048791 0)
(0.76691315 0.00014990811 0)
(0.76676752 0.00014003068 0)
(0.7666315 0.00013080686 0)
(0.76650447 0.00012219101 0)
(0.76638582 0.00011413977 0)
(0.76627501 0.00010661543 0)
(0.76617152 9.9582094e-05 0)
(0.76607486 9.301215e-05 0)
(0.76598458 8.6874624e-05 0)
(0.76590026 8.1148647e-05 0)
(0.76582151 7.5802635e-05 0)
(0.76574794 7.0817838e-05 0)
(0.76567924 6.6157778e-05 0)
(0.76561504 6.1808999e-05 0)
(0.76555512 5.7732663e-05 0)
(0.7654991 5.3930404e-05 0)
(0.76544684 5.035519e-05 0)
(0.76539796 4.7037961e-05 0)
(0.76535239 4.3921071e-05 0)
(0.7653097 4.1053472e-05 0)
(0.76526997 3.8323312e-05 0)
(0.76523272 3.5844612e-05 0)
(0.76519804 3.3463856e-05 0)
(0.76516555 3.1332183e-05 0)
(0.76513516 2.9189519e-05 0)
(0.76510713 2.7363943e-05 0)
(0.76507997 2.5517097e-05 0)
(0.76505663 2.4071347e-05 0)
(0.76503057 2.2554853e-05 0)
(0.76501445 2.1596896e-05 0)
(0.76498346 2.0993357e-05 0)
(1.0014244 0.026824854 0)
(1.0291272 0.06279135 0)
(1.0654292 0.077736549 0)
(1.098962 0.080597196 0)
(1.1253149 0.078285167 0)
(1.145053 0.073153897 0)
(1.1594858 0.066111277 0)
(1.1694287 0.058162063 0)
(1.1755354 0.050296754 0)
(1.1785738 0.043150707 0)
(1.1793571 0.036972824 0)
(1.178595 0.031771631 0)
(1.1768304 0.027451838 0)
(1.1744518 0.023886766 0)
(1.1717287 0.020947618 0)
(1.1688444 0.018515779 0)
(1.1659195 0.016488084 0)
(1.1630317 0.014779502 0)
(1.1602295 0.013322984 0)
(1.1575415 0.012067132 0)
(1.1549828 0.010973001 0)
(1.1525601 0.010011061 0)
(1.1502747 0.0091587462 0)
(1.1481246 0.0083986031 0)
(1.1461059 0.0077169491 0)
(1.1442134 0.0071028866 0)
(1.1424414 0.0065475904 0)
(1.1407838 0.0060437942 0)
(1.1392344 0.0055854252 0)
(1.1377869 0.0051673441 0)
(1.1364353 0.0047851569 0)
(1.1351738 0.0044350763 0)
(1.1339968 0.0041138168 0)
(1.1328987 0.0038185126 0)
(1.1318746 0.0035466523 0)
(1.1309195 0.003296026 0)
(1.1300289 0.0030646817 0)
(1.1291985 0.0028508892 0)
(1.1284242 0.002653109 0)
(1.1277022 0.0024699676 0)
(1.1270291 0.002300235 0)
(1.1264014 0.0021428069 0)
(1.1258161 0.0019966884 0)
(1.1252702 0.001860981 0)
(1.1247612 0.0017348713 0)
(1.1242865 0.0016176206 0)
(1.1238437 0.0015085568 0)
(1.1234307 0.0014070669 0)
(1.1230455 0.0013125902 0)
(1.1226861 0.0012246128 0)
(1.1223509 0.0011426631 0)
(1.1220381 0.0010663072 0)
(1.1217462 0.00099514529 0)
(1.1214739 0.00092880893 0)
(1.1212198 0.00086695829 0)
(1.1209827 0.00080927991 0)
(1.1207614 0.00075548465 0)
(1.1205548 0.00070530497 0)
(1.1203621 0.00065849251 0)
(1.1201821 0.00061481636 0)
(1.1200142 0.00057406206 0)
(1.1198574 0.00053602964 0)
(1.1197111 0.00050053326 0)
(1.1195745 0.00046740008 0)
(1.1194469 0.00043647033 0)
(1.1193278 0.00040759558 0)
(1.1192167 0.00038063891 0)
(1.1191129 0.00035547295 0)
(1.119016 0.00033197938 0)
(1.1189255 0.00031004618 0)
(1.118841 0.00028956945 0)
(1.1187621 0.00027044904 0)
(1.1186884 0.00025259406 0)
(1.1186197 0.00023591678 0)
(1.1185554 0.00022034115 0)
(1.1184954 0.00020579141 0)
(1.1184394 0.00019220588 0)
(1.1183871 0.000179517 0)
(1.1183383 0.00016767553 0)
(1.1182926 0.0001566139 0)
(1.11825 0.00014629411 0)
(1.1182103 0.00013664322 0)
(1.1181731 0.00012764303 0)
(1.1181384 0.00011921036 0)
(1.1181059 0.00011135881 0)
(1.1180757 0.00010398444 0)
(1.1180473 9.7152873e-05 0)
(1.1180211 9.0703952e-05 0)
(1.1179962 8.4785525e-05 0)
(1.1179734 7.9129054e-05 0)
(1.1179516 7.4028227e-05 0)
(1.1179318 6.9016544e-05 0)
(1.1179128 6.4661297e-05 0)
(1.1178955 6.0142082e-05 0)
(1.117879 5.6561956e-05 0)
(1.1178635 5.2424257e-05 0)
(1.11785 4.9743235e-05 0)
(1.1178349 4.5807815e-05 0)
(1.1178261 4.431948e-05 0)
(1.1178083 4.057466e-05 0)
(1.0007347 0.011814721 0)
(1.0178472 0.030860924 0)
(1.0462163 0.041434438 0)
(1.0799018 0.045193566 0)
(1.1132664 0.045502348 0)
(1.143782 0.044080305 0)
(1.1708941 0.04143998 0)
(1.1945687 0.037973676 0)
(1.2148582 0.034195728 0)
(1.2319652 0.030536886 0)
(1.2462683 0.027222043 0)
(1.2582339 0.024313918 0)
(1.2683135 0.021797886 0)
(1.2768875 0.019633657 0)
(1.2842554 0.017773824 0)
(1.2906479 0.01616965 0)
(1.296243 0.014775589 0)
(1.3011791 0.013552297 0)
(1.3055645 0.012467863 0)
(1.3094838 0.011497465 0)
(1.3130042 0.010622161 0)
(1.3161792 0.0098275121 0)
(1.3190526 0.0091024096 0)
(1.3216607 0.008438175 0)
(1.3240343 0.0078279021 0)
(1.3261995 0.007265973 0)
(1.3281786 0.0067477078 0)
(1.3299913 0.006269116 0)
(1.3316544 0.0058267268 0)
(1.3331829 0.0054174727 0)
(1.3345896 0.0050386117 0)
(1.3358862 0.0046876731 0)
(1.3370827 0.0043624186 0)
(1.3381883 0.0040608134 0)
(1.3392108 0.0037810028 0)
(1.3401576 0.0035212935 0)
(1.3410349 0.0032801372 0)
(1.3418486 0.0030561168 0)
(1.3426038 0.0028479338 0)
(1.3433051 0.0026543975 0)
(1.3439569 0.0024744158 0)
(1.3445629 0.0023069856 0)
(1.3451267 0.002151185 0)
(1.3456513 0.0020061657 0)
(1.3461398 0.0018711467 0)
(1.3465947 0.0017454085 0)
(1.3470185 0.0016282868 0)
(1.3474135 0.0015191686 0)
(1.3477816 0.0014174873 0)
(1.3481249 0.0013227191 0)
(1.3484449 0.0012343794 0)
(1.3487435 0.0011520192 0)
(1.349022 0.0010752226 0)
(1.3492818 0.0010036043 0)
(1.3495242 0.00093680698 0)
(1.3497505 0.00087449982 0)
(1.3499616 0.00081637556 0)
(1.3501587 0.00076214871 0)
(1.3503427 0.00071155331 0)
(1.3505145 0.0006643419 0)
(1.3506748 0.00062028447 0)
(1.3508245 0.00057916671 0)
(1.3509643 0.00054078969 0)
(1.3510948 0.00050496811 0)
(1.3512167 0.00047153046 0)
(1.3513305 0.00044031698 0)
(1.3514368 0.00041117945 0)
(1.3515361 0.00038397892 0)
(1.3516288 0.00035858662 0)
(1.3517153 0.00033488023 0)
(1.3517962 0.00031274678 0)
(1.3518717 0.00029207866 0)
(1.3519422 0.00027277935 0)
(1.3520081 0.00025475507 0)
(1.3520696 0.00023792566 0)
(1.3521271 0.00022220806 0)
(1.3521807 0.0002075355 0)
(1.3522309 0.00019383115 0)
(1.3522777 0.00018104238 0)
(1.3523215 0.00016909162 0)
(1.3523622 0.00015794137 0)
(1.3524005 0.00014750944 0)
(1.3524361 0.00013778735 0)
(1.3524695 0.00012867348 0)
(1.3525003 0.00012020206 0)
(1.3525296 0.000112239 0)
(1.3525565 0.00010488336 0)
(1.3525822 9.7900618e-05 0)
(1.3526053 9.1531278e-05 0)
(1.3526281 8.5399039e-05 0)
(1.352648 7.9933721e-05 0)
(1.3526684 7.4427374e-05 0)
(1.3526849 6.9800445e-05 0)
(1.3527036 6.4829546e-05 0)
(1.352717 6.1124601e-05 0)
(1.3527349 5.6440742e-05 0)
(1.3527446 5.3737249e-05 0)
(1.3527628 4.9141574e-05 0)
(1.3527683 4.7704891e-05 0)
(1.3527888 4.2957102e-05 0)
(1.0005903 0.0034629152 0)
(1.0136865 0.009366018 0)
(1.0370283 0.013046804 0)
(1.0674202 0.014563259 0)
(1.1000315 0.014854523 0)
(1.1316428 0.014564989 0)
(1.1610745 0.013888337 0)
(1.1880674 0.012919244 0)
(1.2125205 0.011806505 0)
(1.2343939 0.010696425 0)
(1.2538077 0.0096727405 0)
(1.2710339 0.0087628202 0)
(1.286401 0.0079659716 0)
(1.3002111 0.0072722127 0)
(1.3127102 0.006668807 0)
(1.3240903 0.0061419241 0)
(1.3345036 0.0056780713 0)
(1.3440716 0.0052653201 0)
(1.3528927 0.0048939341 0)
(1.3610463 0.0045563946 0)
(1.3685975 0.0042470685 0)
(1.3756004 0.0039617746 0)
(1.3821012 0.0036973963 0)
(1.3881402 0.003451581 0)
(1.3937533 0.003222517 0)
(1.3989728 0.0030087685 0)
(1.403828 0.002809157 0)
(1.4083456 0.0026226784 0)
(1.4125503 0.0024484489 0)
(1.4164646 0.0022856698 0)
(1.4201094 0.0021336065 0)
(1.423504 0.0019915752 0)
(1.426666 0.0018589352 0)
(1.4296121 0.0017350846 0)
(1.4323573 0.0016194571 0)
(1.4349159 0.00151152 0)
(1.4373007 0.0014107719 0)
(1.4395241 0.0013167417 0)
(1.441597 0.0012289864 0)
(1.4435301 0.0011470911 0)
(1.4453328 0.0010706666 0)
(1.4470143 0.00099934941 0)
(1.4485827 0.0009327992 0)
(1.4500459 0.000870698 0)
(1.451411 0.00081274869 0)
(1.4526846 0.00075867356 0)
(1.4538731 0.00070821297 0)
(1.4549822 0.00066112425 0)
(1.4560172 0.00061718112 0)
(1.4569831 0.00057617253 0)
(1.4578847 0.00053790106 0)
(1.4587262 0.00050218301 0)
(1.4595117 0.00046884698 0)
(1.460245 0.00043773349 0)
(1.4609295 0.00040869392 0)
(1.4615685 0.00038158981 0)
(1.4621651 0.00035629188 0)
(1.4627221 0.00033267881 0)
(1.4632422 0.0003106375 0)
(1.4637278 0.00029006212 0)
(1.4641811 0.00027085385 0)
(1.4646045 0.00025292122 0)
(1.4649998 0.00023617902 0)
(1.4653689 0.00022054804 0)
(1.4657136 0.0002059547 0)
(1.4660355 0.0001923305 0)
(1.4663361 0.00017961144 0)
(1.4666168 0.00016773687 0)
(1.466879 0.00015665058 0)
(1.4671238 0.00014629896 0)
(1.4673524 0.00013663213 0)
(1.467566 0.00012760332 0)
(1.4677654 0.00011917131 0)
(1.4679516 0.00011129605 0)
(1.4681255 0.00010394356 0)
(1.4682881 9.7078095e-05 0)
(1.4684398 9.0670509e-05 0)
(1.4685814 8.4685397e-05 0)
(1.4687138 7.9100219e-05 0)
(1.4688376 7.3878824e-05 0)
(1.4689529 6.900588e-05 0)
(1.4690607 6.4444159e-05 0)
(1.4691614 6.0195219e-05 0)
(1.4692558 5.6210284e-05 0)
(1.4693432 5.2512788e-05 0)
(1.4694256 4.9034138e-05 0)
(1.469502 4.5826358e-05 0)
(1.4695743 4.2771352e-05 0)
(1.46964 4.0000513e-05 0)
(1.4697037 3.7310866e-05 0)
(1.4697608 3.4925381e-05 0)
(1.4698173 3.2493722e-05 0)
(1.4698652 3.0493625e-05 0)
(1.4699166 2.8304511e-05 0)
(1.4699561 2.6726808e-05 0)
(1.4700045 2.4641347e-05 0)
(1.4700339 2.3487692e-05 0)
(1.4700831 2.1418589e-05 0)
(1.4701001 2.0812344e-05 0)
(1.4701557 1.8650109e-05 0)
(1.0005903 -0.0034629162 0)
(1.0136865 -0.0093660206 0)
(1.0370283 -0.013046807 0)
(1.0674202 -0.014563262 0)
(1.1000315 -0.014854525 0)
(1.1316428 -0.014564991 0)
(1.1610745 -0.013888338 0)
(1.1880674 -0.012919246 0)
(1.2125205 -0.011806507 0)
(1.2343939 -0.010696428 0)
(1.2538077 -0.0096727436 0)
(1.2710339 -0.0087628233 0)
(1.286401 -0.0079659746 0)
(1.3002111 -0.0072722154 0)
(1.3127102 -0.0066688093 0)
(1.3240903 -0.006141926 0)
(1.3345036 -0.0056780729 0)
(1.3440716 -0.0052653217 0)
(1.3528927 -0.0048939358 0)
(1.3610463 -0.0045563966 0)
(1.3685975 -0.0042470706 0)
(1.3756004 -0.0039617766 0)
(1.3821012 -0.0036973984 0)
(1.3881402 -0.0034515836 0)
(1.3937533 -0.0032225198 0)
(1.3989728 -0.003008771 0)
(1.403828 -0.0028091588 0)
(1.4083456 -0.0026226798 0)
(1.4125503 -0.00244845 0)
(1.4164646 -0.0022856709 0)
(1.4201094 -0.0021336076 0)
(1.423504 -0.0019915764 0)
(1.426666 -0.0018589367 0)
(1.4296121 -0.0017350869 0)
(1.4323573 -0.0016194602 0)
(1.4349158 -0.0015115232 0)
(1.4373007 -0.0014107744 0)
(1.439524 -0.0013167428 0)
(1.441597 -0.0012289862 0)
(1.4435301 -0.00114709 0)
(1.4453328 -0.0010706659 0)
(1.4470143 -0.00099934993 0)
(1.4485827 -0.0009328013 0)
(1.4500459 -0.00087070146 0)
(1.451411 -0.00081275266 0)
(1.4526846 -0.00075867694 0)
(1.4538731 -0.00070821494 0)
(1.4549821 -0.00066112468 0)
(1.4560171 -0.00061718009 0)
(1.4569831 -0.0005761703 0)
(1.4578847 -0.00053789881 0)
(1.4587262 -0.000502182 0)
(1.4595117 -0.00046884814 0)
(1.460245 -0.00043773695 0)
(1.4609295 -0.00040869891 0)
(1.4615685 -0.00038159488 0)
(1.4621651 -0.00035629521 0)
(1.4627221 -0.00033267948 0)
(1.4632422 -0.00031063512 0)
(1.4637278 -0.00029005733 0)
(1.4641811 -0.00027084846 0)
(1.4646045 -0.00025291707 0)
(1.4649998 -0.00023617737 0)
(1.4653689 -0.00022054922 0)
(1.4657136 -0.00020595824 0)
(1.4660355 -0.00019233466 0)
(1.4663361 -0.00017961398 0)
(1.4666168 -0.00016773638 0)
(1.466879 -0.00015664634 0)
(1.4671238 -0.00014629162 0)
(1.4673524 -0.00013662451 0)
(1.467566 -0.00012759837 0)
(1.4677654 -0.00011917079 0)
(1.4679516 -0.00011129992 0)
(1.4681255 -0.0001039499 0)
(1.4682881 -9.7083267e-05 0)
(1.4684398 -9.0671684e-05 0)
(1.4685814 -8.4682113e-05 0)
(1.4687138 -7.9092913e-05 0)
(1.4688376 -7.3870079e-05 0)
(1.4689529 -6.9000503e-05 0)
(1.4690607 -6.4444926e-05 0)
(1.4691615 -6.0200531e-05 0)
(1.4692558 -5.6217863e-05 0)
(1.4693432 -5.2518448e-05 0)
(1.4694256 -4.903599e-05 0)
(1.469502 -4.5822982e-05 0)
(1.4695742 -4.276105e-05 0)
(1.46964 -3.9983515e-05 0)
(1.4697037 -3.7298675e-05 0)
(1.4697608 -3.4931732e-05 0)
(1.4698173 -3.2515568e-05 0)
(1.4698652 -3.0514059e-05 0)
(1.4699166 -2.8304175e-05 0)
(1.4699561 -2.6705587e-05 0)
(1.4700046 -2.4624166e-05 0)
(1.470034 -2.3492719e-05 0)
(1.4700831 -2.1430112e-05 0)
(1.4701001 -2.0821401e-05 0)
(1.4701557 -1.8662426e-05 0)
(1.0007347 -0.011814722 0)
(1.0178472 -0.030860927 0)
(1.0462163 -0.041434442 0)
(1.0799018 -0.04519357 0)
(1.1132664 -0.045502351 0)
(1.143782 -0.044080308 0)
(1.1708941 -0.041439982 0)
(1.1945687 -0.037973678 0)
(1.2148582 -0.03419573 0)
(1.2319652 -0.030536888 0)
(1.2462683 -0.027222046 0)
(1.2582339 -0.024313921 0)
(1.2683135 -0.021797889 0)
(1.2768875 -0.01963366 0)
(1.2842554 -0.017773826 0)
(1.2906479 -0.016169652 0)
(1.296243 -0.01477559 0)
(1.3011791 -0.013552298 0)
(1.3055645 -0.012467864 0)
(1.3094838 -0.011497466 0)
(1.3130042 -0.010622162 0)
(1.3161792 -0.0098275134 0)
(1.3190526 -0.0091024113 0)
(1.3216607 -0.0084381772 0)
(1.3240343 -0.0078279045 0)
(1.3261995 -0.0072659751 0)
(1.3281786 -0.0067477093 0)
(1.3299913 -0.0062691171 0)
(1.3316544 -0.0058267277 0)
(1.3331829 -0.0054174735 0)
(1.3345896 -0.0050386124 0)
(1.3358862 -0.0046876739 0)
(1.3370827 -0.0043624199 0)
(1.3381882 -0.0040608153 0)
(1.3392108 -0.0037810052 0)
(1.3401576 -0.0035212959 0)
(1.3410349 -0.0032801391 0)
(1.3418486 -0.0030561177 0)
(1.3426038 -0.0028479337 0)
(1.3433051 -0.0026543971 0)
(1.3439569 -0.0024744156 0)
(1.3445629 -0.0023069862 0)
(1.3451267 -0.0021511865 0)
(1.3456513 -0.002006168 0)
(1.3461398 -0.0018711494 0)
(1.3465947 -0.0017454108 0)
(1.3470185 -0.0016282884 0)
(1.3474135 -0.0015191691 0)
(1.3477816 -0.0014174869 0)
(1.3481249 -0.0013227182 0)
(1.3484449 -0.0012343786 0)
(1.3487435 -0.0011520191 0)
(1.349022 -0.0010752236 0)
(1.3492818 -0.0010036064 0)
(1.3495242 -0.00093680989 0)
(1.3497505 -0.00087450275 0)
(1.3499616 -0.00081637774 0)
(1.3501587 -0.00076214923 0)
(1.3503427 -0.00071155189 0)
(1.3505145 -0.00066433889 0)
(1.3506748 -0.00062028067 0)
(1.3508245 -0.00057916333 0)
(1.3509643 -0.00054078775 0)
(1.3510948 -0.00050496831 0)
(1.3512167 -0.0004715325 0)
(1.3513305 -0.00044031979 0)
(1.3514368 -0.00041118167 0)
(1.3515361 -0.00038397928 0)
(1.3516288 -0.00035858444 0)
(1.3517153 -0.00033487596 0)
(1.3517962 -0.00031274201 0)
(1.3518717 -0.00029207515 0)
(1.3519422 -0.0002727782 0)
(1.3520081 -0.00025475674 0)
(1.3520696 -0.00023792879 0)
(1.3521271 -0.00022221107 0)
(1.3521807 -0.00020753735 0)
(1.3522309 -0.00019383093 0)
(1.3522777 -0.00018103975 0)
(1.3523215 -0.00016908744 0)
(1.3523622 -0.00015793804 0)
(1.3524005 -0.0001475084 0)
(1.3524361 -0.0001377881 0)
(1.3524695 -0.00012867557 0)
(1.3525003 -0.0001202066 0)
(1.3525296 -0.00011224279 0)
(1.3525565 -0.00010488128 0)
(1.3525822 -9.789368e-05 0)
(1.3526053 -9.1528136e-05 0)
(1.3526282 -8.5397746e-05 0)
(1.352648 -7.9929975e-05 0)
(1.3526683 -7.4429735e-05 0)
(1.3526849 -6.9807833e-05 0)
(1.3527037 -6.483033e-05 0)
(1.3527171 -6.1119424e-05 0)
(1.3527349 -5.6442518e-05 0)
(1.3527446 -5.3745823e-05 0)
(1.3527628 -4.9143316e-05 0)
(1.3527683 -4.7704782e-05 0)
(1.3527888 -4.2960837e-05 0)
(1.0014244 -0.026824855 0)
(1.0291272 -0.062791352 0)
(1.0654292 -0.077736552 0)
(1.098962 -0.0805972 0)
(1.1253149 -0.07828517 0)
(1.145053 -0.073153899 0)
(1.1594858 -0.066111278 0)
(1.1694287 -0.058162063 0)
(1.1755354 -0.050296754 0)
(1.1785738 -0.043150708 0)
(1.1793571 -0.036972825 0)
(1.1785949 -0.031771633 0)
(1.1768304 -0.02745184 0)
(1.1744518 -0.023886768 0)
(1.1717287 -0.02094762 0)
(1.1688444 -0.01851578 0)
(1.1659195 -0.016488084 0)
(1.1630317 -0.014779502 0)
(1.1602295 -0.013322985 0)
(1.1575415 -0.012067133 0)
(1.1549828 -0.010973001 0)
(1.1525601 -0.010011062 0)
(1.1502747 -0.0091587472 0)
(1.1481246 -0.0083986045 0)
(1.1461059 -0.0077169507 0)
(1.1442134 -0.0071028881 0)
(1.1424414 -0.0065475916 0)
(1.1407838 -0.006043795 0)
(1.1392344 -0.0055854258 0)
(1.1377869 -0.0051673446 0)
(1.1364353 -0.0047851573 0)
(1.1351738 -0.0044350767 0)
(1.1339968 -0.0041138176 0)
(1.1328987 -0.0038185136 0)
(1.1318746 -0.0035466535 0)
(1.1309195 -0.0032960274 0)
(1.1300289 -0.0030646831 0)
(1.1291985 -0.0028508903 0)
(1.1284242 -0.0026531098 0)
(1.1277022 -0.0024699681 0)
(1.1270291 -0.0023002353 0)
(1.1264014 -0.002142807 0)
(1.1258161 -0.0019966887 0)
(1.1252702 -0.0018609816 0)
(1.1247612 -0.0017348722 0)
(1.1242865 -0.0016176218 0)
(1.1238437 -0.0015085582 0)
(1.1234307 -0.0014070681 0)
(1.1230455 -0.001312591 0)
(1.1226861 -0.0012246136 0)
(1.1223509 -0.0011426636 0)
(1.1220381 -0.0010663074 0)
(1.1217462 -0.0009951452 0)
(1.1214739 -0.00092880869 0)
(1.1212198 -0.0008669582 0)
(1.1209827 -0.00080928045 0)
(1.1207614 -0.00075548594 0)
(1.1205548 -0.00070530628 0)
(1.1203621 -0.00065849314 0)
(1.1201821 -0.00061481614 0)
(1.1200142 -0.00057406071 0)
(1.1198574 -0.00053602732 0)
(1.1197111 -0.00050053077 0)
(1.1195745 -0.00046739842 0)
(1.1194469 -0.00043646977 0)
(1.1193278 -0.00040759614 0)
(1.1192167 -0.00038064049 0)
(1.1191129 -0.0003554747 0)
(1.119016 -0.00033198056 0)
(1.1189255 -0.00031004654 0)
(1.118841 -0.00028956842 0)
(1.1187621 -0.00027044678 0)
(1.1186884 -0.00025259128 0)
(1.1186197 -0.00023591438 0)
(1.1185554 -0.00022033993 0)
(1.1184954 -0.00020579206 0)
(1.1184394 -0.0001922089 0)
(1.1183871 -0.00017952125 0)
(1.1183383 -0.00016767924 0)
(1.1182927 -0.00015661534 0)
(1.11825 -0.00014629241 0)
(1.1182103 -0.00013663907 0)
(1.1181731 -0.00012763767 0)
(1.1181384 -0.00011920583 0)
(1.1181059 -0.00011135938 0)
(1.1180757 -0.00010398912 0)
(1.1180473 -9.7155939e-05 0)
(1.1180211 -9.0705214e-05 0)
(1.1179963 -8.479217e-05 0)
(1.1179734 -7.9137824e-05 0)
(1.1179516 -7.4019859e-05 0)
(1.1179318 -6.8990583e-05 0)
(1.1179128 -6.4647935e-05 0)
(1.1178955 -6.0157139e-05 0)
(1.117879 -5.6583881e-05 0)
(1.1178635 -5.2431804e-05 0)
(1.11785 -4.9737862e-05 0)
(1.1178349 -4.5800602e-05 0)
(1.1178261 -4.4314105e-05 0)
(1.1178083 -4.0570249e-05 0)
(1.0016583 -0.05381943 0)
(1.0359761 -0.10128444 0)
(1.0597199 -0.11073663 0)
(1.0628947 -0.10592202 0)
(1.0515569 -0.096228728 0)
(1.0340529 -0.083934061 0)
(1.0142795 -0.070327063 0)
(0.99360703 -0.056981334 0)
(0.97292577 -0.045107479 0)
(0.9531074 -0.03523675 0)
(0.93479538 -0.02740165 0)
(0.91829012 -0.021387228 0)
(0.90362379 -0.0168845 0)
(0.89068067 -0.01356971 0)
(0.87928174 -0.011147749 0)
(0.86923242 -0.0093736586 0)
(0.86034423 -0.0080569274 0)
(0.85244667 -0.0070571267 0)
(0.84539241 -0.006275238 0)
(0.83905793 -0.0056438286 0)
(0.83334126 -0.0051180914 0)
(0.82815884 -0.0046686728 0)
(0.82344212 -0.0042764176 0)
(0.81913467 -0.0039287387 0)
(0.81518961 -0.0036172031 0)
(0.81156765 -0.0033359698 0)
(0.80823544 -0.0030808033 0)
(0.8051644 -0.0028484682 0)
(0.80232979 -0.0026363689 0)
(0.79970999 -0.0024423385 0)
(0.79728597 -0.0022645191 0)
(0.79504086 -0.0021012904 0)
(0.79295963 -0.0019512259 0)
(0.7910288 -0.0018130634 0)
(0.78923627 -0.0016856836 0)
(0.7875711 -0.0015680924 0)
(0.78602338 -0.0014594054 0)
(0.78458411 -0.0013588354 0)
(0.78324511 -0.0012656801 0)
(0.78199889 -0.0011793116 0)
(0.7808386 -0.0010991673 0)
(0.77975798 -0.0010247416 0)
(0.77875127 -0.00095557921 0)
(0.77781317 -0.00089126868 0)
(0.77693881 -0.00083143731 0)
(0.77612368 -0.00077574668 0)
(0.77536362 -0.00072388853 0)
(0.77465481 -0.00067558162 0)
(0.77399367 -0.00063056855 0)
(0.77337693 -0.00058861264 0)
(0.77280153 -0.00054949588 0)
(0.77226464 -0.00051301739 0)
(0.77176363 -0.00047899191 0)
(0.77129606 -0.00044724832 0)
(0.77085966 -0.00041762886 0)
(0.77045234 -0.00038998796 0)
(0.77007211 -0.00036419059 0)
(0.76971717 -0.00034011168 0)
(0.76938581 -0.00031763542 0)
(0.76907644 -0.00029665378 0)
(0.7687876 -0.00027706569 0)
(0.76851791 -0.00025877684 0)
(0.76826609 -0.00024169961 0)
(0.76803095 -0.00022575194 0)
(0.76781139 -0.00021085782 0)
(0.76760635 -0.00019694718 0)
(0.76741488 -0.00018395545 0)
(0.76723608 -0.00017182253 0)
(0.7670691 -0.00016049276 0)
(0.76691316 -0.000149913 0)
(0.76676752 -0.00014003339 0)
(0.7666315 -0.00013080583 0)
(0.76650446 -0.00012218664 0)
(0.76638582 -0.00011413341 0)
(0.76627501 -0.00010660979 0)
(0.76617152 -9.957997e-05 0)
(0.76607486 -9.3014834e-05 0)
(0.76598459 -8.6881947e-05 0)
(0.76590026 -8.1157567e-05 0)
(0.76582151 -7.5809216e-05 0)
(0.76574794 -7.0818982e-05 0)
(0.76567924 -6.615272e-05 0)
(0.76561504 -6.1799787e-05 0)
(0.76555512 -5.7722323e-05 0)
(0.76549911 -5.3925571e-05 0)
(0.76544685 -5.0358125e-05 0)
(0.76539796 -4.7044e-05 0)
(0.76535239 -4.3930119e-05 0)
(0.76530971 -4.1069296e-05 0)
(0.76526996 -3.8332692e-05 0)
(0.7652327 -3.5828611e-05 0)
(0.76519805 -3.3433252e-05 0)
(0.76516558 -3.1318447e-05 0)
(0.76513517 -2.9204058e-05 0)
(0.7651071 -2.7385936e-05 0)
(0.76507997 -2.5524492e-05 0)
(0.76505664 -2.4063787e-05 0)
(0.76503057 -2.254512e-05 0)
(0.76501445 -2.1587801e-05 0)
(0.76498346 -2.0984963e-05 0)
(0.91890839 -0.035821913 0)
(0.86271384 -0.062195638 0)
(0.7870597 -0.06251009 0)
(0.69536033 -0.054550395 0)
(0.61089745 -0.044531651 0)
(0.54411592 -0.034015972 0)
(0.49343012 -0.02418754 0)
(0.45479413 -0.01614423 0)
(0.42544582 -0.010265785 0)
(0.40347313 -0.006304145 0)
(0.38715766 -0.0037976294 0)
(0.3749622 -0.0023103384 0)
(0.36566192 -0.0014930154 0)
(0.35836272 -0.0010851186 0)
(0.35244268 -0.0009060723 0)
(0.34748201 -0.00084105135 0)
(0.34320348 -0.00082372362 0)
(0.33942726 -0.00081931007 0)
(0.33603793 -0.00081185199 0)
(0.33296114 -0.00079580153 0)
(0.33014778 -0.00077081194 0)
(0.32756384 -0.00073870994 0)
(0.3251842 -0.00070188955 0)
(0.32298902 -0.00066256563 0)
(0.32096172 -0.00062249931 0)
(0.31908785 -0.00058295704 0)
(0.31735449 -0.00054477116 0)
(0.31574995 -0.00050843392 0)
(0.3142636 -0.00047419168 0)
(0.31288574 -0.00044212494 0)
(0.31160755 -0.0004122099 0)
(0.31042101 -0.00038436204 0)
(0.30931883 -0.00035846518 0)
(0.30829438 -0.00033439021 0)
(0.30734165 -0.00031200633 0)
(0.30645515 -0.00029118713 0)
(0.30562991 -0.00027181379 0)
(0.30486136 -0.00025377647 0)
(0.30414535 -0.00023697439 0)
(0.30347807 -0.00022131525 0)
(0.302856 -0.00020671481 0)
(0.30227596 -0.0001930962 0)
(0.30173496 -0.00018038905 0)
(0.30123029 -0.00016852894 0)
(0.30075942 -0.00015745675 0)
(0.30032002 -0.00014711816 0)
(0.29990993 -0.00013746305 0)
(0.29952715 -0.00012844522 0)
(0.29916983 -0.0001200218 0)
(0.29883624 -0.00011215268 0)
(0.29852478 -0.00010480054 0)
(0.29823396 -9.7930735e-05 0)
(0.29796241 -9.1511063e-05 0)
(0.29770882 -8.5511628e-05 0)
(0.29747201 -7.9904861e-05 0)
(0.29725084 -7.4665174e-05 0)
(0.29704429 -6.976858e-05 0)
(0.29685138 -6.5192821e-05 0)
(0.2966712 -6.0917178e-05 0)
(0.29650291 -5.6921939e-05 0)
(0.29634572 -5.3188425e-05 0)
(0.2961989 -4.969923e-05 0)
(0.29606176 -4.6438101e-05 0)
(0.29593366 -4.3389752e-05 0)
(0.29581401 -4.0540304e-05 0)
(0.29570224 -3.7877171e-05 0)
(0.29559784 -3.5388628e-05 0)
(0.29550032 -3.3063698e-05 0)
(0.29540922 -3.0892055e-05 0)
(0.29532413 -2.8863458e-05 0)
(0.29524464 -2.6968225e-05 0)
(0.29517039 -2.5197011e-05 0)
(0.29510103 -2.3541364e-05 0)
(0.29503624 -2.1993212e-05 0)
(0.29497572 -2.0546081e-05 0)
(0.29491919 -1.9193523e-05 0)
(0.29486638 -1.7930363e-05 0)
(0.29481705 -1.6750429e-05 0)
(0.29477097 -1.5649368e-05 0)
(0.29472793 -1.4620424e-05 0)
(0.29468771 -1.3660385e-05 0)
(0.29465016 -1.276207e-05 0)
(0.29461507 -1.1923778e-05 0)
(0.2945823 -1.1137523e-05 0)
(0.29455168 -1.0405469e-05 0)
(0.29452309 -9.7161752e-06 0)
(0.29449637 -9.0770762e-06 0)
(0.29447142 -8.4790008e-06 0)
(0.29444808 -7.9300709e-06 0)
(0.29442632 -7.3961074e-06 0)
(0.29440599 -6.9097694e-06 0)
(0.294387 -6.4602698e-06 0)
(0.2943692 -6.0628278e-06 0)
(0.29435259 -5.6566083e-06 0)
(0.29433715 -5.293736e-06 0)
(0.2943225 -4.9716156e-06 0)
(0.29430919 -4.6856432e-06 0)
(0.29429569 -4.5322788e-06 0)
(0.29428502 -4.4001451e-06 0)
(0.29426875 -5.0536101e-06 0)
)
;

boundaryField
{
    top
    {
        type            fixedValue;
        value           uniform (0 0 0);
    }
    inlet
    {
        type            fixedValue;
        value           uniform (1 0 0);
    }
    outlet
    {
        type            zeroGradient;
    }
    bottom
    {
        type            fixedValue;
        value           uniform (0 0 0);
    }
    back
    {
        type            empty;
    }
    front
    {
        type            empty;
    }
}


// ************************************************************************* //
