/*--------------------------------*- C++ -*----------------------------------*\
| =========                 |                                                 |
| \\      /  F ield         | OpenFOAM: The Open Source CFD Toolbox           |
|  \\    /   O peration     | Version:  v1812                                 |
|   \\  /    A nd           | Web:      www.OpenFOAM.com                      |
|    \\/     M anipulation  |                                                 |
\*---------------------------------------------------------------------------*/
FoamFile
{
    version     2.0;
    format      ascii;
    class       volScalarField;
    location    "40";
    object      p;
}
// * * * * * * * * * * * * * * * * * * * * * * * * * * * * * * * * * * * * * //

dimensions      [0 2 -2 0 0 0 0];


internalField   nonuniform List<scalar> 
1000
(
1.7539825
1.6238278
1.5331637
1.4749829
1.4253791
1.3808421
1.3425589
1.3100673
1.2821117
1.2575277
1.2353851
1.2150058
1.1958732
1.1776257
1.1600114
1.1428577
1.126057
1.1095513
1.0933168
1.0773482
1.0616497
1.0462282
1.03109
1.0162381
1.0016688
0.98737013
0.97332105
0.95949256
0.94585011
0.93235677
0.91897647
0.90567663
0.89242988
0.87921479
0.86601575
0.85282227
0.83962801
0.8264297
0.8132261
0.80001729
0.78680396
0.77358707
0.76036758
0.7471463
0.73392388
0.72070079
0.70747734
0.69425374
0.68103009
0.66780646
0.65458287
0.64135932
0.62813581
0.61491234
0.60168888
0.58846544
0.57524201
0.56201859
0.54879516
0.53557175
0.52234831
0.50912491
0.49590146
0.48267808
0.46945459
0.45623126
0.44300771
0.42978445
0.41656081
0.40333764
0.39011392
0.37689083
0.36366706
0.35044396
0.33722025
0.32399705
0.31077346
0.29755017
0.28432659
0.27110342
0.25787956
0.24465682
0.23143244
0.21821029
0.20498537
0.19176382
0.17853837
0.16531759
0.15209169
0.13887177
0.12564645
0.11242673
0.099205099
0.085984695
0.072773442
0.059551275
0.046364956
0.033136392
0.019977612
0.006718367
1.6304374
1.5640191
1.5055947
1.4612109
1.4193431
1.3797143
1.3443476
1.3133108
1.2857929
1.2610179
1.2384028
1.2175029
1.1979524
1.1794105
1.1615731
1.1442134
1.1272011
1.1104855
1.0940601
1.0779325
1.062109
1.0465914
1.0313782
1.0164655
1.0018454
0.98750404
0.97341951
0.95956248
0.94589792
0.93238817
0.91899621
0.90568844
0.89243654
0.87921823
0.86601728
0.85282273
0.83962791
0.82642934
0.81322566
0.80001685
0.78680357
0.77358674
0.76036731
0.74714609
0.73392373
0.72070068
0.70747727
0.69425369
0.68103006
0.66780645
0.65458286
0.64135932
0.62813582
0.61491234
0.60168889
0.58846545
0.57524201
0.56201859
0.54879516
0.53557176
0.52234831
0.50912493
0.49590144
0.48267811
0.46945454
0.45623132
0.44300762
0.42978456
0.41656067
0.40333781
0.39011374
0.376891
0.3636669
0.35044409
0.33722016
0.32399711
0.31077342
0.29755022
0.28432647
0.27110365
0.25787917
0.24465738
0.2314317
0.21821116
0.20498428
0.19176498
0.17853681
0.16531907
0.1520895
0.13887311
0.12564385
0.11242649
0.099202558
0.085980451
0.072773974
0.059542914
0.046398787
0.033174915
0.020251372
0.0069156773
1.5678967
1.5394407
1.5013937
1.4645108
1.4272121
1.3903013
1.3556581
1.3238773
1.2947374
1.2679614
1.2434254
1.2210415
1.2005672
1.1815527
1.163476
1.1459231
1.1286773
1.1116901
1.0949972
1.0786446
1.0626546
1.0470248
1.031739
1.0167774
1.00212
0.98774547
0.97362878
0.95973981
0.9460441
0.93250499
0.91908643
0.90575553
0.89248433
0.87925062
0.86603791
0.8528348
0.83963408
0.8264317
0.81322577
0.80001579
0.78680205
0.77358518
0.76036593
0.74714498
0.7339229
0.7207001
0.70747688
0.69425345
0.68102993
0.66780638
0.65458284
0.64135932
0.62813583
0.61491236
0.6016889
0.58846546
0.57524203
0.56201861
0.54879516
0.53557177
0.5223483
0.50912495
0.49590141
0.48267815
0.4694545
0.45623139
0.44300754
0.42978467
0.41656055
0.40333794
0.39011361
0.37689112
0.3636668
0.35044415
0.33722013
0.3239971
0.31077342
0.29755025
0.28432634
0.27110388
0.25787877
0.24465788
0.23143097
0.21821189
0.20498313
0.19176591
0.17853484
0.1653201
0.1520859
0.13887339
0.12563683
0.11242352
0.099187056
0.085967856
0.072737959
0.059505564
0.046321213
0.033089075
0.020105241
0.006789344
1.5388198
1.5226466
1.4937247
1.4614901
1.4278458
1.3937374
1.360669
1.3293816
1.2999178
1.2723089
1.2468133
1.2236724
1.2027798
1.1836171
1.1654911
1.1478414
1.130396
1.1131337
1.0961516
1.0795482
1.0633702
1.0476137
1.0322466
1.0172303
1.0025294
0.98811331
0.97395277
0.9600173
0.94627408
0.93268883
0.91922777
0.90585969
0.89255754
0.8792993
0.8660681
0.85285179
0.83964219
0.82643425
0.81322517
0.80001367
0.78679944
0.77358267
0.7603638
0.74714332
0.73392169
0.72069927
0.70747635
0.69425314
0.68102976
0.6678063
0.65458282
0.64135933
0.62813585
0.61491239
0.60168893
0.58846549
0.57524204
0.56201862
0.54879517
0.53557178
0.5223483
0.50912496
0.4959014
0.48267817
0.46945447
0.45623143
0.4430075
0.42978471
0.4165605
0.40333799
0.39011357
0.37689116
0.36366678
0.35044416
0.33722013
0.3239971
0.3107734
0.2975503
0.28432624
0.271104
0.25787855
0.24465807
0.23143061
0.21821212
0.20498242
0.1917662
0.17853316
0.16532034
0.15208188
0.13887286
0.12562668
0.11241989
0.099159495
0.085952158
0.072658853
0.059439417
0.04607168
0.03280264
0.019290466
0.0061662326
1.5258156
1.5134387
1.4890973
1.4598783
1.4284573
1.3959963
1.3638715
1.3328641
1.3031607
1.275002
1.2488957
1.2252824
1.2041322
1.1848811
1.166731
1.1490319
1.1314761
1.1140569
1.0969075
1.080158
1.0638703
1.0480393
1.0326233
1.0175718
1.0028402
0.98839253
0.97419756
0.96022537
0.94644489
0.93282389
0.91933036
0.90593429
0.89260921
0.87933309
0.86608863
0.85286301
0.83964726
0.82643557
0.81322442
0.800012
0.78679752
0.77358089
0.76036232
0.74714219
0.73392088
0.72069873
0.70747602
0.69425295
0.68102967
0.66780627
0.65458282
0.64135935
0.62813588
0.61491242
0.60168895
0.58846551
0.57524206
0.56201864
0.54879518
0.53557179
0.5223483
0.50912497
0.4959014
0.48267818
0.46945446
0.45623144
0.44300748
0.42978473
0.41656048
0.40333801
0.39011355
0.37689117
0.36366677
0.35044416
0.33722014
0.3239971
0.3107734
0.29755031
0.28432621
0.27110403
0.25787849
0.24465808
0.23143051
0.21821209
0.20498215
0.19176614
0.17853232
0.16532015
0.15207947
0.13887215
0.12561975
0.11241717
0.099138941
0.085940621
0.07259457
0.059385276
0.045852886
0.032550483
0.018557196
0.0056097167
1.5258156
1.5134387
1.4890973
1.4598783
1.4284573
1.3959964
1.3638715
1.3328641
1.3031607
1.275002
1.2488958
1.2252825
1.2041323
1.1848811
1.1667311
1.1490319
1.1314761
1.1140569
1.0969075
1.0801581
1.0638703
1.0480394
1.0326233
1.0175719
1.0028403
0.98839261
0.97419765
0.96022546
0.94644498
0.93282398
0.91933045
0.90593438
0.8926093
0.87933317
0.86608871
0.85286308
0.83964734
0.82643564
0.81322449
0.80001206
0.78679758
0.77358095
0.76036238
0.74714225
0.73392093
0.72069878
0.70747606
0.69425299
0.6810297
0.6678063
0.65458285
0.64135938
0.6281359
0.61491243
0.60168897
0.58846552
0.57524207
0.56201865
0.54879519
0.5355718
0.52234831
0.50912497
0.4959014
0.48267819
0.46945446
0.45623144
0.44300748
0.42978473
0.41656048
0.40333801
0.39011355
0.37689117
0.36366677
0.35044416
0.33722014
0.3239971
0.3107734
0.2975503
0.28432621
0.27110403
0.25787849
0.24465808
0.23143052
0.21821209
0.20498215
0.19176614
0.17853232
0.16532015
0.15207947
0.13887215
0.12561975
0.11241717
0.099138942
0.08594062
0.072594568
0.059385273
0.045852884
0.032550483
0.018557196
0.0056097174
1.5388199
1.5226466
1.4937247
1.4614901
1.4278458
1.3937374
1.3606691
1.3293817
1.2999179
1.272309
1.2468134
1.2236725
1.2027799
1.1836172
1.1654912
1.1478416
1.1303962
1.1131339
1.0961518
1.0795484
1.0633704
1.0476139
1.0322468
1.0172305
1.0025297
0.98811356
0.97395302
0.96001755
0.94627433
0.93268909
0.91922803
0.90585994
0.89255779
0.87929955
0.86606834
0.85285201
0.83964241
0.82643446
0.81322537
0.80001386
0.78679962
0.77358285
0.76036397
0.74714348
0.73392183
0.7206994
0.70747647
0.69425325
0.68102986
0.6678064
0.6545829
0.6413594
0.62813592
0.61491244
0.60168898
0.58846553
0.57524208
0.56201865
0.5487952
0.5355718
0.52234831
0.50912497
0.49590141
0.48267818
0.46945448
0.45623143
0.4430075
0.42978472
0.4165605
0.40333799
0.39011357
0.37689116
0.36366678
0.35044416
0.33722013
0.3239971
0.3107734
0.2975503
0.28432624
0.27110401
0.25787855
0.24465807
0.23143061
0.21821212
0.20498242
0.1917662
0.17853316
0.16532033
0.15208188
0.13887286
0.12562668
0.11241989
0.099159497
0.085952155
0.072658849
0.05943941
0.046071675
0.032802639
0.019290469
0.0061662344
1.5678967
1.5394408
1.5013938
1.4645108
1.4272122
1.3903013
1.3556582
1.3238774
1.2947376
1.2679616
1.2434256
1.2210418
1.2005674
1.1815529
1.1634762
1.1459234
1.1286775
1.1116904
1.0949975
1.0786449
1.062655
1.0470252
1.0317394
1.0167778
1.0021204
0.98774586
0.97362917
0.9597402
0.94604449
0.93250538
0.91908681
0.90575591
0.89248471
0.87925099
0.86603826
0.85283514
0.83963442
0.82643202
0.81322608
0.80001608
0.78680233
0.77358545
0.76036618
0.74714522
0.73392312
0.7207003
0.70747707
0.69425362
0.68103008
0.66780652
0.65458296
0.64135943
0.62813592
0.61491244
0.60168897
0.58846553
0.57524208
0.56201865
0.5487952
0.5355718
0.52234832
0.50912497
0.49590143
0.48267816
0.4694545
0.4562314
0.44300754
0.42978467
0.41656055
0.40333794
0.39011361
0.37689112
0.3636668
0.35044415
0.33722013
0.3239971
0.31077342
0.29755025
0.28432634
0.27110388
0.25787877
0.24465788
0.23143097
0.21821189
0.20498313
0.1917659
0.17853483
0.16532009
0.15208589
0.13887339
0.12563683
0.11242353
0.099187056
0.085967854
0.072737953
0.059505556
0.046321208
0.033089075
0.020105244
0.0067893459
1.6304376
1.5640192
1.5055948
1.4612109
1.4193431
1.3797143
1.3443476
1.3133109
1.2857931
1.2610181
1.2384031
1.2175032
1.1979527
1.1794108
1.1615734
1.1442138
1.1272015
1.1104858
1.0940605
1.0779329
1.0621094
1.0465918
1.0313786
1.0164659
1.0018459
0.98750451
0.97341998
0.95956296
0.94589839
0.93238864
0.91899667
0.9056889
0.89243699
0.87921867
0.86601771
0.85282314
0.83962831
0.82642972
0.81322603
0.8000172
0.7868039
0.77358706
0.76036762
0.74714638
0.73392399
0.72070093
0.7074775
0.6942539
0.68103025
0.66780662
0.65458301
0.64135946
0.62813593
0.61491244
0.60168897
0.58846552
0.57524208
0.56201865
0.5487952
0.53557179
0.52234833
0.50912495
0.49590145
0.48267813
0.46945455
0.45623133
0.44300762
0.42978457
0.41656067
0.40333781
0.39011374
0.376891
0.36366689
0.35044409
0.33722015
0.32399711
0.31077342
0.29755022
0.28432647
0.27110365
0.25787917
0.24465738
0.2314317
0.21821116
0.20498427
0.19176497
0.1785368
0.16531906
0.1520895
0.13887311
0.12564385
0.11242649
0.099202556
0.085980448
0.072773966
0.059542906
0.046398783
0.033174915
0.020251375
0.006915679
1.7539827
1.6238279
1.5331637
1.4749829
1.4253792
1.3808421
1.342559
1.3100674
1.2821119
1.2575279
1.2353854
1.2150061
1.1958735
1.1776261
1.1600117
1.1428581
1.1260574
1.1095517
1.0933172
1.0773486
1.0616501
1.0462286
1.0310905
1.0162386
1.0016693
0.98737062
0.97332154
0.95949306
0.94585061
0.93235726
0.91897696
0.90567711
0.89243036
0.87921526
0.8660162
0.85282271
0.83962844
0.8264301
0.8132265
0.80001767
0.78680432
0.77358741
0.7603679
0.7471466
0.73392416
0.72070105
0.70747758
0.69425395
0.68103029
0.66780664
0.65458303
0.64135946
0.62813594
0.61491244
0.60168897
0.58846552
0.57524208
0.56201864
0.54879521
0.53557178
0.52234835
0.50912493
0.49590148
0.48267809
0.4694546
0.45623126
0.44300772
0.42978445
0.41656082
0.40333764
0.39011392
0.37689082
0.36366706
0.35044396
0.33722025
0.32399705
0.31077346
0.29755017
0.28432659
0.27110342
0.25787956
0.24465683
0.23143244
0.21821029
0.20498536
0.19176381
0.17853836
0.16531758
0.15209168
0.13887176
0.12564645
0.11242673
0.099205097
0.085984689
0.072773433
0.059551267
0.046364953
0.033136393
0.019977615
0.006718369
)
;

boundaryField
{
    top
    {
        type            zeroGradient;
    }
    inlet
    {
        type            zeroGradient;
    }
    outlet
    {
        type            fixedValue;
        value           uniform 0;
    }
    bottom
    {
        type            zeroGradient;
    }
    back
    {
        type            empty;
    }
    front
    {
        type            empty;
    }
}


// ************************************************************************* //
