/*--------------------------------*- C++ -*----------------------------------*\
| =========                 |                                                 |
| \\      /  F ield         | OpenFOAM: The Open Source CFD Toolbox           |
|  \\    /   O peration     | Version:  v1812                                 |
|   \\  /    A nd           | Web:      www.OpenFOAM.com                      |
|    \\/     M anipulation  |                                                 |
\*---------------------------------------------------------------------------*/
FoamFile
{
    version     2.0;
    format      ascii;
    class       volVectorField;
    location    "40";
    object      U;
}
// * * * * * * * * * * * * * * * * * * * * * * * * * * * * * * * * * * * * * //

dimensions      [0 1 -1 0 0 0 0];


internalField   nonuniform List<vector> 
1000
(
(0.92241962 0.034486368 0)
(0.87133115 0.058492792 0)
(0.78817127 0.056211114 0)
(0.69391097 0.045737523 0)
(0.61399348 0.034498457 0)
(0.55021441 0.024445138 0)
(0.49945878 0.0162543 0)
(0.45989057 0.010159499 0)
(0.4298149 0.0059961191 0)
(0.40726958 0.0033897443 0)
(0.39035604 0.0018980628 0)
(0.37751308 0.0011394949 0)
(0.36758708 0.00077803802 0)
(0.3597474 0.00058122509 0)
(0.35341822 0.00043746484 0)
(0.34819361 0.00032096945 0)
(0.34376943 0.00024123144 0)
(0.33991002 0.00020766418 0)
(0.33643904 0.00021715699 0)
(0.33323758 0.00025663155 0)
(0.33023991 0.00030991292 0)
(0.32742461 0.00036273226 0)
(0.32480272 0.00040465698 0)
(0.32240439 0.00042915686 0)
(0.32026591 0.00043313874 0)
(0.3184183 0.00041652476 0)
(0.31687919 0.0003818411 0)
(0.31564857 0.0003336071 0)
(0.31470869 0.00027746865 0)
(0.31402726 0.0002192039 0)
(0.31356267 0.00016383413 0)
(0.31326965 0.00011502843 0)
(0.31310427 7.4878672e-05 0)
(0.31302763 4.400712e-05 0)
(0.31300783 2.1890189e-05 0)
(0.31302061 7.2735197e-06 0)
(0.31304886 -1.4338944e-06 0)
(0.31308154 -5.8461691e-06 0)
(0.31311227 -7.3968557e-06 0)
(0.31313801 -7.2350137e-06 0)
(0.31315785 -6.2019369e-06 0)
(0.31317213 -4.8583264e-06 0)
(0.31318176 -3.5382949e-06 0)
(0.31318784 -2.4101789e-06 0)
(0.31319138 -1.5326652e-06 0)
(0.31319324 -9.0003674e-07 0)
(0.31319404 -4.7481551e-07 0)
(0.31319425 -2.0912573e-07 0)
(0.31319416 -5.6831347e-08 0)
(0.31319394 2.0385736e-08 0)
(0.31319371 5.1837038e-08 0)
(0.3131935 5.742601e-08 0)
(0.31319333 5.1238143e-08 0)
(0.31319321 3.9461257e-08 0)
(0.31319312 2.9426521e-08 0)
(0.31319307 1.744315e-08 0)
(0.31319303 1.4116857e-08 0)
(0.31319302 1.9767351e-09 0)
(0.31319299 1.0180258e-08 0)
(0.31319303 -1.0952592e-08 0)
(0.31319296 1.8382922e-08 0)
(0.31319306 -2.9741902e-08 0)
(0.31319291 4.2355058e-08 0)
(0.31319314 -6.4387692e-08 0)
(0.31319282 8.8404949e-08 0)
(0.31319327 -1.22527e-07 0)
(0.31319267 1.5847087e-07 0)
(0.31319345 -1.9954912e-07 0)
(0.31319248 2.3574066e-07 0)
(0.31319362 -2.6401363e-07 0)
(0.31319236 2.7329109e-07 0)
(0.31319366 -2.5855635e-07 0)
(0.31319243 2.1492399e-07 0)
(0.31319347 -1.4858766e-07 0)
(0.3131927 7.275118e-08 0)
(0.31319319 -1.4965915e-08 0)
(0.31319288 5.6581375e-09 0)
(0.31319324 -7.3040623e-08 0)
(0.31319249 2.3631631e-07 0)
(0.31319399 -4.7075516e-07 0)
(0.31319141 7.6869509e-07 0)
(0.31319514 -1.0323463e-06 0)
(0.31319023 1.3149895e-06 0)
(0.31319597 -1.4723016e-06 0)
(0.31318925 1.8029147e-06 0)
(0.31319648 -1.9277153e-06 0)
(0.31318775 2.6248685e-06 0)
(0.31319657 -2.505095e-06 0)
(0.31318568 3.6835412e-06 0)
(0.31319316 -2.0981927e-06 0)
(0.31318411 4.229657e-06 0)
(0.31317995 1.0078192e-06 0)
(0.31318043 4.6522591e-06 0)
(0.31314562 9.0380669e-06 0)
(0.31316731 3.8485287e-06 0)
(0.31306119 2.6485011e-05 0)
(0.31313996 -1.6727274e-05 0)
(0.31291879 2.2160806e-05 0)
(0.31314838 -0.00017750602 0)
(0.31317615 -0.00021860289 0)
(1.003271 0.054814433 0)
(1.0472152 0.10099754 0)
(1.0661146 0.11153323 0)
(1.0625951 0.1090699 0)
(1.0508161 0.099905998 0)
(1.0345173 0.087012045 0)
(1.0149095 0.072868814 0)
(0.99382895 0.059230536 0)
(0.97291947 0.047132353 0)
(0.95317656 0.037083505 0)
(0.93506553 0.029162577 0)
(0.91872713 0.023153449 0)
(0.90413021 0.018652055 0)
(0.8911823 0.015236831 0)
(0.87976012 0.012588489 0)
(0.86970121 0.01051568 0)
(0.86080353 0.0089139507 0)
(0.85285153 0.0077100098 0)
(0.84565534 0.0068265414 0)
(0.83908154 0.0061743299 0)
(0.83306374 0.0056614393 0)
(0.82759392 0.0052068441 0)
(0.82270145 0.004750824 0)
(0.81842828 0.004259572 0)
(0.81480676 0.0037243448 0)
(0.81184435 0.0031565442 0)
(0.80951682 0.0025804322 0)
(0.80776954 0.0020252168 0)
(0.80652468 0.0015180986 0)
(0.80569149 0.0010793853 0)
(0.80517689 0.00072015624 0)
(0.80489425 0.00044225473 0)
(0.8047692 0.00023997268 0)
(0.80474252 0.00010257238 0)
(0.80477032 1.6917141e-05 0)
(0.8048225 -3.0327746e-05 0)
(0.80488022 -5.1155193e-05 0)
(0.80493304 -5.5384005e-05 0)
(0.80497631 -5.0400485e-05 0)
(0.80500902 -4.1315482e-05 0)
(0.8050321 -3.1339264e-05 0)
(0.80504736 -2.2248302e-05 0)
(0.80505677 -1.4824804e-05 0)
(0.80506211 -9.2352715e-06 0)
(0.80506481 -5.3062805e-06 0)
(0.8050659 -2.7227677e-06 0)
(0.8050661 -1.1400025e-06 0)
(0.80506588 -2.5271304e-07 0)
(0.80506551 1.859562e-07 0)
(0.80506512 3.5389674e-07 0)
(0.80506479 3.7604705e-07 0)
(0.80506454 3.274514e-07 0)
(0.80506435 2.5756841e-07 0)
(0.80506423 1.8463576e-07 0)
(0.80506414 1.2834517e-07 0)
(0.80506411 7.6675257e-08 0)
(0.80506406 5.4058859e-08 0)
(0.80506409 1.5425386e-08 0)
(0.80506401 2.9614919e-08 0)
(0.80506413 -2.4310895e-08 0)
(0.80506394 4.4733171e-08 0)
(0.80506424 -7.2668675e-08 0)
(0.80506378 1.0308669e-07 0)
(0.80506448 -1.6012819e-07 0)
(0.80506347 2.2105734e-07 0)
(0.80506491 -3.1258837e-07 0)
(0.80506294 4.1044707e-07 0)
(0.80506554 -5.297136e-07 0)
(0.80506226 6.4173367e-07 0)
(0.80506622 -7.4525154e-07 0)
(0.80506167 8.0484608e-07 0)
(0.8050666 -8.1026718e-07 0)
(0.80506161 7.3430455e-07 0)
(0.80506629 -5.8634968e-07 0)
(0.80506226 3.8259672e-07 0)
(0.80506548 -1.851706e-07 0)
(0.80506294 7.2384352e-08 0)
(0.80506532 -1.3075374e-07 0)
(0.80506218 4.5152378e-07 0)
(0.80506719 -1.007756e-06 0)
(0.80505922 1.8508897e-06 0)
(0.8050708 -2.6926244e-06 0)
(0.80505538 3.747617e-06 0)
(0.80507411 -4.3879641e-06 0)
(0.80505231 5.6474334e-06 0)
(0.80507635 -5.9786073e-06 0)
(0.80504933 8.4305216e-06 0)
(0.80507754 -8.0182436e-06 0)
(0.80504735 1.3087446e-05 0)
(0.8050712 -8.6073779e-06 0)
(0.80505367 1.9143584e-05 0)
(0.8050424 -2.1616161e-06 0)
(0.80507446 2.9070164e-05 0)
(0.80496731 2.0481034e-05 0)
(0.80511267 5.1386217e-05 0)
(0.80477387 8.265111e-05 0)
(0.80516764 9.0785244e-05 0)
(0.80425125 0.00020380206 0)
(0.80516412 0.00011146758 0)
(0.80317752 0.00017278391 0)
(1.00015 0.028829907 0)
(1.0314807 0.059417541 0)
(1.0675639 0.071134229 0)
(1.0976218 0.075542201 0)
(1.1229324 0.074782695 0)
(1.1433153 0.070059309 0)
(1.158256 0.063152465 0)
(1.168328 0.055510262 0)
(1.1745728 0.048079199 0)
(1.1779291 0.041427803 0)
(1.179099 0.035798975 0)
(1.178611 0.031155722 0)
(1.1769253 0.027302118 0)
(1.1744823 0.024026517 0)
(1.1716627 0.021194915 0)
(1.1687274 0.018760215 0)
(1.1658034 0.016714513 0)
(1.1629247 0.015035294 0)
(1.1600938 0.013659389 0)
(1.1573277 0.012489122 0)
(1.1546739 0.011416871 0)
(1.1522021 0.01035155 0)
(1.1499856 0.0092365528 0)
(1.1480822 0.0080557183 0)
(1.1465235 0.0068287195 0)
(1.1453103 0.0055995558 0)
(1.1444171 0.0044223985 0)
(1.1437993 0.0033484907 0)
(1.1434028 0.0024166479 0)
(1.1431722 0.0016484292 0)
(1.1430573 0.0010477495 0)
(1.1430166 0.00060376406 0)
(1.1430185 0.00029552242 0)
(1.1430409 9.6957115e-05 0)
(1.1430699 -1.8791283e-05 0)
(1.1430977 -7.6269223e-05 0)
(1.1431204 -9.5915152e-05 0)
(1.1431373 -9.3419734e-05 0)
(1.1431487 -7.9903996e-05 0)
(1.1431557 -6.2598954e-05 0)
(1.1431596 -4.5717584e-05 0)
(1.1431614 -3.1337645e-05 0)
(1.1431619 -2.0152478e-05 0)
(1.1431618 -1.206332e-05 0)
(1.1431614 -6.5854685e-06 0)
(1.143161 -3.1176809e-06 0)
(1.1431606 -1.0835054e-06 0)
(1.1431602 -6.8575645e-09 0)
(1.14316 4.7628477e-07 0)
(1.1431599 6.180978e-07 0)
(1.1431598 5.8762421e-07 0)
(1.1431597 4.8286634e-07 0)
(1.1431597 3.6455367e-07 0)
(1.1431597 2.5333173e-07 0)
(1.1431597 1.7042264e-07 0)
(1.1431597 9.9045691e-08 0)
(1.1431596 6.6545896e-08 0)
(1.1431597 1.7395138e-08 0)
(1.1431596 3.2924085e-08 0)
(1.1431598 -3.1753672e-08 0)
(1.1431595 4.995342e-08 0)
(1.14316 -8.8528285e-08 0)
(1.1431592 1.1854746e-07 0)
(1.1431604 -1.9009406e-07 0)
(1.1431587 2.565894e-07 0)
(1.1431611 -3.6737918e-07 0)
(1.1431579 4.7846137e-07 0)
(1.1431621 -6.2259882e-07 0)
(1.1431567 7.5466668e-07 0)
(1.1431634 -8.8703753e-07 0)
(1.1431555 9.6908219e-07 0)
(1.1431643 -1.0022046e-06 0)
(1.1431549 9.4398003e-07 0)
(1.1431645 -8.1592233e-07 0)
(1.1431552 6.2041652e-07 0)
(1.1431638 -4.3455848e-07 0)
(1.1431559 3.315048e-07 0)
(1.1431637 -4.1765268e-07 0)
(1.1431549 8.0393211e-07 0)
(1.1431662 -1.4847149e-06 0)
(1.1431509 2.5793369e-06 0)
(1.1431714 -3.7847983e-06 0)
(1.1431449 5.4697007e-06 0)
(1.1431778 -6.834183e-06 0)
(1.1431384 9.3036214e-06 0)
(1.1431843 -1.0738315e-05 0)
(1.1431314 1.5383709e-05 0)
(1.1431912 -1.6539591e-05 0)
(1.1431254 2.6088086e-05 0)
(1.143193 -2.3736199e-05 0)
(1.1431291 4.4010369e-05 0)
(1.1431772 -2.7963277e-05 0)
(1.1431538 7.6391513e-05 0)
(1.1431263 -1.7534595e-05 0)
(1.1432133 0.00014332754 0)
(1.1429867 4.995895e-05 0)
(1.1433209 0.00029343574 0)
(1.1425899 0.00032041608 0)
(1.1433619 0.00069022823 0)
(1.141661 0.0012108733 0)
(0.99973839 0.012353311 0)
(1.0184361 0.030248561 0)
(1.0484341 0.039616787 0)
(1.0802085 0.044597879 0)
(1.1117004 0.046264907 0)
(1.1416643 0.045184974 0)
(1.1687206 0.042334055 0)
(1.1923645 0.038600412 0)
(1.2127698 0.03463868 0)
(1.2302507 0.030893456 0)
(1.245047 0.027587326 0)
(1.2573793 0.024743983 0)
(1.2675651 0.022276274 0)
(1.2760404 0.020087561 0)
(1.2832645 0.018132795 0)
(1.2896053 0.016418249 0)
(1.2952894 0.01496183 0)
(1.3004286 0.013752687 0)
(1.3050755 0.012735634 0)
(1.3092661 0.011822906 0)
(1.3130346 0.010920786 0)
(1.316411 0.0099561049 0)
(1.3194141 0.0088927413 0)
(1.3220505 0.0077350907 0)
(1.3243192 0.0065206062 0)
(1.3262204 0.0053060326 0)
(1.3277622 0.0041523067 0)
(1.3289654 0.0031119807 0)
(1.3298634 0.0022213052 0)
(1.3304995 0.0014973724 0)
(1.3309224 0.00093947171 0)
(1.331181 0.00053313361 0)
(1.3313206 0.00025528807 0)
(1.3313795 7.9231655e-05 0)
(1.3313883 -2.1380886e-05 0)
(1.3313697 -6.9880435e-05 0)
(1.3313391 -8.5203258e-05 0)
(1.3313062 -8.1566236e-05 0)
(1.3312765 -6.8832028e-05 0)
(1.3312521 -5.3272328e-05 0)
(1.3312336 -3.8440877e-05 0)
(1.3312206 -2.6016169e-05 0)
(1.3312118 -1.6488509e-05 0)
(1.3312064 -9.6916759e-06 0)
(1.3312033 -5.1535137e-06 0)
(1.3312017 -2.3269287e-06 0)
(1.331201 -7.0222135e-07 0)
(1.3312008 1.3143449e-07 0)
(1.3312009 4.84021e-07 0)
(1.3312011 5.6554994e-07 0)
(1.3312013 5.1577305e-07 0)
(1.3312015 4.1285558e-07 0)
(1.3312017 3.0539205e-07 0)
(1.3312018 2.0785121e-07 0)
(1.3312019 1.3654785e-07 0)
(1.3312019 7.6610284e-08 0)
(1.3312019 4.8941163e-08 0)
(1.331202 9.6627053e-09 0)
(1.3312019 2.0699897e-08 0)
(1.3312021 -2.8416653e-08 0)
(1.3312018 3.2901201e-08 0)
(1.3312024 -7.0254639e-08 0)
(1.3312014 8.3973764e-08 0)
(1.3312028 -1.4434812e-07 0)
(1.3312008 1.8612112e-07 0)
(1.3312037 -2.741899e-07 0)
(1.3311997 3.505577e-07 0)
(1.331205 -4.6386846e-07 0)
(1.3311982 5.6008158e-07 0)
(1.3312067 -6.7078878e-07 0)
(1.3311965 7.4099686e-07 0)
(1.3312082 -7.9373839e-07 0)
(1.3311953 7.798285e-07 0)
(1.331209 -7.357925e-07 0)
(1.3311949 6.4068909e-07 0)
(1.3312091 -5.6856551e-07 0)
(1.3311948 5.4713547e-07 0)
(1.3312098 -6.729131e-07 0)
(1.3311929 1.0158403e-06 0)
(1.3312133 -1.6063742e-06 0)
(1.3311877 2.5648461e-06 0)
(1.3312205 -3.7182825e-06 0)
(1.3311786 5.4281393e-06 0)
(1.3312316 -7.1005792e-06 0)
(1.3311656 9.9605863e-06 0)
(1.3312481 -1.2231845e-05 0)
(1.3311459 1.7545263e-05 0)
(1.3312735 -2.0312551e-05 0)
(1.3311176 3.0854417e-05 0)
(1.3313104 -3.2105275e-05 0)
(1.3310812 5.3900173e-05 0)
(1.3313637 -4.5576426e-05 0)
(1.331035 9.4575378e-05 0)
(1.3314511 -4.9502897e-05 0)
(1.3309804 0.00017179593 0)
(1.3316004 5.4238032e-06 0)
(1.3309449 0.00034138546 0)
(1.331864 0.00031815482 0)
(1.3309455 0.000828385 0)
(1.3321417 0.0015266792 0)
(0.99995401 0.0035937444 0)
(1.0139987 0.0095652884 0)
(1.0391282 0.012870161 0)
(1.0682352 0.014571863 0)
(1.0987305 0.015166773 0)
(1.1292541 0.014876111 0)
(1.1583838 0.014007738 0)
(1.1853515 0.012853222 0)
(1.2100118 0.01163439 0)
(1.2323696 0.010498887 0)
(1.2523793 0.0095129223 0)
(1.2700334 0.008672902 0)
(1.2855018 0.0079402873 0)
(1.2991489 0.0072790832 0)
(1.3114154 0.006676428 0)
(1.3226758 0.006139983 0)
(1.3331697 0.0056810711 0)
(1.3430145 0.0052983346 0)
(1.352253 0.0049716659 0)
(1.360889 0.0046673358 0)
(1.3689001 0.0043492672 0)
(1.376241 0.0039902051 0)
(1.3828496 0.0035785539 0)
(1.3886612 0.0031195583 0)
(1.3936278 0.0026317983 0)
(1.3977335 0.0021411168 0)
(1.4010034 0.001674195 0)
(1.4035016 0.0012534157 0)
(1.4053237 0.000893826 0)
(1.4065831 0.00060225197 0)
(1.4073987 0.00037810792 0)
(1.407883 0.00021522685 0)
(1.4081345 0.00010404858 0)
(1.4082335 3.366236e-05 0)
(1.4082413 -6.5966407e-06 0)
(1.4082015 -2.6104757e-05 0)
(1.4081428 -3.2430847e-05 0)
(1.4080824 -3.1229999e-05 0)
(1.4080292 -2.641177e-05 0)
(1.4079868 -2.0453177e-05 0)
(1.4079554 -1.4755685e-05 0)
(1.4079336 -9.9792358e-06 0)
(1.4079195 -6.3185443e-06 0)
(1.407911 -3.709613e-06 0)
(1.4079063 -1.9708145e-06 0)
(1.407904 -8.8980451e-07 0)
(1.4079032 -2.7063442e-07 0)
(1.4079031 4.5884081e-08 0)
(1.4079034 1.7817837e-07 0)
(1.4079039 2.077319e-07 0)
(1.4079043 1.8723238e-07 0)
(1.4079046 1.4735337e-07 0)
(1.4079049 1.0573632e-07 0)
(1.4079051 6.8697591e-08 0)
(1.4079052 4.1458037e-08 0)
(1.4079053 1.9248759e-08 0)
(1.4079053 8.8425222e-09 0)
(1.4079054 -5.1198352e-09 0)
(1.4079053 -9.2024993e-10 0)
(1.4079056 -1.8106274e-08 0)
(1.4079051 4.5064781e-09 0)
(1.4079058 -3.2125404e-08 0)
(1.4079048 2.4111421e-08 0)
(1.4079063 -5.779978e-08 0)
(1.4079041 6.2058423e-08 0)
(1.4079072 -1.0397292e-07 0)
(1.4079029 1.2264772e-07 0)
(1.4079087 -1.7285634e-07 0)
(1.4079012 2.0071745e-07 0)
(1.4079105 -2.5088373e-07 0)
(1.4078993 2.7207662e-07 0)
(1.4079124 -3.0442619e-07 0)
(1.4078977 2.9872124e-07 0)
(1.4079136 -3.0080465e-07 0)
(1.4078968 2.6864798e-07 0)
(1.4079143 -2.6425957e-07 0)
(1.407896 2.5961659e-07 0)
(1.4079158 -3.2921718e-07 0)
(1.4078932 4.6051479e-07 0)
(1.4079204 -7.1055274e-07 0)
(1.4078866 1.0906093e-06 0)
(1.4079296 -1.5894328e-06 0)
(1.4078747 2.3115112e-06 0)
(1.407945 -3.0873651e-06 0)
(1.4078554 4.3448283e-06 0)
(1.4079708 -5.4577516e-06 0)
(1.4078232 7.7836618e-06 0)
(1.4080146 -9.2342062e-06 0)
(1.4077715 1.3782909e-05 0)
(1.4080862 -1.4899161e-05 0)
(1.4076925 2.414797e-05 0)
(1.4082063 -2.1842608e-05 0)
(1.407571 4.2117823e-05 0)
(1.4084221 -2.5254336e-05 0)
(1.4073957 7.5259449e-05 0)
(1.408825 -3.0483973e-06 0)
(1.4072132 0.00014782139 0)
(1.4096291 0.00013528484 0)
(1.4071813 0.0003609286 0)
(1.4108411 0.00067695693 0)
(0.99995401 -0.0035937586 0)
(1.0139987 -0.0095652902 0)
(1.0391282 -0.012870162 0)
(1.0682352 -0.014571865 0)
(1.0987305 -0.015166779 0)
(1.1292541 -0.014876129 0)
(1.1583838 -0.014007775 0)
(1.1853515 -0.012853277 0)
(1.2100118 -0.011634456 0)
(1.2323696 -0.010498958 0)
(1.2523793 -0.0095129925 0)
(1.2700334 -0.0086729763 0)
(1.2855018 -0.0079403728 0)
(1.2991489 -0.0072791881 0)
(1.3114154 -0.0066765538 0)
(1.3226758 -0.0061401256 0)
(1.3331696 -0.0056812224 0)
(1.3430144 -0.005298486 0)
(1.352253 -0.0049718129 0)
(1.3608889 -0.004667477 0)
(1.3689001 -0.0043494057 0)
(1.376241 -0.0039903433 0)
(1.3828496 -0.0035786938 0)
(1.3886612 -0.0031196974 0)
(1.3936277 -0.0026319318 0)
(1.3977335 -0.0021412373 0)
(1.4010033 -0.0016742962 0)
(1.4035016 -0.0012534921 0)
(1.4053236 -0.00089387717 0)
(1.4065831 -0.00060227886 0)
(1.4073987 -0.00037811719 0)
(1.4078829 -0.00021522403 0)
(1.4081345 -0.00010404296 0)
(1.4082335 -3.3658901e-05 0)
(1.4082413 6.5909922e-06 0)
(1.4082015 2.6088975e-05 0)
(1.4081428 3.2402219e-05 0)
(1.4080824 3.119152e-05 0)
(1.4080292 2.6363666e-05 0)
(1.4079868 2.0400193e-05 0)
(1.4079554 1.4698561e-05 0)
(1.4079337 9.9223999e-06 0)
(1.4079195 6.2616699e-06 0)
(1.407911 3.6558648e-06 0)
(1.4079063 1.918549e-06 0)
(1.407904 8.4126771e-07 0)
(1.4079032 2.2342721e-07 0)
(1.4079032 -8.986849e-08 0)
(1.4079035 -2.214874e-07 0)
(1.4079039 -2.4829287e-07 0)
(1.4079043 -2.2743996e-07 0)
(1.4079046 -1.84944e-07 0)
(1.4079049 -1.4295736e-07 0)
(1.4079051 -1.0310456e-07 0)
(1.4079052 -7.52503e-08 0)
(1.4079053 -5.0015255e-08 0)
(1.4079053 -3.8828537e-08 0)
(1.4079054 -2.1680453e-08 0)
(1.4079053 -2.5004242e-08 0)
(1.4079056 -4.6501181e-09 0)
(1.4079051 -2.6481173e-08 0)
(1.4079058 1.3196269e-08 0)
(1.4079048 -4.2445795e-08 0)
(1.4079063 4.2199178e-08 0)
(1.4079041 -7.7437753e-08 0)
(1.4079072 9.0938294e-08 0)
(1.4079029 -1.3586908e-07 0)
(1.4079087 1.6149704e-07 0)
(1.4079012 -2.1275252e-07 0)
(1.4079105 2.4025916e-07 0)
(1.4078993 -2.8382278e-07 0)
(1.4079124 2.9359495e-07 0)
(1.4078977 -3.1115899e-07 0)
(1.4079136 2.889026e-07 0)
(1.4078968 -2.8242571e-07 0)
(1.4079143 2.5087202e-07 0)
(1.407896 -2.7488005e-07 0)
(1.4079158 3.1451475e-07 0)
(1.4078932 -4.7692194e-07 0)
(1.4079204 6.9473012e-07 0)
(1.4078866 -1.1082966e-06 0)
(1.4079296 1.572078e-06 0)
(1.4078747 -2.3309733e-06 0)
(1.407945 3.068237e-06 0)
(1.4078554 -4.3655869e-06 0)
(1.4079708 5.4385108e-06 0)
(1.4078232 -7.8028111e-06 0)
(1.4080145 9.2183947e-06 0)
(1.4077715 -1.3796903e-05 0)
(1.4080862 1.488945e-05 0)
(1.4076924 -2.4155523e-05 0)
(1.4082063 2.1838739e-05 0)
(1.4075709 -4.212031e-05 0)
(1.4084221 2.525496e-05 0)
(1.4073957 -7.5257173e-05 0)
(1.408825 3.0538477e-06 0)
(1.4072132 -0.00014781189 0)
(1.409629 -0.00013527329 0)
(1.4071813 -0.00036091172 0)
(1.410841 -0.00067693957 0)
(0.99973839 -0.012353336 0)
(1.0184361 -0.030248578 0)
(1.0484341 -0.039616804 0)
(1.0802085 -0.044597893 0)
(1.1117004 -0.046264916 0)
(1.1416643 -0.045184985 0)
(1.1687206 -0.042334078 0)
(1.1923645 -0.038600451 0)
(1.2127698 -0.034638733 0)
(1.2302507 -0.030893516 0)
(1.245047 -0.027587389 0)
(1.2573793 -0.024744049 0)
(1.2675651 -0.022276349 0)
(1.2760404 -0.02008765 0)
(1.2832645 -0.018132902 0)
(1.2896052 -0.016418371 0)
(1.2952893 -0.01496196 0)
(1.3004285 -0.013752818 0)
(1.3050754 -0.012735761 0)
(1.309266 -0.011823027 0)
(1.3130345 -0.010920903 0)
(1.3164109 -0.0099562219 0)
(1.319414 -0.0088928595 0)
(1.3220503 -0.0077352097 0)
(1.3243191 -0.0065207218 0)
(1.3262202 -0.0053061395 0)
(1.3277621 -0.0041523981 0)
(1.3289653 -0.0031120525 0)
(1.3298632 -0.0022213549 0)
(1.3304993 -0.0014974023 0)
(1.3309223 -0.00093948513 0)
(1.3311809 -0.00053313757 0)
(1.3313205 -0.0002552881 0)
(1.3313794 -7.9234823e-05 0)
(1.3313883 2.1371274e-05 0)
(1.3313697 6.9860589e-05 0)
(1.3313391 8.5173801e-05 0)
(1.3313063 8.1526802e-05 0)
(1.3312765 6.878593e-05 0)
(1.3312521 5.3220674e-05 0)
(1.3312337 3.8387541e-05 0)
(1.3312206 2.5961847e-05 0)
(1.3312119 1.6436182e-05 0)
(1.3312065 9.6408289e-06 0)
(1.3312033 5.1060677e-06 0)
(1.3312017 2.2814251e-06 0)
(1.331201 6.5996329e-07 0)
(1.3312009 -1.7228082e-07 0)
(1.331201 -5.2219314e-07 0)
(1.3312012 -6.0281366e-07 0)
(1.3312014 -5.5070908e-07 0)
(1.3312016 -4.4707397e-07 0)
(1.3312017 -3.3728195e-07 0)
(1.3312019 -2.3891155e-07 0)
(1.3312019 -1.6513213e-07 0)
(1.331202 -1.0422866e-07 0)
(1.331202 -7.394526e-08 0)
(1.3312021 -3.3599108e-08 0)
(1.3312019 -4.1996779e-08 0)
(1.3312022 8.1394611e-09 0)
(1.3312018 -5.0622514e-08 0)
(1.3312024 5.3419923e-08 0)
(1.3312015 -9.8478279e-08 0)
(1.3312029 1.3042927e-07 0)
(1.3312008 -1.9805188e-07 0)
(1.3312037 2.6247422e-07 0)
(1.3311997 -3.6071292e-07 0)
(1.331205 4.5348399e-07 0)
(1.3311982 -5.6931686e-07 0)
(1.3312067 6.6094591e-07 0)
(1.3311965 -7.5006424e-07 0)
(1.3312082 7.8369692e-07 0)
(1.3311953 -7.8940787e-07 0)
(1.331209 7.2497026e-07 0)
(1.3311949 -6.5128475e-07 0)
(1.3312091 5.565523e-07 0)
(1.3311948 -5.5898464e-07 0)
(1.3312098 6.5965989e-07 0)
(1.3311929 -1.0289093e-06 0)
(1.3312133 1.5918837e-06 0)
(1.3311876 -2.5791941e-06 0)
(1.3312205 3.7024841e-06 0)
(1.3311786 -5.4437873e-06 0)
(1.3312316 7.0837122e-06 0)
(1.3311655 -9.9767467e-06 0)
(1.331248 1.2215375e-05 0)
(1.3311459 -1.7559902e-05 0)
(1.3312735 2.0298705e-05 0)
(1.3311176 -3.0865375e-05 0)
(1.3313103 3.2095829e-05 0)
(1.3310812 -5.3906233e-05 0)
(1.3313637 4.557214e-05 0)
(1.331035 -9.4576514e-05 0)
(1.331451 4.9503762e-05 0)
(1.3309804 -0.00017179249 0)
(1.3316004 -5.4186079e-06 0)
(1.3309448 -0.0003413768 0)
(1.331864 -0.00031814558 0)
(1.3309454 -0.00082837166 0)
(1.3321417 -0.0015266652 0)
(1.00015 -0.028829946 0)
(1.0314807 -0.059417566 0)
(1.067564 -0.071134252 0)
(1.0976218 -0.075542217 0)
(1.1229324 -0.074782701 0)
(1.1433153 -0.070059312 0)
(1.158256 -0.063152473 0)
(1.168328 -0.055510282 0)
(1.1745728 -0.048079232 0)
(1.177929 -0.041427844 0)
(1.179099 -0.035799021 0)
(1.178611 -0.031155768 0)
(1.1769253 -0.027302169 0)
(1.1744822 -0.024026578 0)
(1.1716626 -0.021194989 0)
(1.1687273 -0.018760302 0)
(1.1658033 -0.016714609 0)
(1.1629245 -0.015035395 0)
(1.1600936 -0.013659487 0)
(1.1573275 -0.012489215 0)
(1.1546737 -0.011416958 0)
(1.152202 -0.010351634 0)
(1.1499854 -0.0092366369 0)
(1.148082 -0.0080558043 0)
(1.1465232 -0.0068288053 0)
(1.1453101 -0.0055996396 0)
(1.1444169 -0.0044224744 0)
(1.1437991 -0.0033485565 0)
(1.1434026 -0.0024166991 0)
(1.1431721 -0.001648468 0)
(1.1430572 -0.0010477751 0)
(1.1430165 -0.00060378325 0)
(1.1430184 -0.00029553627 0)
(1.1430409 -9.6973234e-05 0)
(1.1430699 1.8772907e-05 0)
(1.1430977 7.6243084e-05 0)
(1.1431205 9.588403e-05 0)
(1.1431373 9.3380626e-05 0)
(1.1431487 7.9861732e-05 0)
(1.1431558 6.2551777e-05 0)
(1.1431596 4.5670943e-05 0)
(1.1431614 3.128947e-05 0)
(1.143162 2.0107689e-05 0)
(1.1431619 1.2018906e-05 0)
(1.1431615 6.5456853e-06 0)
(1.143161 3.0786191e-06 0)
(1.1431606 1.0489989e-06 0)
(1.1431603 -2.7393734e-08 0)
(1.1431601 -5.0640619e-07 0)
(1.1431599 -6.4849264e-07 0)
(1.1431598 -6.1427732e-07 0)
(1.1431598 -5.1007955e-07 0)
(1.1431597 -3.8809961e-07 0)
(1.1431597 -2.7749724e-07 0)
(1.1431597 -1.909414e-07 0)
(1.1431597 -1.2017524e-07 0)
(1.1431597 -8.3967046e-08 0)
(1.1431598 -3.5440805e-08 0)
(1.1431597 -4.7338734e-08 0)
(1.1431598 1.6624981e-08 0)
(1.1431595 -6.1532229e-08 0)
(1.14316 7.6077478e-08 0)
(1.1431593 -1.2770059e-07 0)
(1.1431604 1.7981853e-07 0)
(1.1431588 -2.638349e-07 0)
(1.1431611 3.5869739e-07 0)
(1.1431579 -4.8450148e-07 0)
(1.1431621 6.1478955e-07 0)
(1.1431567 -7.6010433e-07 0)
(1.1431634 8.7956093e-07 0)
(1.1431555 -9.7445059e-07 0)
(1.1431643 9.9459844e-07 0)
(1.1431549 -9.495932e-07 0)
(1.1431645 8.0792436e-07 0)
(1.1431552 -6.2659535e-07 0)
(1.1431638 4.2583932e-07 0)
(1.1431558 -3.3849111e-07 0)
(1.1431637 4.0800357e-07 0)
(1.1431549 -8.1196688e-07 0)
(1.1431662 1.4739865e-06 0)
(1.1431509 -2.5883795e-06 0)
(1.1431714 3.7732368e-06 0)
(1.1431448 -5.479343e-06 0)
(1.1431777 6.8224389e-06 0)
(1.1431384 -9.3129472e-06 0)
(1.1431842 1.0727295e-05 0)
(1.1431314 -1.53921e-05 0)
(1.1431911 1.6529674e-05 0)
(1.1431253 -2.6095179e-05 0)
(1.1431929 2.3728208e-05 0)
(1.143129 -4.4014758e-05 0)
(1.1431772 2.7959218e-05 0)
(1.1431538 -7.6391202e-05 0)
(1.1431262 1.7535667e-05 0)
(1.1432133 -0.00014332336 0)
(1.1429867 -4.9954054e-05 0)
(1.1433209 -0.00029342986 0)
(1.1425899 -0.00032041067 0)
(1.1433618 -0.00069022047 0)
(1.141661 -0.0012108642 0)
(1.003271 -0.054814455 0)
(1.0472152 -0.10099753 0)
(1.0661147 -0.11153322 0)
(1.0625951 -0.10906989 0)
(1.0508161 -0.099905998 0)
(1.0345174 -0.08701206 0)
(1.0149095 -0.07286884 0)
(0.99382893 -0.059230568 0)
(0.97291944 -0.047132386 0)
(0.95317653 -0.037083532 0)
(0.93506549 -0.029162597 0)
(0.91872708 -0.023153464 0)
(0.90413014 -0.018652068 0)
(0.89118221 -0.015236848 0)
(0.87976001 -0.012588516 0)
(0.86970109 -0.010515721 0)
(0.8608034 -0.0089140047 0)
(0.8528514 -0.0077100743 0)
(0.84565521 -0.0068266107 0)
(0.83908139 -0.0061743983 0)
(0.83306358 -0.0056615029 0)
(0.82759374 -0.0052069016 0)
(0.82270126 -0.0047508766 0)
(0.81842807 -0.0042596219 0)
(0.81480653 -0.0037243943 0)
(0.81184412 -0.0031565942 0)
(0.80951659 -0.0025804824 0)
(0.80776933 -0.0020252657 0)
(0.80652448 -0.0015181442 0)
(0.80569131 -0.0010794265 0)
(0.80517674 -0.00072019228 0)
(0.80489413 -0.00044228622 0)
(0.80476911 -0.00024000083 0)
(0.80474246 -0.00010259895 0)
(0.80477028 -1.6943751e-05 0)
(0.80482249 3.0299844e-05 0)
(0.80488022 5.1125271e-05 0)
(0.80493305 5.535198e-05 0)
(0.80497633 5.0366673e-05 0)
(0.80500905 4.1280688e-05 0)
(0.80503213 3.130425e-05 0)
(0.8050474 2.2213951e-05 0)
(0.80505681 1.4791707e-05 0)
(0.80506216 9.2039937e-06 0)
(0.80506485 5.2770173e-06 0)
(0.80506594 2.6956363e-06 0)
(0.80506615 1.1149089e-06 0)
(0.80506593 2.295829e-07 0)
(0.80506556 -2.0730548e-07 0)
(0.80506517 -3.7363205e-07 0)
(0.80506484 -3.9430221e-07 0)
(0.80506458 -3.4431773e-07 0)
(0.8050644 -2.731067e-07 0)
(0.80506427 -1.9894793e-07 0)
(0.80506418 -1.4144409e-07 0)
(0.80506415 -8.8617645e-08 0)
(0.80506409 -6.4848496e-08 0)
(0.80506412 -2.5181322e-08 0)
(0.80506404 -3.8347991e-08 0)
(0.80506416 1.6499218e-08 0)
(0.80506396 -5.1648782e-08 0)
(0.80506427 6.6485501e-08 0)
(0.8050638 -1.0856972e-07 0)
(0.8050645 1.5521379e-07 0)
(0.80506348 -2.2543809e-07 0)
(0.80506492 3.0856835e-07 0)
(0.80506295 -4.141224e-07 0)
(0.80506554 5.2626523e-07 0)
(0.80506226 -6.4494804e-07 0)
(0.80506622 7.4211324e-07 0)
(0.80506167 -8.0789038e-07 0)
(0.8050666 8.072037e-07 0)
(0.80506161 -7.3736656e-07 0)
(0.80506629 5.831482e-07 0)
(0.80506225 -3.859146e-07 0)
(0.80506547 1.8165148e-07 0)
(0.80506293 -7.6081287e-08 0)
(0.80506531 1.2675438e-07 0)
(0.80506216 -4.5578746e-07 0)
(0.80506717 1.0031913e-06 0)
(0.8050592 -1.8556398e-06 0)
(0.80507077 2.6877691e-06 0)
(0.80505535 -3.7523215e-06 0)
(0.80507408 4.3835998e-06 0)
(0.80505228 -5.6513751e-06 0)
(0.80507631 5.9748851e-06 0)
(0.80504929 -8.4343546e-06 0)
(0.8050775 8.014021e-06 0)
(0.80504731 -1.3091987e-05 0)
(0.80507116 8.6029331e-06 0)
(0.80505363 -1.9147143e-05 0)
(0.80504235 2.1598647e-06 0)
(0.80507442 -2.9070212e-05 0)
(0.80496727 -2.047948e-05 0)
(0.80511263 -5.1383905e-05 0)
(0.80477383 -8.2648428e-05 0)
(0.80516761 -9.0783421e-05 0)
(0.80425123 -0.0002037993 0)
(0.80516409 -0.00011146312 0)
(0.80317751 -0.00017277834 0)
(0.92241964 -0.03448637 0)
(0.8713312 -0.058492776 0)
(0.78817132 -0.056211091 0)
(0.69391099 -0.045737505 0)
(0.61399344 -0.034498458 0)
(0.55021434 -0.024445159 0)
(0.49945869 -0.016254337 0)
(0.4598905 -0.010159535 0)
(0.42981485 -0.0059961451 0)
(0.40726954 -0.0033897541 0)
(0.390356 -0.0018980578 0)
(0.37751303 -0.0011394836 0)
(0.36758701 -0.00077802664 0)
(0.35974732 -0.00058122172 0)
(0.35341814 -0.00043747207 0)
(0.34819353 -0.0003209898 0)
(0.34376936 -0.00024126296 0)
(0.33990995 -0.00020770296 0)
(0.33643897 -0.00021719813 0)
(0.33323752 -0.00025666957 0)
(0.33023983 -0.00030994503 0)
(0.32742453 -0.00036275739 0)
(0.32480263 -0.00040467673 0)
(0.3224043 -0.00042917395 0)
(0.3202658 -0.0004331562 0)
(0.3184182 -0.00041654439 0)
(0.3168791 -0.00038186448 0)
(0.31564849 -0.00033363291 0)
(0.31470861 -0.00027749737 0)
(0.3140272 -0.00021923237 0)
(0.31356262 -0.00016386327 0)
(0.31326961 -0.00011505512 0)
(0.31310424 -7.4904891e-05 0)
(0.31302762 -4.4030505e-05 0)
(0.31300783 -2.1913226e-05 0)
(0.31302062 -7.2943707e-06 0)
(0.31304888 1.4128594e-06 0)
(0.31308156 5.8266418e-06 0)
(0.3131123 7.3768475e-06 0)
(0.31313804 7.2163042e-06 0)
(0.31315788 6.1827725e-06 0)
(0.31317217 4.8406257e-06 0)
(0.3131818 3.5203446e-06 0)
(0.31318788 2.3940089e-06 0)
(0.31319142 1.5164024e-06 0)
(0.31319328 8.8578904e-07 0)
(0.31319408 4.6053867e-07 0)
(0.31319429 1.9698681e-07 0)
(0.3131942 4.460224e-08 0)
(0.31319398 -3.0486022e-08 0)
(0.31319375 -6.2118709e-08 0)
(0.31319353 -6.5627256e-08 0)
(0.31319336 -5.9746128e-08 0)
(0.31319324 -4.5987151e-08 0)
(0.31319315 -3.6358026e-08 0)
(0.3131931 -2.2477157e-08 0)
(0.31319306 -1.9671027e-08 0)
(0.31319305 -5.7456363e-09 0)
(0.31319301 -1.4563696e-08 0)
(0.31319305 8.258037e-09 0)
(0.31319298 -2.1810768e-08 0)
(0.31319308 2.7880174e-08 0)
(0.31319293 -4.5042842e-08 0)
(0.31319315 6.3167509e-08 0)
(0.31319283 -9.0549208e-08 0)
(0.31319328 1.217483e-07 0)
(0.31319267 -1.6020712e-07 0)
(0.31319345 1.991447e-07 0)
(0.31319248 -2.3712217e-07 0)
(0.31319362 2.6391496e-07 0)
(0.31319236 -2.7440819e-07 0)
(0.31319366 2.5863828e-07 0)
(0.31319243 -2.1599439e-07 0)
(0.31319347 1.4858585e-07 0)
(0.3131927 -7.3985145e-08 0)
(0.31319318 1.4805688e-08 0)
(0.31319288 -6.9975498e-09 0)
(0.31319323 7.2905101e-08 0)
(0.31319248 -2.3749385e-07 0)
(0.31319398 4.7091665e-07 0)
(0.31319141 -7.6954438e-07 0)
(0.31319513 1.0328949e-06 0)
(0.31319022 -1.3154231e-06 0)
(0.31319597 1.4732294e-06 0)
(0.31318924 -1.8032394e-06 0)
(0.31319647 1.9282234e-06 0)
(0.31318774 -2.6261641e-06 0)
(0.31319655 2.5043437e-06 0)
(0.31318567 -3.68569e-06 0)
(0.31319314 2.0974037e-06 0)
(0.3131841 -4.2305448e-06 0)
(0.31317994 -1.0066581e-06 0)
(0.31318042 -4.6517198e-06 0)
(0.31314561 -9.0364091e-06 0)
(0.3131673 -3.848336e-06 0)
(0.31306118 -2.6484749e-05 0)
(0.31313995 1.6727229e-05 0)
(0.31291878 -2.2159587e-05 0)
(0.31314838 0.000177508 0)
(0.31317615 0.00021860493 0)
)
;

boundaryField
{
    top
    {
        type            fixedValue;
        value           uniform (0 0 0);
    }
    inlet
    {
        type            fixedValue;
        value           uniform (1 0 0);
    }
    outlet
    {
        type            zeroGradient;
    }
    bottom
    {
        type            fixedValue;
        value           uniform (0 0 0);
    }
    back
    {
        type            empty;
    }
    front
    {
        type            empty;
    }
}


// ************************************************************************* //
