# Region type : patch inlet
# Faces         : 10
# Area          : 1.00000000e-01
# Scale factor  : 1.00000000e+00
# Weight field  : p
# Time          	weightedAverage(phi)	weightedAverage(U)	weightedAverage(p)
0.05            	-7.24663230e-05	(7.76011242e-03 -3.72732516e-11 0.00000000e+00)	1.53520000e+00
0.1             	-1.46914861e-04	(1.46914861e-02 0.00000000e+00 0.00000000e+00)	1.53520000e+00
0.15            	-2.19779170e-04	(2.19779170e-02 0.00000000e+00 0.00000000e+00)	1.53520000e+00
0.2             	-2.91516722e-04	(2.91516722e-02 0.00000000e+00 0.00000000e+00)	1.53520000e+00
0.25            	-3.62249130e-04	(3.62249130e-02 0.00000000e+00 0.00000000e+00)	1.53520000e+00
0.3             	-4.32014789e-04	(4.32014789e-02 0.00000000e+00 0.00000000e+00)	1.53520000e+00
0.35            	-5.00911423e-04	(5.00911423e-02 0.00000000e+00 0.00000000e+00)	1.53520000e+00
0.4             	-5.68972981e-04	(5.68972981e-02 0.00000000e+00 0.00000000e+00)	1.53520000e+00
0.45            	-6.36257222e-04	(6.36257222e-02 0.00000000e+00 0.00000000e+00)	1.53520000e+00
0.5             	-7.02805501e-04	(7.02805501e-02 0.00000000e+00 0.00000000e+00)	1.53520000e+00
0.55            	-7.68646243e-04	(7.68646243e-02 0.00000000e+00 0.00000000e+00)	1.53520000e+00
0.6             	-8.33817680e-04	(8.33817680e-02 0.00000000e+00 0.00000000e+00)	1.53520000e+00
0.65            	-8.98356287e-04	(8.98356287e-02 0.00000000e+00 0.00000000e+00)	1.53520000e+00
0.7             	-9.62291204e-04	(9.62291204e-02 0.00000000e+00 0.00000000e+00)	1.53520000e+00
0.75            	-1.02564592e-03	(1.02564592e-01 0.00000000e+00 0.00000000e+00)	1.53520000e+00
0.8             	-1.08844127e-03	(1.08844127e-01 0.00000000e+00 0.00000000e+00)	1.53520000e+00
0.85            	-1.15069947e-03	(1.15069947e-01 0.00000000e+00 0.00000000e+00)	1.53520000e+00
0.9             	-1.21245305e-03	(1.21245305e-01 0.00000000e+00 0.00000000e+00)	1.53520000e+00
0.95            	-1.27368137e-03	(1.27368137e-01 0.00000000e+00 0.00000000e+00)	1.53520000e+00
1               	-1.33443387e-03	(1.33443387e-01 0.00000000e+00 0.00000000e+00)	1.53520000e+00
1.05            	-1.39469617e-03	(1.39469617e-01 0.00000000e+00 0.00000000e+00)	1.53520000e+00
1.1             	-1.45452405e-03	(1.45452405e-01 0.00000000e+00 0.00000000e+00)	1.53520000e+00
1.15            	-1.51388376e-03	(1.51388376e-01 0.00000000e+00 0.00000000e+00)	1.53520000e+00
1.2             	-1.57280972e-03	(1.57280972e-01 0.00000000e+00 0.00000000e+00)	1.53520000e+00
1.25            	-1.63133306e-03	(1.63133306e-01 0.00000000e+00 0.00000000e+00)	1.53520000e+00
1.3             	-1.68941853e-03	(1.68941853e-01 0.00000000e+00 0.00000000e+00)	1.53520000e+00
1.35            	-1.74709875e-03	(1.74709875e-01 0.00000000e+00 0.00000000e+00)	1.53520000e+00
1.4             	-1.80440441e-03	(1.80440441e-01 0.00000000e+00 0.00000000e+00)	1.53520000e+00
1.45            	-1.86129819e-03	(1.86129819e-01 0.00000000e+00 0.00000000e+00)	1.53520000e+00
1.5             	-1.91781305e-03	(1.91781305e-01 0.00000000e+00 0.00000000e+00)	1.53520000e+00
1.55            	-1.97397481e-03	(1.97397481e-01 0.00000000e+00 0.00000000e+00)	1.53520000e+00
1.6             	-2.02974670e-03	(2.02974670e-01 0.00000000e+00 0.00000000e+00)	1.53520000e+00
1.65            	-2.08516111e-03	(2.08516111e-01 0.00000000e+00 0.00000000e+00)	1.53520000e+00
1.7             	-2.14024055e-03	(2.14024055e-01 0.00000000e+00 0.00000000e+00)	1.53520000e+00
1.75            	-2.19494887e-03	(2.19494887e-01 0.00000000e+00 0.00000000e+00)	1.53520000e+00
1.8             	-2.24931849e-03	(2.24931849e-01 0.00000000e+00 0.00000000e+00)	1.53520000e+00
1.85            	-2.30336809e-03	(2.30336809e-01 0.00000000e+00 0.00000000e+00)	1.53520000e+00
1.9             	-2.35706292e-03	(2.35706292e-01 0.00000000e+00 0.00000000e+00)	1.53520000e+00
1.95            	-2.41043537e-03	(2.41043537e-01 0.00000000e+00 0.00000000e+00)	1.53520000e+00
2               	-2.46350043e-03	(2.46350043e-01 0.00000000e+00 0.00000000e+00)	1.53520000e+00
2.05            	-2.51622519e-03	(2.51622519e-01 0.00000000e+00 0.00000000e+00)	1.53520000e+00
2.1             	-2.56864201e-03	(2.56864201e-01 0.00000000e+00 0.00000000e+00)	1.53520000e+00
2.15            	-2.62076222e-03	(2.62076222e-01 0.00000000e+00 0.00000000e+00)	1.53520000e+00
2.2             	-2.67255509e-03	(2.67255509e-01 0.00000000e+00 0.00000000e+00)	1.53520000e+00
2.25            	-2.72405287e-03	(2.72405287e-01 0.00000000e+00 0.00000000e+00)	1.53520000e+00
2.3             	-2.77525550e-03	(2.77525550e-01 0.00000000e+00 0.00000000e+00)	1.53520000e+00
2.35            	-2.82615838e-03	(2.82615838e-01 0.00000000e+00 0.00000000e+00)	1.53520000e+00
2.4             	-2.87676988e-03	(2.87676988e-01 0.00000000e+00 0.00000000e+00)	1.53520000e+00
2.45            	-2.92709288e-03	(2.92709288e-01 0.00000000e+00 0.00000000e+00)	1.53520000e+00
2.5             	-2.97712971e-03	(2.97712971e-01 0.00000000e+00 0.00000000e+00)	1.53520000e+00
2.55            	-3.02688357e-03	(3.02688357e-01 0.00000000e+00 0.00000000e+00)	1.53520000e+00
2.6             	-3.07635743e-03	(3.07635743e-01 0.00000000e+00 0.00000000e+00)	1.53520000e+00
2.65            	-3.12555411e-03	(3.12555411e-01 0.00000000e+00 0.00000000e+00)	1.53520000e+00
2.7             	-3.17447641e-03	(3.17447641e-01 0.00000000e+00 0.00000000e+00)	1.53520000e+00
2.75            	-3.22312702e-03	(3.22312702e-01 0.00000000e+00 0.00000000e+00)	1.53520000e+00
2.8             	-3.27150856e-03	(3.27150856e-01 0.00000000e+00 0.00000000e+00)	1.53520000e+00
2.85            	-3.31962356e-03	(3.31962356e-01 0.00000000e+00 0.00000000e+00)	1.53520000e+00
2.9             	-3.36747451e-03	(3.36747451e-01 0.00000000e+00 0.00000000e+00)	1.53520000e+00
2.95            	-3.41506381e-03	(3.41506381e-01 0.00000000e+00 0.00000000e+00)	1.53520000e+00
3               	-3.46239380e-03	(3.46239380e-01 0.00000000e+00 0.00000000e+00)	1.53520000e+00
3.05            	-3.50946677e-03	(3.50946677e-01 0.00000000e+00 0.00000000e+00)	1.53520000e+00
3.1             	-3.55628495e-03	(3.55628495e-01 0.00000000e+00 0.00000000e+00)	1.53520000e+00
3.15            	-3.60285052e-03	(3.60285052e-01 0.00000000e+00 0.00000000e+00)	1.53520000e+00
3.2             	-3.64916559e-03	(3.64916559e-01 0.00000000e+00 0.00000000e+00)	1.53520000e+00
3.25            	-3.69523224e-03	(3.69523224e-01 0.00000000e+00 0.00000000e+00)	1.53520000e+00
3.3             	-3.74105249e-03	(3.74105249e-01 0.00000000e+00 0.00000000e+00)	1.53520000e+00
3.35            	-3.78662833e-03	(3.78662833e-01 0.00000000e+00 0.00000000e+00)	1.53520000e+00
3.4             	-3.83196170e-03	(3.83196170e-01 0.00000000e+00 0.00000000e+00)	1.53520000e+00
3.45            	-3.87705448e-03	(3.87705448e-01 0.00000000e+00 0.00000000e+00)	1.53520000e+00
3.5             	-3.92190854e-03	(3.92190854e-01 0.00000000e+00 0.00000000e+00)	1.53520000e+00
3.55            	-3.96652569e-03	(3.96652569e-01 0.00000000e+00 0.00000000e+00)	1.53520000e+00
3.6             	-4.01090773e-03	(4.01090773e-01 0.00000000e+00 0.00000000e+00)	1.53520000e+00
3.65            	-4.05505638e-03	(4.05505638e-01 0.00000000e+00 0.00000000e+00)	1.53520000e+00
3.7             	-4.09897338e-03	(4.09897338e-01 0.00000000e+00 0.00000000e+00)	1.53520000e+00
3.75            	-4.14266039e-03	(4.14266039e-01 0.00000000e+00 0.00000000e+00)	1.53520000e+00
3.8             	-4.18611907e-03	(4.18611907e-01 0.00000000e+00 0.00000000e+00)	1.53520000e+00
3.85            	-4.22935104e-03	(4.22935104e-01 0.00000000e+00 0.00000000e+00)	1.53520000e+00
3.9             	-4.27235790e-03	(4.27235790e-01 0.00000000e+00 0.00000000e+00)	1.53520000e+00
3.95            	-4.31514120e-03	(4.31514120e-01 0.00000000e+00 0.00000000e+00)	1.53520000e+00
4               	-4.35770248e-03	(4.35770248e-01 0.00000000e+00 0.00000000e+00)	1.53520000e+00
4.05            	-4.40004327e-03	(4.40004327e-01 0.00000000e+00 0.00000000e+00)	1.53520000e+00
4.1             	-4.44216504e-03	(4.44216504e-01 0.00000000e+00 0.00000000e+00)	1.53520000e+00
4.15            	-4.48406925e-03	(4.48406925e-01 0.00000000e+00 0.00000000e+00)	1.53520000e+00
4.2             	-4.52575736e-03	(4.52575736e-01 0.00000000e+00 0.00000000e+00)	1.53520000e+00
4.25            	-4.56723078e-03	(4.56723078e-01 0.00000000e+00 0.00000000e+00)	1.53520000e+00
4.3             	-4.60849092e-03	(4.60849092e-01 0.00000000e+00 0.00000000e+00)	1.53520000e+00
4.35            	-4.64953913e-03	(4.64953913e-01 0.00000000e+00 0.00000000e+00)	1.53520000e+00
4.4             	-4.69037680e-03	(4.69037680e-01 0.00000000e+00 0.00000000e+00)	1.53520000e+00
4.45            	-4.73100524e-03	(4.73100524e-01 0.00000000e+00 0.00000000e+00)	1.53520000e+00
4.5             	-4.77142580e-03	(4.77142580e-01 0.00000000e+00 0.00000000e+00)	1.53520000e+00
4.55            	-4.81163975e-03	(4.81163975e-01 0.00000000e+00 0.00000000e+00)	1.53520000e+00
4.6             	-4.85164840e-03	(4.85164840e-01 0.00000000e+00 0.00000000e+00)	1.53520000e+00
4.65            	-4.89145301e-03	(4.89145301e-01 0.00000000e+00 0.00000000e+00)	1.53520000e+00
4.7             	-4.93105483e-03	(4.93105483e-01 0.00000000e+00 0.00000000e+00)	1.53520000e+00
4.75            	-4.97045509e-03	(4.97045509e-01 0.00000000e+00 0.00000000e+00)	1.53520000e+00
4.8             	-5.00965503e-03	(5.00965503e-01 0.00000000e+00 0.00000000e+00)	1.53520000e+00
4.85            	-5.04865584e-03	(5.04865584e-01 0.00000000e+00 0.00000000e+00)	1.53520000e+00
4.9             	-5.08745872e-03	(5.08745872e-01 0.00000000e+00 0.00000000e+00)	1.53520000e+00
4.95            	-5.12606484e-03	(5.12606484e-01 0.00000000e+00 0.00000000e+00)	1.53520000e+00
5               	-5.16447538e-03	(5.16447538e-01 0.00000000e+00 0.00000000e+00)	1.53520000e+00
5.05            	-5.20269146e-03	(5.20269146e-01 0.00000000e+00 0.00000000e+00)	1.53520000e+00
5.1             	-5.24071426e-03	(5.24071426e-01 0.00000000e+00 0.00000000e+00)	1.53520000e+00
5.15            	-5.27854488e-03	(5.27854488e-01 0.00000000e+00 0.00000000e+00)	1.53520000e+00
5.2             	-5.31618445e-03	(5.31618445e-01 0.00000000e+00 0.00000000e+00)	1.53520000e+00
5.25            	-5.35363406e-03	(5.35363406e-01 0.00000000e+00 0.00000000e+00)	1.53520000e+00
5.3             	-5.39089481e-03	(5.39089481e-01 0.00000000e+00 0.00000000e+00)	1.53520000e+00
5.35            	-5.42796777e-03	(5.42796777e-01 0.00000000e+00 0.00000000e+00)	1.53520000e+00
5.4             	-5.46485402e-03	(5.46485402e-01 0.00000000e+00 0.00000000e+00)	1.53520000e+00
5.45            	-5.50155463e-03	(5.50155463e-01 0.00000000e+00 0.00000000e+00)	1.53520000e+00
5.5             	-5.53807062e-03	(5.53807062e-01 0.00000000e+00 0.00000000e+00)	1.53520000e+00
5.55            	-5.57440305e-03	(5.57440305e-01 0.00000000e+00 0.00000000e+00)	1.53520000e+00
5.6             	-5.61055295e-03	(5.61055295e-01 0.00000000e+00 0.00000000e+00)	1.53520000e+00
5.65            	-5.64652134e-03	(5.64652134e-01 0.00000000e+00 0.00000000e+00)	1.53520000e+00
5.7             	-5.68230921e-03	(5.68230921e-01 0.00000000e+00 0.00000000e+00)	1.53520000e+00
5.75            	-5.71791759e-03	(5.71791759e-01 0.00000000e+00 0.00000000e+00)	1.53520000e+00
5.8             	-5.75334745e-03	(5.75334745e-01 0.00000000e+00 0.00000000e+00)	1.53520000e+00
5.85            	-5.78859980e-03	(5.78859980e-01 0.00000000e+00 0.00000000e+00)	1.53520000e+00
5.9             	-5.82367560e-03	(5.82367560e-01 0.00000000e+00 0.00000000e+00)	1.53520000e+00
5.95            	-5.85857583e-03	(5.85857583e-01 0.00000000e+00 0.00000000e+00)	1.53520000e+00
6               	-5.89330143e-03	(5.89330143e-01 0.00000000e+00 0.00000000e+00)	1.53520000e+00
6.05            	-5.92785337e-03	(5.92785337e-01 0.00000000e+00 0.00000000e+00)	1.53520000e+00
6.1             	-5.96223259e-03	(5.96223259e-01 0.00000000e+00 0.00000000e+00)	1.53520000e+00
6.15            	-5.99644003e-03	(5.99644003e-01 0.00000000e+00 0.00000000e+00)	1.53520000e+00
6.2             	-6.03047661e-03	(6.03047661e-01 0.00000000e+00 0.00000000e+00)	1.53520000e+00
6.25            	-6.06434327e-03	(6.06434327e-01 0.00000000e+00 0.00000000e+00)	1.53520000e+00
6.3             	-6.09804092e-03	(6.09804092e-01 0.00000000e+00 0.00000000e+00)	1.53520000e+00
6.35            	-6.13157046e-03	(6.13157046e-01 0.00000000e+00 0.00000000e+00)	1.53520000e+00
6.4             	-6.16493280e-03	(6.16493280e-01 0.00000000e+00 0.00000000e+00)	1.53520000e+00
6.45            	-6.19812882e-03	(6.19812882e-01 0.00000000e+00 0.00000000e+00)	1.53520000e+00
6.5             	-6.23115943e-03	(6.23115943e-01 0.00000000e+00 0.00000000e+00)	1.53520000e+00
6.55            	-6.26402549e-03	(6.26402549e-01 0.00000000e+00 0.00000000e+00)	1.53520000e+00
6.6             	-6.29672790e-03	(6.29672790e-01 0.00000000e+00 0.00000000e+00)	1.53520000e+00
6.65            	-6.32926751e-03	(6.32926751e-01 0.00000000e+00 0.00000000e+00)	1.53520000e+00
6.7             	-6.36164520e-03	(6.36164520e-01 0.00000000e+00 0.00000000e+00)	1.53520000e+00
6.75            	-6.39386182e-03	(6.39386182e-01 0.00000000e+00 0.00000000e+00)	1.53520000e+00
6.8             	-6.42591823e-03	(6.42591823e-01 0.00000000e+00 0.00000000e+00)	1.53520000e+00
6.85            	-6.45781526e-03	(6.45781526e-01 0.00000000e+00 0.00000000e+00)	1.53520000e+00
6.9             	-6.48955376e-03	(6.48955376e-01 0.00000000e+00 0.00000000e+00)	1.53520000e+00
6.95            	-6.52113458e-03	(6.52113458e-01 0.00000000e+00 0.00000000e+00)	1.53520000e+00
7               	-6.55255852e-03	(6.55255852e-01 0.00000000e+00 0.00000000e+00)	1.53520000e+00
7.05            	-6.58382641e-03	(6.58382641e-01 0.00000000e+00 0.00000000e+00)	1.53520000e+00
7.1             	-6.61493908e-03	(6.61493908e-01 0.00000000e+00 0.00000000e+00)	1.53520000e+00
7.15            	-6.64589733e-03	(6.64589733e-01 0.00000000e+00 0.00000000e+00)	1.53520000e+00
7.2             	-6.67670198e-03	(6.67670198e-01 0.00000000e+00 0.00000000e+00)	1.53520000e+00
7.25            	-6.70735384e-03	(6.70735384e-01 0.00000000e+00 0.00000000e+00)	1.53520000e+00
7.3             	-6.73785369e-03	(6.73785369e-01 0.00000000e+00 0.00000000e+00)	1.53520000e+00
7.35            	-6.76820235e-03	(6.76820235e-01 0.00000000e+00 0.00000000e+00)	1.53520000e+00
7.4             	-6.79840059e-03	(6.79840059e-01 0.00000000e+00 0.00000000e+00)	1.53520000e+00
7.45            	-6.82844917e-03	(6.82844917e-01 0.00000000e+00 0.00000000e+00)	1.53520000e+00
7.5             	-6.85834890e-03	(6.85834890e-01 0.00000000e+00 0.00000000e+00)	1.53520000e+00
7.55            	-6.88810054e-03	(6.88810054e-01 0.00000000e+00 0.00000000e+00)	1.53520000e+00
7.6             	-6.91770486e-03	(6.91770486e-01 0.00000000e+00 0.00000000e+00)	1.53520000e+00
7.65            	-6.94716263e-03	(6.94716263e-01 0.00000000e+00 0.00000000e+00)	1.53520000e+00
7.7             	-6.97647460e-03	(6.97647460e-01 0.00000000e+00 0.00000000e+00)	1.53520000e+00
7.75            	-7.00564153e-03	(7.00564153e-01 0.00000000e+00 0.00000000e+00)	1.53520000e+00
7.8             	-7.03466417e-03	(7.03466417e-01 0.00000000e+00 0.00000000e+00)	1.53520000e+00
7.85            	-7.06354327e-03	(7.06354327e-01 0.00000000e+00 0.00000000e+00)	1.53520000e+00
7.9             	-7.09227956e-03	(7.09227956e-01 0.00000000e+00 0.00000000e+00)	1.53520000e+00
7.95            	-7.12087379e-03	(7.12087379e-01 0.00000000e+00 0.00000000e+00)	1.53520000e+00
8               	-7.14932668e-03	(7.14932668e-01 0.00000000e+00 0.00000000e+00)	1.53520000e+00
8.05            	-7.17763896e-03	(7.17763896e-01 0.00000000e+00 0.00000000e+00)	1.53520000e+00
8.1             	-7.20581136e-03	(7.20581136e-01 0.00000000e+00 0.00000000e+00)	1.53520000e+00
8.15            	-7.23384463e-03	(7.23384463e-01 0.00000000e+00 0.00000000e+00)	1.53520000e+00
8.2             	-7.26173947e-03	(7.26173947e-01 0.00000000e+00 0.00000000e+00)	1.53520000e+00
8.25            	-7.28949655e-03	(7.28949655e-01 0.00000000e+00 0.00000000e+00)	1.53520000e+00
8.3             	-7.31711659e-03	(7.31711659e-01 0.00000000e+00 0.00000000e+00)	1.53520000e+00
8.35            	-7.34460031e-03	(7.34460031e-01 0.00000000e+00 0.00000000e+00)	1.53520000e+00
8.4             	-7.37194843e-03	(7.37194843e-01 0.00000000e+00 0.00000000e+00)	1.53520000e+00
8.45            	-7.39916162e-03	(7.39916162e-01 0.00000000e+00 0.00000000e+00)	1.53520000e+00
8.5             	-7.42624059e-03	(7.42624059e-01 0.00000000e+00 0.00000000e+00)	1.53520000e+00
8.55            	-7.45318600e-03	(7.45318600e-01 0.00000000e+00 0.00000000e+00)	1.53520000e+00
8.6             	-7.47999856e-03	(7.47999856e-01 0.00000000e+00 0.00000000e+00)	1.53520000e+00
8.65            	-7.50667894e-03	(7.50667894e-01 0.00000000e+00 0.00000000e+00)	1.53520000e+00
8.7             	-7.53322782e-03	(7.53322782e-01 0.00000000e+00 0.00000000e+00)	1.53520000e+00
8.75            	-7.55964587e-03	(7.55964587e-01 0.00000000e+00 0.00000000e+00)	1.53520000e+00
8.8             	-7.58593376e-03	(7.58593376e-01 0.00000000e+00 0.00000000e+00)	1.53520000e+00
8.85            	-7.61209215e-03	(7.61209215e-01 0.00000000e+00 0.00000000e+00)	1.53520000e+00
8.9             	-7.63812172e-03	(7.63812172e-01 0.00000000e+00 0.00000000e+00)	1.53520000e+00
8.95            	-7.66402311e-03	(7.66402311e-01 0.00000000e+00 0.00000000e+00)	1.53520000e+00
9               	-7.68979698e-03	(7.68979698e-01 0.00000000e+00 0.00000000e+00)	1.53520000e+00
9.05            	-7.71544398e-03	(7.71544398e-01 0.00000000e+00 0.00000000e+00)	1.53520000e+00
9.1             	-7.74096476e-03	(7.74096476e-01 0.00000000e+00 0.00000000e+00)	1.53520000e+00
9.15            	-7.76635997e-03	(7.76635997e-01 0.00000000e+00 0.00000000e+00)	1.53520000e+00
9.2             	-7.79163024e-03	(7.79163024e-01 0.00000000e+00 0.00000000e+00)	1.53520000e+00
9.25            	-7.81677622e-03	(7.81677622e-01 0.00000000e+00 0.00000000e+00)	1.53520000e+00
9.3             	-7.84179853e-03	(7.84179853e-01 0.00000000e+00 0.00000000e+00)	1.53520000e+00
9.35            	-7.86669780e-03	(7.86669780e-01 0.00000000e+00 0.00000000e+00)	1.53520000e+00
9.4             	-7.89147470e-03	(7.89147470e-01 0.00000000e+00 0.00000000e+00)	1.53520000e+00
9.45            	-7.91612980e-03	(7.91612980e-01 0.00000000e+00 0.00000000e+00)	1.53520000e+00
9.5             	-7.94066370e-03	(7.94066370e-01 0.00000000e+00 0.00000000e+00)	1.53520000e+00
9.55            	-7.96507705e-03	(7.96507705e-01 0.00000000e+00 0.00000000e+00)	1.53520000e+00
9.6             	-7.98937048e-03	(7.98937048e-01 0.00000000e+00 0.00000000e+00)	1.53520000e+00
9.65            	-8.01354459e-03	(8.01354459e-01 0.00000000e+00 0.00000000e+00)	1.53520000e+00
9.7             	-8.03760001e-03	(8.03760001e-01 0.00000000e+00 0.00000000e+00)	1.53520000e+00
9.75            	-8.06153735e-03	(8.06153735e-01 0.00000000e+00 0.00000000e+00)	1.53520000e+00
9.8             	-8.08535716e-03	(8.08535716e-01 0.00000000e+00 0.00000000e+00)	1.53520000e+00
9.85            	-8.10906004e-03	(8.10906004e-01 0.00000000e+00 0.00000000e+00)	1.53520000e+00
9.9             	-8.13264659e-03	(8.13264659e-01 0.00000000e+00 0.00000000e+00)	1.53520000e+00
9.95            	-8.15611743e-03	(8.15611743e-01 0.00000000e+00 0.00000000e+00)	1.53520000e+00
10              	-8.17947313e-03	(8.17947313e-01 0.00000000e+00 0.00000000e+00)	1.53520000e+00
10.05           	-8.20271429e-03	(8.20271429e-01 0.00000000e+00 0.00000000e+00)	1.53520000e+00
10.1            	-8.22584148e-03	(8.22584148e-01 0.00000000e+00 0.00000000e+00)	1.53520000e+00
10.15           	-8.24885528e-03	(8.24885528e-01 0.00000000e+00 0.00000000e+00)	1.53520000e+00
10.2            	-8.27175626e-03	(8.27175626e-01 0.00000000e+00 0.00000000e+00)	1.53520000e+00
10.25           	-8.29454500e-03	(8.29454500e-01 0.00000000e+00 0.00000000e+00)	1.53520000e+00
10.3            	-8.31722207e-03	(8.31722207e-01 0.00000000e+00 0.00000000e+00)	1.53520000e+00
10.35           	-8.33978803e-03	(8.33978803e-01 0.00000000e+00 0.00000000e+00)	1.53520000e+00
10.4            	-8.36224344e-03	(8.36224344e-01 0.00000000e+00 0.00000000e+00)	1.53520000e+00
10.45           	-8.38458888e-03	(8.38458888e-01 0.00000000e+00 0.00000000e+00)	1.53520000e+00
10.5            	-8.40682489e-03	(8.40682489e-01 0.00000000e+00 0.00000000e+00)	1.53520000e+00
10.55           	-8.42895204e-03	(8.42895204e-01 0.00000000e+00 0.00000000e+00)	1.53520000e+00
10.6            	-8.45097087e-03	(8.45097087e-01 0.00000000e+00 0.00000000e+00)	1.53520000e+00
10.65           	-8.47288193e-03	(8.47288193e-01 0.00000000e+00 0.00000000e+00)	1.53520000e+00
10.7            	-8.49468577e-03	(8.49468577e-01 0.00000000e+00 0.00000000e+00)	1.53520000e+00
10.75           	-8.51638293e-03	(8.51638293e-01 0.00000000e+00 0.00000000e+00)	1.53520000e+00
10.8            	-8.53797396e-03	(8.53797396e-01 0.00000000e+00 0.00000000e+00)	1.53520000e+00
10.85           	-8.55945939e-03	(8.55945939e-01 0.00000000e+00 0.00000000e+00)	1.53520000e+00
10.9            	-8.58083975e-03	(8.58083975e-01 0.00000000e+00 0.00000000e+00)	1.53520000e+00
10.95           	-8.60211559e-03	(8.60211559e-01 0.00000000e+00 0.00000000e+00)	1.53520000e+00
11              	-8.62328742e-03	(8.62328742e-01 0.00000000e+00 0.00000000e+00)	1.53520000e+00
11.05           	-8.64435573e-03	(8.64435573e-01 0.00000000e+00 0.00000000e+00)	1.53520000e+00
11.1            	-8.66532107e-03	(8.66532107e-01 0.00000000e+00 0.00000000e+00)	1.53520000e+00
11.15           	-8.68618402e-03	(8.68618402e-01 0.00000000e+00 0.00000000e+00)	1.53520000e+00
11.2            	-8.70694511e-03	(8.70694511e-01 0.00000000e+00 0.00000000e+00)	1.53520000e+00
11.25           	-8.72760484e-03	(8.72760484e-01 0.00000000e+00 0.00000000e+00)	1.53520000e+00
11.3            	-8.74816372e-03	(8.74816372e-01 0.00000000e+00 0.00000000e+00)	1.53520000e+00
11.35           	-8.76862213e-03	(8.76862213e-01 0.00000000e+00 0.00000000e+00)	1.53520000e+00
11.4            	-8.78898062e-03	(8.78898062e-01 0.00000000e+00 0.00000000e+00)	1.53520000e+00
11.45           	-8.80923976e-03	(8.80923976e-01 0.00000000e+00 0.00000000e+00)	1.53520000e+00
11.5            	-8.82940007e-03	(8.82940007e-01 0.00000000e+00 0.00000000e+00)	1.53520000e+00
11.55           	-8.84946204e-03	(8.84946204e-01 0.00000000e+00 0.00000000e+00)	1.53520000e+00
11.6            	-8.86942615e-03	(8.86942615e-01 0.00000000e+00 0.00000000e+00)	1.53520000e+00
11.65           	-8.88929288e-03	(8.88929288e-01 0.00000000e+00 0.00000000e+00)	1.53520000e+00
11.7            	-8.90906274e-03	(8.90906274e-01 0.00000000e+00 0.00000000e+00)	1.53520000e+00
11.75           	-8.92873620e-03	(8.92873620e-01 0.00000000e+00 0.00000000e+00)	1.53520000e+00
11.8            	-8.94831377e-03	(8.94831377e-01 0.00000000e+00 0.00000000e+00)	1.53520000e+00
11.85           	-8.96779592e-03	(8.96779592e-01 0.00000000e+00 0.00000000e+00)	1.53520000e+00
11.9            	-8.98718313e-03	(8.98718313e-01 0.00000000e+00 0.00000000e+00)	1.53520000e+00
11.95           	-9.00647589e-03	(9.00647589e-01 0.00000000e+00 0.00000000e+00)	1.53520000e+00
12              	-9.02567468e-03	(9.02567468e-01 0.00000000e+00 0.00000000e+00)	1.53520000e+00
12.05           	-9.04477995e-03	(9.04477995e-01 0.00000000e+00 0.00000000e+00)	1.53520000e+00
12.1            	-9.06379220e-03	(9.06379220e-01 0.00000000e+00 0.00000000e+00)	1.53520000e+00
12.15           	-9.08271188e-03	(9.08271188e-01 0.00000000e+00 0.00000000e+00)	1.53520000e+00
12.2            	-9.10153946e-03	(9.10153946e-01 0.00000000e+00 0.00000000e+00)	1.53520000e+00
12.25           	-9.12027541e-03	(9.12027541e-01 0.00000000e+00 0.00000000e+00)	1.53520000e+00
12.3            	-9.13892019e-03	(9.13892019e-01 0.00000000e+00 0.00000000e+00)	1.53520000e+00
12.35           	-9.15747426e-03	(9.15747426e-01 0.00000000e+00 0.00000000e+00)	1.53520000e+00
12.4            	-9.17593808e-03	(9.17593808e-01 0.00000000e+00 0.00000000e+00)	1.53520000e+00
12.45           	-9.19431209e-03	(9.19431209e-01 0.00000000e+00 0.00000000e+00)	1.53520000e+00
12.5            	-9.21259676e-03	(9.21259676e-01 0.00000000e+00 0.00000000e+00)	1.53520000e+00
12.55           	-9.23079253e-03	(9.23079253e-01 0.00000000e+00 0.00000000e+00)	1.53520000e+00
12.6            	-9.24889985e-03	(9.24889985e-01 0.00000000e+00 0.00000000e+00)	1.53520000e+00
12.65           	-9.26691916e-03	(9.26691916e-01 0.00000000e+00 0.00000000e+00)	1.53520000e+00
12.7            	-9.28485091e-03	(9.28485091e-01 0.00000000e+00 0.00000000e+00)	1.53520000e+00
12.75           	-9.30269555e-03	(9.30269555e-01 0.00000000e+00 0.00000000e+00)	1.53520000e+00
12.8            	-9.32045349e-03	(9.32045349e-01 0.00000000e+00 0.00000000e+00)	1.53520000e+00
12.85           	-9.33812520e-03	(9.33812520e-01 0.00000000e+00 0.00000000e+00)	1.53520000e+00
12.9            	-9.35571109e-03	(9.35571109e-01 0.00000000e+00 0.00000000e+00)	1.53520000e+00
12.95           	-9.37321159e-03	(9.37321159e-01 0.00000000e+00 0.00000000e+00)	1.53520000e+00
13              	-9.39062715e-03	(9.39062715e-01 0.00000000e+00 0.00000000e+00)	1.53520000e+00
13.05           	-9.40795818e-03	(9.40795818e-01 0.00000000e+00 0.00000000e+00)	1.53520000e+00
13.1            	-9.42520511e-03	(9.42520511e-01 0.00000000e+00 0.00000000e+00)	1.53520000e+00
13.15           	-9.44236836e-03	(9.44236836e-01 0.00000000e+00 0.00000000e+00)	1.53520000e+00
13.2            	-9.45944835e-03	(9.45944835e-01 0.00000000e+00 0.00000000e+00)	1.53520000e+00
13.25           	-9.47644550e-03	(9.47644550e-01 0.00000000e+00 0.00000000e+00)	1.53520000e+00
13.3            	-9.49336023e-03	(9.49336023e-01 0.00000000e+00 0.00000000e+00)	1.53520000e+00
13.35           	-9.51019295e-03	(9.51019295e-01 0.00000000e+00 0.00000000e+00)	1.53520000e+00
13.4            	-9.52694408e-03	(9.52694408e-01 0.00000000e+00 0.00000000e+00)	1.53520000e+00
13.45           	-9.54361401e-03	(9.54361401e-01 0.00000000e+00 0.00000000e+00)	1.53520000e+00
13.5            	-9.56020316e-03	(9.56020316e-01 0.00000000e+00 0.00000000e+00)	1.53520000e+00
13.55           	-9.57671194e-03	(9.57671194e-01 0.00000000e+00 0.00000000e+00)	1.53520000e+00
13.6            	-9.59314074e-03	(9.59314074e-01 0.00000000e+00 0.00000000e+00)	1.53520000e+00
13.65           	-9.60948997e-03	(9.60948997e-01 0.00000000e+00 0.00000000e+00)	1.53520000e+00
13.7            	-9.62576003e-03	(9.62576003e-01 0.00000000e+00 0.00000000e+00)	1.53520000e+00
13.75           	-9.64195132e-03	(9.64195132e-01 0.00000000e+00 0.00000000e+00)	1.53520000e+00
13.8            	-9.65806422e-03	(9.65806422e-01 0.00000000e+00 0.00000000e+00)	1.53520000e+00
13.85           	-9.67409913e-03	(9.67409913e-01 0.00000000e+00 0.00000000e+00)	1.53520000e+00
13.9            	-9.69005645e-03	(9.69005645e-01 0.00000000e+00 0.00000000e+00)	1.53520000e+00
13.95           	-9.70593656e-03	(9.70593656e-01 0.00000000e+00 0.00000000e+00)	1.53520000e+00
14              	-9.72173984e-03	(9.72173984e-01 0.00000000e+00 0.00000000e+00)	1.53520000e+00
14.05           	-9.73746669e-03	(9.73746669e-01 0.00000000e+00 0.00000000e+00)	1.53520000e+00
14.1            	-9.75311748e-03	(9.75311748e-01 0.00000000e+00 0.00000000e+00)	1.53520000e+00
14.15           	-9.76869260e-03	(9.76869260e-01 0.00000000e+00 0.00000000e+00)	1.53520000e+00
14.2            	-9.78419242e-03	(9.78419242e-01 0.00000000e+00 0.00000000e+00)	1.53520000e+00
14.25           	-9.79961733e-03	(9.79961733e-01 0.00000000e+00 0.00000000e+00)	1.53520000e+00
14.3            	-9.81496769e-03	(9.81496769e-01 0.00000000e+00 0.00000000e+00)	1.53520000e+00
14.35           	-9.83024387e-03	(9.83024387e-01 0.00000000e+00 0.00000000e+00)	1.53520000e+00
14.4            	-9.84544626e-03	(9.84544626e-01 0.00000000e+00 0.00000000e+00)	1.53520000e+00
14.45           	-9.86057522e-03	(9.86057522e-01 0.00000000e+00 0.00000000e+00)	1.53520000e+00
14.5            	-9.87563111e-03	(9.87563111e-01 0.00000000e+00 0.00000000e+00)	1.53520000e+00
14.55           	-9.89061430e-03	(9.89061430e-01 0.00000000e+00 0.00000000e+00)	1.53520000e+00
14.6            	-9.90552516e-03	(9.90552516e-01 0.00000000e+00 0.00000000e+00)	1.53520000e+00
14.65           	-9.92036404e-03	(9.92036404e-01 0.00000000e+00 0.00000000e+00)	1.53520000e+00
14.7            	-9.93513131e-03	(9.93513131e-01 0.00000000e+00 0.00000000e+00)	1.53520000e+00
14.75           	-9.94982732e-03	(9.94982732e-01 0.00000000e+00 0.00000000e+00)	1.53520000e+00
14.8            	-9.96445242e-03	(9.96445242e-01 0.00000000e+00 0.00000000e+00)	1.53520000e+00
14.85           	-9.97900698e-03	(9.97900698e-01 0.00000000e+00 0.00000000e+00)	1.53520000e+00
14.9            	-9.99349135e-03	(9.99349135e-01 0.00000000e+00 0.00000000e+00)	1.53520000e+00
14.95           	-1.00079059e-02	(1.00079059e+00 0.00000000e+00 0.00000000e+00)	1.53520000e+00
15              	-1.00222509e-02	(1.00222509e+00 0.00000000e+00 0.00000000e+00)	1.53520000e+00
15.05           	-1.00365268e-02	(1.00365268e+00 0.00000000e+00 0.00000000e+00)	1.53520000e+00
15.1            	-1.00507338e-02	(1.00507338e+00 0.00000000e+00 0.00000000e+00)	1.53520000e+00
15.15           	-1.00648724e-02	(1.00648724e+00 0.00000000e+00 0.00000000e+00)	1.53520000e+00
15.2            	-1.00789429e-02	(1.00789429e+00 0.00000000e+00 0.00000000e+00)	1.53520000e+00
15.25           	-1.00929456e-02	(1.00929456e+00 0.00000000e+00 0.00000000e+00)	1.53520000e+00
15.3            	-1.01068808e-02	(1.01068808e+00 0.00000000e+00 0.00000000e+00)	1.53520000e+00
15.35           	-1.01207490e-02	(1.01207490e+00 0.00000000e+00 0.00000000e+00)	1.53520000e+00
15.4            	-1.01345504e-02	(1.01345504e+00 0.00000000e+00 0.00000000e+00)	1.53520000e+00
15.45           	-1.01482853e-02	(1.01482853e+00 0.00000000e+00 0.00000000e+00)	1.53520000e+00
15.5            	-1.01619541e-02	(1.01619541e+00 0.00000000e+00 0.00000000e+00)	1.53520000e+00
15.55           	-1.01755571e-02	(1.01755571e+00 0.00000000e+00 0.00000000e+00)	1.53520000e+00
15.6            	-1.01890947e-02	(1.01890947e+00 0.00000000e+00 0.00000000e+00)	1.53520000e+00
15.65           	-1.02025672e-02	(1.02025672e+00 0.00000000e+00 0.00000000e+00)	1.53520000e+00