/*--------------------------------*- C++ -*----------------------------------*\
| =========                 |                                                 |
| \\      /  F ield         | OpenFOAM: The Open Source CFD Toolbox           |
|  \\    /   O peration     | Version:  v1812                                 |
|   \\  /    A nd           | Web:      www.OpenFOAM.com                      |
|    \\/     M anipulation  |                                                 |
\*---------------------------------------------------------------------------*/
FoamFile
{
    version     2.0;
    format      ascii;
    class       surfaceScalarField;
    location    "6.6";
    object      phi;
}
// * * * * * * * * * * * * * * * * * * * * * * * * * * * * * * * * * * * * * //

dimensions      [0 3 -1 0 0 0 0];
oriented        oriented;


internalField   nonuniform List<scalar> 
1890
(
0.0093061957
0.00069380425
0.0082843931
0.0010218027
0.0073298986
0.00095449449
0.0064869553
0.00084294334
0.0057695845
0.0007173708
0.00518986
0.00057972444
0.004738168
0.00045169205
0.00439519
0.00034297801
0.0041390268
0.00025616318
0.003949107
0.00018991983
0.003807888
0.00014121897
0.0037013782
0.0001065098
0.003619058
8.2320222e-05
0.0035534117
6.5646247e-05
0.0034992845
5.4127259e-05
0.0034532444
4.6040055e-05
0.0034130501
4.01943e-05
0.0033772573
3.5792764e-05
0.0033449386
3.2318765e-05
0.0033154893
2.9449286e-05
0.0032885007
2.6988581e-05
0.0032636804
2.4820307e-05
0.0032408049
2.2875491e-05
0.0032196925
2.1112436e-05
0.0032001878
1.9504685e-05
0.0031821537
1.8034057e-05
0.0031654669
1.6686778e-05
0.0031500155
1.5451426e-05
0.0031356976
1.4317935e-05
0.0031224204
1.3277157e-05
0.0031100997
1.2320696e-05
0.0030986589
1.1440851e-05
0.0030880283
1.0630598e-05
0.0030781447
9.8835656e-06
0.0030689507
9.1940023e-06
0.003060394
8.5567352e-06
0.0030524269
7.9671183e-06
0.0030450059
7.4209788e-06
0.0030380913
6.9145624e-06
0.0030316469
6.4444788e-06
0.0030256393
6.0076556e-06
0.003020038
5.6012909e-06
0.0030148152
5.2228204e-06
0.0030099454
4.8698788e-06
0.0030054052
4.5402821e-06
0.0030011733
4.2320001e-06
0.0029972303
3.9431547e-06
0.0029935584
3.6719981e-06
0.0029901416
3.4169275e-06
0.0029869653
3.1764667e-06
0.0029840162
2.949293e-06
0.0029812821
2.7342156e-06
0.0029787521
2.5302103e-06
0.0029764159
2.3363898e-06
0.0029742641
2.1520392e-06
0.0029722877
1.9765759e-06
0.0029704783
1.8095813e-06
0.0029688277
1.650748e-06
0.0029673279
1.4999047e-06
0.0029659711
1.3569569e-06
0.0029647493
1.2219033e-06
0.0029636546
1.0947734e-06
0.0029626789
9.7563815e-07
0.0029618144
8.6455442e-07
0.0029610528
7.6157169e-07
0.0029603861
6.6668767e-07
0.0029598061
5.7985441e-07
0.0029593051
5.0095264e-07
0.0029588752
4.2979673e-07
0.002958509
3.6612784e-07
0.0029581993
3.0961793e-07
0.0029579393
2.5988265e-07
0.0029577228
2.1647999e-07
0.0029575438
1.7893869e-07
0.0029573969
1.4674877e-07
0.0029572775
1.1940225e-07
0.002957181
9.6372718e-08
0.0029571038
7.7162722e-08
0.0029570425
6.1275165e-08
0.0029569942
4.8263004e-08
0.0029569565
3.7693936e-08
0.0029569273
2.9197341e-08
0.0029569049
2.2422228e-08
0.0029568878
1.7081303e-08
0.0029568749
1.2904448e-08
0.0029568652
9.6774096e-09
0.0029568579
7.2002433e-09
0.0029568526
5.3188595e-09
0.0029568487
3.8956221e-09
0.0029568459
2.8279733e-09
0.0029568439
2.0332816e-09
0.0029568425
1.449894e-09
0.0029568415
1.0355356e-09
0.0029568408
7.5141549e-10
0.0029568401
5.8401265e-10
0.0029568396
5.0482572e-10
0.002956839
5.2196729e-10
0.0029568384
6.5035183e-10
0.0029568374
1.0175883e-09
1.4464592e-09
0.010339525
0.00035427932
0.010570754
0.00079057335
0.010606301
0.00091894821
0.010547572
0.00090167137
0.010422317
0.00084262624
0.010244356
0.00075768559
0.010039421
0.00065662744
0.0098287427
0.00055365586
0.009625135
0.00045977083
0.0094353013
0.00037975354
0.0092624277
0.00031409259
0.0091075332
0.00026140426
0.0089701539
0.00021969949
0.0088489023
0.00018689787
0.0087419715
0.00016105804
0.0086474926
0.00014051896
0.0085636939
0.00012399298
0.0084890107
0.00011047602
0.0084221096
9.9219885e-05
0.0083618775
8.9681416e-05
0.0083073954
8.1470682e-05
0.0082579078
7.4307865e-05
0.0082127928
6.7990524e-05
0.0081715352
6.2370029e-05
0.0081337048
5.7335067e-05
0.0080989386
5.2800247e-05
0.008066927
4.8698336e-05
0.0080374034
4.4975024e-05
0.0080101359
4.1585453e-05
0.0079849212
3.8491892e-05
0.0079615797
3.5662172e-05
0.007939952
3.306858e-05
0.0079198955
3.0687059e-05
0.0079012825
2.8496595e-05
0.0078839977
2.6478746e-05
0.0078679372
2.4617248e-05
0.0078530066
2.28977e-05
0.0078391203
2.1307291e-05
0.0078262003
1.9834574e-05
0.0078141755
1.8469269e-05
0.0078029811
1.7202093e-05
0.0077925577
1.602462e-05
0.0077828514
1.4929159e-05
0.0077738127
1.3908658e-05
0.0077653963
1.2956622e-05
0.0077575613
1.2067058e-05
0.0077502701
1.1234423e-05
0.0077434885
1.0453612e-05
0.0077371855
9.7199237e-06
0.007731333
9.0290812e-06
0.0077259051
8.3772086e-06
0.0077208785
7.7608726e-06
0.0077162317
7.177051e-06
0.007711945
6.623182e-06
0.007708
6.0971145e-06
0.0077043794
5.5971479e-06
0.0077010671
5.1219577e-06
0.0076980472
4.6706159e-06
0.0076953046
4.2424948e-06
0.0076928243
3.8372636e-06
0.0076905914
3.454779e-06
0.007688591
3.0950632e-06
0.0076868084
2.758197e-06
0.0076852286
2.4442884e-06
0.0076838366
2.1533838e-06
0.0076826177
1.8854375e-06
0.0076815572
1.6402556e-06
0.0076806405
1.4174748e-06
0.0076798536
1.2165444e-06
0.0076791829
1.0367169e-06
0.0076786153
8.7706913e-07
0.0076781386
7.365009e-07
0.0076777412
6.1378749e-07
0.0076774124
5.0757962e-07
0.0076771426
4.164754e-07
0.0076769229
3.3901482e-07
0.0076767454
2.7375894e-07
0.0076766032
2.1927289e-07
0.0076764902
1.7420486e-07
0.0076764012
1.3725581e-07
0.0076763316
1.0725359e-07
0.0076762777
8.3103157e-08
0.0076762363
6.385901e-08
0.0076762047
4.8654062e-08
0.0076761808
3.6772544e-08
0.0076761629
2.755882e-08
0.0076761495
2.0498792e-08
0.0076761397
1.5116327e-08
0.0076761326
1.1068398e-08
0.0076761274
8.0245278e-09
0.0076761237
5.7819475e-09
0.0076761211
4.1230174e-09
0.0076761192
2.9469407e-09
0.0076761178
2.1172999e-09
0.0076761168
1.584753e-09
0.007676116
1.2826004e-09
0.0076761153
1.1613559e-09
0.0076761147
1.269215e-09
0.0076761143
1.4940343e-09
1.9080858e-09
0.010188704
0.00016557515
0.010530487
0.000448791
0.010851453
0.00059798178
0.011124174
0.00062895025
0.011350581
0.00061621887
0.011524486
0.00058378056
0.01164633
0.00053478421
0.011724155
0.0004758305
0.011767999
0.00041592666
0.011786639
0.000361114
0.011787114
0.00031361712
0.011775058
0.00027346027
0.011754861
0.0002398972
0.011729768
0.00021199033
0.011702054
0.00018877262
0.011673239
0.0001693339
0.011644339
0.00015289298
0.011616003
0.00013881185
0.011588629
0.00012659382
0.011562446
0.00011586447
0.011537571
0.00010634497
0.011514052
9.7827039e-05
0.011491889
9.015341e-05
0.011471056
8.3203424e-05
0.011451508
7.688268e-05
0.011433193
7.1115634e-05
0.011416051
6.5840369e-05
0.011400021
6.100498e-05
0.011385041
5.6565126e-05
0.011371051
5.2482363e-05
0.01135799
4.8722997e-05
0.011345801
4.5257265e-05
0.01133443
4.2058717e-05
0.011323823
3.9103744e-05
0.01131393
3.6371194e-05
0.011304705
3.3842054e-05
0.011296104
3.1499183e-05
0.011288084
2.9327079e-05
0.011280607
2.7311673e-05
0.011273636
2.5440155e-05
0.011267137
2.3700815e-05
0.011261079
2.2082909e-05
0.011255432
2.0576535e-05
0.011250168
1.9172543e-05
0.011245262
1.7862447e-05
0.011240691
1.6638364e-05
0.011236432
1.5492967e-05
0.011232466
1.4419454e-05
0.011228775
1.3411535e-05
0.011225341
1.2463423e-05
0.011222148
1.1569846e-05
0.011219183
1.0726051e-05
0.011216432
9.9278282e-06
0.011213884
9.1715011e-06
0.011211527
8.4539592e-06
0.011209352
7.7726175e-06
0.011207348
7.1254374e-06
0.011205508
6.5108514e-06
0.011203823
5.9277643e-06
0.011202285
5.3754438e-06
0.011200886
4.853501e-06
0.011199619
4.36176e-06
0.011198477
3.900224e-06
0.011197452
3.4689426e-06
0.011196538
3.0679769e-06
0.011195726
2.6972851e-06
0.011195009
2.3566973e-06
0.011194381
2.0458366e-06
0.011193833
1.7641119e-06
0.011193359
1.510685e-06
0.011192951
1.2844809e-06
0.011192603
1.0841959e-06
0.011192309
9.0832631e-07
0.011192061
7.5520856e-07
0.011191854
6.2305069e-07
0.011191683
5.0999185e-07
0.011191543
4.1413085e-07
0.011191428
3.3358862e-07
0.011191336
2.6652767e-07
0.011191262
2.1120534e-07
0.011191203
1.6598234e-07
0.011191157
1.2935931e-07
0.011191121
9.9974719e-08
0.011191093
7.6620419e-08
0.011191071
5.8234109e-08
0.011191055
4.3894072e-08
0.011191043
3.2816814e-08
0.011191033
2.4333222e-08
0.011191027
1.7898037e-08
0.011191022
1.3053879e-08
0.011191018
9.4454279e-09
0.011191015
6.7865934e-09
0.011191014
4.8550018e-09
0.011191012
3.4985353e-09
0.011191011
2.5555791e-09
0.01119101
1.983823e-09
0.01119101
1.6215047e-09
0.01119101
1.5575762e-09
0.01119101
1.5805193e-09
1.7594198e-09
0.010097182
6.8393556e-05
0.010346961
0.00019901112
0.010662469
0.00028247387
0.010982753
0.00030866649
0.011290229
0.00030874342
0.011575251
0.00029875789
0.011829022
0.00028101346
0.012047865
0.00025698756
0.012233272
0.00023051982
0.01238924
0.0002051459
0.012520295
0.00018256236
0.012630755
0.00016299958
0.012724428
0.00014622492
0.012804515
0.00013190314
0.012873613
0.00011967428
0.012933772
0.00010917463
0.012986596
0.00010006909
0.013033332
9.2076391e-05
0.01307495
8.4975284e-05
0.013112216
7.8598652e-05
0.013145739
7.2822349e-05
0.013176012
6.7553991e-05
0.013203441
6.2723985e-05
0.013228366
5.8278965e-05
0.013251071
5.4177065e-05
0.013271802
5.0384518e-05
0.013290769
4.6873256e-05
0.013308155
4.3619274e-05
0.013324119
4.0601551e-05
0.0133388
3.7801356e-05
0.013352321
3.5201795e-05
0.013364791
3.278751e-05
0.013376305
3.0544464e-05
0.013386949
2.8459784e-05
0.013396798
2.6521632e-05
0.013405921
2.4719105e-05
0.013414378
2.3042146e-05
0.013422224
2.1481461e-05
0.013429507
2.0028447e-05
0.013436272
1.8675124e-05
0.013442559
1.7414075e-05
0.013448404
1.6238388e-05
0.013453838
1.5141608e-05
0.013458893
1.4117692e-05
0.013463595
1.3160971e-05
0.013467967
1.2266129e-05
0.013472032
1.1428174e-05
0.013475809
1.0642441e-05
0.013479316
9.9045585e-06
0.013482569
9.2104907e-06
0.013485582
8.5565007e-06
0.013488369
7.9392117e-06
0.013490941
7.3555599e-06
0.01349331
6.8028749e-06
0.013495485
6.2788073e-06
0.013497476
5.7814197e-06
0.013499293
5.3090813e-06
0.013500943
4.8605589e-06
0.013502436
4.4348796e-06
0.01350378
4.0314132e-06
0.013504984
3.6497109e-06
0.013506056
3.2895723e-06
0.013507005
2.9508774e-06
0.013507841
2.6336385e-06
0.013508571
2.3378438e-06
0.013509204
2.0634959e-06
0.013509751
1.8104851e-06
0.013510218
1.5786207e-06
0.013510614
1.3675481e-06
0.013510948
1.1767712e-06
0.013511227
1.0056201e-06
0.013511458
8.5326376e-07
0.013511647
7.1873044e-07
0.013511802
6.0090988e-07
0.013511926
4.9860708e-07
0.013512026
4.1053184e-07
0.013512104
3.3538321e-07
0.013512166
2.7181682e-07
0.013512214
2.1854644e-07
0.013512251
1.7428873e-07
0.013512279
1.378731e-07
0.0135123
1.0816311e-07
0.013512316
8.4169951e-08
0.013512328
6.4948526e-08
0.013512337
4.971823e-08
0.013512343
3.7735765e-08
0.013512347
2.8422401e-08
0.01351235
2.1221679e-08
0.013512352
1.5730486e-08
0.013512354
1.1555041e-08
0.013512355
8.4338117e-09
0.013512356
6.1061989e-09
0.013512356
4.4129321e-09
0.013512356
3.191211e-09
0.013512357
2.3425146e-09
0.013512357
1.7691083e-09
0.013512357
1.4066874e-09
0.013512357
1.2301779e-09
0.013512358
1.1610196e-09
1.1669684e-09
0.010068394
2.7277499e-13
0.010267405
4.9672114e-13
0.010549879
7.2136624e-13
0.010858545
9.8474238e-13
0.011167288
1.3088862e-12
0.011466046
1.7353992e-12
0.01174706
2.3373985e-12
0.012004047
3.1703663e-12
0.012234567
4.2828927e-12
0.012439713
5.7129233e-12
0.012622275
7.4207593e-12
0.012785275
9.4360855e-12
0.0129315
1.1666631e-11
0.013063403
1.4184448e-11
0.013183077
1.6946187e-11
0.013292252
2.0095463e-11
0.013392321
2.3706875e-11
0.013484397
2.8015572e-11
0.013569373
3.3151038e-11
0.013647971
3.9412982e-11
0.013720794
4.6752962e-11
0.013788347
5.5442684e-11
0.013851071
6.5101394e-11
0.01390935
7.5999718e-11
0.013963527
8.7524275e-11
0.014013912
1.0005901e-10
0.014060785
1.1301127e-10
0.014104404
1.2691391e-10
0.014145005
1.4122298e-10
0.014182807
1.5656209e-10
0.014218008
1.7226564e-10
0.014250795
1.8894889e-10
0.01428134
2.0532568e-10
0.014309799
2.2165766e-10
0.014336321
2.3597435e-10
0.01436104
2.4821736e-10
0.014384081
2.5593783e-10
0.014405563
2.5873156e-10
0.014425591
2.5476221e-10
0.014444266
2.4317756e-10
0.014461679
2.2325901e-10
0.014477918
1.9367257e-10
0.014493059
1.5575131e-10
0.014507177
1.0804013e-10
0.014520337
5.5544321e-11
0.014532604
-1.3086296e-11
0.014544032
-8.5004467e-11
0.014554674
-1.6438044e-10
0.014564579
-2.4280655e-10
0.01457379
-3.2734943e-10
0.014582347
-4.049145e-10
0.014590286
-4.8495355e-10
0.014597643
-5.5097508e-10
0.014604446
-6.1604879e-10
0.014610726
-6.609705e-10
0.014616508
-7.0116806e-10
0.014621818
-7.1663088e-10
0.014626679
-7.260668e-10
0.014631114
-7.1027421e-10
0.014635147
-6.8784021e-10
0.014638797
-6.4242273e-10
0.014642087
-5.925821e-10
0.014645039
-5.2595618e-10
0.014647673
-4.5758947e-10
0.014650011
-3.7936357e-10
0.014652075
-3.0327776e-10
0.014653885
-2.2492052e-10
0.014655464
-1.5150735e-10
0.014656832
-8.1719645e-11
0.014658009
-1.842878e-11
0.014659014
4.499585e-11
0.014659868
9.9188143e-11
0.014660586
1.4420072e-10
0.014661187
1.8627187e-10
0.014661686
2.161426e-10
0.014662096
2.4352327e-10
0.014662431
2.5646399e-10
0.014662703
2.6926559e-10
0.014662921
2.6849984e-10
0.014663095
2.7086275e-10
0.014663233
2.6167834e-10
0.014663341
2.6008881e-10
0.014663425
2.4786925e-10
0.014663489
2.4356715e-10
0.014663539
2.2667376e-10
0.014663576
2.1804603e-10
0.014663605
1.9697594e-10
0.014663626
1.847245e-10
0.014663641
1.6196022e-10
0.014663653
1.5198262e-10
0.014663661
1.3535804e-10
0.014663667
1.3476769e-10
0.014663672
1.287718e-10
0.014663675
1.3504913e-10
0.014663677
1.3637842e-10
0.014663678
1.3128584e-10
0.01466368
1.2946038e-10
0.014663681
1.1460909e-10
0.014663682
1.0268158e-10
1.2750951e-10
0.010068394
-6.8393556e-05
0.010267405
-0.00019901112
0.010549879
-0.00028247387
0.010858545
-0.00030866649
0.011167288
-0.00030874342
0.011466046
-0.00029875788
0.01174706
-0.00028101345
0.012004047
-0.00025698755
0.012234567
-0.00023051981
0.012439713
-0.00020514589
0.012622275
-0.00018256235
0.012785275
-0.00016299956
0.0129315
-0.0001462249
0.013063403
-0.00013190311
0.013183077
-0.00011967425
0.013292252
-0.00010917459
0.013392321
-0.00010006904
0.013484397
-9.2076338e-05
0.013569373
-8.4975221e-05
0.013647971
-7.8598577e-05
0.013720794
-7.2822261e-05
0.013788347
-6.7553887e-05
0.013851071
-6.2723863e-05
0.01390935
-5.8278822e-05
0.013963527
-5.4176901e-05
0.014013912
-5.0384331e-05
0.014060785
-4.6873045e-05
0.014104404
-4.3619038e-05
0.014145005
-4.060129e-05
0.014182807
-3.7801067e-05
0.014218008
-3.5201478e-05
0.014250796
-3.2787163e-05
0.01428134
-3.0544088e-05
0.0143098
-2.8459378e-05
0.014336321
-2.65212e-05
0.01436104
-2.4718652e-05
0.014384082
-2.3041681e-05
0.014405563
-2.1480991e-05
0.014425591
-2.0027985e-05
0.014444266
-1.8674683e-05
0.01446168
-1.741367e-05
0.014477918
-1.6238035e-05
0.01449306
-1.5141322e-05
0.014507177
-1.4117488e-05
0.014520338
-1.3160865e-05
0.014532604
-1.226614e-05
0.014544032
-1.1428311e-05
0.014554675
-1.0642713e-05
0.01456458
-9.9049693e-06
0.01457379
-9.2110462e-06
0.014582347
-8.5571951e-06
0.014590287
-7.9400432e-06
0.014597643
-7.3565129e-06
0.014604446
-6.8039408e-06
0.014610725
-6.2799597e-06
0.014616507
-5.7826429e-06
0.014621817
-5.3103421e-06
0.014626678
-4.8618389e-06
0.014631114
-4.4361426e-06
0.014635146
-4.0326404e-06
0.014638796
-3.6508689e-06
0.014642086
-3.290647e-06
0.014645037
-2.9518428e-06
0.014647671
-2.634487e-06
0.01465001
-2.3385599e-06
0.014652073
-2.0640799e-06
0.014653884
-1.810933e-06
0.014655463
-1.5789394e-06
0.014656831
-1.3677404e-06
0.014658008
-1.1768457e-06
0.014659013
-1.0055829e-06
0.014659867
-8.5312657e-07
0.014660585
-7.1850607e-07
0.014661186
-6.0060718e-07
0.014661685
-4.9824339e-07
0.014662095
-4.1011742e-07
0.01466243
-3.3493803e-07
0.014662702
-2.7134866e-07
0.01466292
-2.180734e-07
0.014663094
-1.7381275e-07
0.014663232
-1.374066e-07
0.01466334
-1.077014e-07
0.014663424
-8.372423e-08
0.014663489
-6.4514342e-08
0.014663539
-4.9308848e-08
0.014663576
-3.7347235e-08
0.014663604
-2.8067864e-08
0.014663625
-2.0895123e-08
0.014663641
-1.5439164e-08
0.014663653
-1.1286637e-08
0.014663661
-8.1892244e-09
0.014663667
-5.8697519e-09
0.014663671
-4.1812482e-09
0.014663675
-2.9540229e-09
0.014663677
-2.1020434e-09
0.014663678
-1.5341588e-09
0.01466368
-1.1744896e-09
0.014663681
-1.0114074e-09
0.014663682
-9.6386449e-10
-9.477082e-10
0.010097182
-0.00016557515
0.010346961
-0.000448791
0.010662469
-0.00059798177
0.010982753
-0.00062895025
0.011290229
-0.00061621886
0.011575251
-0.00058378055
0.011829022
-0.0005347842
0.012047865
-0.00047583049
0.012233272
-0.00041592665
0.01238924
-0.00036111399
0.012520295
-0.00031361711
0.012630755
-0.00027346025
0.012724428
-0.00023989718
0.012804515
-0.0002119903
0.012873613
-0.0001887726
0.012933772
-0.00016933387
0.012986596
-0.00015289294
0.013033332
-0.00013881181
0.01307495
-0.00012659376
0.013112216
-0.00011586441
0.013145739
-0.0001063449
0.013176012
-9.7826954e-05
0.013203441
-9.0153311e-05
0.013228366
-8.3203309e-05
0.013251071
-7.6882549e-05
0.013271803
-7.1115487e-05
0.01329077
-6.5840204e-05
0.013308156
-6.1004797e-05
0.013324119
-5.6564925e-05
0.0133388
-5.2482143e-05
0.013352321
-4.8722758e-05
0.013364791
-4.5257006e-05
0.013376306
-4.2058438e-05
0.01338695
-3.9103447e-05
0.013396799
-3.6370881e-05
0.013405922
-3.3841732e-05
0.01341438
-3.1498856e-05
0.013422225
-2.9326756e-05
0.013429509
-2.7311363e-05
0.013436274
-2.5439868e-05
0.013442561
-2.3700564e-05
0.013448405
-2.2082701e-05
0.01345384
-2.0576385e-05
0.013458895
-1.9172458e-05
0.013463597
-1.7862442e-05
0.013467969
-1.6638439e-05
0.013472034
-1.5493139e-05
0.013475811
-1.4419716e-05
0.013479318
-1.3411903e-05
0.01348257
-1.2463881e-05
0.013485583
-1.157041e-05
0.01348837
-1.0726694e-05
0.013490942
-9.9285658e-06
0.01349331
-9.1722973e-06
0.013495485
-8.4548258e-06
0.013497476
-7.7735115e-06
0.013499292
-7.1263696e-06
0.013500942
-6.5117752e-06
0.013502434
-5.9286885e-06
0.013503778
-5.3763236e-06
0.013504981
-4.8543456e-06
0.013506053
-4.3625309e-06
0.013507002
-3.9009302e-06
0.013507837
-3.4695564e-06
0.013508567
-3.0685083e-06
0.013509201
-2.6977185e-06
0.013509747
-2.357042e-06
0.013510214
-2.046088e-06
0.013510611
-1.7642772e-06
0.013510945
-1.5107684e-06
0.013511224
-1.2844837e-06
0.013511455
-1.0841311e-06
0.013511644
-9.0819119e-07
0.013511799
-7.5502379e-07
0.013511923
-6.2281098e-07
0.013512023
-5.0972543e-07
0.013512102
-4.1382929e-07
0.013512164
-3.3328321e-07
0.013512212
-2.6620485e-07
0.013512249
-2.1089405e-07
0.013512277
-1.6566033e-07
0.013512299
-1.2905491e-07
0.013512315
-9.9662603e-08
0.013512327
-7.6332412e-08
0.013512335
-5.7944099e-08
0.013512342
-4.3637355e-08
0.013512346
-3.2566913e-08
0.013512349
-2.4122756e-08
0.013512352
-1.7693891e-08
0.013512353
-1.2884252e-08
0.013512355
-9.2723535e-09
0.013512355
-6.6393324e-09
0.013512356
-4.6901054e-09
0.013512356
-3.3511435e-09
0.013512357
-2.3852289e-09
0.013512357
-1.8214643e-09
0.013512357
-1.4511286e-09
0.013512357
-1.3891149e-09
0.013512358
-1.4242894e-09
-1.6132417e-09
0.010188704
-0.00035427932
0.010530487
-0.00079057335
0.010851453
-0.00091894821
0.011124174
-0.00090167137
0.011350581
-0.00084262624
0.011524486
-0.00075768559
0.01164633
-0.00065662744
0.011724155
-0.00055365586
0.011767999
-0.00045977083
0.011786639
-0.00037975353
0.011787114
-0.00031409258
0.011775058
-0.00026140425
0.011754861
-0.00021969948
0.011729768
-0.00018689786
0.011702054
-0.00016105802
0.011673239
-0.00014051894
0.011644339
-0.00012399296
0.011616003
-0.00011047599
0.011588629
-9.9219852e-05
0.011562446
-8.9681377e-05
0.011537572
-8.1470636e-05
0.011514052
-7.4307811e-05
0.01149189
-6.7990462e-05
0.011471056
-6.236996e-05
0.011451509
-5.7334989e-05
0.011433193
-5.2800161e-05
0.011416051
-4.8698241e-05
0.011400022
-4.4974921e-05
0.011385042
-4.1585341e-05
0.011371052
-3.8491772e-05
0.011357991
-3.5662042e-05
0.011345802
-3.3068442e-05
0.011334431
-3.0686912e-05
0.011323824
-2.8496443e-05
0.011313931
-2.647859e-05
0.011304707
-2.4617093e-05
0.011296105
-2.2897549e-05
0.011288086
-2.130715e-05
0.011280609
-1.9834449e-05
0.011273638
-1.8469166e-05
0.011267139
-1.7202017e-05
0.011261081
-1.6024577e-05
0.011255434
-1.4929154e-05
0.01125017
-1.3908695e-05
0.011245264
-1.2956707e-05
0.011240693
-1.2067191e-05
0.011236434
-1.123461e-05
0.011232468
-1.0453849e-05
0.011228777
-9.7202151e-06
0.011225342
-9.0294188e-06
0.011222149
-8.3775958e-06
0.011219184
-7.761298e-06
0.011216432
-7.1775167e-06
0.011213884
-6.6236715e-06
0.011211526
-6.0976292e-06
0.01120935
-5.5976697e-06
0.011207347
-5.1224871e-06
0.011205506
-4.6711334e-06
0.01120382
-4.2430011e-06
0.011202281
-3.8377413e-06
0.011200882
-3.455229e-06
0.011199615
-3.0954716e-06
0.011198473
-2.7585659e-06
0.011197448
-2.444609e-06
0.011196533
-2.1536591e-06
0.011195721
-1.8856644e-06
0.011195004
-1.6404373e-06
0.011194376
-1.4176117e-06
0.011193828
-1.2166384e-06
0.011193354
-1.0367716e-06
0.011192946
-8.7708372e-07
0.011192599
-7.3648083e-07
0.011192304
-6.1373182e-07
0.011192057
-5.0749889e-07
0.011191851
-4.1636942e-07
0.01119168
-3.3889614e-07
0.01119154
-2.7362671e-07
0.011191425
-2.1914004e-07
0.011191333
-1.7406629e-07
0.01119126
-1.3711912e-07
0.011191201
-1.0710986e-07
0.011191155
-8.2961843e-08
0.011191119
-6.3712947e-08
0.011191092
-4.8515648e-08
0.01119107
-3.6636916e-08
0.011191054
-2.7440645e-08
0.011191042
-2.0390279e-08
0.011191033
-1.5025356e-08
0.011191026
-1.0981092e-08
0.011191021
-7.9475103e-09
0.011191018
-5.7011613e-09
0.011191015
-4.0488457e-09
0.011191013
-2.869452e-09
0.011191012
-2.0507394e-09
0.011191011
-1.5138494e-09
0.01119101
-1.2020293e-09
0.01119101
-1.0874302e-09
0.01119101
-1.1729382e-09
0.01119101
-1.3861277e-09
-1.8255285e-09
0.010339525
-0.00069380425
0.010570754
-0.0010218027
0.010606301
-0.00095449449
0.010547572
-0.00084294334
0.010422317
-0.0007173708
0.010244356
-0.00057972444
0.010039421
-0.00045169204
0.0098287427
-0.00034297801
0.009625135
-0.00025616317
0.0094353013
-0.00018991983
0.0092624277
-0.00014121897
0.0091075332
-0.00010650979
0.008970154
-8.2320217e-05
0.0088489024
-6.5646242e-05
0.0087419716
-5.4127253e-05
0.0086474927
-4.6040048e-05
0.008563694
-4.0194292e-05
0.0084890108
-3.5792754e-05
0.0084221097
-3.2318753e-05
0.0083618776
-2.9449272e-05
0.0083073955
-2.6988564e-05
0.008257908
-2.4820288e-05
0.008212793
-2.2875471e-05
0.0081715355
-2.1112415e-05
0.0081337051
-1.9504662e-05
0.008098939
-1.8034033e-05
0.0080669275
-1.6686752e-05
0.008037404
-1.5451398e-05
0.0080101365
-1.4317904e-05
0.0079849219
-1.3277123e-05
0.0079615805
-1.2320659e-05
0.0079399529
-1.1440813e-05
0.0079198965
-1.0630559e-05
0.0079012836
-9.8835265e-06
0.007883999
-9.1939645e-06
0.0078679385
-8.5566996e-06
0.007853008
-7.9670851e-06
0.0078391218
-7.420949e-06
0.0078262018
-6.914535e-06
0.0078141771
-6.4444554e-06
0.0078029826
-6.0076341e-06
0.0077925593
-5.6012746e-06
0.0077828529
-5.2228064e-06
0.0077738141
-4.8698719e-06
0.0077653976
-4.5402777e-06
0.0077575624
-4.2320056e-06
0.007750271
-3.9431628e-06
0.0077434891
-3.6720179e-06
0.0077371858
-3.4169475e-06
0.0077313329
-3.1764993e-06
0.0077259047
-2.9493238e-06
0.0077208777
-2.7342602e-06
0.0077162305
-2.5302506e-06
0.0077119433
-2.3364447e-06
0.0077079979
-2.152089e-06
0.007704377
-1.9766417e-06
0.0077010643
-1.8096411e-06
0.0076980441
-1.6508227e-06
0.0076953012
-1.499973e-06
0.0076928206
-1.3570385e-06
0.0076905875
-1.2219776e-06
0.0076885869
-1.0948567e-06
0.0076868042
-9.7571392e-07
0.0076852243
-8.6463539e-07
0.0076838323
-7.6164586e-07
0.0076826134
-6.6676214e-07
0.007681553
-5.7992238e-07
0.0076806364
-5.0101539e-07
0.0076798497
-4.2985305e-07
0.0076791791
-3.6617187e-07
0.0076786117
-3.0965491e-07
0.0076781352
-2.5990263e-07
0.007677738
-2.1649779e-07
0.0076774095
-1.7894052e-07
0.0076771399
-1.4675597e-07
0.0076769204
-1.1939648e-07
0.0076767431
-9.6377491e-08
0.0076766012
-7.7151874e-08
0.0076764884
-6.1270294e-08
0.0076763996
-4.8234719e-08
0.0076763302
-3.7669151e-08
0.0076762765
-2.9150163e-08
0.0076762352
-2.2387337e-08
0.0076762038
-1.7036285e-08
0.00767618
-1.2884728e-08
0.0076761623
-9.6539996e-09
0.007676149
-7.1978535e-09
0.0076761393
-5.3014805e-09
0.0076761322
-3.8849386e-09
0.0076761272
-2.7920753e-09
0.0076761235
-2.0037522e-09
0.007676121
-1.405769e-09
0.0076761192
-1.0194188e-09
0.0076761178
-7.3390437e-10
0.0076761168
-5.922493e-10
0.007676116
-5.0678623e-10
0.0076761154
-5.2542197e-10
0.0076761149
-6.1252426e-10
0.0076761145
-9.5929702e-10
-1.4134183e-09
0.0093061957
0.0082843931
0.0073298986
0.0064869553
0.0057695845
0.00518986
0.004738168
0.00439519
0.0041390268
0.003949107
0.003807888
0.0037013782
0.003619058
0.0035534117
0.0034992845
0.0034532444
0.0034130502
0.0033772574
0.0033449386
0.0033154894
0.0032885008
0.0032636805
0.0032408051
0.0032196926
0.003200188
0.0031821539
0.0031654672
0.0031500158
0.0031356979
0.0031224208
0.0031101001
0.0030986593
0.0030880287
0.0030781452
0.0030689512
0.0030603945
0.0030524274
0.0030450064
0.0030380919
0.0030316474
0.0030256398
0.0030200385
0.0030148157
0.0030099458
0.0030054056
0.0030011736
0.0029972304
0.0029935584
0.0029901415
0.0029869651
0.0029840158
0.0029812817
0.0029787515
0.0029764152
0.0029742632
0.0029722867
0.0029704772
0.0029688265
0.0029673266
0.0029659697
0.0029647478
0.0029636531
0.0029626774
0.0029618129
0.0029610513
0.0029603846
0.0029598047
0.0029593037
0.0029588739
0.0029585077
0.0029581981
0.0029579382
0.0029577218
0.0029575428
0.0029573961
0.0029572767
0.0029571803
0.0029571031
0.0029570419
0.0029569937
0.0029569561
0.002956927
0.0029569046
0.0029568876
0.0029568747
0.002956865
0.0029568578
0.0029568525
0.0029568487
0.0029568459
0.002956844
0.0029568426
0.0029568416
0.0029568408
0.0029568402
0.0029568396
0.0029568391
0.0029568385
0.0029568376
)
;

boundaryField
{
    top
    {
        type            calculated;
        value           uniform 0;
    }
    inlet
    {
        type            calculated;
        value           nonuniform List<scalar> 10(-0.01 -0.01 -0.01 -0.01 -0.01 -0.01 -0.01 -0.01 -0.01 -0.01);
    }
    outlet
    {
        type            calculated;
        value           nonuniform List<scalar> 10(0.002956836 0.0076761139 0.01119101 0.013512359 0.014663683 0.014663683 0.013512359 0.01119101 0.0076761141 0.0029568361);
    }
    bottom
    {
        type            calculated;
        value           uniform 0;
    }
    back
    {
        type            empty;
        value           nonuniform 0();
    }
    front
    {
        type            empty;
        value           nonuniform 0();
    }
}


// ************************************************************************* //
