/*--------------------------------*- C++ -*----------------------------------*\
| =========                 |                                                 |
| \\      /  F ield         | OpenFOAM: The Open Source CFD Toolbox           |
|  \\    /   O peration     | Version:  v1812                                 |
|   \\  /    A nd           | Web:      www.OpenFOAM.com                      |
|    \\/     M anipulation  |                                                 |
\*---------------------------------------------------------------------------*/
FoamFile
{
    version     2.0;
    format      ascii;
    class       volVectorField;
    location    "11.8";
    object      U;
}
// * * * * * * * * * * * * * * * * * * * * * * * * * * * * * * * * * * * * * //

dimensions      [0 1 -1 0 0 0 0];


internalField   nonuniform List<vector> 
1000
(
(0.91890839 0.035821913 0)
(0.86271384 0.062195638 0)
(0.7870597 0.06251009 0)
(0.69536033 0.054550395 0)
(0.61089745 0.044531651 0)
(0.54411592 0.034015972 0)
(0.49343012 0.02418754 0)
(0.45479413 0.01614423 0)
(0.42544582 0.010265785 0)
(0.40347313 0.0063041445 0)
(0.38715766 0.0037976288 0)
(0.3749622 0.0023103378 0)
(0.36566192 0.0014930151 0)
(0.35836272 0.0010851188 0)
(0.35244267 0.0009060731 0)
(0.34748201 0.0008410524 0)
(0.34320348 0.00082372445 0)
(0.33942726 0.00081931025 0)
(0.33603793 0.00081185143 0)
(0.33296114 0.00079580048 0)
(0.33014778 0.00077081079 0)
(0.32756384 0.00073870912 0)
(0.3251842 0.00070188936 0)
(0.32298902 0.00066256612 0)
(0.32096172 0.00062250028 0)
(0.31908785 0.00058295818 0)
(0.31735449 0.00054477211 0)
(0.31574995 0.00050843431 0)
(0.3142636 0.00047419132 0)
(0.31288574 0.00044212397 0)
(0.31160755 0.00041220867 0)
(0.31042101 0.00038436093 0)
(0.30931883 0.00035846457 0)
(0.30829438 0.00033439034 0)
(0.30734165 0.00031200713 0)
(0.30645515 0.00029118832 0)
(0.30562991 0.00027181503 0)
(0.30486136 0.00025377733 0)
(0.30414535 0.0002369745 0)
(0.30347807 0.00022131455 0)
(0.30285601 0.00020671352 0)
(0.30227596 0.0001930947 0)
(0.30173496 0.00018038783 0)
(0.30123029 0.00016852845 0)
(0.30075942 0.00015745722 0)
(0.30032002 0.00014711949 0)
(0.29990993 0.00013746488 0)
(0.29952715 0.00012844688 0)
(0.29916983 0.00012002256 0)
(0.29883624 0.00011215219 0)
(0.29852478 0.00010479894 0)
(0.29823397 9.7928564e-05 0)
(0.29796241 9.1509094e-05 0)
(0.29770882 8.5510672e-05 0)
(0.29747201 7.9905321e-05 0)
(0.29725084 7.4666916e-05 0)
(0.29704429 6.9771135e-05 0)
(0.29685137 6.5195338e-05 0)
(0.29667119 6.0918647e-05 0)
(0.29650291 5.6921673e-05 0)
(0.29634572 5.3186469e-05 0)
(0.2961989 4.9696247e-05 0)
(0.29606176 4.6435126e-05 0)
(0.29593366 4.338808e-05 0)
(0.295814 4.0540787e-05 0)
(0.29570224 3.7879742e-05 0)
(0.29559783 3.5392441e-05 0)
(0.29550031 3.3067288e-05 0)
(0.29540922 3.0893926e-05 0)
(0.29532413 2.8862782e-05 0)
(0.29524464 2.6965188e-05 0)
(0.29517039 2.5192802e-05 0)
(0.29510103 2.3537671e-05 0)
(0.29503624 2.1991747e-05 0)
(0.29497572 2.0547576e-05 0)
(0.29491918 1.9197455e-05 0)
(0.29486637 1.7935305e-05 0)
(0.29481704 1.6754537e-05 0)
(0.29477096 1.5651175e-05 0)
(0.29472792 1.4619619e-05 0)
(0.29468771 1.3657515e-05 0)
(0.29465015 1.2758627e-05 0)
(0.29461506 1.1921617e-05 0)
(0.29458228 1.1137969e-05 0)
(0.29455166 1.0408496e-05 0)
(0.29452307 9.7219163e-06 0)
(0.29449634 9.0841549e-06 0)
(0.2944714 8.4804633e-06 0)
(0.29444808 7.9246334e-06 0)
(0.29442633 7.3951995e-06 0)
(0.29440597 6.9155286e-06 0)
(0.294387 6.4530016e-06 0)
(0.29436925 6.0420736e-06 0)
(0.29435268 5.6400908e-06 0)
(0.29433724 5.2890933e-06 0)
(0.29432264 4.9587372e-06 0)
(0.29430937 4.666427e-06 0)
(0.29429599 4.4960497e-06 0)
(0.29428535 4.3537744e-06 0)
(0.29426936 4.9447608e-06 0)
(1.0016583 0.05381943 0)
(1.0359761 0.10128444 0)
(1.0597199 0.11073663 0)
(1.0628947 0.10592202 0)
(1.0515569 0.096228728 0)
(1.0340529 0.083934061 0)
(1.0142795 0.070327063 0)
(0.99360703 0.056981334 0)
(0.97292577 0.045107479 0)
(0.95310739 0.03523675 0)
(0.93479538 0.027401649 0)
(0.91829012 0.021387226 0)
(0.90362379 0.016884498 0)
(0.89068067 0.013569709 0)
(0.87928174 0.011147749 0)
(0.86923242 0.0093736601 0)
(0.86034423 0.0080569295 0)
(0.85244667 0.0070571282 0)
(0.84539241 0.0062752383 0)
(0.83905793 0.0056438276 0)
(0.83334126 0.0051180895 0)
(0.82815884 0.0046686707 0)
(0.82344212 0.0042764161 0)
(0.81913467 0.0039287383 0)
(0.81518962 0.0036172039 0)
(0.81156765 0.0033359715 0)
(0.80823544 0.0030808053 0)
(0.8051644 0.00284847 0)
(0.80232979 0.0026363695 0)
(0.79970999 0.0024423379 0)
(0.79728597 0.0022645174 0)
(0.79504086 0.0021012881 0)
(0.79295963 0.0019512238 0)
(0.7910288 0.0018130623 0)
(0.78923627 0.0016856838 0)
(0.7875711 0.0015680938 0)
(0.78602338 0.0014594076 0)
(0.78458412 0.0013588377 0)
(0.78324511 0.0012656817 0)
(0.78199889 0.0011793119 0)
(0.7808386 0.0010991661 0)
(0.77975799 0.0010247393 0)
(0.77875128 0.00095557644 0)
(0.77781318 0.00089126635 0)
(0.77693881 0.00083143628 0)
(0.77612368 0.00077574744 0)
(0.77536362 0.00072389109 0)
(0.77465481 0.00067558521 0)
(0.77399367 0.00063057179 0)
(0.77337693 0.0005886142 0)
(0.77280153 0.00054949512 0)
(0.77226464 0.00051301451 0)
(0.77176363 0.00047898784 0)
(0.77129606 0.00044724465 0)
(0.77085967 0.00041762705 0)
(0.77045234 0.00038998872 0)
(0.77007212 0.00036419397 0)
(0.76971717 0.00034011685 0)
(0.76938581 0.00031764066 0)
(0.76907644 0.00029665709 0)
(0.7687876 0.00027706584 0)
(0.76851791 0.00025877375 0)
(0.76826609 0.00024169414 0)
(0.76803095 0.00022574624 0)
(0.76781138 0.00021085444 0)
(0.76760635 0.0001969479 0)
(0.76741488 0.00018396054 0)
(0.76723608 0.00017183046 0)
(0.76706909 0.00016050059 0)
(0.76691315 0.00014991764 0)
(0.7667675 0.00014003293 0)
(0.76663149 0.00013080057 0)
(0.76650445 0.00012217858 0)
(0.76638581 0.00011412627 0)
(0.766275 0.0001066068 0)
(0.76617151 9.9582824e-05 0)
(0.76607485 9.3022713e-05 0)
(0.76598457 8.6892239e-05 0)
(0.76590024 8.1166476e-05 0)
(0.76582149 7.5814026e-05 0)
(0.76574792 7.0817753e-05 0)
(0.76567922 6.6146219e-05 0)
(0.76561503 6.1790788e-05 0)
(0.76555511 5.7714458e-05 0)
(0.7654991 5.3919913e-05 0)
(0.76544684 5.0358072e-05 0)
(0.76539796 4.7051051e-05 0)
(0.7653524 4.3929603e-05 0)
(0.76530973 4.1049282e-05 0)
(0.76527002 3.8306008e-05 0)
(0.76523279 3.5808351e-05 0)
(0.76519816 3.3391246e-05 0)
(0.76516573 3.1244718e-05 0)
(0.76513544 2.910659e-05 0)
(0.76510743 2.7291024e-05 0)
(0.76508045 2.5401281e-05 0)
(0.76505715 2.3931114e-05 0)
(0.76503137 2.2348659e-05 0)
(0.76501527 2.1379874e-05 0)
(0.76498474 2.0639844e-05 0)
(1.0014244 0.026824855 0)
(1.0291272 0.062791353 0)
(1.0654292 0.077736553 0)
(1.098962 0.0805972 0)
(1.1253149 0.078285171 0)
(1.145053 0.073153899 0)
(1.1594858 0.066111278 0)
(1.1694287 0.058162063 0)
(1.1755354 0.050296754 0)
(1.1785738 0.043150708 0)
(1.1793571 0.036972825 0)
(1.1785949 0.031771632 0)
(1.1768304 0.027451839 0)
(1.1744518 0.023886768 0)
(1.1717287 0.02094762 0)
(1.1688444 0.018515781 0)
(1.1659195 0.016488085 0)
(1.1630317 0.014779503 0)
(1.1602295 0.013322985 0)
(1.1575415 0.012067132 0)
(1.1549828 0.010973 0)
(1.1525601 0.010011061 0)
(1.1502747 0.0091587462 0)
(1.1481246 0.0083986038 0)
(1.1461059 0.0077169504 0)
(1.1442134 0.0071028883 0)
(1.1424414 0.0065475922 0)
(1.1407838 0.0060437958 0)
(1.1392344 0.0055854264 0)
(1.1377869 0.0051673446 0)
(1.1364353 0.0047851567 0)
(1.1351738 0.0044350757 0)
(1.1339968 0.0041138163 0)
(1.1328987 0.0038185126 0)
(1.1318746 0.0035466531 0)
(1.1309195 0.0032960277 0)
(1.1300289 0.0030646839 0)
(1.1291985 0.0028508914 0)
(1.1284242 0.0026531108 0)
(1.1277022 0.0024699686 0)
(1.1270291 0.0023002351 0)
(1.1264014 0.0021428062 0)
(1.1258161 0.0019966874 0)
(1.1252702 0.0018609802 0)
(1.1247612 0.0017348713 0)
(1.1242865 0.0016176217 0)
(1.1238437 0.0015085591 0)
(1.1234307 0.0014070699 0)
(1.1230455 0.0013125932 0)
(1.1226861 0.0012246151 0)
(1.1223509 0.001142664 0)
(1.1220381 0.0010663064 0)
(1.1217462 0.00099514324 0)
(1.1214739 0.00092880655 0)
(1.1212198 0.00086695687 0)
(1.1209827 0.00080928056 0)
(1.1207614 0.00075548752 0)
(1.1205548 0.00070530923 0)
(1.1203621 0.00065849675 0)
(1.1201821 0.00061481929 0)
(1.1200142 0.0005740626 0)
(1.1198574 0.00053602756 0)
(1.1197111 0.00050052929 0)
(1.1195744 0.00046739589 0)
(1.1194469 0.00043646772 0)
(1.1193278 0.00040759612 0)
(1.1192167 0.00038064307 0)
(1.1191129 0.00035547972 0)
(1.119016 0.00033198646 0)
(1.1189255 0.00031005118 0)
(1.118841 0.00028957037 0)
(1.1187621 0.00027044587 0)
(1.1186884 0.00025258824 0)
(1.1186196 0.00023591134 0)
(1.1185554 0.00022033881 0)
(1.1184954 0.00020579429 0)
(1.1184394 0.00019221383 0)
(1.1183871 0.000179528 0)
(1.1183382 0.00016768538 0)
(1.1182926 0.00015661938 0)
(1.11825 0.00014629275 0)
(1.1182102 0.00013663627 0)
(1.118173 0.00012763224 0)
(1.1181384 0.00011920026 0)
(1.1181059 0.00011135259 0)
(1.1180757 0.00010398193 0)
(1.1180473 9.7150038e-05 0)
(1.1180211 9.0693997e-05 0)
(1.1179963 8.476164e-05 0)
(1.1179735 7.9082004e-05 0)
(1.1179517 7.3959356e-05 0)
(1.1179319 6.8918973e-05 0)
(1.1179128 6.4553516e-05 0)
(1.1178956 6.0007681e-05 0)
(1.1178791 5.6408774e-05 0)
(1.1178637 5.21965e-05 0)
(1.1178502 4.9485583e-05 0)
(1.1178352 4.5448856e-05 0)
(1.1178265 4.3942751e-05 0)
(1.1178088 4.0037589e-05 0)
(1.0007347 0.011814722 0)
(1.0178472 0.030860927 0)
(1.0462163 0.041434442 0)
(1.0799018 0.04519357 0)
(1.1132664 0.045502351 0)
(1.143782 0.044080307 0)
(1.1708941 0.041439982 0)
(1.1945687 0.037973678 0)
(1.2148582 0.034195729 0)
(1.2319652 0.030536887 0)
(1.2462683 0.027222045 0)
(1.2582339 0.024313921 0)
(1.2683135 0.021797888 0)
(1.2768875 0.019633659 0)
(1.2842554 0.017773826 0)
(1.2906479 0.016169651 0)
(1.296243 0.014775589 0)
(1.3011791 0.013552297 0)
(1.3055645 0.012467864 0)
(1.3094838 0.011497466 0)
(1.3130042 0.010622162 0)
(1.3161792 0.0098275141 0)
(1.3190526 0.0091024116 0)
(1.3216607 0.0084381769 0)
(1.3240343 0.0078279035 0)
(1.3261995 0.0072659737 0)
(1.3281786 0.0067477078 0)
(1.3299913 0.0062691159 0)
(1.3316544 0.005826727 0)
(1.3331829 0.0054174734 0)
(1.3345896 0.0050386129 0)
(1.3358862 0.0046876746 0)
(1.3370827 0.0043624205 0)
(1.3381882 0.0040608155 0)
(1.3392108 0.0037810048 0)
(1.3401576 0.003521295 0)
(1.3410349 0.003280138 0)
(1.3418486 0.0030561167 0)
(1.3426038 0.002847933 0)
(1.3433051 0.0026543969 0)
(1.3439569 0.002474416 0)
(1.3445629 0.0023069868 0)
(1.3451267 0.0021511872 0)
(1.3456513 0.0020061684 0)
(1.3461398 0.0018711495 0)
(1.3465947 0.0017454106 0)
(1.3470185 0.0016282878 0)
(1.3474135 0.0015191686 0)
(1.3477816 0.0014174867 0)
(1.3481249 0.0013227183 0)
(1.3484449 0.0012343791 0)
(1.3487435 0.0011520198 0)
(1.349022 0.0010752243 0)
(1.3492818 0.0010036071 0)
(1.3495242 0.00093681064 0)
(1.3497505 0.00087450342 0)
(1.3499616 0.0008163781 0)
(1.3501587 0.00076214936 0)
(1.3503427 0.00071155205 0)
(1.3505145 0.00066433943 0)
(1.3506748 0.00062028202 0)
(1.3508245 0.00057916553 0)
(1.3509643 0.00054079051 0)
(1.3510948 0.00050497117 0)
(1.3512167 0.00047153508 0)
(1.3513305 0.00044032186 0)
(1.3514368 0.0004111831 0)
(1.3515361 0.00038398034 0)
(1.3516288 0.00035858513 0)
(1.3517153 0.00033487652 0)
(1.3517962 0.00031274278 0)
(1.3518717 0.00029207682 0)
(1.3519422 0.00027278103 0)
(1.3520081 0.00025476088 0)
(1.3520696 0.00023793356 0)
(1.3521271 0.00022221588 0)
(1.3521807 0.00020754052 0)
(1.3522309 0.00019383216 0)
(1.3522777 0.0001810384 0)
(1.3523215 0.00016908488 0)
(1.3523623 0.000157935 0)
(1.3524005 0.0001475068 0)
(1.352436 0.00013778805 0)
(1.3524694 0.00012867843 0)
(1.3525004 0.00012020849 0)
(1.3525296 0.00011223758 0)
(1.3525565 0.00010486962 0)
(1.3525822 9.7879802e-05 0)
(1.3526054 9.1500341e-05 0)
(1.3526281 8.5338326e-05 0)
(1.3526479 7.9861087e-05 0)
(1.3526683 7.4361109e-05 0)
(1.3526849 6.9739043e-05 0)
(1.3527035 6.4716329e-05 0)
(1.3527169 6.0975568e-05 0)
(1.3527346 5.6226757e-05 0)
(1.3527444 5.3505421e-05 0)
(1.3527624 4.8815964e-05 0)
(1.3527679 4.7365992e-05 0)
(1.3527881 4.2497917e-05 0)
(1.0005903 0.0034629161 0)
(1.0136865 0.0093660202 0)
(1.0370283 0.013046806 0)
(1.0674202 0.014563261 0)
(1.1000315 0.014854524 0)
(1.1316428 0.01456499 0)
(1.1610745 0.013888338 0)
(1.1880674 0.012919246 0)
(1.2125205 0.011806507 0)
(1.2343939 0.010696427 0)
(1.2538077 0.0096727426 0)
(1.2710339 0.0087628222 0)
(1.286401 0.0079659733 0)
(1.3002112 0.0072722139 0)
(1.3127102 0.0066688077 0)
(1.3240903 0.0061419244 0)
(1.3345036 0.0056780716 0)
(1.3440716 0.0052653209 0)
(1.3528927 0.0048939356 0)
(1.3610463 0.0045563968 0)
(1.3685975 0.004247071 0)
(1.3756004 0.0039617769 0)
(1.3821012 0.0036973981 0)
(1.3881402 0.0034515824 0)
(1.3937533 0.0032225178 0)
(1.3989728 0.0030087687 0)
(1.403828 0.0028091568 0)
(1.4083456 0.0026226783 0)
(1.4125503 0.0024484494 0)
(1.4164646 0.0022856711 0)
(1.4201094 0.0021336083 0)
(1.423504 0.0019915772 0)
(1.4266661 0.0018589372 0)
(1.4296121 0.0017350865 0)
(1.4323573 0.0016194587 0)
(1.4349159 0.001511521 0)
(1.4373007 0.0014107722 0)
(1.4395241 0.0013167412 0)
(1.441597 0.0012289857 0)
(1.4435301 0.0011470907 0)
(1.4453328 0.0010706672 0)
(1.4470143 0.00099935122 0)
(1.4485827 0.000932802 0)
(1.4500459 0.00087070125 0)
(1.451411 0.00081275158 0)
(1.4526846 0.00075867532 0)
(1.4538731 0.0007082133 0)
(1.4549822 0.00066112348 0)
(1.4560172 0.00061717992 0)
(1.4569831 0.00057617154 0)
(1.4578847 0.00053790097 0)
(1.4587262 0.00050218431 0)
(1.4595117 0.0004688498 0)
(1.460245 0.00043773746 0)
(1.4609295 0.00040869822 0)
(1.4615685 0.00038159332 0)
(1.4621651 0.00035629354 0)
(1.4627221 0.00033267833 0)
(1.4632422 0.00031063541 0)
(1.4637278 0.00029005962 0)
(1.4641811 0.00027085231 0)
(1.4646045 0.00025292161 0)
(1.4649998 0.0002361816 0)
(1.4653689 0.00022055234 0)
(1.4657136 0.00020595957 0)
(1.4660355 0.0001923344 0)
(1.4663361 0.000179613 0)
(1.4666168 0.00016773565 0)
(1.466879 0.00015664707 0)
(1.4671238 0.00014629465 0)
(1.4673524 0.0001366291 0)
(1.467566 0.00012760361 0)
(1.4677654 0.00011917541 0)
(1.4679516 0.00011130308 0)
(1.4681256 0.00010395096 0)
(1.468288 9.7082969e-05 0)
(1.4684397 9.067066e-05 0)
(1.4685815 8.4681112e-05 0)
(1.4687138 7.9092363e-05 0)
(1.4688375 7.3870531e-05 0)
(1.4689529 6.900097e-05 0)
(1.4690608 6.4445015e-05 0)
(1.4691614 6.0200089e-05 0)
(1.4692557 5.621761e-05 0)
(1.4693433 5.2517192e-05 0)
(1.4694257 4.9029822e-05 0)
(1.4695019 4.5813675e-05 0)
(1.4695741 4.2754033e-05 0)
(1.4696402 3.9975536e-05 0)
(1.4697037 3.7275529e-05 0)
(1.4697606 3.4897619e-05 0)
(1.469817 3.2479342e-05 0)
(1.4698652 3.048165e-05 0)
(1.4699163 2.8259738e-05 0)
(1.4699557 2.6655156e-05 0)
(1.4700039 2.4541269e-05 0)
(1.4700335 2.33898e-05 0)
(1.4700821 2.129019e-05 0)
(1.4700991 2.0680594e-05 0)
(1.4701541 1.8478118e-05 0)
(1.0005903 -0.0034629158 0)
(1.0136865 -0.0093660194 0)
(1.0370283 -0.013046806 0)
(1.0674202 -0.014563262 0)
(1.1000315 -0.014854525 0)
(1.1316428 -0.014564991 0)
(1.1610745 -0.013888337 0)
(1.1880674 -0.012919244 0)
(1.2125205 -0.011806505 0)
(1.2343939 -0.010696426 0)
(1.2538077 -0.009672742 0)
(1.2710339 -0.0087628229 0)
(1.286401 -0.0079659751 0)
(1.3002112 -0.0072722162 0)
(1.3127102 -0.0066688098 0)
(1.3240903 -0.0061419258 0)
(1.3345036 -0.0056780717 0)
(1.3440716 -0.0052653196 0)
(1.3528927 -0.0048939333 0)
(1.3610463 -0.0045563942 0)
(1.3685975 -0.0042470688 0)
(1.3756004 -0.0039617758 0)
(1.3821012 -0.0036973985 0)
(1.3881402 -0.003451584 0)
(1.3937533 -0.0032225202 0)
(1.3989728 -0.0030087711 0)
(1.403828 -0.0028091583 0)
(1.4083456 -0.0026226786 0)
(1.4125503 -0.0024484482 0)
(1.4164646 -0.0022856688 0)
(1.4201094 -0.0021336057 0)
(1.423504 -0.001991575 0)
(1.4266661 -0.0018589361 0)
(1.4296121 -0.0017350868 0)
(1.4323573 -0.0016194603 0)
(1.4349159 -0.0015115233 0)
(1.4373007 -0.0014107743 0)
(1.4395241 -0.0013167423 0)
(1.441597 -0.0012289852 0)
(1.4435301 -0.0011470886 0)
(1.4453328 -0.0010706641 0)
(1.4470143 -0.00099934795 0)
(1.4485827 -0.00093279953 0)
(1.4500459 -0.00087070021 0)
(1.451411 -0.00081275213 0)
(1.4526846 -0.00075867708 0)
(1.4538731 -0.00070821537 0)
(1.4549822 -0.00066112481 0)
(1.4560172 -0.00061717955 0)
(1.4569831 -0.00057616896 0)
(1.4578847 -0.00053789679 0)
(1.4587262 -0.00050217946 0)
(1.4595117 -0.00046884554 0)
(1.460245 -0.00043773486 0)
(1.4609295 -0.00040869777 0)
(1.4615685 -0.00038159468 0)
(1.4621651 -0.00035629565 0)
(1.4627221 -0.00033267978 0)
(1.4632422 -0.00031063468 0)
(1.4637278 -0.00029005575 0)
(1.4641812 -0.00027084593 0)
(1.4646045 -0.00025291402 0)
(1.4649998 -0.00023617465 0)
(1.4653689 -0.00022054772 0)
(1.4657136 -0.00020595821 0)
(1.4660355 -0.00019233594 0)
(1.4663361 -0.00017961604 0)
(1.4666168 -0.00016773814 0)
(1.466879 -0.00015664681 0)
(1.4671238 -0.00014629022 0)
(1.4673524 -0.00013662123 0)
(1.467566 -0.00012759412 0)
(1.4677654 -0.00011916695 0)
(1.4679516 -0.00011129823 0)
(1.4681256 -0.00010395111 0)
(1.468288 -9.7087748e-05 0)
(1.4684398 -9.0678161e-05 0)
(1.4685815 -8.4688312e-05 0)
(1.4687138 -7.9096613e-05 0)
(1.4688375 -7.3870669e-05 0)
(1.4689529 -6.8997473e-05 0)
(1.4690608 -6.444022e-05 0)
(1.4691614 -6.0197144e-05 0)
(1.4692557 -5.6219412e-05 0)
(1.4693433 -5.2525601e-05 0)
(1.4694257 -4.9043497e-05 0)
(1.4695019 -4.5829759e-05 0)
(1.4695741 -4.2769236e-05 0)
(1.4696402 -3.9986787e-05 0)
(1.4697037 -3.7281658e-05 0)
(1.4697606 -3.4900371e-05 0)
(1.469817 -3.248128e-05 0)
(1.4698652 -3.0486482e-05 0)
(1.4699163 -2.8269783e-05 0)
(1.4699557 -2.6671016e-05 0)
(1.4700039 -2.456044e-05 0)
(1.4700335 -2.340801e-05 0)
(1.4700821 -2.1304956e-05 0)
(1.4700991 -2.0689853e-05 0)
(1.4701541 -1.8479121e-05 0)
(1.0007347 -0.011814722 0)
(1.0178472 -0.030860927 0)
(1.0462163 -0.041434442 0)
(1.0799018 -0.04519357 0)
(1.1132664 -0.045502351 0)
(1.143782 -0.044080307 0)
(1.1708941 -0.041439981 0)
(1.1945687 -0.037973677 0)
(1.2148582 -0.034195728 0)
(1.2319652 -0.030536887 0)
(1.2462683 -0.027222046 0)
(1.2582339 -0.024313922 0)
(1.2683135 -0.02179789 0)
(1.2768875 -0.019633661 0)
(1.2842554 -0.017773827 0)
(1.2906479 -0.016169651 0)
(1.296243 -0.014775589 0)
(1.3011791 -0.013552296 0)
(1.3055645 -0.012467862 0)
(1.3094838 -0.011497465 0)
(1.3130042 -0.010622161 0)
(1.3161792 -0.0098275138 0)
(1.3190526 -0.0091024121 0)
(1.3216607 -0.008438178 0)
(1.3240343 -0.0078279049 0)
(1.3261995 -0.0072659748 0)
(1.3281786 -0.0067477083 0)
(1.3299913 -0.0062691157 0)
(1.3316544 -0.0058267261 0)
(1.3331829 -0.005417472 0)
(1.3345896 -0.0050386114 0)
(1.3358862 -0.0046876735 0)
(1.3370827 -0.0043624201 0)
(1.3381882 -0.0040608158 0)
(1.3392108 -0.0037810058 0)
(1.3401576 -0.0035212962 0)
(1.3410349 -0.0032801388 0)
(1.3418486 -0.0030561168 0)
(1.3426038 -0.0028479324 0)
(1.3433051 -0.0026543955 0)
(1.3439569 -0.0024744141 0)
(1.3445629 -0.002306985 0)
(1.3451267 -0.0021511858 0)
(1.3456513 -0.0020061679 0)
(1.3461398 -0.0018711498 0)
(1.3465947 -0.0017454113 0)
(1.3470185 -0.0016282884 0)
(1.3474135 -0.0015191685 0)
(1.3477816 -0.0014174856 0)
(1.3481249 -0.0013227163 0)
(1.3484449 -0.0012343763 0)
(1.3487435 -0.0011520169 0)
(1.349022 -0.0010752219 0)
(1.3492818 -0.0010036056 0)
(1.3495242 -0.00093681015 0)
(1.3497505 -0.00087450359 0)
(1.3499616 -0.00081637822 0)
(1.3501587 -0.00076214864 0)
(1.3503427 -0.00071155004 0)
(1.3505145 -0.00066433621 0)
(1.3506748 -0.00062027771 0)
(1.3508245 -0.00057916088 0)
(1.3509643 -0.00054078642 0)
(1.3510948 -0.00050496839 0)
(1.3512167 -0.0004715338 0)
(1.3513305 -0.00044032178 0)
(1.3514368 -0.00041118331 0)
(1.3515361 -0.00038397974 0)
(1.3516288 -0.00035858308 0)
(1.3517153 -0.00033487296 0)
(1.3517962 -0.00031273784 0)
(1.3518717 -0.00029207148 0)
(1.3519422 -0.00027277657 0)
(1.3520081 -0.0002547584 0)
(1.3520696 -0.00023793359 0)
(1.3521271 -0.00022221822 0)
(1.3521807 -0.00020754417 0)
(1.3522309 -0.00019383585 0)
(1.3522777 -0.00018104089 0)
(1.3523215 -0.00016908557 0)
(1.3523623 -0.00015793442 0)
(1.3524005 -0.00014750623 0)
(1.3524361 -0.00013778904 0)
(1.3524695 -0.00012868213 0)
(1.3525004 -0.00012021486 0)
(1.3525297 -0.00011224642 0)
(1.3525565 -0.0001048799 0)
(1.3525822 -9.7889809e-05 0)
(1.3526054 -9.1509359e-05 0)
(1.3526281 -8.5345984e-05 0)
(1.352648 -7.9867792e-05 0)
(1.3526683 -7.4367888e-05 0)
(1.3526849 -6.9747185e-05 0)
(1.3527035 -6.4726152e-05 0)
(1.3527169 -6.0987337e-05 0)
(1.3527346 -5.6239888e-05 0)
(1.3527444 -5.3519428e-05 0)
(1.3527623 -4.8828393e-05 0)
(1.3527678 -4.7376699e-05 0)
(1.3527881 -4.2505523e-05 0)
(1.0014244 -0.026824855 0)
(1.0291272 -0.062791352 0)
(1.0654292 -0.077736553 0)
(1.098962 -0.0805972 0)
(1.1253149 -0.078285171 0)
(1.145053 -0.073153899 0)
(1.1594858 -0.066111278 0)
(1.1694287 -0.058162063 0)
(1.1755354 -0.050296754 0)
(1.1785738 -0.043150709 0)
(1.1793571 -0.036972826 0)
(1.1785949 -0.031771632 0)
(1.1768304 -0.027451839 0)
(1.1744518 -0.023886767 0)
(1.1717287 -0.020947619 0)
(1.1688444 -0.01851578 0)
(1.1659195 -0.016488085 0)
(1.1630317 -0.014779503 0)
(1.1602295 -0.013322986 0)
(1.1575415 -0.012067133 0)
(1.1549828 -0.010973001 0)
(1.1525601 -0.010011061 0)
(1.1502747 -0.009158746 0)
(1.1481246 -0.0083986033 0)
(1.1461059 -0.0077169497 0)
(1.1442134 -0.0071028877 0)
(1.1424414 -0.0065475919 0)
(1.1407838 -0.0060437958 0)
(1.1392344 -0.0055854268 0)
(1.1377869 -0.0051673452 0)
(1.1364353 -0.0047851573 0)
(1.1351738 -0.004435076 0)
(1.1339968 -0.0041138162 0)
(1.1328987 -0.0038185121 0)
(1.1318746 -0.0035466523 0)
(1.1309195 -0.0032960267 0)
(1.1300289 -0.0030646832 0)
(1.1291985 -0.0028508911 0)
(1.1284242 -0.0026531109 0)
(1.1277022 -0.0024699691 0)
(1.1270291 -0.0023002357 0)
(1.1264014 -0.0021428066 0)
(1.1258161 -0.0019966872 0)
(1.1252702 -0.0018609795 0)
(1.1247612 -0.0017348699 0)
(1.1242865 -0.0016176201 0)
(1.1238437 -0.0015085575 0)
(1.1234307 -0.0014070688 0)
(1.1230455 -0.0013125928 0)
(1.1226861 -0.0012246153 0)
(1.1223509 -0.0011426645 0)
(1.1220381 -0.0010663068 0)
(1.1217462 -0.00099514299 0)
(1.1214739 -0.00092880539 0)
(1.1212198 -0.00086695479 0)
(1.1209827 -0.00080927785 0)
(1.1207614 -0.00075548474 0)
(1.1205548 -0.00070530698 0)
(1.1203621 -0.00065849553 0)
(1.1201821 -0.00061481914 0)
(1.1200142 -0.00057406304 0)
(1.1198574 -0.00053602789 0)
(1.1197111 -0.00050052879 0)
(1.1195745 -0.00046739403 0)
(1.1194469 -0.00043646448 0)
(1.1193278 -0.00040759204 0)
(1.1192167 -0.00038063908 0)
(1.1191129 -0.00035547681 0)
(1.119016 -0.00033198537 0)
(1.1189255 -0.00031005192 0)
(1.118841 -0.00028957215 0)
(1.1187621 -0.00027044755 0)
(1.1186885 -0.00025258874 0)
(1.1186197 -0.00023591002 0)
(1.1185554 -0.00022033584 0)
(1.1184954 -0.00020579068 0)
(1.1184394 -0.00019221107 0)
(1.1183871 -0.00017952753 0)
(1.1183383 -0.00016768783 0)
(1.1182927 -0.00015662439 0)
(1.11825 -0.00014629908 0)
(1.1182103 -0.00013664222 0)
(1.1181731 -0.0001276364 0)
(1.1181384 -0.00011920208 0)
(1.1181059 -0.00011135276 0)
(1.1180757 -0.00010398216 0)
(1.1180474 -9.7152169e-05 0)
(1.1180211 -9.0699178e-05 0)
(1.1179963 -8.477013e-05 0)
(1.1179735 -7.9092613e-05 0)
(1.1179517 -7.3970219e-05 0)
(1.1179319 -6.8928217e-05 0)
(1.1179128 -6.4560093e-05 0)
(1.1178956 -6.0011711e-05 0)
(1.1178791 -5.641203e-05 0)
(1.1178637 -5.2200712e-05 0)
(1.1178502 -4.9493197e-05 0)
(1.1178352 -4.545809e-05 0)
(1.1178264 -4.3955838e-05 0)
(1.1178088 -4.0051508e-05 0)
(1.0016583 -0.053819431 0)
(1.0359761 -0.10128444 0)
(1.0597199 -0.11073663 0)
(1.0628947 -0.10592202 0)
(1.0515569 -0.096228728 0)
(1.0340529 -0.083934061 0)
(1.0142795 -0.070327064 0)
(0.99360703 -0.056981334 0)
(0.97292577 -0.045107479 0)
(0.95310739 -0.03523675 0)
(0.93479538 -0.027401649 0)
(0.91829011 -0.021387226 0)
(0.90362379 -0.016884498 0)
(0.89068067 -0.013569709 0)
(0.87928175 -0.011147749 0)
(0.86923242 -0.0093736605 0)
(0.86034423 -0.0080569301 0)
(0.85244667 -0.0070571289 0)
(0.84539241 -0.0062752387 0)
(0.83905793 -0.0056438276 0)
(0.83334126 -0.005118089 0)
(0.82815884 -0.0046686698 0)
(0.82344212 -0.0042764151 0)
(0.81913467 -0.0039287376 0)
(0.81518962 -0.0036172037 0)
(0.81156765 -0.0033359718 0)
(0.80823544 -0.0030808061 0)
(0.8051644 -0.0028484709 0)
(0.80232979 -0.0026363703 0)
(0.79970999 -0.0024423382 0)
(0.79728597 -0.0022645171 0)
(0.79504086 -0.0021012874 0)
(0.79295963 -0.0019512227 0)
(0.7910288 -0.0018130612 0)
(0.78923628 -0.0016856832 0)
(0.7875711 -0.0015680937 0)
(0.78602338 -0.0014594081 0)
(0.78458412 -0.0013588386 0)
(0.78324511 -0.0012656826 0)
(0.78199889 -0.0011793125 0)
(0.7808386 -0.0010991662 0)
(0.77975799 -0.0010247387 0)
(0.77875128 -0.00095557526 0)
(0.77781318 -0.00089126495 0)
(0.77693881 -0.00083143509 0)
(0.77612368 -0.00077574681 0)
(0.77536363 -0.00072389116 0)
(0.77465481 -0.00067558592 0)
(0.77399368 -0.00063057279 0)
(0.77337694 -0.00058861503 0)
(0.77280153 -0.00054949533 0)
(0.77226464 -0.00051301385 0)
(0.77176363 -0.00047898638 0)
(0.77129606 -0.0004472427 0)
(0.77085967 -0.00041762517 0)
(0.77045235 -0.00038998748 0)
(0.77007213 -0.0003641937 0)
(0.76971718 -0.00034011755 0)
(0.76938582 -0.00031764189 0)
(0.76907645 -0.00029665822 0)
(0.7687876 -0.00027706617 0)
(0.76851791 -0.00025877283 0)
(0.7682661 -0.00024169201 0)
(0.76803096 -0.00022574333 0)
(0.7678114 -0.00021085159 0)
(0.76760637 -0.000196946 0)
(0.7674149 -0.00018396017 0)
(0.76723609 -0.00017183173 0)
(0.76706911 -0.00016050295 0)
(0.76691316 -0.00014992013 0)
(0.76676752 -0.00014003443 0)
(0.7666315 -0.0001308003 0)
(0.76650447 -0.00012217647 0)
(0.76638583 -0.0001141229 0)
(0.76627502 -0.00010660343 0)
(0.76617153 -9.9580847e-05 0)
(0.76607487 -9.3023092e-05 0)
(0.76598459 -8.6895211e-05 0)
(0.76590026 -8.1171171e-05 0)
(0.7658215 -7.5818957e-05 0)
(0.76574793 -7.0821377e-05 0)
(0.76567923 -6.61475e-05 0)
(0.76561504 -6.1789807e-05 0)
(0.76555512 -5.7712203e-05 0)
(0.76549911 -5.3918055e-05 0)
(0.76544686 -5.0358215e-05 0)
(0.76539797 -4.705403e-05 0)
(0.76535241 -4.3935203e-05 0)
(0.76530973 -4.1056262e-05 0)
(0.76527002 -3.8312508e-05 0)
(0.76523277 -3.5812811e-05 0)
(0.76519815 -3.3392851e-05 0)
(0.76516571 -3.1244069e-05 0)
(0.76513542 -2.9105169e-05 0)
(0.76510741 -2.7290971e-05 0)
(0.76508042 -2.5404004e-05 0)
(0.76505712 -2.3937366e-05 0)
(0.76503134 -2.2357058e-05 0)
(0.76501523 -2.1390904e-05 0)
(0.7649847 -2.0651275e-05 0)
(0.91890839 -0.035821913 0)
(0.86271384 -0.062195638 0)
(0.7870597 -0.06251009 0)
(0.69536033 -0.054550395 0)
(0.61089745 -0.044531652 0)
(0.54411592 -0.034015972 0)
(0.49343012 -0.02418754 0)
(0.45479413 -0.016144229 0)
(0.42544582 -0.010265784 0)
(0.40347313 -0.0063041435 0)
(0.38715766 -0.0037976281 0)
(0.3749622 -0.0023103378 0)
(0.36566192 -0.0014930157 0)
(0.35836272 -0.0010851198 0)
(0.35244267 -0.00090607413 0)
(0.34748201 -0.00084105311 0)
(0.34320348 -0.00082372462 0)
(0.33942726 -0.00081930984 0)
(0.33603793 -0.00081185059 0)
(0.33296114 -0.00079579948 0)
(0.33014778 -0.00077080997 0)
(0.32756384 -0.00073870872 0)
(0.3251842 -0.00070188952 0)
(0.32298902 -0.00066256676 0)
(0.32096172 -0.00062250119 0)
(0.31908785 -0.00058295905 0)
(0.31735449 -0.00054477264 0)
(0.31574995 -0.00050843432 0)
(0.3142636 -0.00047419081 0)
(0.31288574 -0.00044212312 0)
(0.31160755 -0.00041220775 0)
(0.31042101 -0.00038436025 0)
(0.30931883 -0.00035846437 0)
(0.30829438 -0.00033439068 0)
(0.30734165 -0.00031200791 0)
(0.30645515 -0.00029118928 0)
(0.30562991 -0.00027181581 0)
(0.30486136 -0.00025377765 0)
(0.30414535 -0.00023697422 0)
(0.30347807 -0.00022131374 0)
(0.30285601 -0.00020671245 0)
(0.30227596 -0.00019309376 0)
(0.30173496 -0.00018038736 0)
(0.30123029 -0.00016852863 0)
(0.30075942 -0.00015745799 0)
(0.30032002 -0.00014712058 0)
(0.29990993 -0.00013746587 0)
(0.29952715 -0.00012844738 0)
(0.29916983 -0.00012002233 0)
(0.29883624 -0.00011215125 0)
(0.29852478 -0.00010479759 0)
(0.29823397 -9.7927263e-05 0)
(0.29796241 -9.1508338e-05 0)
(0.29770883 -8.5510763e-05 0)
(0.29747201 -7.9906273e-05 0)
(0.29725085 -7.4668401e-05 0)
(0.29704429 -6.9772557e-05 0)
(0.29685138 -6.5196116e-05 0)
(0.2966712 -6.091837e-05 0)
(0.29650291 -5.6920351e-05 0)
(0.29634572 -5.318451e-05 0)
(0.2961989 -4.9694318e-05 0)
(0.29606176 -4.6433962e-05 0)
(0.29593366 -4.3388126e-05 0)
(0.29581401 -4.0542072e-05 0)
(0.29570224 -3.7881827e-05 0)
(0.29559784 -3.5394527e-05 0)
(0.29550032 -3.3068599e-05 0)
(0.29540922 -3.0893912e-05 0)
(0.29532413 -2.8861409e-05 0)
(0.29524464 -2.696295e-05 0)
(0.29517039 -2.5190504e-05 0)
(0.29510104 -2.3536235e-05 0)
(0.29503625 -2.1991743e-05 0)
(0.29497573 -2.0549061e-05 0)
(0.29491919 -1.919994e-05 0)
(0.29486638 -1.7937837e-05 0)
(0.29481705 -1.675622e-05 0)
(0.29477097 -1.5651385e-05 0)
(0.29472792 -1.461836e-05 0)
(0.29468771 -1.3655439e-05 0)
(0.29465015 -1.2756673e-05 0)
(0.29461506 -1.192074e-05 0)
(0.29458229 -1.113863e-05 0)
(0.29455167 -1.0410534e-05 0)
(0.29452307 -9.7246792e-06 0)
(0.29449635 -9.0866609e-06 0)
(0.2944714 -8.4819253e-06 0)
(0.29444808 -7.9246738e-06 0)
(0.29442632 -7.393983e-06 0)
(0.29440597 -6.9137232e-06 0)
(0.294387 -6.4514205e-06 0)
(0.29436924 -6.0414523e-06 0)
(0.29435267 -5.6408259e-06 0)
(0.29433723 -5.2910618e-06 0)
(0.29432263 -4.9615908e-06 0)
(0.29430935 -4.6694874e-06 0)
(0.29429597 -4.4990472e-06 0)
(0.29428533 -4.3568854e-06 0)
(0.29426933 -4.9482429e-06 0)
)
;

boundaryField
{
    top
    {
        type            fixedValue;
        value           uniform (0 0 0);
    }
    inlet
    {
        type            fixedValue;
        value           uniform (1 0 0);
    }
    outlet
    {
        type            zeroGradient;
    }
    bottom
    {
        type            fixedValue;
        value           uniform (0 0 0);
    }
    back
    {
        type            empty;
    }
    front
    {
        type            empty;
    }
}


// ************************************************************************* //
