/*--------------------------------*- C++ -*----------------------------------*\
| =========                 |                                                 |
| \\      /  F ield         | OpenFOAM: The Open Source CFD Toolbox           |
|  \\    /   O peration     | Version:  2112                                  |
|   \\  /    A nd           | Website:  www.openfoam.com                      |
|    \\/     M anipulation  |                                                 |
\*---------------------------------------------------------------------------*/
FoamFile
{
    version     2.0;
    format      ascii;
    arch        "LSB;label=32;scalar=64";
    class       volScalarField;
    location    "5";
    object      p;
}
// * * * * * * * * * * * * * * * * * * * * * * * * * * * * * * * * * * * * * //

dimensions      [0 2 -2 0 0 0 0];

internalField   nonuniform List<scalar> 
1000
(
1.5262431
1.5090574
1.492632
1.4766331
1.4608518
1.4452018
1.4296469
1.4141639
1.3987337
1.3833418
1.3679783
1.3526369
1.3373129
1.3220024
1.3067022
1.2914092
1.2761211
1.260836
1.2455527
1.2302703
1.214988
1.1997057
1.1844234
1.1691408
1.1538582
1.1385754
1.1232926
1.1080098
1.0927269
1.077444
1.0621611
1.0468782
1.0315953
1.0163124
1.0010295
0.98574661
0.97046372
0.95518083
0.93989793
0.92461504
0.90933214
0.89404925
0.87876635
0.86348346
0.84820057
0.83291767
0.81763478
0.80235189
0.78706899
0.7717861
0.75650321
0.74122031
0.72593742
0.71065453
0.69537163
0.68008874
0.66480585
0.64952295
0.63424006
0.61895717
0.60367427
0.58839138
0.57310848
0.55782559
0.5425427
0.5272598
0.51197691
0.49669402
0.48141112
0.46612823
0.45084533
0.43556244
0.42027955
0.40499665
0.38971376
0.37443087
0.35914797
0.34386508
0.32858219
0.31329929
0.2980164
0.28273351
0.26745061
0.25216772
0.23688483
0.22160193
0.20631904
0.19103614
0.17575325
0.16047036
0.14518746
0.12990457
0.11462168
0.099338783
0.084055889
0.068772996
0.053490103
0.038207212
0.022924323
0.0076414377
1.525791
1.5086113
1.492549
1.4767735
1.4610227
1.4453345
1.4297464
1.4142433
1.3987972
1.3833902
1.3680135
1.3526617
1.3373299
1.3220138
1.3067094
1.2914135
1.2761235
1.2608373
1.2455532
1.2302703
1.214988
1.1997057
1.1844233
1.1691408
1.1538581
1.1385754
1.1232926
1.1080097
1.0927269
1.077444
1.0621611
1.0468782
1.0315953
1.0163124
1.0010295
0.98574661
0.97046372
0.95518083
0.93989793
0.92461504
0.90933214
0.89404925
0.87876636
0.86348346
0.84820057
0.83291767
0.81763478
0.80235189
0.78706899
0.7717861
0.75650321
0.74122031
0.72593742
0.71065453
0.69537163
0.68008874
0.66480585
0.64952295
0.63424006
0.61895717
0.60367427
0.58839138
0.57310848
0.55782559
0.5425427
0.5272598
0.51197691
0.49669401
0.48141112
0.46612823
0.45084533
0.43556244
0.42027955
0.40499665
0.38971376
0.37443087
0.35914797
0.34386508
0.32858219
0.31329929
0.2980164
0.28273351
0.26745061
0.25216772
0.23688483
0.22160193
0.20631904
0.19103614
0.17575325
0.16047036
0.14518746
0.12990457
0.11462168
0.099338783
0.084055889
0.068772995
0.053490102
0.03820721
0.022924318
0.007641434
1.5250727
1.5077986
1.492215
1.4767985
1.4611418
1.445429
1.4298133
1.414301
1.39885
1.3834346
1.3680479
1.3526873
1.3373489
1.3220276
1.3067192
1.2914202
1.2761279
1.26084
1.2455549
1.2302713
1.2149885
1.1997059
1.1844234
1.1691408
1.1538581
1.1385754
1.1232926
1.1080097
1.0927269
1.077444
1.0621611
1.0468782
1.0315953
1.0163124
1.0010295
0.98574661
0.97046372
0.95518083
0.93989793
0.92461504
0.90933214
0.89404925
0.87876635
0.86348346
0.84820057
0.83291767
0.81763478
0.80235189
0.78706899
0.7717861
0.75650321
0.74122031
0.72593742
0.71065453
0.69537163
0.68008874
0.66480585
0.64952295
0.63424006
0.61895717
0.60367427
0.58839138
0.57310848
0.55782559
0.5425427
0.5272598
0.51197691
0.49669402
0.48141112
0.46612823
0.45084533
0.43556244
0.42027955
0.40499665
0.38971376
0.37443087
0.35914797
0.34386508
0.32858219
0.31329929
0.2980164
0.28273351
0.26745061
0.25216772
0.23688483
0.22160193
0.20631904
0.19103614
0.17575325
0.16047036
0.14518746
0.12990457
0.11462168
0.099338782
0.084055888
0.068772994
0.053490099
0.038207206
0.022924312
0.0076414298
1.5244443
1.5070303
1.4918407
1.4767725
1.4612328
1.4455108
1.4298734
1.414356
1.3989042
1.3834832
1.3680877
1.3527186
1.3373733
1.3220464
1.3067333
1.2914304
1.276135
1.2608448
1.2455579
1.2302731
1.2149895
1.1997064
1.1844236
1.1691409
1.1538582
1.1385754
1.1232926
1.1080097
1.0927269
1.077444
1.0621611
1.0468782
1.0315953
1.0163124
1.0010295
0.98574661
0.97046372
0.95518083
0.93989793
0.92461504
0.90933214
0.89404925
0.87876636
0.86348346
0.84820057
0.83291767
0.81763478
0.80235189
0.78706899
0.7717861
0.75650321
0.74122031
0.72593742
0.71065453
0.69537163
0.68008874
0.66480585
0.64952295
0.63424006
0.61895717
0.60367427
0.58839138
0.57310848
0.55782559
0.5425427
0.5272598
0.51197691
0.49669401
0.48141112
0.46612823
0.45084533
0.43556244
0.42027955
0.40499665
0.38971376
0.37443087
0.35914797
0.34386508
0.32858219
0.31329929
0.2980164
0.28273351
0.26745061
0.25216772
0.23688483
0.22160193
0.20631904
0.19103614
0.17575325
0.16047036
0.14518746
0.12990457
0.11462168
0.099338781
0.084055887
0.068772992
0.053490097
0.038207203
0.022924307
0.0076414269
1.5241003
1.5065903
1.491611
1.4767469
1.4612839
1.4455605
1.4299111
1.4143914
1.3989401
1.3835165
1.3681156
1.3527411
1.3373913
1.3220606
1.3067441
1.2914384
1.2761407
1.2608487
1.2455605
1.2302747
1.2149904
1.1997069
1.1844239
1.169141
1.1538582
1.1385754
1.1232925
1.1080097
1.0927268
1.077444
1.0621611
1.0468782
1.0315953
1.0163124
1.0010295
0.98574661
0.97046372
0.95518083
0.93989793
0.92461504
0.90933214
0.89404925
0.87876635
0.86348346
0.84820057
0.83291767
0.81763478
0.80235189
0.78706899
0.7717861
0.75650321
0.74122031
0.72593742
0.71065453
0.69537163
0.68008874
0.66480585
0.64952295
0.63424006
0.61895717
0.60367427
0.58839138
0.57310848
0.55782559
0.5425427
0.5272598
0.51197691
0.49669402
0.48141112
0.46612823
0.45084533
0.43556244
0.42027955
0.40499665
0.38971376
0.37443087
0.35914797
0.34386508
0.32858219
0.31329929
0.2980164
0.28273351
0.26745061
0.25216772
0.23688483
0.22160193
0.20631904
0.19103614
0.17575325
0.16047036
0.14518746
0.12990457
0.11462167
0.099338781
0.084055886
0.068772991
0.053490095
0.038207201
0.022924305
0.0076414255
1.5241003
1.5065904
1.491611
1.4767469
1.4612839
1.4455605
1.4299111
1.4143914
1.3989401
1.3835165
1.3681156
1.3527411
1.3373913
1.3220606
1.3067441
1.2914384
1.2761407
1.2608486
1.2455605
1.2302747
1.2149904
1.1997069
1.1844239
1.169141
1.1538582
1.1385754
1.1232925
1.1080097
1.0927268
1.077444
1.0621611
1.0468782
1.0315953
1.0163124
1.0010295
0.98574661
0.97046372
0.95518083
0.93989793
0.92461504
0.90933214
0.89404925
0.87876635
0.86348346
0.84820057
0.83291767
0.81763478
0.80235189
0.78706899
0.7717861
0.75650321
0.74122031
0.72593742
0.71065453
0.69537163
0.68008874
0.66480585
0.64952295
0.63424006
0.61895717
0.60367427
0.58839138
0.57310848
0.55782559
0.5425427
0.5272598
0.51197691
0.49669401
0.48141112
0.46612823
0.45084533
0.43556244
0.42027955
0.40499665
0.38971376
0.37443087
0.35914797
0.34386508
0.32858219
0.31329929
0.2980164
0.28273351
0.26745061
0.25216772
0.23688483
0.22160193
0.20631904
0.19103614
0.17575325
0.16047036
0.14518746
0.12990457
0.11462167
0.09933878
0.084055886
0.068772991
0.053490095
0.038207201
0.022924305
0.0076414256
1.5244443
1.5070303
1.4918407
1.4767725
1.4612328
1.4455108
1.4298734
1.414356
1.3989042
1.3834832
1.3680876
1.3527186
1.3373733
1.3220464
1.3067332
1.2914303
1.2761349
1.2608447
1.2455579
1.2302731
1.2149895
1.1997064
1.1844236
1.1691409
1.1538582
1.1385754
1.1232926
1.1080097
1.0927268
1.077444
1.0621611
1.0468782
1.0315953
1.0163124
1.0010295
0.98574661
0.97046372
0.95518082
0.93989793
0.92461504
0.90933214
0.89404925
0.87876636
0.86348346
0.84820057
0.83291767
0.81763478
0.80235189
0.78706899
0.7717861
0.75650321
0.74122031
0.72593742
0.71065453
0.69537163
0.68008874
0.66480585
0.64952295
0.63424006
0.61895716
0.60367427
0.58839138
0.57310848
0.55782559
0.5425427
0.5272598
0.51197691
0.49669401
0.48141112
0.46612823
0.45084533
0.43556244
0.42027955
0.40499665
0.38971376
0.37443087
0.35914797
0.34386508
0.32858219
0.31329929
0.2980164
0.28273351
0.26745061
0.25216772
0.23688483
0.22160193
0.20631904
0.19103614
0.17575325
0.16047036
0.14518746
0.12990457
0.11462167
0.09933878
0.084055886
0.068772992
0.053490097
0.038207203
0.022924307
0.0076414271
1.5250727
1.5077986
1.492215
1.4767984
1.4611418
1.445429
1.4298133
1.4143011
1.39885
1.3834346
1.3680479
1.3526873
1.3373489
1.3220276
1.3067192
1.2914201
1.2761278
1.26084
1.2455549
1.2302713
1.2149885
1.1997059
1.1844234
1.1691408
1.1538581
1.1385754
1.1232926
1.1080097
1.0927269
1.077444
1.0621611
1.0468782
1.0315953
1.0163124
1.0010295
0.98574661
0.97046372
0.95518083
0.93989793
0.92461504
0.90933214
0.89404925
0.87876635
0.86348346
0.84820057
0.83291767
0.81763478
0.80235189
0.78706899
0.7717861
0.75650321
0.74122031
0.72593742
0.71065453
0.69537163
0.68008874
0.66480585
0.64952295
0.63424006
0.61895717
0.60367427
0.58839138
0.57310848
0.55782559
0.5425427
0.5272598
0.51197691
0.49669402
0.48141112
0.46612823
0.45084533
0.43556244
0.42027955
0.40499665
0.38971376
0.37443087
0.35914797
0.34386508
0.32858219
0.31329929
0.2980164
0.28273351
0.26745061
0.25216772
0.23688483
0.22160193
0.20631904
0.19103614
0.17575325
0.16047036
0.14518746
0.12990457
0.11462167
0.099338781
0.084055887
0.068772993
0.053490099
0.038207207
0.022924312
0.00764143
1.525791
1.5086113
1.492549
1.4767735
1.4610227
1.4453345
1.4297464
1.4142433
1.3987972
1.3833902
1.3680135
1.3526617
1.3373299
1.3220138
1.3067093
1.2914135
1.2761235
1.2608372
1.2455532
1.2302703
1.2149879
1.1997056
1.1844233
1.1691408
1.1538581
1.1385754
1.1232926
1.1080097
1.0927269
1.077444
1.0621611
1.0468782
1.0315953
1.0163124
1.0010295
0.98574661
0.97046372
0.95518083
0.93989793
0.92461504
0.90933214
0.89404925
0.87876635
0.86348346
0.84820057
0.83291767
0.81763478
0.80235189
0.78706899
0.7717861
0.75650321
0.74122031
0.72593742
0.71065453
0.69537163
0.68008874
0.66480585
0.64952295
0.63424006
0.61895717
0.60367427
0.58839138
0.57310848
0.55782559
0.5425427
0.5272598
0.51197691
0.49669402
0.48141112
0.46612823
0.45084533
0.43556244
0.42027955
0.40499665
0.38971376
0.37443087
0.35914797
0.34386508
0.32858219
0.31329929
0.2980164
0.28273351
0.26745061
0.25216772
0.23688483
0.22160193
0.20631904
0.19103614
0.17575325
0.16047036
0.14518746
0.12990457
0.11462168
0.099338782
0.084055888
0.068772995
0.053490102
0.038207211
0.022924318
0.0076414341
1.5262431
1.5090574
1.492632
1.4766331
1.4608518
1.4452018
1.4296469
1.4141639
1.3987337
1.3833418
1.3679783
1.3526368
1.3373128
1.3220024
1.3067021
1.2914091
1.276121
1.260836
1.2455527
1.2302702
1.214988
1.1997057
1.1844233
1.1691408
1.1538582
1.1385754
1.1232926
1.1080098
1.0927269
1.077444
1.0621611
1.0468782
1.0315953
1.0163124
1.0010295
0.98574661
0.97046372
0.95518083
0.93989793
0.92461504
0.90933214
0.89404925
0.87876636
0.86348346
0.84820057
0.83291767
0.81763478
0.80235189
0.78706899
0.7717861
0.75650321
0.74122031
0.72593742
0.71065453
0.69537163
0.68008874
0.66480585
0.64952295
0.63424006
0.61895716
0.60367427
0.58839138
0.57310848
0.55782559
0.5425427
0.5272598
0.51197691
0.49669401
0.48141112
0.46612823
0.45084533
0.43556244
0.42027955
0.40499665
0.38971376
0.37443087
0.35914797
0.34386508
0.32858219
0.31329929
0.2980164
0.28273351
0.26745061
0.25216772
0.23688483
0.22160193
0.20631904
0.19103614
0.17575325
0.16047036
0.14518746
0.12990457
0.11462168
0.099338782
0.084055888
0.068772995
0.053490103
0.038207213
0.022924323
0.0076414379
)
;

boundaryField
{
    top
    {
        type            zeroGradient;
    }
    inlet
    {
        type            fixedValue;
        value           uniform 1.5352;
    }
    outlet
    {
        type            fixedValue;
        value           uniform 0;
    }
    bottom
    {
        type            zeroGradient;
    }
    back
    {
        type            empty;
    }
    front
    {
        type            empty;
    }
}


// ************************************************************************* //
