/*--------------------------------*- C++ -*----------------------------------*\
| =========                 |                                                 |
| \\      /  F ield         | OpenFOAM: The Open Source CFD Toolbox           |
|  \\    /   O peration     | Version:  2112                                  |
|   \\  /    A nd           | Website:  www.openfoam.com                      |
|    \\/     M anipulation  |                                                 |
\*---------------------------------------------------------------------------*/
FoamFile
{
    version     2.0;
    format      ascii;
    arch        "LSB;label=32;scalar=64";
    class       surfaceScalarField;
    location    "5";
    object      phi;
}
// * * * * * * * * * * * * * * * * * * * * * * * * * * * * * * * * * * * * * //

dimensions      [0 3 -1 0 0 0 0];

oriented        oriented;

internalField   nonuniform List<scalar> 
1890
(
0.0019808793
5.577956e-06
0.0019648986
1.5981007e-05
0.0019482767
1.6621817e-05
0.0019354365
1.2840295e-05
0.0019263243
9.112525e-06
0.001919638
6.6864922e-06
0.0019145107
5.1274981e-06
0.0019105616
3.9492639e-06
0.0019075696
2.9922875e-06
0.001905333
2.2369465e-06
0.0019036759
1.6574867e-06
0.0019024659
1.2102059e-06
0.0019016065
8.5963018e-07
0.0019010202
5.8638571e-07
0.0019006405
3.7984684e-07
0.0019004098
2.3076357e-07
0.001900281
1.2884596e-07
0.0019002177
6.3437148e-08
0.001900193
2.47316e-08
0.0019001892
3.860736e-09
0.0019001937
-4.3551562e-09
0.001900201
-7.1145871e-09
0.0019002078
-6.7837349e-09
0.0019002132
-5.288378e-09
0.0019002169
-3.64817e-09
0.0019002193
-2.2897215e-09
0.0019002206
-1.3219391e-09
0.0019002213
-6.9772448e-10
0.0019002217
-3.318439e-10
0.0019002218
-1.3217867e-10
0.0019002219
-3.5300848e-11
0.0019002219
6.3779112e-12
0.0019002219
1.9158394e-11
0.0019002219
2.1650394e-11
0.0019002219
1.7443135e-11
0.0019002218
1.436704e-11
0.0019002218
9.5199594e-12
0.0019002218
7.5916528e-12
0.0019002218
4.154415e-12
0.0019002218
3.3581543e-12
0.0019002218
1.1302816e-12
0.0019002218
1.0555034e-12
0.0019002218
-4.0998617e-13
0.0019002218
-4.602706e-14
0.0019002218
-8.5312289e-13
0.0019002218
1.1783724e-14
0.0019002218
-4.8634467e-13
0.0019002218
6.3022464e-13
0.0019002218
1.8765177e-13
0.0019002218
1.3875898e-12
0.0019002218
6.9472062e-13
0.0019002218
1.700498e-12
0.0019002218
7.7663794e-13
0.0019002218
1.5132965e-12
0.0019002218
3.6112068e-13
0.0019002218
7.0360642e-13
0.0019002218
-5.4398324e-13
0.0019002218
-1.5029917e-13
0.0019002218
-1.4322567e-12
0.0019002218
-8.4685483e-13
0.0019002218
-1.9749827e-12
0.0019002218
-1.0478548e-12
0.0019002218
-1.9236112e-12
0.0019002218
-7.8987137e-13
0.0019002218
-1.2792526e-12
0.0019002218
-4.6565089e-14
0.0019002218
-2.5219353e-13
0.0019002218
1.0235003e-12
0.0019002218
6.1715133e-13
0.0019002218
1.9858931e-12
0.0019002218
1.2793441e-12
0.0019002218
2.408314e-12
0.0019002218
1.4633619e-12
0.0019002218
2.3481085e-12
0.0019002218
1.1101459e-12
0.0019002218
1.6384254e-12
0.0019002218
3.6393784e-13
0.0019002218
6.4560655e-13
0.0019002218
-7.3833688e-13
0.0019002218
-3.983964e-13
0.0019002218
-1.7455855e-12
0.0019002218
-1.1249816e-12
0.0019002218
-2.4059593e-12
0.0019002218
-1.5709314e-12
0.0019002218
-2.5620947e-12
0.0019002218
-1.4111695e-12
0.0019002218
-2.1321561e-12
0.0019002218
-7.9349807e-13
0.0019002218
-1.02783e-12
0.0019002218
6.6292077e-13
0.0019002218
9.3221496e-13
0.0019002218
3.1190369e-12
0.0019002218
4.6168414e-12
0.0019002218
8.7109614e-12
0.0019002218
1.6048624e-11
0.0019002218
2.7501874e-11
0.0019002217
5.2203527e-11
0.0019002216
8.1470596e-11
0.0019002214
1.8304303e-10
2.2599364e-10
0.0044458786
6.2463794e-06
0.0044394153
2.2444227e-05
0.0044287611
2.7275213e-05
0.004417528
2.4073046e-05
0.0044073825
1.9258447e-05
0.0043985689
1.5500472e-05
0.0043910102
1.2686206e-05
0.0043846684
1.0290958e-05
0.0043794943
8.1663416e-06
0.0043753764
6.354953e-06
0.0043721692
4.8647698e-06
0.0043697306
3.6489066e-06
0.0043679321
2.6582225e-06
0.0043666549
1.8635388e-06
0.004365788
1.2467659e-06
0.00436523
7.8882871e-07
0.0043648929
4.6596188e-07
0.004364705
2.5142476e-07
0.0043646113
1.1853705e-07
0.0043645722
4.30784e-08
0.0043645627
5.2493915e-09
0.0043645662
-1.0480214e-08
0.0043645739
-1.4343298e-08
0.0043645815
-1.2823715e-08
0.0043645875
-9.5831199e-09
0.0043645917
-6.3900449e-09
0.0043645943
-3.8905852e-09
0.0043645958
-2.1794631e-09
0.0043645966
-1.1147875e-09
0.004364597
-5.0923149e-10
0.0043645972
-1.9118241e-10
0.0043645972
-4.2802638e-11
0.0043645972
1.9158688e-11
0.0043645972
3.6348315e-11
0.0043645972
3.6966763e-11
0.0043645972
2.9497686e-11
0.0043645972
2.3043046e-11
0.0043645972
1.5652799e-11
0.0043645972
1.1342423e-11
0.0043645972
6.571843e-12
0.0043645972
4.4665812e-12
0.0043645972
1.7520438e-12
0.0043645972
8.3159217e-13
0.0043645972
-4.8653188e-13
0.0043645972
-3.3438619e-13
0.0043645972
-6.5758889e-13
0.0043645972
1.0833799e-13
0.0043645972
1.733915e-13
0.0043645972
1.3792637e-12
0.0043645972
1.2783911e-12
0.0043645972
2.3993983e-12
0.0043645972
1.8676843e-12
0.0043645972
2.611999e-12
0.0043645972
1.6709323e-12
0.0043645972
1.7425832e-12
0.0043645972
5.5159184e-13
0.0043645972
1.8774473e-13
0.0043645972
-1.1077641e-12
0.0043645972
-1.2130783e-12
0.0043645972
-2.5905998e-12
0.0043645972
-2.1994588e-12
0.0043645972
-3.1255822e-12
0.0043645972
-2.316359e-12
0.0043645972
-2.7481639e-12
0.0043645972
-1.4687827e-12
0.0043645972
-1.2776834e-12
0.0043645972
1.6812099e-14
0.0043645972
4.1300875e-13
0.0043645972
1.9221146e-12
0.0043645972
1.9634884e-12
0.0043645972
3.3105784e-12
0.0043645972
2.8771614e-12
0.0043645972
3.8798592e-12
0.0043645972
3.0106821e-12
0.0043645972
3.4312861e-12
0.0043645972
2.1183949e-12
0.0043645972
2.1267146e-12
0.0043645972
7.3883152e-13
0.0043645972
2.1219755e-13
0.0043645971
-1.1950278e-12
0.0043645972
-1.3288573e-12
0.0043645971
-2.7643762e-12
0.0043645972
-2.5741549e-12
0.0043645971
-3.76315e-12
0.0043645972
-3.0383265e-12
0.0043645972
-3.7017852e-12
0.0043645972
-2.5443478e-12
0.0043645972
-2.6394659e-12
0.0043645972
-8.5300089e-13
0.0043645972
1.1046878e-13
0.0043645972
2.8393634e-12
0.0043645972
4.4956374e-12
0.0043645972
1.0700203e-11
0.0043645971
1.6264796e-11
0.0043645971
3.2703061e-11
0.0043645971
4.8579231e-11
0.0043645971
9.0367878e-11
0.004364597
1.2964232e-10
0.004364597
2.3199005e-10
2.8968951e-10
0.0058639771
4.3091804e-06
0.0058681978
1.8222345e-05
0.0058710815
2.4390624e-05
0.0058718512
2.3303722e-05
0.0058712074
1.9903158e-05
0.0058697858
1.6922504e-05
0.0058679553
1.4516525e-05
0.0058659635
1.2282499e-05
0.0058639987
1.0131103e-05
0.0058621867
8.1669701e-06
0.0058605962
6.4553776e-06
0.0058592565
4.9886362e-06
0.0058581725
3.7422675e-06
0.0058573313
2.7046525e-06
0.0058567072
1.8708057e-06
0.005856266
1.2300148e-06
0.0058559702
7.6182502e-07
0.0058557832
4.3846801e-07
0.0058556728
2.2897985e-07
0.0058556129
1.0304164e-07
0.005855584
3.426751e-08
0.0058555727
1.0395743e-09
0.0058555701
-1.1643755e-08
0.0058555712
-1.3815972e-08
0.0058555733
-1.1658542e-08
0.0058555754
-8.3776089e-09
0.0058555769
-5.4018145e-09
0.005855578
-3.1835114e-09
0.0058555786
-1.7210859e-09
0.0058555789
-8.4261656e-10
0.0058555791
-3.5974394e-10
0.0058555792
-1.1727475e-10
0.0058555792
-8.6285667e-12
0.0058555793
3.2373246e-11
0.0058555793
3.9936183e-11
0.0058555793
3.6324753e-11
0.0058555792
2.7882314e-11
0.0058555792
2.0844939e-11
0.0058555792
1.387412e-11
0.0058555792
9.4883182e-12
0.0058555792
5.3707972e-12
0.0058555792
3.0749316e-12
0.0058555792
1.1117324e-12
0.0058555792
5.9781013e-14
0.0058555792
-2.3113372e-13
0.0058555792
-3.5341731e-13
0.0058555792
1.2113883e-13
0.0058555792
7.8807084e-13
0.0058555792
1.1607053e-12
0.0058555792
2.0576794e-12
0.0058555792
2.1065914e-12
0.0058555792
2.6912943e-12
0.0058555792
2.2614977e-12
0.0058555792
2.232795e-12
0.0058555792
1.4153417e-12
0.0058555792
7.3651303e-13
0.0058555792
-1.6069974e-13
0.0058555792
-9.0135824e-13
0.0058555792
-1.9975236e-12
0.0058555792
-2.231376e-12
0.0058555792
-3.052266e-12
0.0058555792
-2.7869963e-12
0.0058555792
-3.0789003e-12
0.0058555792
-2.2927409e-12
0.0058555792
-1.9724611e-12
0.0058555792
-9.9207762e-13
0.0058555792
-8.8850689e-14
0.0058555792
9.7336749e-13
0.0058555792
1.615127e-12
0.0058555792
2.7855023e-12
0.0058555792
2.9672129e-12
0.0058555792
3.8281013e-12
0.0058555792
3.503878e-12
0.0058555792
3.8251233e-12
0.0058555792
3.011866e-12
0.0058555792
2.8353722e-12
0.0058555792
1.7310627e-12
0.0058555792
9.8941089e-13
0.0058555792
3.8238151e-15
0.0058555792
-8.6500878e-13
0.0058555792
-1.9842151e-12
0.0058555792
-2.3532245e-12
0.0058555792
-3.3425764e-12
0.0058555792
-3.2115569e-12
0.0058555792
-3.7460913e-12
0.0058555792
-3.1099638e-12
0.0058555792
-3.0436308e-12
0.0058555792
-1.8137208e-12
0.0058555792
-7.271116e-13
0.0058555792
1.075161e-12
0.0058555792
3.3282133e-12
0.0058555792
6.7724452e-12
0.0058555792
1.3048184e-11
0.0058555792
2.1343547e-11
0.0058555792
3.7518385e-11
0.0058555792
5.3603001e-11
0.0058555792
8.9117487e-11
0.0058555792
1.2306532e-10
0.0058555793
1.9129171e-10
2.3745257e-10
0.0066086625
2.0571069e-06
0.0066172574
9.6259554e-06
0.0066280321
1.3614906e-05
0.0066377527
1.3583574e-05
0.006645653
1.2003847e-05
0.0066520687
1.0507377e-05
0.006657323
9.2621362e-06
0.0066615618
8.0435173e-06
0.0066648932
6.7997311e-06
0.0066674513
5.6089768e-06
0.0066693766
4.5302981e-06
0.006670791
3.5742887e-06
0.0066717965
2.7369365e-06
0.0066724809
2.0202824e-06
0.0066729225
1.4292234e-06
0.0066731891
9.6342234e-07
0.0066733367
6.1435597e-07
0.0066734084
3.6678624e-07
0.0066734359
2.0162739e-07
0.0066734402
9.884308e-08
0.0066734345
4.0093664e-08
0.0066734258
9.9255865e-09
0.0066734179
-3.6119259e-09
0.0066734117
-7.6036416e-09
0.0066734076
-7.3955744e-09
0.006673405
-5.6979495e-09
0.0066734034
-3.8362357e-09
0.0066734026
-2.3371527e-09
0.0066734022
-1.2952792e-09
0.0066734021
-6.5082941e-10
0.006673402
-2.8271173e-10
0.006673402
-9.5932502e-11
0.006673402
-7.4714985e-12
0.006673402
2.4671277e-11
0.006673402
3.4205268e-11
0.006673402
2.8780587e-11
0.0066734021
2.4701893e-11
0.0066734021
1.614099e-11
0.0066734021
1.2874889e-11
0.0066734021
6.6740096e-12
0.0066734021
5.3360626e-12
0.0066734021
1.51799e-12
0.0066734021
1.5583712e-12
0.0066734021
-5.8503778e-13
0.0066734021
4.0055768e-13
0.0066734021
-6.8467201e-13
0.0066734021
1.1097692e-12
0.0066734021
2.4483172e-13
0.0066734021
2.1614732e-12
0.0066734021
9.9714176e-13
0.0066734021
2.9118106e-12
0.0066734021
1.3007884e-12
0.0066734021
2.6500018e-12
0.0066734021
7.3687005e-13
0.0066734021
1.5564547e-12
0.0066734021
-4.8967699e-13
0.0066734021
-1.218837e-14
0.0066734021
-2.127424e-12
0.0066734021
-1.0670482e-12
0.0066734021
-3.1382984e-12
0.0066734021
-1.6522566e-12
0.0066734021
-3.2957125e-12
0.0066734021
-1.3155379e-12
0.0066734021
-2.4110516e-12
0.0066734021
-4.1150106e-13
0.0066734021
-9.1020266e-13
0.0066734021
1.3225354e-12
0.0066734021
6.2659816e-13
0.0066734021
2.8535916e-12
0.0066734021
1.7016979e-12
0.0066734021
3.8555457e-12
0.0066734021
2.2133077e-12
0.0066734021
3.8588389e-12
0.0066734021
1.8351995e-12
0.0066734021
3.0929004e-12
0.0066734021
9.133204e-13
0.0066734021
1.5937002e-12
0.0066734021
-5.3493783e-13
0.0066734021
-5.952559e-14
0.0066734021
-2.1583004e-12
0.0066734021
-1.2244318e-12
0.0066734021
-3.3728991e-12
0.0066734021
-1.8650917e-12
0.0066734021
-3.6756993e-12
0.0066734021
-1.8009926e-12
0.0066734021
-3.103635e-12
0.0066734021
-8.2055319e-13
0.0066734021
-1.3364481e-12
0.0066734021
1.4013581e-12
0.0066734021
1.4316005e-12
0.0066734021
5.4687282e-12
0.0066734021
6.6301288e-12
0.0066734021
1.4536177e-11
0.0066734021
1.9204395e-11
0.0066734021
3.3234624e-11
0.0066734021
4.0475409e-11
0.0066734021
6.2783329e-11
0.0066734022
7.9334443e-11
0.0066734022
1.116266e-10
1.3471151e-10
0.006922988
-5.8436489e-11
0.0069326122
-2.8166663e-10
0.0069462261
-2.8764461e-10
0.0069598102
-1.9631274e-11
0.0069718153
2.7225359e-10
0.0069823233
2.9669678e-10
0.0069915854
1.2768574e-10
0.0069996287
-2.0041338e-11
0.0070064286
-6.8927544e-11
0.0070120379
-7.4292933e-11
0.0070165686
-9.5743022e-11
0.0070201432
-1.4024012e-10
0.0070228805
-1.7039929e-10
0.0070249011
-1.7809207e-10
0.0070263306
-1.5933203e-10
0.0070272943
-1.2095417e-10
0.0070279088
-6.2629062e-11
0.0070282758
5.0972965e-12
0.0070284774
8.1842314e-11
0.0070285763
1.4762818e-10
0.0070286163
1.9896091e-10
0.0070286261
2.3781701e-10
0.0070286224
2.560487e-10
0.0070286146
2.5965087e-10
0.0070286071
2.4513518e-10
0.0070286012
2.2251101e-10
0.0070285972
1.9019926e-10
0.0070285948
1.5921455e-10
0.0070285934
1.2652744e-10
0.0070285927
1.0068398e-10
0.0070285923
7.5927807e-11
0.0070285922
5.8696836e-11
0.0070285922
4.2291015e-11
0.0070285922
3.2793108e-11
0.0070285922
2.2693577e-11
0.0070285922
1.7164535e-11
0.0070285922
1.0582955e-11
0.0070285922
8.2076771e-12
0.0070285922
3.982737e-12
0.0070285922
3.1695448e-12
0.0070285922
3.1407328e-13
0.0070285922
7.0569731e-13
0.0070285922
-1.0774095e-12
0.0070285922
9.4917065e-14
0.0070285922
-1.1007388e-12
0.0070285922
7.3634907e-13
0.0070285922
-7.1538347e-14
0.0070285922
1.6946719e-12
0.0070285922
5.5705342e-13
0.0070285922
2.1695415e-12
0.0070285922
8.7618443e-13
0.0070285923
1.9430814e-12
0.0070285922
1.8511946e-13
0.0070285923
1.0289732e-12
0.0070285923
-7.8411368e-13
0.0070285923
-3.8157347e-14
0.0070285923
-2.0531814e-12
0.0070285923
-9.4990019e-13
0.0070285923
-2.4973077e-12
0.0070285923
-1.2116728e-12
0.0070285923
-2.4837581e-12
0.0070285923
-7.1291642e-13
0.0070285922
-1.4832778e-12
0.0070285923
3.3083639e-13
0.0070285922
-4.256188e-13
0.0070285922
1.6201193e-12
0.0070285922
8.3041404e-13
0.0070285922
2.6748143e-12
0.0070285922
1.4600504e-12
0.0070285923
3.0677942e-12
0.0070285922
1.7246938e-12
0.0070285923
2.7660373e-12
0.0070285922
9.2159387e-13
0.0070285923
1.790684e-12
0.0070285923
2.785331e-14
0.0070285923
6.3690076e-13
0.0070285923
-1.4062241e-12
0.0070285923
-5.1140947e-13
0.0070285923
-2.3904097e-12
0.0070285923
-1.3113629e-12
0.0070285923
-3.033381e-12
0.0070285923
-1.6012311e-12
0.0070285923
-2.7348219e-12
0.0070285923
-1.0701906e-12
0.0070285922
-1.932713e-12
0.0070285922
5.4779523e-14
0.0070285922
-3.3427195e-13
0.0070285922
1.9902183e-12
0.0070285922
1.6036263e-12
0.0070285922
4.4175376e-12
0.0070285922
4.7028393e-12
0.0070285922
8.7238777e-12
0.0070285922
1.0386656e-11
0.0070285923
1.6082051e-11
0.0070285923
1.7642599e-11
0.0070285923
2.0137505e-11
0.0070285923
1.9889371e-11
0.0070285924
1.8931723e-11
0.0070285925
1.6594291e-11
1.3988683e-11
0.0069229866
-2.0571846e-06
0.0069326105
-9.6259688e-06
0.0069462243
-1.3614623e-05
0.0069598086
-1.3583282e-05
0.0069718139
-1.2003663e-05
0.0069823221
-1.0507217e-05
0.0069915843
-9.262014e-06
0.0069996277
-8.0435073e-06
0.0070064276
-6.7998331e-06
0.007012037
-5.6091687e-06
0.0070165678
-4.530554e-06
0.0070201425
-3.5746097e-06
0.0070228798
-2.7372962e-06
0.0070249004
-2.0206488e-06
0.0070263299
-1.4295516e-06
0.0070272936
-9.636686e-07
0.0070279082
-6.1448892e-07
0.0070282751
-3.6678234e-07
0.0070284768
-2.0148245e-07
0.0070285757
-9.8573567e-08
0.0070286158
-3.9723209e-08
0.0070286256
-9.4884466e-09
0.0070286219
4.0868959e-09
0.0070286143
8.0768132e-09
0.0070286068
7.838994e-09
0.007028601
6.0959459e-09
0.0070285971
4.1759875e-09
0.0070285946
2.6194072e-09
0.0070285933
1.5203794e-09
0.0070285926
8.2842256e-10
0.0070285923
4.172936e-10
0.0070285921
1.9826808e-10
0.0070285921
8.204145e-11
0.0070285921
3.2143751e-11
0.0070285922
6.6519338e-12
0.0070285922
-1.6648278e-13
0.0070285922
-5.4315167e-12
0.0070285922
-3.0839825e-12
0.0070285922
-5.4455477e-12
0.0070285922
-2.4466061e-12
0.0070285922
-4.4466657e-12
0.0070285922
-1.3694967e-12
0.0070285922
-3.0893866e-12
0.0070285922
-4.0847419e-13
0.0070285922
-1.7861182e-12
0.0070285922
1.0893243e-12
0.0070285922
-4.5451843e-13
0.0070285922
1.8202885e-12
0.0070285922
-1.1906717e-13
0.0070285922
1.9890013e-12
0.0070285922
-2.9836712e-13
0.0070285922
1.2150038e-12
0.0070285922
-1.3536794e-12
0.0070285922
3.2972353e-13
0.0070285922
-2.2182642e-12
0.0070285922
-4.4914672e-13
0.0070285922
-2.8857963e-12
0.0070285922
-5.2634554e-13
0.0070285922
-2.5802394e-12
0.0070285922
-2.1507722e-13
0.0070285922
-1.8007669e-12
0.0070285922
1.0008793e-12
0.0070285922
-4.0072947e-13
0.0070285922
2.1266829e-12
0.0070285922
4.6254536e-13
0.0070285922
3.2223158e-12
0.0070285922
1.0302928e-12
0.0070285922
3.4166186e-12
0.0070285922
8.8326167e-13
0.0070285922
3.003445e-12
0.0070285922
3.5780842e-13
0.0070285922
1.7393898e-12
0.0070285922
-1.0236744e-12
0.0070285922
4.1514088e-13
0.0070285922
-2.2635115e-12
0.0070285922
-6.687057e-13
0.0070285922
-3.4054031e-12
0.0070285922
-1.1355057e-12
0.0070285922
-3.7246656e-12
0.0070285922
-1.2395776e-12
0.0070285922
-3.4133597e-12
0.0070285922
-5.883451e-13
0.0070285922
-2.154039e-12
0.0070285922
5.2695473e-13
0.0070285922
-5.8445381e-13
0.0070285922
2.4932136e-12
0.0070285922
1.0486109e-12
0.0070285922
4.3636604e-12
0.0070285922
2.5399262e-12
0.0070285922
6.3726316e-12
0.0070285922
4.3603369e-12
0.0070285922
8.6316353e-12
0.0070285922
5.6017649e-12
0.0070285923
8.7880813e-12
0.0070285923
-9.5904092e-14
0.0070285923
-4.070992e-12
0.0070285923
-2.5897705e-11
0.0070285924
-4.5540264e-11
0.0070285925
-8.1203707e-11
-1.091448e-10
0.0066086576
-4.309084e-06
0.0066172531
-1.8222264e-05
0.0066280283
-2.4390838e-05
0.0066377492
-2.3303887e-05
0.0066456496
-1.9903176e-05
0.0066520655
-1.6922441e-05
0.00665732
-1.4516558e-05
0.0066615591
-1.2282604e-05
0.0066648906
-1.01313e-05
0.0066674489
-8.167208e-06
0.0066693742
-6.4556734e-06
0.0066707888
-4.9889559e-06
0.0066717943
-3.7426023e-06
0.0066724787
-2.7049663e-06
0.0066729204
-1.8710727e-06
0.0066731871
-1.2302108e-06
0.0066733347
-7.619273e-07
0.0066734065
-4.384663e-07
0.0066734341
-2.2886627e-07
0.0066734386
-1.0283253e-07
0.0066734331
-3.4009736e-08
0.0066734245
-7.0681633e-10
0.0066734168
1.199135e-08
0.0066734108
1.4150637e-08
0.0066734068
1.1972284e-08
0.0066734044
8.650145e-09
0.006673403
5.6378203e-09
0.0066734023
3.3732482e-09
0.006673402
1.876772e-09
0.0066734018
9.5964796e-10
0.0066734018
4.5250964e-10
0.0066734019
1.8230802e-10
0.0066734019
6.0367821e-11
0.0066734019
2.9307188e-12
0.006673402
-1.178352e-11
0.006673402
-2.0416294e-11
0.006673402
-1.3811312e-11
0.006673402
-1.5238453e-11
0.006673402
-7.921553e-12
0.006673402
-9.7744712e-12
0.006673402
-3.6749584e-12
0.006673402
-5.8612445e-12
0.006673402
-1.1252766e-12
0.006673402
-3.4870209e-12
0.006673402
8.7094784e-13
0.006673402
-1.7133273e-12
0.006673402
1.9846869e-12
0.006673402
-1.2921419e-12
0.006673402
2.1043847e-12
0.006673402
-1.4831999e-12
0.006673402
1.4003194e-12
0.006673402
-2.4595739e-12
0.0066734021
4.6768288e-13
0.006673402
-3.0816384e-12
0.0066734021
-7.2547375e-14
0.006673402
-3.4855204e-12
0.0066734021
3.5988849e-14
0.006673402
-2.8773389e-12
0.0066734021
8.0591826e-13
0.006673402
-1.9916038e-12
0.006673402
2.1514252e-12
0.006673402
-4.13514e-13
0.006673402
3.3130872e-12
0.006673402
3.5917469e-13
0.006673402
4.0748739e-12
0.006673402
7.4193507e-13
0.006673402
3.9454632e-12
0.006673402
2.601226e-13
0.006673402
3.1495902e-12
0.006673402
-7.2407194e-13
0.006673402
1.7540663e-12
0.006673402
-2.452398e-12
0.0066734021
1.873955e-13
0.006673402
-3.6927236e-12
0.0066734021
-7.9387167e-13
0.006673402
-4.6818178e-12
0.0066734021
-1.1175298e-12
0.006673402
-4.5548095e-12
0.0066734021
-8.6701806e-13
0.006673402
-3.8969027e-12
0.0066734021
9.1721961e-14
0.006673402
-2.3695967e-12
0.006673402
1.7811098e-12
0.006673402
-5.818154e-13
0.006673402
3.6973701e-12
0.006673402
1.0637239e-12
0.006673402
5.4060305e-12
0.006673402
2.2185777e-12
0.006673402
6.6936609e-12
0.006673402
3.2695459e-12
0.006673402
7.216957e-12
0.006673402
3.1509185e-12
0.0066734021
4.4280103e-12
0.0066734021
-2.8940221e-12
0.0066734021
-1.1362387e-11
0.0066734021
-2.7745435e-11
0.0066734021
-6.1119392e-11
0.0066734022
-9.8703417e-11
0.0066734022
-1.6914582e-10
-2.1755955e-10
0.0058639716
-6.2463324e-06
0.0058681926
-2.244422e-05
0.0058710767
-2.7275481e-05
0.0058718467
-2.4073501e-05
0.005871203
-1.9258828e-05
0.0058697816
-1.550063e-05
0.0058679513
-1.2686236e-05
0.0058659596
-1.0290989e-05
0.005863995
-8.1664576e-06
0.0058621831
-6.355128e-06
0.0058605928
-4.8649732e-06
0.0058592532
-3.6491109e-06
0.0058581693
-2.6584227e-06
0.0058573283
-1.8637231e-06
0.0058567044
-1.2469198e-06
0.0058562633
-7.8893783e-07
0.0058559676
-4.6601246e-07
0.0058557808
-2.5141628e-07
0.0058556706
-1.1847958e-07
0.005855611
-4.2963601e-08
0.0058555823
-5.1044695e-09
0.0058555712
1.0651757e-08
0.0058555688
1.4522927e-08
0.0058555701
1.2993676e-08
0.0058555725
9.7392247e-09
0.0058555747
6.5247193e-09
0.0058555764
4.005339e-09
0.0058555775
2.2717875e-09
0.0058555783
1.18912e-09
0.0058555787
5.6499677e-10
0.0058555789
2.3429285e-10
0.0058555791
7.2886856e-11
0.0058555791
4.3201164e-12
0.0058555792
-2.0679628e-11
0.0058555792
-2.5065835e-11
0.0058555792
-2.2691963e-11
0.0058555792
-1.7564152e-11
0.0058555792
-1.378645e-11
0.0058555792
-9.8851054e-12
0.0058555792
-7.4721838e-12
0.0058555792
-4.8731577e-12
0.0058555792
-3.8476853e-12
0.0058555792
-2.214567e-12
0.0058555792
-1.5649988e-12
0.0058555792
-3.6108891e-13
0.0058555792
-4.9046488e-13
0.0058555792
1.2358119e-13
0.0058555792
-2.4973637e-13
0.0058555792
1.4300415e-13
0.0058555792
-7.4018393e-13
0.0058555792
-6.4956679e-13
0.0058555792
-1.3062794e-12
0.0058555792
-1.0460781e-12
0.0058555792
-1.6928358e-12
0.0058555792
-1.3149856e-12
0.0058555792
-1.3990842e-12
0.0058555792
-6.1482142e-13
0.0058555792
-6.8355742e-13
0.0058555792
1.8314692e-13
0.0058555792
3.778238e-13
0.0058555792
1.492853e-12
0.0058555792
1.3717931e-12
0.0058555792
2.0240963e-12
0.0058555792
1.8918171e-12
0.0058555792
2.3578852e-12
0.0058555792
1.6236325e-12
0.0058555792
1.5782709e-12
0.0058555792
8.2410087e-13
0.0058555792
6.9527163e-13
0.0058555792
-4.9051248e-13
0.0058555792
-7.811579e-13
0.0058555792
-1.7621141e-12
0.0058555792
-1.763941e-12
0.0058555792
-2.6695773e-12
0.0058555792
-2.523793e-12
0.0058555792
-2.8271709e-12
0.0058555792
-2.1868465e-12
0.0058555792
-2.3974086e-12
0.0058555792
-1.5808123e-12
0.0058555792
-1.2448886e-12
0.0058555792
-5.9837697e-14
0.0058555792
8.8552335e-14
0.0058555792
1.3104762e-12
0.0058555792
1.7065524e-12
0.0058555792
2.8729094e-12
0.0058555792
2.886296e-12
0.0058555792
3.6518378e-12
0.0058555792
3.706339e-12
0.0058555792
4.3382876e-12
0.0058555792
3.8667979e-12
0.0058555792
3.6151284e-12
0.0058555792
2.2125502e-12
0.0058555792
-9.9226524e-13
0.0058555792
-6.9772404e-12
0.0058555792
-1.9274941e-11
0.0058555792
-3.3071166e-11
0.0058555792
-7.5848366e-11
0.0058555792
-1.1728212e-10
0.0058555793
-2.1949242e-10
-2.7715886e-10
0.0044458738
-5.5776928e-06
0.0044394106
-1.5980601e-05
0.0044287568
-1.6621663e-05
0.0044175239
-1.2840507e-05
0.0044073784
-9.1128061e-06
0.0043985647
-6.6865938e-06
0.0043910062
-5.1273502e-06
0.0043846646
-3.949065e-06
0.0043794908
-2.9921377e-06
0.0043753731
-2.2368764e-06
0.0043721662
-1.6574405e-06
0.0043697278
-1.2101822e-06
0.0043679295
-8.5962755e-07
0.0043666525
-5.8640864e-07
0.0043657858
-3.7988233e-07
0.0043652279
-2.3079079e-07
0.004364891
-1.2885826e-07
0.0043647032
-6.3425732e-08
0.0043646097
-2.4702161e-08
0.0043645708
-3.8146558e-09
0.0043645615
4.4188461e-09
0.0043645651
7.1884351e-09
0.004364573
6.8559906e-09
0.0043645808
5.3582796e-09
0.0043645869
3.7051042e-09
0.0043645912
2.341391e-09
0.0043645939
1.3599857e-09
0.0043645955
7.3191926e-10
0.0043645964
3.5398277e-10
0.0043645968
1.5258857e-10
0.004364597
4.742785e-11
0.0043645971
3.9525137e-12
0.0043645971
-1.393541e-11
0.0043645972
-1.4644317e-11
0.0043645972
-1.6146176e-11
0.0043645972
-1.0027427e-11
0.0043645971
-1.0386403e-11
0.0043645971
-5.0380632e-12
0.0043645971
-6.2115426e-12
0.0043645971
-1.9561275e-12
0.0043645971
-3.80403e-12
0.0043645971
-4.8110414e-13
0.0043645971
-2.4450384e-12
0.0043645971
6.7357402e-13
0.0043645971
-1.7296262e-12
0.0043645971
1.0253307e-12
0.0043645971
-1.5090122e-12
0.0043645971
1.1833815e-12
0.0043645971
-1.6104893e-12
0.0043645971
8.4628865e-13
0.0043645971
-1.8137725e-12
0.0043645971
7.6177906e-13
0.0043645971
-1.9188741e-12
0.0043645971
6.2987543e-13
0.0043645971
-1.7843224e-12
0.0043645971
1.0636661e-12
0.0043645971
-1.4214186e-12
0.0043645971
1.4180653e-12
0.0043645971
-9.2270086e-13
0.0043645971
2.0098301e-12
0.0043645971
-3.9907434e-13
0.0043645971
2.1893469e-12
0.0043645971
-2.1289229e-13
0.0043645971
2.3129109e-12
0.0043645971
-3.6906946e-13
0.0043645971
1.8795332e-12
0.0043645971
-9.3788017e-13
0.0043645971
1.461893e-12
0.0043645971
-1.5874778e-12
0.0043645971
6.4446942e-13
0.0043645971
-2.1969618e-12
0.0043645971
1.456191e-13
0.0043645971
-2.6003174e-12
0.0043645971
-2.1441011e-13
0.0043645971
-2.6465224e-12
0.0043645971
2.7521249e-14
0.0043645971
-2.3387466e-12
0.0043645971
3.976479e-13
0.0043645971
-1.768896e-12
0.0043645971
1.298698e-12
0.0043645971
-1.0269253e-12
0.0043645971
1.929957e-12
0.0043645971
-1.9624651e-13
0.0043645971
2.7229604e-12
0.0043645971
3.6700036e-13
0.0043645971
3.0580691e-12
0.0043645971
5.995768e-13
0.0043645971
3.3424746e-12
0.0043645971
6.6017432e-13
0.0043645971
3.1112452e-12
0.0043645971
1.1324549e-13
0.0043645971
1.6162985e-12
0.0043645971
-4.2140777e-12
0.0043645971
-4.4873932e-12
0.0043645971
-1.3753699e-11
0.0043645971
-2.2069936e-11
0.0043645971
-5.0175363e-11
0.004364597
-7.9267079e-11
0.004364597
-1.7880887e-10
-2.2099196e-10
0.0019808777
0.0019648972
0.0019482755
0.0019354352
0.0019263226
0.0019196363
0.0019145092
0.0019105605
0.0019075687
0.0019053322
0.0019036751
0.0019024652
0.0019016058
0.0019010196
0.0019006399
0.0019004092
0.0019002804
0.0019002171
0.0019001925
0.0019001888
0.0019001933
0.0019002006
0.0019002076
0.001900213
0.0019002167
0.0019002191
0.0019002205
0.0019002213
0.0019002216
0.0019002218
0.0019002219
0.0019002219
0.0019002219
0.0019002218
0.0019002218
0.0019002218
0.0019002218
0.0019002218
0.0019002218
0.0019002218
0.0019002218
0.0019002218
0.0019002218
0.0019002218
0.0019002218
0.0019002218
0.0019002218
0.0019002218
0.0019002218
0.0019002218
0.0019002218
0.0019002218
0.0019002218
0.0019002218
0.0019002218
0.0019002218
0.0019002218
0.0019002218
0.0019002218
0.0019002218
0.0019002218
0.0019002218
0.0019002218
0.0019002218
0.0019002218
0.0019002218
0.0019002218
0.0019002218
0.0019002218
0.0019002218
0.0019002218
0.0019002218
0.0019002218
0.0019002218
0.0019002218
0.0019002218
0.0019002218
0.0019002218
0.0019002218
0.0019002218
0.0019002218
0.0019002218
0.0019002218
0.0019002218
0.0019002218
0.0019002218
0.0019002218
0.0019002218
0.0019002218
0.0019002218
0.0019002218
0.0019002218
0.0019002218
0.0019002218
0.0019002218
0.0019002218
0.0019002217
0.0019002216
0.0019002214
)
;

boundaryField
{
    top
    {
        type            calculated;
        value           uniform 0;
    }
    inlet
    {
        type            calculated;
        value           nonuniform List<scalar> 10(-0.001986456 -0.0044465466 -0.0058620401 -0.0066064113 -0.0069209318 -0.0069209306 -0.0066064063 -0.0058620345 -0.0044465418 -0.0019864549);
    }
    outlet
    {
        type            calculated;
        value           nonuniform List<scalar> 10(0.0019002212 0.0043645969 0.0058555793 0.0066734023 0.0070285926 0.0070285926 0.0066734024 0.0058555793 0.0043645969 0.0019002212);
    }
    bottom
    {
        type            calculated;
        value           uniform 0;
    }
    back
    {
        type            empty;
        value           nonuniform List<scalar> 0();
    }
    front
    {
        type            empty;
        value           nonuniform List<scalar> 0();
    }
}


// ************************************************************************* //
