/*--------------------------------*- C++ -*----------------------------------*\
| =========                 |                                                 |
| \\      /  F ield         | OpenFOAM: The Open Source CFD Toolbox           |
|  \\    /   O peration     | Version:  2112                                  |
|   \\  /    A nd           | Website:  www.openfoam.com                      |
|    \\/     M anipulation  |                                                 |
\*---------------------------------------------------------------------------*/
FoamFile
{
    version     2.0;
    format      ascii;
    arch        "LSB;label=32;scalar=64";
    class       volVectorField;
    location    "5";
    object      U;
}
// * * * * * * * * * * * * * * * * * * * * * * * * * * * * * * * * * * * * * //

dimensions      [0 1 -1 0 0 0 0];

internalField   nonuniform List<vector> 
1000
(
(0.19851069 0.00041432992 0)
(0.19759419 0.0010349488 0)
(0.19572921 0.00098771995 0)
(0.19413701 0.00066368333 0)
(0.19303509 0.00040190297 0)
(0.19226512 0.00026101664 0)
(0.19168561 0.00018531656 0)
(0.19123576 0.00013337143 0)
(0.1908912 9.3980856e-05 0)
(0.19063256 6.5721051e-05 0)
(0.19044057 4.6229064e-05 0)
(0.19029943 3.2348381e-05 0)
(0.19019773 2.1964946e-05 0)
(0.1901269 1.4149438e-05 0)
(0.19007982 8.4836023e-06 0)
(0.1900503 4.614171e-06 0)
(0.19003311 2.1604022e-06 0)
(0.19002407 7.4543595e-07 0)
(0.19002006 2.6286271e-08 0)
(0.19001888 -2.7288819e-07 0)
(0.19001906 -3.8404665e-07 0)
(0.19001972 -3.5703179e-07 0)
(0.19002046 -2.7567323e-07 0)
(0.19002108 -1.8960446e-07 0)
(0.19002153 -1.1914025e-07 0)
(0.19002183 -6.8740777e-08 0)
(0.19002201 -3.6268168e-08 0)
(0.19002211 -1.6979753e-08 0)
(0.19002216 -6.6212148e-09 0)
(0.19002218 -1.5266629e-09 0)
(0.19002219 5.1691429e-10 0)
(0.19002219 1.2591432e-09 0)
(0.19002219 1.2519971e-09 0)
(0.19002219 1.0982695e-09 0)
(0.19002219 7.9031021e-10 0)
(0.19002218 6.1238956e-10 0)
(0.19002218 3.8597698e-10 0)
(0.19002218 3.0243718e-10 0)
(0.19002218 1.4960032e-10 0)
(0.19002218 1.2477023e-10 0)
(0.19002218 1.8178473e-11 0)
(0.19002218 3.7542794e-11 0)
(0.19002218 -4.3540744e-11 0)
(0.19002218 4.8527086e-12 0)
(0.19002218 -5.1290871e-11 0)
(0.19002218 1.7055955e-11 0)
(0.19002218 -3.0883264e-11 0)
(0.19002218 4.3669983e-11 0)
(0.19002218 6.3356296e-12 0)
(0.19002218 7.9130857e-11 0)
(0.19002218 3.2959402e-11 0)
(0.19002218 8.773471e-11 0)
(0.19002218 2.891387e-11 0)
(0.19002218 7.1248139e-11 0)
(0.19002218 -4.6662989e-12 0)
(0.19002218 3.2016396e-11 0)
(0.19002218 -4.7129309e-11 0)
(0.19002218 -1.045141e-11 0)
(0.19002218 -8.7580945e-11 0)
(0.19002218 -4.9134444e-11 0)
(0.19002218 -1.071292e-10 0)
(0.19002218 -5.0097972e-11 0)
(0.19002218 -9.4991852e-11 0)
(0.19002218 -2.4572484e-11 0)
(0.19002218 -5.4376578e-11 0)
(0.19002218 3.0389751e-11 0)
(0.19002218 -8.2862161e-12 0)
(0.19002218 7.4345118e-11 0)
(0.19002218 4.5087205e-11 0)
(0.19002218 1.1868044e-10 0)
(0.19002218 7.6058426e-11 0)
(0.19002218 1.3118387e-10 0)
(0.19002218 7.5889541e-11 0)
(0.19002218 1.1770577e-10 0)
(0.19002218 4.325565e-11 0)
(0.19002218 7.0795431e-11 0)
(0.19002218 -1.1354767e-11 0)
(0.19002218 1.9846645e-11 0)
(0.19002218 -6.6698907e-11 0)
(0.19002218 -3.7528011e-11 0)
(0.19002218 -1.1250589e-10 0)
(0.19002218 -7.4831083e-11 0)
(0.19002218 -1.3954625e-10 0)
(0.19002218 -9.1690257e-11 0)
(0.19002218 -1.377432e-10 0)
(0.19002218 -7.1249505e-11 0)
(0.19002218 -1.0548623e-10 0)
(0.19002218 -2.5170782e-11 0)
(0.19002218 -4.1790686e-11 0)
(0.19002218 6.2617584e-11 0)
(0.19002218 6.9522357e-11 0)
(0.19002218 2.0021482e-10 0)
(0.19002218 2.9140187e-10 0)
(0.19002218 5.5568249e-10 0)
(0.19002218 1.0045892e-09 0)
(0.19002218 1.7788286e-09 0)
(0.19002217 3.3009093e-09 0)
(0.19002217 5.3944662e-09 0)
(0.19002215 1.1448932e-08 0)
(0.19002213 1.3773893e-08 0)
(0.44435359 0.00059503236 0)
(0.4451471 0.0020919944 0)
(0.44378623 0.0024948819 0)
(0.44228921 0.0021118875 0)
(0.44116512 0.0015919057 0)
(0.44026583 0.0012058209 0)
(0.43946844 0.00093950691 0)
(0.43876859 0.00073184023 0)
(0.43818697 0.0005593845 0)
(0.43772273 0.00042014896 0)
(0.43735971 0.00031140143 0)
(0.43708058 0.00022674975 0)
(0.4368713 0.00016040379 0)
(0.43671984 0.00010890671 0)
(0.43661484 7.0181022e-05 0)
(0.43654557 4.2381388e-05 0)
(0.43650246 2.3516802e-05 0)
(0.43647749 1.154321e-05 0)
(0.43646435 4.5430547e-06 0)
(0.43645835 8.6646877e-07 0)
(0.43645633 -7.9252468e-07 0)
(0.43645627 -1.2938683e-06 0)
(0.43645696 -1.2308681e-06 0)
(0.43645778 -9.5653127e-07 0)
(0.43645848 -6.5789451e-07 0)
(0.43645899 -4.1229284e-07 0)
(0.43645932 -2.3772161e-07 0)
(0.43645952 -1.2570781e-07 0)
(0.43645963 -5.9900764e-08 0)
(0.43645969 -2.4364254e-08 0)
(0.43645971 -7.0024777e-09 0)
(0.43645972 5.2855752e-10 0)
(0.43645972 3.0819981e-09 0)
(0.43645972 3.4671004e-09 0)
(0.43645972 2.9532663e-09 0)
(0.43645972 2.2913695e-09 0)
(0.43645972 1.6448651e-09 0)
(0.43645972 1.1676869e-09 0)
(0.43645972 7.5686346e-10 0)
(0.43645972 4.888337e-10 0)
(0.43645972 2.5511515e-10 0)
(0.43645972 1.290587e-10 0)
(0.43645972 5.1768291e-12 0)
(0.43645972 -3.4953249e-11 0)
(0.43645972 -6.8414261e-11 0)
(0.43645972 -3.5622617e-11 0)
(0.43645972 -2.530324e-11 0)
(0.43645972 3.6287024e-11 0)
(0.43645972 7.1335277e-11 0)
(0.43645972 1.470779e-10 0)
(0.43645972 1.5910904e-10 0)
(0.43645972 1.966334e-10 0)
(0.43645972 1.738101e-10 0)
(0.43645972 1.7414069e-10 0)
(0.43645972 1.0413225e-10 0)
(0.43645972 6.2822575e-11 0)
(0.43645972 -1.4163069e-11 0)
(0.43645972 -5.8539301e-11 0)
(0.43645972 -1.4792439e-10 0)
(0.43645972 -1.80659e-10 0)
(0.43645972 -2.3344096e-10 0)
(0.43645972 -2.1956858e-10 0)
(0.43645972 -2.3464186e-10 0)
(0.43645972 -1.8296977e-10 0)
(0.43645972 -1.5086788e-10 0)
(0.43645972 -5.987698e-11 0)
(0.43645972 -1.0421442e-11 0)
(0.43645972 7.7987143e-11 0)
(0.43645972 1.3252304e-10 0)
(0.43645972 2.2185646e-10 0)
(0.43645972 2.4581145e-10 0)
(0.43645972 2.9504243e-10 0)
(0.43645972 2.8436403e-10 0)
(0.43645972 2.9769552e-10 0)
(0.43645972 2.3851536e-10 0)
(0.43645972 2.0677927e-10 0)
(0.43645972 1.2050115e-10 0)
(0.43645972 7.1181178e-11 0)
(0.43645971 -2.2864346e-11 0)
(0.43645972 -8.4338267e-11 0)
(0.43645971 -1.7489804e-10 0)
(0.43645972 -2.1066722e-10 0)
(0.43645971 -2.8097838e-10 0)
(0.43645972 -2.8940824e-10 0)
(0.43645971 -3.1596047e-10 0)
(0.43645972 -2.7602357e-10 0)
(0.43645971 -2.6362731e-10 0)
(0.43645972 -1.8361331e-10 0)
(0.43645972 -1.0977014e-10 0)
(0.43645972 2.6347678e-11 0)
(0.43645972 1.8307883e-10 0)
(0.43645972 4.1011317e-10 0)
(0.43645972 7.9568221e-10 0)
(0.43645972 1.3240558e-09 0)
(0.43645971 2.5409901e-09 0)
(0.43645971 4.0011011e-09 0)
(0.43645971 7.5791003e-09 0)
(0.43645971 1.1038959e-08 0)
(0.43645968 2.2158249e-08 0)
(0.43645971 2.8702899e-08 0)
(0.58567002 0.00048037128 0)
(0.58794415 0.0020324105 0)
(0.58759776 0.0027427753 0)
(0.58710881 0.0026282581 0)
(0.58702497 0.0022301402 0)
(0.58703213 0.0018637644 0)
(0.58692294 0.0015685587 0)
(0.58672048 0.0013055347 0)
(0.58650221 0.0010608945 0)
(0.58630565 0.00084230957 0)
(0.58613547 0.00065540869 0)
(0.58598958 0.00049858541 0)
(0.58586814 0.00036817258 0)
(0.58577163 0.00026176556 0)
(0.58569858 0.00017784847 0)
(0.58564585 0.00011455272 0)
(0.5856096 6.9197946e-05 0)
(0.58558602 3.8524161e-05 0)
(0.58557163 1.9119148e-05 0)
(0.58556352 7.7966974e-06 0)
(0.58555938 1.8777034e-06 0)
(0.58555757 -7.5836588e-07 0)
(0.585557 -1.6010465e-06 0)
(0.585557 -1.5821587e-06 0)
(0.5855572 -1.2415754e-06 0)
(0.58555743 -8.5473232e-07 0)
(0.58555762 -5.3407802e-07 0)
(0.58555775 -3.0658118e-07 0)
(0.58555783 -1.6143154e-07 0)
(0.58555788 -7.6690632e-08 0)
(0.58555791 -3.1184642e-08 0)
(0.58555792 -9.0051622e-09 0)
(0.58555792 5.2997629e-10 0)
(0.58555793 3.7515268e-09 0)
(0.58555793 4.2215344e-09 0)
(0.58555793 3.6088544e-09 0)
(0.58555793 2.7988195e-09 0)
(0.58555792 2.0027224e-09 0)
(0.58555792 1.3918019e-09 0)
(0.58555792 8.8632545e-10 0)
(0.58555792 5.5014054e-10 0)
(0.58555792 2.7345602e-10 0)
(0.58555792 1.1386888e-10 0)
(0.58555792 -8.2924753e-12 0)
(0.58555792 -3.4969459e-11 0)
(0.58555792 -4.6151894e-11 0)
(0.58555792 4.7361777e-12 0)
(0.58555792 4.291865e-11 0)
(0.58555792 1.304046e-10 0)
(0.58555792 1.75191e-10 0)
(0.58555792 2.3986453e-10 0)
(0.58555792 2.4592301e-10 0)
(0.58555792 2.66134e-10 0)
(0.58555792 2.2037331e-10 0)
(0.58555792 1.7978905e-10 0)
(0.58555792 8.2930109e-11 0)
(0.58555792 1.2299192e-11 0)
(0.58555792 -9.4767964e-11 0)
(0.58555792 -1.6211883e-10 0)
(0.58555792 -2.520724e-10 0)
(0.58555792 -2.7869916e-10 0)
(0.58555792 -3.1869731e-10 0)
(0.58555792 -2.964731e-10 0)
(0.58555792 -2.8144996e-10 0)
(0.58555792 -2.0189009e-10 0)
(0.58555792 -1.3585439e-10 0)
(0.58555792 -2.3344981e-11 0)
(0.58555792 5.5965624e-11 0)
(0.58555792 1.7377568e-10 0)
(0.58555792 2.4207571e-10 0)
(0.58555792 3.2833129e-10 0)
(0.58555792 3.5444227e-10 0)
(0.58555792 3.9737085e-10 0)
(0.58555792 3.7367646e-10 0)
(0.58555792 3.5789589e-10 0)
(0.58555792 2.8257908e-10 0)
(0.58555792 2.263428e-10 0)
(0.58555792 1.1669299e-10 0)
(0.58555792 2.7314858e-11 0)
(0.58555792 -8.9791464e-11 0)
(0.58555792 -1.6069689e-10 0)
(0.58555792 -2.5999573e-10 0)
(0.58555792 -3.0743129e-10 0)
(0.58555792 -3.70212e-10 0)
(0.58555792 -3.657112e-10 0)
(0.58555792 -3.7303398e-10 0)
(0.58555792 -3.1519813e-10 0)
(0.58555792 -2.5816838e-10 0)
(0.58555792 -1.1468839e-10 0)
(0.58555792 2.4215316e-11 0)
(0.58555792 2.9463904e-10 0)
(0.58555792 5.498821e-10 0)
(0.58555792 1.1859073e-09 0)
(0.58555792 1.8750584e-09 0)
(0.58555792 3.5465881e-09 0)
(0.58555793 5.1381581e-09 0)
(0.58555792 9.148028e-09 0)
(0.58555793 1.2899336e-08 0)
(0.5855579 2.1778335e-08 0)
(0.58555795 2.7960522e-08 0)
(0.65991659 0.00028840117 0)
(0.66296464 0.0013554703 0)
(0.66309468 0.0019488435 0)
(0.66321745 0.001975869 0)
(0.66396213 0.0017641352 0)
(0.66484875 0.0015428124 0)
(0.66553145 0.0013533015 0)
(0.66600096 0.0011714222 0)
(0.66635105 0.00098846463 0)
(0.66663319 0.00081345103 0)
(0.66685653 0.0006547845 0)
(0.66702325 0.00051462765 0)
(0.66714179 0.00039259541 0)
(0.66722322 0.00028874465 0)
(0.66727702 0.00020349407 0)
(0.66731053 0.00013659553 0)
(0.66732969 8.6680468e-05 0)
(0.66733942 5.1441599e-05 0)
(0.66734347 2.8046733e-05 0)
(0.66734446 1.3571131e-05 0)
(0.66734402 5.3400552e-06 0)
(0.6673431 1.1532991e-06 0)
(0.66734217 -6.2832923e-07 0)
(0.66734143 -1.1468679e-06 0)
(0.66734092 -1.0883098e-06 0)
(0.66734059 -8.3071012e-07 0)
(0.66734039 -5.577198e-07 0)
(0.66734029 -3.398735e-07 0)
(0.66734023 -1.8956756e-07 0)
(0.66734021 -9.63466e-08 0)
(0.6673402 -4.3240044e-08 0)
(0.6673402 -1.574818e-08 0)
(0.6673402 -2.7966205e-09 0)
(0.6673402 2.1833028e-09 0)
(0.6673402 3.6699932e-09 0)
(0.6673402 3.4371932e-09 0)
(0.66734021 2.8597108e-09 0)
(0.66734021 2.0450791e-09 0)
(0.66734021 1.4989056e-09 0)
(0.66734021 9.1154768e-10 0)
(0.66734021 6.2230399e-10 0)
(0.66734021 2.632481e-10 0)
(0.66734021 1.7115236e-10 0)
(0.66734021 -1.4719025e-11 0)
(0.66734021 2.7587127e-11 0)
(0.66734021 -5.7030759e-11 0)
(0.66734021 6.1259562e-11 0)
(0.66734021 2.9615835e-11 0)
(0.66734021 1.7608172e-10 0)
(0.66734021 1.4058814e-10 0)
(0.66734021 2.6683126e-10 0)
(0.66734021 1.9356151e-10 0)
(0.66734021 2.6935372e-10 0)
(0.66734021 1.4260834e-10 0)
(0.66734021 1.7252525e-10 0)
(0.66734021 1.5441324e-11 0)
(0.66734021 1.8051624e-11 0)
(0.66734021 -1.5151243e-10 0)
(0.66734021 -1.3668521e-10 0)
(0.66734021 -2.8113302e-10 0)
(0.66734021 -2.2873958e-10 0)
(0.66734021 -3.2645967e-10 0)
(0.66734021 -2.1867726e-10 0)
(0.66734021 -2.6383984e-10 0)
(0.66734021 -1.1195793e-10 0)
(0.66734021 -1.2332401e-10 0)
(0.66734021 4.5512543e-11 0)
(0.66734021 5.3499741e-11 0)
(0.66734021 2.2590641e-10 0)
(0.66734021 2.1103577e-10 0)
(0.66734021 3.5529527e-10 0)
(0.66734021 3.0028203e-10 0)
(0.66734021 3.9463979e-10 0)
(0.66734021 2.8726489e-10 0)
(0.66734021 3.3765006e-10 0)
(0.66734021 1.9007723e-10 0)
(0.66734021 2.008646e-10 0)
(0.66734021 2.8183247e-11 0)
(0.66734021 2.4816429e-11 0)
(0.66734021 -1.4495179e-10 0)
(0.66734021 -1.3762632e-10 0)
(0.66734021 -2.9250089e-10 0)
(0.66734021 -2.509106e-10 0)
(0.66734021 -3.6401156e-10 0)
(0.66734021 -2.7589814e-10 0)
(0.66734021 -3.403812e-10 0)
(0.66734021 -1.9293935e-10 0)
(0.66734021 -1.9401629e-10 0)
(0.66734021 2.219178e-11 0)
(0.66734021 1.0219696e-10 0)
(0.66734021 4.3433101e-10 0)
(0.66734021 6.4919904e-10 0)
(0.66734021 1.3712572e-09 0)
(0.66734021 2.012876e-09 0)
(0.66734021 3.5735277e-09 0)
(0.66734021 4.7804845e-09 0)
(0.6673402 7.7220455e-09 0)
(0.66734023 1.0429735e-08 0)
(0.66734019 1.5588467e-08 0)
(0.66734026 1.932057e-08 0)
(0.69126847 9.4167688e-05 0)
(0.6946257 0.00046537062 0)
(0.6948819 0.0006878163 0)
(0.69520979 0.00071353027 0)
(0.69631758 0.00064969058 0)
(0.69764582 0.00057859729 0)
(0.69876316 0.00051679954 0)
(0.6996304 0.0004555707 0)
(0.70034154 0.00039140719 0)
(0.70094845 0.00032781704 0)
(0.70145565 0.00026842749 0)
(0.70186146 0.00021455122 0)
(0.7021742 0.00016646769 0)
(0.70240787 0.00012458826 0)
(0.70257646 8.9444477e-05 0)
(0.70269271 6.1270779e-05 0)
(0.7027686 3.979751e-05 0)
(0.70281506 2.4301293e-05 0)
(0.70284141 1.3765923e-05 0)
(0.70285493 7.0647917e-06 0)
(0.70286086 3.1166938e-06 0)
(0.70286271 9.9927784e-07 0)
(0.70286266 2.5660397e-08 0)
(0.7028619 -3.2821427e-07 0)
(0.70286106 -3.8222917e-07 0)
(0.70286036 -3.1511063e-07 0)
(0.70285988 -2.1995185e-07 0)
(0.70285957 -1.3663477e-07 0)
(0.70285939 -7.6476193e-08 0)
(0.70285929 -3.8138128e-08 0)
(0.70285924 -1.6047248e-08 0)
(0.70285922 -4.6078509e-09 0)
(0.70285922 6.2383983e-10 0)
(0.70285921 2.4788293e-09 0)
(0.70285922 2.7917478e-09 0)
(0.70285922 2.4195481e-09 0)
(0.70285922 1.8868556e-09 0)
(0.70285922 1.3477993e-09 0)
(0.70285922 9.2691819e-10 0)
(0.70285922 5.6365498e-10 0)
(0.70285922 3.2116122e-10 0)
(0.70285922 1.2582651e-10 0)
(0.70285923 5.1026851e-11 0)
(0.70285922 -2.8480807e-11 0)
(0.70285923 -1.0272405e-11 0)
(0.70285922 -1.5426133e-11 0)
(0.70285923 6.0467651e-11 0)
(0.70285922 7.9109838e-11 0)
(0.70285923 1.4421669e-10 0)
(0.70285922 1.5321039e-10 0)
(0.70285923 1.9683558e-10 0)
(0.70285922 1.6284616e-10 0)
(0.70285923 1.4965849e-10 0)
(0.70285922 7.7891654e-11 0)
(0.70285923 5.141476e-11 0)
(0.70285922 -3.841544e-11 0)
(0.70285923 -7.6448124e-11 0)
(0.70285922 -1.5859385e-10 0)
(0.70285923 -1.7290015e-10 0)
(0.70285922 -2.2241652e-10 0)
(0.70285923 -2.0846212e-10 0)
(0.70285922 -2.1122263e-10 0)
(0.70285923 -1.4101086e-10 0)
(0.70285922 -1.1172078e-10 0)
(0.70285923 -2.7930922e-11 0)
(0.70285922 1.4024163e-11 0)
(0.70285923 1.1214709e-10 0)
(0.70285922 1.4982243e-10 0)
(0.70285923 2.1981964e-10 0)
(0.70285922 2.362089e-10 0)
(0.70285923 2.8266789e-10 0)
(0.70285922 2.5719394e-10 0)
(0.70285923 2.5068127e-10 0)
(0.70285922 1.8685561e-10 0)
(0.70285923 1.606104e-10 0)
(0.70285922 7.374395e-11 0)
(0.70285923 2.4998282e-11 0)
(0.70285923 -6.5894464e-11 0)
(0.70285923 -9.2544627e-11 0)
(0.70285923 -1.7398962e-10 0)
(0.70285923 -2.0266861e-10 0)
(0.70285922 -2.5248397e-10 0)
(0.70285923 -2.3236572e-10 0)
(0.70285922 -2.4390088e-10 0)
(0.70285923 -1.9230572e-10 0)
(0.70285922 -1.5820541e-10 0)
(0.70285923 -5.4201196e-11 0)
(0.70285922 1.7204056e-11 0)
(0.70285923 1.5759305e-10 0)
(0.70285922 2.7884437e-10 0)
(0.70285922 4.9767827e-10 0)
(0.70285922 7.6714359e-10 0)
(0.70285923 1.240513e-09 0)
(0.70285923 1.7783949e-09 0)
(0.70285923 2.5827692e-09 0)
(0.70285923 3.1410344e-09 0)
(0.70285922 4.2361392e-09 0)
(0.70285925 5.1140985e-09 0)
(0.70285921 6.6503255e-09 0)
(0.70285928 7.6716481e-09 0)
(0.69126835 -9.4176348e-05 0)
(0.69462555 -0.00046540885 0)
(0.69488172 -0.00068785244 0)
(0.69520959 -0.00071353165 0)
(0.69631744 -0.00064964989 0)
(0.6976457 -0.00057855004 0)
(0.69876305 -0.00051677395 0)
(0.69963029 -0.00045557135 0)
(0.70034144 -0.00039141879 0)
(0.70094836 -0.00032783365 0)
(0.70145557 -0.00026844907 0)
(0.70186138 -0.00021458075 0)
(0.70217413 -0.00016650302 0)
(0.7024078 -0.00012462542 0)
(0.70257639 -8.9478305e-05 0)
(0.70269265 -6.1296619e-05 0)
(0.70276853 -3.9811479e-05 0)
(0.70281499 -2.4300602e-05 0)
(0.70284135 -1.3750325e-05 0)
(0.70285487 -7.0352437e-06 0)
(0.7028608 -3.0766208e-06 0)
(0.70286266 -9.5144348e-07 0)
(0.70286261 2.5927562e-08 0)
(0.70286186 3.8041111e-07 0)
(0.70286102 4.3147557e-07 0)
(0.70286034 3.5960237e-07 0)
(0.70285986 2.5806865e-07 0)
(0.70285955 1.6845887e-07 0)
(0.70285937 1.01904e-07 0)
(0.70285928 5.8298769e-08 0)
(0.70285924 3.1375457e-08 0)
(0.70285922 1.6380744e-08 0)
(0.70285921 7.9677576e-09 0)
(0.70285921 4.0563622e-09 0)
(0.70285921 1.7569849e-09 0)
(0.70285922 9.9728203e-10 0)
(0.70285922 2.8414751e-10 0)
(0.70285922 2.8010425e-10 0)
(0.70285922 -9.486287e-11 0)
(0.70285922 5.2629798e-11 0)
(0.70285922 -2.4544726e-10 0)
(0.70285922 -5.6769602e-12 0)
(0.70285922 -2.4373146e-10 0)
(0.70285922 3.3919169e-11 0)
(0.70285922 -1.8386845e-10 0)
(0.70285922 1.2831127e-10 0)
(0.70285922 -7.5312134e-11 0)
(0.70285922 2.1044258e-10 0)
(0.70285922 -2.6701438e-11 0)
(0.70285922 2.3901191e-10 0)
(0.70285922 -2.4534736e-11 0)
(0.70285922 1.94057e-10 0)
(0.70285922 -1.0338654e-10 0)
(0.70285922 1.151604e-10 0)
(0.70285922 -1.8430328e-10 0)
(0.70285922 1.6004344e-11 0)
(0.70285922 -2.8190119e-10 0)
(0.70285922 -3.9328009e-11 0)
(0.70285922 -2.8930649e-10 0)
(0.70285922 -2.5228288e-11 0)
(0.70285922 -2.4858466e-10 0)
(0.70285922 5.8171427e-11 0)
(0.70285922 -1.4212995e-10 0)
(0.70285922 1.6031286e-10 0)
(0.70285922 -4.2940339e-11 0)
(0.70285922 2.7072343e-10 0)
(0.70285922 6.8120078e-11 0)
(0.70285922 3.4044986e-10 0)
(0.70285922 9.0984359e-11 0)
(0.70285922 3.383677e-10 0)
(0.70285922 5.8626785e-11 0)
(0.70285922 2.6016835e-10 0)
(0.70285922 -4.8852554e-11 0)
(0.70285922 1.5792219e-10 0)
(0.70285922 -1.4868984e-10 0)
(0.70285922 3.7085686e-11 0)
(0.70285922 -2.7033034e-10 0)
(0.70285922 -5.618028e-11 0)
(0.70285922 -3.3661602e-10 0)
(0.70285922 -1.0740283e-10 0)
(0.70285922 -3.593804e-10 0)
(0.70285922 -7.3122843e-11 0)
(0.70285922 -2.796914e-10 0)
(0.70285922 2.3399438e-11 0)
(0.70285922 -1.712503e-10 0)
(0.70285922 1.6089559e-10 0)
(0.70285922 2.3386228e-12 0)
(0.70285922 3.4009563e-10 0)
(0.70285922 1.9457403e-10 0)
(0.70285922 5.5489574e-10 0)
(0.70285922 4.5144028e-10 0)
(0.70285922 8.8816729e-10 0)
(0.70285922 8.0883889e-10 0)
(0.70285923 1.2879019e-09 0)
(0.70285922 8.3536086e-10 0)
(0.70285923 8.1041379e-10 0)
(0.70285922 -2.4247431e-10 0)
(0.70285925 -1.3626627e-09 0)
(0.70285921 -3.2725287e-09 0)
(0.70285928 -4.8603142e-09 0)
(0.6599161 -0.0002884019 0)
(0.66296413 -0.0013554715 0)
(0.66309427 -0.0019488403 0)
(0.6632171 -0.0019758522 0)
(0.66396181 -0.0017641111 0)
(0.66484842 -0.0015427925 0)
(0.66553113 -0.0013532965 0)
(0.66600066 -0.0011714298 0)
(0.66635079 -0.00098848167 0)
(0.66663294 -0.00081347412 0)
(0.66685629 -0.00065481399 0)
(0.66702302 -0.0005146623 0)
(0.66714157 -0.00039263297 0)
(0.66722301 -0.00028878141 0)
(0.66727681 -0.00020352623 0)
(0.66731032 -0.00013661967 0)
(0.66732949 -8.6693742e-05 0)
(0.66733923 -5.1442298e-05 0)
(0.66734328 -2.8034073e-05 0)
(0.66734429 -1.3546537e-05 0)
(0.66734387 -5.3057639e-06 0)
(0.66734297 -1.1135734e-06 0)
(0.66734205 6.704486e-07 0)
(0.66734134 1.1884142e-06 0)
(0.66734084 1.1273032e-06 0)
(0.66734052 8.6533006e-07 0)
(0.66734034 5.8748975e-07 0)
(0.66734025 3.6433104e-07 0)
(0.6673402 2.093276e-07 0)
(0.66734019 1.1167629e-07 0)
(0.66734018 5.5134417e-08 0)
(0.66734019 2.4586328e-08 0)
(0.66734019 9.4938452e-09 0)
(0.66734019 2.5299064e-09 0)
(0.66734019 -1.6779172e-10 0)
(0.6673402 -1.1113184e-09 0)
(0.6673402 -1.1423584e-09 0)
(0.6673402 -1.0552103e-09 0)
(0.6673402 -7.9159692e-10 0)
(0.6673402 -6.9290479e-10 0)
(0.6673402 -4.6001516e-10 0)
(0.6673402 -3.9207519e-10 0)
(0.6673402 -2.0537541e-10 0)
(0.6673402 -1.9144283e-10 0)
(0.6673402 -3.5487775e-11 0)
(0.6673402 -4.2396227e-11 0)
(0.6673402 6.7294664e-11 0)
(0.66734021 4.8619282e-12 0)
(0.6673402 8.6061808e-11 0)
(0.66734021 7.3505834e-12 0)
(0.6673402 5.0020247e-11 0)
(0.66734021 -6.912113e-11 0)
(0.6673402 -2.5080178e-11 0)
(0.66734021 -1.26613e-10 0)
(0.6673402 -8.5993002e-11 0)
(0.66734021 -1.9003675e-10 0)
(0.6673402 -1.1240568e-10 0)
(0.66734021 -1.6105981e-10 0)
(0.6673402 -5.8891742e-11 0)
(0.66734021 -1.0128588e-10 0)
(0.6673402 2.8266331e-11 0)
(0.66734021 1.5457939e-11 0)
(0.6673402 1.373692e-10 0)
(0.66734021 9.9265227e-11 0)
(0.6673402 2.1811593e-10 0)
(0.66734021 1.7753865e-10 0)
(0.6673402 2.5477624e-10 0)
(0.66734021 1.5149467e-10 0)
(0.6673402 1.9808776e-10 0)
(0.66734021 8.5388083e-11 0)
(0.6673402 9.9455786e-11 0)
(0.66734021 -4.7148906e-11 0)
(0.6673402 -2.9610795e-11 0)
(0.66734021 -1.5266027e-10 0)
(0.6673402 -1.36671e-10 0)
(0.66734021 -2.6673931e-10 0)
(0.6673402 -2.1680816e-10 0)
(0.66734021 -2.9198506e-10 0)
(0.6673402 -2.0895228e-10 0)
(0.66734021 -2.6496115e-10 0)
(0.6673402 -1.3583549e-10 0)
(0.66734021 -1.4191803e-10 0)
(0.6673402 -3.7455083e-12 0)
(0.66734021 -1.4846937e-11 0)
(0.6673402 1.4328728e-10 0)
(0.66734021 1.6601537e-10 0)
(0.6673402 3.2411103e-10 0)
(0.6673402 3.2851739e-10 0)
(0.6673402 4.7586828e-10 0)
(0.6673402 4.8808767e-10 0)
(0.6673402 6.088686e-10 0)
(0.66734021 5.892831e-10 0)
(0.6673402 5.3600612e-10 0)
(0.66734021 2.7510388e-10 0)
(0.6673402 -6.9007995e-10 0)
(0.66734021 -1.6380759e-09 0)
(0.6673402 -4.4256709e-09 0)
(0.66734023 -7.4135335e-09 0)
(0.66734019 -1.285154e-08 0)
(0.66734026 -1.6966753e-08 0)
(0.58566947 -0.00048036471 0)
(0.58794361 -0.0020324024 0)
(0.58759724 -0.0027427941 0)
(0.58710835 -0.002628292 0)
(0.58702455 -0.0022301711 0)
(0.58703172 -0.0018637804 0)
(0.58692251 -0.0015685684 0)
(0.58672007 -0.0013055452 0)
(0.58650182 -0.001060913 0)
(0.58630528 -0.00084233371 0)
(0.58613512 -0.00065543723 0)
(0.58598924 -0.00049861497 0)
(0.58586782 -0.00036820184 0)
(0.58577132 -0.00026179215 0)
(0.58569829 -0.00017787037 0)
(0.58564557 -0.00011456824 0)
(0.58560934 -6.9205511e-05 0)
(0.58558577 -3.8523436e-05 0)
(0.58557141 -1.9110218e-05 0)
(0.58556331 -7.7811577e-06 0)
(0.58555919 -1.8563906e-06 0)
(0.58555741 7.82747e-07 0)
(0.58555686 1.6266822e-06 0)
(0.58555689 1.6066516e-06 0)
(0.58555711 1.264296e-06 0)
(0.58555736 8.7445389e-07 0)
(0.58555756 5.5100662e-07 0)
(0.5855577 3.2020158e-07 0)
(0.5855578 1.7250026e-07 0)
(0.58555785 8.5020402e-08 0)
(0.58555788 3.7711596e-08 0)
(0.5855579 1.3577058e-08 0)
(0.58555791 3.0431794e-09 0)
(0.58555791 -1.4302089e-09 0)
(0.58555792 -2.347076e-09 0)
(0.58555792 -2.5690852e-09 0)
(0.58555792 -1.8857624e-09 0)
(0.58555792 -1.6866916e-09 0)
(0.58555792 -1.0427191e-09 0)
(0.58555792 -9.9691013e-10 0)
(0.58555792 -4.753921e-10 0)
(0.58555792 -5.5832528e-10 0)
(0.58555792 -1.4507856e-10 0)
(0.58555792 -3.0768404e-10 0)
(0.58555792 6.7374561e-11 0)
(0.58555792 -1.5315e-10 0)
(0.58555792 1.4384839e-10 0)
(0.58555792 -1.2674822e-10 0)
(0.58555792 1.4884406e-10 0)
(0.58555792 -1.5698116e-10 0)
(0.58555792 7.484922e-11 0)
(0.58555792 -2.3995888e-10 0)
(0.58555792 1.6935163e-11 0)
(0.58555792 -2.8717868e-10 0)
(0.58555792 -2.7282043e-11 0)
(0.58555792 -2.951644e-10 0)
(0.58555792 2.1912011e-11 0)
(0.58555792 -2.1556152e-10 0)
(0.58555792 1.0276891e-10 0)
(0.58555792 -1.1698036e-10 0)
(0.58555792 2.301969e-10 0)
(0.58555792 3.4398902e-12 0)
(0.58555792 3.1931607e-10 0)
(0.58555792 7.2086981e-11 0)
(0.58555792 3.7423681e-10 0)
(0.58555792 8.7752201e-11 0)
(0.58555792 3.2327958e-10 0)
(0.58555792 1.4390476e-13 0)
(0.58555792 2.2941293e-10 0)
(0.58555792 -1.1551054e-10 0)
(0.58555792 8.2789052e-11 0)
(0.58555792 -2.6257739e-10 0)
(0.58555792 -3.4425703e-11 0)
(0.58555792 -3.6944014e-10 0)
(0.58555792 -1.4253006e-10 0)
(0.58555792 -4.3657944e-10 0)
(0.58555792 -1.4601119e-10 0)
(0.58555792 -3.9667403e-10 0)
(0.58555792 -8.8267823e-11 0)
(0.58555792 -3.0304763e-10 0)
(0.58555792 5.7273786e-11 0)
(0.58555792 -1.4410541e-10 0)
(0.58555792 2.018227e-10 0)
(0.58555792 2.3263707e-12 0)
(0.58555792 3.7653703e-10 0)
(0.58555792 1.8128518e-10 0)
(0.58555792 5.1054247e-10 0)
(0.58555792 2.9594231e-10 0)
(0.58555792 6.0608092e-10 0)
(0.58555792 3.7153262e-10 0)
(0.58555792 5.9670899e-10 0)
(0.58555792 2.6871398e-10 0)
(0.58555792 1.9951899e-10 0)
(0.58555792 -5.6309507e-10 0)
(0.58555792 -1.6284542e-09 0)
(0.58555792 -3.0997108e-09 0)
(0.58555792 -7.0400552e-09 0)
(0.58555793 -1.1069496e-08 0)
(0.5855579 -2.0068852e-08 0)
(0.58555795 -2.6343888e-08 0)
(0.44435312 -0.00059501766 0)
(0.44514663 -0.0020919736 0)
(0.44378576 -0.0024948842 0)
(0.44228879 -0.0021119216 0)
(0.44116473 -0.0015919463 0)
(0.44026543 -0.0012058417 0)
(0.43946803 -0.0009395021 0)
(0.4387682 -0.00073182697 0)
(0.43818661 -0.00055937608 0)
(0.43772239 -0.00042014858 0)
(0.4373594 -0.00031140488 0)
(0.43708029 -0.00022675483 0)
(0.43687103 -0.00016040997 0)
(0.43671959 -0.0001089137 0)
(0.43661461 -7.0187638e-05 0)
(0.43654536 -4.2385768e-05 0)
(0.43650226 -2.3518046e-05 0)
(0.43647731 -1.1540817e-05 0)
(0.43646419 -4.5379296e-06 0)
(0.4364582 -8.5842083e-07 0)
(0.4364562 8.0289087e-07 0)
(0.43645616 1.3056615e-06 0)
(0.43645686 1.2426324e-06 0)
(0.4364577 9.6752769e-07 0)
(0.43645842 6.6741843e-07 0)
(0.43645894 4.2049837e-07 0)
(0.43645928 2.4430414e-07 0)
(0.43645949 1.310847e-07 0)
(0.43645961 6.3911647e-08 0)
(0.43645967 2.7501123e-08 0)
(0.4364597 9.1450206e-09 0)
(0.43645971 1.196627e-09 0)
(0.43645972 -1.9981815e-09 0)
(0.43645972 -2.5567653e-09 0)
(0.43645972 -2.4806791e-09 0)
(0.43645971 -1.8528224e-09 0)
(0.43645972 -1.5160211e-09 0)
(0.43645971 -9.9844687e-10 0)
(0.43645971 -8.4983747e-10 0)
(0.43645971 -4.7146522e-10 0)
(0.43645971 -4.516367e-10 0)
(0.43645971 -1.8646548e-10 0)
(0.43645971 -2.5097048e-10 0)
(0.43645971 -1.9042323e-11 0)
(0.43645971 -1.2383116e-10 0)
(0.43645971 4.8300187e-11 0)
(0.43645971 -9.7662602e-11 0)
(0.43645971 6.3584096e-11 0)
(0.43645971 -1.0435299e-10 0)
(0.43645971 1.8636389e-11 0)
(0.43645971 -1.6016094e-10 0)
(0.43645971 -1.202399e-11 0)
(0.43645971 -1.7630236e-10 0)
(0.43645971 -3.1430718e-11 0)
(0.43645971 -1.7806235e-10 0)
(0.43645971 8.5211775e-12 0)
(0.43645971 -1.1406711e-10 0)
(0.43645971 6.6586863e-11 0)
(0.43645971 -4.8772143e-11 0)
(0.43645971 1.5935546e-10 0)
(0.43645971 4.0846495e-11 0)
(0.43645971 2.1374235e-10 0)
(0.43645971 7.047803e-11 0)
(0.43645971 2.3947062e-10 0)
(0.43645971 7.2067634e-11 0)
(0.43645971 1.9105029e-10 0)
(0.43645971 1.3107934e-12 0)
(0.43645971 1.2493495e-10 0)
(0.43645971 -7.7016879e-11 0)
(0.43645971 1.5191465e-11 0)
(0.43645971 -1.9232061e-10 0)
(0.43645971 -6.8447112e-11 0)
(0.43645971 -2.5656911e-10 0)
(0.43645971 -1.3199549e-10 0)
(0.43645971 -2.9345515e-10 0)
(0.43645971 -1.1604262e-10 0)
(0.43645971 -2.4470188e-10 0)
(0.43645971 -6.615004e-11 0)
(0.43645971 -1.7899671e-10 0)
(0.43645971 3.6371515e-11 0)
(0.43645971 -6.1656131e-11 0)
(0.43645971 1.4290519e-10 0)
(0.43645971 4.3421184e-11 0)
(0.43645971 2.6628678e-10 0)
(0.43645971 1.5898371e-10 0)
(0.43645971 3.3709583e-10 0)
(0.43645971 2.0758357e-10 0)
(0.43645971 3.8325864e-10 0)
(0.43645971 2.3526327e-10 0)
(0.43645971 3.7008554e-10 0)
(0.43645971 1.5120331e-10 0)
(0.43645971 1.9613214e-10 0)
(0.43645971 -3.3208794e-10 0)
(0.43645971 -6.8806943e-10 0)
(0.43645971 -1.8205845e-09 0)
(0.43645971 -3.0327647e-09 0)
(0.43645971 -6.8292075e-09 0)
(0.43645971 -1.0461547e-08 0)
(0.43645968 -2.147151e-08 0)
(0.43645971 -2.7904663e-08 0)
(0.19851058 -0.00041431258 0)
(0.19759404 -0.0010349253 0)
(0.19572907 -0.00098770947 0)
(0.19413688 -0.00066369381 0)
(0.19303495 -0.00040191709 0)
(0.19226496 -0.00026101819 0)
(0.19168545 -0.0001853017 0)
(0.19123563 -0.00013335359 0)
(0.1908911 -9.3967146e-05 0)
(0.19063247 -6.5713018e-05 0)
(0.19044049 -4.6222994e-05 0)
(0.19029935 -3.2343909e-05 0)
(0.19019765 -2.196212e-05 0)
(0.19012683 -1.4148467e-05 0)
(0.19007976 -8.4836543e-06 0)
(0.19005024 -4.6140547e-06 0)
(0.19003305 -2.1598001e-06 0)
(0.19002401 -7.4393692e-07 0)
(0.19002001 -2.4233039e-08 0)
(0.19001883 2.7582391e-07 0)
(0.19001902 3.8753123e-07 0)
(0.19001968 3.6068492e-07 0)
(0.19002043 2.7895869e-07 0)
(0.19002105 1.9264905e-07 0)
(0.19002151 1.2144351e-07 0)
(0.19002181 7.0761304e-08 0)
(0.19002199 3.7643255e-08 0)
(0.1900221 1.8198975e-08 0)
(0.19002215 7.3236141e-09 0)
(0.19002217 2.2091562e-09 0)
(0.19002218 -2.213226e-10 0)
(0.19002219 -7.8663117e-10 0)
(0.19002219 -1.1354307e-09 0)
(0.19002219 -8.3701904e-10 0)
(0.19002218 -8.0029566e-10 0)
(0.19002218 -4.373394e-10 0)
(0.19002218 -4.6626182e-10 0)
(0.19002218 -1.8860148e-10 0)
(0.19002218 -2.7602744e-10 0)
(0.19002218 -3.5565033e-11 0)
(0.19002218 -1.7728025e-10 0)
(0.19002218 3.1073608e-11 0)
(0.19002218 -1.254841e-10 0)
(0.19002218 7.2292418e-11 0)
(0.19002218 -1.1032323e-10 0)
(0.19002218 6.987434e-11 0)
(0.19002218 -1.0387708e-10 0)
(0.19002218 8.0058059e-11 0)
(0.19002218 -1.0988062e-10 0)
(0.19002218 6.6375337e-11 0)
(0.19002218 -1.08908e-10 0)
(0.19002218 7.8559224e-11 0)
(0.19002218 -1.0759656e-10 0)
(0.19002218 7.6917953e-11 0)
(0.19002218 -9.1766609e-11 0)
(0.19002218 1.0287955e-10 0)
(0.19002218 -7.6816705e-11 0)
(0.19002218 1.0993359e-10 0)
(0.19002218 -5.7306497e-11 0)
(0.19002218 1.3290179e-10 0)
(0.19002218 -5.5274068e-11 0)
(0.19002218 1.242869e-10 0)
(0.19002218 -5.7028963e-11 0)
(0.19002218 1.2419267e-10 0)
(0.19002218 -7.7376373e-11 0)
(0.19002218 9.1299539e-11 0)
(0.19002218 -9.6006076e-11 0)
(0.19002218 7.641288e-11 0)
(0.19002218 -1.2484623e-10 0)
(0.19002218 4.2784914e-11 0)
(0.19002218 -1.406577e-10 0)
(0.19002218 4.2052944e-11 0)
(0.19002218 -1.5109216e-10 0)
(0.19002218 3.0810468e-11 0)
(0.19002218 -1.39366e-10 0)
(0.19002218 6.0488411e-11 0)
(0.19002218 -1.1729749e-10 0)
(0.19002218 7.7190002e-11 0)
(0.19002218 -8.3954739e-11 0)
(0.19002218 1.1684454e-10 0)
(0.19002218 -5.7170856e-11 0)
(0.19002218 1.3331982e-10 0)
(0.19002218 -3.1588588e-11 0)
(0.19002218 1.6679791e-10 0)
(0.19002218 -1.5950905e-11 0)
(0.19002218 1.6799087e-10 0)
(0.19002218 -6.1456904e-12 0)
(0.19002218 1.7713836e-10 0)
(0.19002218 -1.5760457e-11 0)
(0.19002218 1.4948638e-10 0)
(0.19002218 -6.8222193e-11 0)
(0.19002218 4.189752e-11 0)
(0.19002218 -3.3067252e-10 0)
(0.19002218 -3.7334927e-10 0)
(0.19002218 -9.2492952e-10 0)