/*--------------------------------*- C++ -*----------------------------------*\
| =========                 |                                                 |
| \\      /  F ield         | OpenFOAM: The Open Source CFD Toolbox           |
|  \\    /   O peration     | Version:  v1812                                 |
|   \\  /    A nd           | Web:      www.OpenFOAM.com                      |
|    \\/     M anipulation  |                                                 |
\*---------------------------------------------------------------------------*/
FoamFile
{
    version     2.0;
    format      ascii;
    class       volScalarField;
    location    "20";
    object      p;
}
// * * * * * * * * * * * * * * * * * * * * * * * * * * * * * * * * * * * * * //

dimensions      [0 2 -2 0 0 0 0];


internalField   nonuniform List<scalar> 
1000
(
1.7166329
1.5870947
1.4979035
1.4410403
1.3929758
1.3516322
1.3183603
1.2912438
1.2675314
1.2456463
1.2252359
1.2063855
1.1891028
1.173218
1.158428
1.1443931
1.130815
1.117469
1.104206
1.0909394
1.0776267
1.064255
1.0508269
1.0373522
1.0238424
1.0103082
0.99675829
0.98319889
0.96963431
0.95606721
0.94249916
0.92893096
0.915363
0.90179539
0.88822814
0.87466118
0.86109447
0.84752792
0.8339615
0.82039516
0.80682888
0.79326263
0.77969641
0.7661302
0.75256401
0.73899782
0.72543164
0.71186546
0.69829929
0.68473312
0.67116695
0.65760079
0.64403463
0.63046847
0.6169023
0.60333615
0.58976999
0.57620383
0.56263767
0.54907152
0.53550536
0.52193921
0.50837306
0.4948069
0.48124075
0.4676746
0.45410845
0.4405423
0.42697615
0.41341001
0.39984386
0.38627773
0.37271157
0.35914549
0.34557925
0.33201337
0.31844676
0.30488159
0.29131362
0.27775087
0.26417876
0.25062287
0.23704044
0.22349961
0.20989825
0.19637915
0.18275994
0.16924777
0.15564676
0.1420878
0.12856757
0.11493066
0.1014665
0.087875772
0.074323818
0.060884117
0.04741591
0.033808017
0.020818832
0.0072431541
1.5926264
1.5268987
1.4696699
1.4250535
1.3830076
1.3461524
1.3169779
1.2932542
1.2716561
1.2505247
1.2298043
1.2100779
1.1917948
1.1750357
1.1595853
1.1450973
1.1312283
1.1177041
1.1043354
1.0910075
1.0776603
1.0642695
1.0508313
1.0373517
1.0238398
1.0103052
0.99675547
0.9831966
0.96963258
0.956066
0.94249835
0.92893045
0.91536269
0.90179522
0.88822804
0.87466114
0.86109444
0.84752791
0.83396149
0.82039515
0.80682886
0.79326261
0.77969639
0.76613019
0.75256399
0.73899781
0.72543163
0.71186545
0.69829928
0.68473311
0.67116695
0.65760078
0.64403462
0.63046846
0.6169023
0.60333614
0.58976998
0.57620383
0.56263767
0.54907152
0.53550536
0.52193921
0.50837305
0.4948069
0.48124075
0.4676746
0.45410844
0.44054229
0.42697614
0.41341
0.39984384
0.38627773
0.37271152
0.35914554
0.34557909
0.33201364
0.31844618
0.30488263
0.29131164
0.27775428
0.26417282
0.25063223
0.23702586
0.22351989
0.20987136
0.19640951
0.18272993
0.16926631
0.15564715
0.14205545
0.12862142
0.11486248
0.10150082
0.087880917
0.074267162
0.0609332
0.047607287
0.03389991
0.022415798
0.0084548266
1.5295771
1.5017114
1.4632957
1.4228899
1.3824228
1.347654
1.3213557
1.300689
1.2812498
1.260704
1.2391559
1.2177957
1.1976766
1.1792584
1.1624815
1.1470119
1.1324527
1.1184606
1.1047841
1.0912596
1.0777913
1.0643292
1.0508516
1.0373521
1.0238319
1.010295
0.99674611
0.98318914
0.96962718
0.95606236
0.94249605
0.92892909
0.91536194
0.90179484
0.88822787
0.87466107
0.86109442
0.84752789
0.83396147
0.82039512
0.80682882
0.79326257
0.77969634
0.76613013
0.75256394
0.73899776
0.72543158
0.71186541
0.69829924
0.68473308
0.67116692
0.65760076
0.6440346
0.63046844
0.61690228
0.60333613
0.58976997
0.57620382
0.56263766
0.54907151
0.53550535
0.5219392
0.50837304
0.49480689
0.48124073
0.46767458
0.45410843
0.44054227
0.42697611
0.41340997
0.3998438
0.38627771
0.37271145
0.35914558
0.34557891
0.33201389
0.31844559
0.30488359
0.29130977
0.27775722
0.26416773
0.25063958
0.23701475
0.22353385
0.20985412
0.19642569
0.1827172
0.16926594
0.15565997
0.1420204
0.12865323
0.11482747
0.1014715
0.087918213
0.074111413
0.060964693
0.047346314
0.033656224
0.021579966
0.0076017642
1.4999511
1.4835952
1.452062
1.4135304
1.375073
1.3435694
1.3213116
1.3047216
1.2884414
1.2694728
1.2479302
1.2255042
1.2038507
1.1838774
1.1657616
1.1492459
1.1339201
1.1193914
1.1053527
1.0915919
1.0779747
1.0644226
1.0508932
1.0373659
1.0238322
1.01029
0.99673988
0.98318358
0.9696229
0.95605937
0.94249412
0.92892793
0.91536128
0.90179448
0.88822769
0.87466097
0.86109435
0.84752783
0.8339614
0.82039504
0.80682874
0.79326248
0.77969625
0.76613005
0.75256386
0.73899768
0.72543151
0.71186535
0.69829919
0.68473303
0.67116687
0.65760072
0.64403457
0.63046841
0.61690226
0.60333611
0.58976995
0.5762038
0.56263765
0.54907149
0.53550534
0.52193918
0.50837303
0.49480687
0.48124072
0.46767456
0.4541084
0.44054224
0.42697607
0.41340993
0.39984374
0.38627767
0.37271137
0.35914556
0.34557877
0.33201399
0.31844522
0.30488405
0.29130872
0.27775864
0.26416506
0.25064306
0.23700925
0.22354016
0.20984591
0.19643261
0.18271046
0.16926584
0.15566061
0.14200746
0.12865166
0.11481412
0.1014234
0.08791787
0.073936112
0.06089987
0.046803023
0.033115321
0.019567859
0.0059942635
1.4864395
1.4730095
1.444695
1.4081344
1.3717776
1.3428517
1.3232852
1.3090915
1.2944862
1.2761986
1.2544016
1.2310991
1.208313
1.1872248
1.1681566
1.150896
1.1350214
1.1201051
1.1058019
1.0918656
1.0781354
1.0645128
1.0509409
1.0373892
1.0238422
1.0102932
0.99673998
0.98318256
0.96962168
0.95605832
0.94249333
0.92892737
0.91536091
0.90179422
0.88822749
0.87466081
0.8610942
0.84752769
0.83396126
0.82039491
0.80682861
0.79326236
0.77969614
0.76612994
0.75256376
0.73899759
0.72543143
0.71186528
0.69829913
0.68473298
0.67116683
0.65760068
0.64403454
0.63046839
0.61690224
0.60333609
0.58976994
0.57620378
0.56263763
0.54907148
0.53550532
0.52193917
0.50837301
0.49480685
0.48124069
0.46767453
0.45410837
0.4405422
0.42697603
0.41340988
0.39984369
0.38627761
0.3727113
0.35914552
0.34557866
0.332014
0.318445
0.30488422
0.29130816
0.27775926
0.26416367
0.25064471
0.23700637
0.22354342
0.20984132
0.19643675
0.18270576
0.16926721
0.15565892
0.14200176
0.12864973
0.11480482
0.10139685
0.087913291
0.073829192
0.060863904
0.046466215
0.032762605
0.018344808
0.005047282
1.4864393
1.4730093
1.4446947
1.4081341
1.3717772
1.3428512
1.3232846
1.3090909
1.2944855
1.2761979
1.2544009
1.2310984
1.2083123
1.187224
1.1681558
1.1508953
1.1350207
1.1201044
1.1058012
1.0918649
1.0781347
1.0645121
1.0509403
1.0373886
1.0238416
1.0102926
0.9967395
0.9831821
0.96962126
0.95605792
0.94249296
0.92892703
0.91536059
0.90179393
0.88822723
0.87466056
0.86109398
0.84752749
0.83396108
0.82039474
0.80682846
0.79326223
0.77969602
0.76612984
0.75256367
0.73899751
0.72543136
0.71186522
0.69829908
0.68473293
0.67116679
0.65760065
0.6440345
0.63046836
0.61690221
0.60333607
0.58976992
0.57620377
0.56263761
0.54907146
0.53550531
0.52193915
0.50837299
0.49480683
0.48124067
0.4676745
0.45410833
0.44054216
0.42697598
0.41340983
0.39984363
0.38627755
0.37271124
0.35914546
0.3455786
0.33201393
0.31844493
0.30488414
0.29130807
0.27775916
0.26416356
0.2506446
0.23700626
0.22354332
0.20984123
0.19643667
0.18270567
0.16926711
0.1556588
0.14200165
0.12864963
0.11480474
0.10139678
0.087913235
0.073829128
0.060863829
0.046466142
0.03276255
0.018344782
0.0050472757
1.4999505
1.4835945
1.4520611
1.4135293
1.3750718
1.343568
1.32131
1.3047198
1.2884394
1.2694707
1.2479281
1.2255022
1.2038486
1.1838754
1.1657596
1.1492439
1.1339181
1.1193894
1.1053507
1.0915899
1.0779728
1.0644208
1.0508915
1.0373643
1.0238307
1.0102885
0.99673849
0.98318227
0.96962167
0.95605822
0.94249304
0.92892693
0.91536036
0.90179363
0.88822691
0.87466025
0.8610937
0.84752724
0.83396086
0.82039456
0.80682831
0.79326209
0.77969591
0.76612974
0.75256359
0.73899744
0.7254313
0.71186517
0.69829903
0.68473289
0.67116676
0.65760062
0.64403448
0.63046834
0.61690219
0.60333605
0.5897699
0.57620375
0.5626376
0.54907144
0.53550529
0.52193913
0.50837297
0.49480681
0.48124064
0.46767447
0.4541083
0.44054213
0.42697594
0.41340979
0.39984359
0.3862775
0.3727112
0.35914539
0.34557859
0.33201381
0.31844502
0.30488382
0.29130846
0.27775835
0.26416474
0.25064273
0.23700894
0.22353988
0.20984565
0.19643237
0.18271021
0.16926555
0.15566029
0.14200713
0.12865136
0.11481387
0.1014232
0.087917699
0.073935929
0.060899671
0.046802833
0.033115181
0.019567792
0.005994246
1.5295761
1.5017103
1.4632943
1.4228883
1.3824211
1.347652
1.3213533
1.3006863
1.2812467
1.2607009
1.2391527
1.2177925
1.1976735
1.1792554
1.1624785
1.1470088
1.1324497
1.1184576
1.1047811
1.0912567
1.0777885
1.0643265
1.050849
1.0373496
1.0238295
1.0102928
0.996744
0.98318715
0.9696253
0.95606059
0.9424944
0.92892756
0.91536052
0.90179353
0.88822667
0.87465997
0.86109341
0.84752698
0.83396064
0.82039437
0.80682815
0.79326197
0.7796958
0.76612966
0.75256352
0.73899739
0.72543125
0.71186512
0.69829899
0.68473286
0.67116673
0.65760059
0.64403445
0.63046832
0.61690217
0.60333603
0.58976988
0.57620373
0.56263758
0.54907143
0.53550527
0.52193911
0.50837295
0.49480679
0.48124062
0.46767445
0.45410827
0.4405421
0.42697591
0.41340975
0.39984356
0.38627746
0.37271119
0.35914532
0.34557864
0.33201361
0.31844528
0.30488324
0.29130938
0.27775677
0.26416725
0.2506391
0.23701428
0.22353342
0.20985373
0.19642532
0.18271682
0.16926552
0.1556595
0.14201992
0.12865278
0.11482708
0.10147119
0.087917945
0.074111147
0.060964421
0.047346062
0.033656037
0.021579874
0.0076017383
1.5926251
1.5268973
1.4696682
1.4250516
1.3830054
1.3461499
1.316975
1.2932509
1.2716526
1.2505209
1.2298004
1.2100741
1.1917911
1.175032
1.1595816
1.1450937
1.1312247
1.1177005
1.1043319
1.091004
1.0776569
1.0642662
1.0508282
1.0373487
1.023837
1.0103025
0.99675292
0.98319418
0.96963031
0.95606386
0.94249635
0.92892859
0.91536097
0.90179362
0.88822658
0.87465979
0.86109322
0.84752679
0.83396048
0.82039423
0.80682804
0.79326188
0.77969573
0.7661296
0.75256347
0.73899735
0.72543122
0.7118651
0.69829897
0.68473284
0.67116671
0.65760057
0.64403444
0.6304683
0.61690216
0.60333601
0.58976987
0.57620372
0.56263757
0.54907141
0.53550526
0.5219391
0.50837294
0.49480677
0.4812406
0.46767443
0.45410825
0.44054208
0.4269759
0.41340973
0.39984355
0.38627743
0.37271121
0.35914523
0.34557877
0.33201329
0.3184458
0.3048822
0.29131115
0.27775374
0.26417225
0.25063166
0.23702533
0.22351939
0.2098709
0.19640906
0.18272945
0.16926578
0.15564658
0.14205488
0.1286209
0.11486203
0.10150045
0.087880596
0.074266854
0.060932891
0.047607001
0.033899693
0.022415682
0.0084547941
1.7166316
1.5870933
1.4979017
1.4410381
1.3929732
1.3516294
1.3183572
1.2912405
1.2675278
1.2456425
1.225232
1.2063816
1.1890989
1.1732141
1.1584242
1.1443893
1.1308112
1.1174652
1.1042023
1.0909357
1.0776232
1.0642516
1.0508236
1.037349
1.0238394
1.0103054
0.99675562
0.98319637
0.96963193
0.95606498
0.94249707
0.92892902
0.91536119
0.90179372
0.8882266
0.87465978
0.86109318
0.84752675
0.83396044
0.8203942
0.80682801
0.79326185
0.77969571
0.76612958
0.75256346
0.73899734
0.72543121
0.71186509
0.69829896
0.68473284
0.6711667
0.65760057
0.64403443
0.6304683
0.61690215
0.60333601
0.58976986
0.57620371
0.56263756
0.54907141
0.53550525
0.52193909
0.50837293
0.49480676
0.48124059
0.46767442
0.45410825
0.44054207
0.4269759
0.41340973
0.39984356
0.38627742
0.37271125
0.35914516
0.3455789
0.33201299
0.31844633
0.30488111
0.29131309
0.2777503
0.26417818
0.25062229
0.2370399
0.2234991
0.20989776
0.19637865
0.1827594
0.16924719
0.15564616
0.14208722
0.12856705
0.11493022
0.10146612
0.087875429
0.074323483
0.060883789
0.047415616
0.033807799
0.02081871
0.0072431182
)
;

boundaryField
{
    top
    {
        type            zeroGradient;
    }
    inlet
    {
        type            zeroGradient;
    }
    outlet
    {
        type            fixedValue;
        value           uniform 0;
    }
    bottom
    {
        type            zeroGradient;
    }
    back
    {
        type            empty;
    }
    front
    {
        type            empty;
    }
}


// ************************************************************************* //
