/*--------------------------------*- C++ -*----------------------------------*\
| =========                 |                                                 |
| \\      /  F ield         | OpenFOAM: The Open Source CFD Toolbox           |
|  \\    /   O peration     | Version:  v1812                                 |
|   \\  /    A nd           | Web:      www.OpenFOAM.com                      |
|    \\/     M anipulation  |                                                 |
\*---------------------------------------------------------------------------*/
FoamFile
{
    version     2.0;
    format      ascii;
    class       volVectorField;
    location    "14";
    object      U;
}
// * * * * * * * * * * * * * * * * * * * * * * * * * * * * * * * * * * * * * //

dimensions      [0 1 -1 0 0 0 0];


internalField   nonuniform List<vector> 
1000
(
(0.91890839 0.035821912 0)
(0.86271384 0.062195638 0)
(0.7870597 0.062510089 0)
(0.69536033 0.054550394 0)
(0.61089744 0.044531651 0)
(0.54411591 0.034015972 0)
(0.49343012 0.02418754 0)
(0.45479414 0.01614423 0)
(0.42544583 0.010265786 0)
(0.40347313 0.0063041452 0)
(0.38715766 0.0037976293 0)
(0.3749622 0.0023103383 0)
(0.36566192 0.001493015 0)
(0.35836272 0.0010851182 0)
(0.35244268 0.00090607206 0)
(0.34748201 0.00084105137 0)
(0.34320348 0.00082372397 0)
(0.33942726 0.00081931043 0)
(0.33603793 0.00081185234 0)
(0.33296114 0.00079580163 0)
(0.33014778 0.00077081197 0)
(0.32756384 0.00073870974 0)
(0.3251842 0.00070188929 0)
(0.32298902 0.00066256537 0)
(0.32096172 0.00062249912 0)
(0.31908785 0.0005829569 0)
(0.31735449 0.00054477136 0)
(0.31574995 0.00050843412 0)
(0.3142636 0.00047419199 0)
(0.31288574 0.00044212504 0)
(0.31160755 0.00041221001 0)
(0.31042101 0.000384362 0)
(0.30931883 0.00035846504 0)
(0.30829438 0.00033439005 0)
(0.30734165 0.00031200607 0)
(0.30645515 0.00029118684 0)
(0.30562991 0.00027181353 0)
(0.30486136 0.00025377641 0)
(0.30414535 0.00023697457 0)
(0.30347807 0.00022131542 0)
(0.30285601 0.00020671515 0)
(0.30227596 0.00019309638 0)
(0.30173496 0.00018038914 0)
(0.30123029 0.00016852884 0)
(0.30075942 0.00015745639 0)
(0.30032002 0.00014711781 0)
(0.29990993 0.00013746261 0)
(0.29952715 0.00012844503 0)
(0.29916983 0.00012002182 0)
(0.29883624 0.00011215264 0)
(0.29852478 0.00010480085 0)
(0.29823397 9.793108e-05 0)
(0.29796241 9.1511482e-05 0)
(0.29770883 8.5512087e-05 0)
(0.29747201 7.9904844e-05 0)
(0.29725084 7.4664848e-05 0)
(0.29704429 6.9767604e-05 0)
(0.29685137 6.5192067e-05 0)
(0.29667119 6.0916803e-05 0)
(0.29650291 5.6921958e-05 0)
(0.29634572 5.3189134e-05 0)
(0.2961989 4.9700186e-05 0)
(0.29606176 4.6439107e-05 0)
(0.29593366 4.3390471e-05 0)
(0.29581401 4.0540315e-05 0)
(0.29570224 3.7876588e-05 0)
(0.29559784 3.5387338e-05 0)
(0.29550031 3.3062025e-05 0)
(0.29540922 3.0891058e-05 0)
(0.29532413 2.8863127e-05 0)
(0.29524464 2.6969193e-05 0)
(0.29517039 2.5198992e-05 0)
(0.29510104 2.3543338e-05 0)
(0.29503625 2.1994622e-05 0)
(0.29497573 2.0546043e-05 0)
(0.29491919 1.9191797e-05 0)
(0.29486638 1.7927675e-05 0)
(0.29481705 1.6747284e-05 0)
(0.29477097 1.5647653e-05 0)
(0.29472792 1.4620928e-05 0)
(0.29468771 1.3663178e-05 0)
(0.29465016 1.2766211e-05 0)
(0.29461507 1.192719e-05 0)
(0.2945823 1.1139358e-05 0)
(0.29455168 1.0403007e-05 0)
(0.29452309 9.7115328e-06 0)
(0.29449636 9.0746569e-06 0)
(0.29447142 8.4748557e-06 0)
(0.29444808 7.9232669e-06 0)
(0.29442633 7.4011917e-06 0)
(0.29440598 6.9282585e-06 0)
(0.29438699 6.469445e-06 0)
(0.29436921 6.0530919e-06 0)
(0.29435261 5.6435757e-06 0)
(0.29433715 5.2897833e-06 0)
(0.29432249 4.9731072e-06 0)
(0.29430918 4.6905013e-06 0)
(0.29429569 4.5393863e-06 0)
(0.29428502 4.4063541e-06 0)
(0.29426873 5.0583013e-06 0)
(1.0016583 0.05381943 0)
(1.0359761 0.10128443 0)
(1.0597199 0.11073663 0)
(1.0628947 0.10592201 0)
(1.0515569 0.096228726 0)
(1.0340529 0.083934061 0)
(1.0142795 0.070327064 0)
(0.99360702 0.056981335 0)
(0.97292577 0.04510748 0)
(0.9531074 0.03523675 0)
(0.93479539 0.02740165 0)
(0.91829012 0.021387227 0)
(0.90362379 0.016884499 0)
(0.89068067 0.013569709 0)
(0.87928174 0.011147748 0)
(0.86923242 0.0093736582 0)
(0.86034423 0.0080569279 0)
(0.85244667 0.0070571276 0)
(0.84539241 0.0062752391 0)
(0.83905793 0.0056438295 0)
(0.83334126 0.0051180919 0)
(0.82815884 0.0046686726 0)
(0.82344212 0.0042764169 0)
(0.81913467 0.0039287376 0)
(0.81518962 0.0036172021 0)
(0.81156765 0.003335969 0)
(0.80823544 0.0030808032 0)
(0.8051644 0.0028484689 0)
(0.80232979 0.0026363699 0)
(0.79970999 0.0024423395 0)
(0.79728597 0.0022645199 0)
(0.79504086 0.0021012906 0)
(0.79295963 0.0019512255 0)
(0.79102881 0.0018130626 0)
(0.78923628 0.0016856825 0)
(0.7875711 0.0015680911 0)
(0.78602338 0.0014594044 0)
(0.78458411 0.0013588351 0)
(0.78324511 0.0012656806 0)
(0.78199889 0.0011793127 0)
(0.7808386 0.0010991687 0)
(0.77975799 0.0010247428 0)
(0.77875128 0.00095557969 0)
(0.77781318 0.00089126826 0)
(0.77693881 0.00083143592 0)
(0.77612368 0.00077574479 0)
(0.77536362 0.00072388675 0)
(0.77465481 0.00067558065 0)
(0.77399367 0.00063056863 0)
(0.77337693 0.00058861344 0)
(0.77280153 0.00054949736 0)
(0.77226464 0.00051301912 0)
(0.77176363 0.00047899329 0)
(0.77129607 0.00044724908 0)
(0.77085967 0.00041762832 0)
(0.77045234 0.00038998606 0)
(0.77007212 0.00036418759 0)
(0.76971717 0.00034010919 0)
(0.76938581 0.00031763456 0)
(0.76907644 0.00029665481 0)
(0.7687876 0.00027706854 0)
(0.76851791 0.00025878069 0)
(0.76826609 0.00024170291 0)
(0.76803096 0.00022575356 0)
(0.76781139 0.00021085701 0)
(0.76760636 0.00019694423 0)
(0.76741489 0.00018395119 0)
(0.76723608 0.00017181843 0)
(0.76706909 0.00016049066 0)
(0.76691315 0.0001499137 0)
(0.76676751 0.00014003715 0)
(0.76663149 0.00013081159 0)
(0.76650446 0.00012219199 0)
(0.76638582 0.00011413639 0)
(0.76627501 0.00010660886 0)
(0.76617152 9.9575024e-05 0)
(0.76607486 9.3007475e-05 0)
(0.76598458 8.6874574e-05 0)
(0.76590025 8.1153663e-05 0)
(0.7658215 7.5811013e-05 0)
(0.76574793 7.0826401e-05 0)
(0.76567923 6.6162799e-05 0)
(0.76561504 6.1808547e-05 0)
(0.76555513 5.7726692e-05 0)
(0.76549911 5.3920806e-05 0)
(0.76544685 5.0345969e-05 0)
(0.76539796 4.7034657e-05 0)
(0.76535239 4.3925508e-05 0)
(0.7653097 4.1061173e-05 0)
(0.76526995 3.8330914e-05 0)
(0.7652327 3.5853564e-05 0)
(0.76519803 3.346925e-05 0)
(0.76516557 3.1324189e-05 0)
(0.76513519 2.9172732e-05 0)
(0.76510714 2.7355087e-05 0)
(0.76507996 2.5519965e-05 0)
(0.76505662 2.4076478e-05 0)
(0.76503058 2.255713e-05 0)
(0.76501446 2.1599007e-05 0)
(0.76498346 2.0995735e-05 0)
(1.0014244 0.026824854 0)
(1.0291272 0.06279135 0)
(1.0654292 0.077736549 0)
(1.098962 0.080597197 0)
(1.1253149 0.078285169 0)
(1.145053 0.0731539 0)
(1.1594858 0.06611128 0)
(1.1694287 0.058162065 0)
(1.1755354 0.050296756 0)
(1.1785738 0.043150709 0)
(1.1793571 0.036972825 0)
(1.1785949 0.031771632 0)
(1.1768304 0.027451839 0)
(1.1744518 0.023886767 0)
(1.1717287 0.020947619 0)
(1.1688444 0.01851578 0)
(1.1659195 0.016488085 0)
(1.1630317 0.014779503 0)
(1.1602295 0.013322986 0)
(1.1575415 0.012067133 0)
(1.1549828 0.010973001 0)
(1.1525601 0.010011062 0)
(1.1502747 0.0091587464 0)
(1.1481246 0.0083986032 0)
(1.1461059 0.0077169493 0)
(1.1442134 0.007102887 0)
(1.1424414 0.0065475913 0)
(1.1407838 0.0060437956 0)
(1.1392344 0.0055854269 0)
(1.1377869 0.0051673458 0)
(1.1364353 0.0047851582 0)
(1.1351738 0.0044350771 0)
(1.1339968 0.0041138171 0)
(1.1328987 0.0038185125 0)
(1.1318746 0.0035466519 0)
(1.1309195 0.0032960256 0)
(1.1300289 0.0030646818 0)
(1.1291985 0.0028508899 0)
(1.1284242 0.0026531105 0)
(1.1277022 0.0024699695 0)
(1.1270291 0.002300237 0)
(1.1264014 0.0021428085 0)
(1.1258161 0.0019966891 0)
(1.1252702 0.0018609809 0)
(1.1247612 0.0017348704 0)
(1.1242865 0.0016176194 0)
(1.1238437 0.001508556 0)
(1.1234307 0.001407067 0)
(1.1230455 0.0013125913 0)
(1.1226861 0.0012246149 0)
(1.1223509 0.0011426657 0)
(1.1220381 0.0010663095 0)
(1.1217462 0.00099514661 0)
(1.1214739 0.00092880884 0)
(1.1212198 0.00086695683 0)
(1.1209827 0.00080927763 0)
(1.1207614 0.00075548248 0)
(1.1205548 0.00070530392 0)
(1.1203621 0.00065849304 0)
(1.1201821 0.00061481836 0)
(1.1200142 0.00057406485 0)
(1.1198574 0.00053603219 0)
(1.1197111 0.00050053452 0)
(1.1195745 0.00046739939 0)
(1.1194469 0.00043646779 0)
(1.1193278 0.00040759203 0)
(1.1192167 0.00038063561 0)
(1.1191129 0.0003554713 0)
(1.119016 0.00033198019 0)
(1.1189255 0.00031004937 0)
(1.118841 0.00028957398 0)
(1.1187621 0.00027045312 0)
(1.1186885 0.00025259598 0)
(1.1186197 0.00023591565 0)
(1.1185554 0.00022033735 0)
(1.1184954 0.00020578646 0)
(1.1184394 0.0001922019 0)
(1.1183871 0.0001795158 0)
(1.1183382 0.00016767797 0)
(1.1182926 0.00015661936 0)
(1.11825 0.00014630054 0)
(1.1182103 0.00013664783 0)
(1.1181731 0.00012764415 0)
(1.1181384 0.00011920747 0)
(1.1181059 0.00011135292 0)
(1.1180758 0.00010397804 0)
(1.1180473 9.7149053e-05 0)
(1.118021 9.0704842e-05 0)
(1.1179962 8.4791115e-05 0)
(1.1179734 7.9136126e-05 0)
(1.1179516 7.4033821e-05 0)
(1.1179318 6.9018749e-05 0)
(1.1179128 6.4657736e-05 0)
(1.1178956 6.0132878e-05 0)
(1.117879 5.6554996e-05 0)
(1.1178634 5.242457e-05 0)
(1.11785 4.97467e-05 0)
(1.1178349 4.5809501e-05 0)
(1.1178262 4.4319909e-05 0)
(1.1178083 4.0575965e-05 0)
(1.0007347 0.011814721 0)
(1.0178472 0.030860924 0)
(1.0462163 0.041434438 0)
(1.0799018 0.045193567 0)
(1.1132664 0.04550235 0)
(1.143782 0.044080308 0)
(1.1708941 0.041439983 0)
(1.1945687 0.037973679 0)
(1.2148582 0.034195731 0)
(1.2319652 0.030536888 0)
(1.2462683 0.027222045 0)
(1.2582339 0.02431392 0)
(1.2683135 0.021797887 0)
(1.2768875 0.019633659 0)
(1.2842554 0.017773826 0)
(1.2906479 0.016169652 0)
(1.296243 0.014775591 0)
(1.3011791 0.013552298 0)
(1.3055645 0.012467864 0)
(1.3094838 0.011497466 0)
(1.3130042 0.010622162 0)
(1.3161792 0.0098275128 0)
(1.3190526 0.0091024103 0)
(1.3216607 0.0084381759 0)
(1.3240343 0.0078279032 0)
(1.3261995 0.0072659742 0)
(1.3281786 0.006747709 0)
(1.3299913 0.0062691174 0)
(1.3316544 0.0058267283 0)
(1.3331829 0.0054174741 0)
(1.3345896 0.0050386129 0)
(1.3358862 0.004687674 0)
(1.3370827 0.0043624192 0)
(1.3381883 0.0040608139 0)
(1.3392108 0.0037810032 0)
(1.3401576 0.0035212941 0)
(1.3410349 0.0032801379 0)
(1.3418486 0.0030561176 0)
(1.3426038 0.0028479347 0)
(1.3433051 0.0026543985 0)
(1.3439569 0.002474417 0)
(1.3445629 0.0023069869 0)
(1.3451267 0.0021511861 0)
(1.3456513 0.0020061665 0)
(1.3461398 0.001871147 0)
(1.3465947 0.0017454085 0)
(1.3470185 0.0016282867 0)
(1.3474135 0.0015191687 0)
(1.3477816 0.0014174879 0)
(1.3481249 0.0013227203 0)
(1.3484449 0.0012343809 0)
(1.3487435 0.0011520208 0)
(1.349022 0.0010752239 0)
(1.3492818 0.0010036049 0)
(1.3495242 0.00093680686 0)
(1.3497505 0.00087449929 0)
(1.3499616 0.00081637511 0)
(1.3501587 0.00076214869 0)
(1.3503427 0.00071155382 0)
(1.3505145 0.0006643428 0)
(1.3506748 0.00062028541 0)
(1.3508245 0.00057916729 0)
(1.3509643 0.00054078962 0)
(1.3510949 0.00050496726 0)
(1.3512167 0.00047152896 0)
(1.3513305 0.00044031533 0)
(1.3514368 0.00041117833 0)
(1.3515361 0.00038397881 0)
(1.3516287 0.00035858762 0)
(1.3517153 0.00033488202 0)
(1.3517962 0.00031274869 0)
(1.3518717 0.00029207987 0)
(1.3519422 0.00027277924 0)
(1.3520081 0.00025475357 0)
(1.3520696 0.00023792327 0)
(1.3521271 0.00022220578 0)
(1.3521807 0.00020753457 0)
(1.3522309 0.00019383215 0)
(1.3522777 0.00018104503 0)
(1.3523214 0.000169095 0)
(1.3523623 0.00015794436 0)
(1.3524005 0.00014751073 0)
(1.3524361 0.00013778634 0)
(1.3524695 0.00012867028 0)
(1.3525004 0.00012019863 0)
(1.3525297 0.00011223802 0)
(1.3525565 0.0001048841 0)
(1.3525822 9.7900421e-05 0)
(1.3526054 9.1534121e-05 0)
(1.3526281 8.5406796e-05 0)
(1.3526479 7.993649e-05 0)
(1.3526684 7.4420406e-05 0)
(1.352685 6.979435e-05 0)
(1.3527037 6.4828833e-05 0)
(1.352717 6.1124184e-05 0)
(1.3527348 5.6441157e-05 0)
(1.3527446 5.3740331e-05 0)
(1.3527629 4.9143001e-05 0)
(1.3527683 4.7702506e-05 0)
(1.3527889 4.2956275e-05 0)
(1.0005903 0.0034629152 0)
(1.0136865 0.009366018 0)
(1.0370283 0.013046804 0)
(1.0674202 0.01456326 0)
(1.1000315 0.014854524 0)
(1.1316428 0.014564991 0)
(1.1610745 0.013888339 0)
(1.1880674 0.012919246 0)
(1.2125205 0.011806507 0)
(1.2343939 0.010696427 0)
(1.2538077 0.0096727419 0)
(1.2710339 0.0087628216 0)
(1.286401 0.0079659731 0)
(1.3002112 0.0072722143 0)
(1.3127102 0.0066688088 0)
(1.3240903 0.0061419259 0)
(1.3345036 0.0056780729 0)
(1.3440716 0.0052653216 0)
(1.3528927 0.0048939356 0)
(1.3610463 0.0045563959 0)
(1.3685975 0.0042470695 0)
(1.3756004 0.0039617754 0)
(1.3821012 0.0036973971 0)
(1.3881402 0.0034515821 0)
(1.3937533 0.0032225184 0)
(1.3989728 0.00300877 0)
(1.403828 0.0028091583 0)
(1.4083456 0.0026226796 0)
(1.4125503 0.0024484501 0)
(1.4164646 0.0022856711 0)
(1.4201094 0.0021336077 0)
(1.423504 0.001991576 0)
(1.4266661 0.0018589358 0)
(1.4296121 0.0017350852 0)
(1.4323573 0.0016194578 0)
(1.4349159 0.001511521 0)
(1.4373007 0.0014107731 0)
(1.4395241 0.0013167426 0)
(1.441597 0.0012289872 0)
(1.4435301 0.0011470917 0)
(1.4453329 0.0010706672 0)
(1.4470143 0.0009993502 0)
(1.4485827 0.00093280023 0)
(1.4500459 0.00087069914 0)
(1.451411 0.0008127497 0)
(1.4526846 0.00075867427 0)
(1.4538731 0.00070821341 0)
(1.4549821 0.00066112455 0)
(1.4560172 0.00061718153 0)
(1.4569831 0.00057617316 0)
(1.4578847 0.0005379019 0)
(1.4587262 0.00050218398 0)
(1.4595117 0.00046884795 0)
(1.460245 0.00043773424 0)
(1.4609295 0.00040869439 0)
(1.4615685 0.00038159027 0)
(1.4621651 0.00035629259 0)
(1.4627221 0.0003326797 0)
(1.4632422 0.00031063836 0)
(1.4637278 0.00029006275 0)
(1.4641812 0.00027085398 0)
(1.4646045 0.0002529207 0)
(1.4649998 0.00023617798 0)
(1.4653689 0.00022054682 0)
(1.4657136 0.00020595358 0)
(1.4660355 0.00019232978 0)
(1.4663361 0.00017961148 0)
(1.4666168 0.00016773772 0)
(1.466879 0.00015665188 0)
(1.4671238 0.00014630014 0)
(1.4673524 0.00013663266 0)
(1.467566 0.00012760287 0)
(1.4677654 0.0001191699 0)
(1.4679516 0.00011129415 0)
(1.4681256 0.00010394174 0)
(1.468288 9.7076977e-05 0)
(1.4684397 9.0670865e-05 0)
(1.4685815 8.4687491e-05 0)
(1.4687138 7.9103093e-05 0)
(1.4688375 7.3881048e-05 0)
(1.4689529 6.9006774e-05 0)
(1.4690608 6.4443903e-05 0)
(1.4691614 6.0193471e-05 0)
(1.4692557 5.6206913e-05 0)
(1.4693433 5.2510535e-05 0)
(1.4694257 4.903605e-05 0)
(1.4695018 4.5828999e-05 0)
(1.4695741 4.2770245e-05 0)
(1.4696402 4.0001874e-05 0)
(1.4697038 3.7317288e-05 0)
(1.4697606 3.4924712e-05 0)
(1.4698173 3.248329e-05 0)
(1.4698655 3.0489343e-05 0)
(1.4699166 2.8310081e-05 0)
(1.4699558 2.6728861e-05 0)
(1.4700045 2.4638776e-05 0)
(1.4700341 2.3488691e-05 0)
(1.4700831 2.1419722e-05 0)
(1.4701001 2.0808421e-05 0)
(1.4701556 1.8648022e-05 0)
(1.0005903 -0.0034629162 0)
(1.0136865 -0.0093660207 0)
(1.0370283 -0.013046807 0)
(1.0674202 -0.014563262 0)
(1.1000315 -0.014854524 0)
(1.1316428 -0.01456499 0)
(1.1610745 -0.013888338 0)
(1.1880674 -0.012919245 0)
(1.2125205 -0.011806507 0)
(1.2343939 -0.010696427 0)
(1.2538077 -0.0096727425 0)
(1.2710339 -0.0087628222 0)
(1.286401 -0.0079659735 0)
(1.3002112 -0.0072722143 0)
(1.3127102 -0.0066688081 0)
(1.3240903 -0.006141925 0)
(1.3345036 -0.0056780721 0)
(1.3440716 -0.0052653208 0)
(1.3528927 -0.0048939348 0)
(1.3610463 -0.0045563956 0)
(1.3685975 -0.0042470697 0)
(1.3756004 -0.003961776 0)
(1.3821012 -0.0036973978 0)
(1.3881402 -0.0034515828 0)
(1.3937533 -0.0032225188 0)
(1.3989728 -0.0030087699 0)
(1.403828 -0.0028091579 0)
(1.4083456 -0.0026226789 0)
(1.4125503 -0.002448449 0)
(1.4164646 -0.0022856699 0)
(1.4201094 -0.0021336068 0)
(1.423504 -0.0019915758 0)
(1.4266661 -0.0018589364 0)
(1.4296121 -0.0017350866 0)
(1.4323573 -0.0016194596 0)
(1.4349159 -0.0015115224 0)
(1.4373007 -0.0014107735 0)
(1.4395241 -0.001316742 0)
(1.441597 -0.0012289856 0)
(1.4435301 -0.0011470896 0)
(1.4453329 -0.0010706654 0)
(1.4470143 -0.00099934932 0)
(1.4485827 -0.00093280046 0)
(1.4500459 -0.00087070045 0)
(1.451411 -0.0008127517 0)
(1.4526846 -0.00075867624 0)
(1.4538731 -0.00070821454 0)
(1.4549822 -0.00066112446 0)
(1.4560172 -0.00061717981 0)
(1.4569831 -0.00057616982 0)
(1.4578847 -0.00053789818 0)
(1.4587262 -0.00050218126 0)
(1.4595117 -0.00046884737 0)
(1.460245 -0.00043773623 0)
(1.4609295 -0.00040869827 0)
(1.4615685 -0.00038159411 0)
(1.4621651 -0.00035629427 0)
(1.4627221 -0.00033267856 0)
(1.4632422 -0.00031063444 0)
(1.4637278 -0.00029005699 0)
(1.4641812 -0.00027084861 0)
(1.4646045 -0.00025291778 0)
(1.4649998 -0.00023617839 0)
(1.4653689 -0.00022055016 0)
(1.4657136 -0.00020595886 0)
(1.4660355 -0.00019233484 0)
(1.4663361 -0.0001796136 0)
(1.4666168 -0.00016773556 0)
(1.466879 -0.00015664546 0)
(1.4671238 -0.00014629116 0)
(1.4673524 -0.00013662471 0)
(1.467566 -0.00012759919 0)
(1.4677654 -0.000119172 0)
(1.4679516 -0.0001113011 0)
(1.4681256 -0.00010395074 0)
(1.468288 -9.7083527e-05 0)
(1.4684397 -9.0670992e-05 0)
(1.4685815 -8.4680398e-05 0)
(1.4687138 -7.9091141e-05 0)
(1.4688375 -7.3869334e-05 0)
(1.4689529 -6.9000709e-05 0)
(1.4690609 -6.444521e-05 0)
(1.4691614 -6.0201561e-05 0)
(1.4692557 -5.6219465e-05 0)
(1.4693433 -5.2518202e-05 0)
(1.4694257 -4.903378e-05 0)
(1.4695019 -4.582256e-05 0)
(1.4695741 -4.2762219e-05 0)
(1.4696402 -3.9981894e-05 0)
(1.4697038 -3.7297577e-05 0)
(1.4697606 -3.4937197e-05 0)
(1.4698174 -3.2520595e-05 0)
(1.4698655 -3.0509753e-05 0)
(1.4699164 -2.8297566e-05 0)
(1.4699558 -2.6707461e-05 0)
(1.4700046 -2.4630456e-05 0)
(1.4700342 -2.3494327e-05 0)
(1.4700831 -2.1430682e-05 0)
(1.4701 -2.0823981e-05 0)
(1.4701556 -1.8663359e-05 0)
(1.0007347 -0.011814722 0)
(1.0178472 -0.030860927 0)
(1.0462163 -0.041434442 0)
(1.0799018 -0.04519357 0)
(1.1132664 -0.045502351 0)
(1.143782 -0.044080307 0)
(1.1708941 -0.041439982 0)
(1.1945687 -0.037973678 0)
(1.2148582 -0.03419573 0)
(1.2319652 -0.030536887 0)
(1.2462683 -0.027222045 0)
(1.2582339 -0.02431392 0)
(1.2683135 -0.021797888 0)
(1.2768875 -0.019633659 0)
(1.2842554 -0.017773826 0)
(1.2906479 -0.016169651 0)
(1.296243 -0.01477559 0)
(1.3011791 -0.013552297 0)
(1.3055645 -0.012467863 0)
(1.3094838 -0.011497466 0)
(1.3130042 -0.010622162 0)
(1.3161792 -0.0098275131 0)
(1.3190526 -0.0091024109 0)
(1.3216607 -0.0084381767 0)
(1.3240343 -0.0078279038 0)
(1.3261995 -0.0072659744 0)
(1.3281786 -0.0067477087 0)
(1.3299913 -0.0062691167 0)
(1.3316544 -0.0058267272 0)
(1.3331829 -0.0054174731 0)
(1.3345896 -0.0050386122 0)
(1.3358862 -0.0046876739 0)
(1.3370827 -0.0043624198 0)
(1.3381882 -0.004060815 0)
(1.3392108 -0.0037810046 0)
(1.3401576 -0.0035212952 0)
(1.3410349 -0.0032801384 0)
(1.3418486 -0.0030561173 0)
(1.3426038 -0.0028479335 0)
(1.3433051 -0.0026543969 0)
(1.3439569 -0.0024744154 0)
(1.3445629 -0.0023069858 0)
(1.3451267 -0.0021511859 0)
(1.3456513 -0.0020061673 0)
(1.3461398 -0.0018711487 0)
(1.3465947 -0.0017454102 0)
(1.3470185 -0.0016282879 0)
(1.3474135 -0.0015191688 0)
(1.3477816 -0.0014174865 0)
(1.3481249 -0.0013227179 0)
(1.3484449 -0.0012343783 0)
(1.3487435 -0.0011520188 0)
(1.349022 -0.0010752232 0)
(1.3492818 -0.0010036059 0)
(1.3495242 -0.00093680911 0)
(1.3497505 -0.00087450173 0)
(1.3499616 -0.00081637671 0)
(1.3501587 -0.00076214846 0)
(1.3503427 -0.00071155158 0)
(1.3505145 -0.00066433911 0)
(1.3506748 -0.00062028139 0)
(1.3508245 -0.00057916434 0)
(1.3509643 -0.00054078872 0)
(1.3510948 -0.00050496887 0)
(1.3512167 -0.00047153244 0)
(1.3513305 -0.00044031911 0)
(1.3514368 -0.00041118059 0)
(1.3515361 -0.00038397824 0)
(1.3516288 -0.00035858398 0)
(1.3517153 -0.00033487636 0)
(1.3517962 -0.00031274313 0)
(1.3518717 -0.00029207652 0)
(1.3519422 -0.00027277929 0)
(1.3520081 -0.00025475707 0)
(1.3520696 -0.00023792822 0)
(1.3521271 -0.00022220978 0)
(1.3521807 -0.00020753564 0)
(1.3522309 -0.00019382936 0)
(1.3522777 -0.00018103924 0)
(1.3523215 -0.00016908822 0)
(1.3523623 -0.00015793924 0)
(1.3524005 -0.00014750932 0)
(1.352436 -0.0001377889 0)
(1.3524695 -0.00012867516 0)
(1.3525004 -0.00012020415 0)
(1.3525297 -0.0001122411 0)
(1.3525565 -0.00010488169 0)
(1.3525822 -9.789265e-05 0)
(1.3526054 -9.152772e-05 0)
(1.3526281 -8.5403315e-05 0)
(1.352648 -7.9935616e-05 0)
(1.3526684 -7.4425672e-05 0)
(1.3526849 -6.9800424e-05 0)
(1.3527036 -6.4830828e-05 0)
(1.352717 -6.1125957e-05 0)
(1.352735 -5.6446494e-05 0)
(1.3527447 -5.3745757e-05 0)
(1.3527627 -4.9144516e-05 0)
(1.3527683 -4.7705476e-05 0)
(1.3527888 -4.2961423e-05 0)
(1.0014244 -0.026824855 0)
(1.0291272 -0.062791352 0)
(1.0654292 -0.077736552 0)
(1.098962 -0.0805972 0)
(1.1253149 -0.078285171 0)
(1.145053 -0.0731539 0)
(1.1594858 -0.066111279 0)
(1.1694287 -0.058162064 0)
(1.1755354 -0.050296754 0)
(1.1785738 -0.043150708 0)
(1.1793571 -0.036972825 0)
(1.1785949 -0.031771632 0)
(1.1768304 -0.02745184 0)
(1.1744518 -0.023886768 0)
(1.1717287 -0.02094762 0)
(1.1688444 -0.01851578 0)
(1.1659195 -0.016488084 0)
(1.1630317 -0.014779502 0)
(1.1602295 -0.013322985 0)
(1.1575415 -0.012067133 0)
(1.1549828 -0.010973001 0)
(1.1525601 -0.010011062 0)
(1.1502747 -0.0091587468 0)
(1.1481246 -0.0083986039 0)
(1.1461059 -0.00771695 0)
(1.1442134 -0.0071028876 0)
(1.1424414 -0.0065475913 0)
(1.1407838 -0.006043795 0)
(1.1392344 -0.0055854261 0)
(1.1377869 -0.0051673451 0)
(1.1364353 -0.0047851577 0)
(1.1351738 -0.0044350769 0)
(1.1339968 -0.0041138173 0)
(1.1328987 -0.003818513 0)
(1.1318746 -0.0035466526 0)
(1.1309195 -0.0032960266 0)
(1.1300289 -0.0030646826 0)
(1.1291985 -0.0028508901 0)
(1.1284242 -0.00265311 0)
(1.1277022 -0.0024699685 0)
(1.1270291 -0.0023002357 0)
(1.1264014 -0.0021428072 0)
(1.1258161 -0.0019966885 0)
(1.1252702 -0.0018609811 0)
(1.1247612 -0.0017348714 0)
(1.1242865 -0.0016176209 0)
(1.1238437 -0.0015085573 0)
(1.1234307 -0.0014070674 0)
(1.1230455 -0.0013125909 0)
(1.1226861 -0.0012246139 0)
(1.1223509 -0.0011426643 0)
(1.1220381 -0.001066308 0)
(1.1217462 -0.00099514537 0)
(1.1214739 -0.00092880818 0)
(1.1212198 -0.000866957 0)
(1.1209827 -0.00080927893 0)
(1.1207614 -0.0007554846 0)
(1.1205548 -0.0007053055 0)
(1.1203621 -0.00065849324 0)
(1.1201821 -0.00061481719 0)
(1.1200142 -0.00057406236 0)
(1.1198574 -0.00053602899 0)
(1.1197111 -0.00050053192 0)
(1.1195745 -0.00046739857 0)
(1.1194469 -0.00043646867 0)
(1.1193278 -0.00040759413 0)
(1.1192167 -0.00038063834 0)
(1.1191129 -0.00035547327 0)
(1.119016 -0.00033198058 0)
(1.1189255 -0.00031004813 0)
(1.118841 -0.00028957094 0)
(1.1187621 -0.00027044919 0)
(1.1186884 -0.00025259257 0)
(1.1186197 -0.00023591388 0)
(1.1185554 -0.00022033769 0)
(1.1184954 -0.0002057889 0)
(1.1184394 -0.000192206 0)
(1.1183871 -0.00017951968 0)
(1.1183383 -0.00016767964 0)
(1.1182927 -0.0001566174 0)
(1.11825 -0.00014629512 0)
(1.1182103 -0.00013664149 0)
(1.1181731 -0.0001276386 0)
(1.1181384 -0.00011920447 0)
(1.1181059 -0.00011135671 0)
(1.1180758 -0.00010398635 0)
(1.1180473 -9.7152997e-05 0)
(1.1180211 -9.0703928e-05 0)
(1.1179963 -8.479636e-05 0)
(1.1179734 -7.9143409e-05 0)
(1.1179516 -7.4019249e-05 0)
(1.1179318 -6.8987223e-05 0)
(1.1179128 -6.4650796e-05 0)
(1.1178956 -6.0162959e-05 0)
(1.117879 -5.6584982e-05 0)
(1.1178635 -5.2427844e-05 0)
(1.11785 -4.9734652e-05 0)
(1.1178349 -4.5801007e-05 0)
(1.1178262 -4.431611e-05 0)
(1.1178083 -4.0574655e-05 0)
(1.0016583 -0.05381943 0)
(1.0359761 -0.10128444 0)
(1.0597199 -0.11073663 0)
(1.0628947 -0.10592202 0)
(1.0515569 -0.096228728 0)
(1.0340529 -0.083934061 0)
(1.0142795 -0.070327063 0)
(0.99360703 -0.056981334 0)
(0.97292577 -0.045107479 0)
(0.9531074 -0.03523675 0)
(0.93479538 -0.02740165 0)
(0.91829011 -0.021387228 0)
(0.90362379 -0.016884499 0)
(0.89068067 -0.013569709 0)
(0.87928175 -0.011147748 0)
(0.86923242 -0.0093736581 0)
(0.86034423 -0.0080569274 0)
(0.85244667 -0.0070571271 0)
(0.84539241 -0.0062752386 0)
(0.83905793 -0.0056438291 0)
(0.83334126 -0.0051180915 0)
(0.82815884 -0.0046686725 0)
(0.82344212 -0.0042764169 0)
(0.81913467 -0.0039287379 0)
(0.81518962 -0.0036172025 0)
(0.81156765 -0.0033359696 0)
(0.80823544 -0.0030808035 0)
(0.8051644 -0.0028484689 0)
(0.80232979 -0.0026363697 0)
(0.79970999 -0.0024423392 0)
(0.79728597 -0.0022645194 0)
(0.79504086 -0.0021012902 0)
(0.79295963 -0.0019512252 0)
(0.7910288 -0.0018130625 0)
(0.78923627 -0.0016856827 0)
(0.7875711 -0.0015680918 0)
(0.78602338 -0.0014594053 0)
(0.78458412 -0.0013588358 0)
(0.78324511 -0.0012656808 0)
(0.78199889 -0.0011793124 0)
(0.7808386 -0.0010991678 0)
(0.77975799 -0.0010247416 0)
(0.77875128 -0.00095557873 0)
(0.77781318 -0.00089126773 0)
(0.77693881 -0.0008314361 0)
(0.77612368 -0.00077574554 0)
(0.77536363 -0.00072388782 0)
(0.77465481 -0.00067558163 0)
(0.77399368 -0.00063056933 0)
(0.77337694 -0.00058861386 0)
(0.77280153 -0.000549497 0)
(0.77226464 -0.00051301795 0)
(0.77176363 -0.00047899162 0)
(0.77129606 -0.00044724716 0)
(0.77085967 -0.00041762723 0)
(0.77045234 -0.00038998642 0)
(0.77007212 -0.00036418964 0)
(0.76971718 -0.00034011168 0)
(0.76938581 -0.00031763651 0)
(0.76907645 -0.00029665565 0)
(0.7687876 -0.00027706764 0)
(0.76851791 -0.00025877819 0)
(0.76826609 -0.00024169985 0)
(0.76803096 -0.00022575081 0)
(0.76781139 -0.00021085559 0)
(0.76760636 -0.00019694466 0)
(0.76741489 -0.00018395366 0)
(0.76723609 -0.00017182224 0)
(0.76706911 -0.00016049423 0)
(0.76691316 -0.00014991572 0)
(0.76676751 -0.00014003626 0)
(0.76663149 -0.00013080765 0)
(0.76650446 -0.00012218657 0)
(0.76638582 -0.00011413133 0)
(0.76627501 -0.00010660643 0)
(0.76617153 -9.9576615e-05 0)
(0.76607487 -9.3012715e-05 0)
(0.7659846 -8.6881812e-05 0)
(0.76590026 -8.1159389e-05 0)
(0.76582151 -7.581227e-05 0)
(0.76574793 -7.0822189e-05 0)
(0.76567923 -6.6154766e-05 0)
(0.76561504 -6.1799592e-05 0)
(0.76555513 -5.77202e-05 0)
(0.76549912 -5.3922283e-05 0)
(0.76544686 -5.0353747e-05 0)
(0.76539797 -4.7041456e-05 0)
(0.76535241 -4.3933074e-05 0)
(0.76530971 -4.1073432e-05 0)
(0.76526994 -3.8331853e-05 0)
(0.76523269 -3.5828841e-05 0)
(0.76519806 -3.344075e-05 0)
(0.76516561 -3.1324927e-05 0)
(0.76513517 -2.9200788e-05 0)
(0.7651071 -2.7377999e-05 0)
(0.76507998 -2.5518985e-05 0)
(0.76505667 -2.4062862e-05 0)
(0.76503059 -2.254805e-05 0)
(0.76501445 -2.159404e-05 0)
(0.76498346 -2.0992678e-05 0)
(0.91890839 -0.035821913 0)
(0.86271384 -0.062195638 0)
(0.7870597 -0.06251009 0)
(0.69536033 -0.054550395 0)
(0.61089745 -0.044531651 0)
(0.54411592 -0.034015972 0)
(0.49343012 -0.02418754 0)
(0.45479413 -0.01614423 0)
(0.42544582 -0.010265785 0)
(0.40347313 -0.006304145 0)
(0.38715766 -0.0037976295 0)
(0.3749622 -0.0023103384 0)
(0.36566192 -0.0014930152 0)
(0.35836272 -0.0010851183 0)
(0.35244268 -0.00090607211 0)
(0.34748201 -0.00084105138 0)
(0.34320348 -0.00082372388 0)
(0.33942726 -0.00081931041 0)
(0.33603793 -0.00081185223 0)
(0.33296114 -0.00079580154 0)
(0.33014778 -0.00077081172 0)
(0.32756384 -0.00073870958 0)
(0.3251842 -0.0007018892 0)
(0.32298902 -0.00066256541 0)
(0.32096172 -0.0006224993 0)
(0.31908785 -0.00058295725 0)
(0.31735449 -0.00054477153 0)
(0.31574995 -0.00050843432 0)
(0.3142636 -0.00047419195 0)
(0.31288574 -0.00044212497 0)
(0.31160755 -0.0004122097 0)
(0.31042101 -0.00038436166 0)
(0.30931883 -0.00035846473 0)
(0.30829438 -0.00033438986 0)
(0.30734165 -0.00031200617 0)
(0.30645515 -0.00029118721 0)
(0.30562991 -0.00027181408 0)
(0.30486136 -0.00025377687 0)
(0.30414535 -0.00023697475 0)
(0.30347806 -0.00022131543 0)
(0.30285601 -0.00020671474 0)
(0.30227596 -0.00019309587 0)
(0.30173496 -0.00018038855 0)
(0.30123029 -0.0001685284 0)
(0.30075942 -0.00015745634 0)
(0.30032002 -0.00014711801 0)
(0.29990993 -0.00013746324 0)
(0.29952715 -0.00012844572 0)
(0.29916983 -0.00012002241 0)
(0.29883624 -0.00011215314 0)
(0.29852478 -0.00010480066 0)
(0.29823396 -9.7930462e-05 0)
(0.29796241 -9.151046e-05 0)
(0.29770882 -8.5510899e-05 0)
(0.29747201 -7.9904269e-05 0)
(0.29725085 -7.4664916e-05 0)
(0.29704429 -6.9768765e-05 0)
(0.29685138 -6.5193444e-05 0)
(0.2966712 -6.0918047e-05 0)
(0.29650291 -5.6922722e-05 0)
(0.29634572 -5.3188825e-05 0)
(0.2961989 -4.9699087e-05 0)
(0.29606176 -4.6437407e-05 0)
(0.29593366 -4.3388712e-05 0)
(0.29581401 -4.0539312e-05 0)
(0.29570224 -3.7876621e-05 0)
(0.29559784 -3.5388764e-05 0)
(0.29550032 -3.3064514e-05 0)
(0.29540922 -3.0893257e-05 0)
(0.29532413 -2.8864567e-05 0)
(0.29524464 -2.6968778e-05 0)
(0.29517039 -2.519674e-05 0)
(0.29510103 -2.3540316e-05 0)
(0.29503625 -2.1991766e-05 0)
(0.29497573 -2.0544789e-05 0)
(0.2949192 -1.9192846e-05 0)
(0.29486639 -1.7930529e-05 0)
(0.29481705 -1.6751354e-05 0)
(0.29477097 -1.5650695e-05 0)
(0.29472792 -1.4621692e-05 0)
(0.29468771 -1.366113e-05 0)
(0.29465016 -1.2761912e-05 0)
(0.29461507 -1.1922738e-05 0)
(0.29458231 -1.1136029e-05 0)
(0.29455168 -1.0403889e-05 0)
(0.2945231 -9.7152224e-06 0)
(0.29449637 -9.0779699e-06 0)
(0.29447141 -8.4806567e-06 0)
(0.29444807 -7.9298675e-06 0)
(0.29442633 -7.3962504e-06 0)
(0.294406 -6.9139953e-06 0)
(0.29438699 -6.4638424e-06 0)
(0.2943692 -6.0595658e-06 0)
(0.2943526 -5.6506225e-06 0)
(0.29433717 -5.2918129e-06 0)
(0.29432251 -4.9730065e-06 0)
(0.29430919 -4.687715e-06 0)
(0.29429568 -4.5350979e-06 0)
(0.29428501 -4.4039751e-06 0)
(0.29426874 -5.0572799e-06 0)
)
;

boundaryField
{
    top
    {
        type            fixedValue;
        value           uniform (0 0 0);
    }
    inlet
    {
        type            fixedValue;
        value           uniform (1 0 0);
    }
    outlet
    {
        type            zeroGradient;
    }
    bottom
    {
        type            fixedValue;
        value           uniform (0 0 0);
    }
    back
    {
        type            empty;
    }
    front
    {
        type            empty;
    }
}


// ************************************************************************* //
