/*--------------------------------*- C++ -*----------------------------------*\
| =========                 |                                                 |
| \\      /  F ield         | OpenFOAM: The Open Source CFD Toolbox           |
|  \\    /   O peration     | Version:  2112                                  |
|   \\  /    A nd           | Website:  www.openfoam.com                      |
|    \\/     M anipulation  |                                                 |
\*---------------------------------------------------------------------------*/
FoamFile
{
    version     2.0;
    format      ascii;
    arch        "LSB;label=32;scalar=64";
    class       volScalarField;
    location    "18";
    object      p;
}
// * * * * * * * * * * * * * * * * * * * * * * * * * * * * * * * * * * * * * //

dimensions      [0 2 -2 0 0 0 0];

internalField   nonuniform List<scalar> 
1000
(
1.5269091
1.5105283
1.4943909
1.478437
1.4626093
1.4468685
1.4311899
1.4155593
1.3999681
1.38441
1.3688797
1.3533728
1.3378858
1.3224161
1.306962
1.2915218
1.2760943
1.2606786
1.2452736
1.2298786
1.2144927
1.1991154
1.183746
1.168384
1.1530289
1.1376801
1.1223374
1.1070004
1.0916685
1.0763417
1.0610194
1.0457014
1.0303876
1.0150775
0.99977101
0.9844679
0.96916795
0.95387097
0.93857678
0.92328522
0.90799613
0.89270937
0.87742479
0.86214226
0.84686166
0.83158288
0.81630581
0.80103034
0.78575638
0.77048385
0.75521264
0.73994269
0.72467393
0.70940627
0.69413965
0.67887401
0.66360928
0.64834543
0.63308238
0.61782009
0.60255852
0.58729762
0.57203734
0.55677766
0.54151853
0.52625992
0.5110018
0.49574413
0.48048689
0.46523005
0.44997359
0.43471748
0.41946169
0.40420622
0.38895103
0.37369611
0.35844144
0.34318701
0.3279328
0.31267879
0.29742498
0.28217134
0.26691787
0.25166456
0.23641139
0.22115836
0.20590545
0.19065267
0.17539999
0.16014741
0.14489493
0.12964254
0.11439023
0.099137992
0.083885827
0.068633728
0.053381691
0.038129708
0.022877783
0.0076258923
1.5266837
1.510272
1.4942945
1.4784823
1.4627066
1.4469586
1.4312586
1.4156134
1.4000155
1.3844535
1.3689191
1.3534076
1.3379162
1.3224429
1.3069858
1.2915433
1.276114
1.2606966
1.2452902
1.2298938
1.2145068
1.1991284
1.1837581
1.1683952
1.1530393
1.1376899
1.1223466
1.1070089
1.0916765
1.0763491
1.0610264
1.045708
1.0303937
1.0150832
0.9997764
0.98447295
0.96917269
0.95387541
0.93858095
0.92328913
0.9079998
0.89271281
0.87742801
0.86214528
0.8468645
0.83158554
0.8163083
0.80103268
0.78575857
0.7704859
0.75521457
0.7399445
0.72467562
0.70940785
0.69414113
0.67887539
0.66361058
0.64834664
0.63308351
0.61782115
0.60255951
0.58729854
0.57203821
0.55677847
0.54151929
0.52626063
0.51100246
0.49574475
0.48048747
0.46523059
0.44997409
0.43471794
0.41946213
0.40420662
0.3889514
0.37369646
0.35844177
0.34318731
0.32793308
0.31267905
0.29742522
0.28217156
0.26691808
0.25166475
0.23641157
0.22115852
0.20590561
0.19065281
0.17540012
0.16014753
0.14489504
0.12964264
0.11439032
0.099138078
0.083885907
0.0686338
0.053381758
0.038129765
0.022877836
0.0076259187
1.5262759
1.5097527
1.4939905
1.4784259
1.4627785
1.4470491
1.4313237
1.4156555
1.4000487
1.384486
1.3689514
1.3534374
1.3379421
1.322465
1.307005
1.2915604
1.2761295
1.2607107
1.245303
1.2299055
1.2145175
1.1991383
1.1837672
1.1684036
1.1530471
1.1376972
1.1223533
1.1070151
1.0916823
1.0763545
1.0610314
1.0457127
1.0303981
1.0150874
0.99978027
0.98447657
0.96917607
0.95387858
0.93858392
0.92329192
0.90800241
0.89271525
0.8774303
0.86214743
0.84686651
0.83158743
0.81631007
0.80103434
0.78576013
0.77048736
0.75521594
0.73994578
0.72467682
0.70940897
0.69414218
0.67887638
0.66361151
0.64834751
0.63308432
0.61782191
0.60256022
0.58729921
0.57203883
0.55677905
0.54151983
0.52626114
0.51100293
0.49574519
0.48048788
0.46523097
0.44997445
0.43471828
0.41946244
0.40420691
0.38895168
0.37369671
0.358442
0.34318753
0.32793328
0.31267924
0.29742539
0.28217173
0.26691823
0.25166489
0.2364117
0.22115865
0.20590572
0.19065291
0.17540021
0.16014762
0.14489512
0.12964272
0.11439039
0.099138143
0.083885966
0.068633855
0.053381806
0.038129807
0.022877863
0.0076259358
1.5258688
1.5091922
1.493611
1.4783059
1.4628198
1.4471321
1.4313882
1.415696
1.4000796
1.3845175
1.3689849
1.3534698
1.337971
1.3224899
1.3070266
1.2915795
1.2761467
1.2607263
1.2453172
1.2299184
1.2145292
1.199149
1.183777
1.1684127
1.1530555
1.1377049
1.1223605
1.1070219
1.0916886
1.0763604
1.0610369
1.0457178
1.0304028
1.0150918
0.99978441
0.98448045
0.96917971
0.95388199
0.93858712
0.92329491
0.90800522
0.89271789
0.87743278
0.86214976
0.8468687
0.83158948
0.816312
0.80103615
0.78576183
0.77048895
0.75521743
0.73994718
0.72467813
0.70941021
0.69414334
0.67887747
0.66361253
0.64834846
0.63308522
0.61782275
0.60256101
0.58729995
0.57203953
0.5567797
0.54152044
0.52626171
0.51100347
0.49574569
0.48048835
0.46523141
0.44997486
0.43471866
0.4194628
0.40420725
0.38895199
0.373697
0.35844227
0.34318779
0.32793352
0.31267946
0.2974256
0.28217192
0.26691841
0.25166506
0.23641186
0.22115879
0.20590585
0.19065304
0.17540033
0.16014773
0.14489522
0.12964281
0.11439048
0.099138223
0.083886039
0.068633924
0.053381864
0.038129863
0.0228779
0.0076259742
1.5256229
1.5088411
1.4933582
1.4782133
1.4628365
1.4471827
1.4314299
1.4157223
1.4000993
1.3845379
1.3690072
1.3534921
1.3379913
1.3225076
1.3070421
1.2915935
1.2761594
1.2607379
1.2453278
1.2299281
1.2145381
1.1991571
1.1837845
1.1684197
1.153062
1.1377109
1.1223661
1.107027
1.0916934
1.0763649
1.0610411
1.0457217
1.0304065
1.0150952
0.99978764
0.98448347
0.96918254
0.95388465
0.93858962
0.92329726
0.90800743
0.89271996
0.87743472
0.86215158
0.84687041
0.83159109
0.81631351
0.80103757
0.78576316
0.77049021
0.75521861
0.73994829
0.72467917
0.70941119
0.69414426
0.67887833
0.66361334
0.64834922
0.63308594
0.61782342
0.60256164
0.58730054
0.57204008
0.55678022
0.54152093
0.52626216
0.51100389
0.49574609
0.48048872
0.46523176
0.44997519
0.43471897
0.41946308
0.40420752
0.38895224
0.37369724
0.35844249
0.34318799
0.32793371
0.31267964
0.29742577
0.28217208
0.26691856
0.25166519
0.23641198
0.22115891
0.20590596
0.19065314
0.17540043
0.16014782
0.14489531
0.12964289
0.11439055
0.09913829
0.083886099
0.068633982
0.053381913
0.038129912
0.022877935
0.007626012
1.5256229
1.5088411
1.4933582
1.4782133
1.4628365
1.4471827
1.4314299
1.4157223
1.4000993
1.3845379
1.3690072
1.3534921
1.3379913
1.3225076
1.3070421
1.2915935
1.2761594
1.2607379
1.2453278
1.2299281
1.2145381
1.1991571
1.1837845
1.1684197
1.153062
1.1377109
1.1223661
1.107027
1.0916934
1.0763649
1.0610411
1.0457217
1.0304065
1.0150952
0.99978764
0.98448347
0.96918255
0.95388465
0.93858962
0.92329726
0.90800743
0.89271996
0.87743472
0.86215158
0.84687041
0.83159109
0.81631351
0.80103757
0.78576316
0.77049021
0.75521861
0.73994829
0.72467917
0.70941119
0.69414426
0.67887833
0.66361334
0.64834922
0.63308594
0.61782342
0.60256164
0.58730054
0.57204008
0.55678022
0.54152093
0.52626216
0.51100389
0.49574609
0.48048872
0.46523176
0.44997519
0.43471897
0.41946308
0.40420752
0.38895224
0.37369724
0.35844249
0.34318799
0.32793371
0.31267964
0.29742577
0.28217208
0.26691856
0.25166519
0.23641198
0.22115891
0.20590596
0.19065314
0.17540043
0.16014782
0.14489531
0.12964289
0.11439055
0.099138291
0.083886099
0.068633982
0.053381913
0.038129912
0.022877936
0.0076260127
1.5258688
1.5091922
1.4936111
1.4783059
1.4628198
1.4471321
1.4313882
1.415696
1.4000796
1.3845175
1.3689849
1.3534698
1.337971
1.3224899
1.3070266
1.2915795
1.2761467
1.2607263
1.2453172
1.2299184
1.2145292
1.199149
1.1837771
1.1684127
1.1530555
1.1377049
1.1223605
1.1070219
1.0916886
1.0763604
1.0610369
1.0457178
1.0304028
1.0150918
0.99978441
0.98448045
0.96917971
0.95388199
0.93858712
0.92329492
0.90800522
0.89271789
0.87743278
0.86214976
0.8468687
0.83158948
0.816312
0.80103615
0.78576183
0.77048895
0.75521743
0.73994718
0.72467813
0.70941021
0.69414334
0.67887747
0.66361253
0.64834846
0.63308522
0.61782275
0.60256101
0.58729995
0.57203953
0.5567797
0.54152044
0.52626171
0.51100347
0.49574569
0.48048835
0.46523141
0.44997486
0.43471866
0.4194628
0.40420725
0.38895199
0.373697
0.35844227
0.34318778
0.32793352
0.31267946
0.2974256
0.28217192
0.26691841
0.25166506
0.23641186
0.22115879
0.20590585
0.19065304
0.17540033
0.16014773
0.14489522
0.12964281
0.11439048
0.099138224
0.083886039
0.068633925
0.053381865
0.038129864
0.022877902
0.0076259758
1.5262759
1.5097527
1.4939905
1.4784259
1.4627784
1.447049
1.4313237
1.4156554
1.4000487
1.384486
1.3689514
1.3534374
1.3379421
1.322465
1.307005
1.2915604
1.2761295
1.2607107
1.245303
1.2299055
1.2145175
1.1991383
1.1837672
1.1684036
1.1530471
1.1376972
1.1223533
1.1070152
1.0916823
1.0763545
1.0610314
1.0457127
1.0303981
1.0150874
0.99978027
0.98447657
0.96917607
0.95387858
0.93858392
0.92329192
0.90800241
0.89271525
0.8774303
0.86214743
0.84686651
0.83158743
0.81631007
0.80103434
0.78576013
0.77048736
0.75521594
0.73994578
0.72467682
0.70940897
0.69414218
0.67887638
0.66361151
0.64834751
0.63308432
0.61782191
0.60256022
0.58729921
0.57203883
0.55677905
0.54151983
0.52626114
0.51100293
0.49574519
0.48048788
0.46523097
0.44997445
0.43471828
0.41946244
0.40420691
0.38895168
0.37369671
0.358442
0.34318753
0.32793328
0.31267924
0.29742539
0.28217173
0.26691823
0.25166489
0.2364117
0.22115865
0.20590572
0.19065291
0.17540022
0.16014762
0.14489512
0.12964272
0.11439039
0.099138144
0.083885967
0.068633856
0.053381806
0.038129808
0.022877865
0.0076259373
1.5266837
1.510272
1.4942945
1.4784823
1.4627066
1.4469585
1.4312586
1.4156134
1.4000154
1.3844534
1.3689191
1.3534076
1.3379162
1.3224429
1.3069858
1.2915433
1.276114
1.2606966
1.2452902
1.2298938
1.2145068
1.1991284
1.1837581
1.1683952
1.1530393
1.1376899
1.1223466
1.1070089
1.0916765
1.0763491
1.0610264
1.045708
1.0303937
1.0150832
0.9997764
0.98447295
0.96917269
0.95387541
0.93858095
0.92328913
0.9079998
0.89271281
0.87742801
0.86214528
0.8468645
0.83158554
0.8163083
0.80103268
0.78575857
0.7704859
0.75521457
0.7399445
0.72467561
0.70940785
0.69414113
0.67887539
0.66361058
0.64834664
0.63308351
0.61782115
0.60255951
0.58729854
0.57203821
0.55677847
0.54151929
0.52626063
0.51100246
0.49574475
0.48048747
0.46523059
0.44997409
0.43471794
0.41946213
0.40420662
0.3889514
0.37369646
0.35844177
0.34318731
0.32793308
0.31267905
0.29742522
0.28217156
0.26691808
0.25166475
0.23641157
0.22115852
0.20590561
0.19065281
0.17540012
0.16014753
0.14489504
0.12964264
0.11439032
0.099138079
0.083885908
0.068633801
0.053381758
0.038129766
0.022877837
0.0076259196
1.5269091
1.5105282
1.4943909
1.478437
1.4626093
1.4468685
1.4311898
1.4155593
1.3999681
1.38441
1.3688797
1.3533728
1.3378858
1.3224161
1.306962
1.2915218
1.2760944
1.2606786
1.2452737
1.2298786
1.2144928
1.1991154
1.183746
1.168384
1.1530289
1.1376802
1.1223375
1.1070004
1.0916686
1.0763417
1.0610194
1.0457014
1.0303876
1.0150775
0.99977102
0.9844679
0.96916795
0.95387097
0.93857678
0.92328522
0.90799613
0.89270937
0.87742479
0.86214226
0.84686166
0.83158288
0.81630581
0.80103034
0.78575638
0.77048384
0.75521264
0.73994269
0.72467393
0.70940626
0.69413965
0.678874
0.66360928
0.64834542
0.63308238
0.61782009
0.60255852
0.58729762
0.57203734
0.55677766
0.54151853
0.52625992
0.5110018
0.49574413
0.48048689
0.46523005
0.44997359
0.43471748
0.41946169
0.40420622
0.38895103
0.37369611
0.35844144
0.34318701
0.3279328
0.31267879
0.29742498
0.28217134
0.26691787
0.25166456
0.23641139
0.22115836
0.20590545
0.19065267
0.17539999
0.16014741
0.14489493
0.12964254
0.11439023
0.099137993
0.083885828
0.068633729
0.053381691
0.038129708
0.022877784
0.0076258928
)
;

boundaryField
{
    top
    {
        type            zeroGradient;
    }
    inlet
    {
        type            fixedValue;
        value           uniform 1.5352;
    }
    outlet
    {
        type            fixedValue;
        value           uniform 0;
    }
    bottom
    {
        type            zeroGradient;
    }
    back
    {
        type            empty;
    }
    front
    {
        type            empty;
    }
}


// ************************************************************************* //
