/*--------------------------------*- C++ -*----------------------------------*\
| =========                 |                                                 |
| \\      /  F ield         | OpenFOAM: The Open Source CFD Toolbox           |
|  \\    /   O peration     | Version:  2112                                  |
|   \\  /    A nd           | Website:  www.openfoam.com                      |
|    \\/     M anipulation  |                                                 |
\*---------------------------------------------------------------------------*/
FoamFile
{
    version     2.0;
    format      ascii;
    arch        "LSB;label=32;scalar=64";
    class       surfaceScalarField;
    location    "18";
    object      phi;
}
// * * * * * * * * * * * * * * * * * * * * * * * * * * * * * * * * * * * * * //

dimensions      [0 3 -1 0 0 0 0];

oriented        oriented;

internalField   nonuniform List<scalar> 
1890
(
0.0033376169
1.5101054e-06
0.0033324084
5.2094916e-06
0.0033258159
6.5928903e-06
0.0033197036
6.1120771e-06
0.0033147466
4.9566815e-06
0.0033108202
3.9259793e-06
0.0033075946
3.2253461e-06
0.0033048264
2.7678381e-06
0.003302396
2.4301644e-06
0.0033002509
2.144801e-06
0.0032983556
1.8950736e-06
0.0032966722
1.6831782e-06
0.0032951627
1.5092847e-06
0.0032937952
1.3673775e-06
0.0032925461
1.248988e-06
0.0032913989
1.1470617e-06
0.0032903415
1.0572143e-06
0.0032893644
9.7707551e-07
0.0032884591
9.0521316e-07
0.0032876185
8.4048099e-07
0.0032868366
7.8184125e-07
0.0032861081
7.2839986e-07
0.0032854286
6.7944596e-07
0.0032847941
6.3443173e-07
0.0032842012
5.9292553e-07
0.0032836465
5.5456663e-07
0.0032831275
5.1904412e-07
0.0032826413
4.8608419e-07
0.0032821859
4.5544935e-07
0.0032817589
4.269307e-07
0.0032813585
4.0034719e-07
0.003280983
3.7553691e-07
0.0032806306
3.52358e-07
0.0032802999
3.3068141e-07
0.0032799895
3.1039365e-07
0.0032796981
2.9139018e-07
0.0032794245
2.7357905e-07
0.0032791676
2.5687445e-07
0.0032789264
2.4120093e-07
0.0032786999
2.26487e-07
0.0032784872
2.1266997e-07
0.0032782875
1.9968958e-07
0.0032781
1.8749319e-07
0.003277924
1.7602944e-07
0.0032777587
1.6525368e-07
0.0032776036
1.5512171e-07
0.003277458
1.455954e-07
0.0032773213
1.3663635e-07
0.0032771931
1.2821171e-07
0.0032770728
1.2028793e-07
0.00327696
1.1283661e-07
0.0032768542
1.0582817e-07
0.0032767549
9.9237913e-08
0.0032766619
9.3039721e-08
0.0032765747
8.7212078e-08
0.0032764929
8.1731755e-08
0.0032764164
7.6579946e-08
0.0032763446
7.1735991e-08
0.0032762774
6.7183471e-08
0.0032762145
6.29039e-08
0.0032761557
5.8882904e-08
0.0032761005
5.5103967e-08
0.003276049
5.1554542e-08
0.0032760008
4.8219776e-08
0.0032759557
4.508869e-08
0.0032759135
4.2147956e-08
0.0032758742
3.9388013e-08
0.0032758374
3.6796807e-08
0.003275803
3.4365997e-08
0.0032757709
3.2084704e-08
0.003275741
2.9945717e-08
0.003275713
2.7939112e-08
0.003275687
2.605867e-08
0.0032756627
2.4295341e-08
0.00327564
2.2643872e-08
0.0032756189
2.1095862e-08
0.0032755993
1.9646982e-08
0.003275581
1.8289336e-08
0.003275564
1.7019637e-08
0.0032755482
1.5830148e-08
0.0032755335
1.4718791e-08
0.0032755198
1.3677609e-08
0.0032755071
1.2706212e-08
0.0032754953
1.1795633e-08
0.0032754843
1.0947946e-08
0.0032754742
1.0152043e-08
0.0032754648
9.4139316e-09
0.0032754561
8.7183475e-09
0.003275448
8.0775638e-09
0.0032754405
7.4691837e-09
0.0032754336
6.9154048e-09
0.0032754272
6.3823423e-09
0.0032754213
5.906851e-09
0.0032754159
5.4388145e-09
0.0032754108
5.0332774e-09
0.0032754062
4.6245453e-09
0.0032754019
4.2805615e-09
0.003275398
3.9492851e-09
0.0032753943
3.6812677e-09
3.68515e-09
0.0084303825
1.6169706e-06
0.0084284185
7.1747866e-06
0.0084247169
1.0295076e-05
0.0084202716
1.0557222e-05
0.0084158543
9.3736386e-06
0.0084117065
8.0734488e-06
0.0084078143
7.1172608e-06
0.0084041377
6.4442322e-06
0.008400677
5.8906393e-06
0.0083974525
5.3690674e-06
0.0083944741
4.8732361e-06
0.0083917326
4.4244987e-06
0.0083892073
4.0344945e-06
0.0083868754
3.6991103e-06
0.0083847173
3.406992e-06
0.0083827165
3.1476827e-06
0.0083808592
2.9144861e-06
0.0083791326
2.7036025e-06
0.0083775253
2.5124485e-06
0.008376027
2.3387073e-06
0.0083746286
2.1801636e-06
0.0083733221
2.0348509e-06
0.0083721003
1.9011475e-06
0.008370957
1.7777546e-06
0.0083698862
1.6636069e-06
0.008368883
1.5578002e-06
0.0083679424
1.459544e-06
0.0083670603
1.368146e-06
0.0083662328
1.2829973e-06
0.0083654561
1.203566e-06
0.008364727
1.1293807e-06
0.0083640425
1.0600256e-06
0.0083633997
9.9512616e-07
0.0083627961
9.3434893e-07
0.008362229
8.7739041e-07
0.0083616964
8.2397877e-07
0.0083611961
7.7386448e-07
0.0083607262
7.2682317e-07
0.0083602847
6.8264689e-07
0.0083598701
6.4114796e-07
0.0083594806
6.0215088e-07
0.0083591148
5.6549705e-07
0.0083587712
5.3103695e-07
0.0083584486
4.9863517e-07
0.0083581457
4.6816308e-07
0.0083578613
4.3950431e-07
0.0083575943
4.1254743e-07
0.0083573438
3.8719159e-07
0.0083571086
3.6333956e-07
0.008356888
3.409036e-07
0.0083566811
3.1979847e-07
0.0083564869
2.9994737e-07
0.0083563049
2.8127516e-07
0.0083561342
2.637145e-07
0.0083559742
2.4719901e-07
0.0083558243
2.3166935e-07
0.0083556838
2.1706664e-07
0.0083555522
2.0333863e-07
0.008355429
1.9043304e-07
0.0083553136
1.7830369e-07
0.0083552055
1.6690401e-07
0.0083551045
1.5619327e-07
0.0083550099
1.4613001e-07
0.0083549214
1.3667815e-07
0.0083548387
1.2780066e-07
0.0083547614
1.194657e-07
0.0083546891
1.1164024e-07
0.0083546216
1.0429603e-07
0.0083545586
9.7403534e-08
0.0083544997
9.0937785e-08
0.0083544448
8.4872453e-08
0.0083543936
7.9185297e-08
0.0083543458
7.3852823e-08
0.0083543012
6.8855246e-08
0.0083542597
6.417182e-08
0.008354221
5.9784627e-08
0.008354185
5.5675533e-08
0.0083541515
5.1828074e-08
0.0083541202
4.8227013e-08
0.0083540912
4.4856406e-08
0.0083540642
4.1704394e-08
0.0083540392
3.8754438e-08
0.0083540159
3.5999402e-08
0.0083539942
3.3419904e-08
0.0083539742
3.1015893e-08
0.0083539556
2.8761587e-08
0.0083539383
2.6668735e-08
0.0083539223
2.4698476e-08
0.0083539075
2.2882732e-08
0.0083538938
2.1158054e-08
0.0083538812
1.9591993e-08
0.0083538695
1.8075609e-08
0.0083538586
1.6739757e-08
0.0083538487
1.5392394e-08
0.0083538394
1.4279616e-08
0.008353831
1.3058025e-08
0.0083538231
1.2191876e-08
0.008353816
1.1058211e-08
0.0083538091
1.0553027e-08
9.4267197e-09
0.012079406
1.1750591e-06
0.012080616
5.966232e-06
0.012081706
9.205057e-06
0.012082261
1.0002092e-05
0.01208239
9.244612e-06
0.012082248
8.2144848e-06
0.012081895
7.4706885e-06
0.012081362
6.976255e-06
0.01208069
6.5625894e-06
0.012079925
6.1339144e-06
0.012079107
5.6911436e-06
0.012078264
5.267956e-06
0.012077412
4.8860303e-06
0.012076564
4.547007e-06
0.012075728
4.2423879e-06
0.012074912
3.9636773e-06
0.012074121
3.7060692e-06
0.012073357
3.4674906e-06
0.012072622
3.2466996e-06
0.012071919
3.0423031e-06
0.012071246
2.852703e-06
0.012070605
2.6763642e-06
0.012069994
2.5119903e-06
0.012069413
2.3585284e-06
0.012068861
2.215097e-06
0.012068338
2.0809177e-06
0.012067842
1.9552857e-06
0.012067373
1.8375591e-06
0.012066929
1.7271592e-06
0.012066509
1.6235631e-06
0.012066112
1.5262995e-06
0.012065737
1.4349377e-06
0.012065383
1.3490853e-06
0.012065049
1.26838e-06
0.012064734
1.1924905e-06
0.012064437
1.1211093e-06
0.012064157
1.0539541e-06
0.012063893
9.907618e-07
0.012063644
9.3129007e-07
0.01206341
8.7531173e-07
0.012063189
8.2261737e-07
0.012062982
7.7300961e-07
0.012062786
7.2630632e-07
0.012062603
6.823351e-07
0.01206243
6.409368e-07
0.012062268
6.0196014e-07
0.012062115
5.6526543e-07
0.012061971
5.3071938e-07
0.012061836
4.9819902e-07
0.01206171
4.6758653e-07
0.012061591
4.3877333e-07
0.012061479
4.1165496e-07
0.012061374
3.8613539e-07
0.012061276
3.6212187e-07
0.012061183
3.3952927e-07
0.012061097
3.1827506e-07
0.012061016
2.9828374e-07
0.012060939
2.7948184e-07
0.012060868
2.6180232e-07
0.012060801
2.4517963e-07
0.012060739
2.295543e-07
0.01206068
2.1486786e-07
0.012060625
2.0106746e-07
0.012060574
1.8810088e-07
0.012060525
1.7592123e-07
0.01206048
1.6448187e-07
0.012060438
1.5374114e-07
0.012060399
1.4365732e-07
0.012060362
1.3419349e-07
0.012060328
1.2531231e-07
0.012060296
1.1698108e-07
0.012060266
1.0916621e-07
0.012060238
1.0183896e-07
0.012060212
9.4968972e-08
0.012060187
8.8531181e-08
0.012060165
8.2497784e-08
0.012060143
7.684746e-08
0.012060124
7.1554167e-08
0.012060105
6.6600651e-08
0.012060088
6.1961328e-08
0.012060072
5.7624131e-08
0.012060057
5.3561873e-08
0.012060044
4.9769894e-08
0.012060031
4.6215627e-08
0.012060019
4.2906492e-08
0.012060008
3.9797705e-08
0.012059998
3.6917699e-08
0.012059988
3.4196559e-08
0.012059979
3.1701095e-08
0.012059971
2.9312062e-08
0.012059964
2.7167597e-08
0.012059957
2.5053424e-08
0.01205995
2.324115e-08
0.012059944
2.133658e-08
0.012059939
1.9862107e-08
0.012059934
1.8089515e-08
0.012059929
1.7002208e-08
0.012059925
1.5268965e-08
0.01205992
1.4675108e-08
1.2939257e-08
0.014423905
6.002342e-07
0.014426609
3.2627807e-06
0.014430586
5.2279666e-06
0.014434728
5.8595974e-06
0.01443845
5.5227155e-06
0.014441704
4.959942e-06
0.01444461
4.564584e-06
0.014447263
4.3232584e-06
0.014449697
4.1283837e-06
0.014451918
3.9124121e-06
0.014453934
3.6748426e-06
0.014455762
3.439692e-06
0.014457425
3.2234929e-06
0.014458943
3.0289796e-06
0.014460333
2.851548e-06
0.014461611
2.6863093e-06
0.014462786
2.5308001e-06
0.014463869
2.3843475e-06
0.014464869
2.2467457e-06
0.014465794
2.1175752e-06
0.01446665
1.9961861e-06
0.014467444
1.881903e-06
0.014468182
1.7741579e-06
0.014468868
1.6725058e-06
0.014469507
1.576576e-06
0.014470102
1.4860366e-06
0.014470656
1.400572e-06
0.014471174
1.3198887e-06
0.014471657
1.243709e-06
0.014472109
1.1717812e-06
0.014472531
1.1038659e-06
0.014472927
1.0397445e-06
0.014473296
9.7920607e-07
0.014473643
9.2205708e-07
0.014473967
8.6810925e-07
0.014474271
8.171909e-07
0.014474556
7.6913368e-07
0.014474823
7.2378481e-07
0.014475073
6.8099334e-07
0.014475308
6.4062317e-07
0.014475528
6.0253872e-07
0.014475734
5.6661852e-07
0.014475928
5.3274065e-07
0.014476109
5.0079683e-07
0.01447628
4.7067738e-07
0.014476439
4.4228566e-07
0.014476589
4.1552291e-07
0.014476729
3.9030302e-07
0.014476861
3.665371e-07
0.014476985
3.4414833e-07
0.0144771
3.2305661e-07
0.014477209
3.0319363e-07
0.01447731
2.8448722e-07
0.014477406
2.6687655e-07
0.014477495
2.5029658e-07
0.014477578
2.3469332e-07
0.014477657
2.2000816e-07
0.01447773
2.0619316e-07
0.014477799
1.9319545e-07
0.014477863
1.8097261e-07
0.014477923
1.6947701e-07
0.014477979
1.5867106e-07
0.014478032
1.4851177e-07
0.014478081
1.3896601e-07
0.014478127
1.2999501e-07
0.01447817
1.2156948e-07
0.01447821
1.1365441e-07
0.014478247
1.0622407e-07
0.014478282
9.9246872e-08
0.014478315
9.2700104e-08
0.014478345
8.6555268e-08
0.014478373
8.0792389e-08
0.0144784
7.5385874e-08
0.014478425
7.0317957e-08
0.014478448
6.5565788e-08
0.014478469
6.1113427e-08
0.014478489
5.6940892e-08
0.014478507
5.303327e-08
0.014478525
4.9373797e-08
0.014478541
4.5947617e-08
0.014478555
4.274225e-08
0.014478569
3.9740906e-08
0.014478582
3.6937506e-08
0.014478594
3.4309993e-08
0.014478605
3.1863125e-08
0.014478615
2.9563028e-08
0.014478625
2.7433797e-08
0.014478634
2.5417657e-08
0.014478642
2.3574543e-08
0.014478649
2.1799871e-08
0.014478656
2.0220227e-08
0.014478663
1.864197e-08
0.014478669
1.7315012e-08
0.014478674
1.5881629e-08
0.014478679
1.481577e-08
0.014478684
1.3466452e-08
0.014478688
1.2697832e-08
0.014478692
1.1354124e-08
0.014478696
1.0945176e-08
9.6484227e-09
0.015568372
3.4707119e-11
0.015571636
1.0755493e-10
0.015576864
4.8777477e-11
0.015582723
-6.5040216e-12
0.015588245
-8.4068788e-12
0.015593204
4.8395294e-11
0.015597768
1.1689221e-10
0.015602091
1.5982701e-10
0.015606219
1.7182403e-10
0.015610132
1.7367912e-10
0.015613806
1.7572506e-10
0.015617245
1.8041879e-10
0.015620469
1.8147423e-10
0.015623497
1.7841344e-10
0.015626349
1.7013348e-10
0.015629035
1.5922619e-10
0.015631565
1.4615544e-10
0.015633949
1.320419e-10
0.015636196
1.171042e-10
0.015638313
1.0158094e-10
0.015640309
8.6164918e-11
0.015642191
7.0698686e-11
0.015643965
5.6236306e-11
0.015645638
4.2131466e-11
0.015647214
2.9545538e-11
0.0156487
1.7432821e-11
0.015650101
7.2488441e-12
0.01565142
-2.3775815e-12
0.015652664
-1.0790088e-11
0.015653836
-1.8441821e-11
0.01565494
-2.4185334e-11
0.01565598
-2.988179e-11
0.015656959
-3.3720424e-11
0.015657881
-3.7880709e-11
0.015658749
-4.0335759e-11
0.015659566
-4.331283e-11
0.015660335
-4.4669121e-11
0.015661059
-4.685788e-11
0.01566174
-4.7534686e-11
0.015662381
-4.9097923e-11
0.015662983
-4.9139446e-11
0.01566355
-5.0253507e-11
0.015664083
-4.9886025e-11
0.015664584
-5.054993e-11
0.015665054
-4.968377e-11
0.015665497
-4.9995981e-11
0.015665912
-4.8827089e-11
0.015666303
-4.8786593e-11
0.015666669
-4.7250609e-11
0.015667013
-4.6999521e-11
0.015667337
-4.5343554e-11
0.01566764
-4.4928289e-11
0.015667924
-4.3112047e-11
0.015668191
-4.2685202e-11
0.015668442
-4.0942734e-11
0.015668676
-4.0517553e-11
0.015668896
-3.8748875e-11
0.015669103
-3.8402762e-11
0.015669296
-3.6758274e-11
0.015669477
-3.6417752e-11
0.015669646
-3.4712127e-11
0.015669805
-3.4375552e-11
0.015669954
-3.2694966e-11
0.015670093
-3.2244668e-11
0.015670223
-3.0381129e-11
0.015670344
-2.9810479e-11
0.015670458
-2.7863967e-11
0.015670564
-2.7091627e-11
0.015670663
-2.4908071e-11
0.015670756
-2.3989076e-11
0.015670843
-2.1733894e-11
0.015670924
-2.0660167e-11
0.015670999
-1.825292e-11
0.015671069
-1.7142666e-11
0.015671135
-1.4799563e-11
0.015671196
-1.3689943e-11
0.015671253
-1.1365083e-11
0.015671306
-1.0388139e-11
0.015671355
-8.2958682e-12
0.015671401
-7.482786e-12
0.015671444
-5.5648108e-12
0.015671484
-5.0159939e-12
0.015671521
-3.4428984e-12
0.015671555
-3.1671207e-12
0.015671587
-1.8534119e-12
0.015671617
-1.899285e-12
0.015671644
-9.5833667e-13
0.015671669
-1.3282629e-12
0.015671693
-6.7715687e-13
0.015671715
-1.4198203e-12
0.015671735
-1.2702483e-12
0.015671754
-2.686799e-12
0.015671771
-3.1974697e-12
0.015671787
-5.1531784e-12
0.015671802
-5.8128175e-12
0.015671815
-6.7711434e-12
0.015671828
-7.753288e-12
0.015671839
-8.093402e-12
0.01567185
-1.2479491e-11
-1.6021002e-11
0.015568371
-6.0029213e-07
0.015571635
-3.263111e-06
0.015576863
-5.2283068e-06
0.015582722
-5.8597864e-06
0.015588244
-5.5227369e-06
0.015593204
-4.9598676e-06
0.015597768
-4.5644424e-06
0.015602091
-4.3230623e-06
0.015606219
-4.1281491e-06
0.015610131
-3.9121458e-06
0.015613806
-3.6745535e-06
0.015617245
-3.4393864e-06
0.015620469
-3.2231816e-06
0.015623497
-3.0286706e-06
0.015626349
-2.8512498e-06
0.015629035
-2.6860274e-06
0.015631565
-2.5305393e-06
0.015633949
-2.3841107e-06
0.015636196
-2.2465353e-06
0.015638313
-2.1173925e-06
0.015640309
-1.9960313e-06
0.015642191
-1.8817759e-06
0.015643965
-1.7740573e-06
0.015645638
-1.6724306e-06
0.015647214
-1.576524e-06
0.0156487
-1.4860064e-06
0.015650101
-1.4005609e-06
0.015651421
-1.3198951e-06
0.015652664
-1.2437307e-06
0.015653836
-1.1718165e-06
0.01565494
-1.1039121e-06
0.01565598
-1.0398006e-06
0.015656959
-9.7926952e-07
0.015657881
-9.2212752e-07
0.015658749
-8.6818451e-07
0.015659566
-8.1727091e-07
0.015660335
-7.692166e-07
0.015661059
-7.2387102e-07
0.01566174
-6.8108116e-07
0.015662381
-6.407131e-07
0.015662983
-6.0262922e-07
0.01566355
-5.6671033e-07
0.015664083
-5.3283221e-07
0.015664584
-5.0088885e-07
0.015665054
-4.7076838e-07
0.015665497
-4.423765e-07
0.015665912
-4.1561209e-07
0.015666303
-3.903914e-07
0.015666669
-3.6662326e-07
0.015667013
-3.4423333e-07
0.015667337
-3.2313909e-07
0.01566764
-3.0327464e-07
0.015667924
-2.8456554e-07
0.015668191
-2.6695342e-07
0.015668442
-2.503708e-07
0.015668676
-2.3476608e-07
0.015668896
-2.2007834e-07
0.015669102
-2.0626206e-07
0.015669296
-1.932619e-07
0.015669477
-1.8103779e-07
0.015669646
-1.6953974e-07
0.015669805
-1.5873255e-07
0.015669953
-1.4857075e-07
0.015670092
-1.3902353e-07
0.015670222
-1.3004979e-07
0.015670344
-1.2162261e-07
0.015670458
-1.1370453e-07
0.015670564
-1.0627215e-07
0.015670663
-9.9291615e-08
0.015670756
-9.2742572e-08
0.015670843
-8.6594151e-08
0.015670923
-8.0828701e-08
0.015670999
-7.5418424e-08
0.015671069
-7.034791e-08
0.015671135
-6.5591987e-08
0.015671196
-6.1137028e-08
0.015671253
-5.6960874e-08
0.015671306
-5.3050947e-08
0.015671355
-4.9388181e-08
0.015671401
-4.5959998e-08
0.015671444
-4.2751753e-08
0.015671484
-3.9748947e-08
0.015671521
-3.6943209e-08
0.015671555
-3.4314722e-08
0.015671587
-3.1866078e-08
0.015671616
-2.9565645e-08
0.015671644
-2.7435247e-08
0.015671669
-2.5419339e-08
0.015671693
-2.3575685e-08
0.015671715
-2.1801969e-08
0.015671735
-2.0222626e-08
0.015671753
-1.8646339e-08
0.015671771
-1.7320913e-08
0.015671787
-1.5890518e-08
0.015671801
-1.4826065e-08
0.015671815
-1.3478587e-08
0.015671828
-1.2711175e-08
0.015671839
-1.1367422e-08
0.01567185
-1.0965164e-08
-9.6730483e-09
0.014423905
-1.1750504e-06
0.014426609
-5.9661536e-06
0.014430586
-9.2050095e-06
0.014434728
-1.0002124e-05
0.01443845
-9.2446576e-06
0.014441704
-8.2145117e-06
0.01444461
-7.4706636e-06
0.014447263
-6.9761832e-06
0.014449697
-6.5624698e-06
0.014451918
-6.1337608e-06
0.014453934
-5.6909591e-06
0.014455763
-5.2677528e-06
0.014457425
-4.8858127e-06
0.014458943
-4.5467856e-06
0.014460334
-4.2421678e-06
0.014461611
-3.9634664e-06
0.014462786
-3.7058712e-06
0.014463869
-3.4673098e-06
0.014464869
-3.2465383e-06
0.014465794
-3.0421624e-06
0.01446665
-2.8525842e-06
0.014467445
-2.6762662e-06
0.014468183
-2.5119137e-06
0.014468869
-2.3584707e-06
0.014469507
-2.2150586e-06
0.014470102
-2.0808951e-06
0.014470657
-1.9552793e-06
0.014471174
-1.8375649e-06
0.014471658
-1.7271782e-06
0.014472109
-1.6235909e-06
0.014472532
-1.5263373e-06
0.014472927
-1.434981e-06
0.014473297
-1.349136e-06
0.014473643
-1.2684338e-06
0.014473967
-1.1925497e-06
0.014474271
-1.1211696e-06
0.014474556
-1.0540186e-06
0.014474823
-9.908262e-07
0.014475073
-9.3135756e-07
0.014475308
-8.7537822e-07
0.014475528
-8.2268636e-07
0.014475734
-7.7307694e-07
0.014475928
-7.2637553e-07
0.014476109
-6.8240203e-07
0.01447628
-6.4100521e-07
0.014476439
-6.0202579e-07
0.014476589
-5.6533204e-07
0.014476729
-5.3078277e-07
0.014476861
-4.9826313e-07
0.014476984
-4.6764714e-07
0.0144771
-4.3883435e-07
0.014477209
-4.1171229e-07
0.01447731
-3.8619316e-07
0.014477405
-3.6217596e-07
0.014477495
-3.3958373e-07
0.014477578
-3.1832589e-07
0.014477656
-2.9833514e-07
0.01447773
-2.7952975e-07
0.014477798
-2.618508e-07
0.014477863
-2.4522468e-07
0.014477923
-2.2960004e-07
0.014477979
-2.1491019e-07
0.014478031
-2.0111033e-07
0.01447808
-1.8814022e-07
0.014478126
-1.7596103e-07
0.014478169
-1.6451798e-07
0.014478209
-1.5377739e-07
0.014478247
-1.4368963e-07
0.014478282
-1.3422579e-07
0.014478314
-1.2534047e-07
0.014478345
-1.1700893e-07
0.014478373
-1.0918974e-07
0.014478399
-1.0186214e-07
0.014478424
-9.4987824e-08
0.014478447
-8.854959e-08
0.014478468
-8.2511911e-08
0.014478488
-7.6861359e-08
0.014478507
-7.1564022e-08
0.014478524
-6.6610436e-08
0.01447854
-6.1967356e-08
0.014478555
-5.7630523e-08
0.014478569
-5.3564933e-08
0.014478582
-4.9773644e-08
0.014478594
-4.6216455e-08
0.014478605
-4.2908558e-08
0.014478615
-3.9797334e-08
0.014478624
-3.6918974e-08
0.014478633
-3.419581e-08
0.014478641
-3.1702609e-08
0.014478649
-2.9312084e-08
0.014478656
-2.7170416e-08
0.014478662
-2.5055097e-08
0.014478668
-2.3246437e-08
0.014478673
-2.1341127e-08
0.014478678
-1.9870412e-08
0.014478683
-1.8097248e-08
0.014478687
-1.7011099e-08
0.014478691
-1.527624e-08
0.014478695
-1.4681782e-08
-1.2946775e-08
0.012079406
-1.6169441e-06
0.012080616
-7.1746192e-06
0.012081706
-1.0294858e-05
0.012082261
-1.0557111e-05
0.01208239
-9.3736984e-06
0.012082248
-8.0736214e-06
0.012081895
-7.1174507e-06
0.012081363
-6.4443724e-06
0.012080691
-5.8907087e-06
0.012079926
-5.3690762e-06
0.012079108
-4.8732005e-06
0.012078264
-4.4244325e-06
0.012077412
-4.0344051e-06
0.012076564
-3.6990048e-06
0.012075729
-3.4068771e-06
0.012074913
-3.1475655e-06
0.012074121
-2.9143725e-06
0.012073357
-2.7034965e-06
0.012072623
-2.5123531e-06
0.012071919
-2.3386238e-06
0.012071247
-2.1800931e-06
0.012070605
-2.0347931e-06
0.012069994
-1.9011027e-06
0.012069414
-1.7777217e-06
0.012068862
-1.6635857e-06
0.012068339
-1.5577888e-06
0.012067843
-1.4595421e-06
0.012067374
-1.3681517e-06
0.012066929
-1.2830105e-06
0.012066509
-1.2035845e-06
0.012066112
-1.1294045e-06
0.012065737
-1.0600527e-06
0.012065383
-9.9515694e-07
0.012065049
-9.3438145e-07
0.012064734
-8.774252e-07
0.012064437
-8.2401431e-07
0.012064157
-7.7390156e-07
0.012063893
-7.2686018e-07
0.012063644
-6.8268479e-07
0.01206341
-6.4118543e-07
0.012063189
-6.0218902e-07
0.012062982
-5.6553435e-07
0.012062787
-5.3107454e-07
0.012062603
-4.9867178e-07
0.01206243
-4.6819989e-07
0.012062268
-4.395398e-07
0.012062115
-4.1258279e-07
0.012061971
-3.8722554e-07
0.012061836
-3.6337332e-07
0.01206171
-3.4093571e-07
0.012061591
-3.1983018e-07
0.012061479
-2.9997747e-07
0.012061374
-2.8130496e-07
0.012061276
-2.637426e-07
0.012061183
-2.4722674e-07
0.012061097
-2.3169556e-07
0.012061015
-2.1709268e-07
0.012060939
-2.0336314e-07
0.012060868
-1.9045735e-07
0.012060801
-1.7832664e-07
0.012060738
-1.6692692e-07
0.01206068
-1.5621475e-07
0.012060625
-1.461513e-07
0.012060573
-1.3669805e-07
0.012060525
-1.2782041e-07
0.01206048
-1.1948385e-07
0.012060438
-1.1165799e-07
0.012060398
-1.0431214e-07
0.012060362
-9.7419211e-08
0.012060327
-9.0951596e-08
0.012060295
-8.4885589e-08
0.012060265
-7.919657e-08
0.012060237
-7.3863467e-08
0.012060211
-6.886391e-08
0.012060187
-6.4179754e-08
0.012060164
-5.9790732e-08
0.012060143
-5.5681117e-08
0.012060123
-5.1831877e-08
0.012060105
-4.8230355e-08
0.012060088
-4.4858266e-08
0.012060072
-4.1706134e-08
0.012060057
-3.8754857e-08
0.012060043
-3.5999859e-08
0.01206003
-3.3419404e-08
0.012060018
-3.1015828e-08
0.012060007
-2.8760754e-08
0.012059997
-2.6668531e-08
0.012059988
-2.4697864e-08
0.012059979
-2.2883175e-08
0.012059971
-2.1158257e-08
0.012059963
-1.9593383e-08
0.012059956
-1.8076781e-08
0.01205995
-1.674209e-08
0.012059944
-1.5394195e-08
0.012059938
-1.428308e-08
0.012059933
-1.3062328e-08
0.012059928
-1.2195178e-08
0.012059924
-1.1060255e-08
0.01205992
-1.0547538e-08
-9.4183316e-09
0.008430383
-1.5100236e-06
0.008428419
-5.209356e-06
0.0084247174
-6.5927786e-06
0.0084202723
-6.1120523e-06
0.008415855
-4.9568102e-06
0.0084117071
-3.9262291e-06
0.0084078148
-3.225638e-06
0.0084041381
-2.7680879e-06
0.0084006774
-2.4303455e-06
0.0083974529
-2.1449171e-06
0.0083944745
-1.8951477e-06
0.008391733
-1.6832233e-06
0.0083892076
-1.5093107e-06
0.0083868758
-1.367387e-06
0.0083847177
-1.2489863e-06
0.008382717
-1.1470527e-06
0.0083808596
-1.0572024e-06
0.008379133
-9.7706361e-07
0.0083775258
-9.0520273e-07
0.0083760275
-8.4047347e-07
0.0083746291
-7.8183628e-07
0.0083733226
-7.2839867e-07
0.0083721009
-6.7944731e-07
0.0083709575
-6.3443686e-07
0.0083698868
-5.9293252e-07
0.0083688835
-5.5457692e-07
0.008367943
-5.1905543e-07
0.0083670609
-4.8609819e-07
0.0083662333
-4.5546348e-07
0.0083654566
-4.2694692e-07
0.0083647275
-4.0036282e-07
0.008364043
-3.7555413e-07
0.0083634002
-3.5237396e-07
0.0083627964
-3.3069857e-07
0.0083622294
-3.1040921e-07
0.0083616968
-2.9140678e-07
0.0083611964
-2.7359376e-07
0.0083607264
-2.5689013e-07
0.008360285
-2.4121468e-07
0.0083598703
-2.2650179e-07
0.0083594807
-2.1268275e-07
0.0083591149
-1.9970342e-07
0.0083587713
-1.8750507e-07
0.0083584487
-1.7604244e-07
0.0083581457
-1.6526463e-07
0.0083578613
-1.5513375e-07
0.0083575943
-1.4560541e-07
0.0083573437
-1.3664747e-07
0.0083571086
-1.2822071e-07
0.0083568879
-1.20298e-07
0.008356681
-1.128446e-07
0.0083564868
-1.0583729e-07
0.0083563048
-9.9244935e-08
0.0083561341
-9.3047895e-08
0.0083559741
-8.721827e-08
0.0083558241
-8.1739207e-08
0.0083556836
-7.6585446e-08
0.008355552
-7.1742801e-08
0.0083554287
-6.7188459e-08
0.0083553133
-6.2910287e-08
0.0083552052
-5.8887467e-08
0.0083551041
-5.5109922e-08
0.0083550095
-5.1558737e-08
0.0083549211
-4.822537e-08
0.0083548383
-4.5092445e-08
0.008354761
-4.2153027e-08
0.0083546888
-3.9391244e-08
0.0083546212
-3.6801309e-08
0.0083545582
-3.4368546e-08
0.0083544993
-3.2088427e-08
0.0083544444
-2.994749e-08
0.0083543931
-2.7942041e-08
0.0083543453
-2.6059579e-08
0.0083543008
-2.4297366e-08
0.0083542593
-2.2643952e-08
0.0083542206
-2.1097115e-08
0.0083541845
-1.9646299e-08
0.008354151
-1.8289868e-08
0.0083541198
-1.701838e-08
0.0083540908
-1.5830228e-08
0.0083540638
-1.4717147e-08
0.0083540387
-1.3677383e-08
0.0083540154
-1.2704435e-08
0.0083539938
-1.1795407e-08
0.0083539737
-1.0946238e-08
0.0083539551
-1.0151961e-08
0.0083539379
-9.4125284e-09
0.0083539219
-8.7186861e-09
0.0083539071
-8.0766525e-09
0.0083538934
-7.470035e-09
0.0083538807
-6.9149494e-09
0.008353869
-6.3833438e-09
0.0083538582
-5.9058587e-09
0.0083538482
-5.4391224e-09
0.008353839
-5.032483e-09
0.0083538306
-4.6245143e-09
0.0083538227
-4.2799153e-09
0.0083538156
-3.9493216e-09
0.0083538087
-3.6750172e-09
-3.6747856e-09
0.0033376179
0.003332409
0.0033258163
0.0033197041
0.003314747
0.0033108205
0.0033075947
0.0033048264
0.0033023958
0.0033002507
0.0032983554
0.003296672
0.0032951626
0.0032937951
0.003292546
0.0032913989
0.0032903416
0.0032893644
0.0032884592
0.0032876186
0.0032868367
0.0032861083
0.0032854288
0.0032847943
0.0032842014
0.0032836467
0.0032831277
0.0032826415
0.003282186
0.0032817591
0.0032813587
0.0032809831
0.0032806307
0.0032803
0.0032799896
0.0032796982
0.0032794246
0.0032791677
0.0032789264
0.0032786999
0.0032784872
0.0032782875
0.0032781
0.003277924
0.0032777587
0.0032776036
0.003277458
0.0032773213
0.0032771931
0.0032770728
0.0032769599
0.0032768541
0.0032767549
0.0032766618
0.0032765746
0.0032764929
0.0032764163
0.0032763445
0.0032762773
0.0032762144
0.0032761555
0.0032761004
0.0032760489
0.0032760006
0.0032759556
0.0032759134
0.003275874
0.0032758372
0.0032758028
0.0032757708
0.0032757408
0.0032757129
0.0032756868
0.0032756625
0.0032756399
0.0032756188
0.0032755991
0.0032755809
0.0032755638
0.003275548
0.0032755333
0.0032755196
0.0032755069
0.0032754951
0.0032754842
0.003275474
0.0032754646
0.0032754559
0.0032754478
0.0032754403
0.0032754334
0.0032754271
0.0032754211
0.0032754157
0.0032754107
0.0032754061
0.0032754018
0.0032753978
0.0032753942
)
;

boundaryField
{
    top
    {
        type            calculated;
        value           uniform 0;
    }
    inlet
    {
        type            calculated;
        value           nonuniform List<scalar> 10(-0.003339126 -0.0084304884 -0.012078963 -0.014423329 -0.015567771 -0.015567769 -0.014423329 -0.012078963 -0.008430489 -0.0033391273);
    }
    outlet
    {
        type            calculated;
        value           nonuniform List<scalar> 10(0.0032753906 0.0083538034 0.012059917 0.014478699 0.01567186 0.01567186 0.014478698 0.012059916 0.0083538029 0.0032753905);
    }
    bottom
    {
        type            calculated;
        value           uniform 0;
    }
    back
    {
        type            empty;
        value           nonuniform List<scalar> 0();
    }
    front
    {
        type            empty;
        value           nonuniform List<scalar> 0();
    }
}


// ************************************************************************* //
