/*--------------------------------*- C++ -*----------------------------------*\
| =========                 |                                                 |
| \\      /  F ield         | OpenFOAM: The Open Source CFD Toolbox           |
|  \\    /   O peration     | Version:  2112                                  |
|   \\  /    A nd           | Website:  www.openfoam.com                      |
|    \\/     M anipulation  |                                                 |
\*---------------------------------------------------------------------------*/
FoamFile
{
    version     2.0;
    format      ascii;
    arch        "LSB;label=32;scalar=64";
    class       volVectorField;
    location    "18";
    object      U;
}
// * * * * * * * * * * * * * * * * * * * * * * * * * * * * * * * * * * * * * //

dimensions      [0 1 -1 0 0 0 0];

internalField   nonuniform List<vector> 
1000
(
(0.3338763 0.00013215524 0)
(0.3335944 0.00040366065 0)
(0.33294877 0.00046144356 0)
(0.33227272 0.00036737493 0)
(0.33170821 0.00024751271 0)
(0.33126605 0.00016551357 0)
(0.33091243 0.00012330984 0)
(0.33061526 0.00010197567 0)
(0.33035643 8.7404009e-05 0)
(0.33012814 7.4766239e-05 0)
(0.32992654 6.4022978e-05 0)
(0.32974809 5.5764255e-05 0)
(0.32958894 4.9787173e-05 0)
(0.32944552 4.5360432e-05 0)
(0.32931501 4.178882e-05 0)
(0.32919544 3.8668629e-05 0)
(0.32908541 3.5846428e-05 0)
(0.32898385 3.3283852e-05 0)
(0.32888987 3.0962395e-05 0)
(0.32880269 2.8853429e-05 0)
(0.32872168 2.6923701e-05 0)
(0.32864625 2.5145678e-05 0)
(0.32857593 2.3500746e-05 0)
(0.3285103 2.1976466e-05 0)
(0.32844899 2.0563102e-05 0)
(0.32839167 1.9251515e-05 0)
(0.32833803 1.803298e-05 0)
(0.32828782 1.6899306e-05 0)
(0.32824078 1.5843264e-05 0)
(0.3281967 1.4858366e-05 0)
(0.32815537 1.3938954e-05 0)
(0.32811661 1.3079817e-05 0)
(0.32808024 1.2276363e-05 0)
(0.32804611 1.1524306e-05 0)
(0.32801408 1.0819903e-05 0)
(0.32798402 1.0159625e-05 0)
(0.32795579 9.5404138e-06 0)
(0.32792929 8.9593452e-06 0)
(0.3279044 8.4138958e-06 0)
(0.32788103 7.9016055e-06 0)
(0.32785909 7.4203705e-06 0)
(0.32783849 6.9681045e-06 0)
(0.32781914 6.5430401e-06 0)
(0.32780098 6.1433845e-06 0)
(0.32778393 5.7676381e-06 0)
(0.32776792 5.4142507e-06 0)
(0.3277529 5.0819426e-06 0)
(0.32773879 4.769356e-06 0)
(0.32772556 4.4753894e-06 0)
(0.32771315 4.1988509e-06 0)
(0.3277015 3.9387898e-06 0)
(0.32769057 3.6941473e-06 0)
(0.32768033 3.4640985e-06 0)
(0.32767072 3.2477043e-06 0)
(0.32766172 3.0442495e-06 0)
(0.32765328 2.8528923e-06 0)
(0.32764537 2.6730106e-06 0)
(0.32763796 2.5038538e-06 0)
(0.32763102 2.3448826e-06 0)
(0.32762452 2.1954201e-06 0)
(0.32761843 2.0549978e-06 0)
(0.32761274 1.9230096e-06 0)
(0.32760741 1.7990508e-06 0)
(0.32760243 1.6825714e-06 0)
(0.32759776 1.5732208e-06 0)
(0.32759341 1.470504e-06 0)
(0.32758933 1.3741198e-06 0)
(0.32758553 1.2836158e-06 0)
(0.32758197 1.1987322e-06 0)
(0.32757865 1.1190593e-06 0)
(0.32757555 1.0443767e-06 0)
(0.32757266 9.7430574e-07 0)
(0.32756996 9.0865981e-07 0)
(0.32756745 8.4709225e-07 0)
(0.3275651 7.8945064e-07 0)
(0.32756292 7.3540836e-07 0)
(0.32756089 6.8484531e-07 0)
(0.32755899 6.3745374e-07 0)
(0.32755723 5.9315125e-07 0)
(0.32755559 5.5163234e-07 0)
(0.32755406 5.1285863e-07 0)
(0.32755264 4.7651643e-07 0)
(0.32755132 4.4262988e-07 0)
(0.3275501 4.1084464e-07 0)
(0.32754896 3.8127509e-07 0)
(0.32754791 3.5348964e-07 0)
(0.32754693 3.2774452e-07 0)
(0.32754603 3.0345952e-07 0)
(0.32754519 2.8110659e-07 0)
(0.32754441 2.5987227e-07 0)
(0.32754369 2.4054295e-07 0)
(0.32754303 2.2197424e-07 0)
(0.32754242 2.0532987e-07 0)
(0.32754185 1.8916043e-07 0)
(0.32754133 1.7480924e-07 0)
(0.32754084 1.6114342e-07 0)
(0.32754041 1.4863627e-07 0)
(0.32753998 1.3930852e-07 0)
(0.32753965 1.2984533e-07 0)
(0.32753915 1.4055997e-07 0)
(0.84294257 0.0001430411 0)
(0.84320066 0.000656198 0)
(0.84282684 0.00095625436 0)
(0.84228084 0.00097208986 0)
(0.84178452 0.00083933746 0)
(0.84136023 0.00069031439 0)
(0.84097263 0.00057912689 0)
(0.84060007 0.00050357464 0)
(0.84024172 0.00044627128 0)
(0.83990428 0.00039626794 0)
(0.83959231 0.00035119123 0)
(0.83930602 0.00031210876 0)
(0.83904308 0.00027960025 0)
(0.83880069 0.00025288335 0)
(0.83857651 0.00023054739 0)
(0.83836878 0.00021134652 0)
(0.83817606 0.00019448126 0)
(0.83799705 0.00017950191 0)
(0.83783055 0.00016612434 0)
(0.83767546 0.00015411749 0)
(0.8375308 0.00014327385 0)
(0.8373957 0.00013341633 0)
(0.83726943 0.00012440463 0)
(0.83715129 0.00011613101 0)
(0.8370407 0.00010851089 0)
(0.8369371 0.00010147452 0)
(0.83684 9.4962266e-05 0)
(0.83674895 8.8922422e-05 0)
(0.83666354 8.3310243e-05 0)
(0.8365834 7.8086914e-05 0)
(0.83650818 7.3218651e-05 0)
(0.83643757 6.8675691e-05 0)
(0.83637126 6.443169e-05 0)
(0.83630899 6.0463095e-05 0)
(0.8362505 5.6748865e-05 0)
(0.83619557 5.327002e-05 0)
(0.83614397 5.0009496e-05 0)
(0.83609549 4.6951775e-05 0)
(0.83604996 4.4082823e-05 0)
(0.83600719 4.1389763e-05 0)
(0.83596701 3.8860885e-05 0)
(0.83592928 3.6485379e-05 0)
(0.83589384 3.4253373e-05 0)
(0.83586056 3.2155685e-05 0)
(0.83582931 3.0183904e-05 0)
(0.83579997 2.8330164e-05 0)
(0.83577242 2.6587243e-05 0)
(0.83574657 2.4948341e-05 0)
(0.8357223 2.3407202e-05 0)
(0.83569953 2.1957914e-05 0)
(0.83567817 2.0595035e-05 0)
(0.83565813 1.9313388e-05 0)
(0.83563934 1.8108206e-05 0)
(0.83562172 1.6974943e-05 0)
(0.8356052 1.5909417e-05 0)
(0.83558972 1.4907614e-05 0)
(0.83557521 1.3965847e-05 0)
(0.83556162 1.3080568e-05 0)
(0.83554889 1.2248529e-05 0)
(0.83553696 1.1466584e-05 0)
(0.8355258 1.0731856e-05 0)
(0.83551536 1.0041557e-05 0)
(0.83550558 9.3931463e-06 0)
(0.83549644 8.7841423e-06 0)
(0.83548789 8.2122918e-06 0)
(0.83547989 7.6753889e-06 0)
(0.83547242 7.1714427e-06 0)
(0.83546544 6.6984829e-06 0)
(0.83545892 6.2547423e-06 0)
(0.83545283 5.8384639e-06 0)
(0.83544715 5.4480892e-06 0)
(0.83544184 5.0820396e-06 0)
(0.8354369 4.7389374e-06 0)
(0.83543228 4.417363e-06 0)
(0.83542798 4.1161164e-06 0)
(0.83542398 3.8339012e-06 0)
(0.83542025 3.5696827e-06 0)
(0.83541677 3.3222604e-06 0)
(0.83541354 3.090784e-06 0)
(0.83541053 2.8740937e-06 0)
(0.83540773 2.6715473e-06 0)
(0.83540513 2.4819594e-06 0)
(0.83540272 2.3049745e-06 0)
(0.83540047 2.1392545e-06 0)
(0.83539839 1.9848549e-06 0)
(0.83539646 1.8400933e-06 0)
(0.83539467 1.7056834e-06 0)
(0.83539301 1.5792591e-06 0)
(0.83539147 1.4625941e-06 0)
(0.83539005 1.3521016e-06 0)
(0.83538873 1.2513004e-06 0)
(0.83538751 1.1545122e-06 0)
(0.83538639 1.0680687e-06 0)
(0.83538535 9.8286937e-07 0)
(0.8353844 9.0975171e-07 0)
(0.83538349 8.3427159e-07 0)
(0.83538273 7.7460466e-07 0)
(0.83538188 7.0851978e-07 0)
(0.83538138 6.6688145e-07 0)
(0.83538039 6.2102215e-07 0)
(1.2076828 0.00011374666 0)
(1.2084117 0.00060430282 0)
(1.208431 0.00097493345 0)
(1.2082671 0.001095304 0)
(1.2081832 0.0010416663 0)
(1.2081847 0.00093389039 0)
(1.2081975 0.00084022255 0)
(1.2081763 0.00077228499 0)
(1.2081184 0.00071767454 0)
(1.2080398 0.00066551041 0)
(1.2079547 0.0006133465 0)
(1.2078691 0.00056345982 0)
(1.2077842 0.00051817098 0)
(1.2076996 0.00047806731 0)
(1.2076154 0.00044247924 0)
(1.2075325 0.0004104629 0)
(1.2074518 0.00038133383 0)
(1.2073737 0.00035470682 0)
(1.2072987 0.00033034326 0)
(1.2072267 0.00030803164 0)
(1.2071579 0.00028755464 0)
(1.2070922 0.00026870399 0)
(1.2070295 0.0002512982 0)
(1.2069699 0.00023518693 0)
(1.2069133 0.00022024499 0)
(1.2068595 0.00020636495 0)
(1.2068086 0.00019345202 0)
(1.2067603 0.00018142196 0)
(1.2067147 0.00017019989 0)
(1.2066715 0.00015971948 0)
(1.2066306 0.00014992174 0)
(1.2065921 0.00014075404 0)
(1.2065556 0.000132169 0)
(1.2065212 0.00012412396 0)
(1.2064888 0.00011658018 0)
(1.2064582 0.00010950256 0)
(1.2064294 0.00010285903 0)
(1.2064022 9.6620374e-05 0)
(1.2063766 9.0759755e-05 0)
(1.2063524 8.5252571e-05 0)
(1.2063297 8.0076091e-05 0)
(1.2063083 7.5209403e-05 0)
(1.2062882 7.0633086e-05 0)
(1.2062693 6.6329206e-05 0)
(1.2062514 6.2281031e-05 0)
(1.2062347 5.8473072e-05 0)
(1.2062189 5.489082e-05 0)
(1.2062041 5.1520809e-05 0)
(1.2061902 4.8350377e-05 0)
(1.2061772 4.5367761e-05 0)
(1.2061649 4.2561864e-05 0)
(1.2061534 3.9922359e-05 0)
(1.2061425 3.7439478e-05 0)
(1.2061324 3.5104129e-05 0)
(1.2061229 3.2907692e-05 0)
(1.2061139 3.0842135e-05 0)
(1.2061055 2.8899827e-05 0)
(1.2060977 2.7073665e-05 0)
(1.2060903 2.5356887e-05 0)
(1.2060834 2.3743196e-05 0)
(1.2060769 2.2226586e-05 0)
(1.2060709 2.0801473e-05 0)
(1.2060652 1.9462524e-05 0)
(1.2060599 1.8204778e-05 0)
(1.2060549 1.7023489e-05 0)
(1.2060502 1.5914253e-05 0)
(1.2060459 1.4872849e-05 0)
(1.2060418 1.3895358e-05 0)
(1.206038 1.2978023e-05 0)
(1.2060345 1.2117354e-05 0)
(1.2060311 1.1310019e-05 0)
(1.206028 1.0552897e-05 0)
(1.2060251 9.8430335e-06 0)
(1.2060224 9.1776297e-06 0)
(1.2060199 8.5540924e-06 0)
(1.2060176 7.9698783e-06 0)
(1.2060154 7.4227446e-06 0)
(1.2060133 6.9103344e-06 0)
(1.2060114 6.4307871e-06 0)
(1.2060096 5.9818201e-06 0)
(1.206008 5.5620287e-06 0)
(1.2060065 5.1690368e-06 0)
(1.206005 4.8020782e-06 0)
(1.2060037 4.4583799e-06 0)
(1.2060025 4.1381639e-06 0)
(1.2060013 3.8377272e-06 0)
(1.2060003 3.5589756e-06 0)
(1.2059993 3.2962784e-06 0)
(1.2059984 3.0545404e-06 0)
(1.2059975 2.8243532e-06 0)
(1.2059967 2.6161453e-06 0)
(1.205996 2.4132206e-06 0)
(1.2059953 2.236335e-06 0)
(1.2059947 2.0548531e-06 0)
(1.2059941 1.9091134e-06 0)
(1.2059936 1.7421364e-06 0)
(1.2059931 1.6312184e-06 0)
(1.2059926 1.4707509e-06 0)
(1.2059923 1.4054465e-06 0)
(1.2059917 1.2466403e-06 0)
(1.4420246 7.1337178e-05 0)
(1.443054 0.00040875761 0)
(1.4433133 0.0006924905 0)
(1.4433854 0.00081202723 0)
(1.4435848 0.00080025306 0)
(1.4439192 0.0007382211 0)
(1.4442846 0.00067980483 0)
(1.4446073 0.00063821391 0)
(1.444873 0.00060573874 0)
(1.445098 0.00057373156 0)
(1.4453004 0.00053969929 0)
(1.4454882 0.00050533995 0)
(1.4456624 0.00047284276 0)
(1.4458224 0.00044312971 0)
(1.4459682 0.00041601282 0)
(1.4461012 0.00039095285 0)
(1.4462232 0.00036754481 0)
(1.4463355 0.00034559868 0)
(1.4464394 0.0003250335 0)
(1.4465354 0.00030577888 0)
(1.4466242 0.00028774381 0)
(1.4467066 0.00027082812 0)
(1.4467831 0.00025493956 0)
(1.4468541 0.00024000072 0)
(1.4469202 0.00022594652 0)
(1.4469817 0.00021271984 0)
(1.4470391 0.00020026809 0)
(1.4470926 0.00018854253 0)
(1.4471426 0.00017749777 0)
(1.4471893 0.00016709211 0)
(1.4472329 0.00015728689 0)
(1.4472737 0.00014804644 0)
(1.4473119 0.00013933736 0)
(1.4473477 0.00013112864 0)
(1.4473812 0.00012339107 0)
(1.4474125 0.00011609747 0)
(1.4474419 0.00010922219 0)
(1.4474695 0.00010274135 0)
(1.4474953 9.663231e-05 0)
(1.4475195 9.0874029e-05 0)
(1.4475422 8.5446471e-05 0)
(1.4475635 8.0331026e-05 0)
(1.4475835 7.5509923e-05 0)
(1.4476022 7.0966676e-05 0)
(1.4476198 6.6685491e-05 0)
(1.4476363 6.2651737e-05 0)
(1.4476517 5.8851355e-05 0)
(1.4476662 5.5271344e-05 0)
(1.4476798 5.1899174e-05 0)
(1.4476925 4.872328e-05 0)
(1.4477045 4.5732478e-05 0)
(1.4477157 4.2916478e-05 0)
(1.4477262 4.0265291e-05 0)
(1.447736 3.7769753e-05 0)
(1.4477452 3.5420938e-05 0)
(1.4477538 3.3210684e-05 0)
(1.4477619 3.1131011e-05 0)
(1.4477695 2.9174651e-05 0)
(1.4477766 2.7334468e-05 0)
(1.4477832 2.5603989e-05 0)
(1.4477894 2.3976832e-05 0)
(1.4477952 2.2447236e-05 0)
(1.4478006 2.1009491e-05 0)
(1.4478057 1.9658471e-05 0)
(1.4478105 1.8389068e-05 0)
(1.4478149 1.7196721e-05 0)
(1.447819 1.6076863e-05 0)
(1.4478229 1.5025432e-05 0)
(1.4478265 1.4038349e-05 0)
(1.4478299 1.3111995e-05 0)
(1.4478331 1.2242731e-05 0)
(1.447836 1.1427325e-05 0)
(1.4478387 1.0662544e-05 0)
(1.4478413 9.9454839e-06 0)
(1.4478437 9.273299e-06 0)
(1.4478459 8.6433453e-06 0)
(1.4478479 8.0531702e-06 0)
(1.4478499 7.5002976e-06 0)
(1.4478516 6.9827161e-06 0)
(1.4478533 6.497974e-06 0)
(1.4478548 6.0446306e-06 0)
(1.4478563 5.6200143e-06 0)
(1.4478576 5.2235288e-06 0)
(1.4478588 4.8518407e-06 0)
(1.44786 4.5057555e-06 0)
(1.447861 4.1804548e-06 0)
(1.447862 3.8792319e-06 0)
(1.4478629 3.5942353e-06 0)
(1.4478638 3.3333285e-06 0)
(1.4478646 3.0827301e-06 0)
(1.4478653 2.85879e-06 0)
(1.447866 2.6364405e-06 0)
(1.4478665 2.447695e-06 0)
(1.4478672 2.2465979e-06 0)
(1.4478676 2.0936495e-06 0)
(1.4478682 1.905527e-06 0)
(1.4478685 1.7927027e-06 0)
(1.4478691 1.6078529e-06 0)
(1.4478693 1.5441161e-06 0)
(1.4478699 1.3524924e-06 0)
(1.5564151 2.416627e-05 0)
(1.5575919 0.00014298996 0)
(1.5579611 0.00024730975 0)
(1.5581364 0.00029525271 0)
(1.5584635 0.00029491408 0)
(1.5589574 0.00027459588 0)
(1.5595006 0.00025460362 0)
(1.5600037 0.00024062585 0)
(1.5604444 0.00023009949 0)
(1.5608388 0.00021970344 0)
(1.5612064 0.00020834617 0)
(1.5615563 0.00019660435 0)
(1.5618892 0.00018532985 0)
(1.5622032 0.00017492225 0)
(1.562498 0.00016534605 0)
(1.5627746 0.00015641338 0)
(1.5630348 0.0001479793 0)
(1.5632799 0.00013998119 0)
(1.5635111 0.00013240045 0)
(1.563729 0.00012522356 0)
(1.5639345 0.00011842854 0)
(1.5641282 0.00011198861 0)
(1.5643108 0.00010587888 0)
(1.5644829 0.00010007914 0)
(1.5646452 9.4573151e-05 0)
(1.5647982 8.9346853e-05 0)
(1.5649424 8.4387191e-05 0)
(1.5650782 7.9681694e-05 0)
(1.5652063 7.5218489e-05 0)
(1.5653269 7.0986318e-05 0)
(1.5654406 6.69745e-05 0)
(1.5655477 6.3172866e-05 0)
(1.5656485 5.9571648e-05 0)
(1.5657435 5.6161458e-05 0)
(1.5658329 5.2933242e-05 0)
(1.5659171 4.9878301e-05 0)
(1.5659964 4.6988254e-05 0)
(1.5660709 4.4255057e-05 0)
(1.5661411 4.167097e-05 0)
(1.5662071 3.9228584e-05 0)
(1.5662692 3.6920772e-05 0)
(1.5663276 3.4740727e-05 0)
(1.5663826 3.2681912e-05 0)
(1.5664342 3.0738098e-05 0)
(1.5664827 2.8903314e-05 0)
(1.5665283 2.7171873e-05 0)
(1.5665712 2.5538333e-05 0)
(1.5666114 2.3997529e-05 0)
(1.5666492 2.2544515e-05 0)
(1.5666847 2.1174603e-05 0)
(1.5667181 1.9883309e-05 0)
(1.5667493 1.8666398e-05 0)
(1.5667787 1.7519815e-05 0)
(1.5668062 1.6439734e-05 0)
(1.5668321 1.5422495e-05 0)
(1.5668563 1.4464655e-05 0)
(1.566879 1.3562921e-05 0)
(1.5669003 1.2714191e-05 0)
(1.5669203 1.1915503e-05 0)
(1.566939 1.1164078e-05 0)
(1.5669565 1.0457256e-05 0)
(1.5669729 9.792541e-06 0)
(1.5669882 9.1675468e-06 0)
(1.5670026 8.5800412e-06 0)
(1.567016 8.0278879e-06 0)
(1.5670286 7.5090836e-06 0)
(1.5670403 7.021715e-06 0)
(1.5670513 6.5639926e-06 0)
(1.5670616 6.1342087e-06 0)
(1.5670712 5.7307545e-06 0)
(1.5670801 5.3521074e-06 0)
(1.5670885 4.9968255e-06 0)
(1.5670963 4.6635618e-06 0)
(1.5671035 4.3510064e-06 0)
(1.5671103 4.05798e-06 0)
(1.5671167 3.7832827e-06 0)
(1.5671226 3.5259136e-06 0)
(1.5671281 3.284728e-06 0)
(1.5671332 3.0589301e-06 0)
(1.5671379 2.847368e-06 0)
(1.5671424 2.6495253e-06 0)
(1.5671465 2.4641053e-06 0)
(1.5671503 2.2910187e-06 0)
(1.5671539 2.1285997e-06 0)
(1.5671572 1.9774882e-06 0)
(1.5671602 1.8352043e-06 0)
(1.5671631 1.7036897e-06 0)
(1.5671657 1.5788515e-06 0)
(1.5671682 1.4650186e-06 0)
(1.5671705 1.3549917e-06 0)
(1.5671725 1.2574563e-06 0)
(1.5671745 1.1594545e-06 0)
(1.5671762 1.0775293e-06 0)
(1.567178 9.884102e-07 0)
(1.5671794 9.2246365e-07 0)
(1.567181 8.3866096e-07 0)
(1.567182 7.9053948e-07 0)
(1.5671836 7.0777879e-07 0)
(1.5671842 6.8060628e-07 0)
(1.5671859 5.9379258e-07 0)
(1.556415 -2.416518e-05 0)
(1.5575918 -0.00014298643 0)
(1.557961 -0.00024731002 0)
(1.5581364 -0.00029525653 0)
(1.5584635 -0.00029491519 0)
(1.5589574 -0.00027458668 0)
(1.5595006 -0.00025458293 0)
(1.5600036 -0.00024059668 0)
(1.5604444 -0.00023006629 0)
(1.5608388 -0.00021966842 0)
(1.5612064 -0.00020831026 0)
(1.5615563 -0.00019656769 0)
(1.5618892 -0.00018529312 0)
(1.5622032 -0.00017488617 0)
(1.562498 -0.0001653115 0)
(1.5627746 -0.00015638095 0)
(1.5630348 -0.00014794946 0)
(1.5632799 -0.00013995419 0)
(1.5635111 -0.00013237645 0)
(1.563729 -0.00012520268 0)
(1.5639345 -0.00011841076 0)
(1.5641282 -0.00011197394 0)
(1.5643108 -0.00010586714 0)
(1.5644829 -0.00010007025 0)
(1.5646452 -9.4566837e-05 0)
(1.5647982 -8.9343001e-05 0)
(1.5649424 -8.4385471e-05 0)
(1.5650783 -7.9681984e-05 0)
(1.5652063 -7.5220417e-05 0)
(1.565327 -7.0989774e-05 0)
(1.5654406 -6.6979146e-05 0)
(1.5655477 -6.3178643e-05 0)
(1.5656486 -5.9578247e-05 0)
(1.5657435 -5.6168874e-05 0)
(1.5658329 -5.2941199e-05 0)
(1.5659171 -4.9886834e-05 0)
(1.5659964 -4.6997114e-05 0)
(1.5660709 -4.4264325e-05 0)
(1.5661411 -4.1680422e-05 0)
(1.5662071 -3.9238317e-05 0)
(1.5662692 -3.6930572e-05 0)
(1.5663276 -3.4750712e-05 0)
(1.5663826 -3.2691874e-05 0)
(1.5664342 -3.0748158e-05 0)
(1.5664827 -2.8913261e-05 0)
(1.5665283 -2.7181842e-05 0)
(1.5665712 -2.554812e-05 0)
(1.5666114 -2.4007268e-05 0)
(1.5666492 -2.2554006e-05 0)
(1.5666847 -2.1183999e-05 0)
(1.5667181 -1.9892422e-05 0)
(1.5667493 -1.8675384e-05 0)
(1.5667787 -1.7528494e-05 0)
(1.5668062 -1.6448277e-05 0)
(1.5668321 -1.5430735e-05 0)
(1.5668563 -1.4472763e-05 0)
(1.566879 -1.3570727e-05 0)
(1.5669003 -1.2721877e-05 0)
(1.5669203 -1.1922904e-05 0)
(1.5669389 -1.1171363e-05 0)
(1.5669565 -1.0464253e-05 0)
(1.5669728 -9.7994216e-06 0)
(1.5669882 -9.1741358e-06 0)
(1.5670025 -8.5864962e-06 0)
(1.567016 -8.0340238e-06 0)
(1.5670286 -7.5150592e-06 0)
(1.5670403 -7.0273463e-06 0)
(1.5670513 -6.5694281e-06 0)
(1.5670615 -6.1392598e-06 0)
(1.5670711 -5.7355775e-06 0)
(1.5670801 -5.3565218e-06 0)
(1.5670884 -5.0009846e-06 0)
(1.5670962 -4.6672874e-06 0)
(1.5671035 -4.3544659e-06 0)
(1.5671103 -4.0610083e-06 0)
(1.5671166 -3.7860484e-06 0)
(1.5671225 -3.5282559e-06 0)
(1.567128 -3.2868313e-06 0)
(1.5671331 -3.0606462e-06 0)
(1.5671379 -2.8488816e-06 0)
(1.5671423 -2.6506897e-06 0)
(1.5671465 -2.4651191e-06 0)
(1.5671503 -2.2917427e-06 0)
(1.5671538 -2.1292315e-06 0)
(1.5671571 -1.9778843e-06 0)
(1.5671602 -1.835575e-06 0)
(1.5671631 -1.7038944e-06 0)
(1.5671657 -1.5791002e-06 0)
(1.5671681 -1.4651615e-06 0)
(1.5671704 -1.3552526e-06 0)
(1.5671725 -1.2577014e-06 0)
(1.5671745 -1.1599313e-06 0)
(1.5671762 -1.0781288e-06 0)
(1.567178 -9.8934583e-07 0)
(1.5671793 -9.2359101e-07 0)
(1.567181 -8.3994415e-07 0)
(1.567182 -7.920093e-07 0)
(1.5671836 -7.0920402e-07 0)
(1.5671842 -6.8270827e-07 0)
(1.5671859 -5.9681209e-07 0)
(1.4420246 -7.1337565e-05 0)
(1.443054 -0.00040876713 0)
(1.4433133 -0.00069250873 0)
(1.4433854 -0.00081204817 0)
(1.4435848 -0.00080026888 0)
(1.4439192 -0.00073822751 0)
(1.4442846 -0.00067980119 0)
(1.4446073 -0.00063820259 0)
(1.444873 -0.00060572197 0)
(1.445098 -0.00057371107 0)
(1.4453004 -0.00053967583 0)
(1.4454882 -0.00050531436 0)
(1.4456625 -0.00047281585 0)
(1.4458224 -0.00044310247 0)
(1.4459682 -0.00041598609 0)
(1.4461012 -0.00039092733 0)
(1.4462232 -0.00036752099 0)
(1.4463356 -0.00034557692 0)
(1.4464394 -0.00032501407 0)
(1.4465354 -0.00030576189 0)
(1.4466243 -0.00028772937 0)
(1.4467067 -0.00027081617 0)
(1.4467831 -0.0002549301 0)
(1.4468541 -0.00023999355 0)
(1.4469202 -0.00022594156 0)
(1.4469818 -0.00021271684 0)
(1.4470391 -0.00020026694 0)
(1.4470927 -0.00018854294 0)
(1.4471426 -0.00017749964 0)
(1.4471893 -0.00016709517 0)
(1.447233 -0.00015729105 0)
(1.4472738 -0.00014805143 0)
(1.447312 -0.00013934313 0)
(1.4473477 -0.00013113497 0)
(1.4473812 -0.00012339794 0)
(1.4474126 -0.00011610468 0)
(1.447442 -0.00010922976 0)
(1.4474695 -0.00010274911 0)
(1.4474953 -9.6640322e-05 0)
(1.4475195 -9.0882119e-05 0)
(1.4475422 -8.5454718e-05 0)
(1.4475635 -8.0339273e-05 0)
(1.4475835 -7.5518254e-05 0)
(1.4476022 -7.097493e-05 0)
(1.4476198 -6.6693762e-05 0)
(1.4476363 -6.2659873e-05 0)
(1.4476517 -5.8859451e-05 0)
(1.4476662 -5.5279247e-05 0)
(1.4476798 -5.1906989e-05 0)
(1.4476925 -4.8730867e-05 0)
(1.4477045 -4.573995e-05 0)
(1.4477157 -4.2923695e-05 0)
(1.4477262 -4.0272378e-05 0)
(1.447736 -3.7776585e-05 0)
(1.4477452 -3.5427643e-05 0)
(1.4477538 -3.3217135e-05 0)
(1.4477619 -3.1137344e-05 0)
(1.4477695 -2.9180747e-05 0)
(1.4477765 -2.7340456e-05 0)
(1.4477832 -2.5609742e-05 0)
(1.4477894 -2.3982481e-05 0)
(1.4477952 -2.2452654e-05 0)
(1.4478006 -2.1014798e-05 0)
(1.4478057 -1.9663529e-05 0)
(1.4478104 -1.8393996e-05 0)
(1.4478149 -1.7201383e-05 0)
(1.447819 -1.6081368e-05 0)
(1.4478229 -1.5029639e-05 0)
(1.4478265 -1.4042369e-05 0)
(1.4478299 -1.3115695e-05 0)
(1.447833 -1.224622e-05 0)
(1.4478359 -1.1430468e-05 0)
(1.4478387 -1.066546e-05 0)
(1.4478412 -9.9480513e-06 0)
(1.4478436 -9.275639e-06 0)
(1.4478458 -8.6453377e-06 0)
(1.4478479 -8.0549486e-06 0)
(1.4478498 -7.5017548e-06 0)
(1.4478516 -6.9839875e-06 0)
(1.4478532 -6.498954e-06 0)
(1.4478548 -6.045464e-06 0)
(1.4478562 -5.6206056e-06 0)
(1.4478575 -5.2240226e-06 0)
(1.4478588 -4.8521387e-06 0)
(1.4478599 -4.5060098e-06 0)
(1.447861 -4.180572e-06 0)
(1.447862 -3.8793619e-06 0)
(1.4478629 -3.5942773e-06 0)
(1.4478637 -3.3334427e-06 0)
(1.4478645 -3.0828208e-06 0)
(1.4478652 -2.8590259e-06 0)
(1.4478659 -2.63673e-06 0)
(1.4478665 -2.4482222e-06 0)
(1.4478671 -2.2472689e-06 0)
(1.4478676 -2.0945627e-06 0)
(1.4478681 -1.9065438e-06 0)
(1.4478685 -1.7938506e-06 0)
(1.447869 -1.608926e-06 0)
(1.4478692 -1.5454961e-06 0)
(1.4478698 -1.3541952e-06 0)
(1.2076828 -0.00011374652 0)
(1.2084117 -0.00060429498 0)
(1.208431 -0.00097492116 0)
(1.2082671 -0.0010952956 0)
(1.2081832 -0.0010416639 0)
(1.2081847 -0.00093389301 0)
(1.2081975 -0.00084022602 0)
(1.2081764 -0.00077228629 0)
(1.2081185 -0.00071767157 0)
(1.2080399 -0.00066550326 0)
(1.2079547 -0.00061333569 0)
(1.2078692 -0.00056344649 0)
(1.2077843 -0.00051815582 0)
(1.2076996 -0.00047805114 0)
(1.2076155 -0.00044246267 0)
(1.2075326 -0.00041044658 0)
(1.2074518 -0.00038131826 0)
(1.2073738 -0.00035469241 0)
(1.2072988 -0.00033033031 0)
(1.2072268 -0.00030802028 0)
(1.207158 -0.00028754503 0)
(1.2070922 -0.00026869606 0)
(1.2070296 -0.00025129201 0)
(1.20697 -0.0002351823 0)
(1.2069133 -0.00022024193 0)
(1.2068596 -0.00020636319 0)
(1.2068087 -0.00019345156 0)
(1.2067604 -0.00018142252 0)
(1.2067147 -0.00017020148 0)
(1.2066715 -0.00015972181 0)
(1.2066307 -0.00014992484 0)
(1.2065921 -0.00014075761 0)
(1.2065557 -0.00013217312 0)
(1.2065213 -0.00012412835 0)
(1.2064889 -0.00011658494 0)
(1.2064582 -0.00010950743 0)
(1.2064294 -0.00010286415 0)
(1.2064022 -9.6625517e-05 0)
(1.2063766 -9.0765072e-05 0)
(1.2063525 -8.5257831e-05 0)
(1.2063297 -8.0081479e-05 0)
(1.2063083 -7.5214687e-05 0)
(1.2062882 -7.0638449e-05 0)
(1.2062693 -6.6334419e-05 0)
(1.2062515 -6.2286295e-05 0)
(1.2062347 -5.8478153e-05 0)
(1.2062189 -5.4895913e-05 0)
(1.2062041 -5.1525684e-05 0)
(1.2061902 -4.8355248e-05 0)
(1.2061772 -4.5372397e-05 0)
(1.2061649 -4.2566473e-05 0)
(1.2061533 -3.9926719e-05 0)
(1.2061425 -3.7443815e-05 0)
(1.2061324 -3.5108222e-05 0)
(1.2061228 -3.2911759e-05 0)
(1.2061139 -3.0845962e-05 0)
(1.2061055 -2.8903646e-05 0)
(1.2060976 -2.7077261e-05 0)
(1.2060903 -2.5360477e-05 0)
(1.2060834 -2.3746565e-05 0)
(1.2060769 -2.222996e-05 0)
(1.2060708 -2.0804632e-05 0)
(1.2060651 -1.9465676e-05 0)
(1.2060598 -1.8207703e-05 0)
(1.2060548 -1.7026402e-05 0)
(1.2060502 -1.5916928e-05 0)
(1.2060458 -1.4875487e-05 0)
(1.2060418 -1.3897734e-05 0)
(1.206038 -1.298035e-05 0)
(1.2060344 -1.2119407e-05 0)
(1.2060311 -1.1311998e-05 0)
(1.206028 -1.0554585e-05 0)
(1.2060251 -9.8446463e-06 0)
(1.2060224 -9.1789526e-06 0)
(1.2060199 -8.5553341e-06 0)
(1.2060175 -7.9708335e-06 0)
(1.2060153 -7.4236377e-06 0)
(1.2060133 -6.9109634e-06 0)
(1.2060114 -6.4313691e-06 0)
(1.2060096 -5.9821609e-06 0)
(1.2060079 -5.5623598e-06 0)
(1.2060064 -5.1691641e-06 0)
(1.206005 -4.8022245e-06 0)
(1.2060036 -4.4583543e-06 0)
(1.2060024 -4.1382026e-06 0)
(1.2060013 -3.8376343e-06 0)
(1.2060002 -3.5589807e-06 0)
(1.2059992 -3.2961844e-06 0)
(1.2059983 -3.0545955e-06 0)
(1.2059975 -2.8243504e-06 0)
(1.2059967 -2.6163352e-06 0)
(1.2059959 -2.4133756e-06 0)
(1.2059953 -2.2367142e-06 0)
(1.2059947 -2.0552197e-06 0)
(1.2059941 -1.9096738e-06 0)
(1.2059935 -1.7427754e-06 0)
(1.2059931 -1.6318606e-06 0)
(1.2059926 -1.4713508e-06 0)
(1.2059923 -1.4058122e-06 0)
(1.2059917 -1.2465836e-06 0)
(0.84294262 -0.00014303691 0)
(0.84320072 -0.00065618147 0)
(0.8428269 -0.00095623344 0)
(0.8422809 -0.00097207642 0)
(0.84178458 -0.00083934018 0)
(0.8413603 -0.00069033275 0)
(0.84097269 -0.00057915363 0)
(0.84060012 -0.00050360077 0)
(0.84024176 -0.00044629157 0)
(0.83990432 -0.00039628119 0)
(0.83959235 -0.00035119886 0)
(0.83930605 -0.00031211232 0)
(0.83904312 -0.00027960094 0)
(0.83880073 -0.00025288188 0)
(0.83857655 -0.0002305444 0)
(0.83836882 -0.00021134264 0)
(0.8381761 -0.00019447706 0)
(0.8379971 -0.00017949786 0)
(0.8378306 -0.00016612069 0)
(0.83767552 -0.00015411445 0)
(0.83753085 -0.00014327145 0)
(0.83739576 -0.00013341466 0)
(0.83726948 -0.00012440361 0)
(0.83715135 -0.00011613068 0)
(0.83704075 -0.00010851112 0)
(0.83693715 -0.00010147532 0)
(0.83684005 -9.4963473e-05 0)
(0.83674901 -8.8924062e-05 0)
(0.8366636 -8.331215e-05 0)
(0.83658345 -7.8089119e-05 0)
(0.83650823 -7.3220985e-05 0)
(0.83643761 -6.8678211e-05 0)
(0.8363713 -6.4434235e-05 0)
(0.83630903 -6.0465739e-05 0)
(0.83625054 -5.6751459e-05 0)
(0.8361956 -5.3272666e-05 0)
(0.836144 -5.0012055e-05 0)
(0.83609552 -4.6954356e-05 0)
(0.83604998 -4.408529e-05 0)
(0.83600721 -4.1392244e-05 0)
(0.83596703 -3.886325e-05 0)
(0.83592929 -3.6487749e-05 0)
(0.83589385 -3.4255615e-05 0)
(0.83586057 -3.2157933e-05 0)
(0.83582931 -3.0186024e-05 0)
(0.83579997 -2.8332281e-05 0)
(0.83577242 -2.6589218e-05 0)
(0.83574657 -2.495031e-05 0)
(0.8357223 -2.340903e-05 0)
(0.83569953 -2.1959729e-05 0)
(0.83567816 -2.0596701e-05 0)
(0.83565812 -1.9315047e-05 0)
(0.83563933 -1.8109726e-05 0)
(0.83562171 -1.6976457e-05 0)
(0.83560518 -1.5910794e-05 0)
(0.8355897 -1.4908999e-05 0)
(0.83557519 -1.3967111e-05 0)
(0.8355616 -1.3081846e-05 0)
(0.83554886 -1.224969e-05 0)
(0.83553694 -1.1467771e-05 0)
(0.83552577 -1.0732938e-05 0)
(0.83551533 -1.0042663e-05 0)
(0.83550555 -9.3941411e-06 0)
(0.83549641 -8.7851619e-06 0)
(0.83548785 -8.2132011e-06 0)
(0.83547986 -7.6763106e-06 0)
(0.83547238 -7.1722388e-06 0)
(0.8354654 -6.6992853e-06 0)
(0.83545888 -6.2554155e-06 0)
(0.83545279 -5.8391291e-06 0)
(0.83544711 -5.4486113e-06 0)
(0.8354418 -5.0825516e-06 0)
(0.83543685 -4.7393093e-06 0)
(0.83543224 -4.4177197e-06 0)
(0.83542794 -4.1163299e-06 0)
(0.83542393 -3.8341093e-06 0)
(0.8354202 -3.5697631e-06 0)
(0.83541673 -3.3223424e-06 0)
(0.83541349 -3.0907468e-06 0)
(0.83541048 -2.8740783e-06 0)
(0.83540768 -2.6714369e-06 0)
(0.83540509 -2.4818847e-06 0)
(0.83540267 -2.3048185e-06 0)
(0.83540043 -2.1391571e-06 0)
(0.83539834 -1.9847025e-06 0)
(0.83539641 -1.8400136e-06 0)
(0.83539462 -1.705563e-06 0)
(0.83539296 -1.5792323e-06 0)
(0.83539142 -1.4625535e-06 0)
(0.83539 -1.3521673e-06 0)
(0.83538868 -1.251356e-06 0)
(0.83538747 -1.1546572e-06 0)
(0.83538634 -1.0681663e-06 0)
(0.8353853 -9.8299024e-07 0)
(0.83538435 -9.0987605e-07 0)
(0.83538345 -8.3446129e-07 0)
(0.83538268 -7.7468274e-07 0)
(0.83538183 -7.0866113e-07 0)
(0.83538134 -6.6637322e-07 0)
(0.83538035 -6.1985191e-07 0)
(0.33387643 -0.000132149 0)
(0.33359449 -0.00040364917 0)
(0.33294883 -0.0004614352 0)
(0.33227276 -0.00036737547 0)
(0.33170825 -0.00024752559 0)
(0.33126609 -0.00016553521 0)
(0.33091245 -0.00012333362 0)
(0.33061526 -0.0001019953 0)
(0.33035642 -8.7417619e-05 0)
(0.33012813 -7.4774627e-05 0)
(0.32992652 -6.4028288e-05 0)
(0.32974807 -5.5767756e-05 0)
(0.32958893 -4.9789627e-05 0)
(0.3294455 -4.5362014e-05 0)
(0.32931501 -4.1789815e-05 0)
(0.32919544 -3.8669255e-05 0)
(0.32908541 -3.5846928e-05 0)
(0.32898386 -3.3284373e-05 0)
(0.32888987 -3.0962985e-05 0)
(0.32880271 -2.8854139e-05 0)
(0.32872169 -2.6924476e-05 0)
(0.32864626 -2.5146574e-05 0)
(0.32857595 -2.3501678e-05 0)
(0.32851032 -2.1977505e-05 0)
(0.32844901 -2.0564131e-05 0)
(0.32839169 -1.9252621e-05 0)
(0.32833805 -1.8034038e-05 0)
(0.32828784 -1.6900423e-05 0)
(0.3282408 -1.5844295e-05 0)
(0.32819672 -1.4859436e-05 0)
(0.32815539 -1.3939915e-05 0)
(0.32811662 -1.3080808e-05 0)
(0.32808025 -1.2277224e-05 0)
(0.32804613 -1.1525189e-05 0)
(0.3280141 -1.0820652e-05 0)
(0.32798403 -1.0160405e-05 0)
(0.3279558 -9.5410566e-06 0)
(0.32792929 -8.9600212e-06 0)
(0.32790441 -8.4144424e-06 0)
(0.32788104 -7.9022006e-06 0)
(0.3278591 -7.4208381e-06 0)
(0.32783849 -6.9686237e-06 0)
(0.32781915 -6.5434395e-06 0)
(0.32780098 -6.1438466e-06 0)
(0.32778393 -5.7679786e-06 0)
(0.32776792 -5.4146514e-06 0)
(0.3277529 -5.0822255e-06 0)
(0.32773879 -4.769706e-06 0)
(0.32772556 -4.4756183e-06 0)
(0.32771314 -4.1991429e-06 0)
(0.3277015 -3.9389656e-06 0)
(0.32769057 -3.6943949e-06 0)
(0.32768032 -3.4642298e-06 0)
(0.32767072 -3.2479062e-06 0)
(0.32766171 -3.0443436e-06 0)
(0.32765327 -2.8530681e-06 0)
(0.32764536 -2.6730809e-06 0)
(0.32763795 -2.5040051e-06 0)
(0.32763101 -2.3449364e-06 0)
(0.32762451 -2.1955639e-06 0)
(0.32761842 -2.0550438e-06 0)
(0.32761273 -1.923141e-06 0)
(0.3276074 -1.7990883e-06 0)
(0.32760241 -1.6826984e-06 0)
(0.32759775 -1.5732489e-06 0)
(0.32759339 -1.4706129e-06 0)
(0.32758932 -1.3741305e-06 0)
(0.32758551 -1.2837088e-06 0)
(0.32758196 -1.1987209e-06 0)
(0.32757864 -1.1191215e-06 0)
(0.32757554 -1.044336e-06 0)
(0.32757265 -9.7434202e-07 0)
(0.32756995 -9.0858987e-07 0)
(0.32756743 -8.470941e-07 0)
(0.32756509 -7.8935169e-07 0)
(0.3275629 -7.3538883e-07 0)
(0.32756087 -6.8472588e-07 0)
(0.32755897 -6.3741239e-07 0)
(0.32755721 -5.9301877e-07 0)
(0.32755557 -5.5158826e-07 0)
(0.32755404 -5.1272638e-07 0)
(0.32755263 -4.764725e-07 0)
(0.32755131 -4.42507e-07 0)
(0.32755008 -4.1082001e-07 0)
(0.32754895 -3.8117367e-07 0)
(0.3275479 -3.5348522e-07 0)
(0.32754692 -3.2767077e-07 0)
(0.32754601 -3.0349094e-07 0)
(0.32754517 -2.810709e-07 0)
(0.3275444 -2.5993692e-07 0)
(0.32754368 -2.4053051e-07 0)
(0.32754301 -2.2203692e-07 0)
(0.3275424 -2.0525856e-07 0)
(0.32754183 -1.8914456e-07 0)
(0.32754131 -1.7473457e-07 0)
(0.32754083 -1.6108179e-07 0)
(0.32754039 -1.4853443e-07 0)
(0.32753996 -1.3921155e-07 0)
(0.32753963 -1.2928265e-07 0)
(0.32753914 -1.3976832e-07 0)
)
;

boundaryField
{
    top
    {
        type            fixedValue;
        value           uniform (0 0 0);
    }
    inlet
    {
        type            pressureNormalInletOutletVelocity;
        phi             phi;
        rho             rho;