/*--------------------------------*- C++ -*----------------------------------*\
| =========                 |                                                 |
| \\      /  F ield         | OpenFOAM: The Open Source CFD Toolbox           |
|  \\    /   O peration     | Version:  v1812                                 |
|   \\  /    A nd           | Web:      www.OpenFOAM.com                      |
|    \\/     M anipulation  |                                                 |
\*---------------------------------------------------------------------------*/
FoamFile
{
    version     2.0;
    format      ascii;
    class       volVectorField;
    location    "4.35";
    object      U;
}
// * * * * * * * * * * * * * * * * * * * * * * * * * * * * * * * * * * * * * //

dimensions      [0 1 -1 0 0 0 0];


internalField   nonuniform List<vector> 
1000
(
(0.91890839 0.035821913 0)
(0.86271384 0.062195639 0)
(0.7870597 0.062510091 0)
(0.69536033 0.054550395 0)
(0.61089745 0.04453165 0)
(0.54411592 0.034015966 0)
(0.49343013 0.024187528 0)
(0.45479416 0.016144209 0)
(0.42544587 0.010265751 0)
(0.40347321 0.0063040923 0)
(0.38715778 0.0037975597 0)
(0.37496238 0.0023102456 0)
(0.36566219 0.001492879 0)
(0.35836313 0.0010849135 0)
(0.35244329 0.00090578324 0)
(0.34748289 0.0008406701 0)
(0.34320474 0.00082323268 0)
(0.33942903 0.00081867173 0)
(0.33604041 0.00081101314 0)
(0.33296462 0.00079470509 0)
(0.33015266 0.0007693955 0)
(0.32757071 0.00073688567 0)
(0.32519389 0.00069952224 0)
(0.32300272 0.00065946235 0)
(0.32098112 0.00061840652 0)
(0.31911529 0.00057755265 0)
(0.31739323 0.00053765213 0)
(0.31580436 0.00049911017 0)
(0.31433942 0.00046209314 0)
(0.31299032 0.00042662064 0)
(0.31175007 0.00039263285 0)
(0.31061257 0.0003600407 0)
(0.30957253 0.00032875854 0)
(0.30862522 0.00029872843 0)
(0.30776635 0.00026992855 0)
(0.30699183 0.00024237756 0)
(0.30629767 0.00021612724 0)
(0.3056798 0.00019125676 0)
(0.305134 0.00016785911 0)
(0.30465584 0.0001460315 0)
(0.30424063 0.00012586142 0)
(0.30388348 0.00010741823 0)
(0.30357931 9.0743808e-05 0)
(0.30332295 7.5848426e-05 0)
(0.30310922 6.2708169e-05 0)
(0.30293302 5.1265693e-05 0)
(0.30278943 4.1433729e-05 0)
(0.30267379 3.3099207e-05 0)
(0.30258179 2.6129872e-05 0)
(0.3025095 2.0380097e-05 0)
(0.3024534 1.5701215e-05 0)
(0.30241042 1.1945722e-05 0)
(0.30237791 8.9737181e-06 0)
(0.30235365 6.6543882e-06 0)
(0.30233577 4.8704586e-06 0)
(0.30232278 3.5175646e-06 0)
(0.30231347 2.5066967e-06 0)
(0.30230688 1.7619826e-06 0)
(0.30230229 1.2216836e-06 0)
(0.30229913 8.3516596e-07 0)
(0.30229698 5.6304507e-07 0)
(0.30229555 3.7407265e-07 0)
(0.30229461 2.4507067e-07 0)
(0.302294 1.5813992e-07 0)
(0.30229361 1.0068829e-07 0)
(0.30229336 6.3094724e-08 0)
(0.30229321 3.9104591e-08 0)
(0.30229311 2.382201e-08 0)
(0.30229306 1.4480214e-08 0)
(0.30229302 8.6075802e-09 0)
(0.302293 5.2314454e-09 0)
(0.30229299 3.0596876e-09 0)
(0.30229299 1.9639958e-09 0)
(0.30229298 1.1374661e-09 0)
(0.30229298 8.4303664e-10 0)
(0.30229298 4.6805251e-10 0)
(0.30229298 4.6906325e-10 0)
(0.30229298 2.1656513e-10 0)
(0.30229297 3.3621845e-10 0)
(0.30229298 9.5815632e-11 0)
(0.30229297 3.0899272e-10 0)
(0.30229298 3.4591713e-11 0)
(0.30229297 3.2610035e-10 0)
(0.30229297 -7.3587159e-13 0)
(0.30229297 4.3884743e-10 0)
(0.30229297 5.7435605e-11 0)
(0.30229297 7.850449e-10 0)
(0.30229297 4.6386364e-10 0)
(0.30229297 1.8765652e-09 0)
(0.30229297 1.9001962e-09 0)
(0.30229296 4.7536039e-09 0)
(0.30229296 5.8958634e-09 0)
(0.30229293 1.2435236e-08 0)
(0.30229294 1.8521601e-08 0)
(0.30229287 3.8678374e-08 0)
(0.30229286 6.758068e-08 0)
(0.30229267 1.3292902e-07 0)
(0.30229254 2.2954683e-07 0)
(0.30229189 3.965889e-07 0)
(0.30229134 5.4294283e-07 0)
(1.0016583 0.05381943 0)
(1.0359761 0.10128444 0)
(1.0597199 0.11073663 0)
(1.0628947 0.10592202 0)
(1.0515569 0.096228726 0)
(1.0340529 0.083934055 0)
(1.0142795 0.070327049 0)
(0.99360703 0.056981309 0)
(0.97292579 0.045107438 0)
(0.95310745 0.035236686 0)
(0.93479549 0.027401556 0)
(0.91829029 0.021387092 0)
(0.90362409 0.016884301 0)
(0.89068118 0.013569419 0)
(0.87928259 0.011147324 0)
(0.86923378 0.0093730314 0)
(0.86034637 0.008056004 0)
(0.85244994 0.0070557792 0)
(0.84539736 0.0062732716 0)
(0.8390653 0.0056409451 0)
(0.83335217 0.0051138767 0)
(0.82817481 0.004662585 0)
(0.82346528 0.0042677321 0)
(0.81916791 0.0039164627 0)
(0.81523689 0.0036000043 0)
(0.81163423 0.0033121346 0)
(0.80832825 0.0030482035 0)
(0.80529239 0.0028045346 0)
(0.8025043 0.0025780981 0)
(0.79994513 0.0023663632 0)
(0.79759891 0.0021672374 0)
(0.79545204 0.0019790409 0)
(0.79349279 0.0018004914 0)
(0.79171092 0.0016306929 0)
(0.79009721 0.0014691122 0)
(0.78864314 0.0013155397 0)
(0.78734052 0.0011700286 0)
(0.78618121 0.0010328257 0)
(0.78515697 0.00090429376 0)
(0.78425927 0.000784837 0)
(0.78347924 0.00067482955 0)
(0.78280769 0.00057455654 0)
(0.78223517 0.00048416785 0)
(0.78175207 0.00040364962 0)
(0.78134877 0.0003328119 0)
(0.78101583 0.00027129213 0)
(0.78074411 0.00021857245 0)
(0.78052498 0.00017400583 0)
(0.78035037 0.00013684988 0)
(0.78021297 0.00010630238 0)
(0.78010619 8.1540702e-05 0)
(0.78002428 6.1752694e-05 0)
(0.77996225 4.6165246e-05 0)
(0.7799159 3.4062445e-05 0)
(0.77988172 2.4801262e-05 0)
(0.77985686 1.7816872e-05 0)
(0.77983902 1.2626646e-05 0)
(0.7798264 8.8258579e-06 0)
(0.7798176 6.0838381e-06 0)
(0.77981154 4.1347806e-06 0)
(0.77980743 2.7702767e-06 0)
(0.77980469 1.8293014e-06 0)
(0.77980288 1.1904224e-06 0)
(0.77980172 7.6327712e-07 0)
(0.77980097 4.8228675e-07 0)
(0.7798005 3.002487e-07 0)
(0.77980021 1.8440626e-07 0)
(0.77980003 1.1165066e-07 0)
(0.77979992 6.7023821e-08 0)
(0.77979986 3.9706483e-08 0)
(0.77979982 2.3695736e-08 0)
(0.7797998 1.3950462e-08 0)
(0.77979979 8.6441237e-09 0)
(0.77979978 5.1991247e-09 0)
(0.77979978 3.6179538e-09 0)
(0.77979978 2.2514048e-09 0)
(0.77979977 1.9403657e-09 0)
(0.77979977 1.1731452e-09 0)
(0.77979977 1.3443401e-09 0)
(0.77979977 6.8183631e-10 0)
(0.77979977 1.1500197e-09 0)
(0.77979977 4.1479893e-10 0)
(0.77979977 1.169834e-09 0)
(0.77979977 2.6045697e-10 0)
(0.77979976 1.4483202e-09 0)
(0.77979977 3.1455468e-10 0)
(0.77979976 2.2633751e-09 0)
(0.77979978 1.0268338e-09 0)
(0.77979975 4.5532176e-09 0)
(0.77979978 3.8509307e-09 0)
(0.77979973 1.0638798e-08 0)
(0.77979978 1.2490537e-08 0)
(0.77979969 2.686129e-08 0)
(0.77979979 3.9413325e-08 0)
(0.7797996 7.7226569e-08 0)
(0.77979977 1.3321803e-07 0)
(0.77979935 2.4235876e-07 0)
(0.77979965 4.2210596e-07 0)
(0.77979854 6.6584718e-07 0)
(0.77979935 1.0098149e-06 0)
(1.0014244 0.026824855 0)
(1.0291272 0.062791353 0)
(1.0654292 0.077736553 0)
(1.098962 0.0805972 0)
(1.1253148 0.078285168 0)
(1.145053 0.073153893 0)
(1.1594858 0.066111264 0)
(1.1694287 0.058162038 0)
(1.1755353 0.05029671 0)
(1.1785738 0.043150636 0)
(1.179357 0.036972713 0)
(1.1785949 0.03177146 0)
(1.1768303 0.027451576 0)
(1.1744517 0.023886367 0)
(1.1717287 0.020947013 0)
(1.1688444 0.018514857 0)
(1.1659196 0.016486692 0)
(1.1630321 0.014777439 0)
(1.1602302 0.013319965 0)
(1.1575427 0.012062718 0)
(1.1549849 0.010966555 0)
(1.1525636 0.010001722 0)
(1.1502802 0.0091453623 0)
(1.148133 0.0083796099 0)
(1.1461183 0.0076902343 0)
(1.1442315 0.0070656923 0)
(1.1424672 0.0064964398 0)
(1.1408199 0.0059744243 0)
(1.1392841 0.0054927503 0)
(1.1378544 0.0050454989 0)
(1.1365257 0.0046276433 0)
(1.1352933 0.0042350023 0)
(1.1341528 0.0038642123 0)
(1.1331001 0.0035127064 0)
(1.1321317 0.0031786882 0)
(1.1312443 0.0028610794 0)
(1.1304347 0.0025594359 0)
(1.1297001 0.0022738327 0)
(1.1290375 0.0020047288 0)
(1.1284439 0.0017528191 0)
(1.1279161 0.0015188858 0)
(1.1274509 0.0013036576 0)
(1.1270443 0.0011076897 0)
(1.1266925 0.00093127122 0)
(1.1263912 0.00077436507 0)
(1.1261359 0.00063658212 0)
(1.1259221 0.00051718756 0)
(1.1257451 0.00041513436 0)
(1.1256003 0.00032911947 0)
(1.1254834 0.00025765203 0)
(1.1253902 0.00019912763 0)
(1.1253168 0.00015190031 0)
(1.1252598 0.00011434954 0)
(1.1252161 8.4934051e-05 0)
(1.1251831 6.2234118e-05 0)
(1.1251585 4.4978102e-05 0)
(1.1251404 3.2057264e-05 0)
(1.1251273 2.2528286e-05 0)
(1.1251179 1.5607127e-05 0)
(1.1251113 1.0656877e-05 0)
(1.1251068 7.1704433e-06 0)
(1.1251036 4.753289e-06 0)
(1.1251015 3.1034789e-06 0)
(1.1251001 1.9955435e-06 0)
(1.1250992 1.2633532e-06 0)
(1.1250986 7.8747464e-07 0)
(1.1250982 4.8345031e-07 0)
(1.125098 2.9228461e-07 0)
(1.1250978 1.7456591e-07 0)
(1.1250978 1.0280376e-07 0)
(1.1250977 6.0463085e-08 0)
(1.1250977 3.5191178e-08 0)
(1.1250977 2.1087165e-08 0)
(1.1250976 1.2565113e-08 0)
(1.1250976 8.2220975e-09 0)
(1.1250976 5.2549505e-09 0)
(1.1250976 4.0895145e-09 0)
(1.1250976 2.7617242e-09 0)
(1.1250976 2.7006716e-09 0)
(1.1250976 1.7167122e-09 0)
(1.1250976 2.2270089e-09 0)
(1.1250976 1.1654646e-09 0)
(1.1250976 2.1592519e-09 0)
(1.1250976 8.9688718e-10 0)
(1.1250976 2.4558275e-09 0)
(1.1250976 1.0038872e-09 0)
(1.1250976 3.4158983e-09 0)
(1.1250977 2.0611175e-09 0)
(1.1250976 6.0172292e-09 0)
(1.1250977 5.9203502e-09 0)
(1.1250976 1.2829321e-08 0)
(1.1250977 1.7577706e-08 0)
(1.1250975 3.1365136e-08 0)
(1.1250978 5.3147954e-08 0)
(1.1250974 8.9231667e-08 0)
(1.1250979 1.6592651e-07 0)
(1.1250972 2.6572979e-07 0)
(1.125098 4.683655e-07 0)
(1.1250967 6.6271985e-07 0)
(1.1250985 9.7210333e-07 0)
(1.0007347 0.011814722 0)
(1.0178472 0.030860927 0)
(1.0462163 0.041434442 0)
(1.0799018 0.04519357 0)
(1.1132664 0.04550235 0)
(1.143782 0.044080304 0)
(1.1708941 0.041439973 0)
(1.1945687 0.037973661 0)
(1.2148582 0.034195698 0)
(1.2319651 0.030536834 0)
(1.2462681 0.027221959 0)
(1.2582337 0.024313783 0)
(1.2683131 0.021797667 0)
(1.2768869 0.019633308 0)
(1.2842545 0.017773275 0)
(1.2906467 0.016168799 0)
(1.2962412 0.014774295 0)
(1.3011766 0.013550379 0)
(1.3055607 0.012465073 0)
(1.3094784 0.011493428 0)
(1.3129965 0.010616323 0)
(1.3161683 0.0098191165 0)
(1.3190373 0.0090904456 0)
(1.3216393 0.0084212802 0)
(1.3240042 0.007804243 0)
(1.3261576 0.0072331537 0)
(1.3281207 0.0067027046 0)
(1.3299119 0.0062082166 0)
(1.3315463 0.0057454826 0)
(1.3330372 0.005310707 0)
(1.3343955 0.0049005065 0)
(1.3356305 0.0045119333 0)
(1.3367504 0.0041425022 0)
(1.3377618 0.0037902213 0)
(1.3386711 0.0034536192 0)
(1.3394839 0.0031317529 0)
(1.3402056 0.0028241871 0)
(1.3408415 0.0025309416 0)
(1.3413971 0.0022524144 0)
(1.3418779 0.0019892808 0)
(1.3422898 0.0017423795 0)
(1.3426389 0.0015125894 0)
(1.3429312 0.0013007129 0)
(1.343173 0.0011073706 0)
(1.3433705 0.00093291965 0)
(1.3435296 0.00077739701 0)
(1.343656 0.00064049493 0)
(1.343755 0.00052156381 0)
(1.3438312 0.00041964306 0)
(1.3438891 0.00033351152 0)
(1.3439323 0.00026175285 0)
(1.343964 0.0002028268 0)
(1.3439868 0.00015514105 0)
(1.344003 0.0001171165 0)
(1.3440142 8.7242553e-05 0)
(1.3440218 6.4119752e-05 0)
(1.3440268 4.6488335e-05 0)
(1.34403 3.32449e-05 0)
(1.3440321 2.3445993e-05 0)
(1.3440333 1.6304917e-05 0)
(1.344034 1.1178907e-05 0)
(1.3440344 7.5554766e-06 0)
(1.3440346 5.0329577e-06 0)
(1.3440346 3.3040718e-06 0)
(1.3440347 2.1374278e-06 0)
(1.3440346 1.3624476e-06 0)
(1.3440346 8.5606707e-07 0)
(1.3440346 5.3006109e-07 0)
(1.3440346 3.2416669e-07 0)
(1.3440346 1.9553713e-07 0)
(1.3440346 1.1725277e-07 0)
(1.3440345 6.9579861e-08 0)
(1.3440345 4.1728094e-08 0)
(1.3440345 2.4984131e-08 0)
(1.3440345 1.566398e-08 0)
(1.3440345 9.8929506e-09 0)
(1.3440345 6.9792327e-09 0)
(1.3440345 4.7414971e-09 0)
(1.3440345 4.0700065e-09 0)
(1.3440345 2.7992313e-09 0)
(1.3440345 3.0635339e-09 0)
(1.3440345 1.9568624e-09 0)
(1.3440345 2.7492611e-09 0)
(1.3440345 1.6589858e-09 0)
(1.3440345 2.8686052e-09 0)
(1.3440346 1.8625198e-09 0)
(1.3440345 3.6003689e-09 0)
(1.3440346 3.0605018e-09 0)
(1.3440345 5.6649422e-09 0)
(1.3440346 6.8493076e-09 0)
(1.3440344 1.0972466e-08 0)
(1.3440347 1.7252399e-08 0)
(1.3440344 2.5453985e-08 0)
(1.3440348 4.7193157e-08 0)
(1.3440343 7.1392246e-08 0)
(1.344035 1.3644742e-07 0)
(1.3440342 2.0477662e-07 0)
(1.3440353 3.5286943e-07 0)
(1.3440339 4.7477123e-07 0)
(1.3440362 6.6810633e-07 0)
(1.0005903 0.0034629161 0)
(1.0136865 0.0093660204 0)
(1.0370283 0.013046807 0)
(1.0674202 0.014563263 0)
(1.1000315 0.014854526 0)
(1.1316428 0.014564992 0)
(1.1610744 0.013888339 0)
(1.1880674 0.012919244 0)
(1.2125204 0.011806501 0)
(1.2343938 0.010696415 0)
(1.2538075 0.00967272 0)
(1.2710336 0.0087627824 0)
(1.2864005 0.0079659035 0)
(1.3002104 0.0072720943 0)
(1.312709 0.0066686091 0)
(1.3240885 0.0061416045 0)
(1.3345008 0.0056775719 0)
(1.3440676 0.0052645672 0)
(1.3528868 0.0048928276 0)
(1.3610376 0.0045547847 0)
(1.3685848 0.0042447337 0)
(1.3755821 0.0039584107 0)
(1.3820749 0.0036925997 0)
(1.3881026 0.0034448114 0)
(1.3937001 0.0032130512 0)
(1.398898 0.0029956654 0)
(1.4037239 0.0027912347 0)
(1.408202 0.0025984917 0)
(1.4123541 0.0024162708 0)
(1.4161994 0.0022434903 0)
(1.419755 0.0020791602 0)
(1.423036 0.0019223963 0)
(1.4260557 0.0017724375 0)
(1.428826 0.0016286627 0)
(1.4313578 0.0014906098 0)
(1.4336614 0.0013579865 0)
(1.4357464 0.0012306733 0)
(1.4376225 0.0011087114 0)
(1.4392996 0.00099228434 0)
(1.440788 0.00088168501 0)
(1.4420986 0.00077727993 0)
(1.4432427 0.00067946409 0)
(1.4442325 0.00058861807 0)
(1.4450805 0.00050506506 0)
(1.4457997 0.00042903603 0)
(1.4464032 0.00036064236 0)
(1.4469041 0.00029985968 0)
(1.4473151 0.0002465231 0)
(1.4476483 0.00020033276 0)
(1.4479153 0.00016086995 0)
(1.4481266 0.00012761874 0)
(1.4482917 9.9994091e-05 0)
(1.448419 7.7369277e-05 0)
(1.448516 5.9105235e-05 0)
(1.4485889 4.4573844e-05 0)
(1.448643 3.3180325e-05 0)
(1.4486826 2.4376638e-05 0)
(1.4487112 1.767375e-05 0)
(1.4487315 1.2644386e-05 0)
(1.4487458 8.9263653e-06 0)
(1.4487557 6.217459e-06 0)
(1.4487624 4.27316e-06 0)
(1.4487669 2.8976259e-06 0)
(1.44877 1.9391418e-06 0)
(1.4487719 1.2806963e-06 0)
(1.4487732 8.3525101e-07 0)
(1.448774 5.3811816e-07 0)
(1.4487745 3.4288207e-07 0)
(1.4487748 2.1638021e-07 0)
(1.448775 1.3554625e-07 0)
(1.4487751 8.4593835e-08 0)
(1.4487752 5.2851148e-08 0)
(1.4487752 3.3250261e-08 0)
(1.4487752 2.1296265e-08 0)
(1.4487752 1.3950956e-08 0)
(1.4487752 9.5307359e-09 0)
(1.4487752 6.7698509e-09 0)
(1.4487752 5.0400428e-09 0)
(1.4487752 4.0170365e-09 0)
(1.4487753 3.2092661e-09 0)
(1.4487752 2.9142159e-09 0)
(1.4487753 2.4273322e-09 0)
(1.4487752 2.5058645e-09 0)
(1.4487753 2.2062621e-09 0)
(1.4487752 2.5252441e-09 0)
(1.4487753 2.4273577e-09 0)
(1.4487752 3.0110864e-09 0)
(1.4487753 3.3157307e-09 0)
(1.4487752 4.2690649e-09 0)
(1.4487753 5.5055438e-09 0)
(1.4487751 6.9319037e-09 0)
(1.4487754 1.0198713e-08 0)
(1.4487751 1.2751907e-08 0)
(1.4487756 2.1774762e-08 0)
(1.448775 3.0130216e-08 0)
(1.4487758 5.49649e-08 0)
(1.448775 7.9084817e-08 0)
(1.4487762 1.3163539e-07 0)
(1.4487748 1.7223346e-07 0)
(1.4487773 2.3606158e-07 0)
(1.0005903 -0.0034629156 0)
(1.0136865 -0.0093660189 0)
(1.0370283 -0.013046804 0)
(1.0674202 -0.014563258 0)
(1.1000315 -0.01485452 0)
(1.1316428 -0.014564983 0)
(1.1610744 -0.013888326 0)
(1.1880674 -0.012919228 0)
(1.2125204 -0.01180648 0)
(1.2343938 -0.010696389 0)
(1.2538075 -0.0096726868 0)
(1.2710336 -0.0087627417 0)
(1.2864005 -0.0079658546 0)
(1.3002104 -0.0072720368 0)
(1.312709 -0.0066685436 0)
(1.3240885 -0.0061415322 0)
(1.3345009 -0.0056774954 0)
(1.3440676 -0.0052644895 0)
(1.3528868 -0.0048927526 0)
(1.3610377 -0.004554717 0)
(1.3685849 -0.0042446779 0)
(1.3755821 -0.003958372 0)
(1.3820749 -0.0036925821 0)
(1.3881027 -0.0034448182 0)
(1.3937001 -0.0032130843 0)
(1.3988981 -0.0029957263 0)
(1.4037239 -0.0027913223 0)
(1.408202 -0.0025986041 0)
(1.4123541 -0.002416404 0)
(1.4161994 -0.0022436397 0)
(1.419755 -0.0020793201 0)
(1.4230359 -0.0019225607 0)
(1.4260556 -0.0017726005 0)
(1.4288259 -0.0016288186 0)
(1.4313577 -0.0014907542 0)
(1.4336612 -0.0013581155 0)
(1.4357462 -0.0012307848 0)
(1.4376224 -0.001108804 0)
(1.4392995 -0.00099235823 0)
(1.4407879 -0.00088174114 0)
(1.4420984 -0.00077732049 0)
(1.4432426 -0.00067949136 0)
(1.4442323 -0.00058863489 0)
(1.4450804 -0.00050507401 0)
(1.4457996 -0.00042903955 0)
(1.4464031 -0.00036064233 0)
(1.446904 -0.00029985737 0)
(1.447315 -0.00024651926 0)
(1.4476482 -0.00020032747 0)
(1.4479152 -0.00016086304 0)
(1.4481265 -0.00012760954 0)
(1.4482916 -9.9982011e-05 0)
(1.4484189 -7.7353592e-05 0)
(1.448516 -5.9085498e-05 0)
(1.4485889 -4.4549772e-05 0)
(1.4486429 -3.3151946e-05 0)
(1.4486825 -2.4344289e-05 0)
(1.4487111 -1.7637936e-05 0)
(1.4487314 -1.2605924e-05 0)
(1.4487457 -8.8860341e-06 0)
(1.4487556 -6.1762951e-06 0)
(1.4487624 -4.2319324e-06 0)
(1.4487669 -2.8572968e-06 0)
(1.4487699 -1.900273e-06 0)
(1.4487719 -1.2440364e-06 0)
(1.4487732 -8.0105162e-07 0)
(1.448774 -5.0683258e-07 0)
(1.4487745 -3.1447955e-07 0)
(1.4487748 -1.9108852e-07 0)
(1.448775 -1.1310769e-07 0)
(1.4487751 -6.5048447e-08 0)
(1.4487751 -3.5810964e-08 0)
(1.4487752 -1.8684275e-08 0)
(1.4487752 -8.7473048e-09 0)
(1.4487752 -3.3486055e-09 0)
(1.4487752 -4.1150737e-10 0)
(1.4487752 9.086492e-10 0)
(1.4487752 1.644189e-09 0)
(1.4487752 1.6980792e-09 0)
(1.4487752 1.9485223e-09 0)
(1.4487752 1.6506952e-09 0)
(1.4487753 1.9280569e-09 0)
(1.4487752 1.594549e-09 0)
(1.4487753 1.997342e-09 0)
(1.4487752 1.7116755e-09 0)
(1.4487753 2.223648e-09 0)
(1.4487752 2.0239773e-09 0)
(1.4487753 2.5519077e-09 0)
(1.4487752 2.3886507e-09 0)
(1.4487753 2.3469175e-09 0)
(1.4487751 1.7930555e-09 0)
(1.4487754 -7.1067008e-10 0)
(1.4487751 -3.1937914e-09 0)
(1.4487756 -1.2405876e-08 0)
(1.448775 -2.1166007e-08 0)
(1.4487758 -4.6181873e-08 0)
(1.448775 -7.0500709e-08 0)
(1.4487762 -1.2421504e-07 0)
(1.4487749 -1.6659352e-07 0)
(1.4487773 -2.3209272e-07 0)
(1.0007347 -0.011814721 0)
(1.0178472 -0.030860926 0)
(1.0462163 -0.041434439 0)
(1.0799018 -0.045193566 0)
(1.1132664 -0.045502344 0)
(1.143782 -0.044080295 0)
(1.1708941 -0.041439962 0)
(1.1945687 -0.037973646 0)
(1.2148582 -0.034195679 0)
(1.2319651 -0.03053681 0)
(1.2462681 -0.027221929 0)
(1.2582337 -0.024313747 0)
(1.2683131 -0.021797624 0)
(1.276887 -0.019633258 0)
(1.2842546 -0.017773219 0)
(1.2906467 -0.016168738 0)
(1.2962413 -0.014774231 0)
(1.3011766 -0.013550315 0)
(1.3055608 -0.012465013 0)
(1.3094786 -0.011493374 0)
(1.3129966 -0.010616279 0)
(1.3161684 -0.0098190862 0)
(1.3190374 -0.0090904321 0)
(1.3216394 -0.0084212856 0)
(1.3240044 -0.0078042687 0)
(1.3261577 -0.0072331996 0)
(1.3281208 -0.0067027699 0)
(1.3299119 -0.0062082988 0)
(1.3315463 -0.005745579 0)
(1.3330371 -0.0053108137 0)
(1.3343954 -0.0049006198 0)
(1.3356304 -0.0045120492 0)
(1.3367502 -0.0041426171 0)
(1.3377616 -0.0037903319 0)
(1.3386709 -0.0034537231 0)
(1.3394836 -0.0031318481 0)
(1.3402053 -0.0028242723 0)
(1.3408412 -0.0025310161 0)
(1.3413967 -0.0022524782 0)
(1.3418776 -0.0019893344 0)
(1.3422895 -0.0017424236 0)
(1.3426385 -0.0015126249 0)
(1.3429309 -0.0013007408 0)
(1.3431728 -0.0011073921 0)
(1.3433703 -0.00093293555 0)
(1.3435294 -0.00077740814 0)
(1.3436558 -0.00064050168 0)
(1.3437547 -0.0005215666 0)
(1.343831 -0.00041964188 0)
(1.3438888 -0.00033350654 0)
(1.343932 -0.0002617438 0)
(1.3439637 -0.00020281382 0)
(1.3439866 -0.00015512394 0)
(1.3440027 -0.00011709564 0)
(1.3440139 -8.7217953e-05 0)
(1.3440215 -6.4092131e-05 0)
(1.3440266 -4.6457929e-05 0)
(1.3440298 -3.3212689e-05 0)
(1.3440319 -2.3412318e-05 0)
(1.3440331 -1.6270864e-05 0)
(1.3440338 -1.1144782e-05 0)
(1.3440342 -7.5222936e-06 0)
(1.3440344 -5.0008456e-06 0)
(1.3440345 -3.2738859e-06 0)
(1.3440346 -2.1090827e-06 0)
(1.3440346 -1.3365875e-06 0)
(1.3440345 -8.3238301e-07 0)
(1.3440345 -5.0902907e-07 0)
(1.3440345 -3.0531598e-07 0)
(1.3440345 -1.7920661e-07 0)
(1.3440345 -1.0285134e-07 0)
(1.3440345 -5.7381416e-08 0)
(1.3440345 -3.1088177e-08 0)
(1.3440345 -1.6140356e-08 0)
(1.3440345 -7.9501853e-09 0)
(1.3440345 -3.5641907e-09 0)
(1.3440345 -1.3884644e-09 0)
(1.3440345 -1.5303076e-10 0)
(1.3440345 1.5309132e-10 0)
(1.3440345 7.512814e-10 0)
(1.3440345 4.1465755e-10 0)
(1.3440345 1.1223808e-09 0)
(1.3440345 5.1243498e-10 0)
(1.3440345 1.4412793e-09 0)
(1.3440345 6.3975287e-10 0)
(1.3440345 1.716812e-09 0)
(1.3440345 6.6466024e-10 0)
(1.3440346 1.5636703e-09 0)
(1.3440345 -3.2073279e-11 0)
(1.3440346 -6.392454e-10 0)
(1.3440344 -3.7704065e-09 0)
(1.3440347 -9.8652756e-09 0)
(1.3440344 -1.7892114e-08 0)
(1.3440348 -4.0250113e-08 0)
(1.3440343 -6.4741189e-08 0)
(1.344035 -1.3012886e-07 0)
(1.3440342 -1.9842372e-07 0)
(1.3440353 -3.4731e-07 0)
(1.344034 -4.7020886e-07 0)
(1.3440362 -6.646357e-07 0)
(1.0014244 -0.026824854 0)
(1.0291272 -0.062791351 0)
(1.0654292 -0.077736551 0)
(1.098962 -0.080597196 0)
(1.1253148 -0.078285163 0)
(1.145053 -0.073153886 0)
(1.1594858 -0.066111255 0)
(1.1694287 -0.058162026 0)
(1.1755354 -0.050296696 0)
(1.1785738 -0.043150619 0)
(1.179357 -0.036972692 0)
(1.1785949 -0.031771435 0)
(1.1768304 -0.027451547 0)
(1.1744518 -0.023886334 0)
(1.1717287 -0.020946976 0)
(1.1688445 -0.018514818 0)
(1.1659197 -0.016486653 0)
(1.1630322 -0.014777401 0)
(1.1602304 -0.01331993 0)
(1.1575429 -0.012062687 0)
(1.1549851 -0.010966531 0)
(1.1525638 -0.010001706 0)
(1.1502804 -0.0091453556 0)
(1.1481332 -0.0083796131 0)
(1.1461185 -0.0076902477 0)
(1.1442316 -0.0070657152 0)
(1.1424673 -0.0064964715 0)
(1.14082 -0.0059744634 0)
(1.1392841 -0.0054927953 0)
(1.1378544 -0.0050455486 0)
(1.1365256 -0.0046276959 0)
(1.1352932 -0.0042350572 0)
(1.1341526 -0.0038642679 0)
(1.1330999 -0.0035127626 0)
(1.1321314 -0.0031787435 0)
(1.131244 -0.0028611341 0)
(1.1304344 -0.0025594887 0)
(1.1296997 -0.0022738839 0)
(1.1290371 -0.002004777 0)
(1.1284435 -0.0017528644 0)
(1.1279158 -0.001518927 0)
(1.1274505 -0.0013036947 0)
(1.1270439 -0.001107722 0)
(1.1266921 -0.00093129853 0)
(1.1263908 -0.0007743872 0)
(1.1261355 -0.00063659889 0)
(1.1259217 -0.00051719924 0)
(1.1257447 -0.00041514084 0)
(1.1256 -0.00032912137 0)
(1.125483 -0.00025764931 0)
(1.1253898 -0.0001991211 0)
(1.1253165 -0.00015189002 0)
(1.1252595 -0.00011433642 0)
(1.1252158 -8.4918239e-05 0)
(1.1251828 -6.2216516e-05 0)
(1.1251583 -4.4958909e-05 0)
(1.1251402 -3.2037294e-05 0)
(1.1251271 -2.2507734e-05 0)
(1.1251177 -1.5586675e-05 0)
(1.1251112 -1.0636676e-05 0)
(1.1251066 -7.1510103e-06 0)
(1.1251035 -4.7346922e-06 0)
(1.1251014 -3.0860948e-06 0)
(1.1251 -1.9793577e-06 0)
(1.1250991 -1.2486015e-06 0)
(1.1250985 -7.7405627e-07 0)
(1.1250981 -4.7151329e-07 0)
(1.1250979 -2.8166782e-07 0)
(1.1250978 -1.6533744e-07 0)
(1.1250977 -9.4747817e-08 0)
(1.1250977 -5.3613863e-08 0)
(1.1250976 -2.9313655e-08 0)
(1.1250976 -1.6182033e-08 0)
(1.1250976 -8.3810677e-09 0)
(1.1250976 -4.7626618e-09 0)
(1.1250976 -2.2799924e-09 0)
(1.1250976 -1.6053859e-09 0)
(1.1250976 -5.3477659e-10 0)
(1.1250976 -7.7032028e-10 0)
(1.1250976 1.218671e-10 0)
(1.1250976 -5.2798325e-10 0)
(1.1250976 5.9613174e-10 0)
(1.1250976 -4.0816979e-10 0)
(1.1250976 1.041412e-09 0)
(1.1250976 -3.9612239e-10 0)
(1.1250976 1.3912613e-09 0)
(1.1250976 -7.6513954e-10 0)
(1.1250977 1.0673197e-09 0)
(1.1250976 -2.5063719e-09 0)
(1.1250977 -1.8746586e-09 0)
(1.1250976 -8.4885435e-09 0)
(1.1250977 -1.3034481e-08 0)
(1.1250975 -2.7007855e-08 0)
(1.1250978 -4.9294025e-08 0)
(1.1250974 -8.581062e-08 0)
(1.1250979 -1.6254734e-07 0)
(1.1250973 -2.6221434e-07 0)
(1.1250981 -4.6536432e-07 0)
(1.1250967 -6.6065703e-07 0)
(1.1250985 -9.7072115e-07 0)
(1.0016583 -0.05381943 0)
(1.0359761 -0.10128444 0)
(1.0597199 -0.11073663 0)
(1.0628947 -0.10592201 0)
(1.0515569 -0.096228723 0)
(1.0340529 -0.083934051 0)
(1.0142795 -0.070327044 0)
(0.99360705 -0.056981303 0)
(0.97292581 -0.045107431 0)
(0.95310748 -0.035236677 0)
(0.93479552 -0.027401547 0)
(0.91829034 -0.021387081 0)
(0.90362415 -0.016884289 0)
(0.89068126 -0.013569406 0)
(0.87928268 -0.01114731 0)
(0.86923389 -0.0093730176 0)
(0.86034649 -0.0080559901 0)
(0.85245008 -0.0070557657 0)
(0.8453975 -0.0062732589 0)
(0.83906546 -0.0056409336 0)
(0.83335233 -0.0051138666 0)
(0.82817497 -0.0046625765 0)
(0.82346543 -0.0042677253 0)
(0.81916805 -0.0039164579 0)
(0.81523701 -0.0036000016 0)
(0.81163433 -0.0033121341 0)
(0.80832833 -0.0030482053 0)
(0.80529244 -0.0028045387 0)
(0.80250433 -0.0025781047 0)
(0.79994512 -0.0023663721 0)
(0.79759887 -0.0021672487 0)
(0.79545195 -0.0019790543 0)
(0.79349268 -0.0018005071 0)
(0.79171077 -0.0016307105 0)
(0.79009703 -0.0014691318 0)
(0.78864293 -0.0013155605 0)
(0.78734027 -0.0011700505 0)
(0.78618093 -0.001032848 0)
(0.78515666 -0.0009043161 0)
(0.78425894 -0.00078485862 0)
(0.78347889 -0.00067485004 0)
(0.78280733 -0.00057457535 0)
(0.7822348 -0.00048418466 0)
(0.78175169 -0.0004036642 0)
(0.78134839 -0.00033282404 0)
(0.78101546 -0.00027130193 0)
(0.78074375 -0.00021857987 0)
(0.78052463 -0.00017401119 0)
(0.78035004 -0.00013685317 0)
(0.78021266 -0.00010630401 0)
(0.7801059 -8.1540703e-05 0)
(0.78002401 -6.1751492e-05 0)
(0.779962 -4.6162848e-05 0)
(0.77991567 -3.4059238e-05 0)
(0.77988151 -2.4797261e-05 0)
(0.77985667 -1.7812406e-05 0)
(0.77983885 -1.2621713e-05 0)
(0.77982625 -8.8207463e-06 0)
(0.77981746 -6.0785562e-06 0)
(0.77981142 -4.1295505e-06 0)
(0.77980733 -2.7650823e-06 0)
(0.7798046 -1.8243368e-06 0)
(0.77980281 -1.1856773e-06 0)
(0.77980165 -7.5888378e-07 0)
(0.77980091 -4.7819553e-07 0)
(0.77980045 -2.9657297e-07 0)
(0.77980017 -1.8109569e-07 0)
(0.7798 -1.0876951e-07 0)
(0.7797999 -6.4486304e-08 0)
(0.77979985 -3.7561699e-08 0)
(0.77979981 -2.1863568e-08 0)
(0.7797998 -1.2448443e-08 0)
(0.77979978 -7.3608084e-09 0)
(0.77979978 -4.1611372e-09 0)
(0.77979978 -2.7313136e-09 0)
(0.77979978 -1.5305343e-09 0)
(0.77979977 -1.2765051e-09 0)
(0.77979978 -6.0290383e-10 0)
(0.77979977 -7.8537953e-10 0)
(0.77979978 -1.6251386e-10 0)
(0.77979977 -5.6994453e-10 0)
(0.77979978 1.787676e-10 0)
(0.77979977 -4.6692802e-10 0)
(0.77979978 5.0840904e-10 0)
(0.77979977 -4.9891213e-10 0)
(0.77979979 7.6170706e-10 0)
(0.77979977 -1.0064937e-09 0)
(0.77979979 3.2934348e-10 0)
(0.77979976 -3.1724889e-09 0)
(0.7797998 -2.5823805e-09 0)
(0.77979975 -9.5774565e-09 0)
(0.7797998 -1.1551484e-08 0)
(0.77979971 -2.5849472e-08 0)
(0.77979981 -3.8061617e-08 0)
(0.77979962 -7.5000868e-08 0)
(0.77979979 -1.3036626e-07 0)
(0.77979937 -2.403706e-07 0)
(0.77979968 -4.2236842e-07 0)
(0.77979856 -6.6745976e-07 0)
(0.77979938 -1.0113859e-06 0)
(0.91890839 -0.035821913 0)
(0.86271384 -0.062195638 0)
(0.7870597 -0.06251009 0)
(0.69536033 -0.054550394 0)
(0.61089745 -0.044531649 0)
(0.54411593 -0.034015965 0)
(0.49343014 -0.024187526 0)
(0.45479417 -0.016144208 0)
(0.42544588 -0.010265749 0)
(0.40347323 -0.0063040907 0)
(0.38715781 -0.0037975581 0)
(0.3749624 -0.0023102441 0)
(0.36566222 -0.0014928775 0)
(0.35836317 -0.001084912 0)
(0.35244332 -0.00090578164 0)
(0.34748293 -0.00084066817 0)
(0.34320478 -0.0008232302 0)
(0.33942908 -0.00081866874 0)
(0.33604046 -0.00081100956 0)
(0.33296467 -0.00079470098 0)
(0.33015272 -0.00076939069 0)
(0.32757077 -0.00073688046 0)
(0.32519395 -0.00069951676 0)
(0.32300278 -0.00065945708 0)
(0.32098117 -0.00061840154 0)
(0.31911534 -0.00057754818 0)
(0.31739327 -0.00053764832 0)
(0.31580439 -0.0004991071 0)
(0.31433943 -0.00046209106 0)
(0.31299033 -0.00042661916 0)
(0.31175006 -0.00039263238 0)
(0.31061255 -0.00036004058 0)
(0.30957249 -0.00032875947 0)
(0.30862517 -0.00029872952 0)
(0.30776628 -0.00026993058 0)
(0.30699174 -0.00024237954 0)
(0.30629757 -0.00021613 0)
(0.30567968 -0.00019125942 0)
(0.30513388 -0.00016786231 0)
(0.3046557 -0.00014603451 0)
(0.30424049 -0.00012586468 0)
(0.30388333 -0.00010742136 0)
(0.30357916 -9.0746958e-05 0)
(0.30332281 -7.5851512e-05 0)
(0.30310908 -6.2711079e-05 0)
(0.30293288 -5.1268642e-05 0)
(0.30278929 -4.1436409e-05 0)
(0.30267366 -3.3102007e-05 0)
(0.30258167 -2.6132298e-05 0)
(0.30250938 -2.0382646e-05 0)
(0.30245329 -1.5703323e-05 0)
(0.30241032 -1.1947904e-05 0)
(0.30237782 -8.975381e-06 0)
(0.30235357 -6.656068e-06 0)
(0.3023357 -4.8716117e-06 0)
(0.30232272 -3.5186953e-06 0)
(0.30231341 -2.5073183e-06 0)
(0.30230683 -1.7625987e-06 0)
(0.30230224 -1.2218682e-06 0)
(0.30229909 -8.3537454e-07 0)
(0.30229695 -5.6289328e-07 0)
(0.30229553 -3.7401402e-07 0)
(0.30229459 -2.4474352e-07 0)
(0.30229398 -1.5794728e-07 0)
(0.30229359 -1.0027746e-07 0)
(0.30229335 -6.2872725e-08 0)
(0.3022932 -3.8717134e-08 0)
(0.30229311 -2.3632938e-08 0)
(0.30229305 -1.413314e-08 0)
(0.30229302 -8.4789873e-09 0)
(0.302293 -4.9645549e-09 0)
(0.30229299 -2.9964782e-09 0)
(0.30229299 -1.7482488e-09 0)
(0.30229298 -1.1291088e-09 0)
(0.30229298 -6.8207829e-10 0)
(0.30229298 -4.9172516e-10 0)
(0.30229298 -3.1597139e-10 0)
(0.30229298 -2.57605e-10 0)
(0.30229298 -1.9327251e-10 0)
(0.30229298 -1.268097e-10 0)
(0.30229298 -1.2454526e-10 0)
(0.30229298 -2.5155908e-11 0)
(0.30229298 -9.19795e-11 0)
(0.30229298 8.8289068e-11 0)
(0.30229298 -1.0374101e-10 0)
(0.30229298 1.1845398e-10 0)
(0.30229298 -4.2256169e-10 0)
(0.30229298 -3.8470515e-10 0)
(0.30229297 -1.8267881e-09 0)
(0.30229298 -2.360961e-09 0)
(0.30229296 -5.2476743e-09 0)
(0.30229297 -6.519594e-09 0)
(0.30229294 -1.2396051e-08 0)
(0.30229295 -1.7388833e-08 0)
(0.30229288 -3.6238971e-08 0)
(0.30229287 -6.5530888e-08 0)
(0.30229268 -1.3308599e-07 0)
(0.30229255 -2.3178048e-07 0)
(0.3022919 -3.9903188e-07 0)
(0.30229135 -5.445067e-07 0)
)
;

boundaryField
{
    top
    {
        type            fixedValue;
        value           uniform (0 0 0);
    }
    inlet
    {
        type            fixedValue;
        value           uniform (1 0 0);
    }
    outlet
    {
        type            zeroGradient;
    }
    bottom
    {
        type            fixedValue;
        value           uniform (0 0 0);
    }
    back
    {
        type            empty;
    }
    front
    {
        type            empty;
    }
}


// ************************************************************************* //
