/*--------------------------------*- C++ -*----------------------------------*\
| =========                 |                                                 |
| \\      /  F ield         | OpenFOAM: The Open Source CFD Toolbox           |
|  \\    /   O peration     | Version:  v1812                                 |
|   \\  /    A nd           | Web:      www.OpenFOAM.com                      |
|    \\/     M anipulation  |                                                 |
\*---------------------------------------------------------------------------*/
FoamFile
{
    version     2.0;
    format      ascii;
    class       surfaceScalarField;
    location    "19.55";
    object      phi;
}
// * * * * * * * * * * * * * * * * * * * * * * * * * * * * * * * * * * * * * //

dimensions      [0 3 -1 0 0 0 0];
oriented        oriented;


internalField   nonuniform List<scalar> 
1890
(
0.0093061958
0.00069380425
0.0082843931
0.0010218027
0.0073298986
0.00095449446
0.0064869553
0.00084294331
0.0057695845
0.00071737078
0.00518986
0.00057972443
0.004738168
0.00045169205
0.00439519
0.00034297802
0.0041390268
0.00025616318
0.003949107
0.00018991983
0.003807888
0.00014121897
0.0037013782
0.0001065098
0.003619058
8.2320219e-05
0.0035534117
6.5646243e-05
0.0034992845
5.4127248e-05
0.0034532444
4.6040037e-05
0.0034130502
4.0194282e-05
0.0033772574
3.5792748e-05
0.0033449386
3.2318757e-05
0.0033154894
2.9449282e-05
0.0032885008
2.6988583e-05
0.0032636805
2.4820307e-05
0.003240805
2.2875484e-05
0.0032196926
2.1112417e-05
0.0032001879
1.9504651e-05
0.0031821539
1.8034006e-05
0.0031654672
1.6686718e-05
0.0031500158
1.5451355e-05
0.0031356979
1.4317859e-05
0.0031224209
1.3277069e-05
0.0031101003
1.2320594e-05
0.0030986596
1.1440724e-05
0.0030880292
1.0630439e-05
0.0030781458
9.8833689e-06
0.003068952
9.1937714e-06
0.0030603955
8.5564918e-06
0.0030524286
7.9669097e-06
0.0030450077
7.4208932e-06
0.0030380929
6.9147389e-06
0.0030316478
6.445118e-06
0.0030256388
6.0090528e-06
0.0030200349
5.6038449e-06
0.0030148079
5.2270741e-06
0.0030099313
4.8765397e-06
0.0030053811
4.5502502e-06
0.0030011347
4.2464015e-06
0.0029971713
3.9633356e-06
0.0029934717
3.6995566e-06
0.002990018
3.4536771e-06
0.0029867936
3.2244182e-06
0.002983783
3.010617e-06
0.0029809718
2.8111743e-06
0.0029783468
2.625093e-06
0.0029758954
2.4514427e-06
0.002973606
2.2893579e-06
0.0029714679
2.1380619e-06
0.0029694711
1.9968102e-06
0.0029676061
1.864954e-06
0.0029658642
1.7418589e-06
0.0029642373
1.6269401e-06
0.0029627176
1.5196526e-06
0.0029612982
1.4194678e-06
0.0029599723
1.3259074e-06
0.0029587338
1.2385122e-06
0.002957577
1.1568622e-06
0.0029564964
1.080585e-06
0.002955487
1.0093249e-06
0.0029545442
9.4276815e-07
0.0029536635
8.806343e-07
0.0029528409
8.2261852e-07
0.0029520724
7.6846716e-07
0.0029513546
7.1789816e-07
0.002950684
6.7064954e-07
0.0029500575
6.2648565e-07
0.0029494724
5.8519223e-07
0.0029489258
5.4658026e-07
0.0029484152
5.1051239e-07
0.0029479383
4.7681366e-07
0.0029474929
4.4539887e-07
0.0029470768
4.1607749e-07
0.002946688
3.8875247e-07
0.0029463249
3.632095e-07
0.0029459856
3.3935622e-07
0.0029456687
3.1698386e-07
0.0029453726
2.9608199e-07
0.0029450962
2.7642295e-07
0.0029448379
2.5821281e-07
0.0029445967
2.4105828e-07
0.0029443712
2.2532803e-07
0.0029441609
2.104126e-07
0.0029439642
1.9684701e-07
0.0029437803
1.8377515e-07
0.0029436083
1.7211562e-07
0.002943448
1.603773e-07
0.0029432978
1.5018578e-07
0.0029431574
1.4029391e-07
0.0029430254
1.321097e-07
0.0029429003
1.2511218e-07
0.0029427808
1.1941395e-07
1.257728e-07
0.010339525
0.00035427931
0.010570754
0.00079057333
0.010606301
0.00091894817
0.010547572
0.00090167133
0.010422317
0.0008426262
0.010244356
0.00075768557
0.010039421
0.00065662743
0.0098287427
0.00055365586
0.009625135
0.00045977083
0.0094353013
0.00037975353
0.0092624277
0.00031409258
0.0091075333
0.00026140425
0.008970154
0.00021969948
0.0088489024
0.00018689785
0.0087419716
0.00016105801
0.0086474927
0.00014051893
0.008563694
0.00012399295
0.0084890108
0.00011047599
0.0084221097
9.9219866e-05
0.0083618776
8.9681405e-05
0.0083073955
8.1470669e-05
0.0082579079
7.4307847e-05
0.0082127929
6.7990493e-05
0.0081715354
6.2369982e-05
0.008133705
5.7335005e-05
0.0080989388
5.2800173e-05
0.0080669273
4.8698255e-05
0.0080374037
4.4974949e-05
0.0080101362
4.1585385e-05
0.0079849214
3.8491846e-05
0.0079615798
3.5662154e-05
0.0079399519
3.3068611e-05
0.0079198952
3.0687171e-05
0.0079012817
2.8496847e-05
0.0078839962
2.6479237e-05
0.0078679346
2.4618137e-05
0.0078530023
2.2899236e-05
0.0078391133
2.1309838e-05
0.0078261894
1.9838655e-05
0.0078141589
1.8475607e-05
0.0078029563
1.7211663e-05
0.0077925214
1.6038724e-05
0.007782799
1.4949478e-05
0.0077737382
1.3937335e-05
0.0077652921
1.2996317e-05
0.0077574175
1.2120996e-05
0.0077500744
1.1306444e-05
0.0077432258
1.0548141e-05
0.0077368375
9.8419658e-06
0.0077308778
9.1841303e-06
0.0077253173
8.5711426e-06
0.0077201287
7.9998116e-06
0.0077152866
7.467164e-06
0.0077107676
6.9704815e-06
0.0077065497
6.5072457e-06
0.0077026126
6.0751301e-06
0.0076989374
5.6720096e-06
0.0076955064
5.2958928e-06
0.0076923033
4.9449534e-06
0.0076893128
4.6174683e-06
0.0076865207
4.3118334e-06
0.0076839136
4.0265681e-06
0.0076814792
3.7602641e-06
0.0076792061
3.5116433e-06
0.0076770834
3.2795044e-06
0.0076751012
3.0627426e-06
0.0076732502
2.8603534e-06
0.0076715215
2.6713909e-06
0.0076699072
2.4949737e-06
0.0076683996
2.3302869e-06
0.0076669916
2.1765254e-06
0.0076656765
2.032941e-06
0.0076644483
1.8988389e-06
0.0076633013
1.7735448e-06
0.0076622299
1.6564956e-06
0.0076612293
1.5471329e-06
0.0076602948
1.4450074e-06
0.007659422
1.3496376e-06
0.0076586068
1.2606475e-06
0.0076578453
1.1775473e-06
0.0076571341
1.1000361e-06
0.0076564698
1.027533e-06
0.0076558493
9.5989792e-07
0.0076552697
8.9649767e-07
0.0076547283
8.3743584e-07
0.0076542228
7.8189521e-07
0.0076537505
7.3046557e-07
0.0076533094
6.8214143e-07
0.0076528972
6.3761e-07
0.0076525127
5.9497035e-07
0.0076521529
5.5670554e-07
0.0076518171
5.1953275e-07
0.0076515027
4.8640629e-07
0.0076512105
4.5245349e-07
0.0076509355
4.2509934e-07
0.0076506807
3.9525803e-07
0.0076504386
3.743315e-07
0.0076502165
3.4709954e-07
0.0076499999
3.3607027e-07
3.1077367e-07
0.010188704
0.00016557515
0.010530487
0.00044879097
0.010851453
0.00059798174
0.011124174
0.00062895021
0.011350581
0.00061621883
0.011524486
0.00058378053
0.01164633
0.00053478419
0.011724155
0.00047583049
0.011767999
0.00041592665
0.011786639
0.00036111399
0.011787114
0.0003136171
0.011775058
0.00027346024
0.011754861
0.00023989717
0.011729768
0.00021199029
0.011702054
0.00018877259
0.011673239
0.00016933387
0.011644339
0.00015289295
0.011616003
0.00013881182
0.011588629
0.00012659378
0.011562446
0.00011586444
0.011537572
0.00010634493
0.011514052
9.7826991e-05
0.01149189
9.0153351e-05
0.011471056
8.3203354e-05
0.011451509
7.6882601e-05
0.011433193
7.1115551e-05
0.011416051
6.5840286e-05
0.011400021
6.10049e-05
0.011385042
5.6565063e-05
0.011371051
5.2482331e-05
0.01135799
4.8723024e-05
0.011345801
4.5257384e-05
0.01133443
4.2058989e-05
0.011323822
3.9104266e-05
0.011313929
3.6372112e-05
0.011304704
3.3843597e-05
0.011296101
3.1501682e-05
0.01128808
2.9331008e-05
0.011280601
2.7317692e-05
0.011273628
2.544917e-05
0.011267125
2.3714047e-05
0.011261062
2.2101952e-05
0.011255408
2.0603457e-05
0.011250135
1.9209948e-05
0.011245218
1.7913563e-05
0.011240632
1.6707105e-05
0.011236354
1.558397e-05
0.011232365
1.4538105e-05
0.011228643
1.3563924e-05
0.01122517
1.2656294e-05
0.011221931
1.1810486e-05
0.011218909
1.1022109e-05
0.011216089
1.0287137e-05
0.011213457
9.601822e-06
0.011211002
8.962712e-06
0.01120871
8.366621e-06
0.011206572
7.8105873e-06
0.011204576
7.291875e-06
0.011202713
6.8079172e-06
0.011200974
6.3563446e-06
0.011199351
5.9349562e-06
0.011197836
5.5416773e-06
0.011196422
5.1746161e-06
0.011195101
4.8319829e-06
0.011193868
4.5121433e-06
0.011192718
4.213566e-06
0.011191643
3.9348336e-06
0.01119064
3.6746275e-06
0.011189703
3.4317194e-06
0.011188829
3.2049281e-06
0.011188012
2.9931956e-06
0.011187249
2.7954705e-06
0.011186537
2.6108283e-06
0.011185873
2.4383766e-06
0.011185252
2.2773376e-06
0.011184672
2.1269249e-06
0.01118413
1.9865101e-06
0.011183625
1.8553668e-06
0.011183152
1.7329924e-06
0.011182711
1.618642e-06
0.0111823
1.5119377e-06
0.011181915
1.412122e-06
0.011181556
1.3190664e-06
0.01118122
1.2318408e-06
0.011180907
1.1506873e-06
0.011180614
1.0745153e-06
0.011180341
1.0041095e-06
0.011180086
9.3726337e-07
0.011179847
8.7618297e-07
0.011179624
8.1775796e-07
0.011179416
7.65331e-07
0.011179222
7.1273974e-07
0.01117904
6.681026e-07
0.011178872
6.2105399e-07
0.011178712
5.8530865e-07
0.011178566
5.4111132e-07
0.011178425
5.1516706e-07
0.0111783
4.7226348e-07
0.011178177
4.5903987e-07
4.1608082e-07
0.010097182
6.8393549e-05
0.010346961
0.0001990111
0.010662469
0.00028247385
0.010982753
0.00030866646
0.011290229
0.00030874339
0.011575251
0.00029875786
0.011829022
0.00028101344
0.012047865
0.00025698754
0.012233272
0.00023051981
0.01238924
0.00020514589
0.012520295
0.00018256234
0.012630755
0.00016299955
0.012724428
0.00014622489
0.012804515
0.0001319031
0.012873613
0.00011967425
0.012933772
0.0001091746
0.012986596
0.00010006906
0.013033332
9.2076356e-05
0.01307495
8.4975242e-05
0.013112216
7.8598602e-05
0.013145739
7.2822292e-05
0.013176012
6.7553927e-05
0.013203441
6.272391e-05
0.013228366
5.827888e-05
0.013251071
5.4176976e-05
0.013271802
5.0384423e-05
0.01329077
4.6873155e-05
0.013308155
4.361917e-05
0.013324119
4.060145e-05
0.0133388
3.7801273e-05
0.013352321
3.5201748e-05
0.013364791
3.2787527e-05
0.013376306
3.0544587e-05
0.01338695
2.8460081e-05
0.0133968
2.6522212e-05
0.013405923
2.4720127e-05
0.013414381
2.3043837e-05
0.013422228
2.1484137e-05
0.013429513
2.0032551e-05
0.013436281
1.868126e-05
0.013442572
1.7423052e-05
0.013448423
1.6251271e-05
0.013453866
1.5159759e-05
0.013458933
1.4142829e-05
0.013463652
1.3195221e-05
0.013468047
1.2312067e-05
0.013472142
1.1488863e-05
0.013475959
1.0721429e-05
0.013479517
1.0005899e-05
0.013482834
9.3386806e-06
0.013485928
8.716433e-06
0.013488814
8.1360696e-06
0.013491507
7.5947032e-06
0.013494019
7.0896713e-06
0.013496363
6.6184981e-06
0.013498551
6.1788845e-06
0.013500593
5.7686897e-06
0.013502499
5.3859129e-06
0.013504278
5.0287008e-06
0.013505939
4.6953223e-06
0.01350749
4.3841597e-06
0.013508938
4.0937259e-06
0.01351029
3.8226141e-06
0.013511552
3.569536e-06
0.013512731
3.3332824e-06
0.013513832
3.112731e-06
0.01351486
2.9068375e-06
0.01351582
2.7146148e-06
0.013516716
2.5351529e-06
0.013517554
2.3675932e-06
0.013518336
2.2111226e-06
0.013519066
2.0650067e-06
0.013519748
1.9285671e-06
0.013520386
1.8011463e-06
0.013520981
1.6821894e-06
0.013521536
1.5710932e-06
0.013522056
1.4673872e-06
0.013522541
1.3705194e-06
0.013522994
1.2801112e-06
0.013523417
1.1955962e-06
0.013523812
1.116731e-06
0.013524181
1.0429358e-06
0.013524526
9.7418442e-07
0.013524848
9.0971494e-07
0.013525149
8.4990956e-07
0.01352543
7.9366375e-07
0.013525692
7.4161889e-07
0.013525937
6.9215966e-07
0.013526166
6.4738604e-07
0.01352638
6.0399154e-07
0.01352658
5.6509363e-07
0.013526766
5.2577213e-07
0.013526941
4.937468e-07
0.013527104
4.5851216e-07
0.013527256
4.3263229e-07
0.013527399
3.9882401e-07
0.013527533
3.807625e-07
0.013527658
3.4710404e-07
0.013527779
3.3803475e-07
3.0564112e-07
0.010068394
-5.0930914e-12
0.010267405
-1.3180545e-11
0.010549879
-1.4261438e-11
0.010858545
-1.2281747e-11
0.011167288
-9.6328804e-12
0.011466046
-9.6227621e-12
0.01174706
-1.0414652e-11
0.012004047
-1.1915014e-11
0.012234567
-1.3422892e-11
0.012439713
-1.5227806e-11
0.012622275
-1.5741984e-11
0.012785275
-1.4645832e-11
0.0129315
-1.3516305e-11
0.013063403
-1.1950282e-11
0.013183077
-1.0452658e-11
0.013292252
-9.7776145e-12
0.013392321
-9.9062879e-12
0.013484397
-1.0523752e-11
0.013569373
-9.5581448e-12
0.013647971
-7.9442776e-12
0.013720793
-7.9503566e-12
0.013788347
-1.0902966e-11
0.013851071
-1.3490991e-11
0.01390935
-1.5249078e-11
0.013963527
-1.295987e-11
0.014013912
-8.2054648e-12
0.014060785
-7.0725723e-12
0.014104404
-8.7426432e-12
0.014145005
-8.304468e-12
0.014182807
-6.7469278e-12
0.014218009
-4.1270448e-12
0.014250796
-4.8214035e-12
0.014281341
-8.6510918e-12
0.014309801
-1.371405e-11
0.014336323
-1.6198662e-11
0.014361043
-1.3373016e-11
0.014384087
-6.8311156e-12
0.014405571
-2.4585084e-12
0.014425604
-1.5298667e-12
0.014444285
-2.6051396e-12
0.014461708
-4.0719918e-12
0.014477959
-5.5500184e-12
0.014493119
-6.0112404e-12
0.014507262
-7.3557888e-12
0.014520457
-8.8827567e-12
0.014532769
-1.0491527e-11
0.014544258
-1.2937112e-11
0.014554979
-1.3229564e-11
0.014564985
-8.2902208e-12
0.014574324
1.8593788e-12
0.01458304
1.0352822e-11
0.014591177
9.5656956e-12
0.014598771
5.0696064e-12
0.014605861
-4.2861599e-12
0.014612479
-1.6301978e-11
0.014618658
-2.144516e-11
0.014624427
-1.6574408e-11
0.014629813
-7.5687666e-12
0.014634842
2.891164e-12
0.014639537
1.2325349e-11
0.014643921
1.2817017e-11
0.014648015
6.6155847e-12
0.014651837
-7.9333191e-13
0.014655407
-1.1789896e-11
0.01465874
-1.8208076e-11
0.014661853
-1.5209421e-11
0.01466476
-6.8353973e-12
0.014667475
8.2160553e-12
0.01467001
2.8172371e-11
0.014672377
3.736192e-11
0.014674588
3.4703855e-11
0.014676653
1.6338344e-11
0.014678582
-2.8733376e-12
0.014680383
-2.5594578e-11
0.014682065
-3.7105703e-11
0.014683636
-2.5621843e-11
0.014685103
-5.5557224e-12
0.014686475
2.5471696e-11
0.014687754
5.6237443e-11
0.014688949
5.5888877e-11
0.014690067
2.6053437e-11
0.01469111
-2.1916304e-12
0.014692084
-3.2203711e-11
0.014692993
-5.1566052e-11
0.014693844
-3.8207995e-11
0.014694638
-1.1701713e-11
0.014695378
2.96479e-11
0.01469607
5.9906122e-11
0.014696719
9.0009952e-11
0.014697323
4.8683132e-11
0.014697886
-1.8584754e-11
0.014698412
-9.6989298e-11
0.014698907
-1.377508e-10
0.014699366
3.8141422e-11
0.014699797
1.9310158e-10
0.014700196
4.7588879e-11
0.014700578
-9.3171136e-11
0.014700925
-7.5173811e-11
0.014701263
-5.1729305e-11
-5.9737817e-11
0.010068394
-6.8393558e-05
0.010267405
-0.00019901113
0.010549879
-0.00028247388
0.010858545
-0.00030866649
0.011167288
-0.00030874342
0.011466046
-0.00029875789
0.01174706
-0.00028101346
0.012004047
-0.00025698756
0.012234567
-0.00023051983
0.012439713
-0.00020514591
0.012622275
-0.00018256236
0.012785275
-0.00016299958
0.0129315
-0.00014622491
0.013063403
-0.00013190313
0.013183077
-0.00011967427
0.013292252
-0.00010917462
0.013392321
-0.00010006908
0.013484397
-9.2076369e-05
0.013569373
-8.4975256e-05
0.013647971
-7.8598617e-05
0.013720793
-7.2822307e-05
0.013788347
-6.7553943e-05
0.013851071
-6.2723934e-05
0.01390935
-5.8278908e-05
0.013963527
-5.4176997e-05
0.014013912
-5.038444e-05
0.014060785
-4.687317e-05
0.014104404
-4.3619185e-05
0.014145005
-4.0601465e-05
0.014182807
-3.7801282e-05
0.014218008
-3.5201758e-05
0.014250796
-3.2787538e-05
0.014281341
-3.0544604e-05
0.014309801
-2.8460106e-05
0.014336323
-2.6522237e-05
0.014361043
-2.4720146e-05
0.014384087
-2.3043848e-05
0.014405571
-2.1484145e-05
0.014425604
-2.0032556e-05
0.014444285
-1.8681266e-05
0.014461708
-1.7423062e-05
0.014477959
-1.6251279e-05
0.014493119
-1.5159766e-05
0.014507262
-1.4142838e-05
0.014520457
-1.3195236e-05
0.014532769
-1.231209e-05
0.014544258
-1.1488889e-05
0.014554979
-1.0721455e-05
0.014564985
-1.0005912e-05
0.014574324
-9.3386768e-06
0.01458304
-8.7164239e-06
0.014591177
-8.1360543e-06
0.014598771
-7.5946961e-06
0.014605861
-7.0896785e-06
0.014612479
-6.618519e-06
0.014618658
-6.1789119e-06
0.014624427
-5.7687124e-06
0.014629813
-5.3859301e-06
0.014634842
-5.0287044e-06
0.014639537
-4.6953072e-06
0.014643921
-4.3841445e-06
0.014648015
-4.0937129e-06
0.014651837
-3.8226142e-06
0.014655407
-3.569547e-06
0.01465874
-3.3333066e-06
0.014661853
-3.1127568e-06
0.01466476
-2.9068466e-06
0.014667475
-2.7146037e-06
0.014670009
-2.5351196e-06
0.014672377
-2.3675363e-06
0.014674588
-2.2110818e-06
0.014676653
-2.0649851e-06
0.014678582
-1.9285734e-06
0.014680383
-1.8011814e-06
0.014682065
-1.6822251e-06
0.014683636
-1.5711158e-06
0.014685103
-1.4673849e-06
0.014686475
-1.3704867e-06
0.014687754
-1.2800558e-06
0.014688949
-1.1955355e-06
0.014690067
-1.1167051e-06
0.01469111
-1.0429524e-06
0.014692084
-9.742125e-07
0.014692993
-9.0976807e-07
0.014693844
-8.499635e-07
0.014694638
-7.9366534e-07
0.014695378
-7.4157565e-07
0.01469607
-6.9211499e-07
0.014696719
-6.4729703e-07
0.014697323
-6.0382118e-07
0.014697887
-5.6522412e-07
0.014698412
-5.2610179e-07
0.014698907
-4.9361073e-07
0.014699366
-4.5816926e-07
0.014699798
-4.3272679e-07
0.014700196
-3.9913776e-07
0.014700578
-3.8085084e-07
0.014700925
-3.470087e-07
0.014701263
-3.380168e-07
-3.0571402e-07
0.010097182
-0.00016557515
0.010346961
-0.000448791
0.010662469
-0.00059798177
0.010982753
-0.00062895025
0.011290229
-0.00061621886
0.011575251
-0.00058378055
0.011829022
-0.0005347842
0.012047865
-0.0004758305
0.012233272
-0.00041592666
0.01238924
-0.000361114
0.012520295
-0.00031361712
0.012630755
-0.00027346026
0.012724428
-0.00023989719
0.012804515
-0.00021199031
0.012873613
-0.00018877261
0.012933772
-0.00016933388
0.012986596
-0.00015289296
0.013033332
-0.00013881183
0.01307495
-0.00012659379
0.013112216
-0.00011586445
0.013145739
-0.00010634494
0.013176012
-9.7827004e-05
0.013203441
-9.0153369e-05
0.013228366
-8.3203372e-05
0.013251071
-7.688262e-05
0.013271802
-7.1115566e-05
0.01329077
-6.5840297e-05
0.013308155
-6.1004911e-05
0.013324119
-5.6565072e-05
0.0133388
-5.248234e-05
0.013352321
-4.8723028e-05
0.013364791
-4.5257391e-05
0.013376305
-4.2059001e-05
0.01338695
-3.9104279e-05
0.0133968
-3.6372129e-05
0.013405923
-3.3843614e-05
0.013414381
-3.1501698e-05
0.013422228
-2.9331019e-05
0.013429513
-2.7317701e-05
0.013436281
-2.5449178e-05
0.013442572
-2.3714046e-05
0.013448422
-2.2101951e-05
0.013453866
-2.0603458e-05
0.013458933
-1.9209956e-05
0.013463652
-1.7913579e-05
0.013468047
-1.6707127e-05
0.013472142
-1.5583996e-05
0.013475958
-1.4538122e-05
0.013479516
-1.3563935e-05
0.013482834
-1.2656299e-05
0.013485928
-1.1810476e-05
0.013488814
-1.1022099e-05
0.013491507
-1.0287126e-05
0.013494019
-9.6018195e-06
0.013496363
-8.9627243e-06
0.013498551
-8.3666458e-06
0.013500593
-7.8106224e-06
0.013502499
-7.291897e-06
0.013504278
-6.8079267e-06
0.013505939
-6.3563432e-06
0.01350749
-5.9349341e-06
0.013508938
-5.5416533e-06
0.01351029
-5.174596e-06
0.013511552
-4.831981e-06
0.013512731
-4.5121511e-06
0.013513832
-4.2135812e-06
0.01351486
-3.9348549e-06
0.01351582
-3.6746381e-06
0.013516716
-3.4317119e-06
0.013517554
-3.2049164e-06
0.013518336
-2.993164e-06
0.013519066
-2.7954394e-06
0.013519748
-2.6108086e-06
0.013520386
-2.4383701e-06
0.013520981
-2.2773472e-06
0.013521536
-2.126953e-06
0.013522056
-1.9865459e-06
0.013522541
-1.8553885e-06
0.013522994
-1.7329819e-06
0.013523417
-1.6186087e-06
0.013523812
-1.511896e-06
0.013524181
-1.4120814e-06
0.013524526
-1.3190447e-06
0.013524848
-1.2318526e-06
0.013525149
-1.1507719e-06
0.01352543
-1.0745662e-06
0.013525692
-1.0040487e-06
0.013525937
-9.3724321e-07
0.013526166
-8.7631066e-07
0.01352638
-8.1777663e-07
0.01352658
-7.6501305e-07
0.013526767
-7.1251906e-07
0.013526941
-6.6836108e-07
0.013527104
-6.2133303e-07
0.013527256
-5.8525914e-07
0.013527399
-5.4105179e-07
0.013527533
-5.1517325e-07
0.013527658
-4.7221264e-07
0.013527779
-4.5900913e-07
-4.1607501e-07
0.010188704
-0.00035427932
0.010530487
-0.00079057335
0.010851453
-0.0009189482
0.011124174
-0.00090167137
0.011350581
-0.00084262623
0.011524486
-0.00075768559
0.01164633
-0.00065662744
0.011724155
-0.00055365586
0.011767999
-0.00045977083
0.011786639
-0.00037975354
0.011787114
-0.00031409259
0.011775058
-0.00026140427
0.011754861
-0.00021969949
0.011729768
-0.00018689787
0.011702054
-0.00016105802
0.011673239
-0.00014051894
0.011644339
-0.00012399295
0.011616003
-0.00011047599
0.011588629
-9.9219868e-05
0.011562446
-8.9681405e-05
0.011537572
-8.1470672e-05
0.011514052
-7.4307852e-05
0.011491889
-6.7990502e-05
0.011471056
-6.2369993e-05
0.011451509
-5.7335016e-05
0.011433193
-5.2800185e-05
0.011416051
-4.8698266e-05
0.011400021
-4.4974955e-05
0.011385041
-4.1585392e-05
0.011371051
-3.8491848e-05
0.01135799
-3.5662157e-05
0.011345801
-3.3068613e-05
0.011334429
-3.0687174e-05
0.011323822
-2.8496852e-05
0.011313929
-2.6479244e-05
0.011304704
-2.461815e-05
0.011296101
-2.2899251e-05
0.01128808
-2.1309854e-05
0.011280601
-1.9838668e-05
0.011273628
-1.8475613e-05
0.011267125
-1.7211664e-05
0.011261062
-1.6038717e-05
0.011255408
-1.4949473e-05
0.011250135
-1.3937334e-05
0.011245218
-1.2996323e-05
0.011240632
-1.2121013e-05
0.011236354
-1.1306461e-05
0.011232364
-1.0548159e-05
0.011228643
-9.8419809e-06
0.01122517
-9.1841381e-06
0.011221931
-8.5711482e-06
0.011218909
-7.999804e-06
0.011216089
-7.4671524e-06
0.011213457
-6.9704677e-06
0.011211002
-6.5072377e-06
0.01120871
-6.0751415e-06
0.011206572
-5.6720321e-06
0.011204576
-5.2959253e-06
0.011202713
-4.9449791e-06
0.011200974
-4.6174799e-06
0.011199351
-4.3118305e-06
0.011197836
-4.0265418e-06
0.011196421
-3.7602325e-06
0.011195101
-3.5116121e-06
0.011193868
-3.2794858e-06
0.011192718
-3.0627459e-06
0.011191643
-2.860375e-06
0.01119064
-2.6714247e-06
0.011189703
-2.4950133e-06
0.011188829
-2.3303059e-06
0.011188012
-2.1765226e-06
0.011187249
-2.0329089e-06
0.011186537
-1.898787e-06
0.011185873
-1.7734965e-06
0.011185252
-1.65647e-06
0.011184672
-1.5471432e-06
0.01118413
-1.4450595e-06
0.011183625
-1.3497063e-06
0.011183152
-1.2607099e-06
0.011182711
-1.1775668e-06
0.0111823
-1.1000025e-06
0.011181915
-1.0274644e-06
0.011181556
-9.598107e-07
0.01118122
-8.9644324e-07
0.011180907
-8.3743691e-07
0.011180614
-7.8196202e-07
0.011180341
-7.3056052e-07
0.011180086
-6.8219985e-07
0.011179847
-6.3766822e-07
0.011179624
-5.9502504e-07
0.011179416
-5.5653792e-07
0.011179223
-5.1916374e-07
0.01117904
-4.8629958e-07
0.011178872
-4.5279855e-07
0.011178712
-4.2542447e-07
0.011178566
-3.9518357e-07
0.011178425
-3.7414978e-07
0.0111783
-3.4705067e-07
0.011178177
-3.3599434e-07
-3.1069961e-07
0.010339525
-0.00069380425
0.010570754
-0.0010218027
0.010606301
-0.00095449448
0.010547572
-0.00084294333
0.010422317
-0.0007173708
0.010244356
-0.00057972444
0.010039421
-0.00045169205
0.0098287427
-0.00034297801
0.009625135
-0.00025616318
0.0094353013
-0.00018991983
0.0092624277
-0.00014121897
0.0091075332
-0.0001065098
0.008970154
-8.2320226e-05
0.0088489023
-6.5646249e-05
0.0087419716
-5.4127255e-05
0.0086474927
-4.6040044e-05
0.008563694
-4.0194286e-05
0.0084890108
-3.5792751e-05
0.0084221096
-3.2318757e-05
0.0083618775
-2.9449283e-05
0.0083073954
-2.698858e-05
0.0082579079
-2.4820304e-05
0.0082127929
-2.2875483e-05
0.0081715353
-2.1112419e-05
0.0081337049
-1.9504656e-05
0.0080989388
-1.8034017e-05
0.0080669272
-1.6686727e-05
0.0080374036
-1.5451365e-05
0.0080101361
-1.4317864e-05
0.0079849213
-1.3277073e-05
0.0079615798
-1.2320592e-05
0.0079399519
-1.144072e-05
0.0079198951
-1.0630433e-05
0.0079012816
-9.8833644e-06
0.0078839962
-9.1937718e-06
0.0078679345
-8.5564988e-06
0.0078530022
-7.9669235e-06
0.0078391132
-7.4209093e-06
0.0078261893
-6.9147517e-06
0.0078141588
-6.4451277e-06
0.0078029562
-6.0090525e-06
0.0077925213
-5.6038393e-06
0.0077827989
-5.2270629e-06
0.0077737381
-4.8765286e-06
0.0077652921
-4.5502457e-06
0.0077574175
-4.2464032e-06
0.0077500743
-3.9633491e-06
0.0077432258
-3.6995746e-06
0.0077368375
-3.4536959e-06
0.0077308778
-3.2244376e-06
0.0077253172
-3.0106242e-06
0.0077201286
-2.8111715e-06
0.0077152865
-2.6250779e-06
0.0077107675
-2.451418e-06
0.0077065496
-2.2893385e-06
0.0077026125
-2.1380516e-06
0.0076989373
-1.9968253e-06
0.0076955064
-1.8649817e-06
0.0076923033
-1.7418926e-06
0.0076893128
-1.6269698e-06
0.0076865206
-1.5196624e-06
0.0076839135
-1.4194568e-06
0.0076814791
-1.3258747e-06
0.007679206
-1.2384687e-06
0.0076770834
-1.156826e-06
0.0076751012
-1.0805666e-06
0.0076732502
-1.0093381e-06
0.0076715216
-9.4281295e-07
0.0076699072
-8.8068735e-07
0.0076683996
-8.2266949e-07
0.0076669915
-7.6848673e-07
0.0076656765
-7.1787581e-07
0.0076644483
-6.7059648e-07
0.0076633012
-6.2641656e-07
0.0076622299
-5.8513911e-07
0.0076612294
-5.4656829e-07
0.0076602949
-5.1054612e-07
0.007659422
-4.7689418e-07
0.0076586068
-4.4548571e-07
0.0076578453
-4.1613743e-07
0.007657134
-3.8875557e-07
0.0076564697
-3.6314864e-07
0.0076558492
-3.392643e-07
0.0076552697
-3.1687978e-07
0.0076547283
-2.9604322e-07
0.0076542228
-2.7645948e-07
0.0076537506
-2.5827264e-07
0.0076533094
-2.4117185e-07
0.0076528971
-2.2548394e-07
0.0076525126
-2.1041866e-07
0.0076521529
-1.9666825e-07
0.0076518172
-1.8361006e-07
0.0076515028
-1.7205749e-07
0.0076512105
-1.6040725e-07
0.0076509355
-1.5028795e-07
0.0076506807
-1.4040333e-07
0.0076504385
-1.3208682e-07
0.0076502165
-1.2500263e-07
0.0076499999
-1.1933765e-07
-1.2571599e-07
0.0093061957
0.0082843931
0.0073298986
0.0064869553
0.0057695845
0.00518986
0.004738168
0.00439519
0.0041390268
0.003949107
0.003807888
0.0037013782
0.003619058
0.0035534117
0.0034992845
0.0034532444
0.0034130501
0.0033772574
0.0033449386
0.0033154893
0.0032885008
0.0032636805
0.003240805
0.0032196926
0.0032001879
0.0031821539
0.0031654672
0.0031500158
0.0031356979
0.0031224208
0.0031101003
0.0030986595
0.0030880291
0.0030781458
0.003068952
0.0030603955
0.0030524286
0.0030450076
0.0030380929
0.0030316478
0.0030256387
0.0030200349
0.0030148078
0.0030099313
0.0030053811
0.0030011347
0.0029971713
0.0029934717
0.002990018
0.0029867936
0.0029837829
0.0029809718
0.0029783467
0.0029758953
0.002973606
0.0029714679
0.0029694711
0.0029676061
0.0029658642
0.0029642372
0.0029627175
0.0029612981
0.0029599722
0.0029587338
0.002957577
0.0029564964
0.0029554871
0.0029545443
0.0029536635
0.0029528408
0.0029520723
0.0029513545
0.0029506839
0.0029500575
0.0029494724
0.0029489259
0.0029484153
0.0029479384
0.0029474928
0.0029470767
0.0029466879
0.0029463248
0.0029459856
0.0029456687
0.0029453727
0.0029450963
0.002944838
0.0029445965
0.0029443711
0.002944161
0.0029439642
0.0029437802
0.0029436083
0.0029434482
0.002943298
0.0029431574
0.0029430253
0.0029429003
0.0029427809
)
;

boundaryField
{
    top
    {
        type            calculated;
        value           uniform 0;
    }
    inlet
    {
        type            calculated;
        value           nonuniform List<scalar> 10(-0.01 -0.01 -0.01 -0.01 -0.01 -0.01 -0.01 -0.01 -0.01 -0.01);
    }
    outlet
    {
        type            calculated;
        value           nonuniform List<scalar> 10(0.002942655 0.0076498149 0.011178072 0.01352789 0.014701568 0.014701568 0.01352789 0.011178072 0.0076498149 0.0029426552);
    }
    bottom
    {
        type            calculated;
        value           uniform 0;
    }
    back
    {
        type            empty;
        value           nonuniform 0();
    }
    front
    {
        type            empty;
        value           nonuniform 0();
    }
}


// ************************************************************************* //
