/*--------------------------------*- C++ -*----------------------------------*\
| =========                 |                                                 |
| \\      /  F ield         | OpenFOAM: The Open Source CFD Toolbox           |
|  \\    /   O peration     | Version:  v1812                                 |
|   \\  /    A nd           | Web:      www.OpenFOAM.com                      |
|    \\/     M anipulation  |                                                 |
\*---------------------------------------------------------------------------*/
FoamFile
{
    version     2.0;
    format      ascii;
    class       surfaceScalarField;
    location    "8";
    object      phi;
}
// * * * * * * * * * * * * * * * * * * * * * * * * * * * * * * * * * * * * * //

dimensions      [0 3 -1 0 0 0 0];
oriented        oriented;


internalField   nonuniform List<scalar> 
1890
(
0.0093061957
0.00069380425
0.0082843931
0.0010218027
0.0073298986
0.00095449449
0.0064869553
0.00084294334
0.0057695845
0.0007173708
0.00518986
0.00057972444
0.004738168
0.00045169204
0.00439519
0.00034297801
0.0041390268
0.00025616318
0.0039491069
0.00018991983
0.003807888
0.00014121897
0.0037013782
0.0001065098
0.003619058
8.2320221e-05
0.0035534117
6.5646244e-05
0.0034992845
5.4127253e-05
0.0034532444
4.6040047e-05
0.0034130501
4.0194292e-05
0.0033772574
3.5792756e-05
0.0033449386
3.2318759e-05
0.0033154893
2.9449281e-05
0.0032885007
2.6988577e-05
0.0032636804
2.4820303e-05
0.003240805
2.2875484e-05
0.0032196925
2.1112423e-05
0.0032001879
1.9504662e-05
0.0031821539
1.8034024e-05
0.0031654672
1.6686734e-05
0.0031500158
1.5451369e-05
0.0031356979
1.4317865e-05
0.0031224208
1.3277073e-05
0.0031101002
1.2320592e-05
0.0030986595
1.1440724e-05
0.003088029
1.0630442e-05
0.0030781457
9.8833781e-06
0.0030689519
9.1937903e-06
0.0030603954
8.5565202e-06
0.0030524285
7.9669469e-06
0.0030450075
7.4209341e-06
0.0030380928
6.9147782e-06
0.0030316476
6.4451591e-06
0.0030256385
6.0090935e-06
0.0030200345
5.6038956e-06
0.0030148074
5.2271399e-06
0.0030099307
4.8766309e-06
0.0030053804
4.550376e-06
0.0030011338
4.246561e-06
0.0029971703
3.9635308e-06
0.0029934706
3.6997696e-06
0.0029900167
3.4538852e-06
0.0029867921
3.2245945e-06
0.0029837814
3.0107106e-06
0.0029809702
2.8111323e-06
0.0029783454
2.6248347e-06
0.0029758945
2.4508616e-06
0.0029736062
2.2883203e-06
0.0029714698
2.1363739e-06
0.0029694756
1.9942397e-06
0.0029676145
1.8611822e-06
0.002965878
1.7365132e-06
0.0029642585
1.6195848e-06
0.0029627487
1.5097925e-06
0.0029613421
1.406569e-06
0.0029600328
1.3093912e-06
0.002958815
1.2177735e-06
0.0029576838
1.1312793e-06
0.0029566344
1.049512e-06
0.0029556623
9.7212701e-07
0.0029547636
8.9882053e-07
0.0029539343
8.2933772e-07
0.0029531709
7.6345939e-07
0.0029524699
7.0100826e-07
0.002951828
6.4183383e-07
0.0029512422
5.8582262e-07
0.0029507094
5.3288006e-07
0.0029502266
4.8294438e-07
0.0029497907
4.3596647e-07
0.0029493989
3.9191864e-07
0.0029490482
3.5077482e-07
0.0029487357
3.1251038e-07
0.0029484585
2.770884e-07
0.002948214
2.4445888e-07
0.0029479993
2.1455128e-07
0.002947812
1.8728419e-07
0.0029476495
1.6255852e-07
0.0029475094
1.402747e-07
0.0029473892
1.203197e-07
0.0029472867
1.0258108e-07
0.0029471998
8.6927875e-08
0.0029471265
7.3227364e-08
0.0029470651
6.131282e-08
0.0029470139
5.1039559e-08
0.0029469716
4.2204887e-08
0.0029469369
3.4699191e-08
0.0029469087
2.8292019e-08
0.0029468858
2.2979515e-08
0.0029468675
1.8461006e-08
0.0029468525
1.4923043e-08
0.0029468406
1.1848932e-08
0.0029468307
9.8139933e-09
7.6689806e-09
0.010339525
0.00035427932
0.010570754
0.00079057335
0.010606301
0.00091894821
0.010547572
0.00090167137
0.010422317
0.00084262624
0.010244356
0.00075768559
0.010039421
0.00065662744
0.0098287427
0.00055365586
0.009625135
0.00045977083
0.0094353013
0.00037975354
0.0092624277
0.00031409259
0.0091075332
0.00026140426
0.008970154
0.00021969949
0.0088489023
0.00018689787
0.0087419716
0.00016105803
0.0086474927
0.00014051895
0.008563694
0.00012399297
0.0084890108
0.000110476
0.0084221096
9.9219869e-05
0.0083618775
8.9681402e-05
0.0083073954
8.1470668e-05
0.0082579079
7.430785e-05
0.0082127928
6.7990505e-05
0.0081715353
6.2370003e-05
0.0081337049
5.7335032e-05
0.0080989387
5.2800202e-05
0.0080669272
4.8698283e-05
0.0080374036
4.4974968e-05
0.0080101361
4.1585401e-05
0.0079849213
3.8491855e-05
0.0079615797
3.5662165e-05
0.0079399518
3.3068626e-05
0.007919895
3.0687195e-05
0.0079012815
2.8496884e-05
0.007883996
2.6479288e-05
0.0078679343
2.4618201e-05
0.007853002
2.2899308e-05
0.007839113
2.1309915e-05
0.0078261891
1.9838732e-05
0.0078141586
1.8475683e-05
0.0078029559
1.7211746e-05
0.0077925209
1.6038816e-05
0.0077827985
1.4949591e-05
0.0077737376
1.393747e-05
0.0077652915
1.2996471e-05
0.0077574169
1.2121156e-05
0.0077500739
1.1306569e-05
0.0077432255
1.0548179e-05
0.0077368376
9.8418323e-06
0.0077308785
9.1837093e-06
0.0077253189
8.5702875e-06
0.0077201317
7.9983079e-06
0.0077152918
7.4647475e-06
0.0077107758
6.9667961e-06
0.0077065623
6.5018335e-06
0.0077026312
6.0674155e-06
0.0076989643
5.6612557e-06
0.0076955442
5.2812172e-06
0.0076923555
4.9252986e-06
0.0076893834
4.5916306e-06
0.0076866148
4.2784662e-06
0.0076840371
3.9841841e-06
0.0076816392
3.7072799e-06
0.0076794106
3.4463779e-06
0.0076773417
3.200221e-06
0.0076754235
2.9676864e-06
0.0076736479
2.7477727e-06
0.0076720071
2.5396122e-06
0.007670494
2.3424535e-06
0.0076691018
2.1556679e-06
0.007667824
1.9787259e-06
0.0076666546
1.8112033e-06
0.0076655876
1.6527525e-06
0.0076646174
1.5031112e-06
0.0076637383
1.3620721e-06
0.0076629449
1.2294863e-06
0.0076622316
1.1052358e-06
0.0076615932
9.8922161e-07
0.0076610244
8.8134482e-07
0.0076605199
7.8148632e-07
0.0076600747
6.8949834e-07
0.0076596839
6.0519296e-07
0.0076593428
5.2834431e-07
0.0076590467
4.586865e-07
0.0076587911
3.9592983e-07
0.0076585718
3.397414e-07
0.0076583847
2.8978795e-07
0.007658226
2.4567036e-07
0.0076580922
2.0701886e-07
0.00765798
1.7335652e-07
0.0076578866
1.4430843e-07
0.0076578093
1.1931317e-07
0.0076577459
9.8101909e-08
0.0076576943
7.9986992e-08
0.0076576524
6.5024224e-08
0.0076576187
5.216948e-08
0.0076575914
4.2264081e-08
0.00765757
3.3146797e-08
0.007657552
2.7756437e-08
2.0104885e-08
0.010188704
0.00016557515
0.010530487
0.000448791
0.010851453
0.00059798177
0.011124174
0.00062895025
0.011350581
0.00061621886
0.011524486
0.00058378055
0.01164633
0.00053478421
0.011724155
0.00047583049
0.011767999
0.00041592665
0.011786639
0.000361114
0.011787114
0.00031361712
0.011775058
0.00027346026
0.011754861
0.00023989719
0.011729768
0.00021199032
0.011702054
0.00018877261
0.011673239
0.00016933388
0.011644339
0.00015289296
0.011616003
0.00013881183
0.011588629
0.00012659379
0.011562446
0.00011586445
0.011537571
0.00010634495
0.011514052
9.7827013e-05
0.011491889
9.0153378e-05
0.011471056
8.3203383e-05
0.011451509
7.6882631e-05
0.011433193
7.1115578e-05
0.011416051
6.5840309e-05
0.011400021
6.1004925e-05
0.011385041
5.6565088e-05
0.011371051
5.248236e-05
0.01135799
4.8723056e-05
0.011345801
4.5257425e-05
0.011334429
4.2059041e-05
0.011323822
3.9104328e-05
0.011313929
3.6372185e-05
0.011304704
3.3843676e-05
0.011296101
3.1501765e-05
0.01128808
2.9331093e-05
0.011280601
2.7317782e-05
0.011273627
2.5449269e-05
0.011267125
2.3714154e-05
0.011261062
2.2102075e-05
0.011255408
2.0603593e-05
0.011250135
1.9210095e-05
0.011245218
1.7913704e-05
0.011240632
1.6707209e-05
0.011236354
1.5583991e-05
0.011232365
1.4537964e-05
0.011228643
1.3563524e-05
0.011225171
1.2655495e-05
0.011221932
1.1809088e-05
0.011218911
1.1019864e-05
0.011216092
1.0283698e-05
0.011213462
9.5967501e-06
0.011211008
8.9554376e-06
0.011208719
8.3564154e-06
0.011206584
7.7965549e-06
0.011204592
7.2729282e-06
0.011202735
6.7827937e-06
0.011201003
6.3235865e-06
0.011199388
5.8929104e-06
0.011197884
5.4885326e-06
0.011196483
5.1083835e-06
0.011195179
4.7505536e-06
0.011193966
4.4132998e-06
0.011192838
4.0950404e-06
0.011191792
3.794364e-06
0.011190821
3.5100194e-06
0.011189923
3.2409217e-06
0.011189092
2.9861347e-06
0.011188326
2.7448739e-06
0.011187621
2.5164821e-06
0.011186973
2.3004318e-06
0.01118638
2.0962955e-06
0.011185838
1.9037484e-06
0.011185345
1.722532e-06
0.011184898
1.5524531e-06
0.011184494
1.3933439e-06
0.01118413
1.2450559e-06
0.011183804
1.1074241e-06
0.011183513
9.8026435e-07
0.011183255
8.6334655e-07
0.011183027
7.5640712e-07
0.011182827
6.5912312e-07
0.011182651
5.7114622e-07
0.011182499
4.9206239e-07
0.011182368
4.2145094e-07
0.011182255
3.5880273e-07
0.011182158
3.0364781e-07
0.011182076
2.5536118e-07
0.011182006
2.1349294e-07
0.011181948
1.7725747e-07
0.0111819
1.4641244e-07
0.01118186
1.1985428e-07
0.011181827
9.7968973e-08
0.011181801
7.8779981e-08
0.011181779
6.4318742e-08
0.011181762
5.0138121e-08
0.011181747
4.2539052e-08
3.066539e-08
0.010097182
6.8393556e-05
0.010346961
0.00019901112
0.010662469
0.00028247387
0.010982753
0.00030866649
0.011290229
0.00030874342
0.011575251
0.00029875788
0.011829022
0.00028101346
0.012047865
0.00025698756
0.012233272
0.00023051982
0.01238924
0.0002051459
0.012520295
0.00018256236
0.012630755
0.00016299958
0.012724428
0.00014622491
0.012804515
0.00013190312
0.012873613
0.00011967426
0.012933772
0.00010917461
0.012986596
0.00010006907
0.013033332
9.2076368e-05
0.01307495
8.497526e-05
0.013112216
7.8598625e-05
0.013145739
7.2822319e-05
0.013176012
6.7553955e-05
0.013203441
6.2723941e-05
0.013228366
5.8278912e-05
0.013251071
5.4177001e-05
0.013271802
5.0384446e-05
0.01329077
4.687318e-05
0.013308155
4.3619199e-05
0.013324119
4.0601487e-05
0.0133388
3.7801315e-05
0.013352321
3.5201797e-05
0.013364791
3.2787583e-05
0.013376305
3.0544652e-05
0.01338695
2.8460154e-05
0.0133968
2.6522289e-05
0.013405923
2.4720205e-05
0.013414381
2.3043914e-05
0.013422228
2.148422e-05
0.013429513
2.0032643e-05
0.013436281
1.8681366e-05
0.013442572
1.7423174e-05
0.013448422
1.6251403e-05
0.013453866
1.5159899e-05
0.013458933
1.414297e-05
0.013463652
1.319535e-05
0.013468047
1.2312162e-05
0.013472142
1.1488889e-05
0.013475958
1.0721341e-05
0.013479516
1.0005625e-05
0.013482834
9.3381246e-06
0.013485927
8.7154709e-06
0.013488813
8.1345236e-06
0.013491504
7.5923529e-06
0.013494014
7.0862187e-06
0.013496356
6.6135579e-06
0.013498541
6.1719694e-06
0.013500578
5.7592018e-06
0.013502478
5.3731439e-06
0.013504249
5.0118128e-06
0.013505899
4.6733511e-06
0.013507436
4.3560168e-06
0.013508866
4.0581865e-06
0.013510196
3.7783453e-06
0.013511432
3.5150982e-06
0.013512578
3.2671549e-06
0.01351364
3.0333506e-06
0.013514621
2.8126226e-06
0.013515527
2.6040361e-06
0.013516362
2.4067551e-06
0.013517128
2.2200657e-06
0.013517829
2.0433443e-06
0.013518469
1.8760795e-06
0.013519052
1.7178343e-06
0.01351958
1.5682718e-06
0.013520057
1.4271059e-06
0.013520485
1.294132e-06
0.013520869
1.1691697e-06
0.01352121
1.0520868e-06
0.013521512
9.4275214e-07
0.013521778
8.4104449e-07
0.013522012
7.4682832e-07
0.013522215
6.599506e-07
0.013522391
5.8023244e-07
0.013522543
5.0746689e-07
0.013522673
4.4142237e-07
0.013522783
3.8182598e-07
0.013522876
3.2839856e-07
0.013522954
2.8078592e-07
0.013523019
2.3868437e-07
0.013523073
2.016343e-07
0.013523117
1.6937046e-07
0.013523153
1.4127318e-07
0.013523182
1.1728562e-07
0.013523205
9.6442441e-08
0.013523224
7.9302488e-08
0.013523239
6.3986751e-08
0.013523251
5.2642664e-08
0.01352326
4.1011182e-08
0.013523267
3.5144947e-08
2.5420782e-08
0.010068394
-6.2594655e-13
0.010267405
-5.7730061e-13
0.010549879
-6.3441672e-13
0.010858545
-6.421796e-13
0.011167288
-3.0107011e-13
0.011466046
4.3383084e-13
0.01174706
1.3207626e-12
0.012004047
2.1946484e-12
0.012234567
2.659869e-12
0.012439713
2.6521781e-12
0.012622275
2.1357927e-12
0.012785275
1.3124597e-12
0.0129315
6.0823472e-13
0.013063403
2.2537851e-13
0.013183077
6.6981817e-13
0.013292252
2.0388276e-12
0.013392321
4.1749377e-12
0.013484397
6.9287676e-12
0.013569373
9.4861956e-12
0.013647971
1.1570988e-11
0.013720793
1.2678374e-11
0.013788347
1.2874856e-11
0.013851071
1.2708779e-11
0.01390935
1.2560333e-11
0.013963527
1.3468439e-11
0.014013912
1.5659821e-11
0.014060785
1.9484332e-11
0.014104404
2.4864363e-11
0.014145006
3.0979586e-11
0.014182807
3.7537444e-11
0.014218009
4.3303306e-11
0.014250796
4.8043473e-11
0.014281341
5.152016e-11
0.014309801
5.402034e-11
0.014336323
5.6667783e-11
0.014361043
6.0046823e-11
0.014384087
6.5203293e-11
0.014405571
7.2254858e-11
0.014425604
8.0751205e-11
0.014444285
9.032674e-11
0.014461708
9.9342501e-11
0.014477959
1.0747716e-10
0.014493119
1.1338567e-10
0.014507262
1.1708304e-10
0.014520457
1.1851317e-10
0.014532769
1.1805155e-10
0.014544258
1.1644201e-10
0.014554979
1.1400716e-10
0.014564985
1.1063019e-10
0.014574323
1.0595091e-10
0.014583038
9.8552872e-11
0.014591173
8.7613334e-11
0.014598765
7.20686e-11
0.014605851
5.1294855e-11
0.014612464
2.6456568e-11
0.014618636
-4.9310063e-12
0.014624396
-3.9322899e-11
0.014629769
-7.716192e-11
0.014634781
-1.1700171e-10
0.014639454
-1.6024973e-10
0.014643811
-2.0484334e-10
0.014647869
-2.5268403e-10
0.014651647
-2.9916299e-10
0.014655163
-3.461078e-10
0.01465843
-3.8632459e-10
0.014661464
-4.2257366e-10
0.014664277
-4.476845e-10
0.014666882
-4.6586087e-10
0.014669289
-4.7259322e-10
0.01467151
-4.7418778e-10
0.014673553
-4.6717153e-10
0.01467543
-4.5820908e-10
0.014677148
-4.4068575e-10
0.014678717
-4.2017433e-10
0.014680144
-3.869203e-10
0.014681439
-3.4517542e-10
0.014682608
-2.8931118e-10
0.014683661
-2.2524088e-10
0.014684604
-1.5591677e-10
0.014685445
-8.876809e-11
0.014686192
-2.8222551e-11
0.014686851
2.4736433e-11
0.014687431
6.7993366e-11
0.014687939
1.0283284e-10
0.01468838
1.3469905e-10
0.014688762
1.6529431e-10
0.014689091
1.9535647e-10
0.014689371
2.2594105e-10
0.01468961
2.5148002e-10
0.014689811
2.7357357e-10
0.01468998
2.8658341e-10
0.014690121
2.9382154e-10
0.014690238
2.939414e-10
0.014690334
2.9051855e-10
0.014690413
2.8490618e-10
0.014690477
2.7492876e-10
0.014690529
2.6724299e-10
0.01469057
2.4943626e-10
0.014690605
2.4139872e-10
2.281224e-10
0.010068394
-6.8393557e-05
0.010267405
-0.00019901112
0.010549879
-0.00028247387
0.010858545
-0.00030866649
0.011167288
-0.00030874342
0.011466046
-0.00029875788
0.01174706
-0.00028101345
0.012004047
-0.00025698755
0.012234567
-0.00023051981
0.012439713
-0.00020514589
0.012622275
-0.00018256236
0.012785275
-0.00016299957
0.0129315
-0.00014622491
0.013063403
-0.00013190312
0.013183077
-0.00011967426
0.013292252
-0.0001091746
0.013392321
-0.00010006906
0.013484397
-9.2076354e-05
0.013569373
-8.4975242e-05
0.013647971
-7.8598603e-05
0.013720793
-7.2822295e-05
0.013788347
-6.7553931e-05
0.013851071
-6.2723917e-05
0.01390935
-5.8278888e-05
0.013963527
-5.4176977e-05
0.014013912
-5.0384417e-05
0.014060785
-4.6873143e-05
0.014104404
-4.3619152e-05
0.014145006
-4.0601428e-05
0.014182807
-3.7801244e-05
0.014218009
-3.5201715e-05
0.014250796
-3.2787493e-05
0.014281341
-3.0544556e-05
0.014309801
-2.8460054e-05
0.014336323
-2.6522184e-05
0.014361043
-2.4720094e-05
0.014384087
-2.3043795e-05
0.014405571
-2.1484087e-05
0.014425604
-2.0032494e-05
0.014444285
-1.8681199e-05
0.014461708
-1.742299e-05
0.014477959
-1.6251205e-05
0.014493119
-1.5159691e-05
0.014507262
-1.4142757e-05
0.014520457
-1.3195135e-05
0.014532769
-1.2311949e-05
0.014544258
-1.148868e-05
0.01455498
-1.0721137e-05
0.014564985
-1.0005428e-05
0.014574323
-9.3379367e-06
0.014583039
-8.7152968e-06
0.014591173
-8.1343701e-06
0.014598765
-7.5922285e-06
0.014605851
-7.0861327e-06
0.014612465
-6.6135197e-06
0.014618637
-6.1719878e-06
0.014624396
-5.7592828e-06
0.014629769
-5.3732928e-06
0.014634781
-5.0120337e-06
0.014639455
-4.673649e-06
0.014643811
-4.3563954e-06
0.014647869
-4.0586499e-06
0.014651648
-3.7788926e-06
0.014655163
-3.5157275e-06
0.014658431
-3.2678561e-06
0.014661464
-3.0341128e-06
0.014664277
-2.813428e-06
0.014666882
-2.6048696e-06
0.014669289
-2.4075992e-06
0.014671509
-2.2209097e-06
0.014673553
-2.0441764e-06
0.014675429
-1.8768943e-06
0.014677147
-1.7186202e-06
0.014678716
-1.5690197e-06
0.014680143
-1.427795e-06
0.014681438
-1.2947435e-06
0.014682608
-1.1696792e-06
0.01468366
-1.0524791e-06
0.014684603
-9.4301888e-07
0.014685444
-8.4119068e-07
0.014686191
-7.4686619e-07
0.01468685
-6.5989782e-07
0.01468743
-5.8010596e-07
0.014687938
-5.0728028e-07
0.014688379
-4.4117995e-07
0.014688761
-3.8152914e-07
0.01468909
-3.2804626e-07
0.01468937
-2.8037938e-07
0.014689609
-2.3823022e-07
0.01468981
-2.0114208e-07
0.014689979
-1.6885435e-07
0.01469012
-1.4074619e-07
0.014690237
-1.1675769e-07
0.014690333
-9.5922759e-08
0.014690413
-7.8792117e-08
0.014690477
-6.3495704e-08
0.014690529
-5.2162877e-08
0.01469057
-4.0568194e-08
0.014690605
-3.4709863e-08
-2.5014044e-08
0.010097182
-0.00016557515
0.010346961
-0.000448791
0.010662469
-0.00059798178
0.010982753
-0.00062895025
0.011290229
-0.00061621886
0.011575251
-0.00058378055
0.011829022
-0.0005347842
0.012047865
-0.00047583049
0.012233272
-0.00041592665
0.01238924
-0.00036111399
0.012520295
-0.00031361712
0.012630755
-0.00027346026
0.012724428
-0.00023989719
0.012804515
-0.00021199032
0.012873613
-0.00018877261
0.012933772
-0.00016933388
0.012986596
-0.00015289295
0.013033332
-0.00013881182
0.01307495
-0.00012659378
0.013112216
-0.00011586443
0.013145739
-0.00010634493
0.013176012
-9.7826993e-05
0.013203441
-9.0153361e-05
0.013228366
-8.3203367e-05
0.013251071
-7.6882613e-05
0.013271803
-7.1115556e-05
0.01329077
-6.584028e-05
0.013308155
-6.1004886e-05
0.013324119
-5.6565038e-05
0.0133388
-5.2482301e-05
0.013352321
-4.8722989e-05
0.013364791
-4.5257353e-05
0.013376306
-4.2058967e-05
0.01338695
-3.9104252e-05
0.0133968
-3.6372108e-05
0.013405923
-3.3843594e-05
0.013414381
-3.1501675e-05
0.013422228
-2.9330992e-05
0.013429513
-2.7317667e-05
0.013436281
-2.5449141e-05
0.013442572
-2.3714013e-05
0.013448423
-2.2101925e-05
0.013453867
-2.0603438e-05
0.013458934
-1.9209938e-05
0.013463652
-1.7913551e-05
0.013468047
-1.670706e-05
0.013472142
-1.5583848e-05
0.013475959
-1.4537828e-05
0.013479517
-1.3563394e-05
0.013482835
-1.2655373e-05
0.013485928
-1.1808979e-05
0.013488814
-1.1019774e-05
0.013491505
-1.0283634e-05
0.013494016
-9.5967184e-06
0.013496357
-8.9554467e-06
0.013498542
-8.3564693e-06
0.013500579
-7.7966592e-06
0.013502479
-7.273083e-06
0.01350425
-6.7830037e-06
0.0135059
-6.3238512e-06
0.013507437
-5.8932361e-06
0.013508867
-5.4889164e-06
0.013510197
-5.1088304e-06
0.013511432
-4.7510532e-06
0.013512578
-4.4138512e-06
0.01351364
-4.0956246e-06
0.013514621
-3.7949746e-06
0.013515527
-3.5106362e-06
0.013516361
-3.2415407e-06
0.013517127
-2.9867412e-06
0.013517828
-2.7454713e-06
0.013518468
-2.517058e-06
0.01351905
-2.3009918e-06
0.013519578
-2.0968194e-06
0.013520055
-1.9042321e-06
0.013520483
-1.7229481e-06
0.013520866
-1.5527908e-06
0.013521207
-1.3935861e-06
0.01352151
-1.2452023e-06
0.013521776
-1.1074803e-06
0.013522009
-9.8024739e-07
0.013522212
-8.6327173e-07
0.013522388
-7.5629216e-07
0.01352254
-6.5897351e-07
0.01352267
-5.7096488e-07
0.01352278
-4.9184496e-07
0.013522874
-4.211904e-07
0.013522952
-3.5850278e-07
0.013523017
-3.0330578e-07
0.013523071
-2.549956e-07
0.013523115
-2.1310839e-07
0.013523151
-1.7687669e-07
0.01352318
-1.4603503e-07
0.013523204
-1.1949587e-07
0.013523223
-9.7617545e-08
0.013523238
-7.844561e-08
0.01352325
-6.3990157e-08
0.013523259
-4.9828815e-08
0.013523267
-4.2236184e-08
-3.0384873e-08
0.010188704
-0.00035427932
0.010530487
-0.00079057335
0.010851453
-0.00091894821
0.011124174
-0.00090167137
0.011350581
-0.00084262624
0.011524486
-0.00075768559
0.01164633
-0.00065662743
0.011724155
-0.00055365586
0.011767999
-0.00045977083
0.011786639
-0.00037975354
0.011787114
-0.00031409259
0.011775058
-0.00026140426
0.011754861
-0.00021969949
0.011729768
-0.00018689787
0.011702054
-0.00016105802
0.011673239
-0.00014051894
0.011644339
-0.00012399296
0.011616003
-0.00011047599
0.011588629
-9.9219857e-05
0.011562446
-8.968139e-05
0.011537572
-8.1470657e-05
0.011514052
-7.4307841e-05
0.011491889
-6.7990497e-05
0.011471056
-6.2369995e-05
0.011451509
-5.7335021e-05
0.011433193
-5.2800188e-05
0.011416051
-4.8698262e-05
0.011400021
-4.4974941e-05
0.011385042
-4.1585367e-05
0.011371051
-3.8491817e-05
0.01135799
-3.5662125e-05
0.011345801
-3.3068586e-05
0.01133443
-3.0687156e-05
0.011323822
-2.8496845e-05
0.011313929
-2.6479247e-05
0.011304704
-2.4618156e-05
0.011296102
-2.2899256e-05
0.01128808
-2.1309855e-05
0.011280601
-1.9838663e-05
0.011273628
-1.8475607e-05
0.011267126
-1.7211665e-05
0.011261062
-1.6038734e-05
0.011255408
-1.494951e-05
0.011250136
-1.3937393e-05
0.011245219
-1.2996398e-05
0.011240633
-1.2121088e-05
0.011236355
-1.1306505e-05
0.011232366
-1.0548118e-05
0.011228644
-9.8417759e-06
0.011225172
-9.1836597e-06
0.011221934
-8.5702483e-06
0.011218912
-7.998284e-06
0.011216093
-7.4647437e-06
0.011213463
-6.9668158e-06
0.01121101
-6.5018794e-06
0.011208721
-6.0674883e-06
0.011206585
-5.6613564e-06
0.011204593
-5.281345e-06
0.011202736
-4.9254556e-06
0.011201004
-4.5918182e-06
0.011199389
-4.2786877e-06
0.011197885
-3.9844388e-06
0.011196483
-3.707568e-06
0.011195179
-3.4466921e-06
0.011193966
-3.2005554e-06
0.011192838
-2.9680282e-06
0.011191791
-2.7481158e-06
0.01119082
-2.5399477e-06
0.011189922
-2.3427817e-06
0.011189091
-2.1559866e-06
0.011188324
-1.97904e-06
0.011187619
-1.8115098e-06
0.011186971
-1.6530504e-06
0.011186377
-1.503387e-06
0.011185835
-1.3623153e-06
0.011185342
-1.2296797e-06
0.011184895
-1.1053716e-06
0.011184491
-9.892967e-07
0.011184127
-8.8136715e-07
0.011183801
-7.8146923e-07
0.01118351
-6.8945747e-07
0.011183251
-6.0513884e-07
0.011183023
-5.282812e-07
0.011182823
-4.5860954e-07
0.011182648
-3.9583072e-07
0.011182496
-3.3961366e-07
0.011182365
-2.8962777e-07
0.011182252
-2.4548511e-07
0.011182155
-2.0681619e-07
0.011182073
-1.7315187e-07
0.011182004
-1.4410873e-07
0.011181946
-1.1912593e-07
0.011181898
-9.7924646e-08
0.011181859
-7.9819123e-08
0.011181826
-6.4856467e-08
0.0111818
-5.2000786e-08
0.011181778
-4.2101874e-08
0.011181761
-3.2994177e-08
0.011181746
-2.7609031e-08
-1.9964379e-08
0.010339525
-0.00069380425
0.010570754
-0.0010218027
0.010606301
-0.00095449449
0.010547572
-0.00084294334
0.010422317
-0.0007173708
0.010244356
-0.00057972443
0.010039421
-0.00045169204
0.0098287427
-0.00034297801
0.009625135
-0.00025616318
0.0094353013
-0.00018991984
0.0092624277
-0.00014121898
0.0091075332
-0.0001065098
0.008970154
-8.2320221e-05
0.0088489023
-6.5646241e-05
0.0087419716
-5.4127248e-05
0.0086474927
-4.6040041e-05
0.008563694
-4.0194286e-05
0.0084890108
-3.5792751e-05
0.0084221097
-3.2318757e-05
0.0083618775
-2.9449282e-05
0.0083073954
-2.698858e-05
0.0082579079
-2.4820305e-05
0.0082127929
-2.2875484e-05
0.0081715353
-2.1112419e-05
0.008133705
-1.9504654e-05
0.0080989388
-1.8034012e-05
0.0080669273
-1.6686719e-05
0.0080374037
-1.5451355e-05
0.0080101362
-1.4317854e-05
0.0079849214
-1.3277064e-05
0.0079615798
-1.2320587e-05
0.0079399519
-1.144072e-05
0.0079198952
-1.0630437e-05
0.0079012817
-9.8833704e-06
0.0078839963
-9.1937765e-06
0.0078679347
-8.5565004e-06
0.0078530024
-7.9669222e-06
0.0078391135
-7.4209069e-06
0.0078261896
-6.9147522e-06
0.0078141591
-6.4451365e-06
0.0078029565
-6.0090762e-06
0.0077925216
-5.6038829e-06
0.0077827991
-5.2271299e-06
0.0077737383
-4.8766211e-06
0.0077652923
-4.550363e-06
0.0077574178
-4.2465442e-06
0.0077500748
-3.9635101e-06
0.0077432265
-3.6997474e-06
0.0077368386
-3.4538652e-06
0.0077308795
-3.2245805e-06
0.00772532
-3.0107056e-06
0.0077201327
-2.8111373e-06
0.0077152928
-2.6248482e-06
0.0077107768
-2.4508816e-06
0.0077065632
-2.2883422e-06
0.0077026322
-2.1363967e-06
0.0076989651
-1.9942617e-06
0.007695545
-1.8612075e-06
0.007692356
-1.7365439e-06
0.0076893838
-1.6196278e-06
0.007686615
-1.509847e-06
0.0076840371
-1.4066379e-06
0.007681639
-1.3094655e-06
0.0076794101
-1.2178512e-06
0.0076773409
-1.131348e-06
0.0076754225
-1.0495732e-06
0.0076736467
-9.7217667e-07
0.0076720056
-8.9886925e-07
0.0076704923
-8.2938835e-07
0.0076690998
-7.6352427e-07
0.0076678217
-7.0108243e-07
0.0076666521
-6.4191914e-07
0.0076655849
-5.8589855e-07
0.0076646145
-5.329405e-07
0.0076637354
-4.8297091e-07
0.0076629419
-4.3596292e-07
0.0076622286
-3.9188909e-07
0.0076615901
-3.5073806e-07
0.0076610213
-3.1248313e-07
0.0076605168
-2.7708347e-07
0.0076600716
-2.4447467e-07
0.0076596809
-2.1457695e-07
0.0076593399
-1.8729701e-07
0.0076590439
-1.6254189e-07
0.0076587886
-1.4021959e-07
0.0076585695
-1.2023063e-07
0.0076583826
-1.0248091e-07
0.007658224
-8.6833842e-08
0.0076580904
-7.3164889e-08
0.0076579783
-6.1278525e-08
0.0076578851
-5.1031595e-08
0.007657808
-4.2197484e-08
0.0076577448
-3.4682776e-08
0.0076576933
-2.8246649e-08
0.0076576515
-2.2916664e-08
0.007657618
-1.8390157e-08
0.0076575908
-1.4870308e-08
0.0076575696
-1.1813469e-08
0.0076575517
-9.783789e-09
-7.6267957e-09
0.0093061957
0.0082843931
0.0073298986
0.0064869553
0.0057695845
0.00518986
0.004738168
0.00439519
0.0041390268
0.0039491069
0.003807888
0.0037013782
0.003619058
0.0035534117
0.0034992845
0.0034532445
0.0034130502
0.0033772574
0.0033449386
0.0033154893
0.0032885008
0.0032636804
0.003240805
0.0032196926
0.0032001879
0.0031821539
0.0031654672
0.0031500159
0.003135698
0.0031224209
0.0031101003
0.0030986596
0.0030880291
0.0030781458
0.003068952
0.0030603955
0.0030524286
0.0030450077
0.003038093
0.0030316478
0.0030256387
0.0030200348
0.0030148077
0.003009931
0.0030053807
0.0030011342
0.0029971707
0.0029934709
0.0029900171
0.0029867925
0.0029837818
0.0029809706
0.0029783457
0.0029758948
0.0029736065
0.0029714701
0.0029694759
0.0029676147
0.0029658781
0.0029642585
0.0029627486
0.002961342
0.0029600325
0.0029588147
0.0029576834
0.0029566339
0.0029556617
0.0029547629
0.0029539335
0.00295317
0.0029524689
0.002951827
0.0029512411
0.0029507083
0.0029502254
0.0029497896
0.0029493978
0.0029490471
0.0029487346
0.0029484574
0.0029482129
0.0029479983
0.002947811
0.0029476486
0.0029475085
0.0029473884
0.002947286
0.0029471992
0.002947126
0.0029470646
0.0029470135
0.0029469713
0.0029469366
0.0029469085
0.0029468856
0.0029468673
0.0029468524
0.0029468405
0.0029468307
)
;

boundaryField
{
    top
    {
        type            calculated;
        value           uniform 0;
    }
    inlet
    {
        type            calculated;
        value           nonuniform List<scalar> 10(-0.01 -0.01 -0.01 -0.01 -0.01 -0.01 -0.01 -0.01 -0.01 -0.01);
    }
    outlet
    {
        type            calculated;
        value           nonuniform List<scalar> 10(0.0029468231 0.0076575396 0.011181736 0.013523272 0.01469063 0.01469063 0.013523272 0.011181736 0.0076575394 0.0029468231);
    }
    bottom
    {
        type            calculated;
        value           uniform 0;
    }
    back
    {
        type            empty;
        value           nonuniform 0();
    }
    front
    {
        type            empty;
        value           nonuniform 0();
    }
}


// ************************************************************************* //
