/*--------------------------------*- C++ -*----------------------------------*\
| =========                 |                                                 |
| \\      /  F ield         | OpenFOAM: The Open Source CFD Toolbox           |
|  \\    /   O peration     | Version:  v1812                                 |
|   \\  /    A nd           | Web:      www.OpenFOAM.com                      |
|    \\/     M anipulation  |                                                 |
\*---------------------------------------------------------------------------*/
FoamFile
{
    version     2.0;
    format      ascii;
    class       surfaceScalarField;
    location    "9.7";
    object      phi;
}
// * * * * * * * * * * * * * * * * * * * * * * * * * * * * * * * * * * * * * //

dimensions      [0 3 -1 0 0 0 0];
oriented        oriented;


internalField   nonuniform List<scalar> 
1890
(
0.0093061957
0.00069380425
0.0082843931
0.0010218027
0.0073298986
0.00095449449
0.0064869553
0.00084294334
0.0057695845
0.0007173708
0.00518986
0.00057972444
0.004738168
0.00045169204
0.00439519
0.00034297801
0.0041390268
0.00025616318
0.003949107
0.00018991983
0.003807888
0.00014121897
0.0037013782
0.0001065098
0.003619058
8.232022e-05
0.0035534117
6.5646244e-05
0.0034992845
5.4127253e-05
0.0034532444
4.6040048e-05
0.0034130501
4.0194292e-05
0.0033772574
3.5792756e-05
0.0033449386
3.2318758e-05
0.0033154893
2.9449279e-05
0.0032885008
2.6988574e-05
0.0032636805
2.4820299e-05
0.003240805
2.2875479e-05
0.0032196926
2.1112419e-05
0.0032001879
1.950466e-05
0.0031821539
1.8034023e-05
0.0031654672
1.6686734e-05
0.0031500158
1.545137e-05
0.0031356979
1.4317865e-05
0.0031224208
1.327707e-05
0.0031101003
1.2320586e-05
0.0030986595
1.1440714e-05
0.0030880291
1.0630429e-05
0.0030781457
9.8833634e-06
0.003068952
9.1937748e-06
0.0030603955
8.5565049e-06
0.0030524285
7.9669316e-06
0.0030450076
7.420917e-06
0.0030380929
6.9147566e-06
0.0030316477
6.4451286e-06
0.0030256387
6.0090499e-06
0.0030200349
5.6038343e-06
0.0030148078
5.2270574e-06
0.0030099313
4.8765252e-06
0.003005381
4.5502463e-06
0.0030011346
4.2464091e-06
0.0029971713
3.9633609e-06
0.0029934717
3.6995896e-06
0.002990018
3.4537095e-06
0.0029867935
3.2244464e-06
0.0029837829
3.0106274e-06
0.0029809717
2.8111706e-06
0.0029783466
2.6250765e-06
0.0029758952
2.4514216e-06
0.0029736059
2.2893515e-06
0.0029714678
2.1380755e-06
0.0029694709
1.9968611e-06
0.0029676059
1.8650284e-06
0.002965864
1.7419461e-06
0.0029642369
1.6270256e-06
0.0029627172
1.5197185e-06
0.0029612977
1.4195127e-06
0.0029599718
1.32593e-06
0.0029587332
1.2385251e-06
0.0029575764
1.1568824e-06
0.0029564957
1.0806164e-06
0.0029554864
1.0093669e-06
0.0029545436
9.4279794e-07
0.002953663
8.8059406e-07
0.0029528405
8.2245725e-07
0.0029520724
7.6810578e-07
0.0029513551
7.1727295e-07
0.0029506854
6.6970676e-07
0.0029500603
6.2517264e-07
0.0029494768
5.8345158e-07
0.0029489325
5.4434188e-07
0.0029484248
5.0765812e-07
0.0029479516
4.7322425e-07
0.0029475107
4.4088124e-07
0.0029471003
4.1046808e-07
0.0029467184
3.8184807e-07
0.0029463635
3.5487226e-07
0.0029460341
3.294376e-07
0.0029457287
3.0540726e-07
0.002945446
2.8273361e-07
0.0029451848
2.61275e-07
0.0029449437
2.4106045e-07
0.0029447218
2.218944e-07
0.0029445179
2.0391685e-07
0.0029443311
1.8680077e-07
0.0029441602
1.7088721e-07
0.0029440046
1.5560377e-07
0.002943863
1.4166514e-07
0.0029437349
1.2805321e-07
0.0029436188
1.1611124e-07
0.0029435147
1.0410311e-07
0.0029434203
9.4307045e-08
0.0029433362
8.4153311e-08
0.0029432591
7.7111064e-08
7.2193681e-08
0.010339525
0.00035427932
0.010570754
0.00079057335
0.010606301
0.00091894821
0.010547572
0.00090167137
0.010422317
0.00084262624
0.010244356
0.00075768559
0.010039421
0.00065662744
0.0098287427
0.00055365586
0.009625135
0.00045977083
0.0094353013
0.00037975354
0.0092624277
0.00031409258
0.0091075332
0.00026140426
0.008970154
0.00021969949
0.0088489023
0.00018689787
0.0087419716
0.00016105803
0.0086474927
0.00014051895
0.008563694
0.00012399297
0.0084890108
0.000110476
0.0084221096
9.9219864e-05
0.0083618775
8.9681395e-05
0.0083073954
8.147066e-05
0.0082579079
7.4307842e-05
0.0082127929
6.7990497e-05
0.0081715353
6.2369997e-05
0.0081337049
5.7335027e-05
0.0080989388
5.2800198e-05
0.0080669272
4.8698279e-05
0.0080374036
4.4974962e-05
0.0080101361
4.1585392e-05
0.0079849213
3.8491841e-05
0.0079615798
3.5662146e-05
0.0079399519
3.3068602e-05
0.0079198951
3.0687167e-05
0.0079012816
2.8496853e-05
0.0078839962
2.6479255e-05
0.0078679345
2.4618167e-05
0.0078530022
2.289927e-05
0.0078391132
2.130987e-05
0.0078261893
1.9838677e-05
0.0078141588
1.8475614e-05
0.0078029562
1.721166e-05
0.0077925213
1.6038711e-05
0.0077827989
1.4949467e-05
0.0077737381
1.3937333e-05
0.007765292
1.2996331e-05
0.0077574174
1.2121033e-05
0.0077500743
1.1306492e-05
0.0077432257
1.0548196e-05
0.0077368374
9.8420147e-06
0.0077308776
9.1841622e-06
0.0077253171
8.5711604e-06
0.0077201285
7.9998086e-06
0.0077152864
7.467157e-06
0.0077107673
6.9704832e-06
0.0077065494
6.5072726e-06
0.0077026123
6.0752001e-06
0.007698937
5.6721148e-06
0.007695506
5.2960248e-06
0.0076923029
4.9450831e-06
0.0076893124
4.6175755e-06
0.0076865202
4.3119079e-06
0.0076839131
4.0265964e-06
0.0076814787
3.7602582e-06
0.0076792056
3.5116035e-06
0.0076770831
3.2794302e-06
0.0076751011
3.0626175e-06
0.0076732504
2.860121e-06
0.0076715222
2.6709663e-06
0.0076699086
2.4942428e-06
0.0076684019
2.3290978e-06
0.0076669953
2.1747295e-06
0.0076656821
2.0303817e-06
0.0076644565
1.8953435e-06
0.0076633127
1.7689429e-06
0.0076622456
1.6505558e-06
0.0076612504
1.5395943e-06
0.0076603225
1.435523e-06
0.0076594579
1.3378339e-06
0.0076586527
1.246076e-06
0.0076579034
1.1598012e-06
0.0076572066
1.0786363e-06
0.0076565593
1.002169e-06
0.0076559586
9.3011712e-07
0.0076554019
8.6208408e-07
0.0076548868
7.9792542e-07
0.0076544108
7.3721986e-07
0.0076539719
6.8003887e-07
0.007653568
6.2581921e-07
0.0076531969
5.7498412e-07
0.0076528571
5.2657613e-07
0.0076525463
4.8166551e-07
0.0076522635
4.3843477e-07
0.0076520059
3.992574e-07
0.0076517734
3.6054972e-07
0.0076515622
3.2733855e-07
0.0076513739
2.9236058e-07
0.007651202
2.6621118e-07
0.0076510523
2.3382701e-07
0.0076509113
2.1812708e-07
1.8474063e-07
0.010188704
0.00016557515
0.010530487
0.000448791
0.010851453
0.00059798177
0.011124174
0.00062895025
0.011350581
0.00061621887
0.011524486
0.00058378055
0.01164633
0.0005347842
0.011724155
0.00047583049
0.011767999
0.00041592665
0.011786639
0.000361114
0.011787114
0.00031361712
0.011775058
0.00027346026
0.011754861
0.00023989719
0.011729768
0.00021199032
0.011702054
0.00018877261
0.011673239
0.00016933388
0.011644339
0.00015289296
0.011616003
0.00013881183
0.011588629
0.00012659379
0.011562446
0.00011586444
0.011537572
0.00010634493
0.011514052
9.7827e-05
0.01149189
9.0153366e-05
0.011471056
8.3203374e-05
0.011451509
7.6882624e-05
0.011433193
7.1115572e-05
0.011416051
6.5840302e-05
0.011400021
6.1004914e-05
0.011385042
5.656507e-05
0.011371051
5.2482335e-05
0.01135799
4.8723024e-05
0.011345801
4.5257387e-05
0.01133443
4.2058998e-05
0.011323822
3.9104283e-05
0.011313929
3.6372139e-05
0.011304704
3.3843629e-05
0.011296101
3.1501714e-05
0.01128808
2.9331034e-05
0.011280601
2.7317711e-05
0.011273628
2.5449183e-05
0.011267125
2.3714051e-05
0.011261062
2.2101956e-05
0.011255408
2.0603464e-05
0.011250135
1.9209967e-05
0.011245218
1.7913597e-05
0.011240632
1.6707152e-05
0.011236354
1.5584028e-05
0.011232364
1.453816e-05
0.011228642
1.3563972e-05
0.01122517
1.2656332e-05
0.011221931
1.1810506e-05
0.011218909
1.1022125e-05
0.011216089
1.0287153e-05
0.011213457
9.6018572e-06
0.011211002
8.9627802e-06
0.01120871
8.3667207e-06
0.011206572
7.8107107e-06
0.011204576
7.2919984e-06
0.011202713
6.80803e-06
0.011200974
6.3564343e-06
0.011199351
5.9350076e-06
0.011197836
5.5416993e-06
0.011196421
5.1746e-06
0.011195101
4.8319291e-06
0.011193868
4.5120259e-06
0.011192718
4.2133404e-06
0.011191643
3.9344261e-06
0.01119064
3.6739325e-06
0.011189704
3.4305985e-06
0.01118883
3.2032449e-06
0.011188014
2.990769e-06
0.011187252
2.7921334e-06
0.011186541
2.6063672e-06
0.011185877
2.4325519e-06
0.011185258
2.2698314e-06
0.01118468
2.1173947e-06
0.011184141
1.9744989e-06
0.011183639
1.8404337e-06
0.01118317
1.714574e-06
0.011182734
1.5962942e-06
0.011182327
1.4850896e-06
0.011181949
1.3803862e-06
0.011181597
1.2818157e-06
0.011181271
1.1888046e-06
0.011180967
1.101183e-06
0.011180686
1.0182876e-06
0.011180426
9.4029257e-07
0.011180186
8.6624167e-07
0.011179964
7.9694803e-07
0.01117976
7.3070353e-07
0.011179572
6.695789e-07
0.0111794
6.1015193e-07
0.011179242
5.5710457e-07
0.011179099
5.0331539e-07
0.011178968
4.5896185e-07
0.011178851
4.0913064e-07
0.011178742
3.7538143e-07
0.011178649
3.2694548e-07
0.011178559
3.0793178e-07
2.5862151e-07
0.010097182
6.8393556e-05
0.010346961
0.00019901112
0.010662469
0.00028247387
0.010982753
0.00030866649
0.011290229
0.00030874342
0.011575251
0.00029875788
0.011829022
0.00028101346
0.012047865
0.00025698755
0.012233272
0.00023051982
0.01238924
0.0002051459
0.012520295
0.00018256236
0.012630755
0.00016299957
0.012724428
0.00014622491
0.012804515
0.00013190313
0.012873613
0.00011967426
0.012933772
0.00010917461
0.012986596
0.00010006907
0.013033332
9.2076363e-05
0.01307495
8.4975251e-05
0.013112216
7.8598614e-05
0.013145739
7.2822305e-05
0.013176012
6.7553941e-05
0.013203441
6.2723929e-05
0.013228366
5.8278901e-05
0.013251071
5.4176992e-05
0.013271802
5.0384437e-05
0.01329077
4.6873169e-05
0.013308155
4.3619184e-05
0.013324119
4.0601464e-05
0.0133388
3.7801285e-05
0.013352321
3.5201758e-05
0.013364791
3.2787538e-05
0.013376306
3.0544603e-05
0.01338695
2.8460104e-05
0.0133968
2.6522238e-05
0.013405923
2.4720153e-05
0.013414381
2.304386e-05
0.013422228
2.1484158e-05
0.013429513
2.0032571e-05
0.013436281
1.868128e-05
0.013442572
1.7423073e-05
0.013448422
1.6251291e-05
0.013453866
1.5159782e-05
0.013458933
1.4142857e-05
0.013463652
1.3195257e-05
0.013468047
1.2312111e-05
0.013472142
1.1488913e-05
0.013475958
1.0721482e-05
0.013479516
1.0005949e-05
0.013482834
9.3387217e-06
0.013485928
8.7164692e-06
0.013488814
8.1360997e-06
0.013491507
7.594741e-06
0.013494019
7.0897248e-06
0.013496363
6.6185704e-06
0.013498551
6.1789707e-06
0.013500593
5.7687803e-06
0.013502499
5.3860028e-06
0.013504278
5.0287812e-06
0.013505939
4.6953875e-06
0.01350749
4.3842122e-06
0.013508938
4.0937577e-06
0.01351029
3.8226265e-06
0.013511552
3.5695155e-06
0.013512731
3.3332079e-06
0.013513832
3.1125653e-06
0.013514859
2.9065252e-06
0.013515819
2.7140925e-06
0.013516716
2.5343386e-06
0.013517552
2.3663954e-06
0.013518334
2.2094498e-06
0.013519063
2.0627418e-06
0.013519744
1.9255585e-06
0.013520379
1.7972276e-06
0.013520972
1.677123e-06
0.013521525
1.5646461e-06
0.01352204
1.4592514e-06
0.01352252
1.3604094e-06
0.013522967
1.267658e-06
0.013523383
1.1805293e-06
0.013523769
1.0986542e-06
0.013524128
1.0216006e-06
0.013524461
9.4911267e-07
0.013524769
8.8074183e-07
0.013525053
8.1639906e-07
0.013525316
7.5552552e-07
0.013525558
6.9833138e-07
0.01352578
6.4395645e-07
0.013525984
5.9320121e-07
0.01352617
5.4447663e-07
0.01352634
4.9978387e-07
0.013526494
4.5589209e-07
0.013526634
4.1727713e-07
0.01352676
3.7722238e-07
0.013526874
3.4525936e-07
0.013526975
3.076116e-07
0.013527067
2.8373381e-07
0.013527148
2.463947e-07
0.013527222
2.3335632e-07
1.9662479e-07
0.010068394
-5.6541441e-13
0.010267405
-4.5521084e-13
0.010549879
-2.1204116e-13
0.010858545
-8.2834744e-14
0.011167288
-5.2455198e-14
0.011466046
-1.2982279e-13
0.01174706
-1.5409244e-13
0.012004047
-1.7422362e-13
0.012234567
4.5114487e-13
0.012439713
7.4069338e-13
0.012622275
1.1241626e-12
0.012785275
1.4256962e-12
0.0129315
1.5268389e-12
0.013063403
1.3046667e-12
0.013183077
6.2347245e-13
0.013292252
3.7146674e-13
0.013392321
1.2777209e-13
0.013484397
-2.1108292e-13
0.013569373
-2.3332938e-13
0.013647971
4.9808672e-13
0.013720794
9.3898169e-13
0.013788347
1.7303701e-12
0.013851071
2.7388871e-12
0.01390935
3.8949484e-12
0.013963527
4.1627354e-12
0.014013912
4.5388774e-12
0.014060785
4.4867448e-12
0.014104404
4.3115877e-12
0.014145005
4.0778834e-12
0.014182807
3.9957545e-12
0.014218009
4.4193743e-12
0.014250796
5.7057944e-12
0.014281341
7.7282241e-12
0.014309801
1.0000486e-11
0.014336323
1.2290689e-11
0.014361043
1.438494e-11
0.014384087
1.5817798e-11
0.014405571
1.6582863e-11
0.014425604
1.6905192e-11
0.014444285
1.691567e-11
0.014461708
1.7497455e-11
0.014477959
1.8740142e-11
0.014493119
2.0970292e-11
0.014507262
2.4267267e-11
0.014520457
2.8060396e-11
0.014532769
3.2133737e-11
0.014544258
3.5469765e-11
0.014554979
3.7797677e-11
0.014564985
3.9029191e-11
0.014574324
3.9012048e-11
0.01458304
3.8839473e-11
0.014591177
3.8881767e-11
0.014598771
3.978525e-11
0.014605861
4.1880355e-11
0.014612479
4.4494697e-11
0.014618658
4.7472516e-11
0.014624427
4.9407188e-11
0.014629813
4.9798286e-11
0.014634842
4.8309342e-11
0.014639537
4.4312758e-11
0.014643921
3.897046e-11
0.014648015
3.2642266e-11
0.014651838
2.6052297e-11
0.014655407
2.0511125e-11
0.01465874
1.5142794e-11
0.014661853
9.7125179e-12
0.014664759
1.7593363e-12
0.014667473
-8.4153369e-12
0.014670008
-2.1952953e-11
0.014672374
-3.8488447e-11
0.014674584
-5.6785443e-11
0.014676647
-7.6012605e-11
0.014678572
-9.3952669e-11
0.01468037
-1.0984129e-10
0.014682047
-1.2408214e-10
0.014683612
-1.3794511e-10
0.014685071
-1.5225892e-10
0.014686432
-1.6926558e-10
0.014687699
-1.8665409e-10
0.01468888
-2.0577279e-10
0.014689979
-2.2127263e-10
0.014691001
-2.3308778e-10
0.01469195
-2.3728566e-10
0.014692831
-2.3458515e-10
0.014693648
-2.2449951e-10
0.014694403
-2.1202782e-10
0.014695102
-1.9695968e-10
0.014695746
-1.848889e-10
0.014696339
-1.716233e-10
0.014696884
-1.6019506e-10
0.014697384
-1.4289182e-10
0.01469784
-1.2110791e-10
0.014698257
-8.8818781e-11
0.014698635
-5.0903078e-11
0.01469898
-7.2131623e-12
0.014699287
3.3384818e-11
0.014699571
6.6899198e-11
0.014699817
9.4959082e-11
0.014700051
1.0027442e-10
1.3139742e-10
0.010068394
-6.8393557e-05
0.010267405
-0.00019901112
0.010549879
-0.00028247387
0.010858545
-0.00030866649
0.011167288
-0.00030874342
0.011466046
-0.00029875788
0.01174706
-0.00028101346
0.012004047
-0.00025698755
0.012234567
-0.00023051982
0.012439713
-0.0002051459
0.012622275
-0.00018256236
0.012785275
-0.00016299957
0.0129315
-0.00014622491
0.013063403
-0.00013190312
0.013183077
-0.00011967426
0.013292252
-0.00010917461
0.013392321
-0.00010006907
0.013484397
-9.2076364e-05
0.013569373
-8.4975252e-05
0.013647971
-7.8598613e-05
0.013720794
-7.2822303e-05
0.013788347
-6.7553937e-05
0.013851071
-6.2723923e-05
0.01390935
-5.8278894e-05
0.013963527
-5.4176985e-05
0.014013912
-5.0384429e-05
0.014060785
-4.6873161e-05
0.014104404
-4.3619177e-05
0.014145006
-4.0601457e-05
0.014182807
-3.7801277e-05
0.014218009
-3.5201749e-05
0.014250796
-3.2787526e-05
0.014281341
-3.0544588e-05
0.014309801
-2.8460084e-05
0.014336323
-2.6522215e-05
0.014361043
-2.4720127e-05
0.014384087
-2.3043832e-05
0.014405571
-2.1484129e-05
0.014425604
-2.0032541e-05
0.014444285
-1.8681249e-05
0.014461708
-1.742304e-05
0.014477959
-1.6251255e-05
0.014493119
-1.515974e-05
0.014507262
-1.414281e-05
0.014520457
-1.3195204e-05
0.014532769
-1.2312052e-05
0.014544258
-1.1488849e-05
0.01455498
-1.0721415e-05
0.014564985
-1.0005879e-05
0.014574324
-9.3386513e-06
0.014583041
-8.716398e-06
0.014591177
-8.1360271e-06
0.014598771
-7.5946657e-06
0.014605861
-7.0896459e-06
0.01461248
-6.6184875e-06
0.014618658
-6.1788841e-06
0.014624427
-5.7686921e-06
0.014629813
-5.3859152e-06
0.014634842
-5.0286973e-06
0.014639537
-4.6953101e-06
0.014643921
-4.3841437e-06
0.014648015
-4.0936996e-06
0.014651838
-3.8225792e-06
0.014655407
-3.569479e-06
0.01465874
-3.3331827e-06
0.014661853
-3.1125527e-06
0.01466476
-2.9065292e-06
0.014667474
-2.7141171e-06
0.014670008
-2.5343892e-06
0.014672374
-2.366475e-06
0.014674584
-2.2095613e-06
0.014676647
-2.0628853e-06
0.014678572
-1.9257332e-06
0.01468037
-1.7974316e-06
0.014682047
-1.6773557e-06
0.014683612
-1.5649069e-06
0.014685071
-1.4595425e-06
0.014686432
-1.3607309e-06
0.014687699
-1.2680112e-06
0.01468888
-1.1809108e-06
0.014689979
-1.0990594e-06
0.014691001
-1.0220205e-06
0.01469195
-9.4953768e-07
0.014692831
-8.8116077e-07
0.014693647
-8.168039e-07
0.014694403
-7.5590972e-07
0.014695102
-6.9869341e-07
0.014695746
-6.4429425e-07
0.014696339
-5.9351458e-07
0.014696884
-5.4476009e-07
0.014697384
-5.0003166e-07
0.01469784
-4.5609148e-07
0.014698257
-4.1741839e-07
0.014698634
-3.7729409e-07
0.014698979
-3.4525952e-07
0.014699287
-3.0754254e-07
0.014699571
-2.8361728e-07
0.014699817
-2.4622077e-07
0.01470005
-2.3316294e-07
-1.9638043e-07
0.010097182
-0.00016557516
0.010346961
-0.000448791
0.010662469
-0.00059798178
0.010982753
-0.00062895025
0.011290229
-0.00061621887
0.011575251
-0.00058378055
0.011829022
-0.0005347842
0.012047865
-0.00047583049
0.012233272
-0.00041592665
0.01238924
-0.00036111399
0.012520295
-0.00031361711
0.012630755
-0.00027346026
0.012724428
-0.00023989719
0.012804515
-0.00021199032
0.012873613
-0.00018877261
0.012933772
-0.00016933388
0.012986596
-0.00015289296
0.013033332
-0.00013881182
0.01307495
-0.00012659378
0.013112216
-0.00011586444
0.013145739
-0.00010634493
0.013176012
-9.7826995e-05
0.013203441
-9.0153362e-05
0.013228366
-8.3203371e-05
0.013251071
-7.6882621e-05
0.013271802
-7.1115569e-05
0.01329077
-6.5840298e-05
0.013308155
-6.1004908e-05
0.013324119
-5.6565063e-05
0.0133388
-5.2482325e-05
0.013352321
-4.8723012e-05
0.013364791
-4.5257374e-05
0.013376306
-4.2058984e-05
0.01338695
-3.9104268e-05
0.0133968
-3.6372124e-05
0.013405923
-3.3843613e-05
0.013414381
-3.1501697e-05
0.013422228
-2.9331014e-05
0.013429513
-2.7317688e-05
0.013436281
-2.5449156e-05
0.013442572
-2.371402e-05
0.013448423
-2.2101923e-05
0.013453866
-2.0603429e-05
0.013458933
-1.920993e-05
0.013463652
-1.7913559e-05
0.013468047
-1.6707112e-05
0.013472142
-1.5583984e-05
0.013475959
-1.4538113e-05
0.013479517
-1.3563922e-05
0.013482834
-1.2656277e-05
0.013485928
-1.1810448e-05
0.013488814
-1.1022065e-05
0.013491507
-1.0287092e-05
0.013494019
-9.6017964e-06
0.013496363
-8.9627201e-06
0.013498551
-8.3666621e-06
0.013500593
-7.8106529e-06
0.013502499
-7.2919412e-06
0.013504278
-6.8079739e-06
0.013505939
-6.3563799e-06
0.01350749
-5.9349577e-06
0.013508938
-5.5416564e-06
0.01351029
-5.1745672e-06
0.013511552
-4.8319096e-06
0.013512731
-4.5120204e-06
0.013513832
-4.2133507e-06
0.01351486
-3.9344512e-06
0.01351582
-3.6739723e-06
0.013516716
-3.4306543e-06
0.013517553
-3.2033171e-06
0.013518334
-2.9908611e-06
0.013519064
-2.7922485e-06
0.013519744
-2.6065085e-06
0.01352038
-2.4327224e-06
0.013520972
-2.2700303e-06
0.013521525
-2.1176204e-06
0.01352204
-1.9747467e-06
0.01352252
-1.8406976e-06
0.013522967
-1.71485e-06
0.013523383
-1.5965775e-06
0.013523769
-1.4853799e-06
0.013524128
-1.3806823e-06
0.01352446
-1.2821169e-06
0.013524768
-1.1891087e-06
0.013525053
-1.1014839e-06
0.013525315
-1.0185775e-06
0.013525557
-9.405629e-07
0.013525779
-8.6648347e-07
0.013525983
-7.9715656e-07
0.013526169
-7.3087573e-07
0.013526339
-6.6971408e-07
0.013526493
-6.1025059e-07
0.013526633
-5.5716396e-07
0.013526759
-5.0333525e-07
0.013526873
-4.5894456e-07
0.013526974
-4.0907339e-07
0.013527066
-3.7529569e-07
0.013527146
-3.2681624e-07
0.013527221
-3.0776721e-07
-2.5842105e-07
0.010188704
-0.00035427932
0.010530487
-0.00079057335
0.010851453
-0.00091894821
0.011124174
-0.00090167137
0.011350581
-0.00084262624
0.011524486
-0.00075768559
0.01164633
-0.00065662744
0.011724155
-0.00055365586
0.011767999
-0.00045977083
0.011786639
-0.00037975353
0.011787114
-0.00031409258
0.011775058
-0.00026140426
0.011754861
-0.00021969949
0.011729768
-0.00018689787
0.011702054
-0.00016105803
0.011673239
-0.00014051895
0.011644339
-0.00012399296
0.011616003
-0.00011047599
0.011588629
-9.9219861e-05
0.011562446
-8.9681392e-05
0.011537572
-8.1470658e-05
0.011514052
-7.4307841e-05
0.01149189
-6.7990498e-05
0.011471056
-6.2369998e-05
0.011451509
-5.7335027e-05
0.011433193
-5.2800197e-05
0.011416051
-4.8698274e-05
0.011400021
-4.4974955e-05
0.011385042
-4.1585383e-05
0.011371051
-3.8491832e-05
0.01135799
-3.5662138e-05
0.011345801
-3.3068596e-05
0.01133443
-3.0687163e-05
0.011323822
-2.849685e-05
0.011313929
-2.647925e-05
0.011304704
-2.461816e-05
0.011296101
-2.2899259e-05
0.01128808
-2.1309855e-05
0.011280601
-1.9838658e-05
0.011273628
-1.8475593e-05
0.011267125
-1.7211639e-05
0.011261062
-1.6038691e-05
0.011255408
-1.494945e-05
0.011250135
-1.3937317e-05
0.011245218
-1.2996315e-05
0.011240632
-1.2121013e-05
0.011236355
-1.1306468e-05
0.011232365
-1.0548167e-05
0.011228643
-9.8419809e-06
0.011225171
-9.1841258e-06
0.011221931
-8.5711241e-06
0.011218909
-7.9997747e-06
0.011216089
-7.4671269e-06
0.011213458
-6.9704565e-06
0.011211002
-6.5072476e-06
0.011208711
-6.0751744e-06
0.011206572
-5.6720862e-06
0.011204576
-5.2959928e-06
0.011202713
-4.9450491e-06
0.011200974
-4.6175432e-06
0.011199351
-4.3118817e-06
0.011197836
-4.0265803e-06
0.011196422
-3.7602543e-06
0.011195102
-3.5116112e-06
0.011193869
-3.2794469e-06
0.011192718
-3.0626397e-06
0.011191644
-2.8601455e-06
0.011190641
-2.6709934e-06
0.011189705
-2.4942752e-06
0.01118883
-2.3291411e-06
0.011188014
-2.1747895e-06
0.011187253
-2.0304632e-06
0.011186541
-1.8954476e-06
0.011185878
-1.7690668e-06
0.011185258
-1.6506928e-06
0.011184681
-1.5397374e-06
0.011184142
-1.4356651e-06
0.011183639
-1.3379734e-06
0.01118317
-1.2462134e-06
0.011182733
-1.1599422e-06
0.011182327
-1.0787853e-06
0.011181948
-1.0023297e-06
0.011181597
-9.3028684e-07
0.01118127
-8.6225697e-07
0.011180966
-7.9809013e-07
0.011180685
-7.3736726e-07
0.011180425
-6.8016068e-07
0.011180184
-6.2591506e-07
0.011179962
-5.7505534e-07
0.011179758
-5.2662857e-07
0.01117957
-4.817008e-07
0.011179398
-4.3845623e-07
0.01117924
-3.9926583e-07
0.011179097
-3.6054872e-07
0.011178966
-3.2732846e-07
0.011178849
-2.9232944e-07
0.01117874
-2.6615242e-07
0.011178647
-2.3373615e-07
0.011178557
-2.1802788e-07
-1.8462626e-07
0.010339525
-0.00069380425
0.010570754
-0.0010218027
0.010606301
-0.00095449449
0.010547572
-0.00084294334
0.010422317
-0.0007173708
0.010244356
-0.00057972443
0.010039421
-0.00045169204
0.0098287427
-0.00034297801
0.009625135
-0.00025616318
0.0094353013
-0.00018991984
0.0092624277
-0.00014121898
0.0091075332
-0.0001065098
0.008970154
-8.232022e-05
0.0088489023
-6.5646242e-05
0.0087419716
-5.412725e-05
0.0086474927
-4.6040044e-05
0.008563694
-4.019429e-05
0.0084890108
-3.5792755e-05
0.0084221096
-3.2318759e-05
0.0083618775
-2.9449282e-05
0.0083073954
-2.6988577e-05
0.0082579079
-2.4820301e-05
0.0082127929
-2.287548e-05
0.0081715353
-2.1112418e-05
0.008133705
-1.9504657e-05
0.0080989388
-1.8034019e-05
0.0080669272
-1.6686729e-05
0.0080374036
-1.5451367e-05
0.0080101361
-1.4317863e-05
0.0079849213
-1.327707e-05
0.0079615798
-1.2320588e-05
0.0079399519
-1.1440716e-05
0.0079198952
-1.0630429e-05
0.0079012817
-9.8833617e-06
0.0078839962
-9.1937706e-06
0.0078679346
-8.5564983e-06
0.0078530022
-7.9669238e-06
0.0078391133
-7.4209094e-06
0.0078261894
-6.9147503e-06
0.0078141589
-6.4451247e-06
0.0078029563
-6.0090479e-06
0.0077925214
-5.6038334e-06
0.007782799
-5.2270559e-06
0.0077737383
-4.8765213e-06
0.0077652922
-4.5502393e-06
0.0077574176
-4.2463987e-06
0.0077500745
-3.9633483e-06
0.0077432259
-3.6995768e-06
0.0077368376
-3.4536983e-06
0.0077308779
-3.2244385e-06
0.0077253174
-3.0106225e-06
0.0077201288
-2.8111677e-06
0.0077152867
-2.6250734e-06
0.0077107677
-2.4514159e-06
0.0077065498
-2.2893422e-06
0.0077026127
-2.1380625e-06
0.0076989375
-1.9968464e-06
0.0076955065
-1.8650151e-06
0.0076923034
-1.741937e-06
0.0076893128
-1.6270232e-06
0.0076865206
-1.5197224e-06
0.0076839136
-1.4195209e-06
0.0076814792
-1.325939e-06
0.0076792062
-1.238531e-06
0.0076770836
-1.1568844e-06
0.0076751016
-1.0806146e-06
0.0076732509
-1.0093657e-06
0.0076715227
-9.4280186e-07
0.007669909
-8.8060755e-07
0.0076684023
-8.2248239e-07
0.0076669956
-7.6814089e-07
0.0076656824
-7.173131e-07
0.0076644567
-6.6974721e-07
0.0076633129
-6.2520705e-07
0.0076622457
-5.8348034e-07
0.0076612503
-5.4436499e-07
0.0076603224
-5.0768202e-07
0.0076594576
-4.7325313e-07
0.0076586523
-4.4091932e-07
0.0076579028
-4.105147e-07
0.0076572059
-3.8190046e-07
0.0076565585
-3.5492287e-07
0.0076559577
-3.2948255e-07
0.0076554009
-3.0544042e-07
0.0076548856
-2.8275747e-07
0.0076544096
-2.612906e-07
0.0076539705
-2.4107377e-07
0.0076535665
-2.2190731e-07
0.0076531953
-2.0393041e-07
0.0076528555
-1.8681066e-07
0.0076525447
-1.7089288e-07
0.0076522618
-1.5560189e-07
0.0076520043
-1.4166092e-07
0.0076517718
-1.2804552e-07
0.0076515605
-1.1610732e-07
0.0076513723
-1.0409808e-07
0.0076512004
-9.4305166e-08
0.0076510508
-8.4139998e-08
0.0076509099
-7.7089143e-08
-7.2163975e-08
0.0093061957
0.0082843931
0.0073298986
0.0064869553
0.0057695845
0.00518986
0.004738168
0.00439519
0.0041390268
0.003949107
0.003807888
0.0037013782
0.003619058
0.0035534117
0.0034992845
0.0034532444
0.0034130501
0.0033772574
0.0033449386
0.0033154893
0.0032885008
0.0032636805
0.003240805
0.0032196926
0.0032001879
0.0031821539
0.0031654672
0.0031500158
0.0031356979
0.0031224209
0.0031101003
0.0030986596
0.0030880291
0.0030781458
0.003068952
0.0030603955
0.0030524286
0.0030450077
0.0030380929
0.0030316478
0.0030256387
0.0030200349
0.0030148078
0.0030099313
0.0030053811
0.0030011347
0.0029971714
0.0029934718
0.0029900181
0.0029867936
0.002983783
0.0029809718
0.0029783468
0.0029758954
0.002973606
0.002971468
0.0029694711
0.0029676061
0.0029658641
0.0029642371
0.0029627174
0.0029612979
0.0029599719
0.0029587334
0.0029575765
0.0029564959
0.0029554866
0.0029545437
0.0029536631
0.0029528406
0.0029520725
0.0029513552
0.0029506854
0.0029500602
0.0029494768
0.0029489324
0.0029484247
0.0029479514
0.0029475105
0.0029471
0.0029467181
0.0029463631
0.0029460337
0.0029457283
0.0029454455
0.0029451842
0.0029449431
0.0029447212
0.0029445173
0.0029443305
0.0029441596
0.002944004
0.0029438624
0.0029437343
0.0029436182
0.0029435141
0.0029434198
0.0029433356
0.0029432586
)
;

boundaryField
{
    top
    {
        type            calculated;
        value           uniform 0;
    }
    inlet
    {
        type            calculated;
        value           nonuniform List<scalar> 10(-0.01 -0.01 -0.01 -0.01 -0.01 -0.01 -0.01 -0.01 -0.01 -0.01);
    }
    outlet
    {
        type            calculated;
        value           nonuniform List<scalar> 10(0.0029431869 0.0076507987 0.011178485 0.013527284 0.014700247 0.014700247 0.013527283 0.011178483 0.0076507974 0.0029431864);
    }
    bottom
    {
        type            calculated;
        value           uniform 0;
    }
    back
    {
        type            empty;
        value           nonuniform 0();
    }
    front
    {
        type            empty;
        value           nonuniform 0();
    }
}


// ************************************************************************* //
