/*--------------------------------*- C++ -*----------------------------------*\
| =========                 |                                                 |
| \\      /  F ield         | OpenFOAM: The Open Source CFD Toolbox           |
|  \\    /   O peration     | Version:  v1812                                 |
|   \\  /    A nd           | Web:      www.OpenFOAM.com                      |
|    \\/     M anipulation  |                                                 |
\*---------------------------------------------------------------------------*/
FoamFile
{
    version     2.0;
    format      ascii;
    class       volVectorField;
    location    "0.85";
    object      U;
}
// * * * * * * * * * * * * * * * * * * * * * * * * * * * * * * * * * * * * * //

dimensions      [0 1 -1 0 0 0 0];


internalField   nonuniform List<vector> 
1000
(
(0.91920302 0.03581483 0)
(0.86260572 0.062375482 0)
(0.78530363 0.061433535 0)
(0.69779131 0.051468797 0)
(0.62035988 0.040352684 0)
(0.55917059 0.02851755 0)
(0.51606459 0.016851277 0)
(0.48928413 0.0080298093 0)
(0.47396117 0.0030237902 0)
(0.46565768 0.00066872764 0)
(0.46163213 -0.00035040131 0)
(0.46012573 -0.00069796161 0)
(0.45992478 -0.00067407758 0)
(0.46022688 -0.00050280515 0)
(0.46063264 -0.00033355021 0)
(0.46098173 -0.00020679263 0)
(0.46123801 -0.00012174157 0)
(0.46140935 -6.8114143e-05 0)
(0.46151624 -3.6178662e-05 0)
(0.46157929 -1.8214458e-05 0)
(0.46161474 -8.6475273e-06 0)
(0.46163383 -3.8132125e-06 0)
(0.46164369 -1.500841e-06 0)
(0.46164855 -4.6657179e-07 0)
(0.46165081 -4.8043405e-08 0)
(0.46165179 9.1692317e-08 0)
(0.46165216 1.1625861e-07 0)
(0.46165227 1.00655e-07 0)
(0.46165227 7.5810986e-08 0)
(0.46165224 5.1308125e-08 0)
(0.4616522 3.3092167e-08 0)
(0.46165216 2.1182598e-08 0)
(0.46165214 1.3838215e-08 0)
(0.46165212 9.3361988e-09 0)
(0.46165211 6.5741051e-09 0)
(0.4616521 4.8918911e-09 0)
(0.46165209 3.8583689e-09 0)
(0.46165208 3.206102e-09 0)
(0.46165207 2.7476498e-09 0)
(0.46165207 2.3970479e-09 0)
(0.46165206 2.1079294e-09 0)
(0.46165206 1.8635639e-09 0)
(0.46165205 1.6308538e-09 0)
(0.46165205 1.4135161e-09 0)
(0.46165205 1.2134604e-09 0)
(0.46165204 1.0425313e-09 0)
(0.46165204 8.7978628e-10 0)
(0.46165204 7.3371212e-10 0)
(0.46165204 6.0616479e-10 0)
(0.46165204 5.0804211e-10 0)
(0.46165204 4.1700938e-10 0)
(0.46165203 3.3500636e-10 0)
(0.46165203 2.6965908e-10 0)
(0.46165203 2.2301449e-10 0)
(0.46165203 1.7792517e-10 0)
(0.46165203 1.3780308e-10 0)
(0.46165203 1.098626e-10 0)
(0.46165203 9.7880931e-11 0)
(0.46165203 8.39152e-11 0)
(0.46165203 6.9895037e-11 0)
(0.46165203 6.3227562e-11 0)
(0.46165203 7.0241778e-11 0)
(0.46165203 7.163599e-11 0)
(0.46165203 6.9257981e-11 0)
(0.46165203 7.7023551e-11 0)
(0.46165203 9.9781646e-11 0)
(0.46165203 1.1942541e-10 0)
(0.46165203 1.403692e-10 0)
(0.46165203 1.6414064e-10 0)
(0.46165203 1.9461503e-10 0)
(0.46165203 2.1429423e-10 0)
(0.46165203 2.0351774e-10 0)
(0.46165203 2.3156578e-10 0)
(0.46165203 1.2692028e-10 0)
(0.46165203 3.3082926e-10 0)
(0.46165203 -3.3579916e-10 0)
(0.46165202 1.1519937e-09 0)
(0.46165203 -2.4002681e-09 0)
(0.46165201 6.359574e-09 0)
(0.46165206 -1.3287304e-08 0)
(0.46165194 3.2169276e-08 0)
(0.46165219 -6.6372262e-08 0)
(0.46165163 1.4734405e-07 0)
(0.46165282 -2.9070124e-07 0)
(0.46165031 5.977618e-07 0)
(0.46165536 -1.1024021e-06 0)
(0.46164538 2.0641699e-06 0)
(0.46166415 -3.4794154e-06 0)
(0.46162969 5.7644898e-06 0)
(0.46168965 -8.3483115e-06 0)
(0.46158839 1.1530324e-05 0)
(0.46174949 -1.1684897e-05 0)
(0.46149896 9.8000901e-06 0)
(0.46186362 6.8783836e-06 0)
(0.4613309 -2.6137474e-05 0)
(0.46204386 6.8483319e-05 0)
(0.46106164 -8.0539867e-05 0)
(0.4621898 3.260827e-05 0)
(0.46101624 -1.8305127e-05 0)
(0.46199656 -0.00023339045 0)
(1.0018037 0.053665526 0)
(1.0363451 0.1013073 0)
(1.0568939 0.10921798 0)
(1.061244 0.10136708 0)
(1.0550815 0.089519596 0)
(1.0398769 0.07436707 0)
(1.0210681 0.055510748 0)
(1.0049984 0.03680328 0)
(0.99307834 0.022189714 0)
(0.98418889 0.012345541 0)
(0.97785339 0.0061494691 0)
(0.97389868 0.0025051578 0)
(0.97179255 0.00062459768 0)
(0.97077959 -0.0001682965 0)
(0.97034823 -0.00039867785 0)
(0.97021552 -0.0003885264 0)
(0.97022069 -0.00030450446 0)
(0.97027329 -0.00021212829 0)
(0.97033022 -0.0001363723 0)
(0.9703762 -8.2520493e-05 0)
(0.97040875 -4.7555579e-05 0)
(0.97043002 -2.6270619e-05 0)
(0.97044314 -1.3947257e-05 0)
(0.97045088 -7.1103193e-06 0)
(0.97045526 -3.4640149e-06 0)
(0.97045765 -1.5946956e-06 0)
(0.97045891 -6.7646076e-07 0)
(0.97045955 -2.478647e-07 0)
(0.97045985 -6.1281669e-08 0)
(0.97045999 1.0051381e-08 0)
(0.97046005 3.1694923e-08 0)
(0.97046007 3.3165964e-08 0)
(0.97046007 2.8860063e-08 0)
(0.97046006 2.3572645e-08 0)
(0.97046005 1.9066916e-08 0)
(0.97046005 1.566898e-08 0)
(0.97046004 1.3254789e-08 0)
(0.97046003 1.1518586e-08 0)
(0.97046002 1.0238033e-08 0)
(0.97046001 9.1945375e-09 0)
(0.97046 8.3126126e-09 0)
(0.97046 7.4996071e-09 0)
(0.97045999 6.7496941e-09 0)
(0.97045999 6.0134645e-09 0)
(0.97045998 5.3249525e-09 0)
(0.97045998 4.663467e-09 0)
(0.97045997 4.0621992e-09 0)
(0.97045997 3.4878241e-09 0)
(0.97045997 2.9834763e-09 0)
(0.97045997 2.5179807e-09 0)
(0.97045996 2.1308159e-09 0)
(0.97045996 1.7691289e-09 0)
(0.97045996 1.4736596e-09 0)
(0.97045996 1.2092919e-09 0)
(0.97045996 1.0023416e-09 0)
(0.97045996 8.1265163e-10 0)
(0.97045996 6.6933567e-10 0)
(0.97045996 5.4455313e-10 0)
(0.97045996 4.6627538e-10 0)
(0.97045996 3.8839073e-10 0)
(0.97045996 3.4761274e-10 0)
(0.97045996 3.1247657e-10 0)
(0.97045995 3.1482886e-10 0)
(0.97045996 3.0792939e-10 0)
(0.97045995 3.3512827e-10 0)
(0.97045995 3.6535509e-10 0)
(0.97045995 4.3113892e-10 0)
(0.97045995 4.9350054e-10 0)
(0.97045995 5.9262549e-10 0)
(0.97045995 6.8371315e-10 0)
(0.97045995 8.2059161e-10 0)
(0.97045995 8.5559837e-10 0)
(0.97045995 1.0913516e-09 0)
(0.97045995 7.7186676e-10 0)
(0.97045995 1.7836308e-09 0)
(0.97045995 -6.3352428e-10 0)
(0.97045993 5.2352781e-09 0)
(0.97045997 -8.7674979e-09 0)
(0.97045988 2.4382551e-08 0)
(0.9704601 -5.0561453e-08 0)
(0.97045958 1.1821789e-07 0)
(0.97046074 -2.4467475e-07 0)
(0.97045819 5.2328231e-07 0)
(0.97046364 -1.0252686e-06 0)
(0.97045227 2.0212951e-06 0)
(0.97047523 -3.6394852e-06 0)
(0.97043024 6.4666583e-06 0)
(0.9705151 -1.0307103e-05 0)
(0.97036084 1.5645237e-05 0)
(0.97062889 -2.0006701e-05 0)
(0.97018423 2.2027166e-05 0)
(0.97088164 -1.2471463e-05 0)
(0.96985174 -9.1835822e-06 0)
(0.9712605 5.6644995e-05 0)
(0.96948458 -0.00010084535 0)
(0.97146959 0.00012717723 0)
(0.96950404 -8.1992775e-05 0)
(0.97101518 -8.1082443e-05 0)
(0.97007829 5.9356147e-05 0)
(0.9705007 -0.00024292709 0)
(1.0015262 0.026582335 0)
(1.02936 0.062381869 0)
(1.0614967 0.076027458 0)
(1.095042 0.076564873 0)
(1.125193 0.072218275 0)
(1.1434352 0.06406664 0)
(1.1515172 0.051681207 0)
(1.1561341 0.037719862 0)
(1.1591022 0.02549036 0)
(1.1595804 0.016225345 0)
(1.1582684 0.0096428145 0)
(1.1566463 0.0052246596 0)
(1.1554045 0.0025068319 0)
(1.1545441 0.0010009735 0)
(1.1539629 0.00026136949 0)
(1.1535861 -5.2000188e-05 0)
(1.1533665 -0.00014861446 0)
(1.1532545 -0.00015186256 0)
(1.1532011 -0.00012144609 0)
(1.1531778 -8.5892649e-05 0)
(1.153169 -5.6176176e-05 0)
(1.1531669 -3.4702365e-05 0)
(1.1531673 -2.047565e-05 0)
(1.1531684 -1.1610868e-05 0)
(1.1531694 -6.3472814e-06 0)
(1.1531702 -3.346829e-06 0)
(1.1531708 -1.6978003e-06 0)
(1.1531711 -8.2259739e-07 0)
(1.1531713 -3.7419142e-07 0)
(1.1531715 -1.5245691e-07 0)
(1.1531715 -4.7930078e-08 0)
(1.1531716 -1.8467456e-09 0)
(1.1531716 1.6151092e-08 0)
(1.1531716 2.1820783e-08 0)
(1.1531716 2.2555908e-08 0)
(1.1531716 2.1468871e-08 0)
(1.1531716 1.9915695e-08 0)
(1.1531716 1.8322378e-08 0)
(1.1531716 1.6867734e-08 0)
(1.1531715 1.5498368e-08 0)
(1.1531715 1.4231785e-08 0)
(1.1531715 1.2990557e-08 0)
(1.1531715 1.181107e-08 0)
(1.1531715 1.0639181e-08 0)
(1.1531715 9.5262835e-09 0)
(1.1531715 8.4354976e-09 0)
(1.1531715 7.4271675e-09 0)
(1.1531715 6.4617005e-09 0)
(1.1531715 5.5937432e-09 0)
(1.1531715 4.7799839e-09 0)
(1.1531715 4.0767008e-09 0)
(1.1531715 3.4336919e-09 0)
(1.1531715 2.8925171e-09 0)
(1.1531715 2.3991325e-09 0)
(1.1531715 2.0056935e-09 0)
(1.1531715 1.6498078e-09 0)
(1.1531715 1.3738563e-09 0)
(1.1531715 1.1227692e-09 0)
(1.1531715 9.46527e-10 0)
(1.1531715 7.9069436e-10 0)
(1.1531715 6.9862026e-10 0)
(1.1531715 6.1842175e-10 0)
(1.1531715 6.0300066e-10 0)
(1.1531715 5.9854476e-10 0)
(1.1531715 6.4802014e-10 0)
(1.1531715 7.0019261e-10 0)
(1.1531715 8.1210241e-10 0)
(1.1531715 9.3226695e-10 0)
(1.1531715 1.1161493e-09 0)
(1.1531715 1.2907215e-09 0)
(1.1531715 1.5464015e-09 0)
(1.1531715 1.686344e-09 0)
(1.1531715 2.1050649e-09 0)
(1.1531715 1.7987494e-09 0)
(1.1531715 3.1970998e-09 0)
(1.1531715 2.6242116e-10 0)
(1.1531715 7.5492068e-09 0)
(1.1531716 -9.3806762e-09 0)
(1.1531714 2.9636529e-08 0)
(1.1531718 -5.6726102e-08 0)
(1.1531708 1.3236052e-07 0)
(1.153173 -2.6241699e-07 0)
(1.1531683 5.4764805e-07 0)
(1.1531782 -1.0261771e-06 0)
(1.1531579 1.953015e-06 0)
(1.1531982 -3.324567e-06 0)
(1.1531211 5.6260208e-06 0)
(1.1532631 -8.271603e-06 0)
(1.1530117 1.1632519e-05 0)
(1.153437 -1.2749891e-05 0)
(1.1527536 1.1305552e-05 0)
(1.1537888 1.3183418e-07 0)
(1.152324 -1.8466461e-05 0)
(1.154231 4.7258221e-05 0)
(1.1519757 -6.9561077e-05 0)
(1.1542959 5.3864386e-05 0)
(1.152238 -3.6916403e-05 0)
(1.1535462 -0.000109513 0)
(1.1529213 -4.5161599e-06 0)
(1.1530173 -0.00019325918 0)
(1.0008796 0.011644243 0)
(1.0179404 0.03037214 0)
(1.041555 0.040269346 0)
(1.0753577 0.042987564 0)
(1.1129183 0.042213206 0)
(1.1413647 0.03898786 0)
(1.1602183 0.033101162 0)
(1.1754591 0.025662361 0)
(1.1879416 0.018474831 0)
(1.1958625 0.012546823 0)
(1.1997363 0.008023487 0)
(1.2014864 0.0047742181 0)
(1.2023247 0.0026151422 0)
(1.2026561 0.0013045754 0)
(1.2026812 0.00057094835 0)
(1.2025815 0.00019233117 0)
(1.202464 2.1608778e-05 0)
(1.2023664 -4.0917875e-05 0)
(1.2022982 -5.3658083e-05 0)
(1.202253 -4.6749775e-05 0)
(1.2022247 -3.4667756e-05 0)
(1.2022079 -2.3420677e-05 0)
(1.2021983 -1.4832648e-05 0)
(1.2021931 -8.9351751e-06 0)
(1.2021904 -5.1612261e-06 0)
(1.202189 -2.8704669e-06 0)
(1.2021884 -1.5381453e-06 0)
(1.2021881 -7.9144285e-07 0)
(1.2021879 -3.86851e-07 0)
(1.2021879 -1.7463922e-07 0)
(1.2021879 -6.7270937e-08 0)
(1.2021879 -1.4708254e-08 0)
(1.2021879 8.9432303e-09 0)
(1.2021879 1.8782357e-08 0)
(1.2021879 2.2242062e-08 0)
(1.2021879 2.2759016e-08 0)
(1.2021879 2.2080978e-08 0)
(1.2021879 2.0881671e-08 0)
(1.2021879 1.9553274e-08 0)
(1.2021879 1.8147136e-08 0)
(1.2021879 1.6788366e-08 0)
(1.2021879 1.5406103e-08 0)
(1.2021879 1.4080031e-08 0)
(1.2021879 1.2741705e-08 0)
(1.2021879 1.1482564e-08 0)
(1.2021879 1.0236553e-08 0)
(1.2021879 9.0774001e-09 0)
(1.2021879 7.9547281e-09 0)
(1.2021879 6.942237e-09 0)
(1.2021879 5.9901573e-09 0)
(1.2021879 5.144879e-09 0)
(1.2021879 4.3622986e-09 0)
(1.2021879 3.7013323e-09 0)
(1.2021879 3.1001856e-09 0)
(1.2021879 2.6091521e-09 0)
(1.2021879 2.159035e-09 0)
(1.2021879 1.8132505e-09 0)
(1.2021879 1.5053445e-09 0)
(1.2021879 1.2796741e-09 0)
(1.2021879 1.0717249e-09 0)
(1.2021879 9.5202234e-10 0)
(1.2021879 8.4552056e-10 0)
(1.2021879 8.116507e-10 0)
(1.2021879 7.8973433e-10 0)
(1.2021879 8.5086852e-10 0)
(1.2021879 9.1922519e-10 0)
(1.2021879 1.0605961e-09 0)
(1.2021879 1.2113059e-09 0)
(1.2021879 1.4492416e-09 0)
(1.2021879 1.6871316e-09 0)
(1.2021879 2.0095648e-09 0)
(1.2021879 2.2493192e-09 0)
(1.2021879 2.7069878e-09 0)
(1.2021879 2.6542553e-09 0)
(1.2021878 3.7289588e-09 0)
(1.2021879 1.8446478e-09 0)
(1.2021878 6.7131025e-09 0)
(1.2021879 -4.3133808e-09 0)
(1.2021877 2.058018e-08 0)
(1.2021882 -3.3629705e-08 0)
(1.202187 8.2592225e-08 0)
(1.2021898 -1.5448114e-07 0)
(1.2021838 3.2211747e-07 0)
(1.2021961 -5.7589006e-07 0)
(1.2021713 1.0814172e-06 0)
(1.2022199 -1.7403904e-06 0)
(1.2021283 2.8747617e-06 0)
(1.2022949 -3.8932852e-06 0)
(1.2020042 5.2180974e-06 0)
(1.2024887 -4.7236177e-06 0)
(1.2017222 3.1523003e-06 0)
(1.2028648 3.6577218e-06 0)
(1.2012738 -1.2775503e-05 0)
(1.2033073 2.2271898e-05 0)
(1.2009431 -3.3035555e-05 0)
(1.2033145 8.3502538e-06 0)
(1.201256 -1.742841e-05 0)
(1.2024892 -7.3600454e-05 0)
(1.2019492 -2.4460525e-05 0)
(1.2019452 -0.00010836262 0)
(1.0007526 0.003407537 0)
(1.013801 0.0091693157 0)
(1.0321334 0.012681079 0)
(1.062711 0.013955177 0)
(1.0999895 0.013950719 0)
(1.129957 0.013123189 0)
(1.1513996 0.011429209 0)
(1.1700949 0.0091214691 0)
(1.186409 0.0067506522 0)
(1.1978486 0.0047052821 0)
(1.2045291 0.0030948653 0)
(1.2083417 0.0019060637 0)
(1.210611 0.0010919712 0)
(1.2118708 0.00057898969 0)
(1.2124529 0.00027922712 0)
(1.212661 0.00011688956 0)
(1.2127036 3.4207659e-05 0)
(1.2126833 -9.3343749e-08 0)
(1.2126445 -1.1623117e-05 0)
(1.2126076 -1.3071859e-05 0)
(1.2125791 -1.0804043e-05 0)
(1.2125592 -7.7759993e-06 0)
(1.2125465 -5.1430134e-06 0)
(1.2125387 -3.2016997e-06 0)
(1.2125341 -1.8992068e-06 0)
(1.2125316 -1.0798442e-06 0)
(1.2125302 -5.8891783e-07 0)
(1.2125294 -3.0608023e-07 0)
(1.2125291 -1.4851162e-07 0)
(1.2125289 -6.3345828e-08 0)
(1.2125288 -1.8687745e-08 0)
(1.2125288 3.8263749e-09 0)
(1.2125288 1.4817997e-08 0)
(1.2125288 1.9661277e-08 0)
(1.2125288 2.1282685e-08 0)
(1.2125288 2.1338017e-08 0)
(1.2125288 2.062181e-08 0)
(1.2125288 1.9560316e-08 0)
(1.2125288 1.8319693e-08 0)
(1.2125288 1.7040953e-08 0)
(1.2125288 1.5763138e-08 0)
(1.2125288 1.4511953e-08 0)
(1.2125288 1.3262053e-08 0)
(1.2125288 1.2057555e-08 0)
(1.2125288 1.0895333e-08 0)
(1.2125288 9.7908311e-09 0)
(1.2125288 8.7107e-09 0)
(1.2125288 7.7012295e-09 0)
(1.2125288 6.7561382e-09 0)
(1.2125288 5.8997576e-09 0)
(1.2125288 5.0790184e-09 0)
(1.2125288 4.3501223e-09 0)
(1.2125288 3.696221e-09 0)
(1.2125288 3.1471574e-09 0)
(1.2125288 2.6344145e-09 0)
(1.2125288 2.2128701e-09 0)
(1.2125288 1.8538217e-09 0)
(1.2125288 1.577553e-09 0)
(1.2125288 1.3205443e-09 0)
(1.2125288 1.135061e-09 0)
(1.2125288 9.9505152e-10 0)
(1.2125288 9.2042555e-10 0)
(1.2125288 8.5251391e-10 0)
(1.2125288 8.4774944e-10 0)
(1.2125288 8.9291541e-10 0)
(1.2125288 1.0045623e-09 0)
(1.2125288 1.1369396e-09 0)
(1.2125288 1.3326032e-09 0)
(1.2125288 1.5754109e-09 0)
(1.2125288 1.8641977e-09 0)
(1.2125288 2.1760625e-09 0)
(1.2125288 2.4832231e-09 0)
(1.2125288 2.8750302e-09 0)
(1.2125288 3.1013439e-09 0)
(1.2125288 3.6080426e-09 0)
(1.2125288 3.1441524e-09 0)
(1.2125288 4.7365497e-09 0)
(1.2125289 1.1394303e-09 0)
(1.2125286 9.0098529e-09 0)
(1.2125293 -8.5128476e-09 0)
(1.2125279 2.8008512e-08 0)
(1.2125309 -4.5920277e-08 0)
(1.2125245 1.0122141e-07 0)
(1.2125377 -1.692272e-07 0)
(1.2125114 3.2702036e-07 0)
(1.2125625 -4.9084956e-07 0)
(1.2124666 8.2444152e-07 0)
(1.2126401 -1.0261108e-06 0)
(1.2123391 1.3611762e-06 0)
(1.2128381 -1.0107844e-06 0)
(1.2120529 4.4822649e-07 0)
(1.2132172 1.5795167e-06 0)
(1.2116022 -4.1975756e-06 0)
(1.2136566 5.7753363e-06 0)
(1.2112717 -9.5241153e-06 0)
(1.2136549 -1.100824e-06 0)
(1.2115858 -5.33777e-06 0)
(1.2128132 -2.3899151e-05 0)
(1.2122835 -1.0931208e-05 0)
(1.2122532 -3.403313e-05 0)
(1.0007526 -0.00340754 0)
(1.013801 -0.009169342 0)
(1.0321333 -0.012681108 0)
(1.062711 -0.013955171 0)
(1.0999895 -0.013950677 0)
(1.129957 -0.013123152 0)
(1.1513997 -0.011429211 0)
(1.170095 -0.0091215088 0)
(1.1864091 -0.0067507074 0)
(1.1978487 -0.0047053331 0)
(1.2045292 -0.0030949122 0)
(1.2083417 -0.0019061241 0)
(1.210611 -0.0010920652 0)
(1.2118708 -0.00057912911 0)
(1.2124529 -0.00027940267 0)
(1.212661 -0.00011708201 0)
(1.2127036 -3.4387678e-05 0)
(1.2126832 -4.7446361e-08 0)
(1.2126445 1.1532504e-05 0)
(1.2126076 1.3031085e-05 0)
(1.212579 1.0803359e-05 0)
(1.2125592 7.8021047e-06 0)
(1.2125464 5.1825766e-06 0)
(1.2125386 3.2447056e-06 0)
(1.212534 1.9400025e-06 0)
(1.2125315 1.1168214e-06 0)
(1.2125301 6.2273539e-07 0)
(1.2125294 3.387083e-07 0)
(1.212529 1.8172162e-07 0)
(1.2125289 9.8408847e-08 0)
(1.2125288 5.5858639e-08 0)
(1.2125288 3.510785e-08 0)
(1.2125287 2.5474038e-08 0)
(1.2125287 2.0993605e-08 0)
(1.2125288 1.8599228e-08 0)
(1.2125288 1.7156837e-08 0)
(1.2125288 1.5929348e-08 0)
(1.2125288 1.4837307e-08 0)
(1.2125288 1.3676563e-08 0)
(1.2125288 1.2643429e-08 0)
(1.2125288 1.1603429e-08 0)
(1.2125288 1.0684391e-08 0)
(1.2125288 9.7257854e-09 0)
(1.2125288 8.9052008e-09 0)
(1.2125288 8.0710301e-09 0)
(1.2125288 7.3310508e-09 0)
(1.2125288 6.5393137e-09 0)
(1.2125288 5.8621279e-09 0)
(1.2125288 5.1778925e-09 0)
(1.2125288 4.580365e-09 0)
(1.2125288 3.9498227e-09 0)
(1.2125288 3.4433232e-09 0)
(1.2125288 2.9477471e-09 0)
(1.2125288 2.5518979e-09 0)
(1.2125288 2.1276147e-09 0)
(1.2125288 1.8295868e-09 0)
(1.2125288 1.5365364e-09 0)
(1.2125288 1.3337291e-09 0)
(1.2125288 1.0953594e-09 0)
(1.2125288 9.7967804e-10 0)
(1.2125288 8.542879e-10 0)
(1.2125288 8.2353907e-10 0)
(1.2125288 7.4621749e-10 0)
(1.2125288 7.8995278e-10 0)
(1.2125288 8.2045365e-10 0)
(1.2125288 9.5487055e-10 0)
(1.2125288 1.0457536e-09 0)
(1.2125288 1.2699312e-09 0)
(1.2125288 1.488549e-09 0)
(1.2125288 1.7978554e-09 0)
(1.2125288 2.0554266e-09 0)
(1.2125288 2.4099265e-09 0)
(1.2125288 2.6872279e-09 0)
(1.2125288 3.1214516e-09 0)
(1.2125288 3.0152522e-09 0)
(1.2125288 3.9019901e-09 0)
(1.2125288 2.2513051e-09 0)
(1.2125289 5.808504e-09 0)
(1.2125286 -2.5652732e-09 0)
(1.2125293 1.4271566e-08 0)
(1.2125279 -2.2793053e-08 0)
(1.2125309 5.0861692e-08 0)
(1.2125245 -9.5247329e-08 0)
(1.2125377 1.7886974e-07 0)
(1.2125114 -3.1108392e-07 0)
(1.2125625 5.1495855e-07 0)
(1.2124666 -7.9458996e-07 0)
(1.2126401 1.0555184e-06 0)
(1.2123392 -1.3397819e-06 0)
(1.2128381 1.0198468e-06 0)
(1.2120529 -4.5032903e-07 0)
(1.2132172 -1.5866521e-06 0)
(1.2116022 4.1911373e-06 0)
(1.2136566 -5.7773192e-06 0)
(1.2112717 9.5250994e-06 0)
(1.213655 1.1068984e-06 0)
(1.2115858 5.3438786e-06 0)
(1.2128132 2.3903446e-05 0)
(1.2122835 1.0934215e-05 0)
(1.2122533 3.4022042e-05 0)
(1.0008796 -0.011644237 0)
(1.0179404 -0.030372147 0)
(1.0415549 -0.040269367 0)
(1.0753577 -0.042987579 0)
(1.1129183 -0.042213218 0)
(1.1413647 -0.038987889 0)
(1.1602183 -0.033101213 0)
(1.1754592 -0.025662412 0)
(1.1879417 -0.018474858 0)
(1.1958625 -0.012546822 0)
(1.1997364 -0.0080234754 0)
(1.2014864 -0.004774229 0)
(1.2023247 -0.0026152037 0)
(1.202656 -0.0013046958 0)
(1.2026811 -0.00057112003 0)
(1.2025814 -0.00019252172 0)
(1.2024639 -2.1780762e-05 0)
(1.2023663 4.0787824e-05 0)
(1.2022981 5.3579749e-05 0)
(1.2022529 4.672185e-05 0)
(1.2022245 3.4678736e-05 0)
(1.2022077 2.3454944e-05 0)
(1.2021981 1.4876172e-05 0)
(1.2021929 8.9780441e-06 0)
(1.2021902 5.1987556e-06 0)
(1.2021888 2.9019084e-06 0)
(1.2021882 1.5653617e-06 0)
(1.2021879 8.1696653e-07 0)
(1.2021878 4.1309923e-07 0)
(1.2021877 2.0296726e-07 0)
(1.2021877 9.8140018e-08 0)
(1.2021877 4.8241966e-08 0)
(1.2021877 2.5674394e-08 0)
(1.2021878 1.5917408e-08 0)
(1.2021878 1.1817308e-08 0)
(1.2021878 9.9153736e-09 0)
(1.2021878 8.8430796e-09 0)
(1.2021878 7.9299249e-09 0)
(1.2021878 7.1302303e-09 0)
(1.2021878 6.377321e-09 0)
(1.2021878 5.7524453e-09 0)
(1.2021878 5.1649021e-09 0)
(1.2021878 4.6945256e-09 0)
(1.2021878 4.28048e-09 0)
(1.2021878 3.9626257e-09 0)
(1.2021878 3.6180025e-09 0)
(1.2021878 3.3219676e-09 0)
(1.2021878 3.019727e-09 0)
(1.2021878 2.7719782e-09 0)
(1.2021878 2.4645197e-09 0)
(1.2021878 2.2102502e-09 0)
(1.2021879 1.9457486e-09 0)
(1.2021879 1.7485551e-09 0)
(1.2021879 1.4951688e-09 0)
(1.2021879 1.303634e-09 0)
(1.2021879 1.1108332e-09 0)
(1.2021879 9.9163034e-10 0)
(1.2021879 8.3228065e-10 0)
(1.2021879 7.3981974e-10 0)
(1.2021879 6.4414169e-10 0)
(1.2021879 6.3181698e-10 0)
(1.2021879 5.7452883e-10 0)
(1.2021879 5.9052731e-10 0)
(1.2021879 6.0349978e-10 0)
(1.2021879 6.9439297e-10 0)
(1.2021879 7.5612988e-10 0)
(1.2021879 8.8086415e-10 0)
(1.2021879 1.0159616e-09 0)
(1.2021879 1.2262087e-09 0)
(1.2021879 1.4327136e-09 0)
(1.2021879 1.652321e-09 0)
(1.2021879 1.9565838e-09 0)
(1.2021879 2.1354998e-09 0)
(1.2021879 2.6424042e-09 0)
(1.2021879 2.0422952e-09 0)
(1.2021879 4.0910321e-09 0)
(1.2021878 -6.4850293e-10 0)
(1.2021879 1.0141888e-08 0)
(1.2021877 -1.5114489e-08 0)
(1.2021883 3.8614626e-08 0)
(1.202187 -7.8089815e-08 0)
(1.2021898 1.5889968e-07 0)
(1.2021838 -3.1651939e-07 0)
(1.2021962 5.8461476e-07 0)
(1.2021713 -1.0669092e-06 0)
(1.2022199 1.7615258e-06 0)
(1.2021283 -2.8490322e-06 0)
(1.2022949 3.9174688e-06 0)
(1.2020043 -5.2021237e-06 0)
(1.2024888 4.7274266e-06 0)
(1.2017222 -3.1584068e-06 0)
(1.2028649 -3.6671637e-06 0)
(1.2012738 1.2768412e-05 0)
(1.2033074 -2.2272748e-05 0)
(1.2009432 3.3039666e-05 0)
(1.2033146 -8.3409475e-06 0)
(1.2012561 1.7436993e-05 0)
(1.2024893 7.3606708e-05 0)
(1.2019492 2.4461392e-05 0)
(1.2019452 0.00010834837 0)
(1.0015262 -0.026582322 0)
(1.0293599 -0.062381865 0)
(1.0614967 -0.076027463 0)
(1.095042 -0.076564874 0)
(1.125193 -0.072218289 0)
(1.1434352 -0.064066695 0)
(1.1515172 -0.051681294 0)
(1.1561341 -0.03771994 0)
(1.1591022 -0.025490392 0)
(1.1595804 -0.016225324 0)
(1.1582685 -0.009642768 0)
(1.1566463 -0.0052246295 0)
(1.1554045 -0.0025068544 0)
(1.154544 -0.00100106 0)
(1.1539628 -0.00026150437 0)
(1.153586 5.1850898e-05 0)
(1.1533663 0.00014847993 0)
(1.1532542 0.00015176207 0)
(1.1532008 0.00012139252 0)
(1.1531775 8.588253e-05 0)
(1.1531688 5.6197734e-05 0)
(1.1531666 3.4740367e-05 0)
(1.153167 2.0517193e-05 0)
(1.1531681 1.1647681e-05 0)
(1.1531692 6.376103e-06 0)
(1.15317 3.3679901e-06 0)
(1.1531706 1.7139729e-06 0)
(1.1531709 8.3677673e-07 0)
(1.1531711 3.8902822e-07 0)
(1.1531713 1.6942015e-07 0)
(1.1531713 6.7682679e-08 0)
(1.1531714 2.3710051e-08 0)
(1.1531714 6.8501144e-09 0)
(1.1531714 1.3819327e-09 0)
(1.1531714 3.04001e-10 0)
(1.1531714 3.7764702e-10 0)
(1.1531715 5.9834917e-10 0)
(1.1531715 5.5617762e-10 0)
(1.1531715 4.3453703e-10 0)
(1.1531715 1.9851706e-10 0)
(1.1531715 4.1004366e-11 0)
(1.1531715 -1.211485e-10 0)
(1.1531715 -1.2566247e-10 0)
(1.1531715 -1.2086765e-10 0)
(1.1531715 -1.4857636e-11 0)
(1.1531715 4.3141761e-11 0)
(1.1531715 1.7799884e-10 0)
(1.1531715 2.4981664e-10 0)
(1.1531715 3.5427763e-10 0)
(1.1531715 3.708168e-10 0)
(1.1531715 4.3570617e-10 0)
(1.1531715 4.277929e-10 0)
(1.1531715 4.5143097e-10 0)
(1.1531715 3.9453096e-10 0)
(1.1531715 4.0036134e-10 0)
(1.1531715 3.4978957e-10 0)
(1.1531715 3.5127622e-10 0)
(1.1531715 2.8978211e-10 0)
(1.1531715 3.0313155e-10 0)
(1.1531715 2.7212154e-10 0)
(1.1531715 3.0487073e-10 0)
(1.1531715 2.7837214e-10 0)
(1.1531715 3.3949297e-10 0)
(1.1531715 3.5950418e-10 0)
(1.1531715 4.441361e-10 0)
(1.1531715 4.756352e-10 0)
(1.1531715 5.8991935e-10 0)
(1.1531715 6.6908272e-10 0)
(1.1531715 8.0155402e-10 0)
(1.1531715 9.1877438e-10 0)
(1.1531715 1.0465233e-09 0)
(1.1531715 1.2782055e-09 0)
(1.1531715 1.2821271e-09 0)
(1.1531715 1.8604776e-09 0)
(1.1531715 8.4292363e-10 0)
(1.1531715 3.8224778e-09 0)
(1.1531715 -3.3189324e-09 0)
(1.1531716 1.3367756e-08 0)
(1.1531714 -2.5884395e-08 0)
(1.1531718 6.0268958e-08 0)
(1.1531708 -1.2906751e-07 0)
(1.153173 2.6588982e-07 0)
(1.1531683 -5.4312017e-07 0)
(1.1531783 1.0328922e-06 0)
(1.1531579 -1.9421842e-06 0)
(1.1531982 3.3393807e-06 0)
(1.1531212 -5.6086948e-06 0)
(1.1532632 8.2873223e-06 0)
(1.1530117 -1.1623873e-05 0)
(1.153437 1.2748367e-05 0)
(1.1527536 -1.1314426e-05 0)
(1.1537889 -1.4226504e-07 0)
(1.152324 1.8459624e-05 0)
(1.1542311 -4.7258065e-05 0)
(1.1519758 6.9566318e-05 0)
(1.1542959 -5.3855757e-05 0)
(1.1522381 3.6923456e-05 0)
(1.1535463 0.00010951781 0)
(1.1529213 4.5135384e-06 0)
(1.1530174 0.00019324424 0)
(1.0018038 -0.053665532 0)
(1.0363451 -0.10130733 0)
(1.0568939 -0.10921798 0)
(1.061244 -0.10136704 0)
(1.0550815 -0.089519523 0)
(1.0398768 -0.07436703 0)
(1.0210681 -0.055510775 0)
(1.0049984 -0.036803353 0)
(0.99307834 -0.022189787 0)
(0.9841889 -0.012345577 0)
(0.97785342 -0.0061494645 0)
(0.9738987 -0.0025051335 0)
(0.97179256 -0.00062458474 0)
(0.97077956 0.00016827855 0)
(0.97034815 0.0003986346 0)
(0.97021537 0.00038846534 0)
(0.97022047 0.00030444081 0)
(0.97027302 0.00021208091 0)
(0.97032993 0.00013634893 0)
(0.9703759 8.2519828e-05 0)
(0.97040845 4.7571437e-05 0)
(0.97042973 2.6294682e-05 0)
(0.97044288 1.3972062e-05 0)
(0.97045064 7.1312194e-06 0)
(0.97045503 3.479086e-06 0)
(0.97045743 1.6044983e-06 0)
(0.97045871 6.827421e-07 0)
(0.97045935 2.5266882e-07 0)
(0.97045967 6.6155685e-08 0)
(0.97045982 -4.1430305e-09 0)
(0.97045989 -2.4346243e-08 0)
(0.97045992 -2.5052092e-08 0)
(0.97045993 -1.9801523e-08 0)
(0.97045994 -1.4009131e-08 0)
(0.97045994 -9.5702076e-09 0)
(0.97045994 -6.6049655e-09 0)
(0.97045994 -4.9208475e-09 0)
(0.97045994 -3.9272899e-09 0)
(0.97045995 -3.451093e-09 0)
(0.97045995 -3.1329984e-09 0)
(0.97045995 -2.9550771e-09 0)
(0.97045995 -2.6938204e-09 0)
(0.97045995 -2.4669237e-09 0)
(0.97045995 -2.1756059e-09 0)
(0.97045995 -1.9356663e-09 0)
(0.97045995 -1.6120585e-09 0)
(0.97045995 -1.3638748e-09 0)
(0.97045995 -1.0938263e-09 0)
(0.97045995 -9.1949747e-10 0)
(0.97045995 -6.8977944e-10 0)
(0.97045995 -5.5600573e-10 0)
(0.97045995 -4.0392206e-10 0)
(0.97045995 -3.4489818e-10 0)
(0.97045995 -2.1795061e-10 0)
(0.97045995 -1.7580241e-10 0)
(0.97045995 -1.0131269e-10 0)
(0.97045996 -1.0434376e-10 0)
(0.97045995 -2.7500695e-11 0)
(0.97045996 -2.4141493e-11 0)
(0.97045995 3.0958983e-11 0)
(0.97045996 9.4587393e-12 0)
(0.97045995 8.1119467e-11 0)
(0.97045996 8.0302357e-11 0)
(0.97045995 1.4122993e-10 0)
(0.97045996 1.266001e-10 0)
(0.97045996 1.9721499e-10 0)
(0.97045996 1.9940339e-10 0)
(0.97045996 2.5833746e-10 0)
(0.97045996 2.4865355e-10 0)
(0.97045996 3.2400029e-10 0)
(0.97045996 3.2256198e-10 0)
(0.97045996 4.533111e-10 0)
(0.97045996 3.1954689e-10 0)
(0.97045996 8.4675948e-10 0)
(0.97045996 -2.7655871e-11 0)
(0.97045997 2.5182512e-09 0)
(0.97045995 -3.3389433e-09 0)
(0.97045999 1.0674467e-08 0)
(0.9704599 -2.2556096e-08 0)
(0.97046012 5.2398069e-08 0)
(0.97045961 -1.1627638e-07 0)
(0.97046076 2.4697027e-07 0)
(0.97045822 -5.2044607e-07 0)
(0.97046367 1.0286009e-06 0)
(0.9704523 -2.0175615e-06 0)
(0.97047527 3.6434744e-06 0)
(0.97043029 -6.4625157e-06 0)
(0.97051515 1.0311423e-05 0)
(0.9703609 -1.5642092e-05 0)
(0.97062895 2.0008121e-05 0)
(0.97018429 -2.2027572e-05 0)
(0.97088169 1.2469407e-05 0)
(0.96985178 9.1815933e-06 0)
(0.97126055 -5.664583e-05 0)
(0.96948463 0.00010084495 0)
(0.97146966 -0.0001271761 0)
(0.9695041 8.1994202e-05 0)
(0.97101525 8.1084384e-05 0)
(0.97007835 -5.9356441e-05 0)
(0.97050075 0.00024291896 0)
(0.91920302 -0.035814843 0)
(0.86260569 -0.062375503 0)
(0.78530361 -0.061433522 0)
(0.69779134 -0.051468742 0)
(0.62035997 -0.040352633 0)
(0.5591707 -0.028517551 0)
(0.51606468 -0.016851334 0)
(0.48928415 -0.0080298878 0)
(0.47396113 -0.0030238471 0)
(0.4656576 -0.00066874155 0)
(0.46163204 0.00035042388 0)
(0.46012567 0.0006980001 0)
(0.45992475 0.00067410861 0)
(0.46022686 0.00050281789 0)
(0.46063262 0.00033354355 0)
(0.46098167 0.00020677499 0)
(0.46123791 0.00012172331 0)
(0.46140922 6.8102016e-05 0)
(0.4615161 3.617452e-05 0)
(0.46157914 1.8217204e-05 0)
(0.46161459 8.6544938e-06 0)
(0.4616337 3.8214687e-06 0)
(0.46164357 1.50819e-06 0)
(0.46164845 4.7200986e-07 0)
(0.46165073 5.127072e-08 0)
(0.46165171 -9.0173381e-08 0)
(0.46165209 -1.1579378e-07 0)
(0.4616522 -1.0049704e-07 0)
(0.4616522 -7.5639219e-08 0)
(0.46165217 -5.0985582e-08 0)
(0.46165213 -3.2608187e-08 0)
(0.46165211 -2.0151271e-08 0)
(0.46165209 -1.239464e-08 0)
(0.46165207 -7.6493637e-09 0)
(0.46165206 -4.9896236e-09 0)
(0.46165206 -3.46063e-09 0)
(0.46165205 -2.6445067e-09 0)
(0.46165205 -2.1281428e-09 0)
(0.46165205 -1.8859959e-09 0)
(0.46165205 -1.6614776e-09 0)
(0.46165204 -1.5064243e-09 0)
(0.46165204 -1.2988813e-09 0)
(0.46165204 -1.1827895e-09 0)
(0.46165204 -1.0112309e-09 0)
(0.46165204 -8.8271562e-10 0)
(0.46165204 -7.0506176e-10 0)
(0.46165203 -6.2876712e-10 0)
(0.46165203 -5.0414767e-10 0)
(0.46165203 -4.324199e-10 0)
(0.46165203 -3.1057837e-10 0)
(0.46165203 -2.8863318e-10 0)
(0.46165203 -2.1753925e-10 0)
(0.46165203 -1.9232502e-10 0)
(0.46165203 -1.1306251e-10 0)
(0.46165203 -1.2823119e-10 0)
(0.46165203 -8.5214624e-11 0)
(0.46165203 -8.3861612e-11 0)
(0.46165203 -2.2838352e-11 0)
(0.46165203 -5.6322373e-11 0)
(0.46165203 -1.9574537e-11 0)
(0.46165203 -2.6674974e-11 0)
(0.46165203 2.7202199e-11 0)
(0.46165203 -1.430941e-11 0)
(0.46165203 1.3214823e-11 0)
(0.46165203 -1.4339923e-12 0)
(0.46165203 3.6830032e-11 0)
(0.46165203 -2.070789e-11 0)
(0.46165203 -1.8858766e-11 0)
(0.46165203 -6.0538274e-11 0)
(0.46165203 -3.943703e-11 0)
(0.46165203 -8.5466258e-11 0)
(0.46165203 -7.1435902e-11 0)
(0.46165203 -7.7756474e-11 0)
(0.46165203 1.7059083e-10 0)
(0.46165203 1.9023094e-11 0)
(0.46165203 8.0584504e-10 0)
(0.46165203 -6.4488092e-10 0)
(0.46165204 3.060844e-09 0)
(0.46165202 -5.6770858e-09 0)
(0.46165207 1.4043891e-08 0)
(0.46165196 -3.1366241e-08 0)
(0.4616522 6.7080694e-08 0)
(0.46165165 -1.473165e-07 0)
(0.46165284 2.8935631e-07 0)
(0.46165033 -6.0042265e-07 0)
(0.46165537 1.0997689e-06 0)
(0.46164539 -2.0647944e-06 0)
(0.46166417 3.4829526e-06 0)
(0.46162971 -5.7570826e-06 0)
(0.46168968 8.3560458e-06 0)
(0.46158842 -1.1527566e-05 0)
(0.46174952 1.1681495e-05 0)
(0.46149898 -9.8061471e-06 0)
(0.46186364 -6.8835973e-06 0)
(0.46133092 2.6136002e-05 0)
(0.46204389 -6.8480997e-05 0)
(0.46106166 8.0542829e-05 0)
(0.46218982 -3.2605918e-05 0)
(0.46101626 1.8305341e-05 0)
(0.46199658 0.00023338672 0)
)
;

boundaryField
{
    top
    {
        type            fixedValue;
        value           uniform (0 0 0);
    }
    inlet
    {
        type            fixedValue;
        value           uniform (1 0 0);
    }
    outlet
    {
        type            zeroGradient;
    }
    bottom
    {
        type            fixedValue;
        value           uniform (0 0 0);
    }
    back
    {
        type            empty;
    }
    front
    {
        type            empty;
    }
}


// ************************************************************************* //
