/*--------------------------------*- C++ -*----------------------------------*\
| =========                 |                                                 |
| \\      /  F ield         | OpenFOAM: The Open Source CFD Toolbox           |
|  \\    /   O peration     | Version:  v1812                                 |
|   \\  /    A nd           | Web:      www.OpenFOAM.com                      |
|    \\/     M anipulation  |                                                 |
\*---------------------------------------------------------------------------*/
FoamFile
{
    version     2.0;
    format      ascii;
    class       surfaceScalarField;
    location    "5.2";
    object      phi;
}
// * * * * * * * * * * * * * * * * * * * * * * * * * * * * * * * * * * * * * //

dimensions      [0 3 -1 0 0 0 0];
oriented        oriented;


internalField   nonuniform List<scalar> 
1890
(
0.0093061957
0.00069380425
0.0082843931
0.0010218027
0.0073298986
0.00095449449
0.0064869553
0.00084294334
0.0057695844
0.0007173708
0.00518986
0.00057972444
0.004738168
0.00045169205
0.00439519
0.00034297801
0.0041390268
0.00025616318
0.0039491069
0.00018991983
0.003807888
0.00014121896
0.0037013782
0.00010650978
0.003619058
8.2320199e-05
0.0035534118
6.5646209e-05
0.0034992846
5.4127201e-05
0.0034532446
4.6039974e-05
0.0034130504
4.0194192e-05
0.0033772578
3.5792618e-05
0.0033449392
3.2318566e-05
0.0033154902
2.9449013e-05
0.003288502
2.6988207e-05
0.0032636822
2.4819787e-05
0.0032408075
2.2874756e-05
0.0032196961
2.1111376e-05
0.003200193
1.9503131e-05
0.0031821613
1.8031745e-05
0.003165478
1.6683291e-05
0.0031500319
1.5446131e-05
0.003135722
1.4309899e-05
0.003122457
1.3265039e-05
0.0031101544
1.2302618e-05
0.0030987402
1.1414267e-05
0.0030881481
1.059217e-05
0.0030783191
9.8290665e-06
0.0030692009
9.1182546e-06
0.0030607473
8.4536131e-06
0.0030529178
7.8296233e-06
0.0030456764
7.2414067e-06
0.0030389917
6.6847487e-06
0.0030328357
6.1561358e-06
0.003027183
5.6527555e-06
0.0030220105
5.1725096e-06
0.0030172966
4.7139672e-06
0.0030130203
4.2763343e-06
0.003009161
3.8593518e-06
0.0030056978
3.4632211e-06
0.0030026093
3.0884617e-06
0.0029998735
2.7358096e-06
0.0029974674
2.406066e-06
0.0029953674
2.0999961e-06
0.0029935492
1.8182038e-06
0.0029919881
1.5610574e-06
0.0029906594
1.3286163e-06
0.0029895388
1.1206006e-06
0.0029886023
9.3638025e-07
0.0029878273
7.7498709e-07
0.0029871921
6.3515833e-07
0.0029866767
5.1537815e-07
0.0029862627
4.1395406e-07
0.0029859335
3.2906696e-07
0.0029856746
2.5886096e-07
0.0029854731
2.0148496e-07
0.0029853179
1.5515941e-07
0.0029851997
1.1820012e-07
0.0029851106
8.9072137e-08
0.0029850441
6.6388298e-08
0.0029849952
4.894018e-08
0.0029849595
3.5677493e-08
0.0029849337
2.5722034e-08
0.0029849154
1.8335704e-08
0.0029849025
1.2925693e-08
0.0029848934
9.007651e-09
0.0029848872
6.208316e-09
0.002984883
4.2288144e-09
0.0029848802
2.8499631e-09
0.0029848783
1.897341e-09
0.002984877
1.2513793e-09
0.0029848762
8.1427288e-10
0.0029848757
5.2686198e-10
0.0029848753
3.3508595e-10
0.0029848751
2.1443306e-10
0.002984875
1.3301554e-10
0.0029848749
8.6201371e-11
0.0029848749
5.1554669e-11
0.0029848748
3.6668486e-11
0.0029848748
2.0412354e-11
0.0029848748
2.0074388e-11
0.0029848748
1.1086147e-11
0.0029848748
2.0619438e-11
0.0029848747
1.6053131e-11
0.0029848747
3.8016777e-11
0.0029848747
4.1805879e-11
0.0029848746
9.0204626e-11
0.0029848745
1.2807315e-10
0.0029848742
2.6574086e-10
0.0029848738
4.6036462e-10
0.0029848729
9.0384002e-10
0.0029848712
1.6140561e-09
0.0029848683
2.9026232e-09
4.2416018e-09
0.010339525
0.00035427932
0.010570754
0.00079057335
0.010606301
0.00091894821
0.010547572
0.00090167138
0.010422317
0.00084262624
0.010244356
0.0007576856
0.01003942
0.00065662744
0.0098287426
0.00055365587
0.009625135
0.00045977083
0.0094353013
0.00037975353
0.0092624277
0.00031409257
0.0091075332
0.00026140423
0.008970154
0.00021969943
0.0088489024
0.00018689776
0.0087419718
0.00016105786
0.0086474931
0.0001405187
0.0085636947
0.00012399258
0.0084890119
0.00011047542
0.0084221114
9.9219004e-05
0.0083618803
8.9680119e-05
0.0083073998
8.1468782e-05
0.0082579145
7.4305091e-05
0.0082128027
6.7986476e-05
0.00817155
6.2364135e-05
0.0081337266
5.732651e-05
0.0080989705
5.2787855e-05
0.0080669734
4.8680431e-05
0.0080374703
4.4949257e-05
0.0080102316
4.1548581e-05
0.0079850571
3.8439524e-05
0.0079617713
3.5588457e-05
0.0079402197
3.2965899e-05
0.0079202662
3.0545732e-05
0.0079017906
2.8304661e-05
0.0078846871
2.6221828e-05
0.0078688622
2.4278572e-05
0.0078542336
2.2458308e-05
0.0078407285
2.0746468e-05
0.0078282828
1.9130505e-05
0.0078168391
1.7599889e-05
0.0078063457
1.6146126e-05
0.0077967556
1.4762706e-05
0.0077880245
1.3445041e-05
0.0077801106
1.2190294e-05
0.0077729727
1.0997197e-05
0.0077665702
9.865749e-06
0.0077608617
8.7969315e-06
0.0077558052
7.7923381e-06
0.0077513574
6.8538425e-06
0.0077474741
5.9832462e-06
0.0077441103
5.1819878e-06
0.0077412204
4.4508861e-06
0.007738759
3.7899615e-06
0.0077366812
3.198324e-06
0.0077349434
2.6741355e-06
0.0077335037
2.2146461e-06
0.0077323225
1.8162812e-06
0.007731363
1.4747859e-06
0.0077305916
1.1853874e-06
0.0077299776
9.4298623e-07
0.0077294941
7.4233351e-07
0.0077291173
5.7821013e-07
0.0077288268
4.4556761e-07
0.0077286054
3.3965534e-07
0.0077284383
2.5610496e-07
0.0077283137
1.9099239e-07
0.0077282217
1.4086315e-07
0.0077281546
1.0273793e-07
0.0077281063
7.409471e-08
0.0077280718
5.2836934e-08
0.0077280474
3.7253168e-08
0.0077280305
2.596761e-08
0.0077280188
1.7895854e-08
0.0077280108
1.2192004e-08
0.0077280054
8.212815e-09
0.0077280019
5.4685903e-09
0.0077279995
3.6023605e-09
0.007727998
2.3452348e-09
0.007727997
1.5133704e-09
0.0077279964
9.6415543e-10
0.007727996
6.1280207e-10
0.0077279957
3.8253935e-10
0.0077279956
2.4365564e-10
0.0077279955
1.4892217e-10
0.0077279954
1.0059613e-10
0.0077279954
5.9983696e-11
0.0077279954
5.1137471e-11
0.0077279953
3.16834e-11
0.0077279953
4.4901567e-11
0.0077279953
3.8132792e-11
0.0077279953
7.452349e-11
0.0077279952
9.1035025e-11
0.0077279951
1.7250671e-10
0.007727995
2.6887976e-10
0.0077279948
4.8881376e-10
0.0077279944
8.7396946e-10
0.0077279938
1.5049094e-09
0.0077279928
2.6183346e-09
0.0077279918
3.8625642e-09
5.4133411e-09
0.010188704
0.00016557515
0.010530487
0.000448791
0.010851453
0.00059798178
0.011124174
0.00062895025
0.011350581
0.00061621887
0.011524486
0.00058378056
0.01164633
0.00053478421
0.011724155
0.0004758305
0.011767999
0.00041592666
0.011786639
0.000361114
0.011787114
0.00031361711
0.011775058
0.00027346024
0.011754861
0.00023989714
0.011729768
0.00021199022
0.011702053
0.00018877245
0.011673239
0.00016933361
0.011644339
0.00015289253
0.011616003
0.00013881116
0.011588629
0.00012659277
0.011562446
0.00011586289
0.011537572
0.00010634261
0.011514054
9.7823526e-05
0.011491892
9.0148214e-05
0.011471061
8.3195784e-05
0.011451516
7.6871524e-05
0.011433204
7.1099442e-05
0.011416068
6.5817e-05
0.011400045
6.0971468e-05
0.011385076
5.6517444e-05
0.011371101
5.241512e-05
0.01135806
4.8629095e-05
0.011345899
4.5127534e-05
0.011334563
4.1881587e-05
0.011324003
3.8864956e-05
0.011314171
3.6053616e-05
0.011305024
3.342564e-05
0.011296521
3.0961132e-05
0.011288625
2.8642242e-05
0.011281302
2.6453213e-05
0.011274522
2.4380463e-05
0.011268255
2.2412646e-05
0.011262477
2.0540703e-05
0.011257165
1.8757831e-05
0.011252296
1.7059405e-05
0.01124785
1.5442784e-05
0.011243809
1.3907076e-05
0.011240153
1.2452792e-05
0.011236864
1.1081473e-05
0.011233922
9.7952617e-06
0.011231309
8.5964898e-06
0.011229004
7.4872642e-06
0.011226985
6.4691196e-06
0.011225233
5.542723e-06
0.011223723
4.7076735e-06
0.011222435
3.9623869e-06
0.011221345
3.3040723e-06
0.011220433
2.7287985e-06
0.011219676
2.2316231e-06
0.011219055
1.8067882e-06
0.01121855
1.4479351e-06
0.011218144
1.1483523e-06
0.011217821
9.0119881e-07
0.011217566
6.9972955e-07
0.011217369
5.3746736e-07
0.011217216
4.0836036e-07
0.0112171
3.0687518e-07
0.011217013
2.2807316e-07
0.011216948
1.6762674e-07
0.011216901
1.2182775e-07
0.011216866
8.7548086e-08
0.011216841
6.2206406e-08
0.011216823
4.369899e-08
0.011216811
3.0351118e-08
0.011216802
2.0839375e-08
0.011216796
1.4148105e-08
0.011216792
9.4948354e-09
0.011216789
6.3034419e-09
0.011216788
4.1360287e-09
0.011216787
2.6887442e-09
0.011216786
1.7265058e-09
0.011216785
1.1037596e-09
0.011216785
6.9479891e-10
0.011216785
4.4242166e-10
0.011216785
2.7381115e-10
0.011216785
1.8074039e-10
0.011216785
1.1101105e-10
0.011216785
8.5298466e-11
0.011216784
5.6219983e-11
0.011216784
6.1904456e-11
0.011216784
5.6323609e-11
0.011216784
8.4828486e-11
0.011216784
1.1442258e-10
0.011216784
1.8239933e-10
0.011216784
3.1275113e-10
0.011216784
5.0334863e-10
0.011216784
9.2663568e-10
0.011216784
1.4313725e-09
0.011216785
2.4261157e-09
0.011216785
3.267839e-09
4.4412549e-09
0.010097182
6.8393556e-05
0.010346961
0.00019901112
0.010662469
0.00028247388
0.010982753
0.00030866649
0.011290229
0.00030874343
0.011575251
0.00029875789
0.011829022
0.00028101347
0.012047865
0.00025698757
0.012233272
0.00023051983
0.01238924
0.00020514591
0.012520295
0.00018256237
0.012630755
0.00016299958
0.012724427
0.00014622491
0.012804515
0.0001319031
0.012873613
0.0001196742
0.012933772
0.00010917449
0.012986596
0.00010006885
0.013033331
9.2076006e-05
0.013074949
8.4974672e-05
0.013112214
7.8597696e-05
0.013145736
7.2820881e-05
0.013176008
6.7551764e-05
0.013203435
6.2720634e-05
0.013228357
5.8273975e-05
0.013251059
5.4169711e-05
0.013271784
5.0373781e-05
0.013290744
4.6857705e-05
0.013308118
4.359694e-05
0.013324066
4.0569769e-05
0.013338724
3.7756584e-05
0.013352214
3.5139383e-05
0.01336464
3.2701478e-05
0.013376094
3.0427272e-05
0.013386657
2.830215e-05
0.013396399
2.6312386e-05
0.013405379
2.4445142e-05
0.013413652
2.2688484e-05
0.013421262
2.103146e-05
0.013428252
1.9464179e-05
0.013434654
1.7977918e-05
0.013440502
1.6565207e-05
0.013445822
1.5219908e-05
0.013450643
1.3937248e-05
0.013454989
1.2713815e-05
0.013458884
1.1547494e-05
0.013462354
1.0437338e-05
0.013465423
9.3834096e-06
0.013468118
8.3865402e-06
0.013470465
7.448098e-06
0.013472492
6.5696965e-06
0.013474226
5.7529418e-06
0.013475696
4.9991617e-06
0.01347693
4.3092046e-06
0.013477954
3.6832557e-06
0.013478796
3.1207315e-06
0.013479479
2.6202209e-06
0.013480029
2.1794951e-06
0.013480465
1.795568e-06
0.013480807
1.4647994e-06
0.013481072
1.183037e-06
0.013481274
9.4576896e-07
0.013481427
7.4829221e-07
0.013481541
5.8586385e-07
0.013481625
4.5384809e-07
0.013481685
3.4782969e-07
0.013481728
2.6371038e-07
0.013481759
1.9776896e-07
0.01348178
1.4670045e-07
0.013481794
1.076278e-07
0.013481803
7.8093866e-08
0.013481809
5.6040462e-08
0.013481813
3.9770569e-08
0.013481816
2.7913839e-08
0.013481817
1.9375487e-08
0.013481818
1.3303265e-08
0.013481819
9.0337936e-09
0.013481819
6.0713115e-09
0.013481819
4.0361276e-09
0.013481819
2.65948e-09
0.013481819
1.7334787e-09
0.013481819
1.1245232e-09
0.013481819
7.2095719e-10
0.013481819
4.6564389e-10
0.013481819
2.9578387e-10
0.013481819
1.9603961e-10
0.013481819
1.2600168e-10
0.013481819
9.2814052e-11
0.013481819
6.5672411e-11
0.013481819
6.1554784e-11
0.013481819
5.8355227e-11
0.013481819
7.0451896e-11
0.013481819
9.5378584e-11
0.013481819
1.2949393e-10
0.013481819
2.2198713e-10
0.013481819
3.2492537e-10
0.01348182
5.9004014e-10
0.01348182
8.5846974e-10
0.013481821
1.4132372e-09
0.013481823
1.8299956e-09
2.440796e-09
0.010068394
4.9481936e-13
0.010267405
1.7454177e-12
0.010549879
3.2581847e-12
0.010858545
5.169674e-12
0.011167288
7.5702333e-12
0.011466046
1.0650083e-11
0.01174706
1.4469789e-11
0.012004047
1.9213786e-11
0.012234567
2.4957247e-11
0.012439713
3.1956698e-11
0.012622275
4.0279335e-11
0.012785275
5.0223452e-11
0.0129315
6.179579e-11
0.013063403
7.5280355e-11
0.013183077
9.057057e-11
0.013292251
1.0789767e-10
0.01339232
1.2693499e-10
0.013484396
1.476521e-10
0.01356937
1.692448e-10
0.013647968
1.9112867e-10
0.013720789
2.1172189e-10
0.01378834
2.2957931e-10
0.01385106
2.4232747e-10
0.013909334
2.4787308e-10
0.013963504
2.4364897e-10
0.014013877
2.2772164e-10
0.014060735
1.9808209e-10
0.014104331
1.5443875e-10
0.014144901
9.5938768e-11
0.014182658
2.535806e-11
0.014217797
-6.2300407e-11
0.014250499
-1.5585624e-10
0.014280926
-2.5250697e-10
0.014309229
-3.512824e-10
0.014335542
-4.4286171e-10
0.014359987
-5.2748036e-10
0.014382676
-5.9505614e-10
0.014403708
-6.4818951e-10
0.014423173
-6.7790907e-10
0.014441152
-6.8926056e-10
0.014457718
-6.7566993e-10
0.014472938
-6.4441287e-10
0.014486876
-5.9212191e-10
0.01449959
-5.2734642e-10
0.014511138
-4.4928286e-10
0.014521576
-3.6638408e-10
0.01453096
-2.7966991e-10
0.014539347
-1.9640519e-10
0.014546795
-1.1779419e-10
0.014553364
-4.9670633e-11
0.014559117
1.1393833e-11
0.014564116
5.8809987e-11
0.014568426
9.4710229e-11
0.014572109
1.2003239e-10
0.014575229
1.3573012e-10
0.014577849
1.4498755e-10
0.014580029
1.4807046e-10
0.014581824
1.4937756e-10
0.014583289
1.4781639e-10
0.014584472
1.4822814e-10
0.014585417
1.4754641e-10
0.014586165
1.50574e-10
0.014586751
1.5245648e-10
0.014587205
1.581858e-10
0.014587553
1.6142816e-10
0.014587816
1.6755717e-10
0.014588014
1.6947256e-10
0.01458816
1.7330356e-10
0.014588268
1.7160801e-10
0.014588346
1.7129446e-10
0.014588402
1.6498073e-10
0.014588441
1.6024376e-10
0.014588469
1.4976845e-10
0.014588488
1.4156877e-10
0.014588501
1.2842664e-10
0.01458851
1.1849528e-10
0.014588516
1.0447365e-10
0.01458852
9.4517918e-11
0.014588523
8.1260293e-11
0.014588524
7.2669522e-11
0.014588526
6.1226595e-11
0.014588526
5.4769244e-11
0.014588527
4.5746037e-11
0.014588527
4.1802749e-11
0.014588527
3.5301072e-11
0.014588527
3.3880944e-11
0.014588527
2.9979958e-11
0.014588527
3.1113862e-11
0.014588527
2.9888324e-11
0.014588527
3.332535e-11
0.014588527
3.3349661e-11
0.014588527
3.610751e-11
0.014588527
3.4032103e-11
0.014588528
3.5122424e-11
0.014588528
3.1687079e-11
0.014588529
3.201363e-11
0.014588529
3.1259285e-11
0.014588531
2.956672e-11
0.014588533
2.1759768e-11
2.023767e-11
0.010068394
-6.8393555e-05
0.010267405
-0.00019901112
0.010549879
-0.00028247387
0.010858545
-0.00030866648
0.011167288
-0.00030874341
0.011466046
-0.00029875787
0.01174706
-0.00028101344
0.012004047
-0.00025698753
0.012234567
-0.00023051979
0.012439713
-0.00020514585
0.012622275
-0.0001825623
0.012785275
-0.00016299949
0.0129315
-0.00014622479
0.013063403
-0.00013190296
0.013183077
-0.00011967403
0.013292251
-0.00010917428
0.01339232
-0.00010006861
0.013484396
-9.2075729e-05
0.01356937
-8.4974355e-05
0.013647968
-7.859734e-05
0.013720789
-7.2820489e-05
0.01378834
-6.755134e-05
0.013851061
-6.272019e-05
0.013909334
-5.8273523e-05
0.013963504
-5.416927e-05
0.014013877
-5.0373371e-05
0.014060735
-4.6857351e-05
0.014104332
-4.3596668e-05
0.014144901
-4.0569605e-05
0.014182658
-3.7756551e-05
0.014217797
-3.5139504e-05
0.014250499
-3.2701765e-05
0.014280927
-3.0427732e-05
0.014309229
-2.8302781e-05
0.014335542
-2.6313179e-05
0.014359987
-2.4446078e-05
0.014382676
-2.2689538e-05
0.014403708
-2.1032599e-05
0.014423173
-1.9465372e-05
0.014441151
-1.7979123e-05
0.014457717
-1.6566392e-05
0.014472937
-1.5221031e-05
0.014486875
-1.3938286e-05
0.014499589
-1.2714737e-05
0.014511137
-1.1548286e-05
0.014521575
-1.0437984e-05
0.014530959
-9.3839112e-06
0.014539345
-8.386896e-06
0.014546794
-7.4483217e-06
0.014553363
-6.5697982e-06
0.014559116
-5.7529407e-06
0.014564115
-4.9990757e-06
0.014568425
-4.3090545e-06
0.014572108
-3.6830584e-06
0.014575228
-3.120502e-06
0.014577848
-2.6199723e-06
0.014580028
-2.1792347e-06
0.014581823
-1.7953031e-06
0.014583288
-1.4645301e-06
0.014584471
-1.1827667e-06
0.014585417
-9.4549337e-07
0.014586165
-7.4801313e-07
0.01458675
-5.8557603e-07
0.014587204
-4.5355429e-07
0.014587552
-3.4752612e-07
0.014587815
-2.6340185e-07
0.014588013
-1.9745376e-07
0.01458816
-1.4638547e-07
0.014588267
-1.0731297e-07
0.014588345
-7.7786901e-08
0.014588401
-5.5741587e-08
0.014588441
-3.9487247e-08
0.014588469
-2.764561e-08
0.014588488
-1.9128401e-08
0.014588501
-1.3075329e-08
0.01458851
-8.8295386e-09
0.014588516
-5.8872991e-09
0.01458852
-3.8752517e-09
0.014588523
-2.5169822e-09
0.014588524
-1.6113423e-09
0.014588525
-1.0173383e-09
0.014588526
-6.300284e-10
0.014588527
-3.8511611e-10
0.014588527
-2.2702679e-10
0.014588527
-1.331436e-10
0.014588527
-7.0426726e-11
0.014588527
-3.8325074e-11
0.014588527
-1.3984889e-11
0.014588527
-6.8034527e-12
0.014588527
-1.4257847e-12
0.014588527
-8.467047e-12
0.014588527
-3.357626e-11
0.014588527
-6.585458e-11
0.014588528
-1.6213596e-10
0.014588528
-2.6517983e-10
0.014588529
-5.3205331e-10
0.014588529
-8.0220174e-10
0.014588531
-1.3645593e-09
0.014588533
-1.7840483e-09
-2.4022834e-09
0.010097182
-0.00016557515
0.010346961
-0.000448791
0.010662469
-0.00059798177
0.010982753
-0.00062895025
0.011290229
-0.00061621886
0.011575251
-0.00058378054
0.011829022
-0.00053478419
0.012047865
-0.00047583047
0.012233272
-0.00041592662
0.01238924
-0.00036111395
0.012520295
-0.00031361704
0.012630755
-0.00027346016
0.012724428
-0.00023989704
0.012804515
-0.0002119901
0.012873613
-0.0001887723
0.012933772
-0.00016933345
0.012986596
-0.00015289234
0.013033331
-0.00013881094
0.013074949
-0.00012659252
0.013112214
-0.00011586262
0.013145736
-0.00010634231
0.013176008
-9.7823208e-05
0.013203436
-9.0147884e-05
0.013228358
-8.3195454e-05
0.01325106
-7.6871207e-05
0.013271785
-7.1099154e-05
0.013290745
-6.5816758e-05
0.013308119
-6.097129e-05
0.013324067
-5.6517347e-05
0.013338726
-5.2415117e-05
0.013352215
-4.86292e-05
0.013364641
-4.5127752e-05
0.013376095
-4.1881922e-05
0.013386658
-3.8865402e-05
0.013396399
-3.6054167e-05
0.013405379
-3.3426279e-05
0.013413652
-3.0961846e-05
0.013421262
-2.8643007e-05
0.013428251
-2.6454008e-05
0.013434653
-2.4381264e-05
0.0134405
-2.2413432e-05
0.01344582
-2.0541453e-05
0.013450641
-1.8758527e-05
0.013454986
-1.7060032e-05
0.013458881
-1.5443329e-05
0.013462351
-1.3907536e-05
0.01346542
-1.245316e-05
0.013468115
-1.1081753e-05
0.013470462
-9.795454e-06
0.013472489
-8.5966048e-06
0.013474223
-7.4873079e-06
0.013475693
-6.4691046e-06
0.013476927
-5.542658e-06
0.013477951
-4.7075702e-06
0.013478793
-3.9622531e-06
0.013479477
-3.3039162e-06
0.013480026
-2.7286257e-06
0.013480463
-2.2314378e-06
0.013480805
-1.8065934e-06
0.01348107
-1.4477322e-06
0.013481272
-1.1481426e-06
0.013481425
-9.0098256e-07
0.013481539
-6.9950751e-07
0.013481623
-5.3724045e-07
0.013481684
-4.0812957e-07
0.013481727
-3.0664269e-07
0.013481757
-2.2784046e-07
0.013481778
-1.6739723e-07
0.013481793
-1.2160296e-07
0.013481802
-8.7331918e-08
0.013481808
-6.1999907e-08
0.013481812
-4.3505859e-08
0.013481815
-3.0171301e-08
0.013481817
-2.067581e-08
0.013481818
-1.3999559e-08
0.013481818
-9.3633388e-09
0.013481818
-6.1865591e-09
0.013481819
-4.0349785e-09
0.013481819
-2.6003486e-09
0.013481819
-1.6514743e-09
0.013481819
-1.0383915e-09
0.013481819
-6.3959961e-10
0.013481819
-3.9360099e-10
0.013481819
-2.3197188e-10
0.013481819
-1.4190595e-10
0.013481819
-7.6138201e-11
0.013481819
-5.0220147e-11
0.013481819
-2.2072907e-11
0.013481819
-2.4773098e-11
0.013481819
-1.744101e-11
0.013481819
-4.2621117e-11
0.013481819
-7.2342039e-11
0.013481819
-1.4004748e-10
0.013481819
-2.7333161e-10
0.013481819
-4.6548333e-10
0.01348182
-8.8994091e-10
0.01348182
-1.3917167e-09
0.013481821
-2.3862377e-09
0.013481823
-3.2360805e-09
-4.4136745e-09
0.010188704
-0.00035427932
0.010530487
-0.00079057335
0.010851453
-0.00091894821
0.011124174
-0.00090167137
0.011350581
-0.00084262623
0.011524486
-0.00075768558
0.01164633
-0.00065662742
0.011724155
-0.00055365584
0.011767999
-0.0004597708
0.011786639
-0.00037975349
0.011787114
-0.00031409252
0.011775058
-0.00026140417
0.011754861
-0.00021969937
0.011729768
-0.00018689769
0.011702054
-0.00016105777
0.011673239
-0.0001405186
0.011644339
-0.00012399247
0.011616003
-0.00011047529
0.01158863
-9.9218863e-05
0.011562447
-8.9679966e-05
0.011537573
-8.1468619e-05
0.011514055
-7.4304921e-05
0.011491893
-6.7986304e-05
0.011471062
-6.2363966e-05
0.011451517
-5.7326351e-05
0.011433206
-5.2787713e-05
0.011416069
-4.8680316e-05
0.011400047
-4.4949175e-05
0.011385078
-4.154854e-05
0.011371102
-3.8439529e-05
0.011358062
-3.5588514e-05
0.0113459
-3.2966008e-05
0.011334564
-3.0545894e-05
0.011324003
-2.8304874e-05
0.011314171
-2.6222085e-05
0.011305024
-2.4278871e-05
0.011296521
-2.2458636e-05
0.011288624
-2.0746823e-05
0.011281301
-1.913087e-05
0.01127452
-1.7600263e-05
0.011268253
-1.6146493e-05
0.011262475
-1.4763065e-05
0.011257162
-1.3445375e-05
0.011252293
-1.2190606e-05
0.011247847
-1.0997472e-05
0.011243805
-9.8659921e-06
0.011240149
-8.797133e-06
0.01123686
-7.7925022e-06
0.011233918
-6.8539652e-06
0.011231305
-5.9833324e-06
0.011229
-5.1820384e-06
0.011226982
-4.4509057e-06
0.011225229
-3.7899544e-06
0.01122372
-3.1982933e-06
0.011222432
-2.6740875e-06
0.011221342
-2.2145817e-06
0.01122043
-1.8162068e-06
0.011219673
-1.4747002e-06
0.011219052
-1.1852967e-06
0.011218547
-9.4288732e-07
0.011218141
-7.4223228e-07
0.011217818
-5.7810267e-07
0.011217564
-4.4545972e-07
0.011217367
-3.3954299e-07
0.011217215
-2.5599393e-07
0.011217099
-1.9087901e-07
0.011217012
-1.4075336e-07
0.011216947
-1.0262836e-07
0.011216899
-7.399107e-08
0.011216865
-5.2736043e-08
0.01121684
-3.7160444e-08
0.011216822
-2.5879628e-08
0.01121681
-1.7817329e-08
0.011216802
-1.2119257e-08
0.011216796
-8.1500079e-09
0.011216792
-5.4115807e-09
0.011216789
-3.5546108e-09
0.011216787
-2.3024078e-09
0.011216786
-1.4786157e-09
0.011216786
-9.3291175e-10
0.011216785
-5.8784585e-10
0.011216785
-3.5942596e-10
0.011216785
-2.2517563e-10
0.011216785
-1.3070328e-10
0.011216785
-8.5269311e-11
0.011216785
-4.3471179e-11
0.011216785
-3.6157734e-11
0.011216785
-1.4363708e-11
0.011216785
-2.8397829e-11
0.011216785
-1.8929475e-11
0.011216785
-5.6861606e-11
0.011216785
-7.1188981e-11
0.011216785
-1.5485516e-10
0.011216784
-2.5256649e-10
0.011216785
-4.7175701e-10
0.011216785
-8.5156146e-10
0.011216785
-1.4829482e-09
0.011216785
-2.6046292e-09
0.011216785
-3.8540046e-09
-5.4057382e-09
0.010339525
-0.00069380425
0.010570754
-0.0010218027
0.010606301
-0.00095449449
0.010547572
-0.00084294334
0.010422317
-0.0007173708
0.010244356
-0.00057972443
0.010039421
-0.00045169204
0.0098287427
-0.000342978
0.009625135
-0.00025616316
0.0094353014
-0.00018991982
0.0092624278
-0.00014121895
0.0091075334
-0.00010650976
0.0089701542
-8.2320178e-05
0.0088489027
-6.5646186e-05
0.0087419721
-5.4127175e-05
0.0086474934
-4.6039946e-05
0.0085636951
-4.0194161e-05
0.0084890124
-3.5792584e-05
0.0084221121
-3.231853e-05
0.0083618811
-2.9448974e-05
0.0083074006
-2.6988165e-05
0.0082579154
-2.4819744e-05
0.0082128038
-2.2874712e-05
0.0081715511
-2.1111332e-05
0.0081337278
-1.9503088e-05
0.0080989718
-1.8031705e-05
0.0080669747
-1.6683255e-05
0.0080374716
-1.5446101e-05
0.0080102329
-1.4309876e-05
0.0079850584
-1.3265025e-05
0.0079617725
-1.2302614e-05
0.0079402207
-1.1414274e-05
0.007920267
-1.0592189e-05
0.0079017912
-9.8290956e-06
0.0078846874
-9.1182943e-06
0.0078688622
-8.4536619e-06
0.0078542333
-7.8296814e-06
0.0078407279
-7.2414698e-06
0.0078282819
-6.6848186e-06
0.0078168378
-6.1562062e-06
0.0078063442
-5.6528302e-06
0.0077967537
-5.1725801e-06
0.0077880223
-4.7140389e-06
0.0077801081
-4.2763977e-06
0.0077729701
-3.8594137e-06
0.0077665674
-3.4632725e-06
0.0077608587
-3.0885091e-06
0.0077558021
-2.7358459e-06
0.0077513542
-2.406097e-06
0.0077474709
-2.1000178e-06
0.0077441071
-1.8182202e-06
0.0077412173
-1.5610673e-06
0.007738756
-1.3286214e-06
0.0077366783
-1.120603e-06
0.0077349406
-9.3637849e-07
0.007733501
-7.7498545e-07
0.00773232
-6.3515268e-07
0.0077313607
-5.1537427e-07
0.0077305894
-4.1394605e-07
0.0077299755
-3.29061e-07
0.0077294922
-2.5885041e-07
0.0077291156
-2.0147627e-07
0.0077288253
-1.55146e-07
0.0077286039
-1.1818818e-07
0.007728437
-8.905564e-08
0.0077283125
-6.6373327e-08
0.0077282207
-4.8921368e-08
0.0077281538
-3.5660488e-08
0.0077281055
-2.5702127e-08
0.0077280711
-1.8318298e-08
0.0077280469
-1.2906455e-08
0.00772803
-8.9914218e-09
0.0077280184
-6.1910325e-09
0.0077280105
-4.2150344e-09
0.0077280052
-2.8356508e-09
0.0077280017
-1.8865512e-09
0.0077279994
-1.2401228e-09
0.0077279979
-8.0646765e-10
0.0077279969
-5.1844854e-10
0.0077279963
-3.2967667e-10
0.007727996
-2.0798672e-10
0.0077279957
-1.29216e-10
0.0077279956
-8.0972169e-11
0.0077279955
-4.8414263e-11
0.0077279955
-3.1615654e-11
0.0077279955
-1.706342e-11
0.0077279954
-1.4938579e-11
0.0077279954
-7.9307951e-12
0.0077279954
-1.6913221e-11
0.0077279954
-1.5382391e-11
0.0077279954
-3.6398648e-11
0.0077279953
-4.0897504e-11
0.0077279953
-8.5525954e-11
0.0077279951
-1.1888535e-10
0.007727995
-2.4994038e-10
0.0077279946
-4.4738233e-10
0.007727994
-9.0291978e-10
0.0077279929
-1.6239589e-09
0.0077279919
-2.9126314e-09
-4.2457919e-09
0.0093061957
0.0082843931
0.0073298986
0.0064869553
0.0057695845
0.00518986
0.004738168
0.00439519
0.0041390268
0.003949107
0.0038078881
0.0037013783
0.0036190581
0.0035534119
0.0034992848
0.0034532448
0.0034130506
0.0033772581
0.0033449395
0.0033154905
0.0032885024
0.0032636826
0.0032408079
0.0032196966
0.0032001935
0.0031821617
0.0031654785
0.0031500324
0.0031357225
0.0031224574
0.0031101548
0.0030987405
0.0030881484
0.0030783193
0.003069201
0.0030607473
0.0030529176
0.0030456762
0.0030389914
0.0030328351
0.0030271823
0.0030220097
0.0030172957
0.0030130193
0.0030091599
0.0030056966
0.0030026081
0.0029998723
0.0029974662
0.0029953662
0.0029935479
0.0029919869
0.0029906583
0.0029895377
0.0029886013
0.0029878263
0.0029871912
0.0029866758
0.0029862619
0.0029859328
0.002985674
0.0029854725
0.0029853174
0.0029851992
0.0029851102
0.0029850438
0.0029849949
0.0029849592
0.0029849335
0.0029849152
0.0029849023
0.0029848933
0.0029848871
0.0029848829
0.0029848801
0.0029848782
0.002984877
0.0029848762
0.0029848757
0.0029848754
0.0029848751
0.002984875
0.0029848749
0.0029848749
0.0029848749
0.0029848748
0.0029848748
0.0029848748
0.0029848748
0.0029848748
0.0029848747
0.0029848747
0.0029848746
0.0029848745
0.0029848743
0.0029848738
0.0029848729
0.0029848712
0.0029848683
)
;

boundaryField
{
    top
    {
        type            calculated;
        value           uniform 0;
    }
    inlet
    {
        type            calculated;
        value           nonuniform List<scalar> 10(-0.01 -0.01 -0.01 -0.01 -0.01 -0.01 -0.01 -0.01 -0.01 -0.01);
    }
    outlet
    {
        type            calculated;
        value           nonuniform List<scalar> 10(0.002984864 0.0077279906 0.011216786 0.013481825 0.014588535 0.014588535 0.013481825 0.011216786 0.0077279908 0.0029848641);
    }
    bottom
    {
        type            calculated;
        value           uniform 0;
    }
    back
    {
        type            empty;
        value           nonuniform 0();
    }
    front
    {
        type            empty;
        value           nonuniform 0();
    }
}


// ************************************************************************* //
