/*--------------------------------*- C++ -*----------------------------------*\
| =========                 |                                                 |
| \\      /  F ield         | OpenFOAM: The Open Source CFD Toolbox           |
|  \\    /   O peration     | Version:  v1812                                 |
|   \\  /    A nd           | Web:      www.OpenFOAM.com                      |
|    \\/     M anipulation  |                                                 |
\*---------------------------------------------------------------------------*/
FoamFile
{
    version     2.0;
    format      ascii;
    class       volVectorField;
    location    "15.5";
    object      U;
}
// * * * * * * * * * * * * * * * * * * * * * * * * * * * * * * * * * * * * * //

dimensions      [0 1 -1 0 0 0 0];


internalField   nonuniform List<vector> 
1000
(
(0.91890839 0.035821912 0)
(0.86271384 0.062195638 0)
(0.7870597 0.062510089 0)
(0.69536033 0.054550394 0)
(0.61089745 0.04453165 0)
(0.54411592 0.034015971 0)
(0.49343012 0.02418754 0)
(0.45479414 0.01614423 0)
(0.42544583 0.010265786 0)
(0.40347313 0.0063041453 0)
(0.38715767 0.0037976293 0)
(0.3749622 0.0023103382 0)
(0.36566193 0.001493015 0)
(0.35836272 0.0010851184 0)
(0.35244268 0.00090607214 0)
(0.34748201 0.00084105125 0)
(0.34320348 0.00082372369 0)
(0.33942726 0.0008193101 0)
(0.33603793 0.00081185217 0)
(0.33296114 0.00079580171 0)
(0.33014778 0.00077081236 0)
(0.32756384 0.00073871033 0)
(0.3251842 0.00070188988 0)
(0.32298902 0.00066256577 0)
(0.32096172 0.0006224992 0)
(0.31908785 0.00058295658 0)
(0.31735449 0.00054477079 0)
(0.31574995 0.00050843344 0)
(0.3142636 0.00047419149 0)
(0.31288574 0.00044212484 0)
(0.31160755 0.00041221021 0)
(0.31042101 0.00038436255 0)
(0.30931883 0.00035846579 0)
(0.30829438 0.00033439077 0)
(0.30734165 0.00031200653 0)
(0.30645515 0.00029118685 0)
(0.30562991 0.00027181304 0)
(0.30486136 0.00025377556 0)
(0.30414535 0.00023697368 0)
(0.30347807 0.00022131476 0)
(0.30285601 0.00020671499 0)
(0.30227596 0.00019309676 0)
(0.30173496 0.00018038998 0)
(0.30123029 0.0001685299 0)
(0.30075942 0.00015745729 0)
(0.30032002 0.00014711826 0)
(0.29990993 0.00013746236 0)
(0.29952715 0.0001284441 0)
(0.29916983 0.00012002054 0)
(0.29883624 0.00011215137 0)
(0.29852478 0.00010480008 0)
(0.29823397 9.7931117e-05 0)
(0.29796241 9.1512364e-05 0)
(0.29770882 8.5513633e-05 0)
(0.29747201 7.9906454e-05 0)
(0.29725084 7.4665974e-05 0)
(0.29704429 6.9767619e-05 0)
(0.29685137 6.5190879e-05 0)
(0.2966712 6.0914817e-05 0)
(0.29650291 5.6919843e-05 0)
(0.29634572 5.3187716e-05 0)
(0.2961989 4.9700013e-05 0)
(0.29606176 4.6440343e-05 0)
(0.29593366 4.3392799e-05 0)
(0.295814 4.0542868e-05 0)
(0.29570223 3.7878424e-05 0)
(0.29559783 3.5387639e-05 0)
(0.29550031 3.3060398e-05 0)
(0.29540922 3.0888071e-05 0)
(0.29532413 2.8859783e-05 0)
(0.29524465 2.6966832e-05 0)
(0.2951704 2.519872e-05 0)
(0.29510104 2.3545332e-05 0)
(0.29503625 2.1998207e-05 0)
(0.29497572 2.0549787e-05 0)
(0.29491918 1.9194094e-05 0)
(0.29486637 1.7927566e-05 0)
(0.29481705 1.674452e-05 0)
(0.29477097 1.5643244e-05 0)
(0.29472793 1.4616586e-05 0)
(0.29468772 1.3660682e-05 0)
(0.29465016 1.2766822e-05 0)
(0.29461507 1.1930621e-05 0)
(0.29458229 1.1144557e-05 0)
(0.29455167 1.0407706e-05 0)
(0.29452308 9.71326e-06 0)
(0.29449635 9.0726691e-06 0)
(0.29447142 8.4705568e-06 0)
(0.2944481 7.9185562e-06 0)
(0.29442633 7.397157e-06 0)
(0.29440598 6.9261963e-06 0)
(0.294387 6.4726214e-06 0)
(0.2943692 6.0616697e-06 0)
(0.29435259 5.6502414e-06 0)
(0.29433714 5.2890007e-06 0)
(0.29432249 4.9685656e-06 0)
(0.29430918 4.6879635e-06 0)
(0.29429569 4.539126e-06 0)
(0.29428502 4.4058604e-06 0)
(0.29426873 5.0574899e-06 0)
(1.0016583 0.05381943 0)
(1.0359761 0.10128443 0)
(1.0597199 0.11073663 0)
(1.0628947 0.10592201 0)
(1.0515569 0.096228725 0)
(1.0340529 0.083934059 0)
(1.0142795 0.070327062 0)
(0.99360703 0.056981334 0)
(0.97292577 0.045107479 0)
(0.9531074 0.03523675 0)
(0.93479539 0.02740165 0)
(0.91829012 0.021387227 0)
(0.90362379 0.016884499 0)
(0.89068068 0.013569709 0)
(0.87928175 0.011147748 0)
(0.86923242 0.0093736582 0)
(0.86034424 0.0080569277 0)
(0.85244667 0.0070571272 0)
(0.84539242 0.0062752387 0)
(0.83905793 0.0056438293 0)
(0.83334126 0.0051180921 0)
(0.82815884 0.0046686734 0)
(0.82344212 0.004276418 0)
(0.81913467 0.0039287387 0)
(0.81518961 0.0036172029 0)
(0.81156765 0.0033359692 0)
(0.80823544 0.0030808028 0)
(0.8051644 0.0028484679 0)
(0.80232979 0.0026363689 0)
(0.79970999 0.0024423386 0)
(0.79728597 0.0022645195 0)
(0.79504086 0.0021012909 0)
(0.79295963 0.0019512264 0)
(0.7910288 0.0018130639 0)
(0.78923627 0.0016856838 0)
(0.7875711 0.001568092 0)
(0.78602338 0.0014594045 0)
(0.78458412 0.0013588343 0)
(0.78324511 0.0012656792 0)
(0.78199889 0.0011793111 0)
(0.78083861 0.0010991675 0)
(0.77975799 0.0010247424 0)
(0.77875128 0.00095558028 0)
(0.77781318 0.00089126971 0)
(0.77693881 0.00083143778 0)
(0.77612368 0.00077574647 0)
(0.77536362 0.00072388762 0)
(0.77465481 0.0006755803 0)
(0.77399368 0.00063056713 0)
(0.77337693 0.00058861119 0)
(0.77280153 0.00054949506 0)
(0.77226464 0.00051301764 0)
(0.77176363 0.00047899317 0)
(0.77129606 0.00044725058 0)
(0.77085967 0.00041763098 0)
(0.77045234 0.00038998904 0)
(0.77007212 0.00036418964 0)
(0.76971717 0.00034010931 0)
(0.76938581 0.00031763256 0)
(0.76907644 0.00029665131 0)
(0.7687876 0.00027706475 0)
(0.76851791 0.00025877803 0)
(0.7682661 0.00024170244 0)
(0.76803096 0.00022575566 0)
(0.76781139 0.00021086106 0)
(0.76760635 0.0001969488 0)
(0.76741488 0.00018395455 0)
(0.76723608 0.00017181899 0)
(0.7670691 0.0001604879 0)
(0.76691315 0.00014990837 0)
(0.76676752 0.00014003111 0)
(0.7666315 0.0001308073 0)
(0.76650447 0.00012219128 0)
(0.76638582 0.00011413975 0)
(0.76627501 0.0001066151 0)
(0.76617152 9.9581561e-05 0)
(0.76607485 9.3011618e-05 0)
(0.76598458 8.6874306e-05 0)
(0.76590026 8.1148708e-05 0)
(0.76582151 7.5803104e-05 0)
(0.76574794 7.0818562e-05 0)
(0.76567924 6.6158493e-05 0)
(0.76561504 6.1809467e-05 0)
(0.76555512 5.7732711e-05 0)
(0.7654991 5.392998e-05 0)
(0.76544684 5.0354495e-05 0)
(0.76539796 4.7037378e-05 0)
(0.76535239 4.392089e-05 0)
(0.7653097 4.105379e-05 0)
(0.76526997 3.832415e-05 0)
(0.76523272 3.5845801e-05 0)
(0.76519804 3.3464857e-05 0)
(0.76516555 3.1332511e-05 0)
(0.76513516 2.9189292e-05 0)
(0.76510713 2.7363381e-05 0)
(0.76507997 2.5516305e-05 0)
(0.76505663 2.4070635e-05 0)
(0.76503057 2.255462e-05 0)
(0.76501445 2.1597973e-05 0)
(0.76498346 2.0994355e-05 0)
(1.0014244 0.026824854 0)
(1.0291272 0.06279135 0)
(1.0654292 0.077736549 0)
(1.098962 0.080597196 0)
(1.1253149 0.078285167 0)
(1.145053 0.073153897 0)
(1.1594858 0.066111277 0)
(1.1694287 0.058162063 0)
(1.1755354 0.050296754 0)
(1.1785738 0.043150708 0)
(1.1793571 0.036972824 0)
(1.1785949 0.031771631 0)
(1.1768304 0.027451838 0)
(1.1744518 0.023886766 0)
(1.1717287 0.020947618 0)
(1.1688444 0.018515779 0)
(1.1659195 0.016488084 0)
(1.1630317 0.014779502 0)
(1.1602295 0.013322986 0)
(1.1575415 0.012067134 0)
(1.1549828 0.010973002 0)
(1.1525601 0.010011063 0)
(1.1502747 0.0091587474 0)
(1.1481246 0.0083986042 0)
(1.1461059 0.00771695 0)
(1.1442134 0.0071028873 0)
(1.1424414 0.0065475911 0)
(1.1407838 0.0060437949 0)
(1.1392344 0.0055854261 0)
(1.1377869 0.0051673451 0)
(1.1364353 0.0047851579 0)
(1.1351738 0.0044350773 0)
(1.1339968 0.0041138178 0)
(1.1328987 0.0038185135 0)
(1.1318746 0.003546653 0)
(1.1309195 0.0032960265 0)
(1.1300289 0.0030646821 0)
(1.1291985 0.0028508895 0)
(1.1284242 0.0026531095 0)
(1.1277022 0.0024699683 0)
(1.1270291 0.002300236 0)
(1.1264014 0.002142808 0)
(1.1258161 0.0019966894 0)
(1.1252702 0.0018609819 0)
(1.1247612 0.0017348719 0)
(1.1242865 0.0016176209 0)
(1.1238437 0.0015085569 0)
(1.1234307 0.001407067 0)
(1.1230455 0.0013125904 0)
(1.1226861 0.0012246132 0)
(1.1223509 0.0011426638 0)
(1.1220381 0.001066308 0)
(1.1217462 0.00099514613 0)
(1.1214739 0.00092880964 0)
(1.1212198 0.00086695875 0)
(1.1209827 0.00080928005 0)
(1.1207614 0.00075548444 0)
(1.1205548 0.00070530452 0)
(1.1203621 0.00065849196 0)
(1.1201821 0.00061481587 0)
(1.1200142 0.00057406179 0)
(1.1198574 0.00053602966 0)
(1.1197111 0.00050053356 0)
(1.1195745 0.00046740053 0)
(1.1194469 0.00043647071 0)
(1.1193278 0.00040759572 0)
(1.1192167 0.00038063868 0)
(1.1191129 0.00035547238 0)
(1.119016 0.00033197861 0)
(1.1189255 0.00031004546 0)
(1.118841 0.00028956905 0)
(1.1187621 0.00027044908 0)
(1.1186884 0.0002525945 0)
(1.1186197 0.00023591744 0)
(1.1185554 0.00022034177 0)
(1.1184954 0.00020579175 0)
(1.1184394 0.00019220581 0)
(1.1183871 0.00017951645 0)
(1.1183382 0.00016767462 0)
(1.1182926 0.00015661304 0)
(1.11825 0.00014629371 0)
(1.1182103 0.00013664336 0)
(1.1181731 0.00012764369 0)
(1.1181384 0.00011921155 0)
(1.1181059 0.00011136006 0)
(1.1180758 0.0001039849 0)
(1.1180473 9.7152423e-05 0)
(1.1180211 9.0703285e-05 0)
(1.1179962 8.4784748e-05 0)
(1.1179734 7.9127879e-05 0)
(1.1179516 7.4027784e-05 0)
(1.1179318 6.9018032e-05 0)
(1.1179128 6.4663261e-05 0)
(1.1178955 6.0142923e-05 0)
(1.117879 5.6562548e-05 0)
(1.1178635 5.2425246e-05 0)
(1.11785 4.9743609e-05 0)
(1.1178349 4.5805652e-05 0)
(1.1178261 4.4317322e-05 0)
(1.1178083 4.0575024e-05 0)
(1.0007347 0.011814721 0)
(1.0178472 0.030860924 0)
(1.0462163 0.041434438 0)
(1.0799018 0.045193566 0)
(1.1132664 0.045502348 0)
(1.143782 0.044080305 0)
(1.1708941 0.04143998 0)
(1.1945687 0.037973676 0)
(1.2148582 0.034195728 0)
(1.2319652 0.030536886 0)
(1.2462683 0.027222043 0)
(1.2582339 0.024313918 0)
(1.2683135 0.021797886 0)
(1.2768875 0.019633657 0)
(1.2842554 0.017773824 0)
(1.2906479 0.01616965 0)
(1.296243 0.014775589 0)
(1.3011791 0.013552297 0)
(1.3055645 0.012467864 0)
(1.3094838 0.011497466 0)
(1.3130042 0.010622162 0)
(1.3161792 0.0098275137 0)
(1.3190526 0.0091024112 0)
(1.3216607 0.0084381766 0)
(1.3240343 0.0078279036 0)
(1.3261995 0.0072659743 0)
(1.3281786 0.0067477088 0)
(1.3299913 0.006269117 0)
(1.3316544 0.0058267279 0)
(1.3331829 0.0054174739 0)
(1.3345896 0.005038613 0)
(1.3358862 0.0046876744 0)
(1.3370827 0.0043624199 0)
(1.3381882 0.0040608147 0)
(1.3392108 0.003781004 0)
(1.3401576 0.0035212946 0)
(1.3410349 0.0032801381 0)
(1.3418486 0.0030561173 0)
(1.3426038 0.0028479341 0)
(1.3433051 0.0026543979 0)
(1.3439569 0.0024744165 0)
(1.3445629 0.0023069867 0)
(1.3451267 0.0021511864 0)
(1.3456513 0.0020061672 0)
(1.3461398 0.0018711481 0)
(1.3465947 0.0017454094 0)
(1.3470185 0.0016282873 0)
(1.3474135 0.0015191687 0)
(1.3477816 0.0014174873 0)
(1.3481249 0.0013227193 0)
(1.3484449 0.0012343799 0)
(1.3487435 0.00115202 0)
(1.349022 0.0010752238 0)
(1.3492818 0.0010036056 0)
(1.3495242 0.00093680816 0)
(1.3497505 0.00087450078 0)
(1.3499616 0.00081637615 0)
(1.3501587 0.00076214883 0)
(1.3503427 0.00071155298 0)
(1.3505145 0.00066434126 0)
(1.3506748 0.00062028372 0)
(1.3508245 0.00057916606 0)
(1.3509643 0.00054078939 0)
(1.3510948 0.00050496825 0)
(1.3512167 0.00047153094 0)
(1.3513305 0.00044031758 0)
(1.3514368 0.00041117993 0)
(1.3515361 0.00038397902 0)
(1.3516288 0.00035858618 0)
(1.3517153 0.00033487932 0)
(1.3517962 0.00031274571 0)
(1.3518717 0.00029207778 0)
(1.3519422 0.00027277891 0)
(1.3520081 0.00025475517 0)
(1.3520696 0.00023792614 0)
(1.3521271 0.00022220868 0)
(1.3521807 0.0002075362 0)
(1.3522309 0.00019383169 0)
(1.3522777 0.00018104223 0)
(1.3523215 0.00016909068 0)
(1.3523622 0.00015794034 0)
(1.3524005 0.00014750869 0)
(1.3524361 0.0001377866 0)
(1.3524694 0.00012867334 0)
(1.3525004 0.00012020352 0)
(1.3525297 0.00011224094 0)
(1.3525565 0.00010488371 0)
(1.3525822 9.7900142e-05 0)
(1.3526054 9.1531846e-05 0)
(1.3526282 8.5398581e-05 0)
(1.352648 7.993062e-05 0)
(1.3526683 7.4426254e-05 0)
(1.352685 6.9803584e-05 0)
(1.3527038 6.4831572e-05 0)
(1.352717 6.1123277e-05 0)
(1.3527347 5.6441e-05 0)
(1.3527446 5.3741405e-05 0)
(1.3527629 4.9142637e-05 0)
(1.3527684 4.7700911e-05 0)
(1.3527888 4.2955581e-05 0)
(1.0005903 0.0034629152 0)
(1.0136865 0.009366018 0)
(1.0370283 0.013046804 0)
(1.0674202 0.014563259 0)
(1.1000315 0.014854523 0)
(1.1316428 0.014564989 0)
(1.1610745 0.013888337 0)
(1.1880674 0.012919244 0)
(1.2125205 0.011806505 0)
(1.2343939 0.010696425 0)
(1.2538077 0.0096727405 0)
(1.2710339 0.0087628202 0)
(1.286401 0.0079659715 0)
(1.3002111 0.0072722125 0)
(1.3127102 0.0066688067 0)
(1.3240903 0.0061419238 0)
(1.3345036 0.0056780711 0)
(1.3440716 0.0052653204 0)
(1.3528927 0.004893935 0)
(1.3610463 0.004556396 0)
(1.3685975 0.00424707 0)
(1.3756004 0.003961776 0)
(1.3821012 0.0036973977 0)
(1.3881402 0.0034515825 0)
(1.3937533 0.0032225185 0)
(1.3989728 0.0030087699 0)
(1.403828 0.0028091581 0)
(1.4083456 0.0026226794 0)
(1.4125503 0.00244845 0)
(1.4164646 0.0022856711 0)
(1.4201094 0.0021336079 0)
(1.423504 0.0019915765 0)
(1.426666 0.0018589365 0)
(1.4296121 0.0017350859 0)
(1.4323573 0.0016194585 0)
(1.4349159 0.0015115214 0)
(1.4373007 0.0014107731 0)
(1.4395241 0.0013167424 0)
(1.441597 0.0012289868 0)
(1.4435301 0.0011470913 0)
(1.4453328 0.0010706671 0)
(1.4470143 0.0009993503 0)
(1.4485827 0.0009328006 0)
(1.4500459 0.00087069973 0)
(1.451411 0.00081275039 0)
(1.4526846 0.00075867486 0)
(1.4538731 0.00070821369 0)
(1.4549822 0.00066112448 0)
(1.4560171 0.0006171811 0)
(1.4569831 0.00057617252 0)
(1.4578847 0.0005379013 0)
(1.4587262 0.0005021837 0)
(1.4595117 0.00046884815 0)
(1.460245 0.00043773491 0)
(1.4609295 0.00040869535 0)
(1.4615685 0.00038159113 0)
(1.4621651 0.00035629294 0)
(1.4627221 0.00033267944 0)
(1.4632422 0.00031063761 0)
(1.4637278 0.00029006178 0)
(1.4641811 0.00027085319 0)
(1.4646045 0.00025292044 0)
(1.4649998 0.00023617841 0)
(1.4653689 0.00022054782 0)
(1.4657136 0.00020595491 0)
(1.4660355 0.00019233098 0)
(1.4663361 0.000179612 0)
(1.4666168 0.00016773729 0)
(1.466879 0.00015665057 0)
(1.4671238 0.00014629836 0)
(1.4673524 0.00013663115 0)
(1.467566 0.0001276023 0)
(1.4677654 0.00011917054 0)
(1.4679516 0.00011129573 0)
(1.4681255 0.0001039436 0)
(1.468288 9.7078247e-05 0)
(1.4684397 9.067087e-05 0)
(1.4685815 8.4686111e-05 0)
(1.4687138 7.9100706e-05 0)
(1.4688375 7.3878433e-05 0)
(1.4689528 6.9005133e-05 0)
(1.4690608 6.4443743e-05 0)
(1.4691615 6.0194444e-05 0)
(1.4692557 5.6209052e-05 0)
(1.4693432 5.2513058e-05 0)
(1.4694257 4.9036302e-05 0)
(1.469502 4.5827261e-05 0)
(1.4695741 4.2770033e-05 0)
(1.46964 4.0000908e-05 0)
(1.4697039 3.7312581e-05 0)
(1.4697608 3.4922935e-05 0)
(1.469817 3.2490127e-05 0)
(1.4698651 3.0496294e-05 0)
(1.4699169 2.8309192e-05 0)
(1.4699562 2.6725197e-05 0)
(1.4700042 2.4637936e-05 0)
(1.4700338 2.3491501e-05 0)
(1.4700833 2.142257e-05 0)
(1.4701002 2.0809249e-05 0)
(1.4701556 1.8648135e-05 0)
(1.0005903 -0.0034629162 0)
(1.0136865 -0.0093660206 0)
(1.0370283 -0.013046807 0)
(1.0674202 -0.014563262 0)
(1.1000315 -0.014854525 0)
(1.1316428 -0.014564991 0)
(1.1610745 -0.013888338 0)
(1.1880674 -0.012919246 0)
(1.2125205 -0.011806507 0)
(1.2343939 -0.010696428 0)
(1.2538077 -0.0096727435 0)
(1.2710339 -0.0087628233 0)
(1.286401 -0.0079659747 0)
(1.3002111 -0.0072722156 0)
(1.3127102 -0.0066688094 0)
(1.3240903 -0.0061419262 0)
(1.3345036 -0.005678073 0)
(1.3440716 -0.0052653215 0)
(1.3528927 -0.0048939353 0)
(1.3610463 -0.0045563958 0)
(1.3685975 -0.0042470697 0)
(1.3756004 -0.0039617758 0)
(1.3821012 -0.0036973976 0)
(1.3881402 -0.0034515827 0)
(1.3937533 -0.0032225188 0)
(1.3989728 -0.00300877 0)
(1.403828 -0.002809158 0)
(1.4083456 -0.002622679 0)
(1.4125503 -0.0024484491 0)
(1.4164646 -0.0022856698 0)
(1.4201094 -0.0021336065 0)
(1.423504 -0.0019915753 0)
(1.426666 -0.0018589358 0)
(1.4296121 -0.0017350859 0)
(1.4323573 -0.0016194591 0)
(1.4349159 -0.0015115221 0)
(1.4373007 -0.0014107734 0)
(1.4395241 -0.0013167421 0)
(1.441597 -0.0012289858 0)
(1.4435301 -0.0011470898 0)
(1.4453328 -0.0010706655 0)
(1.4470143 -0.00099934918 0)
(1.4485827 -0.00093280012 0)
(1.4500459 -0.00087069999 0)
(1.451411 -0.00081275123 0)
(1.4526846 -0.00075867588 0)
(1.4538731 -0.00070821439 0)
(1.4549822 -0.00066112455 0)
(1.4560172 -0.00061718015 0)
(1.4569831 -0.00057617032 0)
(1.4578847 -0.00053789857 0)
(1.4587262 -0.00050218132 0)
(1.4595117 -0.00046884705 0)
(1.460245 -0.00043773566 0)
(1.4609295 -0.00040869765 0)
(1.4615685 -0.00038159374 0)
(1.4621651 -0.00035629429 0)
(1.4627221 -0.00033267891 0)
(1.4632422 -0.00031063496 0)
(1.4637278 -0.00029005753 0)
(1.4641812 -0.00027084891 0)
(1.4646045 -0.00025291763 0)
(1.4649998 -0.00023617781 0)
(1.4653689 -0.0002205494 0)
(1.4657136 -0.00020595814 0)
(1.4660355 -0.00019233441 0)
(1.4663361 -0.00017961369 0)
(1.4666168 -0.00016773617 0)
(1.466879 -0.00015664641 0)
(1.4671238 -0.0001462921 0)
(1.4673524 -0.00013662522 0)
(1.467566 -0.00012759905 0)
(1.4677654 -0.00011917129 0)
(1.4679516 -0.00011130016 0)
(1.4681255 -0.00010394999 0)
(1.468288 -9.7083431e-05 0)
(1.4684397 -9.067173e-05 0)
(1.4685815 -8.4681769e-05 0)
(1.4687138 -7.9092584e-05 0)
(1.4688375 -7.3870288e-05 0)
(1.4689528 -6.9000818e-05 0)
(1.4690608 -6.4444848e-05 0)
(1.4691615 -6.0200835e-05 0)
(1.4692557 -5.6218858e-05 0)
(1.4693432 -5.2518471e-05 0)
(1.4694258 -4.9034467e-05 0)
(1.469502 -4.5822588e-05 0)
(1.4695741 -4.2762761e-05 0)
(1.4696401 -3.9983494e-05 0)
(1.469704 -3.7296776e-05 0)
(1.4697608 -3.4933146e-05 0)
(1.469817 -3.2518228e-05 0)
(1.4698652 -3.0511296e-05 0)
(1.4699169 -2.8299659e-05 0)
(1.4699561 -2.6707401e-05 0)
(1.4700043 -2.4627999e-05 0)
(1.4700339 -2.3489941e-05 0)
(1.4700833 -2.1427493e-05 0)
(1.4701002 -2.0823931e-05 0)
(1.4701556 -1.8663382e-05 0)
(1.0007347 -0.011814722 0)
(1.0178472 -0.030860927 0)
(1.0462163 -0.041434442 0)
(1.0799018 -0.04519357 0)
(1.1132664 -0.045502351 0)
(1.143782 -0.044080308 0)
(1.1708941 -0.041439982 0)
(1.1945687 -0.037973678 0)
(1.2148582 -0.03419573 0)
(1.2319652 -0.030536888 0)
(1.2462683 -0.027222046 0)
(1.2582339 -0.024313921 0)
(1.2683135 -0.021797889 0)
(1.2768875 -0.01963366 0)
(1.2842554 -0.017773827 0)
(1.2906479 -0.016169652 0)
(1.296243 -0.01477559 0)
(1.3011791 -0.013552298 0)
(1.3055645 -0.012467864 0)
(1.3094838 -0.011497466 0)
(1.3130042 -0.010622162 0)
(1.3161792 -0.0098275132 0)
(1.3190526 -0.009102411 0)
(1.3216607 -0.0084381768 0)
(1.3240343 -0.0078279039 0)
(1.3261995 -0.0072659745 0)
(1.3281786 -0.0067477087 0)
(1.3299913 -0.0062691166 0)
(1.3316544 -0.005826727 0)
(1.3331829 -0.0054174727 0)
(1.3345896 -0.0050386117 0)
(1.3358862 -0.0046876733 0)
(1.3370827 -0.0043624194 0)
(1.3381882 -0.0040608147 0)
(1.3392108 -0.0037810045 0)
(1.3401576 -0.0035212952 0)
(1.3410349 -0.0032801386 0)
(1.3418486 -0.0030561174 0)
(1.3426038 -0.0028479335 0)
(1.3433051 -0.0026543968 0)
(1.3439569 -0.0024744152 0)
(1.3445629 -0.0023069855 0)
(1.3451267 -0.0021511856 0)
(1.3456513 -0.0020061671 0)
(1.3461398 -0.0018711486 0)
(1.3465947 -0.0017454103 0)
(1.3470185 -0.0016282882 0)
(1.3474135 -0.0015191691 0)
(1.3477816 -0.0014174868 0)
(1.3481249 -0.001322718 0)
(1.3484449 -0.0012343781 0)
(1.3487435 -0.0011520184 0)
(1.349022 -0.0010752227 0)
(1.3492818 -0.0010036055 0)
(1.3495242 -0.00093680915 0)
(1.3497505 -0.00087450216 0)
(1.3499616 -0.00081637732 0)
(1.3501587 -0.00076214903 0)
(1.3503427 -0.00071155189 0)
(1.3505145 -0.00066433904 0)
(1.3506748 -0.00062028091 0)
(1.3508245 -0.00057916357 0)
(1.3509643 -0.00054078792 0)
(1.3510948 -0.00050496837 0)
(1.3512167 -0.00047153252 0)
(1.3513305 -0.0004403198 0)
(1.3514368 -0.0004111817 0)
(1.3515361 -0.00038397936 0)
(1.3516288 -0.00035858464 0)
(1.3517153 -0.00033487628 0)
(1.3517962 -0.00031274231 0)
(1.3518717 -0.00029207537 0)
(1.3519422 -0.00027277837 0)
(1.3520081 -0.0002547569 0)
(1.3520696 -0.00023792903 0)
(1.3521271 -0.00022221139 0)
(1.3521807 -0.0002075375 0)
(1.3522309 -0.00019383083 0)
(1.3522777 -0.00018103964 0)
(1.3523215 -0.00016908741 0)
(1.3523622 -0.00015793784 0)
(1.3524005 -0.00014750812 0)
(1.3524361 -0.00013778828 0)
(1.3524694 -0.00012867604 0)
(1.3525004 -0.0001202065 0)
(1.3525297 -0.00011224238 0)
(1.3525565 -0.00010488188 0)
(1.3525822 -9.7894691e-05 0)
(1.3526054 -9.1527461e-05 0)
(1.3526282 -8.5396595e-05 0)
(1.352648 -7.9930623e-05 0)
(1.3526683 -7.4429725e-05 0)
(1.3526849 -6.9805229e-05 0)
(1.3527038 -6.4829056e-05 0)
(1.352717 -6.1121892e-05 0)
(1.3527348 -5.6443982e-05 0)
(1.3527446 -5.3744001e-05 0)
(1.3527629 -4.9143384e-05 0)
(1.3527683 -4.7705689e-05 0)
(1.3527888 -4.2960203e-05 0)
(1.0014244 -0.026824855 0)
(1.0291272 -0.062791352 0)
(1.0654292 -0.077736552 0)
(1.098962 -0.0805972 0)
(1.1253149 -0.07828517 0)
(1.145053 -0.073153899 0)
(1.1594858 -0.066111278 0)
(1.1694287 -0.058162063 0)
(1.1755354 -0.050296754 0)
(1.1785738 -0.043150708 0)
(1.1793571 -0.036972825 0)
(1.1785949 -0.031771633 0)
(1.1768304 -0.02745184 0)
(1.1744518 -0.023886768 0)
(1.1717287 -0.02094762 0)
(1.1688444 -0.01851578 0)
(1.1659195 -0.016488084 0)
(1.1630317 -0.014779502 0)
(1.1602295 -0.013322985 0)
(1.1575415 -0.012067133 0)
(1.1549828 -0.010973001 0)
(1.1525601 -0.010011062 0)
(1.1502747 -0.0091587471 0)
(1.1481246 -0.0083986044 0)
(1.1461059 -0.0077169504 0)
(1.1442134 -0.0071028878 0)
(1.1424414 -0.0065475912 0)
(1.1407838 -0.0060437946 0)
(1.1392344 -0.0055854254 0)
(1.1377869 -0.0051673443 0)
(1.1364353 -0.004785157 0)
(1.1351738 -0.0044350765 0)
(1.1339968 -0.0041138173 0)
(1.1328987 -0.0038185133 0)
(1.1318746 -0.0035466532 0)
(1.1309195 -0.0032960271 0)
(1.1300289 -0.0030646829 0)
(1.1291985 -0.00285089 0)
(1.1284242 -0.0026531096 0)
(1.1277022 -0.0024699679 0)
(1.1270291 -0.002300235 0)
(1.1264014 -0.0021428067 0)
(1.1258161 -0.0019966883 0)
(1.1252702 -0.0018609813 0)
(1.1247612 -0.001734872 0)
(1.1242865 -0.0016176217 0)
(1.1238437 -0.001508558 0)
(1.1234307 -0.0014070679 0)
(1.1230455 -0.0013125908 0)
(1.1226861 -0.0012246132 0)
(1.1223509 -0.0011426632 0)
(1.1220381 -0.001066307 0)
(1.1217462 -0.00099514484 0)
(1.1214739 -0.0009288084 0)
(1.1212198 -0.00086695798 0)
(1.1209827 -0.00080928028 0)
(1.1207614 -0.00075548583 0)
(1.1205548 -0.00070530622 0)
(1.1203621 -0.00065849314 0)
(1.1201821 -0.00061481619 0)
(1.1200142 -0.00057406082 0)
(1.1198574 -0.00053602747 0)
(1.1197111 -0.00050053094 0)
(1.1195745 -0.00046739859 0)
(1.1194469 -0.00043646992 0)
(1.1193278 -0.00040759625 0)
(1.1192167 -0.00038064054 0)
(1.1191129 -0.00035547472 0)
(1.119016 -0.00033198058 0)
(1.1189255 -0.00031004658 0)
(1.118841 -0.0002895685 0)
(1.1187621 -0.00027044693 0)
(1.1186884 -0.00025259152 0)
(1.1186197 -0.00023591467 0)
(1.1185554 -0.0002203402 0)
(1.1184954 -0.00020579219 0)
(1.1184394 -0.00019220882 0)
(1.1183871 -0.000179521 0)
(1.1183383 -0.00016767895 0)
(1.1182927 -0.00015661506 0)
(1.11825 -0.00014629222 0)
(1.1182103 -0.00013663913 0)
(1.1181731 -0.000127638 0)
(1.1181384 -0.00011920617 0)
(1.1181059 -0.00011135951 0)
(1.1180758 -0.00010398923 0)
(1.1180473 -9.7156029e-05 0)
(1.1180211 -9.0704794e-05 0)
(1.1179963 -8.4791219e-05 0)
(1.1179734 -7.9137269e-05 0)
(1.1179516 -7.4019737e-05 0)
(1.1179318 -6.8990094e-05 0)
(1.1179128 -6.4647604e-05 0)
(1.1178955 -6.015794e-05 0)
(1.117879 -5.6584953e-05 0)
(1.1178635 -5.2431566e-05 0)
(1.11785 -4.9737101e-05 0)
(1.1178349 -4.5800327e-05 0)
(1.1178261 -4.4313175e-05 0)
(1.1178083 -4.0569724e-05 0)
(1.0016583 -0.05381943 0)
(1.0359761 -0.10128444 0)
(1.0597199 -0.11073663 0)
(1.0628947 -0.10592202 0)
(1.0515569 -0.096228728 0)
(1.0340529 -0.083934061 0)
(1.0142795 -0.070327063 0)
(0.99360703 -0.056981334 0)
(0.97292577 -0.045107479 0)
(0.9531074 -0.03523675 0)
(0.93479538 -0.02740165 0)
(0.91829012 -0.021387228 0)
(0.90362379 -0.0168845 0)
(0.89068067 -0.01356971 0)
(0.87928174 -0.011147749 0)
(0.86923242 -0.0093736586 0)
(0.86034423 -0.0080569275 0)
(0.85244667 -0.0070571267 0)
(0.84539241 -0.006275238 0)
(0.83905793 -0.0056438286 0)
(0.83334126 -0.0051180914 0)
(0.82815884 -0.0046686727 0)
(0.82344212 -0.0042764175 0)
(0.81913467 -0.0039287386 0)
(0.81518961 -0.003617203 0)
(0.81156765 -0.0033359696 0)
(0.80823544 -0.0030808031 0)
(0.8051644 -0.0028484681 0)
(0.80232979 -0.0026363688 0)
(0.79970999 -0.0024423384 0)
(0.79728597 -0.002264519 0)
(0.79504086 -0.0021012903 0)
(0.79295963 -0.0019512257 0)
(0.7910288 -0.0018130632 0)
(0.78923627 -0.0016856834 0)
(0.7875711 -0.0015680922 0)
(0.78602338 -0.0014594053 0)
(0.78458412 -0.0013588353 0)
(0.78324511 -0.00126568 0)
(0.78199889 -0.0011793116 0)
(0.78083861 -0.0010991672 0)
(0.77975799 -0.0010247415 0)
(0.77875128 -0.00095557906 0)
(0.77781318 -0.00089126851 0)
(0.77693881 -0.00083143714 0)
(0.77612368 -0.00077574651 0)
(0.77536362 -0.00072388837 0)
(0.77465481 -0.00067558148 0)
(0.77399368 -0.00063056843 0)
(0.77337694 -0.00058861254 0)
(0.77280153 -0.00054949579 0)
(0.77226464 -0.0005130173 0)
(0.77176363 -0.00047899182 0)
(0.77129606 -0.00044724821 0)
(0.77085967 -0.00041762874 0)
(0.77045234 -0.00038998786 0)
(0.77007212 -0.00036419055 0)
(0.76971717 -0.00034011172 0)
(0.76938581 -0.00031763553 0)
(0.76907645 -0.00029665394 0)
(0.7687876 -0.00027706587 0)
(0.76851791 -0.000258777 0)
(0.7682661 -0.0002416997 0)
(0.76803096 -0.00022575195 0)
(0.76781139 -0.00021085776 0)
(0.76760635 -0.00019694709 0)
(0.76741489 -0.00018395538 0)
(0.76723608 -0.00017182253 0)
(0.7670691 -0.00016049285 0)
(0.76691316 -0.00014991317 0)
(0.76676752 -0.00014003361 0)
(0.7666315 -0.00013080603 0)
(0.76650446 -0.00012218675 0)
(0.76638582 -0.00011413339 0)
(0.76627501 -0.00010660963 0)
(0.76617152 -9.9579719e-05 0)
(0.76607486 -9.301458e-05 0)
(0.76598459 -8.688179e-05 0)
(0.76590026 -8.1157563e-05 0)
(0.76582151 -7.5809361e-05 0)
(0.76574794 -7.0819215e-05 0)
(0.76567924 -6.6152943e-05 0)
(0.76561504 -6.1799879e-05 0)
(0.76555512 -5.77222e-05 0)
(0.76549911 -5.3925261e-05 0)
(0.76544685 -5.0357731e-05 0)
(0.76539796 -4.7043582e-05 0)
(0.7653524 -4.3929741e-05 0)
(0.76530971 -4.1069141e-05 0)
(0.76526996 -3.8332856e-05 0)
(0.7652327 -3.582885e-05 0)
(0.76519805 -3.343339e-05 0)
(0.76516559 -3.1318531e-05 0)
(0.76513517 -2.9204051e-05 0)
(0.76510711 -2.7385627e-05 0)
(0.76507997 -2.5523929e-05 0)
(0.76505665 -2.4063342e-05 0)
(0.76503058 -2.2544816e-05 0)
(0.76501445 -2.1587858e-05 0)
(0.76498347 -2.098544e-05 0)
(0.91890839 -0.035821913 0)
(0.86271384 -0.062195638 0)
(0.7870597 -0.06251009 0)
(0.69536033 -0.054550395 0)
(0.61089745 -0.044531651 0)
(0.54411592 -0.034015972 0)
(0.49343012 -0.02418754 0)
(0.45479413 -0.01614423 0)
(0.42544582 -0.010265785 0)
(0.40347313 -0.006304145 0)
(0.38715766 -0.0037976294 0)
(0.3749622 -0.0023103384 0)
(0.36566192 -0.0014930154 0)
(0.35836272 -0.0010851186 0)
(0.35244268 -0.00090607232 0)
(0.34748201 -0.00084105136 0)
(0.34320348 -0.00082372363 0)
(0.33942726 -0.00081931007 0)
(0.33603793 -0.00081185199 0)
(0.33296114 -0.00079580152 0)
(0.33014778 -0.00077081191 0)
(0.32756384 -0.0007387099 0)
(0.3251842 -0.0007018895 0)
(0.32298902 -0.00066256558 0)
(0.32096172 -0.00062249926 0)
(0.31908785 -0.000582957 0)
(0.31735449 -0.00054477113 0)
(0.31574995 -0.00050843389 0)
(0.3142636 -0.00047419165 0)
(0.31288574 -0.00044212491 0)
(0.31160755 -0.00041220986 0)
(0.31042101 -0.00038436199 0)
(0.30931883 -0.00035846513 0)
(0.30829438 -0.00033439017 0)
(0.30734165 -0.0003120063 0)
(0.30645515 -0.00029118711 0)
(0.30562991 -0.00027181377 0)
(0.30486136 -0.00025377645 0)
(0.30414535 -0.00023697436 0)
(0.30347807 -0.00022131521 0)
(0.30285601 -0.00020671477 0)
(0.30227596 -0.00019309615 0)
(0.30173496 -0.000180389 0)
(0.30123029 -0.00016852888 0)
(0.30075942 -0.00015745671 0)
(0.30032002 -0.00014711813 0)
(0.29990993 -0.00013746302 0)
(0.29952715 -0.0001284452 0)
(0.29916983 -0.00012002178 0)
(0.29883624 -0.00011215266 0)
(0.29852478 -0.00010480051 0)
(0.29823397 -9.7930707e-05 0)
(0.29796241 -9.1511035e-05 0)
(0.29770882 -8.5511609e-05 0)
(0.29747201 -7.9904856e-05 0)
(0.29725084 -7.4665189e-05 0)
(0.29704429 -6.9768615e-05 0)
(0.29685138 -6.5192868e-05 0)
(0.2966712 -6.0917228e-05 0)
(0.29650291 -5.6921978e-05 0)
(0.29634572 -5.3188447e-05 0)
(0.2961989 -4.9699231e-05 0)
(0.29606176 -4.6438086e-05 0)
(0.29593366 -4.3389732e-05 0)
(0.29581401 -4.0540292e-05 0)
(0.29570224 -3.7877177e-05 0)
(0.29559784 -3.5388656e-05 0)
(0.29550032 -3.3063744e-05 0)
(0.29540922 -3.0892107e-05 0)
(0.29532413 -2.8863499e-05 0)
(0.29524464 -2.6968241e-05 0)
(0.29517039 -2.5196994e-05 0)
(0.29510103 -2.3541317e-05 0)
(0.29503624 -2.1993148e-05 0)
(0.29497573 -2.054602e-05 0)
(0.29491919 -1.9193487e-05 0)
(0.29486638 -1.7930363e-05 0)
(0.29481705 -1.6750461e-05 0)
(0.29477097 -1.5649413e-05 0)
(0.29472793 -1.4620457e-05 0)
(0.29468771 -1.366038e-05 0)
(0.29465016 -1.2762016e-05 0)
(0.29461507 -1.1923679e-05 0)
(0.2945823 -1.1137401e-05 0)
(0.29455168 -1.0405358e-05 0)
(0.29452309 -9.7160995e-06 0)
(0.29449637 -9.0770433e-06 0)
(0.29447142 -8.4790136e-06 0)
(0.29444808 -7.9301212e-06 0)
(0.29442632 -7.3961515e-06 0)
(0.29440599 -6.9097554e-06 0)
(0.294387 -6.4602043e-06 0)
(0.2943692 -6.062742e-06 0)
(0.29435259 -5.656522e-06 0)
(0.29433715 -5.2936536e-06 0)
(0.2943225 -4.9715784e-06 0)
(0.29430919 -4.6856817e-06 0)
(0.29429569 -4.5323876e-06 0)
(0.29428502 -4.4003352e-06 0)
(0.29426875 -5.0537809e-06 0)
)
;

boundaryField
{
    top
    {
        type            fixedValue;
        value           uniform (0 0 0);
    }
    inlet
    {
        type            fixedValue;
        value           uniform (1 0 0);
    }
    outlet
    {
        type            zeroGradient;
    }
    bottom
    {
        type            fixedValue;
        value           uniform (0 0 0);
    }
    back
    {
        type            empty;
    }
    front
    {
        type            empty;
    }
}


// ************************************************************************* //
