/*--------------------------------*- C++ -*----------------------------------*\
| =========                 |                                                 |
| \\      /  F ield         | OpenFOAM: The Open Source CFD Toolbox           |
|  \\    /   O peration     | Version:  v1812                                 |
|   \\  /    A nd           | Web:      www.OpenFOAM.com                      |
|    \\/     M anipulation  |                                                 |
\*---------------------------------------------------------------------------*/
FoamFile
{
    version     2.0;
    format      ascii;
    class       surfaceScalarField;
    location    "2.05";
    object      phi;
}
// * * * * * * * * * * * * * * * * * * * * * * * * * * * * * * * * * * * * * //

dimensions      [0 3 -1 0 0 0 0];
oriented        oriented;


internalField   nonuniform List<scalar> 
1890
(
0.0093062053
0.00069379487
0.0082844144
0.0010217911
0.0073300321
0.00095438222
0.0064873777
0.00084265427
0.005770478
0.00071689964
0.0051914834
0.00057899472
0.0047409072
0.00045057625
0.0043992764
0.00034163073
0.0041449106
0.00025436545
0.0039578421
0.00018706819
0.003820967
0.000136875
0.0037203905
0.00010057659
0.0036456635
7.4727087e-05
0.0035894984
5.6165332e-05
0.0035469485
4.255004e-05
0.0035145804
3.2368208e-05
0.0034899649
2.461557e-05
0.0034713708
1.8594106e-05
0.0034575409
1.3829758e-05
0.0034474876
1.0053087e-05
0.0034403707
7.1166917e-06
0.0034354768
4.8937275e-06
0.0034322195
3.2572581e-06
0.0034301314
2.0880851e-06
0.003428852
1.2794758e-06
0.0034281098
7.4224799e-07
0.0034277085
4.0135188e-07
0.003427513
1.9563786e-07
0.0034274358
7.719361e-08
0.0034274154
2.0337528e-08
0.0034274197
-4.2935701e-09
0.003427434
-1.4358164e-08
0.0034274499
-1.5966285e-08
0.0034274634
-1.3539481e-08
0.0034274733
-9.9779031e-09
0.0034274799
-6.6633841e-09
0.0034274839
-4.1054954e-09
0.0034274862
-2.3366367e-09
0.0034274874
-1.2132797e-09
0.003427488
-5.4730194e-10
0.0034274881
-1.8138094e-10
0.0034274881
-1.288744e-11
0.0034274881
5.1413737e-11
0.003427488
7.8427709e-11
0.0034274879
7.7184482e-11
0.0034274879
6.8769346e-11
0.0034274878
5.4682943e-11
0.0034274878
4.5357722e-11
0.0034274877
3.4634004e-11
0.0034274877
2.9692621e-11
0.0034274877
2.2665921e-11
0.0034274877
2.0587348e-11
0.0034274877
1.5733625e-11
0.0034274876
1.514122e-11
0.0034274876
1.1228854e-11
0.0034274876
1.1251483e-11
0.0034274876
8.0433302e-12
0.0034274876
8.3684818e-12
0.0034274876
5.7579474e-12
0.0034274876
5.781231e-12
0.0034274876
4.5436271e-12
0.0034274876
3.1013639e-12
0.0034274876
5.199545e-12
0.0034274876
-1.6337912e-12
0.0034274876
1.0218761e-11
0.0034274876
-1.2391259e-11
0.0034274876
2.6043254e-11
0.0034274876
-3.98132e-11
0.0034274875
6.76815e-11
0.0034274876
-1.0482076e-10
0.0034274875
1.6317483e-10
0.0034274877
-2.4274388e-10
0.0034274874
3.5289742e-10
0.0034274879
-4.9162568e-10
0.0034274872
6.6271148e-10
0.003427488
-8.4353942e-10
0.003427487
1.0237119e-09
0.0034274881
-1.1336832e-09
0.003427487
1.142693e-09
0.0034274879
-9.262637e-10
0.0034274875
4.599594e-10
0.0034274871
3.660982e-10
0.0034274886
-1.4576044e-09
0.0034274858
2.7979148e-09
0.0034274897
-3.9667844e-09
0.0034274849
4.8262783e-09
0.0034274895
-4.5900371e-09
0.0034274859
3.5956446e-09
0.0034274869
-9.6808793e-10
0.003427488
-1.1359661e-09
0.0034274832
4.8171499e-09
0.0034274874
-4.1638077e-09
0.0034274803
7.0948911e-09
0.0034274802
5.1590047e-11
0.0034274727
7.428118e-09
0.0034274654
7.2779436e-09
0.0034274491
1.6254901e-08
0.0034274318
1.7500418e-08
0.0034273995
3.2369576e-08
4.0389857e-08
0.01033954
0.00035425545
0.010570809
0.00079052215
0.010606425
0.00091876546
0.010547797
0.00090128293
0.010422685
0.000842011
0.010245086
0.00075659438
0.010040918
0.00065474361
0.0098315306
0.00055101837
0.0096297304
0.00045616533
0.0094425482
0.00037425008
0.0092737226
0.00030570041
0.0091247219
0.00024957733
0.0089955191
0.00020392994
0.0088853487
0.00016633581
0.0087930643
0.00013483462
0.0087172044
0.00010822817
0.0086560703
8.5749662e-05
0.0086078675
6.6796892e-05
0.0085707642
5.0932821e-05
0.0085429371
3.7880018e-05
0.0085226418
2.741172e-05
0.0085082726
1.9262793e-05
0.0084984186
1.3111119e-05
0.0084918911
8.6155587e-06
0.008487732
5.4386067e-06
0.0084851955
3.2788622e-06
0.008483726
1.8708861e-06
0.0084829278
9.9390356e-07
0.0084825295
4.7554436e-07
0.00848236
1.8980267e-07
0.00848231
4.5649072e-08
0.0084823135
-1.7924143e-08
0.0084823362
-3.8685334e-08
0.0084823616
-3.9085773e-08
0.0084823833
-3.1664454e-08
0.0084823992
-2.2719904e-08
0.00848241
-1.4936059e-08
0.0084824168
-9.1070488e-09
0.0084824207
-5.1435917e-09
0.0084824228
-2.6606229e-09
0.0084824238
-1.2017399e-09
0.0084824242
-4.1684488e-10
0.0084824243
-3.1515186e-11
0.0084824242
1.3002367e-10
0.0084824241
1.7866159e-10
0.008482424
1.7477802e-10
0.0084824239
1.5262947e-10
0.0084824238
1.2642389e-10
0.0084824238
1.0384626e-10
0.0084824237
8.5006854e-11
0.0084824237
7.0944593e-11
0.0084824236
5.949495e-11
0.0084824236
5.1253258e-11
0.0084824236
4.3939675e-11
0.0084824236
3.8451029e-11
0.0084824235
3.2940393e-11
0.0084824235
2.9190694e-11
0.0084824235
2.4532821e-11
0.0084824235
2.2255979e-11
0.0084824235
1.7077258e-11
0.0084824235
1.7937701e-11
0.0084824235
9.4351808e-12
0.0084824234
1.8083208e-11
0.0084824234
-2.3422367e-12
0.0084824234
2.8507801e-11
0.0084824234
-2.7851608e-11
0.0084824234
6.3210577e-11
0.0084824235
-8.8779407e-11
0.0084824234
1.5263434e-10
0.0084824235
-2.2694112e-10
0.0084824233
3.5058201e-10
0.0084824236
-5.064713e-10
0.0084824232
7.232745e-10
0.0084824237
-9.776552e-10
0.0084824231
1.2791847e-09
0.0084824238
-1.5612648e-09
0.008482423
1.7970668e-09
0.0084824237
-1.8324295e-09
0.0084824232
1.6099444e-09
0.0084824232
-8.9399477e-10
0.008482424
-3.1107595e-10
0.0084824222
2.1403874e-09
0.008482425
-4.2281591e-09
0.0084824214
6.4322425e-09
0.0084824252
-7.7647637e-09
0.008482422
8.0134633e-09
0.0084824232
-5.7732536e-09
0.0084824246
2.1869544e-09
0.0084824196
3.9821155e-09
0.0084824263
-7.8487741e-09
0.0084824182
1.2958883e-08
0.008482423
-8.8980809e-09
0.0084824192
1.0886756e-08
0.0084824158
3.3736379e-09
0.0084824157
7.4006865e-09
0.0084824087
1.4282293e-08
0.0084824032
2.1754606e-08
0.008482393
2.7867597e-08
0.0084823808
4.470637e-08
5.1982123e-08
0.010188707
0.00016554914
0.010530491
0.00044873824
0.010851409
0.00059784717
0.011124068
0.00062862335
0.01135039
0.00061568873
0.011524126
0.0005828589
0.01164574
0.00053312925
0.011723422
0.00047333653
0.01176715
0.00041243676
0.011785526
0.00035587445
0.011785603
0.00030562256
0.011773151
0.00026202932
0.01175262
0.00022446111
0.011727312
0.00019164387
0.011699719
0.00016242751
0.011671746
0.0001362014
0.011644813
0.00011268325
0.011619938
9.1671878e-05
0.01159781
7.3060423e-05
0.011578821
5.686848e-05
0.011563086
4.314695e-05
0.011550489
3.1859307e-05
0.011540744
2.285636e-05
0.011533459
1.5900605e-05
0.011528195
1.070268e-05
0.01152452
6.9531417e-06
0.011522045
4.3461389e-06
0.011520438
2.6013132e-06
0.011519434
1.4797792e-06
0.011518833
7.9054993e-07
0.011518491
3.8774317e-07
0.011518307
1.6587061e-07
0.011518215
5.2806503e-08
0.011518175
1.5170025e-09
0.01151816
-1.7195455e-08
0.011518158
-2.0388167e-08
0.01151816
-1.7319721e-08
0.011518164
-1.263187e-08
0.011518167
-8.3260327e-09
0.011518169
-5.0429223e-09
0.011518171
-2.802268e-09
0.011518172
-1.3992897e-09
0.011518172
-5.8543535e-10
0.011518173
-1.5072393e-10
0.011518173
6.1163679e-11
0.011518173
1.4604271e-10
0.011518173
1.6932403e-10
0.011518173
1.6274856e-10
0.011518173
1.4720842e-10
0.011518173
1.2811655e-10
0.011518173
1.118391e-10
0.011518173
9.6501472e-11
0.011518173
8.4981876e-11
0.011518173
7.3766662e-11
0.011518173
6.5567629e-11
0.011518173
5.6825493e-11
0.011518173
5.0977347e-11
0.011518173
4.3315091e-11
0.011518173
3.9606e-11
0.011518173
3.1460992e-11
0.011518173
3.198422e-11
0.011518173
1.9405443e-11
0.011518172
3.0365105e-11
0.011518172
2.3550969e-12
0.011518172
4.2035237e-11
0.011518172
-3.1192359e-11
0.011518172
8.3581482e-11
0.011518172
-1.0676093e-10
0.011518172
1.8980859e-10
0.011518172
-2.7001862e-10
0.011518172
4.1608876e-10
0.011518172
-5.8176513e-10
0.011518172
8.1566485e-10
0.011518172
-1.0628571e-09
0.011518172
1.3422797e-09
0.011518172
-1.5478471e-09
0.011518173
1.6554285e-09
0.011518172
-1.4699757e-09
0.011518173
9.5705311e-10
0.011518172
1.3214757e-10
0.011518173
-1.6844805e-09
0.011518172
3.747604e-09
0.011518173
-5.7415345e-09
0.011518172
7.4221472e-09
0.011518172
-7.5930562e-09
0.011518174
6.232042e-09
0.01151817
-2.0133737e-09
0.011518175
-3.077152e-09
0.01151817
9.5274871e-09
0.011518174
-1.1860002e-08
0.011518173
1.4026654e-08
0.01151817
-6.3813905e-09
0.011518176
5.3460453e-09
0.01151817
8.9041646e-09
0.011518175
2.8501302e-09
0.011518174
1.467335e-08
0.011518175
2.0901157e-08
0.011518181
2.1777944e-08
0.011518188
3.7772097e-08
4.2517164e-08
0.010097171
6.8378401e-05
0.010346929
0.00019897992
0.010662371
0.00028240538
0.010982503
0.00030849149
0.011289743
0.00030844816
0.011574347
0.00029825562
0.01182737
0.00028010654
0.01204513
0.00025557652
0.012229039
0.00022852653
0.012382739
0.00020217456
0.012510338
0.00017802316
0.012615908
0.0001564598
0.012703025
0.00013734422
0.012774515
0.00012015423
0.012832581
0.00010436168
0.012879075
8.9707346e-05
0.01291564
7.611769e-05
0.012943753
6.3559034e-05
0.012964768
5.2045255e-05
0.012979964
4.1672646e-05
0.012990543
3.2567184e-05
0.012997596
2.4807128e-05
0.013002061
1.8391151e-05
0.013004711
1.3250803e-05
0.013006148
9.2650897e-06
0.013006824
6.2776531e-06
0.013007055
4.1145302e-06
0.013007054
2.6029926e-06
0.013006949
1.5842786e-06
0.013006817
9.2332304e-07
0.013006693
5.1149346e-07
0.013006593
2.659734e-07
0.013006519
1.2678844e-07
0.013006468
5.255611e-08
0.013006434
1.6050846e-08
0.013006414
7.6560921e-11
0.013006402
-5.3581298e-09
0.013006395
-6.0421115e-09
0.013006392
-4.9424057e-09
0.01300639
-3.4624892e-09
0.01300639
-2.1714717e-09
0.01300639
-1.224433e-09
0.01300639
-6.0222192e-10
0.01300639
-2.2569994e-10
0.01300639
-1.459097e-11
0.01300639
8.9038472e-11
0.01300639
1.3450397e-10
0.01300639
1.4578091e-10
0.01300639
1.4349979e-10
0.01300639
1.323716e-10
0.01300639
1.2137721e-10
0.01300639
1.0815392e-10
0.01300639
9.7827524e-11
0.01300639
8.6269671e-11
0.01300639
7.805284e-11
0.01300639
6.8357566e-11
0.01300639
6.1893595e-11
0.01300639
5.320166e-11
0.01300639
4.8751597e-11
0.01300639
4.0140927e-11
0.01300639
3.8914674e-11
0.01300639
2.7429198e-11
0.01300639
3.4069723e-11
0.01300639
1.2161525e-11
0.01300639
3.901242e-11
0.01300639
-1.368247e-11
0.01300639
6.4907313e-11
0.01300639
-6.684041e-11
0.01300639
1.3384977e-10
0.01300639
-1.7553092e-10
0.01300639
2.7834643e-10
0.01300639
-3.7233641e-10
0.01300639
5.2170968e-10
0.01300639
-6.5372288e-10
0.01300639
8.0920359e-10
0.013006389
-8.80945e-10
0.01300639
8.8776404e-10
0.013006389
-6.6479436e-10
0.01300639
2.4729584e-10
0.01300639
5.4847928e-10
0.013006389
-1.5494109e-09
0.01300639
2.8160531e-09
0.013006389
-3.8298874e-09
0.013006391
4.5048102e-09
0.013006388
-3.9929359e-09
0.013006392
2.520058e-09
0.013006389
6.4803178e-10
0.01300639
-3.8465383e-09
0.013006392
7.448955e-09
0.013006388
-7.804128e-09
0.013006394
7.7044374e-09
0.013006389
-1.8038601e-09
0.013006394
5.9970115e-10
0.013006396
7.2808362e-09
0.013006397
1.2322818e-09
0.013006404
7.6601338e-09
0.013006412
1.3196506e-08
0.013006423
1.070597e-08
0.01300644
2.0658465e-08
2.3160671e-08
0.010068379
1.9574828e-11
0.010267359
-3.769288e-11
0.010549764
-1.4530528e-10
0.010858256
-2.4020529e-10
0.011166704
-2.474955e-10
0.01146496
-1.6989464e-10
0.011745067
-8.428808e-11
0.012000643
-7.5292951e-11
0.01222917
-1.4170959e-10
0.012431344
-2.1142005e-10
0.012609367
-2.5616781e-10
0.012765828
-2.8458239e-10
0.012903172
-3.3117097e-10
0.013023327
-3.776577e-10
0.01312769
-4.0334016e-10
0.013217397
-3.8629157e-10
0.013293516
-3.4080443e-10
0.013357075
-2.7864519e-10
0.01340912
-2.200464e-10
0.013450793
-1.7118967e-10
0.01348336
-1.4674233e-10
0.013508167
-1.4893331e-10
0.013526559
-1.8436303e-10
0.01353981
-2.3710406e-10
0.013549075
-2.9805136e-10
0.013555353
-3.528229e-10
0.013559468
-3.8400267e-10
0.013562072
-3.8446328e-10
0.013563657
-3.5282903e-10
0.01356458
-2.9484391e-10
0.013565092
-2.1833453e-10
0.013565358
-1.3595212e-10
0.013565485
-5.7918232e-11
0.013565537
8.776893e-12
0.013565553
5.6023117e-11
0.013565553
9.81066e-11
0.013565548
1.2034762e-10
0.013565542
1.3354927e-10
0.013565537
1.3766138e-10
0.013565533
1.4071241e-10
0.013565531
1.3925179e-10
0.013565529
1.4031129e-10
0.013565529
1.3779346e-10
0.013565528
1.3815653e-10
0.013565528
1.3473381e-10
0.013565528
1.3300873e-10
0.013565528
1.2693511e-10
0.013565528
1.2280699e-10
0.013565528
1.1436382e-10
0.013565528
1.0854894e-10
0.013565528
9.9101979e-11
0.013565528
9.2631722e-11
0.013565528
8.2915928e-11
0.013565528
7.6777566e-11
0.013565528
6.7870168e-11
0.013565528
6.2523189e-11
0.013565528
5.435434e-11
0.013565528
4.9920811e-11
0.013565528
4.2852968e-11
0.013565528
3.9296476e-11
0.013565528
3.2956014e-11
0.013565528
3.0243164e-11
0.013565528
2.4947963e-11
0.013565528
2.3067837e-11
0.013565528
1.8574302e-11
0.013565528
1.7342601e-11
0.013565528
1.3604445e-11
0.013565528
1.3178127e-11
0.013565528
1.001081e-11
0.013565528
1.0302411e-11
0.013565528
7.9979088e-12
0.013565528
9.0277834e-12
0.013565529
7.360956e-12
0.013565528
9.1882843e-12
0.013565529
8.5115381e-12
0.013565528
1.1208185e-11
0.013565529
1.1325908e-11
0.013565528
1.4969895e-11
0.013565528
1.6011233e-11
0.013565529
2.0350123e-11
0.013565527
2.1845576e-11
0.01356553
2.7592895e-11
0.013565526
2.9969512e-11
0.013565531
3.685323e-11
0.013565527
3.9223115e-11
0.013565529
4.5179989e-11
0.01356553
4.6368036e-11
0.013565526
4.6214344e-11
0.013565533
4.3516929e-11
0.013565525
4.2743803e-11
0.013565533
3.9006265e-11
0.013565531
4.0496326e-11
0.013565532
4.7432684e-11
0.013565539
6.0252387e-11
0.01356554
6.2019132e-11
0.013565548
5.6366358e-11
0.013565561
5.4753139e-11
0.013565572
5.350928e-11
0.013565592
6.7867498e-11
5.4958545e-11
0.010068379
-6.8378371e-05
0.010267359
-0.00019898002
0.010549764
-0.00028240569
0.010858256
-0.00030849195
0.011166704
-0.0003084486
0.01146496
-0.0002982559
0.011745067
-0.0002801067
0.012000643
-0.00025557669
0.01222917
-0.00022852681
0.012431344
-0.00020217496
0.012609367
-0.00017802364
0.012765828
-0.00015646036
0.012903172
-0.00013734487
0.013023327
-0.00012015497
0.013127689
-0.00010436246
0.013217397
-8.9708094e-05
0.013293515
-7.6118344e-05
0.013357075
-6.3559568e-05
0.01340912
-5.2045666e-05
0.013450793
-4.1672966e-05
0.01348336
-3.2567445e-05
0.013508167
-2.4807399e-05
0.013526559
-1.8391493e-05
0.01353981
-1.3251248e-05
0.013549075
-9.2656528e-06
0.013555353
-6.2783182e-06
0.013559468
-4.1152504e-06
0.013562071
-2.6037036e-06
0.013563656
-1.5849245e-06
0.01356458
-9.2385143e-07
0.013565091
-5.1187424e-07
0.013565357
-2.6619727e-07
0.013565484
-1.2686704e-07
0.013565537
-5.2512805e-08
0.013565553
-1.5937856e-08
0.013565553
1.2311146e-10
0.013565547
5.5903615e-09
0.013565541
6.2927468e-09
0.013565536
5.1971271e-09
0.013565532
3.7195092e-09
0.01356553
2.4252018e-09
0.013565529
1.4783439e-09
0.013565528
8.5072373e-10
0.013565528
4.7295468e-10
0.013565528
2.5784693e-10
0.013565528
1.4946537e-10
0.013565528
9.3946577e-11
0.013565528
7.3504384e-11
0.013565528
6.1578548e-11
0.013565528
6.0634675e-11
0.013565528
5.5739079e-11
0.013565528
5.5649424e-11
0.013565528
4.9915999e-11
0.013565528
4.8920965e-11
0.013565528
4.2510931e-11
0.013565528
4.1105948e-11
0.013565528
3.4511036e-11
0.013565528
3.3818479e-11
0.013565528
2.7102079e-11
0.013565528
2.786175e-11
0.013565528
1.9430122e-11
0.013565528
2.4619112e-11
0.013565528
1.0099026e-11
0.013565528
2.7035101e-11
0.013565528
-5.9226037e-12
0.013565528
4.3084373e-11
0.013565528
-4.064691e-11
0.013565528
8.8987067e-11
0.013565528
-1.1575989e-10
0.013565528
1.9295358e-10
0.013565528
-2.6366164e-10
0.013565528
3.8774818e-10
0.013565529
-5.0778675e-10
0.013565528
6.6999004e-10
0.013565529
-7.9283315e-10
0.013565528
9.0133013e-10
0.013565529
-8.6580394e-10
0.013565528
6.9270283e-10
0.013565528
-2.1609998e-10
0.013565529
-5.1104849e-10
0.013565527
1.5897043e-09
0.01356553
-2.7641684e-09
0.013565526
3.8869283e-09
0.013565531
-4.4370756e-09
0.013565527
4.066495e-09
0.013565529
-2.4377548e-09
0.01356553
-5.5962216e-10
0.013565526
3.9286921e-09
0.013565533
-7.3690536e-09
0.013565525
7.8837057e-09
0.013565533
-7.6331362e-09
0.013565531
1.8808763e-09
0.013565532
-5.0741598e-10
0.013565539
-7.1702143e-09
0.01356554
-1.1141024e-09
0.013565548
-7.5520672e-09
0.013565561
-1.3093173e-08
0.013565572
-1.059985e-08
0.013565592
-2.0544296e-08
-2.306635e-08
0.010097171
-0.00016554919
0.010346929
-0.00044873839
0.010662371
-0.00059784742
0.010982503
-0.0006286237
0.011289743
-0.00061568907
0.011574347
-0.00058285913
0.01182737
-0.00053312937
0.012045129
-0.00047333665
0.012229039
-0.00041243698
0.012382739
-0.00035587479
0.012510338
-0.00030562297
0.012615908
-0.0002620298
0.012703024
-0.00022446165
0.012774514
-0.00019164447
0.01283258
-0.00016242814
0.012879074
-0.000136202
0.01291564
-0.00011268378
0.012943752
-9.1672295e-05
0.012964767
-7.3060727e-05
0.012979963
-5.6868708e-05
0.012990543
-4.314713e-05
0.012997595
-3.1859517e-05
0.01300206
-2.2856628e-05
0.01300471
-1.5900975e-05
0.013006147
-1.0703155e-05
0.013006823
-6.9536895e-06
0.013007054
-4.3467153e-06
0.013007053
-2.6018686e-06
0.013006948
-1.4802631e-06
0.013006815
-7.9092256e-07
0.013006691
-3.8798701e-07
0.013006591
-1.6598902e-07
0.013006517
-5.2813241e-08
0.013006466
-1.4400021e-09
0.013006433
1.7329985e-08
0.013006412
2.0561725e-08
0.0130064
1.7512455e-08
0.013006394
1.2827328e-08
0.01300639
8.5206159e-09
0.013006389
5.2293947e-09
0.013006388
2.988593e-09
0.013006388
1.5808884e-09
0.013006388
7.6560745e-10
0.013006389
3.2391556e-10
0.013006389
1.1317607e-10
0.013006389
1.9771621e-11
0.013006389
-7.2595547e-12
0.013006389
-1.2001754e-11
0.013006389
-3.1021728e-12
0.013006389
2.8580849e-12
0.013006389
1.1936509e-11
0.013006389
1.2673649e-11
0.013006389
1.7565776e-11
0.01300639
1.512363e-11
0.01300639
1.7524972e-11
0.01300639
1.3825307e-11
0.01300639
1.5304753e-11
0.01300639
1.2022387e-11
0.01300639
1.2345387e-11
0.01300639
1.0696394e-11
0.01300639
8.0396691e-12
0.01300639
1.2240015e-11
0.01300639
-6.5667816e-14
0.01300639
2.0733733e-11
0.01300639
-1.901782e-11
0.01300639
4.777221e-11
0.01300639
-6.5936609e-11
0.01300639
1.1829608e-10
0.01300639
-1.7556573e-10
0.01300639
2.7898693e-10
0.01300639
-4.0360488e-10
0.01300639
5.8989526e-10
0.01300639
-8.0268764e-10
0.01300639
1.0727142e-09
0.01300639
-1.3265319e-09
0.013006389
1.5614249e-09
0.01300639
-1.6344415e-09
0.013006389
1.4899982e-09
0.01300639
-9.2837029e-10
0.01300639
-1.0237226e-10
0.01300639
1.7140836e-09
0.01300639
-3.7084751e-09
0.013006389
5.7911704e-09
0.013006392
-7.3724167e-09
0.013006388
7.6528054e-09
0.013006392
-6.1695495e-09
0.013006389
2.0870486e-09
0.01300639
3.1194918e-09
0.013006392
-9.4566102e-09
0.013006388
1.1919835e-08
0.013006394
-1.3968373e-08
0.01300639
6.4379323e-09
0.013006394
-5.2661919e-09
0.013006396
-8.8226945e-09
0.013006398
-2.7444565e-09
0.013006404
-1.4587906e-08
0.013006412
-2.0827212e-08
0.013006423
-2.170908e-08
0.013006441
-3.7691554e-08
-4.2449212e-08
0.010188707
-0.00035425546
0.01053049
-0.0007905222
0.010851409
-0.0009187656
0.011124068
-0.00090128315
0.01135039
-0.0008420112
0.011524126
-0.00075659451
0.01164574
-0.0006547437
0.011723422
-0.00055101847
0.01176715
-0.00045616549
0.011785525
-0.00037425029
0.011785603
-0.00030570065
0.011773151
-0.00024957758
0.011752619
-0.0002039302
0.011727311
-0.00016633609
0.011699718
-0.00013483493
0.011671745
-0.0001082285
0.011644811
-8.5749969e-05
0.011619936
-6.6797155e-05
0.011597809
-5.0933017e-05
0.01157882
-3.788016e-05
0.011563085
-2.7411841e-05
0.011550488
-1.9262928e-05
0.011540742
-1.3111285e-05
0.011533457
-8.6157795e-06
0.011528193
-5.4389028e-06
0.011524519
-3.2791794e-06
0.011522043
-1.8712158e-06
0.011520436
-9.9421334e-07
0.011519432
-4.7580832e-07
0.011518831
-1.8999115e-07
0.011518489
-4.5759344e-08
0.011518305
1.7882301e-08
0.011518213
3.8703811e-08
0.011518173
3.9144214e-08
0.011518158
3.1749568e-08
0.011518156
2.2821479e-08
0.011518158
1.5041128e-08
0.011518162
9.2120883e-09
0.011518165
5.2466074e-09
0.011518168
2.7521684e-09
0.011518169
1.2966465e-09
0.011518171
5.106777e-10
0.011518171
1.232731e-10
0.011518172
-4.3859066e-11
0.011518172
-9.1840647e-11
0.011518172
-9.2922251e-11
0.011518172
-7.2770771e-11
0.011518172
-5.3030354e-11
0.011518172
-3.3798612e-11
0.011518172
-2.2226557e-11
0.011518172
-1.2206643e-11
0.011518172
-7.9930413e-12
0.011518172
-3.3250659e-12
0.011518172
-2.5680156e-12
0.011518172
-4.6908173e-13
0.011518172
-5.3013376e-13
0.011518172
8.134808e-13
0.011518172
4.4307554e-13
0.011518172
7.9205735e-13
0.011518172
1.4901873e-12
0.011518172
-4.3312118e-13
0.011518172
4.1549399e-12
0.011518172
-5.1202277e-12
0.011518172
1.2016887e-11
0.011518172
-1.8617236e-11
0.011518172
3.4555852e-11
0.011518172
-5.5731251e-11
0.011518172
9.3553427e-11
0.011518172
-1.4615714e-10
0.011518172
2.3117854e-10
0.011518172
-3.4440652e-10
0.011518173
5.1116635e-10
0.011518172
-7.1572893e-10
0.011518173
9.8423484e-10
0.011518172
-1.269498e-09
0.011518172
1.5705689e-09
0.011518173
-1.7840249e-09
0.011518172
1.8453191e-09
0.011518173
-1.5934219e-09
0.011518172
9.1041668e-10
0.011518173
3.3139087e-10
0.011518172
-2.117379e-09
0.011518173
4.2562787e-09
0.011518172
-6.4022424e-09
0.011518172
7.7988118e-09
0.011518174
-7.9781072e-09
0.01151817
5.8111522e-09
0.011518175
-2.1565298e-09
0.01151817
-3.9446062e-09
0.011518174
7.8821311e-09
0.011518173
-1.2923957e-08
0.01151817
8.9370426e-09
0.011518176
-1.0834128e-08
0.01151817
-3.3257065e-09
0.011518175
-7.3571551e-09
0.011518174
-1.4248541e-08
0.011518175
-2.1715078e-08
0.011518182
-2.7816909e-08
0.011518189
-4.464448e-08
-5.1929243e-08
0.01033954
-0.00069379478
0.010570809
-0.001021791
0.010606425
-0.00095438221
0.010547797
-0.00084265433
0.010422685
-0.00071689973
0.010245086
-0.00057899485
0.010040918
-0.0004505764
0.0098315306
-0.00034163086
0.0096297302
-0.00025436554
0.0094425478
-0.00018706826
0.009273722
-0.00013687504
0.0091247209
-0.00010057659
0.0089955179
-7.4727039e-05
0.0088853474
-5.6165297e-05
0.008793063
-4.2550057e-05
0.0087172031
-3.2368295e-05
0.0086560692
-2.4615703e-05
0.0086078664
-1.8594249e-05
0.0085707632
-1.3829896e-05
0.0085429361
-1.0053195e-05
0.0085226408
-7.1167838e-06
0.0085082715
-4.8937903e-06
0.0084984174
-3.2573102e-06
0.0084918898
-2.0881295e-06
0.0084877305
-1.2795253e-06
0.0084851937
-7.4230119e-07
0.0084837241
-4.0141472e-07
0.0084829257
-1.9569798e-07
0.0084825273
-7.7280977e-08
0.0084823578
-2.0383475e-08
0.0084823079
4.2598293e-09
0.0084823115
1.433115e-08
0.0084823342
1.594913e-08
0.0084823598
1.35356e-08
0.0084823816
9.9800903e-09
0.0084823977
6.6762304e-09
0.0084824086
4.1190741e-09
0.0084824155
2.3561799e-09
0.0084824195
1.2317051e-09
0.0084824217
5.7092233e-10
0.0084824228
2.0131905e-10
0.0084824233
3.5917298e-11
0.0084824234
-3.1461977e-11
0.0084824235
-5.4572022e-11
0.0084824234
-5.7595873e-11
0.0084824234
-4.53037e-11
0.0084824234
-3.7141575e-11
0.0084824234
-2.4036832e-11
0.0084824234
-1.9894231e-11
0.0084824234
-1.1465534e-11
0.0084824234
-1.0887244e-11
0.0084824234
-5.4781794e-12
0.0084824234
-6.8254169e-12
0.0084824234
-2.8951205e-12
0.0084824234
-4.7720264e-12
0.0084824234
-1.3723431e-12
0.0084824234
-3.5787912e-12
0.0084824234
-5.403478e-13
0.0084824234
-2.9690943e-12
0.0084824234
5.5505382e-13
0.0084824234
-3.1934027e-12
0.0084824234
2.0318069e-12
0.0084824234
-4.9489259e-12
0.0084824234
5.9448837e-12
0.0084824234
-1.0846851e-11
0.0084824234
1.6230055e-11
0.0084824234
-2.7278089e-11
0.0084824235
4.373403e-11
0.0084824234
-6.8974591e-11
0.0084824235
1.091087e-10
0.0084824233
-1.6389476e-10
0.0084824236
2.4785145e-10
0.0084824232
-3.5284747e-10
0.0084824237
4.9751191e-10
0.0084824231
-6.6195497e-10
0.0084824238
8.4989011e-10
0.0084824231
-1.0228998e-09
0.0084824238
1.1399032e-09
0.0084824233
-1.1416913e-09
0.0084824233
9.3351796e-10
0.0084824241
-4.5689414e-10
0.0084824223
-3.5607781e-10
0.0084824251
1.4653915e-09
0.0084824215
-2.7840957e-09
0.0084824253
3.9749902e-09
0.0084824222
-4.8136111e-09
0.0084824233
4.5954091e-09
0.0084824248
-3.5845179e-09
0.0084824198
9.7876707e-10
0.0084824266
1.1567201e-09
0.0084824185
-4.7940401e-09
0.0084824233
4.1842658e-09
0.0084824195
-7.0976827e-09
0.0084824161
-6.1183202e-11
0.0084824161
-7.4456027e-09
0.008482409
-7.2705322e-09
0.0084824036
-1.6215968e-08
0.0084823934
-1.7453844e-08
0.0084823812
-3.2315435e-08
-4.035515e-08
0.0093062054
0.0082844145
0.0073300323
0.006487378
0.0057704784
0.0051914836
0.0047409071
0.004399276
0.0041449102
0.0039578418
0.0038209667
0.0037203901
0.0036456632
0.0035894982
0.0035469483
0.0035145802
0.0034899646
0.0034713704
0.0034575404
0.0034474871
0.0034403702
0.0034354763
0.0034322189
0.0034301308
0.0034288513
0.0034281091
0.0034277078
0.0034275122
0.003427435
0.0034274146
0.0034274189
0.0034274332
0.0034274492
0.0034274627
0.0034274727
0.0034274793
0.0034274834
0.0034274858
0.003427487
0.0034274876
0.0034274878
0.0034274878
0.0034274878
0.0034274878
0.0034274877
0.0034274877
0.0034274877
0.0034274876
0.0034274876
0.0034274876
0.0034274876
0.0034274876
0.0034274876
0.0034274876
0.0034274876
0.0034274876
0.0034274876
0.0034274876
0.0034274876
0.0034274876
0.0034274876
0.0034274876
0.0034274876
0.0034274876
0.0034274876
0.0034274876
0.0034274876
0.0034274876
0.0034274875
0.0034274876
0.0034274875
0.0034274877
0.0034274874
0.0034274879
0.0034274872
0.0034274881
0.003427487
0.0034274882
0.003427487
0.003427488
0.0034274875
0.0034274872
0.0034274886
0.0034274858
0.0034274898
0.003427485
0.0034274896
0.003427486
0.003427487
0.0034274881
0.0034274834
0.0034274876
0.0034274804
0.0034274803
0.0034274728
0.0034274655
0.0034274494
0.003427432
0.0034273997
)
;

boundaryField
{
    top
    {
        type            calculated;
        value           uniform 0;
    }
    inlet
    {
        type            calculated;
        value           nonuniform List<scalar> 10(-0.01 -0.01 -0.01 -0.01 -0.01 -0.01 -0.01 -0.01 -0.01 -0.01);
    }
    outlet
    {
        type            calculated;
        value           nonuniform List<scalar> 10(0.0034273592 0.0084823692 0.011518198 0.01300646 0.013565615 0.013565615 0.01300646 0.011518198 0.0084823696 0.0034273594);
    }
    bottom
    {
        type            calculated;
        value           uniform 0;
    }
    back
    {
        type            empty;
        value           nonuniform 0();
    }
    front
    {
        type            empty;
        value           nonuniform 0();
    }
}


// ************************************************************************* //
