# Field minima and maxima
# Time          	field           	min             	location(min)   	max             	location(max)   
0.05            	U               	(-5.39653786e-03 -2.00917603e-03 0.00000000e+00)	(5.00000000e-02 -4.50000000e-01 5.00000000e-02)	(-5.39653786e-03 -2.00917603e-03 0.00000000e+00)	(5.00000000e-02 -4.50000000e-01 5.00000000e-02)
0.05            	p               	0.00000000e+00	(1.00000000e+01 -4.50000000e-01 5.00000000e-02)	1.69927048e+00	(2.50000000e-01 -5.00000000e-02 5.00000000e-02)
0.1             	U               	(1.56910514e-03 -2.57038500e-03 0.00000000e+00)	(5.00000000e-02 -4.50000000e-01 5.00000000e-02)	(1.56910514e-03 -2.57038500e-03 0.00000000e+00)	(5.00000000e-02 -4.50000000e-01 5.00000000e-02)
0.1             	p               	0.00000000e+00	(1.00000000e+01 -4.50000000e-01 5.00000000e-02)	1.52300000e+00	(0.00000000e+00 -4.50000000e-01 5.00000000e-02)
0.15            	U               	(8.49985770e-03 -2.36153406e-03 0.00000000e+00)	(5.00000000e-02 -4.50000000e-01 5.00000000e-02)	(8.49985770e-03 -2.36153406e-03 0.00000000e+00)	(5.00000000e-02 -4.50000000e-01 5.00000000e-02)
0.15            	p               	0.00000000e+00	(1.00000000e+01 -4.50000000e-01 5.00000000e-02)	1.52300000e+00	(0.00000000e+00 -4.50000000e-01 5.00000000e-02)
0.2             	U               	(1.52285785e-02 -2.06259867e-03 0.00000000e+00)	(5.00000000e-02 -4.50000000e-01 5.00000000e-02)	(1.52285785e-02 -2.06259867e-03 0.00000000e+00)	(5.00000000e-02 -4.50000000e-01 5.00000000e-02)
0.2             	p               	0.00000000e+00	(1.00000000e+01 -4.50000000e-01 5.00000000e-02)	1.52300000e+00	(0.00000000e+00 -4.50000000e-01 5.00000000e-02)
0.25            	U               	(2.14404764e-02 -1.75335888e-03 0.00000000e+00)	(5.00000000e-02 -4.50000000e-01 5.00000000e-02)	(2.14404764e-02 -1.75335888e-03 0.00000000e+00)	(5.00000000e-02 -4.50000000e-01 5.00000000e-02)
0.25            	p               	0.00000000e+00	(1.00000000e+01 -4.50000000e-01 5.00000000e-02)	1.52300000e+00	(0.00000000e+00 -4.50000000e-01 5.00000000e-02)
0.3             	U               	(2.71901508e-02 -1.46889199e-03 0.00000000e+00)	(5.00000000e-02 -4.50000000e-01 5.00000000e-02)	(2.71901508e-02 -1.46889199e-03 0.00000000e+00)	(5.00000000e-02 -4.50000000e-01 5.00000000e-02)
0.3             	p               	0.00000000e+00	(1.00000000e+01 -4.50000000e-01 5.00000000e-02)	1.52300000e+00	(0.00000000e+00 -4.50000000e-01 5.00000000e-02)
0.35            	U               	(3.25162724e-02 -1.21708606e-03 0.00000000e+00)	(5.00000000e-02 -4.50000000e-01 5.00000000e-02)	(3.25162724e-02 -1.21708606e-03 0.00000000e+00)	(5.00000000e-02 -4.50000000e-01 5.00000000e-02)
0.35            	p               	0.00000000e+00	(1.00000000e+01 -4.50000000e-01 5.00000000e-02)	1.52300000e+00	(0.00000000e+00 -4.50000000e-01 5.00000000e-02)
0.4             	U               	(3.74648341e-02 -9.97944983e-04 0.00000000e+00)	(5.00000000e-02 -4.50000000e-01 5.00000000e-02)	(3.74648341e-02 -9.97944983e-04 0.00000000e+00)	(5.00000000e-02 -4.50000000e-01 5.00000000e-02)
0.4             	p               	0.00000000e+00	(1.00000000e+01 -4.50000000e-01 5.00000000e-02)	1.52300000e+00	(0.00000000e+00 -4.50000000e-01 5.00000000e-02)
0.45            	U               	(4.20808615e-02 -8.08790742e-04 0.00000000e+00)	(5.00000000e-02 -4.50000000e-01 5.00000000e-02)	(4.20808615e-02 -8.08790742e-04 0.00000000e+00)	(5.00000000e-02 -4.50000000e-01 5.00000000e-02)
0.45            	p               	0.00000000e+00	(1.00000000e+01 -4.50000000e-01 5.00000000e-02)	1.52300000e+00	(0.00000000e+00 -4.50000000e-01 5.00000000e-02)
0.5             	U               	(4.64039142e-02 -6.46075869e-04 0.00000000e+00)	(5.00000000e-02 -4.50000000e-01 5.00000000e-02)	(4.64039142e-02 -6.46075869e-04 0.00000000e+00)	(5.00000000e-02 -4.50000000e-01 5.00000000e-02)
0.5             	p               	0.00000000e+00	(1.00000000e+01 -4.50000000e-01 5.00000000e-02)	1.52300000e+00	(0.00000000e+00 -4.50000000e-01 5.00000000e-02)
0.55            	U               	(5.04676241e-02 -5.06431139e-04 0.00000000e+00)	(5.00000000e-02 -4.50000000e-01 5.00000000e-02)	(5.04676241e-02 -5.06431139e-04 0.00000000e+00)	(5.00000000e-02 -4.50000000e-01 5.00000000e-02)
0.55            	p               	0.00000000e+00	(1.00000000e+01 -4.50000000e-01 5.00000000e-02)	1.52300000e+00	(0.00000000e+00 -4.50000000e-01 5.00000000e-02)
0.6             	U               	(5.43010688e-02 -3.86163566e-04 0.00000000e+00)	(5.00000000e-02 -4.50000000e-01 5.00000000e-02)	(5.43010688e-02 -3.86163566e-04 0.00000000e+00)	(5.00000000e-02 -4.50000000e-01 5.00000000e-02)
0.6             	p               	0.00000000e+00	(1.00000000e+01 -4.50000000e-01 5.00000000e-02)	1.52300000e+00	(0.00000000e+00 -4.50000000e-01 5.00000000e-02)
0.65            	U               	(5.79293832e-02 -2.81643958e-04 0.00000000e+00)	(5.00000000e-02 -4.50000000e-01 5.00000000e-02)	(5.79293832e-02 -2.81643958e-04 0.00000000e+00)	(5.00000000e-02 -4.50000000e-01 5.00000000e-02)
0.65            	p               	0.00000000e+00	(1.00000000e+01 -4.50000000e-01 5.00000000e-02)	1.52300000e+00	(0.00000000e+00 -4.50000000e-01 5.00000000e-02)
0.7             	U               	(6.13739525e-02 -1.89615115e-04 0.00000000e+00)	(5.00000000e-02 -4.50000000e-01 5.00000000e-02)	(6.13739525e-02 -1.89615115e-04 0.00000000e+00)	(5.00000000e-02 -4.50000000e-01 5.00000000e-02)
0.7             	p               	0.00000000e+00	(1.00000000e+01 -4.50000000e-01 5.00000000e-02)	1.52300000e+00	(0.00000000e+00 -4.50000000e-01 5.00000000e-02)
0.75            	U               	(6.46527076e-02 -1.06908460e-04 0.00000000e+00)	(5.00000000e-02 -4.50000000e-01 5.00000000e-02)	(6.46527076e-02 -1.06908460e-04 0.00000000e+00)	(5.00000000e-02 -4.50000000e-01 5.00000000e-02)
0.75            	p               	0.00000000e+00	(1.00000000e+01 -4.50000000e-01 5.00000000e-02)	1.52300000e+00	(0.00000000e+00 -4.50000000e-01 5.00000000e-02)
0.8             	U               	(6.77795560e-02 -2.89000991e-05 0.00000000e+00)	(5.00000000e-02 -4.50000000e-01 5.00000000e-02)	(6.77795560e-02 -2.89000991e-05 0.00000000e+00)	(5.00000000e-02 -4.50000000e-01 5.00000000e-02)
0.8             	p               	0.00000000e+00	(1.00000000e+01 -4.50000000e-01 5.00000000e-02)	1.52300000e+00	(0.00000000e+00 -4.50000000e-01 5.00000000e-02)
0.85            	U               	(7.07745818e-02 3.73713359e-05 0.00000000e+00)	(5.00000000e-02 -4.50000000e-01 5.00000000e-02)	(7.07745818e-02 3.73713359e-05 0.00000000e+00)	(5.00000000e-02 -4.50000000e-01 5.00000000e-02)
0.85            	p               	0.00000000e+00	(1.00000000e+01 -4.50000000e-01 5.00000000e-02)	1.52300000e+00	(0.00000000e+00 -4.50000000e-01 5.00000000e-02)
0.9             	U               	(7.36521021e-02 9.26685419e-05 0.00000000e+00)	(5.00000000e-02 -4.50000000e-01 5.00000000e-02)	(7.36521021e-02 9.26685419e-05 0.00000000e+00)	(5.00000000e-02 -4.50000000e-01 5.00000000e-02)
0.9             	p               	0.00000000e+00	(1.00000000e+01 -4.50000000e-01 5.00000000e-02)	1.52300000e+00	(0.00000000e+00 -4.50000000e-01 5.00000000e-02)
0.95            	U               	(7.64271959e-02 1.37815128e-04 0.00000000e+00)	(5.00000000e-02 -4.50000000e-01 5.00000000e-02)	(7.64271959e-02 1.37815128e-04 0.00000000e+00)	(5.00000000e-02 -4.50000000e-01 5.00000000e-02)
0.95            	p               	0.00000000e+00	(1.00000000e+01 -4.50000000e-01 5.00000000e-02)	1.52300000e+00	(0.00000000e+00 -4.50000000e-01 5.00000000e-02)
1               	U               	(7.91126717e-02 1.74950917e-04 0.00000000e+00)	(5.00000000e-02 -4.50000000e-01 5.00000000e-02)	(7.91126717e-02 1.74950917e-04 0.00000000e+00)	(5.00000000e-02 -4.50000000e-01 5.00000000e-02)
1               	p               	0.00000000e+00	(1.00000000e+01 -4.50000000e-01 5.00000000e-02)	1.52300000e+00	(0.00000000e+00 -4.50000000e-01 5.00000000e-02)
1.05            	U               	(8.17064224e-02 2.07383279e-04 0.00000000e+00)	(5.00000000e-02 -4.50000000e-01 5.00000000e-02)	(8.17064224e-02 2.07383279e-04 0.00000000e+00)	(5.00000000e-02 -4.50000000e-01 5.00000000e-02)
1.05            	p               	0.00000000e+00	(1.00000000e+01 -4.50000000e-01 5.00000000e-02)	1.52300000e+00	(0.00000000e+00 -4.50000000e-01 5.00000000e-02)
1.1             	U               	(8.42207980e-02 2.35743835e-04 0.00000000e+00)	(5.00000000e-02 -4.50000000e-01 5.00000000e-02)	(8.42207980e-02 2.35743835e-04 0.00000000e+00)	(5.00000000e-02 -4.50000000e-01 5.00000000e-02)
1.1             	p               	0.00000000e+00	(1.00000000e+01 -4.50000000e-01 5.00000000e-02)	1.52300000e+00	(0.00000000e+00 -4.50000000e-01 5.00000000e-02)
1.15            	U               	(8.66579803e-02 2.60653937e-04 0.00000000e+00)	(5.00000000e-02 -4.50000000e-01 5.00000000e-02)	(8.66579803e-02 2.60653937e-04 0.00000000e+00)	(5.00000000e-02 -4.50000000e-01 5.00000000e-02)
1.15            	p               	0.00000000e+00	(1.00000000e+01 -4.50000000e-01 5.00000000e-02)	1.52300000e+00	(0.00000000e+00 -4.50000000e-01 5.00000000e-02)
1.2             	U               	(8.90258315e-02 2.82786011e-04 0.00000000e+00)	(5.00000000e-02 -4.50000000e-01 5.00000000e-02)	(8.90258315e-02 2.82786011e-04 0.00000000e+00)	(5.00000000e-02 -4.50000000e-01 5.00000000e-02)
1.2             	p               	0.00000000e+00	(1.00000000e+01 -4.50000000e-01 5.00000000e-02)	1.52300000e+00	(0.00000000e+00 -4.50000000e-01 5.00000000e-02)
1.25            	U               	(9.13316087e-02 3.02409215e-04 0.00000000e+00)	(5.00000000e-02 -4.50000000e-01 5.00000000e-02)	(9.13316087e-02 3.02409215e-04 0.00000000e+00)	(5.00000000e-02 -4.50000000e-01 5.00000000e-02)
1.25            	p               	0.00000000e+00	(1.00000000e+01 -4.50000000e-01 5.00000000e-02)	1.52300000e+00	(0.00000000e+00 -4.50000000e-01 5.00000000e-02)
1.3             	U               	(9.35750296e-02 3.19873269e-04 0.00000000e+00)	(5.00000000e-02 -4.50000000e-01 5.00000000e-02)	(9.35750296e-02 3.19873269e-04 0.00000000e+00)	(5.00000000e-02 -4.50000000e-01 5.00000000e-02)
1.3             	p               	0.00000000e+00	(1.00000000e+01 -4.50000000e-01 5.00000000e-02)	1.52300000e+00	(0.00000000e+00 -4.50000000e-01 5.00000000e-02)
1.35            	U               	(9.57630926e-02 3.35448355e-04 0.00000000e+00)	(5.00000000e-02 -4.50000000e-01 5.00000000e-02)	(9.57630926e-02 3.35448355e-04 0.00000000e+00)	(5.00000000e-02 -4.50000000e-01 5.00000000e-02)
1.35            	p               	0.00000000e+00	(1.00000000e+01 -4.50000000e-01 5.00000000e-02)	1.52300000e+00	(0.00000000e+00 -4.50000000e-01 5.00000000e-02)
1.4             	U               	(9.79023015e-02 3.49304103e-04 0.00000000e+00)	(5.00000000e-02 -4.50000000e-01 5.00000000e-02)	(9.79023015e-02 3.49304103e-04 0.00000000e+00)	(5.00000000e-02 -4.50000000e-01 5.00000000e-02)
1.4             	p               	0.00000000e+00	(1.00000000e+01 -4.50000000e-01 5.00000000e-02)	1.52300000e+00	(0.00000000e+00 -4.50000000e-01 5.00000000e-02)
1.45            	U               	(9.99908490e-02 3.61657875e-04 0.00000000e+00)	(5.00000000e-02 -4.50000000e-01 5.00000000e-02)	(9.99908490e-02 3.61657875e-04 0.00000000e+00)	(5.00000000e-02 -4.50000000e-01 5.00000000e-02)
1.45            	p               	0.00000000e+00	(1.00000000e+01 -4.50000000e-01 5.00000000e-02)	1.52300000e+00	(0.00000000e+00 -4.50000000e-01 5.00000000e-02)
1.5             	U               	(1.02034717e-01 3.72701670e-04 0.00000000e+00)	(5.00000000e-02 -4.50000000e-01 5.00000000e-02)	(1.02034717e-01 3.72701670e-04 0.00000000e+00)	(5.00000000e-02 -4.50000000e-01 5.00000000e-02)
1.5             	p               	0.00000000e+00	(1.00000000e+01 -4.50000000e-01 5.00000000e-02)	1.52300000e+00	(0.00000000e+00 -4.50000000e-01 5.00000000e-02)
1.55            	U               	(1.04038798e-01 3.82536876e-04 0.00000000e+00)	(5.00000000e-02 -4.50000000e-01 5.00000000e-02)	(1.04038798e-01 3.82536876e-04 0.00000000e+00)	(5.00000000e-02 -4.50000000e-01 5.00000000e-02)
1.55            	p               	0.00000000e+00	(1.00000000e+01 -4.50000000e-01 5.00000000e-02)	1.52300000e+00	(0.00000000e+00 -4.50000000e-01 5.00000000e-02)
1.6             	U               	(1.06000813e-01 3.91309115e-04 0.00000000e+00)	(5.00000000e-02 -4.50000000e-01 5.00000000e-02)	(1.06000813e-01 3.91309115e-04 0.00000000e+00)	(5.00000000e-02 -4.50000000e-01 5.00000000e-02)
1.6             	p               	0.00000000e+00	(1.00000000e+01 -4.50000000e-01 5.00000000e-02)	1.52300000e+00	(0.00000000e+00 -4.50000000e-01 5.00000000e-02)
1.65            	U               	(1.07925926e-01 3.99159083e-04 0.00000000e+00)	(5.00000000e-02 -4.50000000e-01 5.00000000e-02)	(1.07925926e-01 3.99159083e-04 0.00000000e+00)	(5.00000000e-02 -4.50000000e-01 5.00000000e-02)
1.65            	p               	0.00000000e+00	(1.00000000e+01 -4.50000000e-01 5.00000000e-02)	1.52300000e+00	(0.00000000e+00 -4.50000000e-01 5.00000000e-02)
1.7             	U               	(1.09818084e-01 4.06136825e-04 0.00000000e+00)	(5.00000000e-02 -4.50000000e-01 5.00000000e-02)	(1.09818084e-01 4.06136825e-04 0.00000000e+00)	(5.00000000e-02 -4.50000000e-01 5.00000000e-02)
1.7             	p               	0.00000000e+00	(1.00000000e+01 -4.50000000e-01 5.00000000e-02)	1.52300000e+00	(0.00000000e+00 -4.50000000e-01 5.00000000e-02)
1.75            	U               	(1.11674562e-01 4.12351510e-04 0.00000000e+00)	(5.00000000e-02 -4.50000000e-01 5.00000000e-02)	(1.11674562e-01 4.12351510e-04 0.00000000e+00)	(5.00000000e-02 -4.50000000e-01 5.00000000e-02)
1.75            	p               	0.00000000e+00	(1.00000000e+01 -4.50000000e-01 5.00000000e-02)	1.52300000e+00	(0.00000000e+00 -4.50000000e-01 5.00000000e-02)
1.8             	U               	(1.13500008e-01 4.17909557e-04 0.00000000e+00)	(5.00000000e-02 -4.50000000e-01 5.00000000e-02)	(1.13500008e-01 4.17909557e-04 0.00000000e+00)	(5.00000000e-02 -4.50000000e-01 5.00000000e-02)
1.8             	p               	0.00000000e+00	(1.00000000e+01 -4.50000000e-01 5.00000000e-02)	1.52300000e+00	(0.00000000e+00 -4.50000000e-01 5.00000000e-02)
1.85            	U               	(1.15297595e-01 4.22825967e-04 0.00000000e+00)	(5.00000000e-02 -4.50000000e-01 5.00000000e-02)	(1.15297595e-01 4.22825967e-04 0.00000000e+00)	(5.00000000e-02 -4.50000000e-01 5.00000000e-02)
1.85            	p               	0.00000000e+00	(1.00000000e+01 -4.50000000e-01 5.00000000e-02)	1.52300000e+00	(0.00000000e+00 -4.50000000e-01 5.00000000e-02)
1.9             	U               	(1.17064378e-01 4.27186822e-04 0.00000000e+00)	(5.00000000e-02 -4.50000000e-01 5.00000000e-02)	(1.17064378e-01 4.27186822e-04 0.00000000e+00)	(5.00000000e-02 -4.50000000e-01 5.00000000e-02)
1.9             	p               	0.00000000e+00	(1.00000000e+01 -4.50000000e-01 5.00000000e-02)	1.52300000e+00	(0.00000000e+00 -4.50000000e-01 5.00000000e-02)
1.95            	U               	(1.18804634e-01 4.31077161e-04 0.00000000e+00)	(5.00000000e-02 -4.50000000e-01 5.00000000e-02)	(1.18804634e-01 4.31077161e-04 0.00000000e+00)	(5.00000000e-02 -4.50000000e-01 5.00000000e-02)
1.95            	p               	0.00000000e+00	(1.00000000e+01 -4.50000000e-01 5.00000000e-02)	1.52300000e+00	(0.00000000e+00 -4.50000000e-01 5.00000000e-02)
2               	U               	(1.20520903e-01 4.34487341e-04 0.00000000e+00)	(5.00000000e-02 -4.50000000e-01 5.00000000e-02)	(1.20520903e-01 4.34487341e-04 0.00000000e+00)	(5.00000000e-02 -4.50000000e-01 5.00000000e-02)
2               	p               	0.00000000e+00	(1.00000000e+01 -4.50000000e-01 5.00000000e-02)	1.52300000e+00	(0.00000000e+00 -4.50000000e-01 5.00000000e-02)
2.05            	U               	(1.22210173e-01 4.37488088e-04 0.00000000e+00)	(5.00000000e-02 -4.50000000e-01 5.00000000e-02)	(1.22210173e-01 4.37488088e-04 0.00000000e+00)	(5.00000000e-02 -4.50000000e-01 5.00000000e-02)
2.05            	p               	0.00000000e+00	(1.00000000e+01 -4.50000000e-01 5.00000000e-02)	1.52300000e+00	(0.00000000e+00 -4.50000000e-01 5.00000000e-02)
2.1             	U               	(1.23876449e-01 4.40150868e-04 0.00000000e+00)	(5.00000000e-02 -4.50000000e-01 5.00000000e-02)	(1.23876449e-01 4.40150868e-04 0.00000000e+00)	(5.00000000e-02 -4.50000000e-01 5.00000000e-02)
2.1             	p               	0.00000000e+00	(1.00000000e+01 -4.50000000e-01 5.00000000e-02)	1.52300000e+00	(0.00000000e+00 -4.50000000e-01 5.00000000e-02)
2.15            	U               	(1.25520692e-01 4.42469681e-04 0.00000000e+00)	(5.00000000e-02 -4.50000000e-01 5.00000000e-02)	(1.25520692e-01 4.42469681e-04 0.00000000e+00)	(5.00000000e-02 -4.50000000e-01 5.00000000e-02)
2.15            	p               	0.00000000e+00	(1.00000000e+01 -4.50000000e-01 5.00000000e-02)	1.52300000e+00	(0.00000000e+00 -4.50000000e-01 5.00000000e-02)
2.2             	U               	(1.27142907e-01 4.44467383e-04 0.00000000e+00)	(5.00000000e-02 -4.50000000e-01 5.00000000e-02)	(1.27142907e-01 4.44467383e-04 0.00000000e+00)	(5.00000000e-02 -4.50000000e-01 5.00000000e-02)
2.2             	p               	0.00000000e+00	(1.00000000e+01 -4.50000000e-01 5.00000000e-02)	1.52300000e+00	(0.00000000e+00 -4.50000000e-01 5.00000000e-02)
2.25            	U               	(1.28744252e-01 4.46192201e-04 0.00000000e+00)	(5.00000000e-02 -4.50000000e-01 5.00000000e-02)	(1.28744252e-01 4.46192201e-04 0.00000000e+00)	(5.00000000e-02 -4.50000000e-01 5.00000000e-02)
2.25            	p               	0.00000000e+00	(1.00000000e+01 -4.50000000e-01 5.00000000e-02)	1.52300000e+00	(0.00000000e+00 -4.50000000e-01 5.00000000e-02)
2.3             	U               	(1.30325562e-01 4.47669757e-04 0.00000000e+00)	(5.00000000e-02 -4.50000000e-01 5.00000000e-02)	(1.30325562e-01 4.47669757e-04 0.00000000e+00)	(5.00000000e-02 -4.50000000e-01 5.00000000e-02)
2.3             	p               	0.00000000e+00	(1.00000000e+01 -4.50000000e-01 5.00000000e-02)	1.52300000e+00	(0.00000000e+00 -4.50000000e-01 5.00000000e-02)
2.35            	U               	(1.31887498e-01 4.48919996e-04 0.00000000e+00)	(5.00000000e-02 -4.50000000e-01 5.00000000e-02)	(1.31887498e-01 4.48919996e-04 0.00000000e+00)	(5.00000000e-02 -4.50000000e-01 5.00000000e-02)
2.35            	p               	0.00000000e+00	(1.00000000e+01 -4.50000000e-01 5.00000000e-02)	1.52300000e+00	(0.00000000e+00 -4.50000000e-01 5.00000000e-02)
2.4             	U               	(1.33430745e-01 4.49963814e-04 0.00000000e+00)	(5.00000000e-02 -4.50000000e-01 5.00000000e-02)	(1.33430745e-01 4.49963814e-04 0.00000000e+00)	(5.00000000e-02 -4.50000000e-01 5.00000000e-02)
2.4             	p               	0.00000000e+00	(1.00000000e+01 -4.50000000e-01 5.00000000e-02)	1.52300000e+00	(0.00000000e+00 -4.50000000e-01 5.00000000e-02)
2.45            	U               	(1.34955946e-01 4.50819853e-04 0.00000000e+00)	(5.00000000e-02 -4.50000000e-01 5.00000000e-02)	(1.34955946e-01 4.50819853e-04 0.00000000e+00)	(5.00000000e-02 -4.50000000e-01 5.00000000e-02)
2.45            	p               	0.00000000e+00	(1.00000000e+01 -4.50000000e-01 5.00000000e-02)	1.52300000e+00	(0.00000000e+00 -4.50000000e-01 5.00000000e-02)
2.5             	U               	(1.36463698e-01 4.51504901e-04 0.00000000e+00)	(5.00000000e-02 -4.50000000e-01 5.00000000e-02)	(1.36463698e-01 4.51504901e-04 0.00000000e+00)	(5.00000000e-02 -4.50000000e-01 5.00000000e-02)
2.5             	p               	0.00000000e+00	(1.00000000e+01 -4.50000000e-01 5.00000000e-02)	1.52300000e+00	(0.00000000e+00 -4.50000000e-01 5.00000000e-02)
2.55            	U               	(1.37954565e-01 4.52034361e-04 0.00000000e+00)	(5.00000000e-02 -4.50000000e-01 5.00000000e-02)	(1.37954565e-01 4.52034361e-04 0.00000000e+00)	(5.00000000e-02 -4.50000000e-01 5.00000000e-02)
2.55            	p               	0.00000000e+00	(1.00000000e+01 -4.50000000e-01 5.00000000e-02)	1.52300000e+00	(0.00000000e+00 -4.50000000e-01 5.00000000e-02)
2.6             	U               	(1.39429074e-01 4.52422163e-04 0.00000000e+00)	(5.00000000e-02 -4.50000000e-01 5.00000000e-02)	(1.39429074e-01 4.52422163e-04 0.00000000e+00)	(5.00000000e-02 -4.50000000e-01 5.00000000e-02)
2.6             	p               	0.00000000e+00	(1.00000000e+01 -4.50000000e-01 5.00000000e-02)	1.52300000e+00	(0.00000000e+00 -4.50000000e-01 5.00000000e-02)
2.65            	U               	(1.40887724e-01 4.52680899e-04 0.00000000e+00)	(5.00000000e-02 -4.50000000e-01 5.00000000e-02)	(1.40887724e-01 4.52680899e-04 0.00000000e+00)	(5.00000000e-02 -4.50000000e-01 5.00000000e-02)
2.65            	p               	0.00000000e+00	(1.00000000e+01 -4.50000000e-01 5.00000000e-02)	1.52300000e+00	(0.00000000e+00 -4.50000000e-01 5.00000000e-02)
2.7             	U               	(1.42330983e-01 4.52821958e-04 0.00000000e+00)	(5.00000000e-02 -4.50000000e-01 5.00000000e-02)	(1.42330983e-01 4.52821958e-04 0.00000000e+00)	(5.00000000e-02 -4.50000000e-01 5.00000000e-02)
2.7             	p               	0.00000000e+00	(1.00000000e+01 -4.50000000e-01 5.00000000e-02)	1.52300000e+00	(0.00000000e+00 -4.50000000e-01 5.00000000e-02)
2.75            	U               	(1.43759294e-01 4.52855652e-04 0.00000000e+00)	(5.00000000e-02 -4.50000000e-01 5.00000000e-02)	(1.43759294e-01 4.52855652e-04 0.00000000e+00)	(5.00000000e-02 -4.50000000e-01 5.00000000e-02)
2.75            	p               	0.00000000e+00	(1.00000000e+01 -4.50000000e-01 5.00000000e-02)	1.52300000e+00	(0.00000000e+00 -4.50000000e-01 5.00000000e-02)
2.8             	U               	(1.45173074e-01 4.52791284e-04 0.00000000e+00)	(5.00000000e-02 -4.50000000e-01 5.00000000e-02)	(1.45173074e-01 4.52791284e-04 0.00000000e+00)	(5.00000000e-02 -4.50000000e-01 5.00000000e-02)
2.8             	p               	0.00000000e+00	(1.00000000e+01 -4.50000000e-01 5.00000000e-02)	1.52300000e+00	(0.00000000e+00 -4.50000000e-01 5.00000000e-02)
2.85            	U               	(1.46572720e-01 4.52637258e-04 0.00000000e+00)	(5.00000000e-02 -4.50000000e-01 5.00000000e-02)	(1.46572720e-01 4.52637258e-04 0.00000000e+00)	(5.00000000e-02 -4.50000000e-01 5.00000000e-02)
2.85            	p               	0.00000000e+00	(1.00000000e+01 -4.50000000e-01 5.00000000e-02)	1.52300000e+00	(0.00000000e+00 -4.50000000e-01 5.00000000e-02)
2.9             	U               	(1.47958607e-01 4.52401144e-04 0.00000000e+00)	(5.00000000e-02 -4.50000000e-01 5.00000000e-02)	(1.47958607e-01 4.52401144e-04 0.00000000e+00)	(5.00000000e-02 -4.50000000e-01 5.00000000e-02)
2.9             	p               	0.00000000e+00	(1.00000000e+01 -4.50000000e-01 5.00000000e-02)	1.52300000e+00	(0.00000000e+00 -4.50000000e-01 5.00000000e-02)
2.95            	U               	(1.49331091e-01 4.52089764e-04 0.00000000e+00)	(5.00000000e-02 -4.50000000e-01 5.00000000e-02)	(1.49331091e-01 4.52089764e-04 0.00000000e+00)	(5.00000000e-02 -4.50000000e-01 5.00000000e-02)
2.95            	p               	0.00000000e+00	(1.00000000e+01 -4.50000000e-01 5.00000000e-02)	1.52300000e+00	(0.00000000e+00 -4.50000000e-01 5.00000000e-02)
3               	U               	(1.50690510e-01 4.51709261e-04 0.00000000e+00)	(5.00000000e-02 -4.50000000e-01 5.00000000e-02)	(1.50690510e-01 4.51709261e-04 0.00000000e+00)	(5.00000000e-02 -4.50000000e-01 5.00000000e-02)
3               	p               	0.00000000e+00	(1.00000000e+01 -4.50000000e-01 5.00000000e-02)	1.52300000e+00	(0.00000000e+00 -4.50000000e-01 5.00000000e-02)
3.05            	U               	(1.52037186e-01 4.51265161e-04 0.00000000e+00)	(5.00000000e-02 -4.50000000e-01 5.00000000e-02)	(1.52037186e-01 4.51265161e-04 0.00000000e+00)	(5.00000000e-02 -4.50000000e-01 5.00000000e-02)
3.05            	p               	0.00000000e+00	(1.00000000e+01 -4.50000000e-01 5.00000000e-02)	1.52300000e+00	(0.00000000e+00 -4.50000000e-01 5.00000000e-02)
3.1             	U               	(1.53371425e-01 4.50762429e-04 0.00000000e+00)	(5.00000000e-02 -4.50000000e-01 5.00000000e-02)	(1.53371425e-01 4.50762429e-04 0.00000000e+00)	(5.00000000e-02 -4.50000000e-01 5.00000000e-02)
3.1             	p               	0.00000000e+00	(1.00000000e+01 -4.50000000e-01 5.00000000e-02)	1.52300000e+00	(0.00000000e+00 -4.50000000e-01 5.00000000e-02)
3.15            	U               	(1.54693518e-01 4.50205549e-04 0.00000000e+00)	(5.00000000e-02 -4.50000000e-01 5.00000000e-02)	(1.54693518e-01 4.50205549e-04 0.00000000e+00)	(5.00000000e-02 -4.50000000e-01 5.00000000e-02)
3.15            	p               	0.00000000e+00	(1.00000000e+01 -4.50000000e-01 5.00000000e-02)	1.52300000e+00	(0.00000000e+00 -4.50000000e-01 5.00000000e-02)
3.2             	U               	(1.56003743e-01 4.49598525e-04 0.00000000e+00)	(5.00000000e-02 -4.50000000e-01 5.00000000e-02)	(1.56003743e-01 4.49598525e-04 0.00000000e+00)	(5.00000000e-02 -4.50000000e-01 5.00000000e-02)
3.2             	p               	0.00000000e+00	(1.00000000e+01 -4.50000000e-01 5.00000000e-02)	1.52300000e+00	(0.00000000e+00 -4.50000000e-01 5.00000000e-02)
3.25            	U               	(1.57302367e-01 4.48944936e-04 0.00000000e+00)	(5.00000000e-02 -4.50000000e-01 5.00000000e-02)	(1.57302367e-01 4.48944936e-04 0.00000000e+00)	(5.00000000e-02 -4.50000000e-01 5.00000000e-02)
3.25            	p               	0.00000000e+00	(1.00000000e+01 -4.50000000e-01 5.00000000e-02)	1.52300000e+00	(0.00000000e+00 -4.50000000e-01 5.00000000e-02)
3.3             	U               	(1.58589641e-01 4.48248009e-04 0.00000000e+00)	(5.00000000e-02 -4.50000000e-01 5.00000000e-02)	(1.58589641e-01 4.48248009e-04 0.00000000e+00)	(5.00000000e-02 -4.50000000e-01 5.00000000e-02)
3.3             	p               	0.00000000e+00	(1.00000000e+01 -4.50000000e-01 5.00000000e-02)	1.52300000e+00	(0.00000000e+00 -4.50000000e-01 5.00000000e-02)
3.35            	U               	(1.59865809e-01 4.47510669e-04 0.00000000e+00)	(5.00000000e-02 -4.50000000e-01 5.00000000e-02)	(1.59865809e-01 4.47510669e-04 0.00000000e+00)	(5.00000000e-02 -4.50000000e-01 5.00000000e-02)
3.35            	p               	0.00000000e+00	(1.00000000e+01 -4.50000000e-01 5.00000000e-02)	1.52300000e+00	(0.00000000e+00 -4.50000000e-01 5.00000000e-02)
3.4             	U               	(1.61131103e-01 4.46735542e-04 0.00000000e+00)	(5.00000000e-02 -4.50000000e-01 5.00000000e-02)	(1.61131103e-01 4.46735542e-04 0.00000000e+00)	(5.00000000e-02 -4.50000000e-01 5.00000000e-02)
3.4             	p               	0.00000000e+00	(1.00000000e+01 -4.50000000e-01 5.00000000e-02)	1.52300000e+00	(0.00000000e+00 -4.50000000e-01 5.00000000e-02)
3.45            	U               	(1.62385744e-01 4.45925010e-04 0.00000000e+00)	(5.00000000e-02 -4.50000000e-01 5.00000000e-02)	(1.62385744e-01 4.45925010e-04 0.00000000e+00)	(5.00000000e-02 -4.50000000e-01 5.00000000e-02)
3.45            	p               	0.00000000e+00	(1.00000000e+01 -4.50000000e-01 5.00000000e-02)	1.52300000e+00	(0.00000000e+00 -4.50000000e-01 5.00000000e-02)
3.5             	U               	(1.63629946e-01 4.45081255e-04 0.00000000e+00)	(5.00000000e-02 -4.50000000e-01 5.00000000e-02)	(1.63629946e-01 4.45081255e-04 0.00000000e+00)	(5.00000000e-02 -4.50000000e-01 5.00000000e-02)
3.5             	p               	0.00000000e+00	(1.00000000e+01 -4.50000000e-01 5.00000000e-02)	1.52300000e+00	(0.00000000e+00 -4.50000000e-01 5.00000000e-02)
3.55            	U               	(1.64863911e-01 4.44206212e-04 0.00000000e+00)	(5.00000000e-02 -4.50000000e-01 5.00000000e-02)	(1.64863911e-01 4.44206212e-04 0.00000000e+00)	(5.00000000e-02 -4.50000000e-01 5.00000000e-02)
3.55            	p               	0.00000000e+00	(1.00000000e+01 -4.50000000e-01 5.00000000e-02)	1.52300000e+00	(0.00000000e+00 -4.50000000e-01 5.00000000e-02)
3.6             	U               	(1.66087836e-01 4.43301719e-04 0.00000000e+00)	(5.00000000e-02 -4.50000000e-01 5.00000000e-02)	(1.66087836e-01 4.43301719e-04 0.00000000e+00)	(5.00000000e-02 -4.50000000e-01 5.00000000e-02)
3.6             	p               	0.00000000e+00	(1.00000000e+01 -4.50000000e-01 5.00000000e-02)	1.52300000e+00	(0.00000000e+00 -4.50000000e-01 5.00000000e-02)
3.65            	U               	(1.67301910e-01 4.42369426e-04 0.00000000e+00)	(5.00000000e-02 -4.50000000e-01 5.00000000e-02)	(1.67301910e-01 4.42369426e-04 0.00000000e+00)	(5.00000000e-02 -4.50000000e-01 5.00000000e-02)
3.65            	p               	0.00000000e+00	(1.00000000e+01 -4.50000000e-01 5.00000000e-02)	1.52300000e+00	(0.00000000e+00 -4.50000000e-01 5.00000000e-02)
3.7             	U               	(1.68506312e-01 4.41410842e-04 0.00000000e+00)	(5.00000000e-02 -4.50000000e-01 5.00000000e-02)	(1.68506312e-01 4.41410842e-04 0.00000000e+00)	(5.00000000e-02 -4.50000000e-01 5.00000000e-02)
3.7             	p               	0.00000000e+00	(1.00000000e+01 -4.50000000e-01 5.00000000e-02)	1.52300000e+00	(0.00000000e+00 -4.50000000e-01 5.00000000e-02)
3.75            	U               	(1.69701215e-01 4.40427352e-04 0.00000000e+00)	(5.00000000e-02 -4.50000000e-01 5.00000000e-02)	(1.69701215e-01 4.40427352e-04 0.00000000e+00)	(5.00000000e-02 -4.50000000e-01 5.00000000e-02)
3.75            	p               	0.00000000e+00	(1.00000000e+01 -4.50000000e-01 5.00000000e-02)	1.52300000e+00	(0.00000000e+00 -4.50000000e-01 5.00000000e-02)
3.8             	U               	(1.70886788e-01 4.39420300e-04 0.00000000e+00)	(5.00000000e-02 -4.50000000e-01 5.00000000e-02)	(1.70886788e-01 4.39420300e-04 0.00000000e+00)	(5.00000000e-02 -4.50000000e-01 5.00000000e-02)
3.8             	p               	0.00000000e+00	(1.00000000e+01 -4.50000000e-01 5.00000000e-02)	1.52300000e+00	(0.00000000e+00 -4.50000000e-01 5.00000000e-02)
3.85            	U               	(1.72063189e-01 4.38390859e-04 0.00000000e+00)	(5.00000000e-02 -4.50000000e-01 5.00000000e-02)	(1.72063189e-01 4.38390859e-04 0.00000000e+00)	(5.00000000e-02 -4.50000000e-01 5.00000000e-02)
3.85            	p               	0.00000000e+00	(1.00000000e+01 -4.50000000e-01 5.00000000e-02)	1.52300000e+00	(0.00000000e+00 -4.50000000e-01 5.00000000e-02)
3.9             	U               	(1.73230575e-01 4.37340200e-04 0.00000000e+00)	(5.00000000e-02 -4.50000000e-01 5.00000000e-02)	(1.73230575e-01 4.37340200e-04 0.00000000e+00)	(5.00000000e-02 -4.50000000e-01 5.00000000e-02)