/*--------------------------------*- C++ -*----------------------------------*\
| =========                 |                                                 |
| \\      /  F ield         | OpenFOAM: The Open Source CFD Toolbox           |
|  \\    /   O peration     | Version:  v1812                                 |
|   \\  /    A nd           | Web:      www.OpenFOAM.com                      |
|    \\/     M anipulation  |                                                 |
\*---------------------------------------------------------------------------*/
FoamFile
{
    version     2.0;
    format      ascii;
    class       volScalarField;
    location    "6.75";
    object      p;
}
// * * * * * * * * * * * * * * * * * * * * * * * * * * * * * * * * * * * * * //

dimensions      [0 2 -2 0 0 0 0];


internalField   nonuniform List<scalar> 
1000
(
1.6754836
1.5544057
1.4584253
1.3947692
1.3462597
1.3037876
1.2662524
1.2340806
1.2066803
1.1828427
1.1614484
1.1416845
1.1230074
1.1050678
1.0876525
1.0706383
1.0539575
1.0375733
1.0214651
1.0056192
0.99002419
0.97466908
0.95954238
0.94463215
0.92992615
0.91541216
0.9010782
0.8869127
0.87290464
0.85904364
0.84531992
0.83172436
0.81824846
0.80488429
0.79162446
0.77846212
0.76539085
0.7524047
0.73949811
0.7266659
0.71390326
0.70120569
0.688569
0.67598929
0.66346294
0.65098658
0.63855706
0.62617146
0.61382709
0.60152143
0.58925216
0.57701711
0.56481428
0.5526418
0.54049792
0.52838102
0.51628955
0.50422203
0.49217708
0.48015334
0.46814951
0.45616431
0.4441965
0.43224487
0.42030821
0.40838536
0.39647517
0.38457653
0.37268836
0.36080962
0.34893931
0.3370765
0.3252203
0.31336989
0.30152452
0.28968349
0.27784618
0.266012
0.25418045
0.24235108
0.23052351
0.21869741
0.20687251
0.19504861
0.18322549
0.17140302
0.15958104
0.14775943
0.13593808
0.12411692
0.1122959
0.100475
0.088654203
0.076833504
0.065012886
0.053192324
0.041371791
0.029551269
0.01773074
0.0059102258
1.558264
1.5033349
1.4423824
1.3908147
1.3475446
1.3085763
1.2729901
1.2412175
1.2132565
1.1884787
1.1660768
1.1453755
1.1258938
1.1073058
1.0893922
1.0720074
1.0550556
1.0384742
1.0222215
1.006268
0.990591
0.97517147
0.95999262
0.94503896
0.93029591
0.91574969
0.90138729
0.88719642
0.87316558
0.859284
0.84554163
0.83192911
0.81843776
0.80505946
0.79178672
0.77861253
0.76553038
0.75253422
0.73961841
0.72677769
0.71400718
0.70130231
0.68865886
0.67607286
0.66354065
0.65105882
0.63862417
0.62623377
0.61388488
0.60157496
0.58930166
0.57706279
0.56485634
0.55268041
0.54053326
0.52841324
0.5163188
0.50424848
0.49220087
0.48017463
0.46816844
0.45618105
0.4442112
0.43225769
0.42031931
0.40839489
0.3964833
0.3845834
0.37269411
0.36081439
0.34894324
0.33707969
0.32522287
0.31337194
0.30152614
0.28968475
0.27784715
0.26601273
0.254181
0.24235149
0.23052381
0.21869763
0.20687267
0.19504871
0.18322556
0.17140306
0.15958106
0.14775944
0.13593809
0.12411693
0.11229591
0.10047501
0.088654203
0.076833497
0.065012873
0.05319231
0.041371777
0.029551255
0.017730719
0.0059102074
1.4974427
1.4712676
1.4328708
1.3917379
1.3526526
1.3160618
1.2817641
1.2500466
1.2211905
1.1950894
1.1713354
1.1494454
1.1289956
1.1096547
1.0911746
1.0733735
1.0561217
1.0393261
1.02292
1.0068549
0.99109451
0.97561082
0.96038095
0.94538545
0.93060719
0.9160307
0.90164188
0.88742771
0.87337617
0.8594761
0.84571718
0.83208979
0.81858505
0.80519469
0.79191103
0.77872696
0.76563585
0.75263154
0.73970831
0.72686082
0.71408411
0.70137357
0.6887249
0.67613411
0.66359747
0.65111155
0.63867312
0.62627921
0.61392705
0.60161409
0.58933794
0.5770964
0.56488743
0.55270913
0.54055974
0.5284376
0.51634115
0.50426891
0.49221949
0.48019153
0.46818371
0.45619478
0.44422348
0.43226861
0.42032897
0.40840338
0.39649071
0.38458982
0.37269964
0.36081912
0.34894724
0.33708306
0.32522568
0.31337426
0.30152804
0.28968629
0.27784838
0.26601372
0.25418178
0.24235211
0.23052429
0.218698
0.20687295
0.19504892
0.18322571
0.17140316
0.15958113
0.14775949
0.13593813
0.12411697
0.11229595
0.10047503
0.088654217
0.076833498
0.06501286
0.053192289
0.04137175
0.029551224
0.017730683
0.0059101816
1.4680342
1.4525361
1.4256662
1.3917423
1.3559413
1.32099
1.287688
1.256335
1.2272043
1.2004128
1.1758253
1.1531331
1.1319813
1.1120525
1.0930943
1.0749146
1.0573689
1.0403479
1.0237692
1.0075712
0.99170725
0.9761415
0.96084554
0.94579586
0.93097243
0.9163577
0.90193607
0.88769344
0.87361699
0.85969498
0.8459166
0.8322719
0.81875167
0.80534741
0.79205126
0.77885591
0.76575459
0.75274103
0.73980938
0.72695423
0.71417054
0.70145361
0.68879909
0.67620294
0.6636614
0.65117096
0.63872838
0.62633065
0.61397498
0.60165878
0.58937963
0.57713532
0.56492378
0.55274309
0.54059145
0.5284672
0.51636877
0.50429465
0.49224343
0.48021376
0.4682043
0.45621379
0.44424098
0.43228465
0.4203436
0.40841667
0.39650272
0.38460061
0.37270928
0.36082767
0.34895478
0.33708967
0.32523142
0.31337922
0.30153228
0.2896899
0.27785142
0.26601627
0.2541839
0.24235385
0.23052572
0.21869916
0.20687388
0.19504966
0.18322629
0.17140361
0.15958148
0.14775976
0.13593834
0.12411714
0.11229608
0.10047513
0.088654288
0.076833541
0.06501288
0.053192291
0.041371738
0.029551202
0.017730655
0.0059101628
1.4553026
1.4433493
1.4211149
1.3908273
1.3569662
1.3229706
1.290273
1.2592675
1.2301701
1.2031582
1.1782312
1.1551816
1.1337001
1.1134824
1.0942788
1.0758966
1.0581877
1.0410373
1.0243564
1.0080773
0.99214829
0.97652973
0.96119021
0.94610405
0.93124959
0.91660811
0.90216314
0.88789995
0.87380527
0.85986697
0.846074
0.83241617
0.81888409
0.80546912
0.79216326
0.77895909
0.76584975
0.75282889
0.73989058
0.72702934
0.71424007
0.70151805
0.68885886
0.67625843
0.66371295
0.65121891
0.63877302
0.62637226
0.6140138
0.60169503
0.58941352
0.57716704
0.56495349
0.55277094
0.54061758
0.52849172
0.51639176
0.50431621
0.49226363
0.48023264
0.46822193
0.4562302
0.44425622
0.43229874
0.42035659
0.40842858
0.39651358
0.38461047
0.37271817
0.36083564
0.34896188
0.33709594
0.32523693
0.31338402
0.30153643
0.28969346
0.27785446
0.26601883
0.25418605
0.24235564
0.23052719
0.21870036
0.20687486
0.19505044
0.1832269
0.1714041
0.15958186
0.14776006
0.13593857
0.12411732
0.11229622
0.10047524
0.088654364
0.076833592
0.065012909
0.053192304
0.041371739
0.029551194
0.017730641
0.0059101539
1.4553026
1.4433493
1.4211149
1.3908273
1.3569662
1.3229706
1.290273
1.2592675
1.2301701
1.2031582
1.1782312
1.1551816
1.1337001
1.1134824
1.0942788
1.0758966
1.0581877
1.0410373
1.0243564
1.0080773
0.99214829
0.97652973
0.96119021
0.94610405
0.93124959
0.91660811
0.90216314
0.88789995
0.87380527
0.85986697
0.846074
0.83241617
0.81888409
0.80546912
0.79216326
0.77895909
0.76584975
0.75282889
0.73989058
0.72702934
0.71424008
0.70151805
0.68885887
0.67625843
0.66371296
0.65121891
0.63877303
0.62637226
0.6140138
0.60169503
0.58941353
0.57716705
0.5649535
0.55277095
0.54061759
0.52849172
0.51639177
0.50431621
0.49226363
0.48023264
0.46822193
0.4562302
0.44425621
0.43229874
0.42035658
0.40842858
0.39651358
0.38461047
0.37271817
0.36083564
0.34896188
0.33709594
0.32523693
0.31338401
0.30153643
0.28969346
0.27785445
0.26601883
0.25418605
0.24235564
0.23052719
0.21870036
0.20687485
0.19505043
0.1832269
0.17140409
0.15958186
0.14776006
0.13593858
0.12411732
0.11229622
0.10047524
0.088654363
0.07683359
0.065012907
0.053192303
0.041371738
0.029551195
0.017730641
0.0059101522
1.4680342
1.4525361
1.4256662
1.3917423
1.3559413
1.32099
1.287688
1.256335
1.2272043
1.2004128
1.1758253
1.1531331
1.1319813
1.1120525
1.0930943
1.0749146
1.0573689
1.0403479
1.0237692
1.0075712
0.99170725
0.9761415
0.96084553
0.94579586
0.93097242
0.9163577
0.90193607
0.88769344
0.87361699
0.85969498
0.8459166
0.83227189
0.81875167
0.80534741
0.79205125
0.7788559
0.76575459
0.75274103
0.73980939
0.72695424
0.71417055
0.70145362
0.6887991
0.67620295
0.66366141
0.65117096
0.63872839
0.62633066
0.61397499
0.60165878
0.58937964
0.57713533
0.56492379
0.5527431
0.54059147
0.52846722
0.51636878
0.50429466
0.49224344
0.48021376
0.46820429
0.45621378
0.44424097
0.43228463
0.42034359
0.40841666
0.3965027
0.3846006
0.37270927
0.36082766
0.34895477
0.33708965
0.32523141
0.3133792
0.30153227
0.28968989
0.27785142
0.26601627
0.2541839
0.24235385
0.23052572
0.21869915
0.20687387
0.19504964
0.18322628
0.17140361
0.15958148
0.14775977
0.13593836
0.12411715
0.11229608
0.10047513
0.088654284
0.076833534
0.065012874
0.053192286
0.041371737
0.029551203
0.017730655
0.00591016
1.4974427
1.4712676
1.4328708
1.3917379
1.3526526
1.3160618
1.2817641
1.2500466
1.2211905
1.1950894
1.1713354
1.1494454
1.1289956
1.1096547
1.0911746
1.0733735
1.0561217
1.0393261
1.02292
1.0068549
0.99109451
0.97561081
0.96038094
0.94538545
0.93060718
0.9160307
0.90164188
0.88742771
0.87337617
0.85947611
0.84571718
0.83208979
0.81858504
0.80519468
0.79191102
0.77872695
0.76563585
0.75263154
0.73970831
0.72686083
0.71408412
0.70137359
0.68872492
0.67613412
0.66359749
0.65111156
0.63867313
0.62627922
0.61392706
0.6016141
0.58933795
0.57709641
0.56488745
0.55270915
0.54055976
0.52843762
0.51634116
0.50426893
0.4922195
0.48019152
0.4681837
0.45619476
0.44422347
0.43226859
0.42032895
0.40840336
0.39649069
0.38458981
0.37269963
0.3608191
0.34894722
0.33708304
0.32522566
0.31337424
0.30152802
0.28968628
0.27784838
0.26601372
0.25418179
0.24235211
0.23052429
0.21869799
0.20687293
0.1950489
0.18322569
0.17140316
0.15958114
0.14775951
0.13593815
0.12411699
0.11229596
0.10047503
0.08865421
0.076833487
0.06501285
0.053192283
0.041371748
0.029551225
0.017730683
0.0059101798
1.558264
1.5033349
1.4423824
1.3908147
1.3475446
1.3085763
1.2729901
1.2412175
1.2132565
1.1884787
1.1660768
1.1453754
1.1258938
1.1073058
1.0893922
1.0720074
1.0550556
1.0384742
1.0222215
1.006268
0.990591
0.97517146
0.95999261
0.94503895
0.9302959
0.91574969
0.90138729
0.88719643
0.87316559
0.859284
0.84554163
0.83192911
0.81843775
0.80505946
0.79178671
0.77861252
0.76553038
0.75253422
0.73961841
0.7267777
0.71400719
0.70130233
0.68865888
0.67607288
0.66354067
0.65105883
0.63862418
0.62623378
0.61388489
0.60157498
0.58930168
0.57706281
0.56485636
0.55268043
0.54053328
0.52841326
0.51631882
0.50424849
0.49220088
0.48017462
0.46816843
0.45618103
0.44421118
0.43225766
0.42031929
0.40839487
0.39648328
0.38458339
0.3726941
0.36081438
0.34894322
0.33707967
0.32522285
0.31337192
0.30152612
0.28968474
0.27784714
0.26601274
0.25418101
0.24235149
0.2305238
0.21869761
0.20687264
0.19504868
0.18322554
0.17140306
0.15958107
0.14775946
0.13593811
0.12411695
0.11229592
0.100475
0.088654195
0.076833487
0.065012863
0.053192303
0.041371774
0.029551254
0.017730717
0.0059102056
1.6754836
1.5544057
1.4584253
1.3947692
1.3462597
1.3037876
1.2662524
1.2340806
1.2066803
1.1828427
1.1614484
1.1416845
1.1230074
1.1050678
1.0876525
1.0706384
1.0539575
1.0375733
1.0214651
1.0056192
0.99002418
0.97466908
0.95954238
0.94463214
0.92992615
0.91541216
0.9010782
0.8869127
0.87290465
0.85904364
0.84531992
0.83172436
0.81824846
0.80488428
0.79162446
0.77846211
0.76539085
0.7524047
0.73949812
0.72666592
0.71390328
0.70120571
0.68856902
0.67598931
0.66346296
0.65098659
0.63855706
0.62617147
0.6138271
0.60152144
0.58925217
0.57701713
0.5648143
0.55264182
0.54049794
0.52838104
0.51628956
0.50422204
0.49217708
0.48015333
0.4681495
0.45616429
0.44419648
0.43224484
0.42030819
0.40838534
0.39647516
0.38457652
0.37268835
0.3608096
0.34893929
0.33707647
0.32522027
0.31336987
0.30152451
0.28968349
0.27784618
0.266012
0.25418045
0.24235107
0.23052349
0.21869739
0.20687249
0.19504859
0.18322549
0.17140303
0.15958106
0.14775945
0.13593809
0.12411693
0.1122959
0.100475
0.088654202
0.076833503
0.065012883
0.053192319
0.041371786
0.029551262
0.017730732
0.0059102225
)
;

boundaryField
{
    top
    {
        type            zeroGradient;
    }
    inlet
    {
        type            zeroGradient;
    }
    outlet
    {
        type            fixedValue;
        value           uniform 0;
    }
    bottom
    {
        type            zeroGradient;
    }
    back
    {
        type            empty;
    }
    front
    {
        type            empty;
    }
}


// ************************************************************************* //
