/*--------------------------------*- C++ -*----------------------------------*\
| =========                 |                                                 |
| \\      /  F ield         | OpenFOAM: The Open Source CFD Toolbox           |
|  \\    /   O peration     | Version:  v1812                                 |
|   \\  /    A nd           | Web:      www.OpenFOAM.com                      |
|    \\/     M anipulation  |                                                 |
\*---------------------------------------------------------------------------*/
FoamFile
{
    version     2.0;
    format      ascii;
    class       surfaceScalarField;
    location    "6.75";
    object      phi;
}
// * * * * * * * * * * * * * * * * * * * * * * * * * * * * * * * * * * * * * //

dimensions      [0 3 -1 0 0 0 0];
oriented        oriented;


internalField   nonuniform List<scalar> 
1890
(
0.0093061957
0.00069380425
0.0082843931
0.0010218027
0.0073298986
0.00095449449
0.0064869553
0.00084294334
0.0057695845
0.0007173708
0.00518986
0.00057972444
0.004738168
0.00045169205
0.00439519
0.00034297801
0.0041390268
0.00025616318
0.003949107
0.00018991983
0.003807888
0.00014121897
0.0037013782
0.0001065098
0.003619058
8.2320222e-05
0.0035534117
6.5646247e-05
0.0034992845
5.4127258e-05
0.0034532444
4.6040053e-05
0.0034130501
4.0194298e-05
0.0033772573
3.5792762e-05
0.0033449386
3.2318763e-05
0.0033154893
2.9449284e-05
0.0032885007
2.6988579e-05
0.0032636804
2.4820305e-05
0.0032408049
2.287549e-05
0.0032196925
2.1112434e-05
0.0032001878
1.950468e-05
0.0031821538
1.8034049e-05
0.003165467
1.6686766e-05
0.0031500156
1.5451409e-05
0.0031356977
1.4317913e-05
0.0031224206
1.327713e-05
0.0031100999
1.2320664e-05
0.0030986591
1.1440815e-05
0.0030880285
1.0630561e-05
0.003078145
9.8835312e-06
0.003068951
9.1939804e-06
0.0030603942
8.5567425e-06
0.003052427
7.9671836e-06
0.0030450059
7.4211474e-06
0.003038091
6.9149024e-06
0.003031646
6.4450882e-06
0.0030256373
6.008668e-06
0.0030200344
5.6028838e-06
0.0030148092
5.2252187e-06
0.0030099359
4.8733609e-06
0.0030053908
4.5451796e-06
0.0030011521
4.2386976e-06
0.0029972001
3.9520819e-06
0.0029935166
3.683622e-06
0.002990085
3.4317347e-06
0.0029868901
3.1949474e-06
0.0029839184
2.9719148e-06
0.0029811571
2.7614018e-06
0.002978595
2.5623102e-06
0.0029762215
2.3736574e-06
0.0029740271
2.1946074e-06
0.0029720028
2.0244423e-06
0.0029701403
1.8625929e-06
0.0029684319
1.7086005e-06
0.0029668699
1.562143e-06
0.002965447
1.4229883e-06
0.0029641561
1.2910144e-06
0.0029629901
1.1661555e-06
0.0029619417
1.0484163e-06
0.0029610039
9.3781901e-07
0.0029601695
8.3441291e-07
0.0029594313
7.3822578e-07
0.002958782
6.4927205e-07
0.0029582145
5.6751731e-07
0.0029577215
4.9288465e-07
0.0029572962
4.2523443e-07
0.0029569318
3.6436954e-07
0.0029566217
3.100337e-07
0.0029563597
2.6191226e-07
0.0029561399
2.1964675e-07
0.002955957
1.8283112e-07
0.0029558059
1.5103958e-07
0.002955682
1.2381694e-07
0.0029555813
1.0071459e-07
0.0029555
8.1274379e-08
0.0029554349
6.5069167e-08
0.0029553832
5.167571e-08
0.0029553424
4.0716312e-08
0.0029553106
3.1824051e-08
0.0029552858
2.4683038e-08
0.0029552668
1.8991616e-08
0.0029552523
1.4498802e-08
0.0029552413
1.0974155e-08
0.0029552331
8.2353087e-09
0.0029552271
6.1224355e-09
0.0029552226
4.5130753e-09
0.0029552193
3.3029255e-09
0.0029552169
2.4076938e-09
0.0029552151
1.7592728e-09
0.0029552137
1.2947997e-09
0.0029552127
9.8136575e-10
0.002955212
7.7879378e-10
0.0029552113
6.9360328e-10
0.0029552106
7.3279166e-10
0.0029552096
1.0160169e-09
1.3639895e-09
0.010339525
0.00035427932
0.010570754
0.00079057335
0.010606301
0.00091894821
0.010547572
0.00090167137
0.010422317
0.00084262624
0.010244356
0.00075768559
0.010039421
0.00065662744
0.0098287427
0.00055365586
0.009625135
0.00045977083
0.0094353013
0.00037975354
0.0092624277
0.00031409259
0.0091075332
0.00026140426
0.0089701539
0.00021969949
0.0088489023
0.00018689787
0.0087419715
0.00016105803
0.0086474926
0.00014051896
0.008563694
0.00012399298
0.0084890107
0.00011047601
0.0084221096
9.9219881e-05
0.0083618775
8.9681413e-05
0.0083073954
8.1470679e-05
0.0082579078
7.4307863e-05
0.0082127928
6.7990522e-05
0.0081715352
6.2370028e-05
0.0081337048
5.7335065e-05
0.0080989386
5.2800244e-05
0.008066927
4.8698332e-05
0.0080374034
4.4975023e-05
0.0080101359
4.1585457e-05
0.0079849211
3.8491909e-05
0.0079615796
3.5662213e-05
0.0079399517
3.306866e-05
0.0079198951
3.0687201e-05
0.0079012817
2.8496836e-05
0.0078839966
2.6479141e-05
0.0078679354
2.4617876e-05
0.0078530039
2.2898677e-05
0.0078391163
2.1308784e-05
0.0078261944
1.9836812e-05
0.0078141669
1.847256e-05
0.0078029688
1.7206842e-05
0.0077925403
1.6031345e-05
0.007782827
1.4938503e-05
0.007773779
1.3921399e-05
0.0077653505
1.2973674e-05
0.0077574997
1.2089466e-05
0.0077501885
1.1263348e-05
0.0077433818
1.0490299e-05
0.0077370479
9.7656668e-06
0.0077311577
9.0851697e-06
0.0077256848
8.4448709e-06
0.0077206051
7.8412055e-06
0.0077158965
7.2709572e-06
0.0077115389
6.7312993e-06
0.0077075138
6.2197625e-06
0.007703804
5.7342762e-06
0.0077003935
5.2731199e-06
0.0076972672
4.8349535e-06
0.0076944106
4.4187484e-06
0.0076918098
4.0237998e-06
0.0076894511
3.6496395e-06
0.0076873212
3.2960302e-06
0.0076854067
2.9628701e-06
0.0076836943
2.650173e-06
0.0076821707
2.3579781e-06
0.0076808225
2.086324e-06
0.0076796365
1.8351782e-06
0.0076785995
1.6044137e-06
0.0076776985
1.3937677e-06
0.0076769208
1.2028249e-06
0.007676254
1.0310124e-06
0.0076756863
8.7758995e-07
0.0076752064
7.4167608e-07
0.0076748037
6.2224486e-07
0.0076744682
5.181762e-07
0.0076741909
4.2825404e-07
0.0076739634
3.512305e-07
0.0076737782
2.8581942e-07
0.0076736287
2.3076781e-07
0.0076735089
1.8483624e-07
0.0076734137
1.4687069e-07
0.0076733386
1.1576237e-07
0.0076732799
9.0519053e-08
0.0076732343
7.020796e-08
0.0076731992
5.4026303e-08
0.0076731724
4.1231229e-08
0.0076731522
3.1216227e-08
0.0076731371
2.3425504e-08
0.0076731258
1.7439546e-08
0.0076731175
1.2863363e-08
0.0076731114
9.4282889e-09
0.0076731069
6.8581399e-09
0.0076731037
4.9886733e-09
0.0076731013
3.6304376e-09
0.0076730995
2.6881407e-09
0.0076730982
2.0577802e-09
0.0076730973
1.685002e-09
0.0076730965
1.5735428e-09
0.007673096
1.6559632e-09
1.9080744e-09
0.010188704
0.00016557515
0.010530487
0.000448791
0.010851453
0.00059798177
0.011124174
0.00062895025
0.011350581
0.00061621887
0.011524486
0.00058378056
0.01164633
0.00053478421
0.011724155
0.0004758305
0.011767999
0.00041592666
0.011786639
0.000361114
0.011787114
0.00031361712
0.011775058
0.00027346026
0.011754861
0.00023989719
0.011729768
0.00021199032
0.011702054
0.00018877262
0.011673239
0.0001693339
0.011644339
0.00015289298
0.011616003
0.00013881185
0.011588629
0.00012659381
0.011562446
0.00011586447
0.011537571
0.00010634497
0.011514052
9.7827036e-05
0.011491889
9.0153407e-05
0.011471056
8.3203421e-05
0.011451508
7.6882677e-05
0.011433193
7.1115632e-05
0.011416051
6.5840369e-05
0.011400021
6.1004987e-05
0.011385041
5.6565147e-05
0.011371051
5.2482407e-05
0.01135799
4.8723082e-05
0.011345801
4.5257412e-05
0.011334429
4.2058962e-05
0.011323822
3.9104137e-05
0.011313929
3.6371809e-05
0.011304704
3.3842998e-05
0.011296102
3.1500606e-05
0.011288082
2.9329189e-05
0.011280604
2.7314754e-05
0.011273632
2.5444586e-05
0.011267132
2.3707087e-05
0.011261071
2.2091643e-05
0.011255422
2.0588502e-05
0.011250154
1.9188673e-05
0.011245244
1.7883837e-05
0.011240667
1.6666272e-05
0.011236402
1.5528797e-05
0.011232427
1.446473e-05
0.011228725
1.3467857e-05
0.011225278
1.2532415e-05
0.01122207
1.1653085e-05
0.011219086
1.0824991e-05
0.011216313
1.0043718e-05
0.01121374
9.3053042e-06
0.011211353
8.6062729e-06
0.011209144
7.9436118e-06
0.011207102
7.3147998e-06
0.011205219
6.7177639e-06
0.011203487
6.150893e-06
0.011201898
5.6129638e-06
0.011200445
5.1031381e-06
0.01119912
4.6208617e-06
0.011197917
4.1658454e-06
0.011196829
3.7379498e-06
0.01119585
3.3371574e-06
0.011194973
2.96346e-06
0.011194191
2.6168316e-06
0.011193498
2.2971356e-06
0.011192888
2.0041083e-06
0.011192353
1.7372992e-06
0.011191888
1.4960688e-06
0.011191486
1.2795674e-06
0.01119114
1.0867471e-06
0.011190846
9.1637702e-07
0.011190597
7.67066e-07
0.011190388
6.3730097e-07
0.011190214
5.2547595e-07
0.011190069
4.2994236e-07
0.011189951
3.4903547e-07
0.011189855
2.8112354e-07
0.011189777
2.2462547e-07
0.011189715
1.7804894e-07
0.011189665
1.3999788e-07
0.011189626
1.0919433e-07
0.011189596
8.4482279e-08
0.011189572
6.4831585e-08
0.011189554
4.9345613e-08
0.01118954
3.7245311e-08
0.01118953
2.7879948e-08
0.011189522
2.0696176e-08
0.011189516
1.5245918e-08
0.011189512
1.1156243e-08
0.011189509
8.1254259e-09
0.011189506
5.9212351e-09
0.011189505
4.3319882e-09
0.011189504
3.2491728e-09
0.011189503
2.5112345e-09
0.011189502
2.1250897e-09
0.011189502
1.9574893e-09
1.9149649e-09
0.010097182
6.8393556e-05
0.010346961
0.00019901112
0.010662469
0.00028247387
0.010982753
0.00030866649
0.011290229
0.00030874342
0.011575251
0.00029875789
0.011829022
0.00028101346
0.012047865
0.00025698756
0.012233272
0.00023051982
0.01238924
0.0002051459
0.012520295
0.00018256236
0.012630755
0.00016299958
0.012724428
0.00014622492
0.012804515
0.00013190313
0.012873613
0.00011967428
0.012933772
0.00010917462
0.012986596
0.00010006908
0.013033332
9.2076386e-05
0.01307495
8.4975279e-05
0.013112216
7.8598647e-05
0.013145739
7.2822344e-05
0.013176012
6.7553986e-05
0.013203441
6.2723979e-05
0.013228366
5.8278958e-05
0.013251071
5.4177057e-05
0.013271802
5.0384509e-05
0.01329077
4.6873249e-05
0.013308155
4.3619272e-05
0.013324119
4.0601559e-05
0.0133388
3.7801381e-05
0.013352321
3.5201849e-05
0.013364791
3.2787609e-05
0.013376305
3.0544632e-05
0.013386949
2.8460055e-05
0.013396799
2.6522058e-05
0.013405922
2.4719757e-05
0.01341438
2.3043126e-05
0.013422226
2.1482908e-05
0.01342951
2.003055e-05
0.013436277
1.8678132e-05
0.013442565
1.7418312e-05
0.013448413
1.6244261e-05
0.013453852
1.5149621e-05
0.013458912
1.4128454e-05
0.013463621
1.3175202e-05
0.013468002
1.2284657e-05
0.013472079
1.1451927e-05
0.013475871
1.067243e-05
0.013479397
9.9418623e-06
0.013482673
9.2562097e-06
0.013485715
8.6117262e-06
0.013488535
8.0049675e-06
0.013491146
7.4327587e-06
0.013493559
6.8922533e-06
0.013495784
6.3808832e-06
0.013497832
5.8964336e-06
0.013499709
5.4369692e-06
0.013501426
5.0009149e-06
0.01350299
4.5869552e-06
0.013504409
4.1941122e-06
0.013505691
3.8216195e-06
0.013506843
3.4689904e-06
0.013507873
3.1358753e-06
0.013508788
2.8221182e-06
0.013509598
2.5276112e-06
0.013510309
2.2523388e-06
0.01351093
1.9962448e-06
0.013511467
1.7592693e-06
0.01351193
1.5412432e-06
0.013512326
1.3419175e-06
0.013512661
1.1608967e-06
0.013512943
9.9766279e-07
0.013513178
8.5154892e-07
0.013513372
7.2175845e-07
0.013513532
6.0738258e-07
0.013513662
5.0740016e-07
0.013513767
4.2073293e-07
0.01351385
3.4623079e-07
0.013513917
2.8274793e-07
0.013513969
2.2910991e-07
0.013514009
1.8420505e-07
0.01351404
1.4692657e-07
0.013514064
1.1627546e-07
0.013514082
9.1276752e-08
0.013514095
7.1091729e-08
0.013514105
5.4914957e-08
0.013514112
4.208797e-08
0.013514118
3.1983959e-08
0.013514122
2.4119857e-08
0.013514124
1.803368e-08
0.013514126
1.3392527e-08
0.013514127
9.8704153e-09
0.013514128
7.2492546e-09
0.013514129
5.3058072e-09
0.013514129
3.9042063e-09
0.01351413
2.8962008e-09
0.01351413
2.2119066e-09
0.01351413
1.7666062e-09
0.013514131
1.5406343e-09
1.3568647e-09
0.010068394
6.8807431e-14
0.010267405
2.4984799e-13
0.010549879
4.1302324e-13
0.010858545
6.1220443e-13
0.011167288
9.3524412e-13
0.011466046
1.4245801e-12
0.01174706
2.1096956e-12
0.012004047
3.0062621e-12
0.012234567
4.0592178e-12
0.012439713
5.2753617e-12
0.012622275
6.5621019e-12
0.012785275
7.9475405e-12
0.0129315
9.4314713e-12
0.013063403
1.112451e-11
0.013183077
1.3180935e-11
0.013292252
1.5783362e-11
0.013392321
1.9089046e-11
0.013484397
2.3258165e-11
0.013569373
2.8235159e-11
0.013647971
3.4144979e-11
0.013720794
4.0672177e-11
0.013788347
4.7959988e-11
0.013851071
5.5616924e-11
0.01390935
6.3872871e-11
0.013963527
7.2532979e-11
0.014013912
8.2012729e-11
0.014060785
9.2357571e-11
0.014104404
1.0410862e-10
0.014145005
1.1710027e-10
0.014182807
1.3175246e-10
0.014218008
1.4726767e-10
0.014250796
1.6393622e-10
0.01428134
1.8025655e-10
0.0143098
1.963959e-10
0.014336322
2.1058035e-10
0.014361041
2.2292632e-10
0.014384084
2.3172592e-10
0.014405567
2.3700265e-10
0.014425597
2.3761442e-10
0.014444275
2.3328375e-10
0.014461693
2.2312128e-10
0.014477937
2.0624757e-10
0.014493087
1.8234081e-10
0.014507215
1.5001134e-10
0.01452039
1.1072308e-10
0.014532675
6.1890544e-11
0.014544126
3.8040977e-12
0.014554799
-6.5842559e-11
0.014564741
-1.377091e-10
0.014573997
-2.1770747e-10
0.014582609
-2.9579111e-10
0.014590615
-3.7842933e-10
0.014598048
-4.5230747e-10
0.014604941
-5.2683013e-10
0.014611322
-5.8583324e-10
0.014617219
-6.4104839e-10
0.014622657
-6.7503514e-10
0.014627658
-7.0289561e-10
0.014632246
-7.0714158e-10
0.014636441
-7.0386666e-10
0.014640263
-6.7728107e-10
0.014643733
-6.4480237e-10
0.014646869
-5.9335809e-10
0.014649692
-5.3824223e-10
0.01465222
-4.6943912e-10
0.014654473
-4.0039085e-10
0.01465647
-3.2390429e-10
0.014658229
-2.4906211e-10
0.014659771
-1.720519e-10
0.014661113
-9.8806754e-11
0.014662274
-3.1213306e-11
0.014663271
3.9412788e-11
0.014664123
9.6486622e-11
0.014664844
1.4751514e-10
0.014665452
1.8635157e-10
0.014665959
2.1979702e-10
0.014666379
2.4086986e-10
0.014666725
2.6073916e-10
0.014667008
2.6985161e-10
0.014667237
2.8128654e-10
0.014667421
2.816738e-10
0.014667568
2.861759e-10
0.014667684
2.7773148e-10
0.014667775
2.7204926e-10
0.014667845
2.5263695e-10
0.0146679
2.3855242e-10
0.014667942
2.1463274e-10
0.014667974
2.0023861e-10
0.014667998
1.7915213e-10
0.014668016
1.7099084e-10
0.014668029
1.5745994e-10
0.014668039
1.5618261e-10
0.014668046
1.4980449e-10
0.014668051
1.5124267e-10
0.014668055
1.4789645e-10
0.014668058
1.4246524e-10
0.01466806
1.3142485e-10
0.014668061
1.2113939e-10
0.014668063
1.0865208e-10
1.2180329e-10
0.010068394
-6.8393556e-05
0.010267405
-0.00019901112
0.010549879
-0.00028247387
0.010858545
-0.00030866649
0.011167288
-0.00030874342
0.011466046
-0.00029875788
0.01174706
-0.00028101345
0.012004047
-0.00025698755
0.012234567
-0.00023051981
0.012439713
-0.00020514589
0.012622275
-0.00018256235
0.012785275
-0.00016299957
0.0129315
-0.0001462249
0.013063403
-0.00013190311
0.013183077
-0.00011967425
0.013292252
-0.00010917459
0.013392321
-0.00010006905
0.013484397
-9.2076341e-05
0.013569373
-8.4975225e-05
0.013647971
-7.8598582e-05
0.013720794
-7.2822267e-05
0.013788347
-6.7553895e-05
0.013851071
-6.2723874e-05
0.01390935
-5.8278838e-05
0.013963527
-5.4176921e-05
0.014013912
-5.0384356e-05
0.014060785
-4.6873077e-05
0.014104404
-4.3619078e-05
0.014145006
-4.0601341e-05
0.014182807
-3.7801137e-05
0.014218009
-3.5201576e-05
0.014250796
-3.2787306e-05
0.01428134
-3.05443e-05
0.0143098
-2.8459695e-05
0.014336322
-2.6521672e-05
0.014361042
-2.471935e-05
0.014384085
-2.3042704e-05
0.014405567
-2.1482478e-05
0.014425598
-2.003012e-05
0.014444276
-1.8677711e-05
0.014461694
-1.7417909e-05
0.014477938
-1.6243888e-05
0.014493087
-1.5149291e-05
0.014507216
-1.412818e-05
0.014520391
-1.3174999e-05
0.014532675
-1.2284541e-05
0.014544127
-1.1451915e-05
0.0145548
-1.0672537e-05
0.014564741
-9.9420964e-06
0.014573998
-9.2565817e-06
0.01458261
-8.6122374e-06
0.014590615
-8.0056209e-06
0.014598048
-7.4335455e-06
0.014604941
-6.8931685e-06
0.014611322
-6.3819067e-06
0.014617219
-5.8975522e-06
0.014622657
-5.4381544e-06
0.014627658
-5.0021488e-06
0.014632246
-4.5882043e-06
0.01463644
-4.1953566e-06
0.014640262
-3.8228261e-06
0.014643732
-3.4701427e-06
0.014646868
-3.1369449e-06
0.014649691
-2.8230939e-06
0.014652219
-2.5284726e-06
0.014654472
-2.2530812e-06
0.014656468
-1.9968562e-06
0.014658228
-1.75975e-06
0.014659769
-1.5415888e-06
0.014661111
-1.3421318e-06
0.014662272
-1.1609834e-06
0.01466327
-9.9762812e-07
0.014664122
-8.5140771e-07
0.014664843
-7.2152458e-07
0.014665451
-6.070745e-07
0.014665958
-5.0703103e-07
0.014666378
-4.2032004e-07
0.014666725
-3.4578117e-07
0.014667007
-2.8227539e-07
0.014667236
-2.2861655e-07
0.01466742
-1.837038e-07
0.014667567
-1.4641862e-07
0.014667683
-1.1577779e-07
0.014667774
-9.0793013e-08
0.014667845
-7.0638651e-08
0.0146679
-5.4491494e-08
0.014667942
-4.1703528e-08
0.014667974
-3.1629643e-08
0.014667998
-2.379751e-08
0.014668016
-1.7730122e-08
0.014668029
-1.3108215e-08
0.014668039
-9.5948281e-09
0.014668046
-6.9807413e-09
0.014668051
-5.0391878e-09
0.014668055
-3.6420481e-09
0.014668057
-2.6408798e-09
0.01466806
-1.9738382e-09
0.014668061
-1.5384736e-09
0.014668063
-1.3355902e-09
-1.144693e-09
0.010097182
-0.00016557515
0.010346961
-0.000448791
0.010662469
-0.00059798177
0.010982753
-0.00062895025
0.011290229
-0.00061621886
0.011575251
-0.00058378055
0.011829022
-0.0005347842
0.012047865
-0.00047583049
0.012233272
-0.00041592665
0.01238924
-0.00036111399
0.012520295
-0.00031361711
0.012630755
-0.00027346025
0.012724428
-0.00023989718
0.012804515
-0.00021199031
0.012873613
-0.0001887726
0.012933772
-0.00016933387
0.012986596
-0.00015289295
0.013033332
-0.00013881181
0.01307495
-0.00012659377
0.013112216
-0.00011586442
0.013145739
-0.0001063449
0.013176012
-9.7826962e-05
0.013203441
-9.0153322e-05
0.013228366
-8.3203324e-05
0.013251071
-7.6882569e-05
0.013271803
-7.1115512e-05
0.01329077
-6.5840235e-05
0.013308156
-6.1004837e-05
0.013324119
-5.6564978e-05
0.0133388
-5.248222e-05
0.013352322
-4.8722873e-05
0.013364791
-4.5257183e-05
0.013376306
-4.2058712e-05
0.01338695
-3.9103869e-05
0.0133968
-3.6371526e-05
0.013405923
-3.3842704e-05
0.013414381
-3.1500306e-05
0.013422227
-2.9328889e-05
0.013429511
-2.7314461e-05
0.013436278
-2.5444306e-05
0.013442567
-2.3706827e-05
0.013448414
-2.209141e-05
0.013453853
-2.0588308e-05
0.013458914
-1.9188525e-05
0.013463622
-1.7883749e-05
0.013468004
-1.6666249e-05
0.013472081
-1.5528856e-05
0.013475873
-1.4464872e-05
0.013479399
-1.3468099e-05
0.013482675
-1.2532748e-05
0.013485716
-1.1653524e-05
0.013488536
-1.0825519e-05
0.013491147
-1.0044347e-05
0.01349356
-9.3060061e-06
0.013495785
-8.6070572e-06
0.013497832
-7.9444418e-06
0.013499709
-7.3156836e-06
0.013501426
-6.7186598e-06
0.013502989
-6.1518071e-06
0.013504408
-5.6138542e-06
0.013505689
-5.1040117e-06
0.01350684
-4.6216803e-06
0.01350787
-4.1666166e-06
0.013508786
-3.7386427e-06
0.013509595
-3.3377814e-06
0.013510306
-2.9639925e-06
0.013510926
-2.617281e-06
0.013511464
-2.297488e-06
0.013511927
-2.00437e-06
0.013512322
-1.7374663e-06
0.013512657
-1.4961457e-06
0.013512939
-1.2795612e-06
0.013513174
-1.0866623e-06
0.013513369
-9.1623208e-07
0.013513529
-7.6686331e-07
0.013513659
-6.3706316e-07
0.013513764
-5.2519865e-07
0.013513848
-4.2964819e-07
0.013513914
-3.4871257e-07
0.013513966
-2.8079567e-07
0.013514007
-2.2427573e-07
0.013514038
-1.7770685e-07
0.013514062
-1.3964793e-07
0.01351408
-1.0886997e-07
0.013514094
-8.4165807e-08
0.013514104
-6.4553334e-08
0.013514111
-4.9081019e-08
0.013514117
-3.7018102e-08
0.013514121
-2.7656797e-08
0.013514124
-2.0500605e-08
0.013514126
-1.5043813e-08
0.013514127
-1.0977353e-08
0.013514128
-7.9336324e-09
0.013514129
-5.7498344e-09
0.013514129
-4.147191e-09
0.013514129
-3.0757234e-09
0.01351413
-2.3373469e-09
0.01351413
-1.9580537e-09
0.013514131
-1.7982487e-09
-1.7675427e-09
0.010188704
-0.00035427932
0.010530487
-0.00079057335
0.010851453
-0.00091894821
0.011124174
-0.00090167137
0.011350581
-0.00084262624
0.011524486
-0.00075768559
0.01164633
-0.00065662744
0.011724155
-0.00055365586
0.011767999
-0.00045977083
0.011786639
-0.00037975353
0.011787114
-0.00031409258
0.011775058
-0.00026140425
0.011754861
-0.00021969948
0.011729768
-0.00018689786
0.011702054
-0.00016105802
0.011673239
-0.00014051894
0.011644339
-0.00012399296
0.011616003
-0.00011047599
0.011588629
-9.9219852e-05
0.011562446
-8.9681378e-05
0.011537572
-8.1470638e-05
0.011514052
-7.4307816e-05
0.01149189
-6.799047e-05
0.011471056
-6.236997e-05
0.011451509
-5.7335001e-05
0.011433193
-5.2800174e-05
0.011416051
-4.8698254e-05
0.011400021
-4.4974936e-05
0.011385042
-4.1585361e-05
0.011371051
-3.8491803e-05
0.011357991
-3.5662095e-05
0.011345802
-3.3068533e-05
0.01133443
-3.0687065e-05
0.011323823
-2.8496695e-05
0.011313931
-2.6478995e-05
0.011304706
-2.461773e-05
0.011296104
-2.2898535e-05
0.011288084
-2.1308647e-05
0.011280606
-1.9836685e-05
0.011273634
-1.8472447e-05
0.011267134
-1.7206748e-05
0.011261074
-1.6031273e-05
0.011255424
-1.4938459e-05
0.011250156
-1.3921387e-05
0.011245246
-1.29737e-05
0.01124067
-1.2089534e-05
0.011236404
-1.1263464e-05
0.01123243
-1.0490465e-05
0.011228727
-9.7658871e-06
0.01122528
-9.0854396e-06
0.011222071
-8.4451937e-06
0.011219087
-7.8415728e-06
0.011216314
-7.2713707e-06
0.01121374
-6.731745e-06
0.011211353
-6.2202408e-06
0.011209143
-5.7347711e-06
0.011207101
-5.2736307e-06
0.011205218
-4.835462e-06
0.011203485
-4.4192542e-06
0.011201896
-4.024286e-06
0.011200442
-3.6501066e-06
0.011199116
-3.2964638e-06
0.011197913
-2.9632721e-06
0.011196825
-2.650533e-06
0.011195845
-2.3582985e-06
0.011194968
-2.0865979e-06
0.011194186
-1.8354074e-06
0.011193493
-1.6045938e-06
0.011192883
-1.3938995e-06
0.011192348
-1.2029094e-06
0.011191883
-1.0310508e-06
0.011191481
-8.7758777e-07
0.011191136
-7.4163676e-07
0.011190842
-6.2217954e-07
0.011190593
-5.1808691e-07
0.011190384
-4.2814969e-07
0.01119021
-3.5110843e-07
0.011190066
-2.8568714e-07
0.011189948
-2.3061966e-07
0.011189852
-1.8467995e-07
0.011189775
-1.4670263e-07
0.011189713
-1.155968e-07
0.011189663
-9.0355095e-08
0.011189624
-7.0059138e-08
0.011189594
-5.3887856e-08
0.011189571
-4.1111841e-08
0.011189553
-3.1104327e-08
0.011189539
-2.3324361e-08
0.011189529
-1.7335965e-08
0.011189521
-1.2766136e-08
0.011189516
-9.3287139e-09
0.011189511
-6.769119e-09
0.011189508
-4.9030438e-09
0.011189506
-3.5575237e-09
0.011189505
-2.6141426e-09
0.011189503
-1.9733471e-09
0.011189503
-1.6067242e-09
0.011189502
-1.481616e-09
0.011189502
-1.5449964e-09
-1.8187791e-09
0.010339525
-0.00069380425
0.010570754
-0.0010218027
0.010606301
-0.00095449449
0.010547572
-0.00084294334
0.010422317
-0.0007173708
0.010244356
-0.00057972444
0.010039421
-0.00045169204
0.0098287427
-0.00034297801
0.009625135
-0.00025616317
0.0094353013
-0.00018991983
0.0092624277
-0.00014121897
0.0091075332
-0.00010650979
0.008970154
-8.2320218e-05
0.0088489024
-6.5646243e-05
0.0087419716
-5.4127253e-05
0.0086474927
-4.6040046e-05
0.008563694
-4.019429e-05
0.0084890108
-3.5792752e-05
0.0084221097
-3.2318752e-05
0.0083618776
-2.9449272e-05
0.0083073955
-2.6988566e-05
0.008257908
-2.4820292e-05
0.008212793
-2.2875475e-05
0.0081715354
-2.1112418e-05
0.0081337051
-1.9504662e-05
0.0080989389
-1.8034029e-05
0.0080669274
-1.6686742e-05
0.0080374039
-1.5451382e-05
0.0080101364
-1.4317883e-05
0.0079849217
-1.3277098e-05
0.0079615803
-1.232063e-05
0.0079399525
-1.1440781e-05
0.0079198959
-1.0630527e-05
0.0079012827
-9.883498e-06
0.0078839976
-9.1939478e-06
0.0078679366
-8.5567108e-06
0.0078530052
-7.9671521e-06
0.0078391176
-7.4211169e-06
0.0078261958
-6.9148725e-06
0.0078141684
-6.4450605e-06
0.0078029703
-6.0086425e-06
0.0077925419
-5.6028633e-06
0.0077828286
-5.2252027e-06
0.0077737805
-4.8733526e-06
0.0077653519
-4.5451763e-06
0.007757501
-4.2387036e-06
0.0077501896
-3.9520919e-06
0.0077433828
-3.6836417e-06
0.0077370486
-3.4317554e-06
0.0077311581
-3.1949782e-06
0.0077256849
-2.971945e-06
0.0077206048
-2.7614438e-06
0.0077158959
-2.5623502e-06
0.0077115379
-2.3737107e-06
0.0077075124
-2.1946582e-06
0.0077038022
-2.0245073e-06
0.0077003913
-1.8626533e-06
0.0076972646
-1.7086738e-06
0.0076944077
-1.56221e-06
0.0076918065
-1.4230666e-06
0.0076894476
-1.2910849e-06
0.0076873175
-1.1662347e-06
0.0076854028
-1.0484875e-06
0.0076836902
-9.3789667e-07
0.0076821665
-8.3448221e-07
0.0076808182
-7.3829633e-07
0.0076796322
-6.4933268e-07
0.0076785953
-5.6757299e-07
0.0076776944
-4.9293045e-07
0.0076769168
-4.2527092e-07
0.0076762502
-3.6439993e-07
0.0076756827
-3.1005521e-07
0.007675203
-2.6193512e-07
0.0076748004
-2.1966141e-07
0.0076744652
-1.8284871e-07
0.0076741881
-1.5104261e-07
0.0076739608
-1.2381845e-07
0.0076737759
-1.0069289e-07
0.0076736266
-8.1249974e-08
0.0076735071
-6.5023642e-08
0.0076734121
-5.1640559e-08
0.0076733372
-4.0673764e-08
0.0076732786
-3.1804475e-08
0.0076732332
-2.4661075e-08
0.0076731982
-1.8987876e-08
0.0076731716
-1.4479686e-08
0.0076731515
-1.0957371e-08
0.0076731365
-8.1927708e-09
0.0076731254
-6.0840429e-09
0.0076731172
-4.4605968e-09
0.0076731111
-3.2731066e-09
0.0076731068
-2.3799174e-09
0.0076731035
-1.7640949e-09
0.0076731012
-1.2933562e-09
0.0076730995
-9.9206951e-10
0.0076730983
-7.7121495e-10
0.0076730973
-6.8219585e-10
0.0076730966
-6.8546925e-10
0.0076730961
-9.4913344e-10
-1.3239191e-09
0.0093061957
0.0082843931
0.0073298986
0.0064869553
0.0057695845
0.00518986
0.004738168
0.00439519
0.0041390268
0.003949107
0.003807888
0.0037013782
0.003619058
0.0035534117
0.0034992845
0.0034532444
0.0034130502
0.0033772574
0.0033449387
0.0033154894
0.0032885008
0.0032636805
0.003240805
0.0032196926
0.003200188
0.0031821539
0.0031654672
0.0031500158
0.0031356979
0.0031224208
0.0031101002
0.0030986594
0.0030880289
0.0030781454
0.0030689514
0.0030603947
0.0030524275
0.0030450064
0.0030380915
0.0030316465
0.0030256378
0.003020035
0.0030148097
0.0030099364
0.0030053912
0.0030011525
0.0029972004
0.0029935168
0.002990085
0.0029868901
0.0029839182
0.0029811569
0.0029785946
0.002976221
0.0029740264
0.002972002
0.0029701394
0.0029684309
0.0029668687
0.0029654458
0.0029641548
0.0029629886
0.0029619402
0.0029610024
0.002960168
0.0029594298
0.0029587805
0.002958213
0.0029577201
0.0029572949
0.0029569305
0.0029566205
0.0029563585
0.0029561389
0.002955956
0.002955805
0.0029556812
0.0029555805
0.0029554993
0.0029554343
0.0029553827
0.002955342
0.0029553102
0.0029552855
0.0029552666
0.0029552521
0.0029552412
0.002955233
0.002955227
0.0029552226
0.0029552193
0.0029552169
0.0029552151
0.0029552138
0.0029552128
0.002955212
0.0029552113
0.0029552107
0.0029552098
)
;

boundaryField
{
    top
    {
        type            calculated;
        value           uniform 0;
    }
    inlet
    {
        type            calculated;
        value           nonuniform List<scalar> 10(-0.01 -0.01 -0.01 -0.01 -0.01 -0.01 -0.01 -0.01 -0.01 -0.01);
    }
    outlet
    {
        type            calculated;
        value           nonuniform List<scalar> 10(0.0029552083 0.0076730955 0.011189502 0.013514132 0.014668064 0.014668064 0.013514132 0.011189502 0.0076730957 0.0029552084);
    }
    bottom
    {
        type            calculated;
        value           uniform 0;
    }
    back
    {
        type            empty;
        value           nonuniform 0();
    }
    front
    {
        type            empty;
        value           nonuniform 0();
    }
}


// ************************************************************************* //
