/*--------------------------------*- C++ -*----------------------------------*\
| =========                 |                                                 |
| \\      /  F ield         | OpenFOAM: The Open Source CFD Toolbox           |
|  \\    /   O peration     | Version:  v1812                                 |
|   \\  /    A nd           | Web:      www.OpenFOAM.com                      |
|    \\/     M anipulation  |                                                 |
\*---------------------------------------------------------------------------*/
FoamFile
{
    version     2.0;
    format      ascii;
    class       volVectorField;
    location    "18.3";
    object      U;
}
// * * * * * * * * * * * * * * * * * * * * * * * * * * * * * * * * * * * * * //

dimensions      [0 1 -1 0 0 0 0];


internalField   nonuniform List<vector> 
1000
(
(0.91890839 0.035821912 0)
(0.86271384 0.062195638 0)
(0.7870597 0.062510089 0)
(0.69536033 0.054550394 0)
(0.61089745 0.04453165 0)
(0.54411592 0.034015971 0)
(0.49343012 0.02418754 0)
(0.45479414 0.01614423 0)
(0.42544583 0.010265786 0)
(0.40347313 0.0063041453 0)
(0.38715767 0.0037976293 0)
(0.3749622 0.0023103382 0)
(0.36566193 0.001493015 0)
(0.35836272 0.0010851183 0)
(0.35244268 0.00090607198 0)
(0.34748201 0.00084105104 0)
(0.34320348 0.00082372347 0)
(0.33942726 0.00081930989 0)
(0.33603793 0.00081185196 0)
(0.33296114 0.00079580153 0)
(0.33014778 0.0007708122 0)
(0.32756384 0.00073871018 0)
(0.3251842 0.00070188973 0)
(0.32298902 0.00066256561 0)
(0.32096172 0.00062249903 0)
(0.31908785 0.00058295641 0)
(0.31735449 0.00054477061 0)
(0.31574996 0.00050843327 0)
(0.3142636 0.00047419133 0)
(0.31288575 0.0004421247 0)
(0.31160756 0.00041221009 0)
(0.31042101 0.00038436245 0)
(0.30931883 0.0003584657 0)
(0.30829438 0.00033439068 0)
(0.30734165 0.00031200642 0)
(0.30645515 0.00029118672 0)
(0.30562991 0.0002718129 0)
(0.30486136 0.00025377543 0)
(0.30414535 0.00023697357 0)
(0.30347807 0.00022131469 0)
(0.30285601 0.00020671496 0)
(0.30227596 0.00019309678 0)
(0.30173497 0.00018039003 0)
(0.30123029 0.00016852996 0)
(0.30075942 0.00015745734 0)
(0.30032002 0.00014711829 0)
(0.29990993 0.00013746236 0)
(0.29952715 0.00012844408 0)
(0.29916983 0.00012002053 0)
(0.29883624 0.00011215137 0)
(0.29852478 0.00010480011 0)
(0.29823397 9.7931171e-05 0)
(0.29796241 9.1512438e-05 0)
(0.29770883 8.551371e-05 0)
(0.29747201 7.9906514e-05 0)
(0.29725084 7.4666001e-05 0)
(0.29704429 6.9767609e-05 0)
(0.29685137 6.5190837e-05 0)
(0.2966712 6.0914762e-05 0)
(0.29650291 5.6919797e-05 0)
(0.29634572 5.3187701e-05 0)
(0.2961989 4.9700039e-05 0)
(0.29606176 4.6440405e-05 0)
(0.29593366 4.3392875e-05 0)
(0.295814 4.054293e-05 0)
(0.29570223 3.7878445e-05 0)
(0.29559783 3.5387606e-05 0)
(0.29550031 3.3060318e-05 0)
(0.29540922 3.088797e-05 0)
(0.29532413 2.8859698e-05 0)
(0.29524465 2.6966794e-05 0)
(0.2951704 2.5198747e-05 0)
(0.29510104 2.3545414e-05 0)
(0.29503625 2.1998313e-05 0)
(0.29497572 2.0549872e-05 0)
(0.29491918 1.9194116e-05 0)
(0.29486637 1.7927501e-05 0)
(0.29481705 1.6744376e-05 0)
(0.29477097 1.5643062e-05 0)
(0.29472793 1.4616421e-05 0)
(0.29468772 1.3660588e-05 0)
(0.29465016 1.2766825e-05 0)
(0.29461507 1.1930709e-05 0)
(0.29458229 1.1144679e-05 0)
(0.29455167 1.0407791e-05 0)
(0.29452308 9.7132504e-06 0)
(0.29449635 9.0725454e-06 0)
(0.29447142 8.4703351e-06 0)
(0.2944481 7.9182909e-06 0)
(0.29442633 7.3969423e-06 0)
(0.29440598 6.9261131e-06 0)
(0.294387 6.4726713e-06 0)
(0.2943692 6.0617967e-06 0)
(0.29435259 5.6503951e-06 0)
(0.29433714 5.2891271e-06 0)
(0.29432249 4.9685596e-06 0)
(0.29430919 4.6878072e-06 0)
(0.29429569 4.5388837e-06 0)
(0.29428502 4.4056158e-06 0)
(0.29426874 5.0574983e-06 0)
(1.0016583 0.05381943 0)
(1.0359761 0.10128443 0)
(1.0597199 0.11073663 0)
(1.0628947 0.10592201 0)
(1.0515569 0.096228725 0)
(1.0340529 0.083934059 0)
(1.0142795 0.070327062 0)
(0.99360703 0.056981334 0)
(0.97292577 0.045107479 0)
(0.9531074 0.03523675 0)
(0.93479539 0.02740165 0)
(0.91829012 0.021387227 0)
(0.90362379 0.016884499 0)
(0.89068068 0.013569709 0)
(0.87928175 0.011147748 0)
(0.86923242 0.0093736578 0)
(0.86034424 0.0080569271 0)
(0.85244667 0.0070571265 0)
(0.84539242 0.0062752379 0)
(0.83905793 0.0056438286 0)
(0.83334127 0.0051180915 0)
(0.82815884 0.0046686728 0)
(0.82344213 0.0042764175 0)
(0.81913467 0.0039287383 0)
(0.81518962 0.0036172024 0)
(0.81156765 0.0033359687 0)
(0.80823544 0.0030808023 0)
(0.8051644 0.0028484673 0)
(0.80232979 0.0026363682 0)
(0.79971 0.002442338 0)
(0.79728598 0.0022645189 0)
(0.79504087 0.0021012905 0)
(0.79295963 0.0019512261 0)
(0.79102881 0.0018130636 0)
(0.78923628 0.0016856836 0)
(0.78757111 0.0015680918 0)
(0.78602339 0.0014594042 0)
(0.78458412 0.0013588338 0)
(0.78324512 0.0012656787 0)
(0.78199889 0.0011793106 0)
(0.78083861 0.001099167 0)
(0.77975799 0.001024742 0)
(0.77875128 0.00095558011 0)
(0.77781318 0.00089126973 0)
(0.77693882 0.00083143795 0)
(0.77612368 0.00077574671 0)
(0.77536363 0.00072388785 0)
(0.77465481 0.00067558044 0)
(0.77399368 0.00063056715 0)
(0.77337694 0.00058861111 0)
(0.77280154 0.00054949494 0)
(0.77226464 0.00051301755 0)
(0.77176363 0.00047899318 0)
(0.77129607 0.00044725072 0)
(0.77085967 0.00041763124 0)
(0.77045234 0.00038998936 0)
(0.77007212 0.00036418994 0)
(0.76971717 0.0003401095 0)
(0.76938581 0.00031763258 0)
(0.76907644 0.00029665116 0)
(0.7687876 0.0002770645 0)
(0.76851791 0.00025877778 0)
(0.7682661 0.0002417023 0)
(0.76803096 0.0002257557 0)
(0.76781139 0.00021086129 0)
(0.76760635 0.00019694915 0)
(0.76741488 0.0001839549 0)
(0.76723608 0.00017181918 0)
(0.7670691 0.00016048786 0)
(0.76691315 0.00014990809 0)
(0.76676752 0.00014003069 0)
(0.7666315 0.00013080688 0)
(0.76650446 0.00012219103 0)
(0.76638582 0.00011413978 0)
(0.76627501 0.00010661543 0)
(0.76617152 9.9582081e-05 0)
(0.76607485 9.3012127e-05 0)
(0.76598458 8.6874576e-05 0)
(0.76590026 8.1148589e-05 0)
(0.76582151 7.5802594e-05 0)
(0.76574794 7.0817799e-05 0)
(0.76567924 6.6157733e-05 0)
(0.76561504 6.1808998e-05 0)
(0.76555512 5.7732719e-05 0)
(0.7654991 5.3930434e-05 0)
(0.76544684 5.035515e-05 0)
(0.76539796 4.7037951e-05 0)
(0.76535239 4.3921125e-05 0)
(0.7653097 4.1053433e-05 0)
(0.76526997 3.8323192e-05 0)
(0.76523272 3.5844665e-05 0)
(0.76519804 3.346403e-05 0)
(0.76516555 3.1332126e-05 0)
(0.76513516 2.9189361e-05 0)
(0.76510713 2.7364107e-05 0)
(0.76507997 2.5517313e-05 0)
(0.76505663 2.4071206e-05 0)
(0.76503057 2.2554673e-05 0)
(0.76501446 2.1596928e-05 0)
(0.76498346 2.0993409e-05 0)
(1.0014244 0.026824854 0)
(1.0291272 0.06279135 0)
(1.0654292 0.077736549 0)
(1.098962 0.080597196 0)
(1.1253149 0.078285167 0)
(1.145053 0.073153897 0)
(1.1594858 0.066111277 0)
(1.1694287 0.058162063 0)
(1.1755354 0.050296754 0)
(1.1785738 0.043150707 0)
(1.1793571 0.036972824 0)
(1.178595 0.031771631 0)
(1.1768304 0.027451838 0)
(1.1744518 0.023886766 0)
(1.1717287 0.020947618 0)
(1.1688444 0.018515779 0)
(1.1659195 0.016488084 0)
(1.1630317 0.014779502 0)
(1.1602295 0.013322985 0)
(1.1575415 0.012067132 0)
(1.1549828 0.010973001 0)
(1.1525601 0.010011061 0)
(1.1502747 0.0091587461 0)
(1.1481246 0.0083986032 0)
(1.1461059 0.0077169491 0)
(1.1442134 0.0071028865 0)
(1.1424414 0.0065475903 0)
(1.1407838 0.0060437941 0)
(1.1392344 0.0055854253 0)
(1.1377869 0.0051673442 0)
(1.1364353 0.0047851569 0)
(1.1351738 0.0044350763 0)
(1.1339968 0.0041138167 0)
(1.1328987 0.0038185125 0)
(1.1318746 0.0035466523 0)
(1.1309195 0.003296026 0)
(1.1300289 0.0030646818 0)
(1.1291985 0.0028508893 0)
(1.1284242 0.0026531092 0)
(1.1277022 0.0024699677 0)
(1.1270291 0.0023002351 0)
(1.1264014 0.0021428069 0)
(1.1258161 0.0019966883 0)
(1.1252702 0.001860981 0)
(1.1247612 0.0017348713 0)
(1.1242865 0.0016176206 0)
(1.1238437 0.0015085571 0)
(1.1234308 0.0014070674 0)
(1.1230455 0.0013125909 0)
(1.1226861 0.0012246136 0)
(1.1223509 0.001142664 0)
(1.1220381 0.0010663081 0)
(1.1217462 0.00099514599 0)
(1.1214739 0.00092880941 0)
(1.1212198 0.00086695857 0)
(1.1209827 0.00080928006 0)
(1.1207614 0.00075548469 0)
(1.1205548 0.00070530496 0)
(1.1203621 0.00065849251 0)
(1.1201821 0.00061481638 0)
(1.1200142 0.00057406212 0)
(1.1198574 0.00053602972 0)
(1.1197111 0.00050053336 0)
(1.1195745 0.00046740015 0)
(1.1194469 0.00043647032 0)
(1.1193278 0.00040759551 0)
(1.1192167 0.00038063879 0)
(1.1191129 0.00035547277 0)
(1.119016 0.00033197914 0)
(1.1189255 0.00031004594 0)
(1.118841 0.0002895693 0)
(1.1187621 0.00027044901 0)
(1.1186884 0.00025259412 0)
(1.1186197 0.00023591688 0)
(1.1185554 0.00022034122 0)
(1.1184954 0.00020579146 0)
(1.1184394 0.00019220598 0)
(1.1183871 0.00017951706 0)
(1.1183382 0.00016767542 0)
(1.1182926 0.00015661376 0)
(1.11825 0.00014629404 0)
(1.1182103 0.000136643 0)
(1.1181731 0.00012764267 0)
(1.1181384 0.00011921033 0)
(1.1181059 0.00011135919 0)
(1.1180757 0.00010398455 0)
(1.1180473 9.7152562e-05 0)
(1.1180211 9.0704139e-05 0)
(1.1179962 8.4786074e-05 0)
(1.1179734 7.9128565e-05 0)
(1.1179516 7.4027263e-05 0)
(1.1179318 6.9017125e-05 0)
(1.1179128 6.4662337e-05 0)
(1.1178955 6.0141102e-05 0)
(1.117879 5.6560906e-05 0)
(1.1178635 5.2425635e-05 0)
(1.11785 4.9744444e-05 0)
(1.1178349 4.5807006e-05 0)
(1.1178261 4.4318728e-05 0)
(1.1178083 4.0574664e-05 0)
(1.0007347 0.011814721 0)
(1.0178472 0.030860924 0)
(1.0462163 0.041434438 0)
(1.0799018 0.045193566 0)
(1.1132664 0.045502348 0)
(1.143782 0.044080305 0)
(1.1708941 0.04143998 0)
(1.1945687 0.037973676 0)
(1.2148582 0.034195728 0)
(1.2319652 0.030536886 0)
(1.2462683 0.027222043 0)
(1.2582339 0.024313918 0)
(1.2683135 0.021797886 0)
(1.2768875 0.019633657 0)
(1.2842554 0.017773824 0)
(1.2906479 0.01616965 0)
(1.296243 0.014775589 0)
(1.3011791 0.013552296 0)
(1.3055645 0.012467863 0)
(1.3094838 0.011497465 0)
(1.3130042 0.010622161 0)
(1.3161792 0.009827512 0)
(1.3190526 0.0091024094 0)
(1.3216607 0.008438175 0)
(1.3240343 0.0078279023 0)
(1.3261995 0.0072659731 0)
(1.3281786 0.0067477076 0)
(1.3299913 0.0062691158 0)
(1.3316544 0.0058267268 0)
(1.3331829 0.0054174729 0)
(1.3345896 0.0050386119 0)
(1.3358862 0.0046876732 0)
(1.3370827 0.0043624185 0)
(1.3381883 0.0040608131 0)
(1.3392108 0.0037810025 0)
(1.3401576 0.0035212934 0)
(1.3410349 0.0032801373 0)
(1.3418486 0.003056117 0)
(1.3426038 0.002847934 0)
(1.3433051 0.0026543977 0)
(1.3439569 0.002474416 0)
(1.3445629 0.0023069857 0)
(1.3451267 0.0021511849 0)
(1.3456513 0.0020061655 0)
(1.3461398 0.0018711464 0)
(1.3465947 0.0017454081 0)
(1.3470185 0.0016282864 0)
(1.3474135 0.0015191684 0)
(1.3477816 0.0014174876 0)
(1.3481249 0.0013227198 0)
(1.3484449 0.0012343805 0)
(1.3487435 0.0011520206 0)
(1.349022 0.0010752241 0)
(1.3492818 0.0010036056 0)
(1.3495242 0.00093680792 0)
(1.3497505 0.00087450044 0)
(1.3499616 0.00081637591 0)
(1.3501587 0.00076214883 0)
(1.3503427 0.00071155329 0)
(1.3505145 0.00066434187 0)
(1.3506748 0.00062028447 0)
(1.3508245 0.00057916676 0)
(1.3509643 0.00054078985 0)
(1.3510948 0.00050496837 0)
(1.3512167 0.0004715307 0)
(1.3513305 0.00044031711 0)
(1.3514368 0.00041117951 0)
(1.3515361 0.0003839789 0)
(1.3516288 0.00035858638 0)
(1.3517153 0.00033487973 0)
(1.3517962 0.00031274621 0)
(1.3518717 0.00029207824 0)
(1.3519422 0.00027277919 0)
(1.3520081 0.00025475519 0)
(1.3520696 0.00023792583 0)
(1.3521271 0.00022220808 0)
(1.3521807 0.00020753566 0)
(1.3522309 0.00019383163 0)
(1.3522777 0.00018104259 0)
(1.3523215 0.00016909137 0)
(1.3523623 0.0001579414 0)
(1.3524005 0.00014750961 0)
(1.3524361 0.00013778652 0)
(1.3524695 0.00012867216 0)
(1.3525004 0.00012020232 0)
(1.3525296 0.00011224031 0)
(1.3525565 0.00010488283 0)
(1.3525823 9.7899454e-05 0)
(1.3526053 9.1533178e-05 0)
(1.3526281 8.5400947e-05 0)
(1.352648 7.9930645e-05 0)
(1.3526684 7.4424776e-05 0)
(1.3526849 6.9804408e-05 0)
(1.3527036 6.4831689e-05 0)
(1.352717 6.1119194e-05 0)
(1.3527349 5.6438786e-05 0)
(1.3527446 5.374259e-05 0)
(1.3527628 4.9143839e-05 0)
(1.3527683 4.7702467e-05 0)
(1.3527889 4.2955962e-05 0)
(1.0005903 0.0034629152 0)
(1.0136865 0.009366018 0)
(1.0370283 0.013046804 0)
(1.0674202 0.014563259 0)
(1.1000315 0.014854523 0)
(1.1316428 0.014564989 0)
(1.1610745 0.013888337 0)
(1.1880674 0.012919244 0)
(1.2125205 0.011806505 0)
(1.2343939 0.010696425 0)
(1.2538077 0.0096727405 0)
(1.2710339 0.0087628202 0)
(1.286401 0.0079659716 0)
(1.3002111 0.0072722127 0)
(1.3127102 0.0066688071 0)
(1.3240903 0.0061419242 0)
(1.3345036 0.0056780712 0)
(1.3440716 0.0052653199 0)
(1.3528927 0.004893934 0)
(1.3610463 0.0045563948 0)
(1.3685975 0.0042470687 0)
(1.3756004 0.0039617746 0)
(1.3821012 0.003697396 0)
(1.3881402 0.0034515809 0)
(1.3937533 0.0032225172 0)
(1.3989728 0.0030087688 0)
(1.403828 0.0028091569 0)
(1.4083456 0.0026226781 0)
(1.4125503 0.0024484487 0)
(1.4164646 0.0022856699 0)
(1.4201094 0.0021336069 0)
(1.423504 0.0019915755 0)
(1.426666 0.0018589353 0)
(1.4296121 0.0017350843 0)
(1.4323573 0.0016194567 0)
(1.4349159 0.0015115197 0)
(1.4373007 0.0014107719 0)
(1.4395241 0.0013167418 0)
(1.441597 0.0012289867 0)
(1.4435301 0.0011470914 0)
(1.4453328 0.0010706669 0)
(1.4470143 0.00099934964 0)
(1.4485827 0.00093279933 0)
(1.4500459 0.00087069799 0)
(1.451411 0.00081274843 0)
(1.4526846 0.00075867299 0)
(1.4538731 0.00070821219 0)
(1.4549822 0.00066112355 0)
(1.4560172 0.0006171808 0)
(1.4569831 0.00057617271 0)
(1.4578847 0.00053790178 0)
(1.4587262 0.00050218432 0)
(1.4595117 0.00046884875 0)
(1.460245 0.00043773529 0)
(1.4609295 0.00040869539 0)
(1.4615685 0.00038159091 0)
(1.4621651 0.00035629263 0)
(1.4627221 0.00033267922 0)
(1.4632422 0.0003106376 0)
(1.4637278 0.0002900621 0)
(1.4641811 0.0002708538 0)
(1.4646045 0.0002529212 0)
(1.4649998 0.00023617911 0)
(1.4653689 0.00022054833 0)
(1.4657136 0.00020595509 0)
(1.4660355 0.0001923308 0)
(1.4663361 0.00017961166 0)
(1.4666168 0.00016773709 0)
(1.466879 0.0001566506 0)
(1.4671238 0.00014629852 0)
(1.4673524 0.00013663136 0)
(1.467566 0.00012760255 0)
(1.4677654 0.00011917079 0)
(1.4679516 0.00011129597 0)
(1.4681255 0.00010394376 0)
(1.4682881 9.7078072e-05 0)
(1.4684398 9.0670468e-05 0)
(1.4685814 8.4686023e-05 0)
(1.4687138 7.9100936e-05 0)
(1.4688376 7.3878682e-05 0)
(1.4689529 6.9005768e-05 0)
(1.4690607 6.4444871e-05 0)
(1.4691614 6.0194939e-05 0)
(1.4692558 5.6207966e-05 0)
(1.4693433 5.251164e-05 0)
(1.4694256 4.9036181e-05 0)
(1.469502 4.5826996e-05 0)
(1.4695743 4.2768568e-05 0)
(1.4696401 4.0001345e-05 0)
(1.4697037 3.731605e-05 0)
(1.4697607 3.4923901e-05 0)
(1.4698173 3.2486659e-05 0)
(1.4698652 3.0496182e-05 0)
(1.4699165 2.8312241e-05 0)
(1.4699561 2.6721957e-05 0)
(1.4700046 2.4632951e-05 0)
(1.4700339 2.3492291e-05 0)
(1.470083 2.1425691e-05 0)
(1.4701001 2.0811028e-05 0)
(1.4701557 1.8648017e-05 0)
(1.0005903 -0.0034629162 0)
(1.0136865 -0.0093660206 0)
(1.0370283 -0.013046807 0)
(1.0674202 -0.014563262 0)
(1.1000315 -0.014854525 0)
(1.1316428 -0.014564991 0)
(1.1610745 -0.013888338 0)
(1.1880674 -0.012919246 0)
(1.2125205 -0.011806507 0)
(1.2343939 -0.010696428 0)
(1.2538077 -0.0096727436 0)
(1.2710339 -0.0087628233 0)
(1.286401 -0.0079659747 0)
(1.3002111 -0.0072722154 0)
(1.3127102 -0.0066688092 0)
(1.3240903 -0.0061419259 0)
(1.3345036 -0.005678073 0)
(1.3440716 -0.0052653219 0)
(1.3528927 -0.0048939359 0)
(1.3610463 -0.0045563965 0)
(1.3685975 -0.0042470703 0)
(1.3756004 -0.0039617766 0)
(1.3821012 -0.0036973986 0)
(1.3881402 -0.0034515837 0)
(1.3937533 -0.0032225196 0)
(1.3989728 -0.0030087708 0)
(1.403828 -0.0028091589 0)
(1.4083456 -0.0026226801 0)
(1.4125503 -0.0024484502 0)
(1.4164646 -0.0022856708 0)
(1.4201094 -0.0021336073 0)
(1.423504 -0.0019915761 0)
(1.426666 -0.0018589367 0)
(1.4296121 -0.0017350871 0)
(1.4323573 -0.0016194605 0)
(1.4349158 -0.0015115234 0)
(1.4373007 -0.0014107744 0)
(1.439524 -0.0013167427 0)
(1.441597 -0.001228986 0)
(1.4435301 -0.0011470897 0)
(1.4453328 -0.0010706656 0)
(1.4470143 -0.00099934969 0)
(1.4485827 -0.00093280114 0)
(1.4500459 -0.00087070144 0)
(1.451411 -0.00081275288 0)
(1.4526846 -0.00075867747 0)
(1.4538731 -0.00070821571 0)
(1.4549821 -0.00066112542 0)
(1.4560171 -0.00061718051 0)
(1.4569831 -0.00057617028 0)
(1.4578847 -0.00053789827 0)
(1.4587262 -0.00050218088 0)
(1.4595117 -0.00046884656 0)
(1.460245 -0.0004377353 0)
(1.4609295 -0.00040869753 0)
(1.4615685 -0.00038159381 0)
(1.4621651 -0.00035629442 0)
(1.4627221 -0.00033267902 0)
(1.4632422 -0.00031063496 0)
(1.4637278 -0.00029005731 0)
(1.4641811 -0.00027084847 0)
(1.4646045 -0.00025291708 0)
(1.4649998 -0.00023617728 0)
(1.4653689 -0.00022054896 0)
(1.4657136 -0.00020595788 0)
(1.4660355 -0.00019233438 0)
(1.4663361 -0.00017961376 0)
(1.4666168 -0.00016773614 0)
(1.466879 -0.00015664629 0)
(1.4671238 -0.00014629203 0)
(1.4673524 -0.00013662526 0)
(1.467566 -0.00012759911 0)
(1.4677654 -0.00011917131 0)
(1.4679516 -0.00011130004 0)
(1.4681255 -0.00010394976 0)
(1.4682881 -9.7083323e-05 0)
(1.4684398 -9.0671738e-05 0)
(1.4685814 -8.4681496e-05 0)
(1.4687138 -7.909218e-05 0)
(1.4688376 -7.3870177e-05 0)
(1.4689529 -6.9000596e-05 0)
(1.4690607 -6.444422e-05 0)
(1.4691614 -6.0200776e-05 0)
(1.4692558 -5.6220129e-05 0)
(1.4693432 -5.2519643e-05 0)
(1.4694256 -4.9034058e-05 0)
(1.469502 -4.5822337e-05 0)
(1.4695743 -4.2763763e-05 0)
(1.4696401 -3.9982765e-05 0)
(1.4697037 -3.729359e-05 0)
(1.4697607 -3.4933022e-05 0)
(1.4698173 -3.2522405e-05 0)
(1.4698652 -3.0511683e-05 0)
(1.4699165 -2.8296646e-05 0)
(1.4699561 -2.6710212e-05 0)
(1.4700046 -2.4632413e-05 0)
(1.470034 -2.3488399e-05 0)
(1.470083 -2.142326e-05 0)
(1.4701001 -2.082261e-05 0)
(1.4701557 -1.8664385e-05 0)
(1.0007347 -0.011814722 0)
(1.0178472 -0.030860927 0)
(1.0462163 -0.041434442 0)
(1.0799018 -0.04519357 0)
(1.1132664 -0.045502351 0)
(1.143782 -0.044080308 0)
(1.1708941 -0.041439982 0)
(1.1945687 -0.037973678 0)
(1.2148582 -0.03419573 0)
(1.2319652 -0.030536888 0)
(1.2462683 -0.027222046 0)
(1.2582339 -0.024313921 0)
(1.2683135 -0.021797889 0)
(1.2768875 -0.01963366 0)
(1.2842554 -0.017773826 0)
(1.2906479 -0.016169652 0)
(1.296243 -0.01477559 0)
(1.3011791 -0.013552298 0)
(1.3055645 -0.012467864 0)
(1.3094838 -0.011497466 0)
(1.3130042 -0.010622162 0)
(1.3161792 -0.0098275135 0)
(1.3190526 -0.0091024114 0)
(1.3216607 -0.0084381772 0)
(1.3240343 -0.0078279043 0)
(1.3261995 -0.007265975 0)
(1.3281786 -0.0067477094 0)
(1.3299913 -0.0062691173 0)
(1.3316544 -0.0058267277 0)
(1.3331829 -0.0054174734 0)
(1.3345896 -0.0050386122 0)
(1.3358862 -0.0046876738 0)
(1.3370827 -0.00436242 0)
(1.3381882 -0.0040608155 0)
(1.3392108 -0.0037810054 0)
(1.3401576 -0.003521296 0)
(1.3410349 -0.0032801391 0)
(1.3418486 -0.0030561177 0)
(1.3426038 -0.0028479336 0)
(1.3433051 -0.0026543969 0)
(1.3439569 -0.0024744154 0)
(1.3445629 -0.002306986 0)
(1.3451267 -0.0021511864 0)
(1.3456513 -0.0020061681 0)
(1.3461398 -0.0018711496 0)
(1.3465947 -0.0017454112 0)
(1.3470185 -0.0016282889 0)
(1.3474135 -0.0015191695 0)
(1.3477816 -0.001417487 0)
(1.3481249 -0.0013227179 0)
(1.3484449 -0.0012343779 0)
(1.3487435 -0.0011520181 0)
(1.349022 -0.0010752224 0)
(1.3492818 -0.0010036053 0)
(1.3495242 -0.00093680903 0)
(1.3497505 -0.00087450209 0)
(1.3499616 -0.00081637728 0)
(1.3501587 -0.00076214898 0)
(1.3503427 -0.0007115518 0)
(1.3505145 -0.00066433885 0)
(1.3506748 -0.00062028064 0)
(1.3508245 -0.00057916328 0)
(1.3509643 -0.00054078763 0)
(1.3510948 -0.0005049681 0)
(1.3512167 -0.0004715323 0)
(1.3513305 -0.00044031965 0)
(1.3514368 -0.00041118156 0)
(1.3515361 -0.00038397923 0)
(1.3516288 -0.00035858462 0)
(1.3517153 -0.00033487642 0)
(1.3517962 -0.00031274255 0)
(1.3518717 -0.00029207556 0)
(1.3519422 -0.00027277841 0)
(1.3520081 -0.00025475674 0)
(1.3520696 -0.00023792872 0)
(1.3521271 -0.00022221108 0)
(1.3521808 -0.00020753718 0)
(1.3522309 -0.00019383044 0)
(1.3522777 -0.00018103947 0)
(1.3523215 -0.00016908759 0)
(1.3523623 -0.00015793799 0)
(1.3524005 -0.00014750824 0)
(1.3524361 -0.00013778886 0)
(1.3524695 -0.00012867687 0)
(1.3525004 -0.00012020653 0)
(1.3525296 -0.00011224163 0)
(1.3525565 -0.00010488169 0)
(1.3525822 -9.7894775e-05 0)
(1.3526053 -9.1526439e-05 0)
(1.3526282 -8.5395799e-05 0)
(1.352648 -7.9932554e-05 0)
(1.3526684 -7.4432216e-05 0)
(1.3526849 -6.9804418e-05 0)
(1.3527037 -6.4828257e-05 0)
(1.3527171 -6.1124299e-05 0)
(1.3527349 -5.6444596e-05 0)
(1.3527446 -5.3741159e-05 0)
(1.3527628 -4.9141174e-05 0)
(1.3527683 -4.770676e-05 0)
(1.3527888 -4.2961749e-05 0)
(1.0014244 -0.026824855 0)
(1.0291272 -0.062791352 0)
(1.0654292 -0.077736552 0)
(1.098962 -0.0805972 0)
(1.1253149 -0.07828517 0)
(1.145053 -0.073153899 0)
(1.1594858 -0.066111278 0)
(1.1694287 -0.058162063 0)
(1.1755354 -0.050296754 0)
(1.1785738 -0.043150708 0)
(1.1793571 -0.036972825 0)
(1.1785949 -0.031771633 0)
(1.1768304 -0.02745184 0)
(1.1744518 -0.023886768 0)
(1.1717287 -0.02094762 0)
(1.1688444 -0.01851578 0)
(1.1659195 -0.016488084 0)
(1.1630317 -0.014779502 0)
(1.1602295 -0.013322985 0)
(1.1575415 -0.012067132 0)
(1.1549828 -0.010973001 0)
(1.1525601 -0.010011062 0)
(1.1502747 -0.0091587473 0)
(1.1481246 -0.0083986045 0)
(1.1461059 -0.0077169506 0)
(1.1442134 -0.0071028881 0)
(1.1424414 -0.0065475916 0)
(1.1407838 -0.006043795 0)
(1.1392344 -0.0055854258 0)
(1.1377869 -0.0051673446 0)
(1.1364353 -0.0047851572 0)
(1.1351738 -0.0044350768 0)
(1.1339968 -0.0041138176 0)
(1.1328987 -0.0038185137 0)
(1.1318746 -0.0035466536 0)
(1.1309195 -0.0032960274 0)
(1.1300289 -0.0030646831 0)
(1.1291985 -0.0028508902 0)
(1.1284242 -0.0026531097 0)
(1.1277022 -0.0024699681 0)
(1.1270291 -0.0023002353 0)
(1.1264014 -0.0021428071 0)
(1.1258161 -0.0019966887 0)
(1.1252702 -0.0018609818 0)
(1.1247612 -0.0017348724 0)
(1.1242865 -0.001617622 0)
(1.1238437 -0.0015085583 0)
(1.1234307 -0.001407068 0)
(1.1230455 -0.0013125908 0)
(1.1226861 -0.0012246131 0)
(1.1223509 -0.0011426631 0)
(1.1220381 -0.0010663068 0)
(1.1217462 -0.00099514462 0)
(1.1214739 -0.00092880822 0)
(1.1212198 -0.00086695785 0)
(1.1209827 -0.0008092802 0)
(1.1207614 -0.00075548579 0)
(1.1205548 -0.00070530621 0)
(1.1203621 -0.0006584931 0)
(1.1201821 -0.0006148161 0)
(1.1200142 -0.00057406067 0)
(1.1198574 -0.00053602727 0)
(1.1197111 -0.0005005307 0)
(1.1195745 -0.00046739835 0)
(1.1194469 -0.00043646974 0)
(1.1193278 -0.00040759616 0)
(1.1192167 -0.00038064056 0)
(1.1191129 -0.00035547485 0)
(1.119016 -0.0003319808 0)
(1.1189255 -0.0003100468 0)
(1.118841 -0.00028956861 0)
(1.1187621 -0.00027044687 0)
(1.1186884 -0.00025259129 0)
(1.1186197 -0.00023591434 0)
(1.1185554 -0.00022033987 0)
(1.1184955 -0.00020579198 0)
(1.1184394 -0.00019220876 0)
(1.1183871 -0.00017952114 0)
(1.1183383 -0.0001676793 0)
(1.1182927 -0.00015661546 0)
(1.11825 -0.00014629249 0)
(1.1182103 -0.00013663929 0)
(1.1181731 -0.00012763805 0)
(1.1181384 -0.00011920594 0)
(1.1181059 -0.00011135906 0)
(1.1180757 -0.00010398896 0)
(1.1180473 -9.7156168e-05 0)
(1.1180211 -9.0705038e-05 0)
(1.1179963 -8.4791594e-05 0)
(1.1179734 -7.9138142e-05 0)
(1.1179516 -7.4020762e-05 0)
(1.1179318 -6.8990224e-05 0)
(1.1179128 -6.4647032e-05 0)
(1.1178955 -6.0157962e-05 0)
(1.117879 -5.6584958e-05 0)
(1.1178635 -5.2430702e-05 0)
(1.11785 -4.973667e-05 0)
(1.1178349 -4.5801135e-05 0)
(1.1178261 -4.4314668e-05 0)
(1.1178083 -4.0570249e-05 0)
(1.0016583 -0.05381943 0)
(1.0359761 -0.10128444 0)
(1.0597199 -0.11073663 0)
(1.0628947 -0.10592202 0)
(1.0515569 -0.096228728 0)
(1.0340529 -0.083934061 0)
(1.0142795 -0.070327063 0)
(0.99360703 -0.056981334 0)
(0.97292577 -0.045107479 0)
(0.9531074 -0.03523675 0)
(0.93479538 -0.02740165 0)
(0.91829012 -0.021387228 0)
(0.90362379 -0.0168845 0)
(0.89068067 -0.01356971 0)
(0.87928174 -0.011147749 0)
(0.86923242 -0.0093736586 0)
(0.86034423 -0.0080569275 0)
(0.85244667 -0.0070571267 0)
(0.84539241 -0.006275238 0)
(0.83905793 -0.0056438286 0)
(0.83334126 -0.0051180914 0)
(0.82815884 -0.0046686728 0)
(0.82344212 -0.0042764176 0)
(0.81913467 -0.0039287387 0)
(0.81518961 -0.0036172032 0)
(0.81156765 -0.0033359698 0)
(0.80823544 -0.0030808033 0)
(0.8051644 -0.0028484682 0)
(0.80232979 -0.0026363689 0)
(0.79970999 -0.0024423385 0)
(0.79728597 -0.0022645191 0)
(0.79504086 -0.0021012904 0)
(0.79295963 -0.0019512259 0)
(0.7910288 -0.0018130634 0)
(0.78923627 -0.0016856836 0)
(0.7875711 -0.0015680924 0)
(0.78602338 -0.0014594054 0)
(0.78458411 -0.0013588354 0)
(0.78324511 -0.0012656801 0)
(0.78199889 -0.0011793116 0)
(0.7808386 -0.0010991673 0)
(0.77975798 -0.0010247416 0)
(0.77875127 -0.00095557923 0)
(0.77781317 -0.00089126868 0)
(0.77693881 -0.00083143727 0)
(0.77612367 -0.00077574659 0)
(0.77536362 -0.00072388838 0)
(0.77465481 -0.00067558142 0)
(0.77399367 -0.00063056831 0)
(0.77337693 -0.00058861238 0)
(0.77280153 -0.00054949562 0)
(0.77226464 -0.00051301717 0)
(0.77176363 -0.00047899174 0)
(0.77129606 -0.00044724819 0)
(0.77085967 -0.00041762877 0)
(0.77045234 -0.0003899879 0)
(0.77007212 -0.00036419057 0)
(0.76971717 -0.00034011167 0)
(0.76938581 -0.00031763541 0)
(0.76907644 -0.00029665378 0)
(0.7687876 -0.00027706568 0)
(0.76851791 -0.00025877684 0)
(0.76826609 -0.00024169962 0)
(0.76803096 -0.00022575197 0)
(0.76781139 -0.00021085787 0)
(0.76760635 -0.00019694724 0)
(0.76741489 -0.00018395553 0)
(0.76723608 -0.00017182262 0)
(0.7670691 -0.00016049284 0)
(0.76691316 -0.00014991305 0)
(0.76676752 -0.00014003341 0)
(0.7666315 -0.00013080583 0)
(0.76650446 -0.00012218662 0)
(0.76638582 -0.00011413339 0)
(0.76627501 -0.00010660977 0)
(0.76617152 -9.9579962e-05 0)
(0.76607486 -9.3014843e-05 0)
(0.76598459 -8.6881989e-05 0)
(0.76590026 -8.115763e-05 0)
(0.76582151 -7.5809273e-05 0)
(0.76574794 -7.0819035e-05 0)
(0.76567924 -6.6152773e-05 0)
(0.76561504 -6.1799794e-05 0)
(0.76555512 -5.7722264e-05 0)
(0.76549911 -5.3925517e-05 0)
(0.76544685 -5.0358133e-05 0)
(0.76539796 -4.7044e-05 0)
(0.76535239 -4.3930067e-05 0)
(0.76530971 -4.1069328e-05 0)
(0.76526996 -3.8332827e-05 0)
(0.7652327 -3.5828612e-05 0)
(0.76519805 -3.3433119e-05 0)
(0.76516559 -3.1318483e-05 0)
(0.76513517 -2.9204199e-05 0)
(0.7651071 -2.7385795e-05 0)
(0.76507997 -2.5524253e-05 0)
(0.76505665 -2.4063861e-05 0)
(0.76503057 -2.254527e-05 0)
(0.76501445 -2.1587803e-05 0)
(0.76498346 -2.0984952e-05 0)
(0.91890839 -0.035821913 0)
(0.86271384 -0.062195638 0)
(0.7870597 -0.06251009 0)
(0.69536033 -0.054550395 0)
(0.61089745 -0.044531651 0)
(0.54411592 -0.034015972 0)
(0.49343012 -0.02418754 0)
(0.45479413 -0.01614423 0)
(0.42544582 -0.010265785 0)
(0.40347313 -0.006304145 0)
(0.38715766 -0.0037976294 0)
(0.3749622 -0.0023103384 0)
(0.36566192 -0.0014930154 0)
(0.35836272 -0.0010851186 0)
(0.35244268 -0.0009060723 0)
(0.34748201 -0.00084105135 0)
(0.34320348 -0.00082372362 0)
(0.33942726 -0.00081931006 0)
(0.33603793 -0.00081185199 0)
(0.33296114 -0.00079580153 0)
(0.33014778 -0.00077081194 0)
(0.32756384 -0.00073870994 0)
(0.3251842 -0.00070188955 0)
(0.32298902 -0.00066256563 0)
(0.32096172 -0.00062249931 0)
(0.31908785 -0.00058295704 0)
(0.31735449 -0.00054477116 0)
(0.31574995 -0.00050843392 0)
(0.3142636 -0.00047419168 0)
(0.31288574 -0.00044212494 0)
(0.31160755 -0.00041220991 0)
(0.31042101 -0.00038436204 0)
(0.30931883 -0.00035846518 0)
(0.30829438 -0.00033439021 0)
(0.30734165 -0.00031200633 0)
(0.30645515 -0.00029118713 0)
(0.30562991 -0.00027181379 0)
(0.30486136 -0.00025377647 0)
(0.30414535 -0.00023697438 0)
(0.30347807 -0.00022131524 0)
(0.302856 -0.0002067148 0)
(0.30227596 -0.00019309618 0)
(0.30173496 -0.00018038903 0)
(0.30123029 -0.0001685289 0)
(0.30075942 -0.00015745671 0)
(0.30032002 -0.0001471181 0)
(0.29990993 -0.00013746298 0)
(0.29952715 -0.00012844516 0)
(0.29916983 -0.00012002174 0)
(0.29883624 -0.00011215263 0)
(0.29852478 -0.00010480049 0)
(0.29823397 -9.7930701e-05 0)
(0.29796241 -9.1511039e-05 0)
(0.29770882 -8.5511614e-05 0)
(0.29747201 -7.9904853e-05 0)
(0.29725084 -7.4665172e-05 0)
(0.29704429 -6.9768581e-05 0)
(0.29685138 -6.5192824e-05 0)
(0.2966712 -6.0917183e-05 0)
(0.29650291 -5.6921945e-05 0)
(0.29634572 -5.3188434e-05 0)
(0.2961989 -4.9699242e-05 0)
(0.29606176 -4.6438116e-05 0)
(0.29593366 -4.338977e-05 0)
(0.29581401 -4.0540323e-05 0)
(0.29570224 -3.787719e-05 0)
(0.29559784 -3.5388644e-05 0)
(0.29550032 -3.306371e-05 0)
(0.29540922 -3.0892062e-05 0)
(0.29532413 -2.886346e-05 0)
(0.29524464 -2.6968224e-05 0)
(0.29517039 -2.519701e-05 0)
(0.29510103 -2.3541364e-05 0)
(0.29503624 -2.1993215e-05 0)
(0.29497573 -2.0546086e-05 0)
(0.29491919 -1.9193531e-05 0)
(0.29486638 -1.7930375e-05 0)
(0.29481705 -1.6750441e-05 0)
(0.29477097 -1.5649378e-05 0)
(0.29472793 -1.462043e-05 0)
(0.29468771 -1.3660387e-05 0)
(0.29465016 -1.2762067e-05 0)
(0.29461507 -1.192377e-05 0)
(0.2945823 -1.1137516e-05 0)
(0.29455168 -1.0405469e-05 0)
(0.29452309 -9.7161778e-06 0)
(0.29449637 -9.0770761e-06 0)
(0.29447142 -8.4790035e-06 0)
(0.29444808 -7.9300803e-06 0)
(0.29442632 -7.3961082e-06 0)
(0.29440599 -6.9097558e-06 0)
(0.294387 -6.4602631e-06 0)
(0.2943692 -6.0628329e-06 0)
(0.29435259 -5.6565983e-06 0)
(0.29433715 -5.2937139e-06 0)
(0.2943225 -4.97162e-06 0)
(0.29430919 -4.6856637e-06 0)
(0.29429569 -4.5322805e-06 0)
(0.29428502 -4.4001413e-06 0)
(0.29426875 -5.0536075e-06 0)
)
;

boundaryField
{
    top
    {
        type            fixedValue;
        value           uniform (0 0 0);
    }
    inlet
    {
        type            fixedValue;
        value           uniform (1 0 0);
    }
    outlet
    {
        type            zeroGradient;
    }
    bottom
    {
        type            fixedValue;
        value           uniform (0 0 0);
    }
    back
    {
        type            empty;
    }
    front
    {
        type            empty;
    }
}


// ************************************************************************* //
