/*--------------------------------*- C++ -*----------------------------------*\
| =========                 |                                                 |
| \\      /  F ield         | OpenFOAM: The Open Source CFD Toolbox           |
|  \\    /   O peration     | Version:  v1812                                 |
|   \\  /    A nd           | Web:      www.OpenFOAM.com                      |
|    \\/     M anipulation  |                                                 |
\*---------------------------------------------------------------------------*/
FoamFile
{
    version     2.0;
    format      ascii;
    class       surfaceScalarField;
    location    "13.45";
    object      phi;
}
// * * * * * * * * * * * * * * * * * * * * * * * * * * * * * * * * * * * * * //

dimensions      [0 3 -1 0 0 0 0];
oriented        oriented;


internalField   nonuniform List<scalar> 
1890
(
0.0093061957
0.00069380425
0.0082843931
0.0010218027
0.0073298986
0.00095449449
0.0064869552
0.00084294333
0.0057695845
0.0007173708
0.00518986
0.00057972443
0.004738168
0.00045169205
0.00439519
0.00034297801
0.0041390268
0.00025616318
0.003949107
0.00018991984
0.003807888
0.00014121897
0.0037013782
0.00010650979
0.003619058
8.2320215e-05
0.0035534117
6.564624e-05
0.0034992845
5.4127253e-05
0.0034532444
4.604005e-05
0.0034130501
4.0194296e-05
0.0033772574
3.5792759e-05
0.0033449386
3.2318761e-05
0.0033154893
2.944928e-05
0.0032885008
2.6988572e-05
0.0032636805
2.4820296e-05
0.003240805
2.2875476e-05
0.0032196926
2.1112417e-05
0.0032001879
1.9504659e-05
0.0031821539
1.8034023e-05
0.0031654672
1.6686735e-05
0.0031500158
1.5451372e-05
0.0031356979
1.4317866e-05
0.0031224209
1.327707e-05
0.0031101003
1.2320584e-05
0.0030986596
1.1440711e-05
0.0030880291
1.0630425e-05
0.0030781458
9.8833604e-06
0.003068952
9.1937721e-06
0.0030603955
8.5565033e-06
0.0030524286
7.9669309e-06
0.0030450076
7.4209166e-06
0.0030380929
6.9147569e-06
0.0030316478
6.4451285e-06
0.0030256387
6.0090482e-06
0.0030200349
5.6038312e-06
0.0030148078
5.2270523e-06
0.0030099313
4.87652e-06
0.0030053811
4.5502402e-06
0.0030011347
4.2464037e-06
0.0029971713
3.9633566e-06
0.0029934717
3.6995855e-06
0.002990018
3.4537072e-06
0.0029867936
3.2244432e-06
0.002983783
3.010622e-06
0.0029809718
2.8111623e-06
0.0029783467
2.6250636e-06
0.0029758953
2.4514055e-06
0.002973606
2.2893306e-06
0.0029714679
2.1380502e-06
0.0029694711
1.9968325e-06
0.0029676061
1.8649943e-06
0.0029658642
1.7419087e-06
0.0029642372
1.6269811e-06
0.0029627176
1.5196663e-06
0.0029612981
1.4194502e-06
0.0029599723
1.3258587e-06
0.0029587338
1.2384508e-06
0.002957577
1.1568123e-06
0.0029564964
1.0805628e-06
0.0029554871
1.0093481e-06
0.0029545442
9.4283253e-07
0.0029536635
8.8071016e-07
0.0029528408
8.2268717e-07
0.0029520724
7.6849107e-07
0.0029513545
7.1786605e-07
0.0029506839
6.7057543e-07
0.0029500575
6.263918e-07
0.0029494724
5.8512097e-07
0.0029489258
5.4656231e-07
0.0029484153
5.1055604e-07
0.0029479383
4.7691604e-07
0.0029474928
4.4550975e-07
0.0029470767
4.1615938e-07
0.0029466879
3.8876593e-07
0.0029463248
3.6314104e-07
0.0029459856
3.3924243e-07
0.0029456687
3.1685186e-07
0.0029453727
2.9601251e-07
0.0029450962
2.764401e-07
0.0029448379
2.5830751e-07
0.0029445967
2.412101e-07
0.0029443712
2.254466e-07
0.0029441608
2.1042943e-07
0.0029439641
1.9681848e-07
0.0029437804
1.8366097e-07
0.0029436085
1.7189875e-07
0.0029434482
1.602731e-07
0.0029432979
1.5030035e-07
0.0029431575
1.4044001e-07
0.0029430253
1.3212906e-07
0.0029429002
1.2510059e-07
0.0029427808
1.194532e-07
1.2577544e-07
0.010339525
0.00035427931
0.010570754
0.00079057334
0.010606301
0.0009189482
0.010547572
0.00090167137
0.010422317
0.00084262624
0.010244356
0.00075768559
0.010039421
0.00065662744
0.0098287427
0.00055365587
0.009625135
0.00045977083
0.0094353013
0.00037975354
0.0092624277
0.00031409258
0.0091075332
0.00026140425
0.008970154
0.00021969948
0.0088489023
0.00018689786
0.0087419716
0.00016105802
0.0086474927
0.00014051895
0.008563694
0.00012399297
0.0084890108
0.000110476
0.0084221096
9.921987e-05
0.0083618775
8.9681399e-05
0.0083073954
8.1470661e-05
0.0082579079
7.4307839e-05
0.0082127929
6.7990492e-05
0.0081715353
6.2369991e-05
0.0081337049
5.733502e-05
0.0080989388
5.2800195e-05
0.0080669272
4.8698278e-05
0.0080374036
4.4974964e-05
0.0080101361
4.1585394e-05
0.0079849213
3.8491843e-05
0.0079615798
3.5662146e-05
0.0079399519
3.3068598e-05
0.0079198952
3.068716e-05
0.0079012817
2.8496844e-05
0.0078839962
2.6479244e-05
0.0078679345
2.4618156e-05
0.0078530022
2.2899262e-05
0.0078391133
2.1309867e-05
0.0078261893
1.9838676e-05
0.0078141589
1.8475615e-05
0.0078029563
1.7211659e-05
0.0077925214
1.6038705e-05
0.007782799
1.4949456e-05
0.0077737382
1.3937316e-05
0.0077652921
1.2996311e-05
0.0077574175
1.2121011e-05
0.0077500744
1.1306471e-05
0.0077432258
1.054818e-05
0.0077368375
9.8420013e-06
0.0077308778
9.1841516e-06
0.0077253173
8.5711495e-06
0.0077201286
7.9997903e-06
0.0077152866
7.467129e-06
0.0077107675
6.9704418e-06
0.0077065496
6.5072178e-06
0.0077026125
6.0751342e-06
0.0076989373
5.6720414e-06
0.0076955064
5.2959518e-06
0.0076923033
4.9450115e-06
0.0076893128
4.617508e-06
0.0076865206
4.3118435e-06
0.0076839135
4.0265326e-06
0.0076814792
3.7602024e-06
0.007679206
3.5115708e-06
0.0076770834
3.279453e-06
0.0076751012
3.062737e-06
0.0076732502
2.8603957e-06
0.0076715215
2.6714724e-06
0.0076699072
2.4950698e-06
0.0076683995
2.3303475e-06
0.0076669915
2.1765354e-06
0.0076656765
2.0328867e-06
0.0076644483
1.8987372e-06
0.0076633012
1.7734411e-06
0.0076622299
1.6564306e-06
0.0076612293
1.5471371e-06
0.0076602948
1.4450905e-06
0.007659422
1.3497651e-06
0.0076586067
1.2607789e-06
0.0076578453
1.1776166e-06
0.007657134
1.1000108e-06
0.0076564697
1.0274285e-06
0.0076558492
9.5974554e-07
0.0076552697
8.9636413e-07
0.0076547283
8.3737687e-07
0.0076542228
7.8199456e-07
0.0076537504
7.3065071e-07
0.0076533094
6.8222596e-07
0.0076528972
6.3769807e-07
0.0076525125
5.9511607e-07
0.0076521528
5.5656572e-07
0.0076518173
5.1912524e-07
0.0076515029
4.862669e-07
0.0076512105
4.5264698e-07
0.0076509356
4.2524472e-07
0.0076506808
3.9523397e-07
0.0076504386
3.7437943e-07
0.0076502165
3.4717217e-07
0.0076499998
3.3604871e-07
3.1074931e-07
0.010188704
0.00016557515
0.010530487
0.00044879099
0.010851453
0.00059798177
0.011124174
0.00062895025
0.011350581
0.00061621887
0.011524486
0.00058378056
0.01164633
0.00053478421
0.011724155
0.0004758305
0.011767999
0.00041592666
0.011786639
0.000361114
0.011787114
0.00031361711
0.011775058
0.00027346025
0.011754861
0.00023989718
0.011729768
0.00021199031
0.011702054
0.00018877261
0.011673239
0.00016933388
0.011644339
0.00015289296
0.011616003
0.00013881183
0.011588629
0.00012659379
0.011562446
0.00011586445
0.011537572
0.00010634494
0.011514052
9.7826998e-05
0.01149189
9.0153361e-05
0.011471056
8.3203368e-05
0.011451509
7.6882618e-05
0.011433193
7.1115567e-05
0.011416051
6.5840299e-05
0.011400021
6.1004914e-05
0.011385042
5.6565071e-05
0.011371051
5.2482336e-05
0.01135799
4.8723022e-05
0.011345801
4.5257382e-05
0.01133443
4.2058989e-05
0.011323822
3.910427e-05
0.011313929
3.6372125e-05
0.011304704
3.3843615e-05
0.011296101
3.1501703e-05
0.01128808
2.9331026e-05
0.011280601
2.7317707e-05
0.011273628
2.5449179e-05
0.011267125
2.3714044e-05
0.011261062
2.2101945e-05
0.011255408
2.0603445e-05
0.011250135
1.9209941e-05
0.011245218
1.7913566e-05
0.011240632
1.670712e-05
0.011236354
1.5583998e-05
0.011232364
1.4538132e-05
0.011228643
1.356395e-05
0.01122517
1.2656311e-05
0.011221931
1.1810482e-05
0.011218909
1.1022096e-05
0.011216089
1.0287111e-05
0.011213457
9.6017995e-06
0.011211002
8.9627075e-06
0.01120871
8.3666368e-06
0.011206572
7.8106234e-06
0.011204576
7.2919128e-06
0.011202713
6.807953e-06
0.011200974
6.3563649e-06
0.011199351
5.9349481e-06
0.011197836
5.5416541e-06
0.011196421
5.1745755e-06
0.011195101
4.831948e-06
0.011193868
4.5121259e-06
0.011192718
4.2135772e-06
0.011191643
3.9348749e-06
0.01119064
3.6746803e-06
0.011189703
3.4317623e-06
0.011188829
3.2049518e-06
0.011188012
2.9931747e-06
0.011187249
2.7954227e-06
0.011186537
2.6107724e-06
0.011185872
2.4383326e-06
0.011185252
2.2773286e-06
0.011184672
2.1269591e-06
0.01118413
1.9865773e-06
0.011183625
1.8554426e-06
0.011183152
1.7330376e-06
0.011182711
1.6186394e-06
0.011182299
1.5118923e-06
0.011181915
1.4120449e-06
0.011181556
1.3189878e-06
0.01118122
1.2318079e-06
0.011180907
1.1507646e-06
0.011180614
1.074581e-06
0.011180341
1.004108e-06
0.011180086
9.373891e-07
0.011179847
8.7633595e-07
0.011179624
8.1755608e-07
0.011179416
7.6497042e-07
0.011179222
7.1277701e-07
0.01117904
6.6840723e-07
0.011178872
6.210693e-07
0.011178712
5.8515758e-07
0.011178566
5.4116409e-07
0.011178425
5.1523674e-07
0.0111783
4.7217138e-07
0.011178177
4.5905299e-07
4.1614004e-07
0.010097182
6.839355e-05
0.010346961
0.00019901112
0.010662469
0.00028247387
0.010982753
0.00030866649
0.011290229
0.00030874342
0.011575251
0.00029875788
0.011829022
0.00028101346
0.012047865
0.00025698756
0.012233272
0.00023051982
0.01238924
0.0002051459
0.012520295
0.00018256235
0.012630755
0.00016299957
0.012724428
0.00014622491
0.012804515
0.00013190312
0.012873613
0.00011967426
0.012933772
0.00010917461
0.012986596
0.00010006907
0.013033332
9.2076368e-05
0.01307495
8.4975254e-05
0.013112216
7.8598613e-05
0.013145739
7.2822303e-05
0.013176012
6.7553937e-05
0.013203441
6.2723924e-05
0.013228366
5.8278897e-05
0.013251071
5.4176989e-05
0.013271802
5.0384436e-05
0.01329077
4.6873167e-05
0.013308155
4.3619182e-05
0.013324119
4.0601462e-05
0.0133388
3.780128e-05
0.013352321
3.520175e-05
0.013364791
3.2787527e-05
0.013376306
3.0544591e-05
0.01338695
2.846009e-05
0.0133968
2.6522226e-05
0.013405923
2.4720143e-05
0.013414381
2.3043851e-05
0.013422228
2.1484151e-05
0.013429513
2.0032562e-05
0.013436281
1.8681269e-05
0.013442572
1.7423058e-05
0.013448423
1.625127e-05
0.013453866
1.5159755e-05
0.013458933
1.4142825e-05
0.013463652
1.3195223e-05
0.013468047
1.2312079e-05
0.013472142
1.1488883e-05
0.013475959
1.0721456e-05
0.013479517
1.0005922e-05
0.013482834
9.3386929e-06
0.013485928
8.7164346e-06
0.013488814
8.1360553e-06
0.013491507
7.5946877e-06
0.013494019
7.0896612e-06
0.013496363
6.6185004e-06
0.013498551
6.1789003e-06
0.013500593
5.7687128e-06
0.013502499
5.3859393e-06
0.013504278
5.0287215e-06
0.013505939
4.6953327e-06
0.01350749
4.3841617e-06
0.013508938
4.0937136e-06
0.01351029
3.8226019e-06
0.013511552
3.5695246e-06
0.013512731
3.3332811e-06
0.013513832
3.1127436e-06
0.01351486
2.9068592e-06
0.01351582
2.7146398e-06
0.013516716
2.5351683e-06
0.013517554
2.3675857e-06
0.013518336
2.2111077e-06
0.013519066
2.0649821e-06
0.013519748
1.9285474e-06
0.013520386
1.8011449e-06
0.013520981
1.6822e-06
0.013521537
1.5711192e-06
0.013522056
1.4674192e-06
0.013522541
1.3705399e-06
0.013522994
1.2801098e-06
0.013523417
1.1955731e-06
0.013523812
1.1167044e-06
0.013524181
1.0429144e-06
0.013524526
9.7417595e-07
0.013524848
9.0974817e-07
0.013525149
8.4993631e-07
0.01352543
7.936551e-07
0.013525692
7.4166216e-07
0.013525937
6.9223547e-07
0.013526166
6.4732386e-07
0.01352638
6.0374143e-07
0.01352658
5.6503336e-07
0.013526767
5.2602723e-07
0.013526941
4.9390327e-07
0.013527104
4.5838071e-07
0.013527257
4.3245955e-07
0.013527399
3.9879858e-07
0.013527533
3.8087575e-07
0.013527658
3.4716216e-07
0.013527779
3.3802709e-07
3.0567777e-07
0.010068394
-1.4304496e-12
0.010267405
-6.8004185e-13
0.010549879
-1.1130398e-13
0.010858545
7.3617025e-13
0.011167288
-3.1813962e-13
0.011466046
-1.7421674e-12
0.01174706
-3.8781681e-13
0.012004047
7.819605e-14
0.012234567
-4.1622467e-15
0.012439713
3.5046496e-13
0.012622275
1.229907e-12
0.012785275
9.3385681e-14
0.0129315
-2.9134655e-13
0.013063403
2.8854602e-13
0.013183077
2.6226544e-13
0.013292252
-8.7588064e-13
0.013392321
6.3590142e-13
0.013484397
9.691404e-13
0.013569373
1.5456403e-13
0.013647971
-8.9329585e-15
0.013720794
8.2885625e-13
0.013788347
1.6833628e-12
0.013851071
1.4214482e-12
0.01390935
2.2110542e-12
0.013963527
2.4384548e-12
0.014013912
1.1384194e-12
0.014060785
-5.0978889e-13
0.014104404
-1.8328727e-12
0.014145006
-2.7672883e-12
0.014182807
-4.2767122e-12
0.014218009
-5.2973421e-12
0.014250796
-3.1184709e-12
0.014281341
-1.5505365e-12
0.014309801
-1.7781475e-14
0.014336323
4.1797576e-12
0.014361043
6.3298782e-12
0.014384087
5.5543542e-12
0.014405571
3.2659569e-12
0.014425604
1.9255407e-12
0.014444285
-7.6338012e-13
0.014461708
-4.2134037e-12
0.014477959
-4.264835e-12
0.014493119
-2.806447e-12
0.014507262
-8.9993761e-13
0.014520457
1.1727259e-12
0.014532769
5.2445788e-12
0.014544258
5.5866203e-12
0.014554979
5.2606658e-12
0.014564985
6.0268902e-12
0.014574324
2.7623049e-12
0.014583041
-1.1561227e-12
0.014591177
-3.4484179e-12
0.014598771
-4.4121006e-12
0.014605861
-2.0319843e-12
0.014612479
1.952405e-12
0.014618658
7.6211132e-12
0.014624427
9.9858946e-12
0.014629813
8.5096153e-12
0.014634842
8.0809715e-12
0.014639537
4.2117394e-12
0.014643921
7.6864063e-13
0.014648015
-3.4849704e-12
0.014651837
-2.387091e-12
0.014655407
2.2610835e-12
0.01465874
3.3909102e-12
0.014661853
1.1588958e-11
0.01466476
1.4014657e-11
0.014667475
1.2716191e-11
0.01467001
1.2169284e-11
0.014672377
4.920088e-12
0.014674588
-1.5193574e-12
0.014676653
-1.8210783e-12
0.014678582
-2.9318528e-12
0.014680383
1.4571876e-12
0.014682065
6.2644891e-12
0.014683636
1.7675126e-11
0.014685104
2.072351e-11
0.014686474
1.5650181e-11
0.014687754
9.6906282e-12
0.01468895
-2.0245332e-12
0.014690067
-1.2157619e-11
0.01469111
-8.0385454e-12
0.014692084
-4.9929596e-12
0.014692993
3.0697049e-13
0.014693843
1.7530564e-11
0.014694637
2.3174199e-11
0.014695379
-5.9551447e-12
0.014696071
-1.1899125e-11
0.014696718
3.9798273e-11
0.014697322
-1.4393789e-11
0.014697887
-1.3036051e-10
0.014698413
-1.938574e-11
0.014698907
1.394572e-10
0.014699365
1.7563458e-12
0.014699798
-1.386877e-10
0.014700197
-5.3356135e-11
0.014700578
2.6339998e-11
0.014700925
-3.6750162e-12
0.014701263
-3.6460551e-11
-4.4277281e-11
0.010068394
-6.8393554e-05
0.010267405
-0.00019901112
0.010549879
-0.00028247388
0.010858545
-0.00030866649
0.011167288
-0.00030874342
0.011466046
-0.00029875788
0.01174706
-0.00028101346
0.012004047
-0.00025698756
0.012234567
-0.00023051982
0.012439713
-0.0002051459
0.012622275
-0.00018256235
0.012785275
-0.00016299957
0.0129315
-0.00014622491
0.013063403
-0.00013190312
0.013183077
-0.00011967426
0.013292252
-0.00010917461
0.013392321
-0.00010006907
0.013484397
-9.2076365e-05
0.013569373
-8.4975252e-05
0.013647971
-7.8598613e-05
0.013720794
-7.2822302e-05
0.013788347
-6.7553936e-05
0.013851071
-6.2723922e-05
0.01390935
-5.8278895e-05
0.013963527
-5.4176988e-05
0.014013912
-5.0384434e-05
0.014060785
-4.6873169e-05
0.014104404
-4.3619185e-05
0.014145006
-4.0601466e-05
0.014182807
-3.7801286e-05
0.014218009
-3.5201757e-05
0.014250796
-3.2787533e-05
0.014281341
-3.0544592e-05
0.014309801
-2.8460089e-05
0.014336323
-2.6522221e-05
0.014361043
-2.4720135e-05
0.014384087
-2.3043843e-05
0.014405571
-2.1484144e-05
0.014425604
-2.0032559e-05
0.014444285
-1.8681269e-05
0.014461708
-1.7423062e-05
0.014477959
-1.6251277e-05
0.014493119
-1.515976e-05
0.014507262
-1.4142828e-05
0.014520457
-1.3195223e-05
0.014532769
-1.2312074e-05
0.014544258
-1.1488874e-05
0.014554979
-1.0721444e-05
0.014564985
-1.0005912e-05
0.014574324
-9.3386858e-06
0.014583041
-8.7164335e-06
0.014591177
-8.1360602e-06
0.014598771
-7.5946918e-06
0.014605861
-7.0896644e-06
0.014612479
-6.6184995e-06
0.014618658
-6.1788925e-06
0.014624427
-5.7686997e-06
0.014629813
-5.3859238e-06
0.014634842
-5.0287068e-06
0.014639537
-4.6953188e-06
0.014643921
-4.3841543e-06
0.014648015
-4.093715e-06
0.014651837
-3.8226027e-06
0.014655407
-3.5695249e-06
0.01465874
-3.3332788e-06
0.014661853
-3.1127339e-06
0.01466476
-2.9068399e-06
0.014667475
-2.7146145e-06
0.01467001
-2.5351459e-06
0.014672377
-2.3675682e-06
0.014674588
-2.2110968e-06
0.014676653
-2.0649845e-06
0.014678582
-1.9285515e-06
0.014680383
-1.8011445e-06
0.014682065
-1.6821942e-06
0.014683636
-1.5711006e-06
0.014685104
-1.4673922e-06
0.014686474
-1.3705125e-06
0.014687754
-1.28009e-06
0.01468895
-1.1955636e-06
0.014690067
-1.1167034e-06
0.01469111
-1.0429225e-06
0.014692084
-9.7419081e-07
0.014692993
-9.0975623e-07
0.014693843
-8.4992758e-07
0.014694637
-7.9364239e-07
0.014695379
-7.4166208e-07
0.014696071
-6.9221138e-07
0.014696718
-6.4729953e-07
0.014697322
-6.0379576e-07
0.014697887
-5.6510262e-07
0.014698413
-5.2602555e-07
0.014698907
-4.9388914e-07
0.014699366
-4.5843052e-07
0.014699798
-4.325589e-07
0.014700197
-3.9886684e-07
0.014700578
-3.8087529e-07
0.014700925
-3.4716832e-07
0.014701263
-3.3809248e-07
-3.0575942e-07
0.010097182
-0.00016557515
0.010346961
-0.000448791
0.010662469
-0.00059798178
0.010982753
-0.00062895025
0.011290229
-0.00061621887
0.011575251
-0.00058378056
0.011829022
-0.00053478421
0.012047865
-0.00047583049
0.012233272
-0.00041592665
0.01238924
-0.00036111399
0.012520295
-0.00031361712
0.012630755
-0.00027346026
0.012724428
-0.00023989719
0.012804515
-0.00021199031
0.012873613
-0.00018877261
0.012933772
-0.00016933388
0.012986596
-0.00015289296
0.013033332
-0.00013881183
0.01307495
-0.00012659379
0.013112216
-0.00011586444
0.013145739
-0.00010634493
0.013176012
-9.7826998e-05
0.013203441
-9.0153364e-05
0.013228366
-8.3203369e-05
0.013251071
-7.6882619e-05
0.013271802
-7.1115568e-05
0.01329077
-6.58403e-05
0.013308155
-6.1004913e-05
0.013324119
-5.6565073e-05
0.0133388
-5.2482338e-05
0.013352321
-4.8723024e-05
0.013364791
-4.5257382e-05
0.013376306
-4.205899e-05
0.01338695
-3.910427e-05
0.0133968
-3.6372123e-05
0.013405923
-3.3843613e-05
0.013414381
-3.1501701e-05
0.013422228
-2.9331023e-05
0.013429513
-2.7317703e-05
0.013436281
-2.5449177e-05
0.013442572
-2.3714044e-05
0.013448423
-2.2101944e-05
0.013453866
-2.0603447e-05
0.013458933
-1.9209945e-05
0.013463652
-1.7913569e-05
0.013468047
-1.670712e-05
0.013472142
-1.5583994e-05
0.013475959
-1.4538126e-05
0.013479517
-1.3563942e-05
0.013482834
-1.2656306e-05
0.013485928
-1.1810478e-05
0.013488814
-1.102209e-05
0.013491507
-1.0287109e-05
0.013494019
-9.6018003e-06
0.013496363
-8.9627096e-06
0.013498551
-8.3666399e-06
0.013500593
-7.8106237e-06
0.013502499
-7.291907e-06
0.013504278
-6.8079386e-06
0.013505939
-6.3563507e-06
0.01350749
-5.9349352e-06
0.013508938
-5.5416405e-06
0.01351029
-5.1745701e-06
0.013511552
-4.8319512e-06
0.013512731
-4.5121322e-06
0.013513832
-4.2135792e-06
0.01351486
-3.9348715e-06
0.01351582
-3.6746715e-06
0.013516716
-3.4317436e-06
0.013517554
-3.2049293e-06
0.013518336
-2.9931565e-06
0.013519066
-2.7954054e-06
0.013519748
-2.6107652e-06
0.013520386
-2.4383361e-06
0.013520981
-2.2773348e-06
0.013521537
-2.1269666e-06
0.013522056
-1.9865805e-06
0.013522541
-1.8554341e-06
0.013522994
-1.7330146e-06
0.013523417
-1.6186067e-06
0.013523812
-1.5118664e-06
0.013524181
-1.4120336e-06
0.013524526
-1.3189953e-06
0.013524848
-1.23183e-06
0.013525149
-1.1507941e-06
0.01352543
-1.0746122e-06
0.013525692
-1.004101e-06
0.013525937
-9.3735399e-07
0.013526166
-8.7634175e-07
0.01352638
-8.1757858e-07
0.01352658
-7.6491055e-07
0.013526767
-7.1272068e-07
0.013526941
-6.6854172e-07
0.013527104
-6.2127569e-07
0.013527257
-5.8516602e-07
0.013527399
-5.4105781e-07
0.013527533
-5.1524484e-07
0.013527658
-4.7224819e-07
0.013527779
-4.5909895e-07
-4.1618483e-07
0.010188704
-0.00035427932
0.010530487
-0.00079057335
0.010851453
-0.00091894821
0.011124174
-0.00090167137
0.011350581
-0.00084262624
0.011524486
-0.00075768559
0.01164633
-0.00065662744
0.011724155
-0.00055365586
0.011767999
-0.00045977083
0.011786639
-0.00037975353
0.011787114
-0.00031409258
0.011775058
-0.00026140426
0.011754861
-0.00021969949
0.011729768
-0.00018689787
0.011702054
-0.00016105803
0.011673239
-0.00014051895
0.011644339
-0.00012399296
0.011616003
-0.000110476
0.011588629
-9.9219865e-05
0.011562446
-8.9681396e-05
0.011537572
-8.147066e-05
0.011514052
-7.4307841e-05
0.01149189
-6.7990495e-05
0.011471056
-6.2369994e-05
0.011451509
-5.7335024e-05
0.011433193
-5.2800197e-05
0.011416051
-4.8698278e-05
0.011400021
-4.4974963e-05
0.011385042
-4.1585394e-05
0.011371051
-3.8491842e-05
0.01135799
-3.5662144e-05
0.011345801
-3.3068597e-05
0.01133443
-3.068716e-05
0.011323822
-2.8496844e-05
0.011313929
-2.6479245e-05
0.011304704
-2.4618159e-05
0.011296101
-2.2899264e-05
0.01128808
-2.1309866e-05
0.011280601
-1.9838675e-05
0.011273628
-1.8475612e-05
0.011267125
-1.7211654e-05
0.011261062
-1.6038701e-05
0.011255408
-1.4949454e-05
0.011250135
-1.3937316e-05
0.011245218
-1.2996313e-05
0.011240632
-1.2121014e-05
0.011236354
-1.1306475e-05
0.011232365
-1.0548181e-05
0.011228643
-9.8420019e-06
0.01122517
-9.1841482e-06
0.011221931
-8.5711408e-06
0.011218909
-7.9997816e-06
0.011216089
-7.4671211e-06
0.011213457
-6.9704372e-06
0.011211002
-6.5072181e-06
0.01120871
-6.0751405e-06
0.011206572
-5.6720508e-06
0.011204576
-5.2959562e-06
0.011202713
-4.9450119e-06
0.011200974
-4.6175007e-06
0.011199351
-4.3118276e-06
0.011197836
-4.0265152e-06
0.011196422
-3.7601892e-06
0.011195101
-3.5115653e-06
0.011193868
-3.2794535e-06
0.011192718
-3.0627456e-06
0.011191643
-2.8604096e-06
0.01119064
-2.6714806e-06
0.011189703
-2.4950694e-06
0.011188829
-2.3303369e-06
0.011188012
-2.1765114e-06
0.011187249
-2.0328608e-06
0.011186537
-1.8987175e-06
0.011185873
-1.7734322e-06
0.011185252
-1.656438e-06
0.011184672
-1.5471579e-06
0.01118413
-1.4451137e-06
0.011183625
-1.3497776e-06
0.011183152
-1.2607728e-06
0.011182711
-1.1775941e-06
0.0111823
-1.0999768e-06
0.011181915
-1.0274001e-06
0.011181556
-9.5973273e-07
0.01118122
-8.963713e-07
0.011180907
-8.3741197e-07
0.011180614
-7.8203196e-07
0.011180341
-7.3066817e-07
0.011180086
-6.82242e-07
0.011179847
-6.377099e-07
0.011179625
-5.9506627e-07
0.011179416
-5.5648409e-07
0.011179223
-5.1913843e-07
0.01117904
-4.8636272e-07
0.011178872
-4.5270795e-07
0.011178712
-4.2527657e-07
0.011178566
-3.952649e-07
0.011178425
-3.7436637e-07
0.0111783
-3.4715278e-07
0.011178177
-3.3606201e-07
-3.1077901e-07
0.010339525
-0.00069380425
0.010570754
-0.0010218027
0.010606301
-0.00095449449
0.010547572
-0.00084294334
0.010422317
-0.0007173708
0.010244356
-0.00057972444
0.010039421
-0.00045169205
0.0098287427
-0.00034297801
0.009625135
-0.00025616318
0.0094353013
-0.00018991983
0.0092624277
-0.00014121897
0.0091075332
-0.00010650979
0.008970154
-8.2320218e-05
0.0088489023
-6.5646244e-05
0.0087419716
-5.4127255e-05
0.0086474927
-4.604005e-05
0.008563694
-4.0194295e-05
0.0084890108
-3.5792757e-05
0.0084221096
-3.2318758e-05
0.0083618775
-2.9449277e-05
0.0083073954
-2.6988572e-05
0.0082579079
-2.4820296e-05
0.0082127929
-2.2875477e-05
0.0081715353
-2.1112418e-05
0.0081337049
-1.9504661e-05
0.0080989388
-1.8034025e-05
0.0080669272
-1.6686736e-05
0.0080374036
-1.5451372e-05
0.0080101361
-1.4317866e-05
0.0079849213
-1.3277069e-05
0.0079615798
-1.2320583e-05
0.0079399519
-1.144071e-05
0.0079198952
-1.0630424e-05
0.0079012817
-9.8833594e-06
0.0078839962
-9.1937728e-06
0.0078679345
-8.556505e-06
0.0078530022
-7.9669326e-06
0.0078391133
-7.4209186e-06
0.0078261893
-6.9147577e-06
0.0078141589
-6.4451276e-06
0.0078029562
-6.0090459e-06
0.0077925214
-5.6038282e-06
0.007782799
-5.22705e-06
0.0077737382
-4.8765173e-06
0.0077652921
-4.5502399e-06
0.0077574175
-4.2464055e-06
0.0077500744
-3.9633596e-06
0.0077432258
-3.6995899e-06
0.0077368375
-3.4537094e-06
0.0077308778
-3.2244431e-06
0.0077253173
-3.0106189e-06
0.0077201286
-2.811157e-06
0.0077152866
-2.6250584e-06
0.0077107675
-2.4513999e-06
0.0077065497
-2.2893287e-06
0.0077026126
-2.1380528e-06
0.0076989374
-1.996837e-06
0.0076955064
-1.8650012e-06
0.0076923033
-1.7419131e-06
0.0076893128
-1.6269823e-06
0.0076865206
-1.519661e-06
0.0076839135
-1.4194416e-06
0.0076814792
-1.3258498e-06
0.0076792061
-1.2384419e-06
0.0076770834
-1.1568087e-06
0.0076751013
-1.0805668e-06
0.0076732502
-1.0093568e-06
0.0076715216
-9.4284325e-07
0.0076699072
-8.8071773e-07
0.0076683996
-8.2268721e-07
0.0076669915
-7.684831e-07
0.0076656765
-7.1785117e-07
0.0076644484
-6.7055992e-07
0.0076633013
-6.2638195e-07
0.00766223
-5.8512082e-07
0.0076612294
-5.4657257e-07
0.0076602949
-5.1057064e-07
0.007659422
-4.7692868e-07
0.0076586068
-4.4551709e-07
0.0076578453
-4.1615495e-07
0.0076571341
-3.8875239e-07
0.0076564698
-3.631225e-07
0.0076558493
-3.3922691e-07
0.0076552698
-3.1684901e-07
0.0076547284
-2.9602176e-07
0.0076542228
-2.7645811e-07
0.0076537505
-2.5832739e-07
0.0076533095
-2.4123063e-07
0.0076528972
-2.2545277e-07
0.0076525126
-2.1039946e-07
0.0076521529
-1.9678481e-07
0.0076518174
-1.8367803e-07
0.0076515029
-1.7192314e-07
0.0076512105
-1.6026209e-07
0.0076509356
-1.5030503e-07
0.0076506808
-1.4048415e-07
0.0076504386
-1.3215818e-07
0.0076502165
-1.2507828e-07
0.0076499998
-1.1942641e-07
-1.2577372e-07
0.0093061957
0.0082843931
0.0073298986
0.0064869553
0.0057695845
0.00518986
0.004738168
0.00439519
0.0041390268
0.003949107
0.003807888
0.0037013782
0.003619058
0.0035534117
0.0034992845
0.0034532444
0.0034130501
0.0033772574
0.0033449386
0.0033154893
0.0032885008
0.0032636805
0.003240805
0.0032196926
0.0032001879
0.0031821539
0.0031654672
0.0031500158
0.0031356979
0.0031224208
0.0031101003
0.0030986596
0.0030880291
0.0030781458
0.003068952
0.0030603955
0.0030524286
0.0030450076
0.0030380929
0.0030316478
0.0030256387
0.0030200349
0.0030148078
0.0030099313
0.0030053811
0.0030011347
0.0029971713
0.0029934717
0.002990018
0.0029867936
0.0029837829
0.0029809718
0.0029783467
0.0029758953
0.002973606
0.002971468
0.0029694711
0.0029676061
0.0029658642
0.0029642372
0.0029627176
0.0029612981
0.0029599723
0.0029587338
0.002957577
0.0029564965
0.0029554871
0.0029545442
0.0029536635
0.0029528408
0.0029520724
0.0029513545
0.0029506839
0.0029500576
0.0029494725
0.0029489259
0.0029484153
0.0029479384
0.0029474929
0.0029470767
0.0029466879
0.0029463248
0.0029459856
0.0029456688
0.0029453727
0.0029450963
0.0029448379
0.0029445967
0.0029443713
0.0029441609
0.0029439641
0.0029437804
0.0029436085
0.0029434482
0.0029432979
0.0029431574
0.0029430253
0.0029429002
0.0029427808
)
;

boundaryField
{
    top
    {
        type            calculated;
        value           uniform 0;
    }
    inlet
    {
        type            calculated;
        value           nonuniform List<scalar> 10(-0.01 -0.01 -0.01 -0.01 -0.01 -0.01 -0.01 -0.01 -0.01 -0.01);
    }
    outlet
    {
        type            calculated;
        value           nonuniform List<scalar> 10(0.002942655 0.0076498149 0.011178072 0.01352789 0.014701569 0.014701569 0.01352789 0.011178072 0.0076498148 0.002942655);
    }
    bottom
    {
        type            calculated;
        value           uniform 0;
    }
    back
    {
        type            empty;
        value           nonuniform 0();
    }
    front
    {
        type            empty;
        value           nonuniform 0();
    }
}


// ************************************************************************* //
