-0.45 	0.11238104
-0.35 	0.11238093
-0.25 	0.11238065
-0.15 	0.11238024
-0.05 	0.11237991
0.05 	0.11237991
0.15 	0.11238023
0.25 	0.11238063
0.35 	0.11238091
0.45 	0.11238101
