/*--------------------------------*- C++ -*----------------------------------*\
| =========                 |                                                 |
| \\      /  F ield         | OpenFOAM: The Open Source CFD Toolbox           |
|  \\    /   O peration     | Version:  2112                                  |
|   \\  /    A nd           | Website:  www.openfoam.com                      |
|    \\/     M anipulation  |                                                 |
\*---------------------------------------------------------------------------*/
FoamFile
{
    version     2.0;
    format      ascii;
    arch        "LSB;label=32;scalar=64";
    class       volScalarField;
    location    "108";
    object      p;
}
// * * * * * * * * * * * * * * * * * * * * * * * * * * * * * * * * * * * * * //

dimensions      [0 2 -2 0 0 0 0];

internalField   nonuniform List<scalar> 
1000
(
1.6834563
1.5533059
1.4626516
1.404486
1.3549017
1.3103846
1.2721099
1.2396087
1.2116366
1.1870452
1.1649029
1.1445114
1.1253337
1.1070086
1.089307
1.0720867
1.0552603
1.038774
1.0225934
1.0066946
0.99105913
0.97567133
0.96051673
0.94558163
0.93085277
0.9163174
0.90196326
0.88777869
0.87375264
0.8598747
0.84613508
0.83252462
0.81903475
0.8056575
0.79238544
0.77921166
0.76612972
0.75313361
0.74021771
0.72737679
0.71460596
0.70190064
0.68925659
0.67666982
0.66413661
0.65165349
0.63921721
0.62682474
0.61447322
0.60216001
0.5898826
0.57763866
0.565426
0.55324256
0.54108643
0.52895581
0.51684903
0.50476454
0.49270093
0.48065691
0.46863131
0.45662309
0.44463129
0.43265508
0.42069366
0.40874629
0.39681225
0.38489082
0.37298125
0.36108275
0.3491945
0.33731563
0.32544523
0.31358239
0.30172615
0.28987564
0.27802994
0.26618829
0.25434986
0.24251409
0.23068027
0.21884804
0.20701684
0.19518653
0.18335662
0.1715272
0.1596978
0.14786869
0.1360394
0.12421033
0.11238104
0.1005519
0.088722649
0.0768934
0.065064495
0.053235082
0.041407064
0.029577295
0.01775023
0.0059191213
1.5599085
1.4934911
1.4350688
1.3906949
1.3488502
1.3092414
1.2738649
1.2428071
1.215319
1.1906491
1.168152
1.1472779
1.127608
1.1088417
1.0907716
1.0732567
1.0562012
1.0395395
1.0232255
1.007225
0.99151146
0.97606285
0.96086007
0.94588601
0.93112502
0.91656264
0.90218546
0.88798097
0.87393749
0.86004413
0.84629072
0.83266784
0.81916672
0.80577926
0.79249794
0.77931574
0.76622614
0.75322302
0.7403007
0.72745386
0.71467755
0.70196718
0.68931845
0.67672735
0.66419014
0.65170332
0.63926362
0.62686797
0.61451351
0.60219756
0.58991761
0.57767132
0.56545647
0.55327101
0.541113
0.52898063
0.51687221
0.50478619
0.49272113
0.48067572
0.46864878
0.45663924
0.44464616
0.43266868
0.42070601
0.40875741
0.39682216
0.38489956
0.37298886
0.3610893
0.34920006
0.33732029
0.32544906
0.3135855
0.30172862
0.2898776
0.27803143
0.26618944
0.25435069
0.24251472
0.23068068
0.21884837
0.20701701
0.19518669
0.18335666
0.17152729
0.15969776
0.14786876
0.13603932
0.12421039
0.11238093
0.1005519
0.08872254
0.076893256
0.065064519
0.053234791
0.041408309
0.029578724
0.01776014
0.0059261241
1.4973646
1.4689058
1.4308508
1.3939663
1.3566767
1.3197445
1.2850221
1.2532083
1.2242582
1.1979148
1.1738228
1.1515858
1.1308312
1.111243
1.0925708
1.0746247
1.0572643
1.0403877
1.023921
1.0078103
0.99201506
0.97650378
0.96125121
0.9462362
0.93144052
0.91684815
0.90244469
0.88821699
0.87415291
0.86024111
0.84647108
0.83283308
0.8193182
0.80591824
0.79262561
0.77943322
0.76633445
0.75332304
0.74039318
0.72753943
0.71475676
0.70204053
0.68938641
0.67679035
0.66424859
0.65175759
0.63931404
0.62691484
0.61455711
0.60223814
0.58995539
0.5777065
0.56548924
0.55330154
0.54114145
0.52900713
0.5168969
0.50480918
0.49274252
0.4806956
0.46866723
0.45665634
0.44466197
0.43268326
0.4207194
0.40876968
0.39683335
0.38490972
0.37299802
0.36109753
0.34920738
0.33732677
0.32545473
0.31359043
0.30173284
0.28988119
0.27803443
0.26619194
0.2543527
0.24251636
0.23068193
0.21884939
0.20701772
0.19518729
0.183357
0.17152763
0.15969785
0.14786894
0.13603923
0.12421047
0.11238065
0.10055184
0.088721944
0.076892808
0.065063239
0.053233396
0.041405847
0.029575952
0.017757116
0.0059231595
1.4682847
1.4521089
1.4231812
1.3909374
1.3572536
1.3230195
1.2897709
1.2584816
1.2294612
1.2026992
1.1780186
1.1551478
1.1337891
1.1136654
1.0945408
1.0762249
1.058569
1.0414596
1.0248109
1.0085578
0.99265079
0.97705101
0.96172747
0.94665465
0.93181117
0.91717869
0.90274119
0.88848437
0.87439513
0.86046139
0.84667196
0.83301663
0.81948615
0.80607211
0.79276682
0.77956308
0.76645413
0.75343355
0.74049536
0.72763399
0.71484433
0.70212164
0.68946157
0.67686005
0.66431326
0.65181764
0.63936984
0.62696674
0.61460539
0.60228306
0.5899972
0.57774542
0.56552547
0.55333528
0.54117286
0.52903639
0.51692416
0.50483459
0.49276622
0.48071774
0.46868794
0.45667574
0.44468016
0.43270034
0.42073545
0.40878474
0.39684746
0.38492291
0.37301028
0.36110886
0.34921776
0.33733621
0.3254632
0.31359797
0.30173944
0.2898869
0.27803927
0.26619601
0.25435603
0.24251907
0.23068405
0.21885106
0.20701894
0.19518824
0.18335761
0.17152811
0.15969807
0.14786916
0.13603916
0.12421054
0.11238024
0.10055173
0.088720813
0.076892203
0.065060049
0.053230702
0.041395792
0.02956431
0.017724519
0.0058981328
1.4552779
1.4429009
1.4185642
1.3893342
1.3578226
1.3251372
1.2927578
1.2617958
1.2327395
1.2057175
1.180663
1.1573864
1.135642
1.1151797
1.0957734
1.0772314
1.0593981
1.0421514
1.0253965
1.0090611
0.99308941
0.97743786
0.96207202
0.94696386
0.93209023
0.9174316
0.90297117
0.88869409
0.87458686
0.86063702
0.84683307
0.83316453
0.81962198
0.80619695
0.79288166
0.77966887
0.76655173
0.75352373
0.74057878
0.72771121
0.71491584
0.7021879
0.68952297
0.67691698
0.66436609
0.65186669
0.63941541
0.62700909
0.61464477
0.6023197
0.59003129
0.57777713
0.56555499
0.55336275
0.54119844
0.52906023
0.51694639
0.50485535
0.49278565
0.48073596
0.46870507
0.45669189
0.44469542
0.43271478
0.42074912
0.40879767
0.39685966
0.38493437
0.37302098
0.36111878
0.34922687
0.33734447
0.32547062
0.31360453
0.30174517
0.28989183
0.27804343
0.26619947
0.25435885
0.24252133
0.23068581
0.21885241
0.20701994
0.19518897
0.1833581
0.17152846
0.15969824
0.1478693
0.13603911
0.12421057
0.11237991
0.10055167
0.088719843
0.076891797
0.065057053
0.053228415
0.041385313
0.029552183
0.017687445
0.0058694054
1.4552779
1.4429009
1.4185642
1.3893342
1.3578226
1.3251372
1.2927578
1.2617958
1.2327395
1.2057175
1.180663
1.1573864
1.135642
1.1151797
1.0957734
1.0772314
1.0593981
1.0421514
1.0253965
1.0090611
0.99308941
0.97743787
0.96207202
0.94696386
0.93209023
0.91743159
0.90297116
0.88869409
0.87458686
0.86063702
0.84683307
0.83316453
0.81962199
0.80619695
0.79288166
0.77966887
0.76655173
0.75352373
0.74057878
0.72771121
0.71491584
0.7021879
0.68952297
0.67691698
0.66436609
0.65186669
0.63941542
0.6270091
0.61464478
0.6023197
0.59003129
0.57777714
0.56555499
0.55336276
0.54119845
0.52906023
0.5169464
0.50485536
0.49278566
0.48073597
0.46870508
0.45669189
0.44469543
0.43271478
0.42074912
0.40879767
0.39685966
0.38493436
0.37302098
0.36111878
0.34922686
0.33734447
0.32547062
0.31360453
0.30174516
0.28989182
0.27804343
0.26619946
0.25435884
0.24252132
0.23068581
0.2188524
0.20701994
0.19518896
0.1833581
0.17152846
0.15969824
0.14786929
0.1360391
0.12421056
0.11237991
0.10055166
0.088719839
0.076891789
0.065057051
0.053228412
0.041385313
0.02955219
0.017687448
0.0058694058
1.4682847
1.4521089
1.4231812
1.3909374
1.3572536
1.3230195
1.2897709
1.2584816
1.2294612
1.2026992
1.1780186
1.1551478
1.1337891
1.1136654
1.0945408
1.0762249
1.058569
1.0414596
1.0248109
1.0085578
0.9926508
0.97705102
0.96172748
0.94665466
0.93181117
0.91717868
0.90274118
0.88848436
0.87439513
0.86046139
0.84667196
0.83301664
0.81948615
0.80607211
0.79276682
0.77956308
0.76645413
0.75343355
0.74049535
0.72763399
0.71484432
0.70212164
0.68946157
0.67686005
0.66431326
0.65181764
0.63936985
0.62696674
0.61460539
0.60228306
0.5899972
0.57774542
0.56552548
0.55333529
0.54117287
0.5290364
0.51692417
0.5048346
0.49276623
0.48071775
0.46868794
0.45667574
0.44468017
0.43270034
0.42073545
0.40878474
0.39684746
0.3849229
0.37301028
0.36110886
0.34921776
0.3373362
0.3254632
0.31359796
0.30173943
0.28988689
0.27803926
0.266196
0.25435602
0.24251906
0.23068404
0.21885104
0.20701893
0.19518822
0.1833576
0.1715281
0.15969806
0.14786915
0.13603915
0.12421053
0.11238023
0.10055172
0.088720799
0.076892189
0.065060035
0.053230696
0.041395795
0.029564319
0.017724526
0.0058981344
1.4973646
1.4689058
1.4308508
1.3939663
1.3566767
1.3197445
1.2850221
1.2532083
1.2242582
1.1979148
1.1738228
1.1515858
1.1308312
1.111243
1.0925708
1.0746247
1.0572643
1.0403877
1.023921
1.0078103
0.99201506
0.9765038
0.96125123
0.94623621
0.93144052
0.91684814
0.90244468
0.88821698
0.8741529
0.86024111
0.84647108
0.83283308
0.81931821
0.80591824
0.79262561
0.77943322
0.76633445
0.75332304
0.74039317
0.72753942
0.71475676
0.70204053
0.6893864
0.67679035
0.66424859
0.65175759
0.63931404
0.62691485
0.61455712
0.60223815
0.5899554
0.57770651
0.56548925
0.55330156
0.54114146
0.52900715
0.51689692
0.5048092
0.49274254
0.48069562
0.46866724
0.45665635
0.44466198
0.43268326
0.4207194
0.40876967
0.39683334
0.38490971
0.37299801
0.36109752
0.34920737
0.33732676
0.32545471
0.31359042
0.30173283
0.28988118
0.27803441
0.26619192
0.25435268
0.24251635
0.23068191
0.21884937
0.2070177
0.19518728
0.18335698
0.17152761
0.15969784
0.14786893
0.13603922
0.12421046
0.11238063
0.10055182
0.088721922
0.076892792
0.065063224
0.053233393
0.041405854
0.029575966
0.017757122
0.005923161
1.5599085
1.4934911
1.4350688
1.3906949
1.3488502
1.3092414
1.2738649
1.2428071
1.215319
1.1906491
1.168152
1.1472779
1.127608
1.1088417
1.0907716
1.0732567
1.0562012
1.0395395
1.0232255
1.007225
0.99151147
0.97606287
0.96086009
0.94588602
0.93112501
0.91656263
0.90218545
0.88798096
0.87393749
0.86004413
0.84629073
0.83266784
0.81916672
0.80577926
0.79249794
0.77931574
0.76622614
0.75322302
0.7403007
0.72745386
0.71467755
0.70196718
0.68931844
0.67672735
0.66419014
0.65170332
0.63926362
0.62686797
0.61451352
0.60219757
0.58991762
0.57767133
0.56545649
0.55327103
0.54111302
0.52898065
0.51687224
0.50478621
0.49272115
0.48067574
0.46864879
0.45663925
0.44464617
0.43266868
0.420706
0.4087574
0.39682215
0.38489955
0.37298885
0.36108929
0.34920004
0.33732028
0.32544905
0.31358549
0.30172861
0.28987758
0.27803141
0.26618942
0.25435067
0.2425147
0.23068066
0.21884835
0.20701699
0.19518668
0.18335664
0.17152728
0.15969775
0.14786874
0.13603931
0.12421037
0.11238091
0.10055187
0.088722516
0.076893235
0.06506451
0.053234791
0.041408319
0.029578737
0.01776015
0.0059261254
1.6834563
1.5533059
1.4626516
1.404486
1.3549017
1.3103846
1.2721099
1.2396087
1.2116366
1.1870452
1.1649029
1.1445114
1.1253337
1.1070086
1.089307
1.0720867
1.0552603
1.038774
1.0225934
1.0066946
0.99105914
0.97567134
0.96051674
0.94558163
0.93085277
0.91631739
0.90196325
0.88777868
0.87375264
0.85987471
0.84613509
0.83252462
0.81903475
0.8056575
0.79238544
0.77921166
0.76612972
0.75313361
0.74021771
0.72737679
0.71460596
0.70190064
0.68925659
0.67666981
0.66413661
0.65165349
0.63921721
0.62682474
0.61447323
0.60216002
0.58988261
0.57763867
0.56542601
0.55324258
0.54108645
0.52895583
0.51684904
0.50476455
0.49270094
0.48065692
0.46863132
0.45662309
0.4446313
0.43265508
0.42069365
0.40874628
0.39681224
0.38489081
0.37298124
0.36108274
0.34919449
0.33731562
0.32544521
0.31358237
0.30172613
0.28987562
0.27802992
0.26618827
0.25434984
0.24251407
0.23068025
0.21884802
0.20701682
0.19518652
0.18335661
0.17152719
0.15969779
0.14786868
0.13603939
0.12421032
0.11238101
0.10055187
0.088722626
0.076893389
0.06506449
0.053235083
0.041407067
0.029577296
0.017750231
0.005919122
)
;

boundaryField
{
    top
    {
        type            zeroGradient;
    }
    inlet
    {
        type            zeroGradient;
    }
    outlet
    {
        type            fixedValue;
        value           uniform 0;
    }
    bottom
    {
        type            zeroGradient;
    }
    back
    {
        type            empty;
    }
    front
    {
        type            empty;
    }
}


// ************************************************************************* //
