/*--------------------------------*- C++ -*----------------------------------*\
| =========                 |                                                 |
| \\      /  F ield         | OpenFOAM: The Open Source CFD Toolbox           |
|  \\    /   O peration     | Version:  v1812                                 |
|   \\  /    A nd           | Web:      www.OpenFOAM.com                      |
|    \\/     M anipulation  |                                                 |
\*---------------------------------------------------------------------------*/
FoamFile
{
    version     2.0;
    format      ascii;
    class       surfaceScalarField;
    location    "2.95";
    object      phi;
}
// * * * * * * * * * * * * * * * * * * * * * * * * * * * * * * * * * * * * * //

dimensions      [0 3 -1 0 0 0 0];
oriented        oriented;


internalField   nonuniform List<scalar> 
1890
(
0.0093061957
0.00069380427
0.008284394
0.0010218017
0.0073299021
0.00095449198
0.0064869663
0.00084293581
0.005769612
0.00071735433
0.0051899104
0.00057970158
0.0047382534
0.0004516571
0.0043953282
0.00034292524
0.0041392368
0.00025609151
0.0039494131
0.00018982385
0.0038083317
0.00014108162
0.0037020268
0.00010630529
0.0036200051
8.2022066e-05
0.0035547754
6.5230019e-05
0.0035012119
5.3563948e-05
0.0034559288
4.528358e-05
0.00341675
3.9179327e-05
0.0033823056
3.4444824e-05
0.0033517454
3.0560463e-05
0.0033245466
2.7199008e-05
0.0033003855
2.4161107e-05
0.003279049
2.1336535e-05
0.003260373
1.8675888e-05
0.0032442059
1.6166976e-05
0.0032303889
1.3816811e-05
0.0032187475
1.1641315e-05
0.0032090887
9.6586272e-06
0.0032012045
7.8841394e-06
0.0031948777
6.3266806e-06
0.0031898897
4.987842e-06
0.0031860284
3.8611789e-06
0.0031830948
2.9333187e-06
0.0031809087
2.1858102e-06
0.0031793115
1.5968074e-06
0.0031781681
1.1430299e-06
0.0031773664
8.0123871e-07
0.0031768163
5.4966229e-07
0.0031764472
3.6871669e-07
0.0031762053
2.4164244e-07
0.0031760505
1.5450471e-07
0.003175954
9.624179e-08
0.0031758956
5.825958e-08
0.0031758613
3.418189e-08
0.0031758419
1.9340533e-08
0.0031758314
1.049412e-08
0.003175826
5.391432e-09
0.0031758234
2.5832814e-09
0.0031758223
1.1014069e-09
0.0031758219
3.8947508e-10
0.0031758219
6.9812801e-11
0.003175822
-3.5342964e-11
0.003175822
-6.6452655e-11
0.0031758221
-4.8321121e-11
0.0031758222
-3.3486579e-11
0.0031758222
-8.0288602e-12
0.0031758222
-2.7875605e-13
0.0031758222
1.4745163e-11
0.0031758222
1.0020023e-11
0.0031758222
2.2141244e-11
0.0031758222
8.4491288e-12
0.0031758222
2.3835881e-11
0.0031758222
1.2570846e-12
0.0031758222
2.5489894e-11
0.0031758222
-9.1184944e-12
0.0031758221
2.9886743e-11
0.0031758221
-1.9306859e-11
0.0031758221
3.3782041e-11
0.0031758221
-2.5657521e-11
0.0031758221
3.3087825e-11
0.0031758221
-2.1858679e-11
0.0031758221
1.8894621e-11
0.0031758221
-4.7872183e-13
0.0031758221
-1.2720999e-11
0.0031758221
3.7706136e-11
0.0031758222
-5.6042174e-11
0.0031758221
7.8400472e-11
0.0031758222
-8.6369452e-11
0.0031758221
8.9581227e-11
0.0031758222
-7.2364392e-11
0.0031758221
4.9068503e-11
0.0031758221
-9.4179209e-12
0.0031758221
-1.9125329e-11
0.0031758221
6.3999338e-11
0.0031758221
-7.3611488e-11
0.003175822
9.805975e-11
0.0031758221
-6.5432901e-11
0.003175822
9.8247802e-11
0.003175822
-2.7808333e-11
0.0031758219
1.424057e-10
0.0031758219
2.8283584e-11
0.0031758216
2.9146217e-10
0.0031758214
2.0043573e-10
0.0031758207
6.3620134e-10
0.00317582
8.2125665e-10
0.0031758184
1.7621942e-09
0.0031758156
2.9501381e-09
0.0031758101
5.4750567e-09
0.0031758004
9.3758565e-09
0.0031757839
1.623261e-08
2.37788e-08
0.010339525
0.00035427912
0.010570755
0.00079057136
0.010606305
0.0009189419
0.01054758
0.00090166091
0.010422329
0.00084260546
0.010244382
0.00075764866
0.010039471
0.00065656811
0.0098288346
0.00055356195
0.0096252987
0.00045962744
0.0094355774
0.00037954525
0.0092628702
0.00031378898
0.0091082283
0.00026094741
0.0089712354
0.00021901517
0.008850557
0.00018590863
0.0087444391
0.00015968215
0.0086510876
0.00013863535
0.0085688473
0.00012142001
0.0084962872
0.00010700509
0.0084322178
9.4629926e-05
0.0083756786
8.3738102e-05
0.0083259081
7.3931483e-05
0.0082822972
6.4947195e-05
0.0082443395
5.6633346e-05
0.0082115888
4.8917273e-05
0.0081836285
4.1776855e-05
0.0081600488
3.5220782e-05
0.0081404344
2.9272907e-05
0.0081243604
2.3957993e-05
0.0081113965
1.9290385e-05
0.0081011164
1.5267837e-05
0.0080931077
1.1869635e-05
0.0080869828
9.0579866e-06
0.0080823873
6.7810249e-06
0.0080790066
4.9771313e-06
0.0080765697
3.5795632e-06
0.0080748495
2.5210797e-06
0.0080736611
1.7376221e-06
0.0080728583
1.1711229e-06
0.0080723286
7.7110872e-07
0.0080719874
4.9544537e-07
0.0080717733
3.1014292e-07
0.0080716426
1.8876662e-07
0.0080715653
1.1139025e-07
0.0080715211
6.3482794e-08
0.0080714969
3.4727611e-08
0.0080714842
1.8064304e-08
0.008071478
8.7845379e-09
0.0080714753
3.8735538e-09
0.0080714743
1.4332351e-09
0.0080714741
3.2682981e-10
0.0080714741
-6.9303779e-11
0.0080714743
-1.8806635e-10
0.0080714744
-1.6835122e-10
0.0080714746
-1.1182822e-10
0.0080714746
-5.1016592e-11
0.0080714746
-1.3049105e-11
0.0080714746
2.2487731e-11
0.0080714746
2.8165201e-11
0.0080714746
4.8046485e-11
0.0080714746
2.9750855e-11
0.0080714746
5.3892625e-11
0.0080714746
1.4407722e-11
0.0080714745
5.7109207e-11
0.0080714745
-6.5680527e-12
0.0080714745
6.2468233e-11
0.0080714745
-2.6508413e-11
0.0080714745
6.5587454e-11
0.0080714745
-3.5031546e-11
0.0080714745
5.4038644e-11
0.0080714745
-1.7956209e-11
0.0080714745
1.2570349e-11
0.0080714744
3.6740613e-11
0.0080714745
-6.3645432e-11
0.0080714744
1.2027942e-10
0.0080714745
-1.4913105e-10
0.0080714744
1.8669111e-10
0.0080714745
-1.8000766e-10
0.0080714744
1.6353899e-10
0.0080714744
-9.4471351e-11
0.0080714745
2.1494637e-11
0.0080714744
8.9846789e-11
0.0080714745
-1.6007134e-10
0.0080714743
2.4186366e-10
0.0080714745
-2.2542517e-10
0.0080714743
2.377636e-10
0.0080714744
-1.1729974e-10
0.0080714744
1.4753239e-10
0.0080714743
2.7557956e-11
0.0080714743
1.9837498e-10
0.0080714742
1.3153336e-10
0.0080714739
5.0879541e-10
0.0080714737
4.4392316e-10
0.0080714732
1.1570351e-09
0.0080714724
1.6362658e-09
0.0080714713
3.060176e-09
0.008071469
5.3629526e-09
0.0080714656
8.8855045e-09
0.0080714596
1.5003617e-08
0.0080714541
2.1440068e-08
2.9845567e-08
0.010188704
0.00016557478
0.010530486
0.00044878957
0.010851452
0.00059797632
0.011124172
0.00062894088
0.011350575
0.00061620217
0.011524475
0.00058374833
0.011646313
0.00053473041
0.011724131
0.00047574432
0.01176797
0.00041578778
0.011786614
0.00036090194
0.011787097
0.0003133052
0.011775052
0.00027299284
0.011754877
0.00023919053
0.01172983
0.00021095596
0.011702196
0.00018731592
0.011673515
0.00016731644
0.011644822
0.00015011417
0.011616793
0.00013503341
0.011589863
0.00012156049
0.011564299
0.00010930161
0.011540273
9.7957966e-05
0.011517895
8.7324451e-05
0.011497245
7.7283269e-05
0.011478378
6.7783844e-05
0.011461333
5.8822183e-05
0.011446126
5.0427275e-05
0.011432751
4.2648865e-05
0.011421165
3.5543108e-05
0.011411298
2.9158396e-05
0.01140304
2.3525456e-05
0.011396258
1.8652166e-05
0.011390793
1.4522093e-05
0.011386478
1.109598e-05
0.01138314
8.3155257e-06
0.01138061
6.1089565e-06
0.011378734
4.3970703e-06
0.011377372
3.0991213e-06
0.011376406
2.1375918e-06
0.011375735
1.4418447e-06
0.01137528
9.5026812e-07
0.011374979
6.1128906e-07
0.011374784
3.8327277e-07
0.011374662
2.3379967e-07
0.011374587
1.384067e-07
0.011374542
7.9236549e-08
0.011374517
4.3635744e-08
0.011374502
2.2934005e-08
0.011374495
1.1353322e-08
0.011374491
5.1656388e-09
0.01137449
2.057774e-09
0.011374489
6.285651e-10
0.011374489
2.4039864e-11
0.011374489
-1.4415271e-10
0.011374489
-1.4979549e-10
0.011374489
-9.1454239e-11
0.011374489
-4.0427738e-11
0.011374489
1.5360279e-11
0.011374489
2.9732493e-11
0.011374489
6.4894612e-11
0.011374489
4.366084e-11
0.011374489
7.9707345e-11
0.011374489
2.828029e-11
0.011374489
8.3563935e-11
0.011374489
3.5686758e-12
0.011374489
8.6009402e-11
0.011374489
-1.8216084e-11
0.011374489
8.0837712e-11
0.011374489
-2.1609949e-11
0.011374489
5.3467361e-11
0.011374489
1.11973e-11
0.011374489
-1.3089399e-11
0.011374489
8.786555e-11
0.011374489
-1.1268258e-10
0.011374489
1.8425502e-10
0.011374489
-1.9840805e-10
0.011374489
2.2800734e-10
0.011374489
-1.8379503e-10
0.011374489
1.3574894e-10
0.011374489
-1.2527895e-11
0.011374489
-9.6652528e-11
0.011374489
2.4613252e-10
0.011374489
-3.1010958e-10
0.011374489
3.7347894e-10
0.011374489
-2.9074523e-10
0.011374489
2.5007758e-10
0.011374489
-4.2480546e-11
0.011374489
4.9885552e-11
0.011374489
1.7260386e-10
0.011374489
1.0850917e-10
0.011374489
2.295819e-10
0.011374489
5.1544548e-10
0.011374489
4.9335278e-10
0.011374489
1.1975095e-09
0.011374489
1.7888698e-09
0.011374489
3.0199852e-09
0.011374489
5.5034591e-09
0.011374489
8.2352818e-09
0.011374491
1.3567612e-08
0.011374494
1.7813267e-08
2.4089825e-08
0.010097181
6.8393313e-05
0.010346961
0.00019901038
0.010662466
0.00028247133
0.010982745
0.00030866142
0.011290213
0.0003087344
0.011575221
0.00029874018
0.011828968
0.00028098343
0.012047773
0.00025693921
0.012233121
0.00023043968
0.012389002
0.00020502048
0.012519931
0.00018237683
0.012630201
0.00016272297
0.012723585
0.00014580601
0.012803256
0.00013128514
0.012871776
0.00011879647
0.012931141
0.00010795126
0.012982879
9.8376477e-05
0.013028148
8.9764771e-05
0.013067826
8.1882654e-05
0.013102578
7.4549359e-05
0.013132912
6.7624293e-05
0.013159226
6.1010399e-05
0.013181854
5.4654997e-05
0.013201097
4.8540752e-05
0.013217243
4.2675809e-05
0.013230582
3.7087736e-05
0.013241413
3.1818557e-05
0.013250039
2.6916793e-05
0.013256769
2.242886e-05
0.013261903
1.8391862e-05
0.013265726
1.4829166e-05
0.0132685
1.1747942e-05
0.013270457
9.1386585e-06
0.013271796
6.9764335e-06
0.013272681
5.2238531e-06
0.013273243
3.8348568e-06
0.013273584
2.7586962e-06
0.013273777
1.9438071e-06
0.013273878
1.3408195e-06
0.013273924
9.0490849e-07
0.013273938
5.970956e-07
0.013273936
3.8486786e-07
0.013273928
2.42055e-07
0.013273918
1.4832606e-07
0.013273909
8.8383018e-08
0.013273902
5.107289e-08
0.013273896
2.8515722e-08
0.013273892
1.5296619e-08
0.01327389
7.8240894e-09
0.013273888
3.7686473e-09
0.013273887
1.6804952e-09
0.013273887
6.6356097e-10
0.013273886
2.2136915e-10
0.013273886
5.259585e-11
0.013273886
1.5072378e-11
0.013273886
1.7363242e-11
0.013273886
4.4167131e-11
0.013273886
4.8462772e-11
0.013273886
7.4472623e-11
0.013273886
5.6894708e-11
0.013273886
8.3176429e-11
0.013273886
4.4051312e-11
0.013273886
8.2619926e-11
0.013273886
2.4327123e-11
0.013273886
7.7827124e-11
0.013273886
8.177833e-12
0.013273886
6.704839e-11
0.013273886
6.2622024e-12
0.013273886
3.85926e-11
0.013273886
3.2413901e-11
0.013273886
-1.5629436e-11
0.013273886
8.5847347e-11
0.013273886
-8.5239321e-11
0.013273886
1.4377009e-10
0.013273886
-1.3122783e-10
0.013273886
1.5139266e-10
0.013273886
-9.4233858e-11
0.013273886
5.5880853e-11
0.013273886
5.4840587e-11
0.013273886
-1.2281817e-10
0.013273886
2.3103044e-10
0.013273886
-2.4416146e-10
0.013273886
2.7504452e-10
0.013273886
-1.6888362e-10
0.013273886
1.3094026e-10
0.013273886
6.1618233e-11
0.013273886
-2.9681158e-11
0.013273886
1.9584006e-10
0.013273886
6.6172023e-11
0.013273886
1.8017615e-10
0.013273886
3.8210127e-10
0.013273886
3.2676539e-10
0.013273887
7.9038383e-10
0.013273887
1.1790509e-09
0.013273889
1.8343045e-09
0.013273891
3.3910124e-09
0.013273894
4.7949113e-09
0.0132739
7.689123e-09
0.013273908
9.7555121e-09
1.3047217e-08
0.010068393
6.931867e-11
0.010267403
2.4661787e-10
0.010549874
3.597304e-10
0.010858535
4.1919016e-10
0.011167269
4.5460027e-10
0.011466009
4.730753e-10
0.011746991
4.7215211e-10
0.01200393
4.4289e-10
0.012234369
4.0008458e-10
0.012439389
3.3865158e-10
0.012621766
2.7559788e-10
0.012784488
1.8372182e-10
0.012930294
9.0895989e-11
0.013061579
-9.9322223e-12
0.013180376
-1.1727073e-10
0.013288328
-2.2912979e-10
0.013386705
-3.2669658e-10
0.01347647
-4.4257233e-10
0.013558353
-5.3266489e-10
0.013632903
-6.1145142e-10
0.013700528
-6.4724218e-10
0.013761539
-6.5719526e-10
0.013816195
-6.3578455e-10
0.013864736
-5.9475035e-10
0.013907412
-5.4184663e-10
0.0139445
-4.827598e-10
0.013976319
-4.3727564e-10
0.014003236
-4.0643587e-10
0.014025666
-4.056473e-10
0.014044058
-4.2134186e-10
0.014058888
-4.6008368e-10
0.014070636
-5.0112322e-10
0.014079775
-5.4895341e-10
0.014086752
-5.7958951e-10
0.014091976
-6.023526e-10
0.014095812
-5.9313417e-10
0.014098571
-5.7338609e-10
0.014100515
-5.2032227e-10
0.014101857
-4.6648175e-10
0.014102762
-3.859127e-10
0.014103359
-3.1807245e-10
0.014103744
-2.3328294e-10
0.014103987
-1.7294535e-10
0.014104135
-1.0141165e-10
0.014104224
-5.9051557e-11
0.014104275
-8.4075874e-12
0.014104304
1.7925636e-11
0.014104319
4.8398333e-11
0.014104327
5.7746834e-11
0.014104331
8.0918409e-11
0.014104332
8.0219826e-11
0.014104333
9.6236507e-11
0.014104333
8.8374428e-11
0.014104333
1.0023473e-10
0.014104333
8.8424238e-11
0.014104333
9.7245062e-11
0.014104333
8.2473576e-11
0.014104333
8.8307276e-11
0.014104333
7.2001482e-11
0.014104333
7.6474631e-11
0.014104333
5.9369056e-11
0.014104333
6.3595912e-11
0.014104333
4.7207704e-11
0.014104333
5.183058e-11
0.014104333
3.607937e-11
0.014104333
4.1533861e-11
0.014104333
2.7334714e-11
0.014104333
3.2916329e-11
0.014104333
1.9913791e-11
0.014104333
2.6262476e-11
0.014104333
1.472961e-11
0.014104333
2.100729e-11
0.014104333
1.1356941e-11
0.014104333
1.7672391e-11
0.014104333
9.4178454e-12
0.014104333
1.607465e-11
0.014104333
8.2654593e-12
0.014104333
1.596584e-11
0.014104333
8.5545337e-12
0.014104333
1.7785301e-11
0.014104333
1.1086059e-11
0.014104333
2.0761805e-11
0.014104333
1.5410373e-11
0.014104333
2.8096182e-11
0.014104333
2.379555e-11
0.014104333
4.1564626e-11
0.014104333
3.7605869e-11
0.014104333
5.8513569e-11
0.014104333
6.132652e-11
0.014104333
8.4547996e-11
0.014104334
7.9688791e-11
0.014104334
9.1048421e-11
0.014104334
6.9752783e-11
0.014104336
7.4708109e-11
0.014104338
5.922687e-11
0.014104341
7.0503706e-11
0.014104346
6.5930275e-11
0.014104353
5.1778839e-11
0.014104363
1.595385e-11
2.4254816e-11
0.010068393
-6.8393182e-05
0.010267403
-0.00019900991
0.010549874
-0.00028247065
0.010858535
-0.00030866063
0.011167269
-0.00030873355
0.011466009
-0.0002987393
0.011746992
-0.00028098256
0.01200393
-0.00025693839
0.012234369
-0.00023043894
0.012439389
-0.00020501983
0.012621766
-0.0001823763
0.012784488
-0.00016272259
0.012930294
-0.00014580579
0.013061579
-0.00013128508
0.013180376
-0.00011879659
0.013288327
-0.00010795154
0.013386704
-9.8376942e-05
0.01347647
-8.9765407e-05
0.013558353
-8.1883465e-05
0.013632903
-7.4550277e-05
0.013700528
-6.7625306e-05
0.013761538
-6.1011416e-05
0.013816194
-5.4656023e-05
0.013864735
-4.8541709e-05
0.013907411
-4.267672e-05
0.013944499
-3.7088565e-05
0.013976318
-3.181935e-05
0.014003236
-2.6917565e-05
0.014025665
-2.2429659e-05
0.014044057
-1.8392722e-05
0.014058887
-1.4830101e-05
0.014070635
-1.1748976e-05
0.014079775
-9.1397604e-06
0.014086752
-6.9776032e-06
0.014091976
-5.2250268e-06
0.014095811
-3.8360204e-06
0.01409857
-2.7597786e-06
0.014100515
-1.9448014e-06
0.014101856
-1.3416705e-06
0.014102761
-9.0562881e-07
0.014103359
-5.976543e-07
0.014103744
-3.8529679e-07
0.014103986
-2.4234141e-07
0.014104135
-1.4851333e-07
0.014104223
-8.8465271e-08
0.014104274
-5.109396e-08
0.014104303
-2.846716e-08
0.014104318
-1.5221436e-08
0.014104326
-7.7076904e-09
0.01410433
-3.640606e-09
0.014104332
-1.5244113e-09
0.014104333
-5.106048e-10
0.014104333
-5.1478102e-11
0.014104333
1.0754125e-10
0.014104333
1.5457269e-10
0.014104333
1.3748652e-10
0.014104333
1.1602662e-10
0.014104333
9.0582778e-11
0.014104333
6.7452928e-11
0.014104333
6.1359658e-11
0.014104333
3.5814594e-11
0.014104333
5.1865172e-11
0.014104333
1.4546265e-11
0.014104333
5.1185677e-11
0.014104333
-1.180854e-12
0.014104333
4.9971581e-11
0.014104333
-5.4095866e-12
0.014104333
3.6671059e-11
0.014104333
8.7710509e-12
0.014104333
2.4709396e-13
0.014104333
5.4192606e-11
0.014104333
-6.3101274e-11
0.014104333
1.1819212e-10
0.014104333
-1.2669954e-10
0.014104333
1.6145987e-10
0.014104333
-1.3654514e-10
0.014104333
1.2181699e-10
0.014104333
-3.9724742e-11
0.014104333
-2.791821e-11
0.014104333
1.4401455e-10
0.014104333
-1.9740698e-10
0.014104333
2.6784771e-10
0.014104333
-2.3180046e-10
0.014104333
2.0591865e-10
0.014104333
-7.3708358e-11
0.014104333
5.4630733e-12
0.014104333
1.1359287e-10
0.014104333
-1.0407929e-10
0.014104333
6.1596407e-11
0.014104333
-3.5158438e-11
0.014104334
-2.2137675e-10
0.014104334
-1.7164585e-10
0.014104334
-6.4603607e-10
0.014104336
-1.0597006e-09
0.014104338
-1.7072852e-09
0.014104341
-3.2603953e-09
0.014104346
-4.6752662e-09
0.014104353
-7.6125167e-09
0.014104363
-9.6824271e-09
-1.2987029e-08
0.010097181
-0.00016557467
0.010346961
-0.0004487892
0.010662466
-0.00059797578
0.010982745
-0.00062894025
0.011290213
-0.0006162015
0.011575221
-0.00058374764
0.011828968
-0.00053472973
0.012047773
-0.00047574367
0.012233121
-0.0004157872
0.012389002
-0.00036090142
0.012519931
-0.00031330477
0.012630201
-0.00027299247
0.012723585
-0.00023919026
0.012803256
-0.00021095576
0.012871775
-0.00018731583
0.01293114
-0.00016731642
0.012982878
-0.00015011426
0.013028147
-0.00013503358
0.013067824
-0.00012156077
0.013102577
-0.00010930199
0.01313291
-9.7958403e-05
0.013159224
-8.7324961e-05
0.013181852
-7.7283798e-05
0.013201095
-6.7784431e-05
0.013217241
-5.8822777e-05
0.013230581
-5.0427929e-05
0.013241411
-4.264955e-05
0.013250038
-3.5543874e-05
0.013256767
-2.9159234e-05
0.013261901
-2.3526387e-05
0.013265724
-1.8653183e-05
0.013268499
-1.4523178e-05
0.013270456
-1.1097113e-05
0.013271795
-8.3166618e-06
0.01327268
-6.110068e-06
0.013273242
-4.3981083e-06
0.013273582
-3.100064e-06
0.013273776
-2.1384083e-06
0.013273877
-1.4425271e-06
0.013273922
-9.508127e-07
0.013273936
-6.1170247e-07
0.013273934
-3.835717e-07
0.013273926
-2.3399481e-07
0.013273916
-1.3852281e-07
0.013273907
-7.9285024e-08
0.0132739
-4.3642619e-08
0.013273895
-2.2901841e-08
0.013273891
-1.1298994e-08
0.013273889
-5.0928942e-09
0.013273887
-1.9741919e-09
0.013273886
-5.2466211e-10
0.013273886
7.0187868e-11
0.013273885
2.5075127e-10
0.013273885
2.5249483e-10
0.013273885
2.0067903e-10
0.013273885
1.4078933e-10
0.013273885
8.8864129e-11
0.013273885
6.1466145e-11
0.013273885
2.6640783e-11
0.013273885
3.3749166e-11
0.013273886
-3.005905e-12
0.013273886
3.4420261e-11
0.013273886
-2.1497694e-11
0.013273886
4.5153308e-11
0.013273886
-3.6952805e-11
0.013273886
5.5302963e-11
0.013273886
-4.2352726e-11
0.013273886
4.8773391e-11
0.013273886
-2.3441511e-11
0.013273886
9.4078755e-12
0.013273886
3.6701206e-11
0.013273886
-7.317514e-11
0.013273886
1.3315182e-10
0.013273886
-1.7180346e-10
0.013273886
2.1662247e-10
0.013273886
-2.1683143e-10
0.013273886
2.0204528e-10
0.013273886
-1.2346268e-10
0.013273886
3.1377907e-11
0.013273886
1.1345165e-10
0.013273886
-2.2083991e-10
0.013273886
3.3140837e-10
0.013273886
-3.4284409e-10
0.013273886
3.2190175e-10
0.013273886
-2.0484414e-10
0.013273886
9.1656249e-11
0.013273886
2.4043089e-11
0.013273886
-1.0200257e-10
0.013273886
-1.2237052e-11
0.013273886
-1.194237e-10
0.013273886
-3.9360736e-10
0.013273886
-3.7681391e-10
0.013273887
-1.0961951e-09
0.013273887
-1.707085e-09
0.013273889
-2.9460315e-09
0.013273891
-5.4255283e-09
0.013273894
-8.1327949e-09
0.0132739
-1.346544e-08
0.013273908
-1.7756424e-08
-2.4030751e-08
0.010188704
-0.00035427906
0.010530486
-0.00079057113
0.010851452
-0.00091894156
0.011124172
-0.00090166051
0.011350575
-0.00084260504
0.011524476
-0.00075764824
0.011646313
-0.0006565677
0.011724131
-0.00055356156
0.011767971
-0.00045962709
0.011786614
-0.00037954493
0.011787098
-0.00031378869
0.011775052
-0.00026094712
0.011754877
-0.00021901489
0.011729829
-0.00018590838
0.011702196
-0.00015968191
0.011673515
-0.00013863514
0.01164482
-0.00012141979
0.011616792
-0.00010700494
0.011589862
-9.4629793e-05
0.011564298
-8.3738071e-05
0.011540271
-7.3931497e-05
0.011517894
-6.494732e-05
0.011497243
-5.6633525e-05
0.011478377
-4.8917556e-05
0.011461331
-4.1777207e-05
0.011446124
-3.5221229e-05
0.011432748
-2.9273443e-05
0.011421163
-2.395862e-05
0.011411295
-1.9291113e-05
0.011403038
-1.5268637e-05
0.011396255
-1.1870521e-05
0.011390791
-9.0589014e-06
0.011386476
-6.7819756e-06
0.011383137
-4.9780446e-06
0.011380608
-3.5804479e-06
0.011378732
-2.5218679e-06
0.01137737
-1.7383327e-06
0.011376403
-1.1717083e-06
0.011375732
-7.7159885e-07
0.011375277
-4.9581339e-07
0.011374976
-3.1043208e-07
0.011374782
-1.8896047e-07
0.011374659
-1.1153441e-07
0.011374585
-6.3554863e-08
0.01137454
-3.4777947e-08
0.011374515
-1.8074769e-08
0.011374501
-8.794604e-09
0.011374494
-3.8573255e-09
0.01137449
-1.4107984e-09
0.011374489
-3.0110407e-10
0.011374488
1.02557e-10
0.011374488
2.328616e-10
0.011374488
2.0416218e-10
0.011374488
1.6210168e-10
0.011374488
9.0108784e-11
0.011374489
6.2253165e-11
0.011374489
1.7819628e-11
0.011374489
1.8166119e-11
0.011374489
-1.4426527e-11
0.011374489
1.0904074e-11
0.011374489
-2.692658e-11
0.011374489
2.037941e-11
0.011374489
-3.7585198e-11
0.011374489
3.5093095e-11
0.011374489
-4.8663257e-11
0.011374489
4.99435e-11
0.011374489
-5.7024939e-11
0.011374489
5.4117672e-11
0.011374489
-4.8702741e-11
0.011374489
3.4037393e-11
0.011374489
-9.3244877e-12
0.011374489
-2.4993087e-11
0.011374489
6.6658515e-11
0.011374489
-1.0642899e-10
0.011374489
1.4872141e-10
0.011374489
-1.7226539e-10
0.011374489
1.8102371e-10
0.011374489
-1.4814971e-10
0.011374489
9.6885128e-11
0.011374489
-3.9346737e-12
0.011374489
-8.200874e-11
0.011374489
1.8227026e-10
0.011374489
-2.3197168e-10
0.011374489
2.5331431e-10
0.011374489
-2.1729656e-10
0.011374489
1.5655406e-10
0.011374489
-1.1397678e-10
0.011374489
2.3784288e-11
0.011374489
-1.4878751e-10
0.011374489
-6.5185875e-11
0.011374489
-4.5003551e-10
0.011374489
-3.7337563e-10
0.011374489
-1.1091323e-09
0.011374489
-1.6038849e-09
0.011374489
-3.0317283e-09
0.011374489
-5.3033996e-09
0.01137449
-8.8166999e-09
0.011374491
-1.4967934e-08
0.011374494
-2.1427261e-08
-2.9827756e-08
0.010339525
-0.00069380426
0.010570755
-0.0010218016
0.010606306
-0.00095449187
0.010547581
-0.00084293567
0.01042233
-0.00071735418
0.010244383
-0.00057970143
0.010039472
-0.00045165695
0.0098288349
-0.0003429251
0.0096252989
-0.00025609137
0.0094355775
-0.00018982371
0.0092628702
-0.00014108145
0.0091082281
-0.0001063051
0.008971235
-8.2021831e-05
0.0088505565
-6.5229754e-05
0.0087444385
-5.356365e-05
0.008651087
-4.5283247e-05
0.0085688465
-3.9178994e-05
0.0084962864
-3.4444488e-05
0.008432217
-3.0560208e-05
0.0083756778
-2.7198793e-05
0.0083259071
-2.4161018e-05
0.008282296
-2.1336484e-05
0.008244338
-1.8675945e-05
0.0082115872
-1.6167046e-05
0.0081836266
-1.3816951e-05
0.0081600467
-1.1641464e-05
0.0081404321
-9.6588157e-06
0.008124358
-7.8843547e-06
0.0081113941
-6.3269269e-06
0.0081011139
-4.9881444e-06
0.0080931053
-3.8615076e-06
0.0080869804
-2.9337101e-06
0.0080823849
-2.1862066e-06
0.0080790043
-1.5972445e-06
0.0080765675
-1.1434399e-06
0.0080748473
-8.016541e-07
0.008073659
-5.5002154e-07
0.0080728564
-3.6905319e-07
0.0080723267
-2.4190864e-07
0.0080719856
-1.5473691e-07
0.0080717716
-9.6408417e-08
0.0080716411
-5.8397207e-08
0.0080715639
-3.4267166e-08
0.0080715199
-1.9408028e-08
0.0080714957
-1.0526361e-08
0.0080714832
-5.418997e-09
0.0080714771
-2.5893332e-09
0.0080714745
-1.1082267e-09
0.0080714736
-3.7883524e-10
0.0080714734
-6.9479791e-11
0.0080714736
5.2790316e-11
0.0080714738
7.2575233e-11
0.008071474
6.6783387e-11
0.0080714742
4.122667e-11
0.0080714743
2.5544576e-11
0.0080714744
9.6898264e-12
0.0080714744
8.746645e-13
0.0080714744
-3.3539606e-12
0.0080714745
-7.3127801e-12
0.0080714745
-3.5427427e-12
0.0080714745
-1.0833215e-11
0.0080714745
1.6501313e-12
0.0080714745
-1.4217371e-11
0.0080714745
8.9613242e-12
0.0080714745
-1.9016608e-11
0.0080714745
1.6949045e-11
0.0080714745
-2.4147931e-11
0.0080714745
2.2350177e-11
0.0080714745
-2.3874539e-11
0.0080714745
1.7580014e-11
0.0080714745
-1.1047438e-11
0.0080714745
-2.3836884e-12
0.0080714746
1.8720363e-11
0.0080714745
-4.1019576e-11
0.0080714746
6.3623148e-11
0.0080714745
-8.2153676e-11
0.0080714746
9.5618715e-11
0.0080714745
-9.3567627e-11
0.0080714745
8.2252406e-11
0.0080714746
-5.0815225e-11
0.0080714745
1.8910068e-11
0.0080714746
2.1203641e-11
0.0080714745
-5.2577051e-11
0.0080714746
7.5397394e-11
0.0080714745
-8.1876946e-11
0.0080714746
7.3509318e-11
0.0080714746
-8.0011293e-11
0.0080714745
3.8147944e-11
0.0080714745
-1.2645387e-10
0.0080714744
-2.0907531e-11
0.0080714742
-2.7719206e-10
0.0080714739
-1.8997765e-10
0.0080714734
-6.1646623e-10
0.0080714727
-7.9452522e-10
0.0080714716
-1.7126855e-09
0.0080714694
-2.9077455e-09
0.0080714658
-5.4660423e-09
0.0080714599
-9.4134697e-09
0.0080714545
-1.6292009e-08
-2.3797399e-08
0.0093061957
0.008284394
0.0073299021
0.0064869663
0.0057696121
0.0051899106
0.0047382535
0.0043953283
0.0041392368
0.0039494131
0.0038083316
0.0037020265
0.0036200048
0.0035547751
0.0035012117
0.0034559286
0.0034167499
0.0033823055
0.0033517453
0.0033245464
0.0033003852
0.0032790485
0.0032603723
0.003244205
0.003230388
0.0032187464
0.0032090877
0.0032012035
0.0031948767
0.0031898888
0.0031860275
0.003183094
0.0031809079
0.0031793107
0.0031781673
0.0031773657
0.0031768157
0.0031764466
0.0031762047
0.0031760499
0.0031759535
0.0031758951
0.0031758609
0.0031758415
0.003175831
0.0031758257
0.0031758231
0.0031758221
0.0031758218
0.0031758217
0.0031758218
0.0031758219
0.003175822
0.0031758221
0.0031758221
0.0031758222
0.0031758222
0.0031758222
0.0031758222
0.0031758222
0.0031758222
0.0031758222
0.0031758222
0.0031758222
0.0031758222
0.0031758222
0.0031758222
0.0031758222
0.0031758222
0.0031758222
0.0031758222
0.0031758222
0.0031758222
0.0031758221
0.0031758222
0.0031758221
0.0031758222
0.0031758221
0.0031758222
0.0031758222
0.0031758222
0.0031758222
0.0031758221
0.0031758222
0.0031758221
0.0031758222
0.0031758221
0.0031758222
0.003175822
0.003175822
0.0031758217
0.0031758214
0.0031758208
0.0031758201
0.0031758185
0.0031758156
0.00317581
0.0031758004
0.003175784
)
;

boundaryField
{
    top
    {
        type            calculated;
        value           uniform 0;
    }
    inlet
    {
        type            calculated;
        value           nonuniform List<scalar> 10(-0.01 -0.01 -0.01 -0.01 -0.01 -0.01 -0.01 -0.01 -0.01 -0.01);
    }
    outlet
    {
        type            calculated;
        value           nonuniform List<scalar> 10(0.00317576 0.008071448 0.0113745 0.013273919 0.014104376 0.014104375 0.013273919 0.0113745 0.0080714484 0.0031757602);
    }
    bottom
    {
        type            calculated;
        value           uniform 0;
    }
    back
    {
        type            empty;
        value           nonuniform 0();
    }
    front
    {
        type            empty;
        value           nonuniform 0();
    }
}


// ************************************************************************* //
