/*--------------------------------*- C++ -*----------------------------------*\
| =========                 |                                                 |
| \\      /  F ield         | OpenFOAM: The Open Source CFD Toolbox           |
|  \\    /   O peration     | Version:  v1812                                 |
|   \\  /    A nd           | Web:      www.OpenFOAM.com                      |
|    \\/     M anipulation  |                                                 |
\*---------------------------------------------------------------------------*/
FoamFile
{
    version     2.0;
    format      ascii;
    class       volScalarField;
    location    "15";
    object      T;
}
// * * * * * * * * * * * * * * * * * * * * * * * * * * * * * * * * * * * * * //

dimensions      [0 0 0 1 0 0 0];


internalField   nonuniform List<scalar> 
10000
(
1.39
1.39
1.39
1.39
1.39
1.39
1.39
1.39
1.39
1.39
1.17373
1.17374
1.17373
1.17373
1.17373
1.17373
1.17373
1.17373
1.17373
1.17373
0.968296
0.968297
0.968295
0.968294
0.968293
0.968293
0.968293
0.968294
0.968294
0.968294
0.779687
0.779688
0.779686
0.779685
0.779684
0.779684
0.779684
0.779685
0.779686
0.779685
0.612311
0.612312
0.61231
0.612309
0.612308
0.612308
0.612308
0.612309
0.61231
0.61231
0.468704
0.468705
0.468703
0.468701
0.468701
0.468701
0.468701
0.468702
0.468704
0.468703
0.349542
0.349543
0.349541
0.349539
0.349539
0.349539
0.34954
0.349541
0.349542
0.349542
0.253882
0.253883
0.253881
0.25388
0.25388
0.25388
0.253881
0.253882
0.253883
0.253883
0.179561
0.179561
0.179559
0.179559
0.179558
0.179558
0.179559
0.179561
0.179562
0.179562
0.12365
0.12365
0.123649
0.123648
0.123648
0.123648
0.123649
0.12365
0.123652
0.123652
0.0829058
0.0829058
0.0829049
0.0829043
0.0829042
0.0829045
0.0829052
0.0829062
0.0829074
0.0829075
0.0541277
0.0541277
0.054127
0.0541266
0.0541265
0.0541268
0.0541274
0.0541282
0.0541292
0.0541294
0.0344166
0.0344166
0.0344161
0.0344158
0.0344158
0.034416
0.0344165
0.0344172
0.034418
0.0344182
0.0213171
0.0213171
0.0213167
0.0213165
0.0213165
0.0213167
0.0213171
0.0213176
0.0213182
0.0213184
0.0128652
0.0128652
0.012865
0.0128648
0.0128649
0.012865
0.0128653
0.0128657
0.0128661
0.0128663
0.00756791
0.00756787
0.00756771
0.00756764
0.00756766
0.00756777
0.00756798
0.00756826
0.00756858
0.00756869
0.00434066
0.00434063
0.00434053
0.00434048
0.0043405
0.00434058
0.00434073
0.00434092
0.00434115
0.00434122
0.00242841
0.00242839
0.00242833
0.00242831
0.00242832
0.00242838
0.00242847
0.0024286
0.00242875
0.00242881
0.00132573
0.00132571
0.00132568
0.00132566
0.00132567
0.00132571
0.00132577
0.00132586
0.00132595
0.00132599
0.000706534
0.000706524
0.000706503
0.000706496
0.000706505
0.000706528
0.000706567
0.00070662
0.00070668
0.000706706
0.000367746
0.00036774
0.000367729
0.000367725
0.000367731
0.000367745
0.000367769
0.000367801
0.000367838
0.000367854
0.000187022
0.000187019
0.000187012
0.000187011
0.000187014
0.000187023
0.000187037
0.000187056
0.000187078
0.000187088
9.29746e-05
9.29724e-05
9.29691e-05
9.29685e-05
9.29706e-05
9.29757e-05
9.29836e-05
9.29944e-05
9.30069e-05
9.30128e-05
4.5202e-05
4.52007e-05
4.5199e-05
4.51988e-05
4.52e-05
4.52029e-05
4.52073e-05
4.52133e-05
4.52202e-05
4.52236e-05
2.15015e-05
2.15008e-05
2.15e-05
2.14999e-05
2.15006e-05
2.15022e-05
2.15046e-05
2.15078e-05
2.15116e-05
2.15134e-05
1.00114e-05
1.00111e-05
1.00107e-05
1.00106e-05
1.0011e-05
1.00118e-05
1.00131e-05
1.00148e-05
1.00167e-05
1.00177e-05
4.56491e-06
4.56473e-06
4.56453e-06
4.56453e-06
4.56473e-06
4.56513e-06
4.56573e-06
4.56651e-06
4.5674e-06
4.56782e-06
2.03925e-06
2.03916e-06
2.03906e-06
2.03906e-06
2.03915e-06
2.0393e-06
2.0395e-06
2.03969e-06
2.03981e-06
2.03968e-06
8.92892e-07
8.92848e-07
8.92801e-07
8.9279e-07
8.928e-07
8.92793e-07
8.92679e-07
8.92286e-07
8.91392e-07
8.90036e-07
3.83359e-07
3.83336e-07
3.8331e-07
3.83289e-07
3.83247e-07
3.83108e-07
3.82676e-07
3.81473e-07
3.78513e-07
3.72895e-07
1.39
1.39
1.39
1.39
1.39
1.39
1.39
1.39
1.39
1.39
1.17374
1.17374
1.17373
1.17373
1.17373
1.17373
1.17373
1.17373
1.17373
1.17373
0.968297
0.968297
0.968295
0.968294
0.968293
0.968293
0.968293
0.968294
0.968295
0.968295
0.779688
0.779688
0.779686
0.779685
0.779684
0.779684
0.779684
0.779685
0.779686
0.779686
0.612312
0.612312
0.61231
0.612308
0.612308
0.612308
0.612308
0.61231
0.612311
0.612311
0.468705
0.468705
0.468703
0.468701
0.4687
0.4687
0.468701
0.468703
0.468704
0.468704
0.349543
0.349542
0.34954
0.349539
0.349538
0.349538
0.349539
0.349541
0.349543
0.349543
0.253883
0.253883
0.253881
0.25388
0.253879
0.253879
0.25388
0.253882
0.253884
0.253884
0.179561
0.179561
0.179559
0.179558
0.179558
0.179558
0.179559
0.179561
0.179563
0.179563
0.12365
0.12365
0.123649
0.123648
0.123648
0.123648
0.123649
0.12365
0.123652
0.123652
0.0829058
0.0829056
0.0829046
0.082904
0.0829039
0.0829042
0.082905
0.0829062
0.0829077
0.0829078
0.0541277
0.0541275
0.0541267
0.0541263
0.0541262
0.0541265
0.0541272
0.0541282
0.0541294
0.0541296
0.0344166
0.0344164
0.0344159
0.0344156
0.0344156
0.0344158
0.0344164
0.0344172
0.0344181
0.0344183
0.0213171
0.0213169
0.0213165
0.0213163
0.0213164
0.0213166
0.021317
0.0213176
0.0213183
0.0213185
0.0128652
0.0128651
0.0128648
0.0128647
0.0128647
0.0128649
0.0128652
0.0128656
0.0128662
0.0128663
0.00756787
0.00756779
0.00756762
0.00756755
0.00756758
0.0075677
0.00756791
0.00756823
0.00756863
0.00756873
0.00434063
0.00434057
0.00434047
0.00434043
0.00434045
0.00434053
0.00434068
0.0043409
0.00434117
0.00434125
0.00242839
0.00242836
0.00242829
0.00242827
0.00242829
0.00242834
0.00242845
0.00242859
0.00242877
0.00242883
0.00132571
0.00132569
0.00132565
0.00132564
0.00132565
0.00132569
0.00132575
0.00132585
0.00132596
0.001326
0.000706524
0.000706509
0.000706488
0.000706482
0.00070649
0.000706515
0.000706556
0.000706613
0.000706685
0.000706711
0.00036774
0.000367731
0.00036772
0.000367717
0.000367722
0.000367737
0.000367762
0.000367797
0.00036784
0.000367857
0.000187019
0.000187014
0.000187007
0.000187006
0.00018701
0.000187019
0.000187033
0.000187054
0.000187079
0.000187089
9.29724e-05
9.29696e-05
9.29663e-05
9.29657e-05
9.29679e-05
9.29731e-05
9.29815e-05
9.29931e-05
9.30075e-05
9.30136e-05
4.52007e-05
4.51992e-05
4.51975e-05
4.51973e-05
4.51986e-05
4.52015e-05
4.52062e-05
4.52126e-05
4.52205e-05
4.52241e-05
2.15008e-05
2.15e-05
2.14992e-05
2.14991e-05
2.14999e-05
2.15015e-05
2.1504e-05
2.15074e-05
2.15117e-05
2.15137e-05
1.00111e-05
1.00107e-05
1.00102e-05
1.00102e-05
1.00106e-05
1.00115e-05
1.00128e-05
1.00146e-05
1.00168e-05
1.00178e-05
4.56473e-06
4.56452e-06
4.56432e-06
4.56432e-06
4.56453e-06
4.56495e-06
4.56557e-06
4.56641e-06
4.56743e-06
4.56787e-06
2.03916e-06
2.03906e-06
2.03896e-06
2.03896e-06
2.03905e-06
2.03921e-06
2.03943e-06
2.03964e-06
2.03982e-06
2.0397e-06
8.9285e-07
8.92799e-07
8.92753e-07
8.92743e-07
8.92755e-07
8.9275e-07
8.92642e-07
8.92262e-07
8.91398e-07
8.90047e-07
3.83339e-07
3.83314e-07
3.83288e-07
3.83267e-07
3.83226e-07
3.83088e-07
3.82659e-07
3.81461e-07
3.78515e-07
3.72899e-07
1.39
1.39
1.39
1.39
1.39
1.39
1.39
1.39
1.39
1.39
1.17373
1.17373
1.17373
1.17373
1.17373
1.17373
1.17373
1.17373
1.17373
1.17373
0.968295
0.968295
0.968293
0.968292
0.968291
0.968291
0.968292
0.968292
0.968294
0.968294
0.779686
0.779686
0.779684
0.779682
0.779682
0.779682
0.779682
0.779683
0.779685
0.779685
0.61231
0.61231
0.612308
0.612306
0.612305
0.612305
0.612306
0.612308
0.61231
0.61231
0.468703
0.468703
0.4687
0.468699
0.468698
0.468698
0.468699
0.468701
0.468703
0.468703
0.349541
0.34954
0.349538
0.349537
0.349536
0.349536
0.349537
0.349539
0.349542
0.349542
0.253881
0.253881
0.253879
0.253878
0.253877
0.253878
0.253879
0.253881
0.253883
0.253883
0.179559
0.179559
0.179557
0.179556
0.179556
0.179557
0.179558
0.179559
0.179562
0.179562
0.123649
0.123649
0.123647
0.123647
0.123646
0.123647
0.123648
0.123649
0.123652
0.123652
0.0829049
0.0829046
0.0829035
0.082903
0.0829029
0.0829033
0.0829041
0.0829055
0.0829073
0.0829077
0.054127
0.0541267
0.0541259
0.0541255
0.0541255
0.0541258
0.0541266
0.0541277
0.0541292
0.0541295
0.0344161
0.0344159
0.0344153
0.034415
0.034415
0.0344153
0.0344159
0.0344168
0.034418
0.0344183
0.0213167
0.0213165
0.0213161
0.021316
0.021316
0.0213162
0.0213167
0.0213173
0.0213182
0.0213185
0.012865
0.0128648
0.0128646
0.0128645
0.0128645
0.0128647
0.012865
0.0128655
0.0128661
0.0128663
0.00756771
0.00756762
0.00756746
0.00756739
0.00756742
0.00756755
0.00756779
0.00756813
0.00756859
0.00756873
0.00434053
0.00434047
0.00434036
0.00434032
0.00434035
0.00434044
0.0043406
0.00434084
0.00434115
0.00434125
0.00242833
0.00242829
0.00242823
0.00242821
0.00242823
0.00242829
0.0024284
0.00242855
0.00242876
0.00242883
0.00132568
0.00132565
0.00132561
0.0013256
0.00132562
0.00132566
0.00132573
0.00132583
0.00132596
0.001326
0.000706503
0.000706488
0.000706467
0.000706461
0.000706471
0.000706497
0.00070654
0.000706602
0.000706682
0.000706713
0.000367729
0.00036772
0.000367708
0.000367705
0.000367711
0.000367727
0.000367754
0.000367791
0.000367839
0.000367858
0.000187012
0.000187007
0.000187001
0.000187
0.000187004
0.000187013
0.000187029
0.00018705
0.000187078
0.00018709
9.29691e-05
9.29663e-05
9.2963e-05
9.29625e-05
9.29649e-05
9.29703e-05
9.29791e-05
9.29915e-05
9.30072e-05
9.30142e-05
4.5199e-05
4.51975e-05
4.51958e-05
4.51956e-05
4.5197e-05
4.52001e-05
4.5205e-05
4.52118e-05
4.52205e-05
4.52244e-05
2.15e-05
2.14992e-05
2.14984e-05
2.14983e-05
2.14991e-05
2.15008e-05
2.15034e-05
2.15071e-05
2.15117e-05
2.15139e-05
1.00107e-05
1.00102e-05
1.00098e-05
1.00098e-05
1.00103e-05
1.00111e-05
1.00125e-05
1.00144e-05
1.00168e-05
1.00179e-05
4.56453e-06
4.56432e-06
4.56413e-06
4.56414e-06
4.56436e-06
4.56479e-06
4.56545e-06
4.56634e-06
4.56744e-06
4.56794e-06
2.03907e-06
2.03897e-06
2.03888e-06
2.03888e-06
2.03897e-06
2.03914e-06
2.03937e-06
2.03961e-06
2.03983e-06
2.03974e-06
8.92809e-07
8.92759e-07
8.92714e-07
8.92706e-07
8.9272e-07
8.92719e-07
8.92617e-07
8.92249e-07
8.91404e-07
8.90065e-07
3.83321e-07
3.83296e-07
3.83271e-07
3.83251e-07
3.83211e-07
3.83075e-07
3.82649e-07
3.81456e-07
3.78518e-07
3.72908e-07
1.39
1.39
1.39
1.39
1.39
1.39
1.39
1.39
1.39
1.39
1.17373
1.17373
1.17373
1.17373
1.17373
1.17373
1.17373
1.17373
1.17373
1.17373
0.968294
0.968294
0.968292
0.968291
0.96829
0.96829
0.968291
0.968292
0.968293
0.968293
0.779685
0.779685
0.779682
0.779681
0.77968
0.77968
0.779681
0.779682
0.779684
0.779685
0.612309
0.612308
0.612306
0.612304
0.612304
0.612304
0.612305
0.612307
0.612309
0.61231
0.468701
0.468701
0.468699
0.468697
0.468696
0.468697
0.468698
0.4687
0.468703
0.468703
0.349539
0.349539
0.349537
0.349535
0.349535
0.349535
0.349536
0.349538
0.349541
0.349542
0.25388
0.25388
0.253878
0.253876
0.253876
0.253877
0.253878
0.25388
0.253883
0.253883
0.179559
0.179558
0.179556
0.179556
0.179555
0.179556
0.179557
0.179559
0.179562
0.179562
0.123648
0.123648
0.123647
0.123646
0.123646
0.123646
0.123647
0.123649
0.123651
0.123652
0.0829043
0.082904
0.082903
0.0829024
0.0829024
0.0829028
0.0829038
0.0829053
0.0829072
0.0829077
0.0541266
0.0541263
0.0541255
0.0541251
0.0541251
0.0541255
0.0541263
0.0541275
0.0541291
0.0541296
0.0344158
0.0344156
0.034415
0.0344148
0.0344148
0.0344151
0.0344158
0.0344167
0.034418
0.0344183
0.0213165
0.0213163
0.021316
0.0213158
0.0213158
0.0213161
0.0213166
0.0213173
0.0213182
0.0213185
0.0128648
0.0128647
0.0128645
0.0128644
0.0128644
0.0128646
0.0128649
0.0128655
0.0128662
0.0128664
0.00756764
0.00756755
0.00756739
0.00756733
0.00756736
0.0075675
0.00756775
0.00756812
0.0075686
0.00756877
0.00434048
0.00434043
0.00434032
0.00434029
0.00434032
0.00434042
0.00434059
0.00434084
0.00434116
0.00434128
0.00242831
0.00242827
0.00242821
0.00242819
0.00242821
0.00242828
0.00242839
0.00242856
0.00242877
0.00242885
0.00132566
0.00132564
0.0013256
0.00132559
0.00132561
0.00132565
0.00132572
0.00132583
0.00132597
0.00132602
0.000706496
0.000706482
0.000706461
0.000706456
0.000706467
0.000706494
0.00070654
0.000706605
0.000706688
0.000706722
0.000367725
0.000367717
0.000367705
0.000367703
0.00036771
0.000367726
0.000367754
0.000367793
0.000367843
0.000367864
0.000187011
0.000187006
0.000187
0.000186999
0.000187003
0.000187013
0.000187029
0.000187052
0.000187081
0.000187093
9.29685e-05
9.29657e-05
9.29625e-05
9.29621e-05
9.29647e-05
9.29704e-05
9.29796e-05
9.29925e-05
9.30088e-05
9.30162e-05
4.51988e-05
4.51973e-05
4.51956e-05
4.51955e-05
4.5197e-05
4.52002e-05
4.52053e-05
4.52124e-05
4.52214e-05
4.52256e-05
2.14999e-05
2.14991e-05
2.14983e-05
2.14983e-05
2.14991e-05
2.15009e-05
2.15036e-05
2.15074e-05
2.15122e-05
2.15145e-05
1.00106e-05
1.00102e-05
1.00098e-05
1.00099e-05
1.00103e-05
1.00112e-05
1.00126e-05
1.00146e-05
1.00171e-05
1.00183e-05
4.56454e-06
4.56433e-06
4.56415e-06
4.56417e-06
4.5644e-06
4.56484e-06
4.56552e-06
4.56645e-06
4.5676e-06
4.56812e-06
2.03908e-06
2.03898e-06
2.03889e-06
2.0389e-06
2.03899e-06
2.03918e-06
2.03941e-06
2.03967e-06
2.03991e-06
2.03983e-06
8.92816e-07
8.92767e-07
8.92723e-07
8.92717e-07
8.92734e-07
8.92737e-07
8.9264e-07
8.9228e-07
8.91444e-07
8.90111e-07
3.83326e-07
3.83301e-07
3.83276e-07
3.83258e-07
3.83218e-07
3.83084e-07
3.82661e-07
3.81471e-07
3.78537e-07
3.72929e-07
1.39
1.39
1.39
1.39
1.39
1.39
1.39
1.39
1.39
1.39
1.17373
1.17373
1.17373
1.17373
1.17373
1.17373
1.17373
1.17373
1.17373
1.17373
0.968293
0.968293
0.968291
0.96829
0.968289
0.96829
0.96829
0.968291
0.968293
0.968293
0.779684
0.779684
0.779682
0.77968
0.77968
0.77968
0.779681
0.779682
0.779684
0.779685
0.612308
0.612308
0.612305
0.612304
0.612303
0.612303
0.612305
0.612306
0.612309
0.61231
0.468701
0.4687
0.468698
0.468696
0.468696
0.468696
0.468698
0.4687
0.468703
0.468703
0.349539
0.349538
0.349536
0.349535
0.349534
0.349535
0.349536
0.349538
0.349541
0.349542
0.25388
0.253879
0.253877
0.253876
0.253876
0.253876
0.253878
0.25388
0.253883
0.253884
0.179558
0.179558
0.179556
0.179555
0.179555
0.179556
0.179557
0.179559
0.179562
0.179562
0.123648
0.123648
0.123646
0.123646
0.123646
0.123646
0.123647
0.123649
0.123652
0.123652
0.0829042
0.0829039
0.0829029
0.0829024
0.0829024
0.0829029
0.0829039
0.0829054
0.0829075
0.082908
0.0541265
0.0541262
0.0541255
0.0541251
0.0541252
0.0541256
0.0541264
0.0541277
0.0541294
0.0541298
0.0344158
0.0344156
0.034415
0.0344148
0.0344149
0.0344152
0.0344159
0.0344169
0.0344182
0.0344185
0.0213165
0.0213164
0.021316
0.0213158
0.0213159
0.0213162
0.0213167
0.0213174
0.0213184
0.0213187
0.0128649
0.0128647
0.0128645
0.0128644
0.0128644
0.0128647
0.012865
0.0128656
0.0128663
0.0128665
0.00756766
0.00756758
0.00756742
0.00756736
0.00756741
0.00756756
0.00756782
0.0075682
0.00756869
0.00756886
0.0043405
0.00434045
0.00434035
0.00434032
0.00434035
0.00434046
0.00434064
0.0043409
0.00434123
0.00434135
0.00242832
0.00242829
0.00242823
0.00242821
0.00242824
0.00242831
0.00242842
0.00242859
0.00242881
0.0024289
0.00132567
0.00132565
0.00132562
0.00132561
0.00132563
0.00132567
0.00132575
0.00132586
0.00132599
0.00132605
0.000706505
0.00070649
0.000706471
0.000706467
0.000706478
0.000706507
0.000706554
0.000706621
0.000706706
0.000706741
0.000367731
0.000367722
0.000367711
0.00036771
0.000367717
0.000367735
0.000367763
0.000367803
0.000367854
0.000367876
0.000187014
0.00018701
0.000187004
0.000187003
0.000187008
0.000187018
0.000187035
0.000187058
0.000187087
0.0001871
9.29706e-05
9.29679e-05
9.29649e-05
9.29647e-05
9.29675e-05
9.29734e-05
9.29828e-05
9.2996e-05
9.30126e-05
9.30202e-05
4.52e-05
4.51986e-05
4.5197e-05
4.5197e-05
4.51986e-05
4.5202e-05
4.52072e-05
4.52144e-05
4.52235e-05
4.52278e-05
2.15006e-05
2.14999e-05
2.14991e-05
2.14991e-05
2.15e-05
2.15018e-05
2.15046e-05
2.15085e-05
2.15134e-05
2.15157e-05
1.0011e-05
1.00106e-05
1.00103e-05
1.00103e-05
1.00108e-05
1.00117e-05
1.00132e-05
1.00152e-05
1.00177e-05
1.00189e-05
4.56475e-06
4.56455e-06
4.56438e-06
4.56441e-06
4.56465e-06
4.56511e-06
4.56581e-06
4.56675e-06
4.56792e-06
4.56845e-06
2.03919e-06
2.03909e-06
2.03901e-06
2.03902e-06
2.03913e-06
2.03931e-06
2.03956e-06
2.03982e-06
2.04007e-06
2.03999e-06
8.92871e-07
8.92824e-07
8.92783e-07
8.92779e-07
8.92799e-07
8.92805e-07
8.92712e-07
8.92355e-07
8.91523e-07
8.90192e-07
3.83353e-07
3.83329e-07
3.83305e-07
3.83288e-07
3.8325e-07
3.83118e-07
3.82695e-07
3.81508e-07
3.78575e-07
3.72967e-07
1.39
1.39
1.39
1.39
1.39
1.39
1.39
1.39
1.39
1.39
1.17373
1.17373
1.17373
1.17373
1.17373
1.17373
1.17373
1.17373
1.17373
1.17373
0.968293
0.968293
0.968291
0.96829
0.96829
0.96829
0.96829
0.968292
0.968293
0.968294
0.779684
0.779684
0.779682
0.77968
0.77968
0.77968
0.779681
0.779683
0.779685
0.779685
0.612308
0.612308
0.612305
0.612304
0.612303
0.612304
0.612305
0.612307
0.61231
0.61231
0.468701
0.4687
0.468698
0.468697
0.468696
0.468697
0.468698
0.4687
0.468703
0.468704
0.349539
0.349538
0.349536
0.349535
0.349535
0.349535
0.349537
0.349539
0.349542
0.349543
0.25388
0.253879
0.253878
0.253877
0.253876
0.253877
0.253878
0.253881
0.253884
0.253884
0.179558
0.179558
0.179557
0.179556
0.179556
0.179556
0.179558
0.17956
0.179563
0.179563
0.123648
0.123648
0.123647
0.123646
0.123646
0.123647
0.123648
0.12365
0.123652
0.123653
0.0829045
0.0829042
0.0829033
0.0829028
0.0829029
0.0829034
0.0829044
0.082906
0.0829081
0.0829087
0.0541268
0.0541265
0.0541258
0.0541255
0.0541256
0.0541261
0.0541269
0.0541282
0.0541299
0.0541304
0.034416
0.0344158
0.0344153
0.0344151
0.0344152
0.0344156
0.0344163
0.0344173
0.0344186
0.034419
0.0213167
0.0213166
0.0213162
0.0213161
0.0213162
0.0213165
0.021317
0.0213177
0.0213187
0.021319
0.012865
0.0128649
0.0128647
0.0128646
0.0128647
0.0128649
0.0128653
0.0128658
0.0128665
0.0128668
0.00756777
0.0075677
0.00756755
0.0075675
0.00756756
0.00756771
0.00756798
0.00756837
0.00756887
0.00756904
0.00434058
0.00434053
0.00434044
0.00434042
0.00434046
0.00434057
0.00434075
0.00434101
0.00434135
0.00434147
0.00242838
0.00242834
0.00242829
0.00242828
0.00242831
0.00242838
0.0024285
0.00242867
0.00242889
0.00242897
0.00132571
0.00132569
0.00132566
0.00132565
0.00132567
0.00132572
0.0013258
0.00132591
0.00132604
0.0013261
0.000706528
0.000706515
0.000706497
0.000706494
0.000706507
0.000706537
0.000706585
0.000706652
0.000706738
0.000706773
0.000367745
0.000367737
0.000367727
0.000367726
0.000367735
0.000367753
0.000367782
0.000367822
0.000367873
0.000367895
0.000187023
0.000187019
0.000187013
0.000187013
0.000187018
0.000187029
0.000187046
0.000187069
0.000187099
0.000187112
9.29757e-05
9.29731e-05
9.29703e-05
9.29704e-05
9.29734e-05
9.29796e-05
9.29891e-05
9.30023e-05
9.3019e-05
9.30266e-05
4.52029e-05
4.52015e-05
4.52001e-05
4.52002e-05
4.5202e-05
4.52054e-05
4.52106e-05
4.52179e-05
4.52271e-05
4.52314e-05
2.15022e-05
2.15015e-05
2.15008e-05
2.15009e-05
2.15018e-05
2.15037e-05
2.15065e-05
2.15104e-05
2.15153e-05
2.15176e-05
1.00119e-05
1.00115e-05
1.00112e-05
1.00112e-05
1.00118e-05
1.00127e-05
1.00142e-05
1.00162e-05
1.00187e-05
1.00199e-05
4.56518e-06
4.56499e-06
4.56484e-06
4.56489e-06
4.56514e-06
4.56562e-06
4.56632e-06
4.56726e-06
4.56843e-06
4.56897e-06
2.0394e-06
2.03931e-06
2.03924e-06
2.03926e-06
2.03937e-06
2.03957e-06
2.03981e-06
2.04008e-06
2.04033e-06
2.04025e-06
8.92979e-07
8.92934e-07
8.92897e-07
8.92897e-07
8.9292e-07
8.92929e-07
8.92837e-07
8.92481e-07
8.91649e-07
8.90317e-07
3.83405e-07
3.83382e-07
3.8336e-07
3.83345e-07
3.83308e-07
3.83177e-07
3.82755e-07
3.81567e-07
3.78634e-07
3.73025e-07
1.39
1.39
1.39
1.39
1.39
1.39
1.39
1.39
1.39
1.39
1.17373
1.17373
1.17373
1.17373
1.17373
1.17373
1.17373
1.17373
1.17373
1.17373
0.968293
0.968293
0.968292
0.968291
0.96829
0.96829
0.968291
0.968292
0.968294
0.968294
0.779684
0.779684
0.779682
0.779681
0.779681
0.779681
0.779682
0.779684
0.779686
0.779686
0.612308
0.612308
0.612306
0.612305
0.612305
0.612305
0.612306
0.612308
0.612311
0.612312
0.468701
0.468701
0.468699
0.468698
0.468698
0.468698
0.4687
0.468702
0.468705
0.468705
0.34954
0.349539
0.349537
0.349536
0.349536
0.349537
0.349538
0.349541
0.349544
0.349544
0.253881
0.25388
0.253879
0.253878
0.253878
0.253878
0.25388
0.253882
0.253885
0.253886
0.179559
0.179559
0.179558
0.179557
0.179557
0.179558
0.179559
0.179561
0.179564
0.179565
0.123649
0.123649
0.123648
0.123647
0.123647
0.123648
0.123649
0.123651
0.123654
0.123654
0.0829052
0.082905
0.0829041
0.0829038
0.0829039
0.0829044
0.0829055
0.0829071
0.0829092
0.0829097
0.0541274
0.0541272
0.0541266
0.0541263
0.0541264
0.0541269
0.0541278
0.0541291
0.0541308
0.0541312
0.0344165
0.0344164
0.0344159
0.0344158
0.0344159
0.0344163
0.034417
0.034418
0.0344193
0.0344196
0.0213171
0.021317
0.0213167
0.0213166
0.0213167
0.021317
0.0213175
0.0213183
0.0213192
0.0213195
0.0128653
0.0128652
0.012865
0.0128649
0.012865
0.0128653
0.0128656
0.0128662
0.0128669
0.0128671
0.00756798
0.00756791
0.00756779
0.00756775
0.00756782
0.00756798
0.00756825
0.00756864
0.00756913
0.0075693
0.00434073
0.00434068
0.0043406
0.00434059
0.00434064
0.00434075
0.00434093
0.00434119
0.00434153
0.00434164
0.00242847
0.00242845
0.0024284
0.00242839
0.00242842
0.0024285
0.00242862
0.00242879
0.00242901
0.00242909
0.00132577
0.00132575
0.00132573
0.00132572
0.00132575
0.0013258
0.00132587
0.00132598
0.00132612
0.00132617
0.000706567
0.000706556
0.00070654
0.00070654
0.000706554
0.000706585
0.000706633
0.0007067
0.000706784
0.000706818
0.000367769
0.000367762
0.000367754
0.000367754
0.000367763
0.000367782
0.000367811
0.000367851
0.000367901
0.000367922
0.000187037
0.000187033
0.000187029
0.000187029
0.000187035
0.000187046
0.000187062
0.000187086
0.000187115
0.000187128
9.29836e-05
9.29815e-05
9.29791e-05
9.29796e-05
9.29828e-05
9.29891e-05
9.29986e-05
9.30118e-05
9.30283e-05
9.30357e-05
4.52073e-05
4.52062e-05
4.5205e-05
4.52053e-05
4.52072e-05
4.52106e-05
4.52159e-05
4.52231e-05
4.52322e-05
4.52364e-05
2.15046e-05
2.1504e-05
2.15034e-05
2.15036e-05
2.15046e-05
2.15065e-05
2.15093e-05
2.15132e-05
2.1518e-05
2.15203e-05
1.00131e-05
1.00128e-05
1.00126e-05
1.00127e-05
1.00132e-05
1.00142e-05
1.00157e-05
1.00177e-05
1.00201e-05
1.00213e-05
4.56584e-06
4.56568e-06
4.56555e-06
4.56562e-06
4.56589e-06
4.56638e-06
4.56708e-06
4.56801e-06
4.56916e-06
4.56969e-06
2.03973e-06
2.03965e-06
2.03959e-06
2.03963e-06
2.03975e-06
2.03994e-06
2.04019e-06
2.04045e-06
2.0407e-06
2.04061e-06
8.9314e-07
8.93101e-07
8.93071e-07
8.93076e-07
8.93103e-07
8.93113e-07
8.93021e-07
8.92662e-07
8.91826e-07
8.9049e-07
3.83482e-07
3.83462e-07
3.83443e-07
3.8343e-07
3.83395e-07
3.83264e-07
3.82842e-07
3.81653e-07
3.78717e-07
3.73105e-07
1.39
1.39
1.39
1.39
1.39
1.39
1.39
1.39
1.39
1.39
1.17373
1.17373
1.17373
1.17373
1.17373
1.17373
1.17373
1.17373
1.17373
1.17373
0.968294
0.968294
0.968292
0.968292
0.968291
0.968292
0.968292
0.968294
0.968295
0.968296
0.779685
0.779685
0.779683
0.779682
0.779682
0.779683
0.779684
0.779685
0.779687
0.779688
0.612309
0.61231
0.612308
0.612307
0.612306
0.612307
0.612308
0.61231
0.612313
0.612313
0.468702
0.468703
0.468701
0.4687
0.4687
0.4687
0.468702
0.468704
0.468707
0.468708
0.349541
0.349541
0.349539
0.349538
0.349538
0.349539
0.349541
0.349543
0.349546
0.349547
0.253882
0.253882
0.253881
0.25388
0.25388
0.253881
0.253882
0.253885
0.253887
0.253888
0.179561
0.179561
0.179559
0.179559
0.179559
0.17956
0.179561
0.179563
0.179566
0.179567
0.12365
0.12365
0.123649
0.123649
0.123649
0.12365
0.123651
0.123653
0.123655
0.123656
0.0829062
0.0829062
0.0829055
0.0829053
0.0829054
0.082906
0.0829071
0.0829087
0.0829107
0.0829111
0.0541282
0.0541282
0.0541277
0.0541275
0.0541277
0.0541282
0.0541291
0.0541304
0.054132
0.0541324
0.0344172
0.0344172
0.0344168
0.0344167
0.0344169
0.0344173
0.034418
0.034419
0.0344202
0.0344205
0.0213176
0.0213176
0.0213173
0.0213173
0.0213174
0.0213177
0.0213183
0.021319
0.0213199
0.0213202
0.0128657
0.0128656
0.0128655
0.0128655
0.0128656
0.0128658
0.0128662
0.0128667
0.0128674
0.0128676
0.00756826
0.00756823
0.00756813
0.00756812
0.0075682
0.00756837
0.00756864
0.00756902
0.00756949
0.00756964
0.00434092
0.0043409
0.00434084
0.00434084
0.0043409
0.00434101
0.00434119
0.00434145
0.00434177
0.00434188
0.0024286
0.00242859
0.00242855
0.00242856
0.00242859
0.00242867
0.00242879
0.00242896
0.00242917
0.00242924
0.00132586
0.00132585
0.00132583
0.00132583
0.00132586
0.00132591
0.00132598
0.00132609
0.00132622
0.00132627
0.00070662
0.000706613
0.000706602
0.000706605
0.000706621
0.000706652
0.0007067
0.000706765
0.000706847
0.000706878
0.000367801
0.000367797
0.000367791
0.000367793
0.000367803
0.000367822
0.000367851
0.00036789
0.000367938
0.000367958
0.000187056
0.000187054
0.00018705
0.000187052
0.000187058
0.000187069
0.000187086
0.000187108
0.000187137
0.000187148
9.29944e-05
9.29931e-05
9.29915e-05
9.29925e-05
9.2996e-05
9.30024e-05
9.30118e-05
9.30246e-05
9.30406e-05
9.30474e-05
4.52133e-05
4.52126e-05
4.52118e-05
4.52124e-05
4.52144e-05
4.52179e-05
4.52231e-05
4.52302e-05
4.52389e-05
4.52428e-05
2.15078e-05
2.15074e-05
2.15071e-05
2.15074e-05
2.15085e-05
2.15104e-05
2.15132e-05
2.1517e-05
2.15217e-05
2.15238e-05
1.00148e-05
1.00146e-05
1.00145e-05
1.00147e-05
1.00153e-05
1.00162e-05
1.00177e-05
1.00196e-05
1.0022e-05
1.00231e-05
4.56671e-06
4.56661e-06
4.56653e-06
4.56664e-06
4.56693e-06
4.56741e-06
4.56811e-06
4.56902e-06
4.57013e-06
4.57061e-06
2.04017e-06
2.04012e-06
2.04008e-06
2.04013e-06
2.04026e-06
2.04046e-06
2.0407e-06
2.04095e-06
2.04118e-06
2.04107e-06
8.93354e-07
8.93328e-07
8.93309e-07
8.93322e-07
8.93353e-07
8.93363e-07
8.93269e-07
8.92904e-07
8.92058e-07
8.90712e-07
3.83584e-07
3.8357e-07
3.83556e-07
3.83547e-07
3.83513e-07
3.83383e-07
3.82959e-07
3.81767e-07
3.78826e-07
3.73207e-07
1.39
1.39
1.39
1.39
1.39
1.39
1.39
1.39
1.39
1.39
1.17373
1.17373
1.17373
1.17373
1.17373
1.17373
1.17373
1.17373
1.17373
1.17374
0.968294
0.968295
0.968294
0.968293
0.968293
0.968293
0.968294
0.968295
0.968297
0.968297
0.779686
0.779686
0.779685
0.779684
0.779684
0.779685
0.779686
0.779687
0.779689
0.77969
0.61231
0.612311
0.61231
0.612309
0.612309
0.61231
0.612311
0.612313
0.612315
0.612316
0.468704
0.468704
0.468703
0.468703
0.468703
0.468703
0.468705
0.468707
0.46871
0.46871
0.349542
0.349543
0.349542
0.349541
0.349541
0.349542
0.349544
0.349546
0.349549
0.349549
0.253883
0.253884
0.253883
0.253883
0.253883
0.253884
0.253885
0.253887
0.25389
0.25389
0.179562
0.179563
0.179562
0.179562
0.179562
0.179563
0.179564
0.179566
0.179569
0.179569
0.123652
0.123652
0.123652
0.123651
0.123652
0.123652
0.123654
0.123655
0.123658
0.123658
0.0829074
0.0829077
0.0829073
0.0829072
0.0829075
0.0829081
0.0829092
0.0829107
0.0829125
0.0829127
0.0541292
0.0541294
0.0541292
0.0541291
0.0541294
0.0541299
0.0541308
0.054132
0.0541335
0.0541337
0.034418
0.0344181
0.034418
0.034418
0.0344182
0.0344186
0.0344193
0.0344202
0.0344214
0.0344216
0.0213182
0.0213183
0.0213182
0.0213182
0.0213184
0.0213187
0.0213192
0.0213199
0.0213208
0.021321
0.0128661
0.0128662
0.0128661
0.0128662
0.0128663
0.0128665
0.0128669
0.0128674
0.012868
0.0128682
0.00756858
0.00756863
0.00756859
0.0075686
0.00756869
0.00756887
0.00756913
0.00756949
0.00756993
0.00757002
0.00434115
0.00434117
0.00434115
0.00434116
0.00434123
0.00434135
0.00434153
0.00434177
0.00434207
0.00434214
0.00242875
0.00242877
0.00242876
0.00242877
0.00242881
0.00242889
0.00242901
0.00242917
0.00242936
0.00242941
0.00132595
0.00132596
0.00132596
0.00132597
0.00132599
0.00132604
0.00132612
0.00132622
0.00132634
0.00132638
0.00070668
0.000706685
0.000706682
0.000706688
0.000706706
0.000706738
0.000706784
0.000706847
0.000706923
0.000706945
0.000367838
0.00036784
0.000367839
0.000367843
0.000367854
0.000367873
0.000367901
0.000367938
0.000367984
0.000367998
0.000187078
0.000187079
0.000187078
0.000187081
0.000187087
0.000187099
0.000187115
0.000187137
0.000187163
0.000187172
9.30069e-05
9.30075e-05
9.30073e-05
9.30088e-05
9.30127e-05
9.3019e-05
9.30283e-05
9.30406e-05
9.30555e-05
9.30606e-05
4.52203e-05
4.52206e-05
4.52205e-05
4.52214e-05
4.52236e-05
4.52271e-05
4.52322e-05
4.5239e-05
4.52471e-05
4.52501e-05
2.15116e-05
2.15117e-05
2.15117e-05
2.15123e-05
2.15134e-05
2.15153e-05
2.15181e-05
2.15217e-05
2.15261e-05
2.15277e-05
1.00168e-05
1.00169e-05
1.00169e-05
1.00172e-05
1.00178e-05
1.00188e-05
1.00202e-05
1.00221e-05
1.00243e-05
1.00252e-05
4.56773e-06
4.56776e-06
4.56777e-06
4.56792e-06
4.56823e-06
4.56871e-06
4.56939e-06
4.57026e-06
4.5713e-06
4.57165e-06
2.04068e-06
2.0407e-06
2.0407e-06
2.04077e-06
2.04091e-06
2.04111e-06
2.04134e-06
2.04157e-06
2.04176e-06
2.04159e-06
8.93604e-07
8.93609e-07
8.93609e-07
8.93631e-07
8.93665e-07
8.93676e-07
8.93578e-07
8.93203e-07
8.92339e-07
8.90964e-07
3.83704e-07
3.83704e-07
3.83699e-07
3.83693e-07
3.83662e-07
3.83531e-07
3.83106e-07
3.81909e-07
3.78958e-07
3.73325e-07
1.39
1.39
1.39
1.39
1.39
1.39
1.39
1.39
1.39
1.39
1.17373
1.17373
1.17373
1.17373
1.17373
1.17373
1.17373
1.17373
1.17374
1.17374
0.968294
0.968295
0.968294
0.968293
0.968293
0.968294
0.968294
0.968296
0.968297
0.968297
0.779685
0.779686
0.779685
0.779685
0.779685
0.779685
0.779686
0.779688
0.77969
0.779689
0.61231
0.612311
0.61231
0.61231
0.61231
0.61231
0.612312
0.612313
0.612316
0.612315
0.468703
0.468704
0.468703
0.468703
0.468703
0.468704
0.468705
0.468708
0.46871
0.468709
0.349542
0.349543
0.349542
0.349542
0.349542
0.349543
0.349544
0.349547
0.349549
0.349548
0.253883
0.253884
0.253883
0.253883
0.253884
0.253884
0.253886
0.253888
0.25389
0.253889
0.179562
0.179563
0.179562
0.179562
0.179562
0.179563
0.179565
0.179567
0.179569
0.179568
0.123652
0.123652
0.123652
0.123652
0.123652
0.123653
0.123654
0.123656
0.123658
0.123657
0.0829075
0.0829078
0.0829077
0.0829077
0.082908
0.0829087
0.0829097
0.0829111
0.0829127
0.0829121
0.0541294
0.0541296
0.0541295
0.0541296
0.0541298
0.0541304
0.0541312
0.0541324
0.0541337
0.0541332
0.0344182
0.0344183
0.0344183
0.0344183
0.0344185
0.034419
0.0344196
0.0344205
0.0344216
0.0344212
0.0213184
0.0213185
0.0213185
0.0213185
0.0213187
0.021319
0.0213195
0.0213202
0.021321
0.0213207
0.0128663
0.0128663
0.0128663
0.0128664
0.0128665
0.0128668
0.0128671
0.0128676
0.0128682
0.012868
0.00756869
0.00756873
0.00756873
0.00756877
0.00756886
0.00756904
0.0075693
0.00756964
0.00757002