/*--------------------------------*- C++ -*----------------------------------*\
| =========                 |                                                 |
| \\      /  F ield         | OpenFOAM: The Open Source CFD Toolbox           |
|  \\    /   O peration     | Version:  v1812                                 |
|   \\  /    A nd           | Web:      www.OpenFOAM.com                      |
|    \\/     M anipulation  |                                                 |
\*---------------------------------------------------------------------------*/
FoamFile
{
    version     2.0;
    format      ascii;
    class       volScalarField;
    location    "7.05";
    object      p;
}
// * * * * * * * * * * * * * * * * * * * * * * * * * * * * * * * * * * * * * //

dimensions      [0 2 -2 0 0 0 0];


internalField   nonuniform List<scalar> 
1000
(
1.6754158
1.5543379
1.4583575
1.3947014
1.3461919
1.3037198
1.2661846
1.2340128
1.2066125
1.1827749
1.1613806
1.1416167
1.1229396
1.105
1.0875847
1.0705705
1.0538897
1.0375055
1.0213973
1.0055514
0.9899564
0.9746013
0.9594746
0.94456436
0.92985835
0.91534435
0.90101038
0.88684487
0.87283682
0.85897582
0.84525212
0.83165658
0.81818069
0.80481652
0.79155668
0.77839431
0.76532299
0.75233678
0.73943012
0.72659782
0.71383506
0.70113732
0.68850039
0.67592033
0.66339348
0.65091641
0.63848594
0.62609911
0.61375315
0.6014455
0.58917378
0.57693578
0.56472944
0.55255285
0.54040423
0.52828193
0.5161844
0.50411022
0.49205801
0.48002652
0.46801454
0.4560209
0.44404451
0.4320843
0.42013922
0.40820826
0.39629043
0.38438478
0.37249036
0.36060625
0.34873157
0.33686544
0.32500702
0.31315552
0.30131017
0.28947027
0.27763514
0.2658042
0.25397689
0.24215272
0.23033124
0.21851202
0.20669468
0.19487889
0.18306434
0.17125082
0.15943813
0.14762613
0.13581471
0.12400378
0.11219324
0.10038298
0.08857291
0.076762965
0.064953095
0.053143286
0.041333539
0.029523865
0.017714259
0.0059047252
1.5581962
1.5032671
1.4423146
1.3907469
1.3474768
1.3085085
1.2729223
1.2411497
1.2131887
1.1884109
1.166009
1.1453077
1.125826
1.107238
1.0893244
1.0719396
1.0549878
1.0384064
1.0221537
1.0062003
0.99052322
0.97510369
0.95992484
0.94497117
0.93022811
0.91568188
0.90131947
0.8871286
0.87309776
0.85921619
0.84547383
0.83186133
0.81836999
0.8049917
0.79171895
0.77854473
0.76546254
0.75246633
0.73955045
0.72670966
0.71393904
0.70123404
0.68859038
0.67600409
0.66347144
0.65098899
0.6385535
0.62616197
0.61381162
0.60149986
0.58922427
0.57698263
0.56477285
0.552593
0.5404413
0.52831608
0.51621578
0.50413895
0.49208424
0.48005037
0.46803612
0.45604035
0.44406195
0.43209984
0.42015299
0.40822039
0.39630105
0.38439401
0.37249832
0.36061307
0.34873736
0.33687031
0.3250111
0.3131589
0.30131295
0.28947253
0.27763696
0.26580565
0.25397803
0.2421536
0.23033191
0.21851253
0.20669506
0.19487918
0.18306457
0.17125099
0.15943825
0.14762621
0.13581476
0.1240038
0.11219324
0.10038297
0.088572909
0.07676297
0.064953104
0.053143295
0.041333541
0.029523857
0.017714237
0.0059047049
1.4973749
1.4711998
1.432803
1.3916701
1.3525848
1.315994
1.2816963
1.2499788
1.2211227
1.1950216
1.1712676
1.1493776
1.1289278
1.1095869
1.0911068
1.0733057
1.0560539
1.0392583
1.0228522
1.0067871
0.99102672
0.97554304
0.96031317
0.94531767
0.9305394
0.9159629
0.90157406
0.88735988
0.87330834
0.85940828
0.84564937
0.83202201
0.81851728
0.80512693
0.79184326
0.77865917
0.76556802
0.75256366
0.73964036
0.72679279
0.71401599
0.70130531
0.68865645
0.67606537
0.66352832
0.6510418
0.63860255
0.62620756
0.61385399
0.60153923
0.58926086
0.57701661
0.5648044
0.55262228
0.54046844
0.5283412
0.516239
0.50416038
0.49210397
0.48006848
0.4680527
0.45605547
0.44407569
0.43211228
0.42016419
0.40823043
0.39631
0.38440195
0.37250531
0.36061919
0.34874268
0.33687491
0.32501505
0.31316227
0.3013158
0.28947492
0.27763896
0.26580729
0.25397937
0.24215469
0.23033277
0.21851321
0.2066956
0.19487961
0.18306491
0.17125126
0.15943846
0.14762637
0.13581487
0.12400387
0.11219328
0.100383
0.088572925
0.076762989
0.064953125
0.053143313
0.041333548
0.029523846
0.017714208
0.0059046797
1.4679664
1.4524683
1.4255984
1.3916745
1.3558735
1.3209222
1.2876202
1.2562672
1.2271365
1.200345
1.1757575
1.1530653
1.1319135
1.1119847
1.0930265
1.0748468
1.0573011
1.04028
1.0237014
1.0075034
0.99163947
0.97607372
0.96077776
0.94572808
0.93090464
0.9162899
0.90186825
0.88762561
0.87354916
0.85962716
0.84584879
0.83220411
0.8186839
0.80527965
0.7919835
0.77878812
0.76568677
0.75267314
0.73974143
0.72688618
0.71410237
0.70138529
0.68873056
0.6761341
0.66359212
0.65110106
0.63865764
0.6262588
0.61390168
0.60158366
0.58930227
0.57705523
0.56484044
0.55265593
0.54049987
0.52837057
0.51626644
0.50418601
0.4921279
0.48009082
0.46807352
0.45607485
0.44409368
0.43212895
0.4201796
0.40824462
0.39632302
0.38441384
0.37251613
0.36062898
0.34875149
0.3368828
0.32502207
0.31316848
0.30132126
0.28947969
0.2776431
0.26581086
0.25398241
0.24215726
0.23033494
0.21851501
0.2066971
0.19488084
0.18306593
0.17125209
0.15943914
0.14762691
0.13581529
0.12400419
0.11219352
0.10038317
0.088573059
0.076763095
0.06495321
0.05314338
0.041333591
0.029523865
0.017714203
0.0059046718
1.4552348
1.4432815
1.4210471
1.3907595
1.3568984
1.3229028
1.2902052
1.2591997
1.2301023
1.2030904
1.1781634
1.1551138
1.1336323
1.1134146
1.094211
1.0758288
1.0581199
1.0409694
1.0242886
1.0080095
0.9920805
0.97646195
0.96112243
0.94603627
0.93118181
0.91654031
0.90209533
0.88783213
0.87373743
0.85979915
0.84600619
0.83234837
0.81881632
0.80540136
0.79209549
0.7788913
0.76578192
0.75276099
0.7398226
0.72696126
0.71417186
0.70144966
0.68879024
0.67618948
0.66364353
0.65114884
0.63870207
0.62630015
0.6139402
0.60161956
0.58933576
0.57708651
0.56486968
0.55268328
0.54052549
0.52839457
0.51628895
0.50420713
0.49214772
0.48010941
0.46809095
0.45609118
0.44410896
0.43214321
0.42019288
0.40825696
0.39633444
0.38442436
0.37252579
0.36063781
0.34875952
0.33689006
0.32502859
0.3131743
0.30132643
0.28948425
0.27764709
0.26581432
0.2539854
0.24215981
0.2303371
0.21851684
0.20669863
0.19488211
0.18306698
0.17125296
0.15943984
0.14762747
0.13581574
0.12400454
0.11219378
0.10038337
0.088573212
0.076763214
0.064953303
0.053143452
0.041333641
0.029523895
0.017714213
0.0059046761
1.4552348
1.4432815
1.4210471
1.3907595
1.3568984
1.3229028
1.2902052
1.2591997
1.2301023
1.2030904
1.1781634
1.1551138
1.1336323
1.1134146
1.094211
1.0758288
1.0581199
1.0409694
1.0242886
1.0080095
0.9920805
0.97646195
0.96112243
0.94603627
0.93118181
0.91654031
0.90209532
0.88783213
0.87373743
0.85979914
0.84600619
0.83234837
0.81881632
0.80540136
0.7920955
0.77889131
0.76578193
0.75276099
0.7398226
0.72696126
0.71417186
0.70144966
0.68879024
0.67618948
0.66364353
0.65114884
0.63870208
0.62630015
0.6139402
0.60161957
0.58933577
0.57708652
0.56486968
0.55268329
0.54052549
0.52839458
0.51628895
0.50420714
0.49214772
0.48010941
0.46809096
0.45609118
0.44410896
0.43214321
0.42019288
0.40825695
0.39633443
0.38442436
0.37252578
0.3606378
0.34875951
0.33689005
0.32502859
0.3131743
0.30132643
0.28948425
0.27764708
0.26581432
0.25398539
0.24215981
0.2303371
0.21851683
0.20669863
0.19488212
0.18306698
0.17125296
0.15943984
0.14762747
0.13581573
0.12400453
0.11219377
0.10038337
0.088573211
0.076763214
0.064953304
0.053143453
0.041333643
0.029523897
0.017714214
0.0059046755
1.4679664
1.4524683
1.4255984
1.3916745
1.3558735
1.3209222
1.2876202
1.2562672
1.2271365
1.200345
1.1757575
1.1530653
1.1319135
1.1119847
1.0930265
1.0748468
1.057301
1.04028
1.0237014
1.0075034
0.99163947
0.97607373
0.96077776
0.94572808
0.93090464
0.9162899
0.90186825
0.88762561
0.87354916
0.85962715
0.84584879
0.83220411
0.8186839
0.80527966
0.7919835
0.77878813
0.76568677
0.75267315
0.73974142
0.72688618
0.71410237
0.70138529
0.68873056
0.67613411
0.66359212
0.65110107
0.63865766
0.62625881
0.6139017
0.60158367
0.58930228
0.57705524
0.56484045
0.55265593
0.54049987
0.52837057
0.51626644
0.50418602
0.49212791
0.48009082
0.46807353
0.45607486
0.44409369
0.43212895
0.4201796
0.40824461
0.39632301
0.38441382
0.37251611
0.36062896
0.34875147
0.33688279
0.32502206
0.31316848
0.30132126
0.28947969
0.27764309
0.26581084
0.25398239
0.24215724
0.23033492
0.21851501
0.20669711
0.19488086
0.18306594
0.1712521
0.15943914
0.1476269
0.13581528
0.12400418
0.1121935
0.10038316
0.088573057
0.076763096
0.064953214
0.053143384
0.041333596
0.02952387
0.017714205
0.0059046707
1.4973749
1.4711998
1.432803
1.3916701
1.3525848
1.315994
1.2816963
1.2499788
1.2211227
1.1950216
1.1712676
1.1493776
1.1289278
1.1095869
1.0911068
1.0733057
1.0560539
1.0392583
1.0228522
1.0067871
0.99102672
0.97554304
0.96031318
0.94531767
0.9305394
0.9159629
0.90157406
0.88735988
0.87330833
0.85940827
0.84564937
0.832022
0.81851728
0.80512693
0.79184327
0.77865918
0.76556803
0.75256366
0.73964036
0.72679279
0.71401598
0.7013053
0.68865644
0.67606537
0.66352832
0.65104181
0.63860257
0.62620758
0.61385401
0.60153925
0.58926087
0.57701663
0.56480441
0.55262229
0.54046845
0.52834121
0.51623901
0.50416039
0.49210397
0.48006849
0.46805271
0.45605548
0.4440757
0.43211228
0.42016419
0.40823042
0.39630998
0.38440192
0.37250528
0.36061916
0.34874266
0.3368749
0.32501504
0.31316227
0.3013158
0.28947491
0.27763894
0.26580726
0.25397934
0.24215466
0.23033276
0.21851321
0.20669562
0.19487963
0.18306493
0.17125127
0.15943846
0.14762636
0.13581485
0.12400385
0.11219326
0.10038299
0.088572925
0.076762994
0.064953132
0.053143321
0.041333554
0.029523851
0.01771421
0.0059046791
1.5581962
1.5032671
1.4423146
1.3907469
1.3474768
1.3085085
1.2729223
1.2411497
1.2131887
1.1884109
1.166009
1.1453077
1.125826
1.107238
1.0893244
1.0719396
1.0549878
1.0384064
1.0221537
1.0062003
0.99052322
0.97510369
0.95992484
0.94497118
0.93022811
0.91568188
0.90131946
0.88712858
0.87309775
0.85921617
0.84547382
0.83186133
0.81836999
0.80499171
0.79171896
0.77854474
0.76546255
0.75246633
0.73955045
0.72670965
0.71393903
0.70123403
0.68859038
0.67600409
0.66347146
0.65098901
0.63855352
0.626162
0.61381165
0.60149988
0.58922429
0.57698264
0.56477286
0.55259301
0.54044131
0.52831608
0.51621578
0.50413896
0.49208425
0.48005038
0.46803614
0.45604036
0.44406196
0.43209984
0.42015299
0.40822037
0.39630102
0.38439397
0.37249828
0.36061304
0.34873734
0.33687031
0.3250111
0.3131589
0.30131295
0.28947251
0.27763693
0.26580561
0.25397799
0.24215358
0.2303319
0.21851254
0.20669509
0.19487921
0.18306459
0.17125099
0.15943824
0.14762619
0.13581473
0.12400378
0.11219323
0.10038297
0.088572912
0.076762976
0.06495311
0.053143301
0.041333548
0.029523863
0.017714241
0.0059047061
1.6754158
1.5543379
1.4583575
1.3947014
1.3461919
1.3037198
1.2661846
1.2340128
1.2066125
1.1827749
1.1613806
1.1416167
1.1229396
1.105
1.0875847
1.0705705
1.0538897
1.0375055
1.0213973
1.0055514
0.98995641
0.97460131
0.95947461
0.94456437
0.92985835
0.91534435
0.90101037
0.88684486
0.87283681
0.85897581
0.84525212
0.83165658
0.8181807
0.80481653
0.79155669
0.77839431
0.765323
0.75233678
0.73943011
0.72659781
0.71383505
0.70113731
0.68850039
0.67592033
0.66339349
0.65091643
0.63848597
0.62609913
0.61375317
0.60144552
0.5891738
0.57693579
0.56472945
0.55255285
0.54040423
0.52828193
0.5161844
0.50411022
0.49205802
0.48002653
0.46801455
0.45602091
0.44404452
0.4320843
0.4201392
0.40820823
0.3962904
0.38438474
0.37249032
0.36060622
0.34873155
0.33686543
0.32500702
0.31315552
0.30131017
0.28947025
0.27763511
0.26580416
0.25397686
0.24215271
0.23033124
0.21851203
0.2066947
0.19487891
0.18306435
0.17125082
0.15943811
0.14762611
0.1358147
0.12400377
0.11219323
0.10038297
0.088572905
0.07676296
0.064953093
0.053143289
0.041333549
0.029523877
0.01771427
0.0059047298
)
;

boundaryField
{
    top
    {
        type            zeroGradient;
    }
    inlet
    {
        type            zeroGradient;
    }
    outlet
    {
        type            fixedValue;
        value           uniform 0;
    }
    bottom
    {
        type            zeroGradient;
    }
    back
    {
        type            empty;
    }
    front
    {
        type            empty;
    }
}


// ************************************************************************* //
