/*--------------------------------*- C++ -*----------------------------------*\
| =========                 |                                                 |
| \\      /  F ield         | OpenFOAM: The Open Source CFD Toolbox           |
|  \\    /   O peration     | Version:  v1812                                 |
|   \\  /    A nd           | Web:      www.OpenFOAM.com                      |
|    \\/     M anipulation  |                                                 |
\*---------------------------------------------------------------------------*/
FoamFile
{
    version     2.0;
    format      ascii;
    class       surfaceScalarField;
    location    "7.05";
    object      phi;
}
// * * * * * * * * * * * * * * * * * * * * * * * * * * * * * * * * * * * * * //

dimensions      [0 3 -1 0 0 0 0];
oriented        oriented;


internalField   nonuniform List<scalar> 
1890
(
0.0093061957
0.00069380425
0.0082843931
0.0010218027
0.0073298986
0.00095449449
0.0064869553
0.00084294334
0.0057695845
0.0007173708
0.00518986
0.00057972444
0.004738168
0.00045169205
0.00439519
0.00034297801
0.0041390268
0.00025616318
0.003949107
0.00018991983
0.003807888
0.00014121897
0.0037013782
0.0001065098
0.003619058
8.2320219e-05
0.0035534117
6.5646244e-05
0.0034992845
5.4127256e-05
0.0034532444
4.6040052e-05
0.0034130501
4.0194298e-05
0.0033772573
3.5792762e-05
0.0033449386
3.2318764e-05
0.0033154893
2.9449285e-05
0.0032885007
2.6988578e-05
0.0032636804
2.4820302e-05
0.003240805
2.2875483e-05
0.0032196925
2.1112424e-05
0.0032001879
1.9504668e-05
0.0031821538
1.8034035e-05
0.0031654671
1.6686751e-05
0.0031500157
1.5451393e-05
0.0031356978
1.4317894e-05
0.0031224207
1.3277105e-05
0.0031101
1.232063e-05
0.0030986593
1.1440768e-05
0.0030880288
1.0630497e-05
0.0030781453
9.8834508e-06
0.0030689515
9.1938871e-06
0.0030603948
8.5566478e-06
0.0030524277
7.967109e-06
0.0030450066
7.4211295e-06
0.0030380916
6.9149972e-06
0.0030316462
6.4453797e-06
0.0030256369
6.0092762e-06
0.0030200329
5.6039759e-06
0.0030148059
5.2270196e-06
0.0030099298
4.8761652e-06
0.0030053804
4.5493603e-06
0.0030011357
4.244714e-06
0.0029971753
3.9604794e-06
0.0029934803
3.6950308e-06
0.0029900335
3.4468558e-06
0.002986819
3.214539e-06
0.0029838223
2.9967624e-06
0.0029810301
2.7922931e-06
0.0029784302
2.599993e-06
0.0029760115
2.4188075e-06
0.0029737638
2.2477831e-06
0.0029716779
2.0860525e-06
0.0029697452
1.9328576e-06
0.0029679578
1.7875297e-06
0.0029663084
1.6495132e-06
0.0029647902
1.5183391e-06
0.0029633967
1.3936476e-06
0.0029621216
1.275154e-06
0.0029609591
1.1626679e-06
0.0029599031
1.0560544e-06
0.0029589479
9.5524817e-07
0.0029580878
8.6021259e-07
0.0029573168
7.7094918e-07
0.0029566294
6.8745966e-07
0.0029560196
6.0975223e-07
0.0029554818
5.3780934e-07
0.0029550102
4.7159374e-07
0.0029545991
4.1102685e-07
0.0029542431
3.5599516e-07
0.0029539367
3.0633965e-07
0.0029536748
2.6186102e-07
0.0029534525
2.2232226e-07
0.002953265
1.8744729e-07
0.002953108
1.5693506e-07
0.0029529774
1.304524e-07
0.0029528697
1.0765787e-07
0.0029527814
8.8192519e-08
0.0029527097
7.1708226e-08
0.0029526518
5.7857648e-08
0.0029526055
4.6322391e-08
0.0029525688
3.6795099e-08
0.0029525398
2.9004661e-08
0.0029525171
2.2690943e-08
0.0029524994
1.7627882e-08
0.0029524857
1.3600146e-08
0.0029524752
1.0421603e-08
0.0029524673
7.9277651e-09
0.0029524613
5.980108e-09
0.0029524569
4.4744155e-09
0.0029524537
3.3206609e-09
0.0029524513
2.4702131e-09
0.0029524494
1.8562486e-09
0.0029524479
1.4699853e-09
0.0029524465
1.2587118e-09
0.0029524452
1.3290856e-09
1.4339117e-09
0.010339525
0.00035427932
0.010570754
0.00079057335
0.010606301
0.00091894821
0.010547572
0.00090167137
0.010422317
0.00084262624
0.010244356
0.00075768559
0.010039421
0.00065662744
0.0098287427
0.00055365586
0.009625135
0.00045977083
0.0094353013
0.00037975354
0.0092624277
0.00031409259
0.0091075332
0.00026140426
0.008970154
0.00021969949
0.0088489023
0.00018689787
0.0087419716
0.00016105803
0.0086474926
0.00014051896
0.008563694
0.00012399298
0.0084890107
0.00011047601
0.0084221096
9.921988e-05
0.0083618775
8.9681411e-05
0.0083073954
8.1470675e-05
0.0082579078
7.4307855e-05
0.0082127928
6.7990511e-05
0.0081715352
6.2370012e-05
0.0081337048
5.7335047e-05
0.0080989387
5.2800226e-05
0.0080669271
4.8698316e-05
0.0080374035
4.497501e-05
0.0080101359
4.1585449e-05
0.0079849211
3.8491908e-05
0.0079615795
3.5662221e-05
0.0079399516
3.3068685e-05
0.0079198948
3.0687255e-05
0.0079012813
2.8496945e-05
0.0078839959
2.6479345e-05
0.0078679343
2.4618244e-05
0.0078530021
2.289931e-05
0.0078391134
2.130983e-05
0.0078261899
1.9838483e-05
0.0078141601
1.847515e-05
0.0078029586
1.7210749e-05
0.0077925255
1.6037095e-05
0.0077828057
1.494678e-05
0.0077737488
1.3933067e-05
0.0077653084
1.2989802e-05
0.0077574418
1.2111338e-05
0.0077501098
1.1292468e-05
0.0077432765
1.0528376e-05
0.0077369088
9.8145896e-06
0.0077309764
9.1469559e-06
0.0077254515
8.5216086e-06
0.0077203089
7.9349656e-06
0.0077155252
7.3837075e-06
0.0077110792
6.8647952e-06
0.0077069516
6.375451e-06
0.0077031245
5.9131878e-06
0.0076995816
5.4757875e-06
0.0076963078
5.0613331e-06
0.0076932892
4.6681771e-06
0.0076905126
4.2949684e-06
0.0076879657
3.9406067e-06
0.0076856366
3.604259e-06
0.0076835139
3.2852999e-06
0.0076815867
2.9833155e-06
0.0076798439
2.6980338e-06
0.0076782747
2.429316e-06
0.0076768685
2.1770874e-06
0.0076756146
1.9413202e-06
0.0076745023
1.721973e-06
0.007673521
1.5189721e-06
0.0076726604
1.332169e-06
0.00767191
1.1613271e-06
0.0076712598
1.006102e-06
0.0076707
8.6603282e-07
0.0076702213
7.405503e-07
0.0076698146
6.2896909e-07
0.0076694714
5.3051868e-07
0.0076691839
4.4433292e-07
0.0076689448
3.6949717e-07
0.0076687473
3.0503777e-07
0.0076685854
2.4997777e-07
0.0076684537
2.0332466e-07
0.0076683475
1.6413152e-07
0.0076682623
1.3147224e-07
0.0076681947
1.04505e-07
0.0076681413
8.2421774e-08
0.0076680994
6.4517438e-08
0.0076680669
5.0117474e-08
0.0076680417
3.8655263e-08
0.0076680225
2.9588523e-08
0.0076680079
2.2490214e-08
0.0076679969
1.6951898e-08
0.0076679888
1.2691615e-08
0.0076679828
9.4258178e-09
0.0076679783
6.9970135e-09
0.007667975
5.2072089e-09
0.0076679724
3.9853976e-09
0.0076679704
3.1692862e-09
0.007667969
2.7938668e-09
2.4645156e-09
0.010188704
0.00016557515
0.010530487
0.000448791
0.010851453
0.00059798177
0.011124174
0.00062895025
0.011350581
0.00061621887
0.011524486
0.00058378056
0.01164633
0.00053478421
0.011724155
0.0004758305
0.011767999
0.00041592666
0.011786639
0.000361114
0.011787114
0.00031361712
0.011775058
0.00027346026
0.011754861
0.00023989719
0.011729768
0.00021199032
0.011702054
0.00018877262
0.011673239
0.00016933389
0.011644339
0.00015289297
0.011616003
0.00013881184
0.011588629
0.00012659381
0.011562446
0.00011586446
0.011537571
0.00010634496
0.011514052
9.7827024e-05
0.011491889
9.0153392e-05
0.011471056
8.3203402e-05
0.011451508
7.6882657e-05
0.011433193
7.1115612e-05
0.011416051
6.5840353e-05
0.011400021
6.1004977e-05
0.011385041
5.6565146e-05
0.011371051
5.2482422e-05
0.01135799
4.8723119e-05
0.011345801
4.5257486e-05
0.011334429
4.2059095e-05
0.011323822
3.9104368e-05
0.011313929
3.6372198e-05
0.011304704
3.3843638e-05
0.011296101
3.1501632e-05
0.01128808
2.9330795e-05
0.011280602
2.731721e-05
0.011273628
2.5448258e-05
0.011267127
2.3712466e-05
0.011261064
2.2099374e-05
0.011255412
2.0599415e-05
0.011250141
1.920381e-05
0.011245226
1.7904481e-05
0.011240644
1.6693964e-05
0.011236371
1.5565344e-05
0.011232387
1.4512197e-05
0.011228673
1.3528536e-05
0.011225211
1.2608783e-05
0.011221985
1.174773e-05
0.01121898
1.094053e-05
0.011216181
1.0182682e-05
0.011213576
9.4700269e-06
0.011211152
8.7987561e-06
0.0112089
8.1654072e-06
0.011206809
7.5668832e-06
0.01120487
7.0004418e-06
0.011203075
6.4637167e-06
0.011201415
5.9546918e-06
0.011199884
5.471716e-06
0.011198475
5.013457e-06
0.011197181
4.5789063e-06
0.011195997
4.167311e-06
0.011194917
3.7781676e-06
0.011193935
3.411139e-06
0.011193046
3.0660382e-06
0.011192245
2.7427419e-06
0.011191525
2.4411712e-06
0.011190883
2.1612137e-06
0.011190312
1.9027077e-06
0.011189808
1.6653842e-06
0.011189365
1.4488612e-06
0.011188979
1.2526117e-06
0.011188643
1.0759686e-06
0.011188354
9.1811822e-07
0.011188106
7.7811595e-07
0.011187896
6.5489955e-07
0.011187718
5.4730935e-07
0.011187569
4.5411659e-07
0.011187444
3.7404841e-07
0.011187342
3.0582052e-07
0.011187258
2.4816387e-07
0.011187189
1.9984977e-07
0.011187134
1.597116e-07
0.01118709
1.2665544e-07
0.011187055
9.9674491e-08
0.011187027
7.7845024e-08
0.011187005
6.0341642e-08
0.011186988
4.6420675e-08
0.011186975
3.5445173e-08
0.011186966
2.6854461e-08
0.011186958
2.0198571e-08
0.011186953
1.5086043e-08
0.011186948
1.1227637e-08
0.011186945
8.3419342e-09
0.011186943
6.2940576e-09
0.011186941
4.7845304e-09
0.01118694
3.9661678e-09
3.0761276e-09
0.010097182
6.8393556e-05
0.010346961
0.00019901112
0.010662469
0.00028247387
0.010982753
0.00030866649
0.011290229
0.00030874342
0.011575251
0.00029875789
0.011829022
0.00028101346
0.012047865
0.00025698756
0.012233272
0.00023051982
0.01238924
0.0002051459
0.012520295
0.00018256236
0.012630755
0.00016299958
0.012724428
0.00014622492
0.012804515
0.00013190313
0.012873613
0.00011967427
0.012933772
0.00010917462
0.012986596
0.00010006908
0.013033332
9.2076382e-05
0.01307495
8.4975274e-05
0.013112216
7.8598639e-05
0.013145739
7.2822333e-05
0.013176012
6.7553971e-05
0.013203441
6.272396e-05
0.013228366
5.8278937e-05
0.013251071
5.4177034e-05
0.013271802
5.0384487e-05
0.01329077
4.6873229e-05
0.013308155
4.3619256e-05
0.013324119
4.0601549e-05
0.0133388
3.7801381e-05
0.013352321
3.5201863e-05
0.013364791
3.2787649e-05
0.013376305
3.0544714e-05
0.01338695
2.8460207e-05
0.013396799
2.6522322e-05
0.013405923
2.47202e-05
0.013414381
2.304384e-05
0.013422227
2.1484024e-05
0.013429512
2.0032249e-05
0.01343628
1.8680659e-05
0.01344257
1.7421992e-05
0.01344842
1.6249519e-05
0.013453863
1.5157001e-05
0.013458928
1.4138639e-05
0.013463643
1.3189033e-05
0.013468034
1.2303145e-05
0.013472123
1.1476262e-05
0.013475931
1.0703971e-05
0.013479478
9.9821311e-06
0.01348278
9.3068555e-06
0.013485853
8.6744975e-06
0.013488712
8.081643e-06
0.013491369
7.5250955e-06
0.013493838
7.0018951e-06
0.013496127
6.5092951e-06
0.013498248
6.0447994e-06
0.013500208
5.6061283e-06
0.013502018
5.1912708e-06
0.013503683
4.7984338e-06
0.013505212
4.426103e-06
0.01350661
4.072972e-06
0.013507886
3.7380051e-06
0.013509044
3.4203465e-06
0.013510092
3.1193797e-06
0.013511036
2.8346207e-06
0.013511881
2.5657692e-06
0.013512635
2.312596e-06
0.013513302
2.0749837e-06
0.013513891
1.8528216e-06
0.013514406
1.6460354e-06
0.013514854
1.4544986e-06
0.013515241
1.2780579e-06
0.013515574
1.1164674e-06
0.013515857
9.6941039e-07
0.013516096
8.3645909e-07
0.013516297
7.1709531e-07
0.013516465
6.1070541e-07
0.013516603
5.1658141e-07
0.013516716
4.3395291e-07
0.013516808
3.6197368e-07
0.013516883
2.9977947e-07
0.013516942
2.4646272e-07
0.013516989
2.0114236e-07
0.013517026
1.6292621e-07
0.013517055
1.3098766e-07
0.013517077
1.0450794e-07
0.013517094
8.2762629e-08
0.013517107
6.503988e-08
0.013517116
5.0740601e-08
0.013517123
3.927878e-08
0.013517129
3.0189698e-08
0.013517133
2.3019362e-08
0.013517135
1.7438591e-08
0.013517137
1.31081e-08
0.013517139
9.8286834e-09
0.01351714
7.3173467e-09
0.013517141
5.5350812e-09
0.013517141
4.1279831e-09
0.013517142
3.3730439e-09
2.4709641e-09
0.010068394
-1.4764547e-13
0.010267405
2.6485766e-14
0.010549879
3.5371968e-13
0.010858545
7.7641184e-13
0.011167288
1.1986984e-12
0.011466046
1.5959699e-12
0.01174706
1.8941322e-12
0.012004047
2.1038374e-12
0.012234567
2.3136582e-12
0.012439713
2.6086063e-12
0.012622275
3.2077479e-12
0.012785275
4.2253936e-12
0.0129315
5.7633637e-12
0.013063403
7.8420509e-12
0.013183077
1.0266535e-11
0.013292252
1.298241e-11
0.013392321
1.5676697e-11
0.013484397
1.8381909e-11
0.013569373
2.1016361e-11
0.013647971
2.3746541e-11
0.013720793
2.6865675e-11
0.013788347
3.0643363e-11
0.013851071
3.5493023e-11
0.01390935
4.1684086e-11
0.013963527
4.9201914e-11
0.014013912
5.8112563e-11
0.014060785
6.7759597e-11
0.014104404
7.8101092e-11
0.014145005
8.8334219e-11
0.014182807
9.863703e-11
0.014218008
1.0866007e-10
0.014250796
1.1882497e-10
0.014281341
1.2919363e-10
0.014309801
1.4022366e-10
0.014336323
1.5182374e-10
0.014361043
1.6432983e-10
0.014384087
1.766922e-10
0.01440557
1.8885056e-10
0.014425602
1.9885613e-10
0.014444283
2.0637303e-10
0.014461705
2.0929721e-10
0.014477954
2.0729459e-10
0.014493111
1.9918017e-10
0.014507249
1.8453322e-10
0.014520438
1.6331261e-10
0.014532741
1.3448401e-10
0.014544217
9.9875431e-11
0.014554921
5.8006988e-11
0.014564903
1.2168261e-11
0.01457421
-4.8481957e-11
0.014582885
-1.0866649e-10
0.014590966
-1.7571726e-10
0.014598492
-2.4313536e-10
0.014605494
-3.1545845e-10
0.014612004
-3.8328471e-10
0.014618049
-4.5262352e-10
0.014623655
-5.1158307e-10
0.014628847
-5.6868857e-10
0.014633646
-6.1014374e-10
0.014638073
-6.4616285e-10
0.014642147
-6.6226611e-10
0.014645885
-6.7103503e-10
0.014649306
-6.5840273e-10
0.014652426
-6.371508e-10
0.014655262
-5.9562557e-10
0.014657828
-5.4739106e-10
0.014660141
-4.8447255e-10
0.014662217
-4.1885824e-10
0.01466407
-3.4544236e-10
0.014665716
-2.7400859e-10
0.014667171
-2.0098188e-10
0.014668449
-1.3172944e-10
0.014669565
-6.5412646e-11
0.014670535
2.9856185e-12
0.014671371
6.5319457e-11
0.014672088
1.238553e-10
0.014672699
1.7396055e-10
0.014673215
2.1858963e-10
0.014673649
2.4965842e-10
0.014674011
2.7331324e-10
0.01467431
2.8249524e-10
0.014674556
2.8807556e-10
0.014674757
2.8394278e-10
0.01467492
2.8274809e-10
0.014675051
2.7532262e-10
0.014675155
2.7446296e-10
0.014675238
2.6567711e-10
0.014675303
2.6071587e-10
0.014675353
2.449985e-10
0.014675392
2.324192e-10
0.014675422
2.1265905e-10
0.014675445
2.0032643e-10
0.014675462
1.8464203e-10
0.014675475
1.8045378e-10
0.014675485
1.6928685e-10
0.014675492
1.6452412e-10
0.014675498
1.5188769e-10
0.014675502
1.3754683e-10
0.014675505
1.2821034e-10
1.3089392e-10
0.010068394
-6.8393556e-05
0.010267405
-0.00019901112
0.010549879
-0.00028247387
0.010858545
-0.00030866649
0.011167288
-0.00030874342
0.011466046
-0.00029875788
0.01174706
-0.00028101345
0.012004047
-0.00025698755
0.012234567
-0.00023051982
0.012439713
-0.00020514589
0.012622275
-0.00018256235
0.012785275
-0.00016299957
0.0129315
-0.00014622491
0.013063403
-0.00013190312
0.013183077
-0.00011967425
0.013292252
-0.00010917459
0.013392321
-0.00010006905
0.013484397
-9.2076347e-05
0.013569373
-8.4975234e-05
0.013647971
-7.8598594e-05
0.013720794
-7.2822282e-05
0.013788347
-6.7553913e-05
0.013851071
-6.2723894e-05
0.01390935
-5.8278858e-05
0.013963527
-5.4176941e-05
0.014013912
-5.0384377e-05
0.014060785
-4.6873101e-05
0.014104404
-4.3619109e-05
0.014145006
-4.0601384e-05
0.014182807
-3.7801197e-05
0.014218009
-3.5201662e-05
0.014250796
-3.2787429e-05
0.014281341
-3.0544476e-05
0.014309801
-2.8459949e-05
0.014336323
-2.6522044e-05
0.014361043
-2.4719899e-05
0.014384087
-2.3043516e-05
0.014405571
-2.1483679e-05
0.014425603
-2.0031887e-05
0.014444283
-1.8680284e-05
0.014461705
-1.7421613e-05
0.014477954
-1.6249145e-05
0.014493111
-1.5156643e-05
0.01450725
-1.4138308e-05
0.014520439
-1.3188741e-05
0.014532742
-1.2302904e-05
0.014544218
-1.1476084e-05
0.014554922
-1.0703869e-05
0.014564904
-9.9821152e-06
0.014574211
-9.3069407e-06
0.014582885
-8.6746902e-06
0.014590967
-8.081952e-06
0.014598492
-7.5255248e-06
0.014605494
-7.0024495e-06
0.014612004
-6.509971e-06
0.014618049
-6.0455948e-06
0.014623656
-5.6070308e-06
0.014628847
-5.1922718e-06
0.014633646
-4.7995117e-06
0.014638073
-4.4272426e-06
0.014642146
-4.0741451e-06
0.014645885
-3.7391929e-06
0.014649306
-3.4215168e-06
0.014652426
-3.120512e-06
0.014655261
-2.8356846e-06
0.014657827
-2.5667482e-06
0.01466014
-2.3134676e-06
0.014662215
-2.0757404e-06
0.014664069
-1.8534521e-06
0.014665715
-1.6465416e-06
0.014667169
-1.4548781e-06
0.014668448
-1.2783158e-06
0.014669564
-1.1166036e-06
0.014670534
-9.6942735e-07
0.01467137
-8.363625e-07
0.014672087
-7.1689307e-07
0.014672698
-6.1040958e-07
0.014673214
-5.1620518e-07
0.014673648
-4.3351785e-07
0.01467401
-3.6149719e-07
0.014674309
-2.9928343e-07
0.014674556
-2.4595767e-07
0.014674757
-2.0064077e-07
0.01467492
-1.6242743e-07
0.01467505
-1.3049648e-07
0.014675155
-1.0401967e-07
0.014675237
-8.2285738e-08
0.014675302
-6.4575209e-08
0.014675353
-5.0300593e-08
0.014675392
-3.8864801e-08
0.014675422
-2.9808132e-08
0.014675445
-2.2664103e-08
0.014675462
-1.7107429e-08
0.014675475
-1.2788988e-08
0.014675485
-9.5277548e-09
0.014675492
-7.0260666e-09
0.014675497
-5.2619723e-09
0.014675501
-3.8768605e-09
0.014675505
-3.1361579e-09
-2.2400645e-09
0.010097182
-0.00016557515
0.010346961
-0.000448791
0.010662469
-0.00059798177
0.010982753
-0.00062895025
0.011290229
-0.00061621886
0.011575251
-0.00058378055
0.011829022
-0.0005347842
0.012047865
-0.00047583049
0.012233272
-0.00041592665
0.01238924
-0.00036111399
0.012520295
-0.00031361711
0.012630755
-0.00027346025
0.012724428
-0.00023989718
0.012804515
-0.00021199031
0.012873613
-0.0001887726
0.012933772
-0.00016933387
0.012986596
-0.00015289295
0.013033332
-0.00013881181
0.01307495
-0.00012659377
0.013112216
-0.00011586443
0.013145739
-0.00010634492
0.013176012
-9.7826978e-05
0.013203441
-9.0153338e-05
0.013228366
-8.3203338e-05
0.013251071
-7.6882582e-05
0.013271803
-7.1115524e-05
0.01329077
-6.584025e-05
0.013308155
-6.1004861e-05
0.013324119
-5.6565016e-05
0.0133388
-5.2482279e-05
0.013352321
-4.8722964e-05
0.013364791
-4.5257318e-05
0.013376306
-4.2058915e-05
0.01338695
-3.9104175e-05
0.0133968
-3.6371991e-05
0.013405924
-3.3843416e-05
0.013414381
-3.1501395e-05
0.013422228
-2.9330545e-05
0.013429513
-2.7316949e-05
0.013436281
-2.5447992e-05
0.013442572
-2.3712203e-05
0.013448421
-2.2099121e-05
0.013453864
-2.059918e-05
0.013458929
-1.9203603e-05
0.013463645
-1.790431e-05
0.013468036
-1.6693836e-05
0.013472125
-1.5565269e-05
0.013475933
-1.451218e-05
0.01347948
-1.3528588e-05
0.013482781
-1.2608906e-05
0.013485855
-1.1747936e-05
0.013488713
-1.0940815e-05
0.013491371
-1.0183058e-05
0.013493839
-9.4704838e-06
0.013496128
-8.7993038e-06
0.013498249
-8.1660271e-06
0.013500209
-7.5675833e-06
0.013502018
-7.001195e-06
0.013503683
-6.4645281e-06
0.013505211
-5.9555278e-06
0.01350661
-5.47258e-06
0.013507885
-5.0143118e-06
0.013509043
-4.5797527e-06
0.013510091
-4.1681124e-06
0.013511034
-3.7789253e-06
0.013511879
-3.4118221e-06
0.013512632
-3.0666509e-06
0.013513299
-2.7432642e-06
0.013513888
-2.4416123e-06
0.013514403
-2.1615629e-06
0.013514851
-1.9029752e-06
0.013515238
-1.6655643e-06
0.01351557
-1.4489598e-06
0.013515853
-1.2526269e-06
0.013516093
-1.0759019e-06
0.013516294
-9.1797824e-07
0.013516462
-7.779044e-07
0.0135166
-6.5463711e-07
0.013516714
-5.4700109e-07
0.013516806
-4.5378941e-07
0.01351688
-3.7370398e-07
0.01351694
-3.054812e-07
0.013516987
-2.4782033e-07
0.013517024
-1.9951762e-07
0.013517053
-1.5937134e-07
0.013517076
-1.2632601e-07
0.013517093
-9.9337582e-08
0.013517106
-7.7528296e-08
0.013517115
-6.0028868e-08
0.013517122
-4.6140566e-08
0.013517128
-3.5177762e-08
0.013517132
-2.6621961e-08
0.013517135
-1.9972646e-08
0.013517137
-1.4884727e-08
0.013517139
-1.1022895e-08
0.01351714
-8.1488155e-09
0.01351714
-6.0980326e-09
0.013517141
-4.600371e-09
0.013517142
-3.7900981e-09
-2.913864e-09
0.010188704
-0.00035427932
0.010530487
-0.00079057335
0.010851453
-0.00091894821
0.011124174
-0.00090167137
0.011350581
-0.00084262624
0.011524486
-0.00075768559
0.01164633
-0.00065662744
0.011724155
-0.00055365586
0.011767999
-0.00045977083
0.011786639
-0.00037975354
0.011787114
-0.00031409258
0.011775058
-0.00026140425
0.011754861
-0.00021969948
0.011729768
-0.00018689786
0.011702054
-0.00016105802
0.011673239
-0.00014051894
0.011644339
-0.00012399296
0.011616003
-0.00011047599
0.011588629
-9.921986e-05
0.011562446
-8.9681389e-05
0.011537572
-8.147065e-05
0.011514052
-7.4307827e-05
0.01149189
-6.7990477e-05
0.011471056
-6.2369972e-05
0.011451509
-5.7334999e-05
0.011433193
-5.2800171e-05
0.011416051
-4.8698253e-05
0.011400021
-4.497494e-05
0.011385042
-4.1585373e-05
0.011371051
-3.8491827e-05
0.01135799
-3.5662134e-05
0.011345802
-3.3068593e-05
0.01133443
-3.0687157e-05
0.011323823
-2.8496841e-05
0.01131393
-2.6479234e-05
0.011304705
-2.4618126e-05
0.011296102
-2.2899186e-05
0.011288082
-2.1309702e-05
0.011280603
-1.9838354e-05
0.01127363
-1.8475024e-05
0.011267128
-1.7210631e-05
0.011261066
-1.6036989e-05
0.011255414
-1.4946691e-05
0.011250143
-1.3933001e-05
0.011245228
-1.2989762e-05
0.011240646
-1.2111327e-05
0.011236373
-1.1292491e-05
0.011232389
-1.0528435e-05
0.011228675
-9.8146891e-06
0.011225213
-9.147097e-06
0.011221987
-8.5217954e-06
0.011218981
-7.9351964e-06
0.011216182
-7.3839855e-06
0.011213577
-6.8651143e-06
0.011211153
-6.3758128e-06
0.011208901
-5.9135836e-06
0.011206809
-5.4762174e-06
0.01120487
-5.0617843e-06
0.011203074
-4.6686485e-06
0.011201414
-4.2954458e-06
0.011199882
-3.9410876e-06
0.011198473
-3.6047271e-06
0.011197179
-3.2857524e-06
0.011195994
-2.9837369e-06
0.011194914
-2.6984223e-06
0.011193931
-2.4296603e-06
0.011193042
-2.1773895e-06
0.01119224
-1.9415752e-06
0.011191521
-1.7221856e-06
0.011190878
-1.5191413e-06
0.011190308
-1.3322983e-06
0.011189803
-1.1614144e-06
0.011189361
-1.0061462e-06
0.011188974
-8.6603311e-07
0.011188639
-7.4050583e-07
0.01118835
-6.2888553e-07
0.011188102
-5.3040039e-07
0.011187892
-4.4419402e-07
0.011187714
-3.6934422e-07
0.011187565
-3.048833e-07
0.011187441
-2.4982202e-07
0.011187339
-2.0317318e-07
0.011187255
-1.6397639e-07
0.011187187
-1.313149e-07
0.011187132
-1.043379e-07
0.011187088
-8.2254669e-08
0.011187053
-6.4349109e-08
0.011187026
-4.9961823e-08
0.011187004
-3.8510253e-08
0.011186987
-2.9463041e-08
0.011186975
-2.2375253e-08
0.011186965
-1.6849264e-08
0.011186957
-1.259276e-08
0.011186952
-9.3346752e-09
0.011186948
-6.9050655e-09
0.011186945
-5.1101801e-09
0.011186943
-3.8927367e-09
0.011186941
-3.0757441e-09
0.01118694
-2.6890726e-09
-2.3710092e-09
0.010339525
-0.00069380425
0.010570754
-0.0010218027
0.010606301
-0.00095449449
0.010547572
-0.00084294334
0.010422317
-0.0007173708
0.010244356
-0.00057972444
0.010039421
-0.00045169205
0.0098287427
-0.00034297801
0.009625135
-0.00025616318
0.0094353013
-0.00018991983
0.0092624277
-0.00014121897
0.0091075332
-0.00010650979
0.008970154
-8.2320215e-05
0.0088489024
-6.5646239e-05
0.0087419716
-5.4127251e-05
0.0086474927
-4.6040047e-05
0.008563694
-4.0194294e-05
0.0084890108
-3.5792758e-05
0.0084221097
-3.231876e-05
0.0083618776
-2.9449279e-05
0.0083073955
-2.698857e-05
0.008257908
-2.4820291e-05
0.008212793
-2.2875469e-05
0.0081715354
-2.1112408e-05
0.0081337051
-1.9504649e-05
0.0080989389
-1.8034016e-05
0.0080669274
-1.6686732e-05
0.0080374038
-1.5451374e-05
0.0080101363
-1.4317875e-05
0.0079849215
-1.3277086e-05
0.00796158
-1.2320608e-05
0.0079399521
-1.1440744e-05
0.0079198955
-1.0630469e-05
0.0079012821
-9.8834194e-06
0.0078839967
-9.1938533e-06
0.0078679352
-8.5566129e-06
0.0078530031
-7.967075e-06
0.0078391145
-7.4210977e-06
0.007826191
-6.914969e-06
0.0078141613
-6.4453554e-06
0.0078029599
-6.0092554e-06
0.0077925268
-5.6039584e-06
0.0077828071
-5.2270039e-06
0.0077737503
-4.8761524e-06
0.0077653098
-4.5493491e-06
0.0077574432
-4.2447076e-06
0.0077501112
-3.9604768e-06
0.0077432778
-3.6950365e-06
0.0077369099
-3.4468675e-06
0.0077309774
-3.2145617e-06
0.0077254523
-2.996791e-06
0.0077203094
-2.7923327e-06
0.0077155255
-2.6000351e-06
0.0077110792
-2.4188594e-06
0.0077069513
-2.2478344e-06
0.0077031238
-2.0861133e-06
0.0076995806
-1.9329158e-06
0.0076963064
-1.7875982e-06
0.0076932874
-1.6495786e-06
0.0076905105
-1.5184152e-06
0.0076879632
-1.3937182e-06
0.0076856338
-1.275232e-06
0.0076835109
-1.1627367e-06
0.0076815833
-1.0561263e-06
0.0076798403
-9.5530892e-07
0.007678271
-8.6027468e-07
0.0076768646
-7.7100292e-07
0.0076756106
-6.8751662e-07
0.0076744983
-6.0980405e-07
0.007673517
-5.378616e-07
0.0076726564
-4.7163699e-07
0.0076719061
-4.1106031e-07
0.007671256
-3.56013e-07
0.0076706964
-3.0633942e-07
0.0076702179
-2.6184881e-07
0.0076698113
-2.2229853e-07
0.0076694684
-1.8742911e-07
0.0076691811
-1.5691842e-07
0.0076689421
-1.3045104e-07
0.0076687448
-1.0765498e-07
0.0076685831
-8.8193339e-08
0.0076684517
-7.1687723e-08
0.0076683457
-5.782566e-08
0.0076682608
-4.6262222e-08
0.0076681933
-3.6735613e-08
0.0076681401
-2.8938096e-08
0.0076680984
-2.2651229e-08
0.007668066
-1.7598644e-08
0.0076680409
-1.3599137e-08
0.0076680218
-1.0415788e-08
0.0076680073
-7.9246884e-09
0.0076679965
-5.9512209e-09
0.0076679885
-4.4454816e-09
0.0076679826
-3.2740584e-09
0.0076679782
-2.4385945e-09
0.0076679749
-1.8290935e-09
0.0076679723
-1.4605349e-09
0.0076679704
-1.2422624e-09
0.007667969
-1.2970223e-09
-1.4004527e-09
0.0093061957
0.0082843931
0.0073298986
0.0064869553
0.0057695845
0.00518986
0.004738168
0.00439519
0.0041390268
0.003949107
0.003807888
0.0037013782
0.003619058
0.0035534117
0.0034992845
0.0034532444
0.0034130501
0.0033772574
0.0033449386
0.0033154893
0.0032885008
0.0032636805
0.003240805
0.0032196926
0.003200188
0.003182154
0.0031654672
0.0031500158
0.003135698
0.0031224209
0.0031101003
0.0030986595
0.0030880291
0.0030781456
0.0030689518
0.0030603952
0.0030524281
0.003045007
0.003038092
0.0030316466
0.0030256374
0.0030200334
0.0030148064
0.0030099302
0.0030053809
0.0030011362
0.0029971757
0.0029934807
0.0029900338
0.0029868193
0.0029838225
0.0029810302
0.0029784301
0.0029760113
0.0029737635
0.0029716775
0.0029697446
0.0029679571
0.0029663076
0.0029647893
0.0029633956
0.0029621205
0.0029609578
0.0029599018
0.0029589466
0.0029580864
0.0029573154
0.0029566279
0.0029560182
0.0029554803
0.0029550087
0.0029545977
0.0029542418
0.0029539355
0.0029536737
0.0029534514
0.002953264
0.002953107
0.0029529765
0.0029528689
0.0029527807
0.002952709
0.0029526513
0.0029526051
0.0029525684
0.0029525395
0.0029525168
0.0029524992
0.0029524855
0.0029524751
0.0029524672
0.0029524613
0.0029524569
0.0029524537
0.0029524512
0.0029524494
0.0029524479
0.0029524466
0.0029524453
)
;

boundaryField
{
    top
    {
        type            calculated;
        value           uniform 0;
    }
    inlet
    {
        type            calculated;
        value           nonuniform List<scalar> 10(-0.01 -0.01 -0.01 -0.01 -0.01 -0.01 -0.01 -0.01 -0.01 -0.01);
    }
    outlet
    {
        type            calculated;
        value           nonuniform List<scalar> 10(0.0029524438 0.0076679679 0.01118694 0.013517143 0.014675507 0.014675507 0.013517143 0.01118694 0.0076679681 0.0029524439);
    }
    bottom
    {
        type            calculated;
        value           uniform 0;
    }
    back
    {
        type            empty;
        value           nonuniform 0();
    }
    front
    {
        type            empty;
        value           nonuniform 0();
    }
}


// ************************************************************************* //
