/*--------------------------------*- C++ -*----------------------------------*\
| =========                 |                                                 |
| \\      /  F ield         | OpenFOAM: The Open Source CFD Toolbox           |
|  \\    /   O peration     | Version:  2112                                  |
|   \\  /    A nd           | Website:  www.openfoam.com                      |
|    \\/     M anipulation  |                                                 |
\*---------------------------------------------------------------------------*/
FoamFile
{
    version     2.0;
    format      ascii;
    arch        "LSB;label=32;scalar=64";
    class       volScalarField;
    location    "11";
    object      p;
}
// * * * * * * * * * * * * * * * * * * * * * * * * * * * * * * * * * * * * * //

dimensions      [0 2 -2 0 0 0 0];

internalField   nonuniform List<scalar> 
1000
(
1.5264997
1.5094984
1.4929632
1.4767525
1.4607476
1.4448769
1.4291013
1.4133994
1.3977572
1.3821637
1.3666099
1.3510886
1.3355948
1.3201249
1.3046762
1.2892465
1.2738339
1.2584369
1.2430539
1.2276837
1.2123253
1.1969776
1.1816397
1.1663109
1.1509903
1.1356773
1.1203713
1.1050717
1.089778
1.0744897
1.0592064
1.0439276
1.028653
1.0133823
0.99811503
0.98285101
0.96758994
0.95233157
0.93707567
0.92182202
0.90657042
0.89132069
0.87607267
0.86082619
0.84558111
0.83033731
0.81509466
0.79985304
0.78461235
0.7693725
0.75413339
0.73889495
0.7236571
0.70841976
0.69318288
0.67794639
0.66271025
0.64747439
0.63223878
0.61700338
0.60176815
0.58653306
0.57129808
0.5560632
0.54082839
0.52559364
0.51035893
0.49512426
0.47988961
0.46465498
0.44942036
0.43418576
0.41895116
0.40371656
0.38848197
0.37324738
0.35801279
0.3427782
0.32754361
0.31230902
0.29707444
0.28183985
0.26660526
0.25137068
0.23613609
0.2209015
0.20566691
0.19043233
0.17519774
0.15996315
0.14472857
0.12949398
0.11425939
0.099024807
0.08379022
0.068555634
0.053321047
0.038086461
0.022851876
0.007617291
1.5261268
1.5090928
1.4928357
1.4768467
1.4609074
1.4450159
1.4292072
1.4134853
1.3978328
1.3822312
1.3666687
1.351139
1.335638
1.3201624
1.3047092
1.2892759
1.2738602
1.2584604
1.243075
1.2277028
1.2123426
1.1969932
1.1816539
1.1663238
1.151002
1.135688
1.120381
1.1050805
1.089786
1.074497
1.059213
1.0439336
1.0286584
1.0133871
0.99811942
0.98285496
0.9675935
0.95233476
0.93707852
0.92182457
0.90657269
0.89132271
0.87607445
0.86082776
0.84558249
0.83033851
0.8150957
0.79985394
0.78461312
0.76937315
0.75413395
0.73889542
0.72365748
0.70842008
0.69318314
0.6779466
0.66271041
0.64747452
0.63223888
0.61700345
0.6017682
0.5865331
0.57129811
0.55606322
0.54082841
0.52559365
0.51035894
0.49512426
0.47988961
0.46465498
0.44942037
0.43418576
0.41895116
0.40371656
0.38848197
0.37324738
0.35801279
0.3427782
0.32754361
0.31230902
0.29707444
0.28183985
0.26660526
0.25137068
0.23613609
0.2209015
0.20566691
0.19043233
0.17519774
0.15996315
0.14472857
0.12949398
0.11425939
0.099024807
0.08379022
0.068555634
0.053321047
0.038086461
0.022851875
0.0076172902
1.5254744
1.508291
1.4924118
1.4768044
1.461031
1.4451438
1.4292938
1.4135456
1.3978866
1.3822842
1.3667181
1.3511819
1.3356741
1.3201931
1.3047359
1.2892995
1.2738811
1.2584791
1.2430917
1.2277177
1.212356
1.1970053
1.1816649
1.1663337
1.151011
1.1356961
1.1203884
1.1050872
1.0897921
1.0745025
1.059218
1.0439381
1.0286625
1.0133909
0.99812279
0.98285801
0.96759625
0.95233725
0.93708076
0.92182658
0.90657449
0.89132432
0.87607589
0.86082904
0.84558363
0.83033952
0.81509659
0.79985471
0.7846138
0.76937374
0.75413446
0.73889585
0.72365785
0.70842039
0.6931834
0.67794682
0.66271059
0.64747466
0.632239
0.61700355
0.60176828
0.58653316
0.57129816
0.55606326
0.54082843
0.52559367
0.51035895
0.49512427
0.47988962
0.46465499
0.44942037
0.43418576
0.41895116
0.40371656
0.38848197
0.37324738
0.35801279
0.3427782
0.32754361
0.31230902
0.29707444
0.28183985
0.26660526
0.25137068
0.23613609
0.2209015
0.20566691
0.19043233
0.17519774
0.15996315
0.14472857
0.12949398
0.11425939
0.099024807
0.08379022
0.068555633
0.053321046
0.03808646
0.022851873
0.007617289
1.5248451
1.5074524
1.4918937
1.4766822
1.4611177
1.4452621
1.429377
1.4136019
1.3979373
1.3823374
1.3667706
1.3512288
1.3357141
1.320227
1.3047654
1.2893255
1.2739043
1.2584997
1.24311
1.2277341
1.2123707
1.1970186
1.1816769
1.1663446
1.1510209
1.1357051
1.1203966
1.1050947
1.0897989
1.0745087
1.0592236
1.0439433
1.0286672
1.0133952
0.99812671
0.98286159
0.96759951
0.95234021
0.93708345
0.92182902
0.90657671
0.89132633
0.87607771
0.86083068
0.84558511
0.83034085
0.81509778
0.79985578
0.78461475
0.76937459
0.7541352
0.73889651
0.72365843
0.70842089
0.69318383
0.67794719
0.66271091
0.64747493
0.63223922
0.61700373
0.60176843
0.58653328
0.57129826
0.55606334
0.54082849
0.52559372
0.51035899
0.4951243
0.47988964
0.464655
0.44942038
0.43418577
0.41895116
0.40371657
0.38848197
0.37324738
0.35801279
0.3427782
0.32754361
0.31230902
0.29707444
0.28183985
0.26660526
0.25137068
0.23613609
0.2209015
0.20566691
0.19043233
0.17519774
0.15996315
0.14472857
0.12949398
0.11425939
0.099024807
0.08379022
0.068555633
0.053321045
0.038086459
0.022851872
0.007617288
1.5244744
1.5069382
1.4915543
1.4765854
1.4611621
1.4453353
1.4294306
1.4136379
1.3979698
1.3823724
1.3668062
1.3512616
1.3357424
1.3202514
1.3047868
1.2893447
1.2739215
1.258515
1.2431238
1.2277465
1.2123819
1.1970288
1.1816861
1.1663529
1.1510285
1.1357121
1.1204029
1.1051005
1.0898042
1.0745136
1.0592281
1.0439474
1.028671
1.0133986
0.99812983
0.98286444
0.96760211
0.95234259
0.93708562
0.921831
0.90657851
0.89132797
0.87607919
0.86083203
0.84558633
0.83034195
0.81509877
0.79985668
0.78461555
0.76937531
0.75413584
0.73889708
0.72365893
0.70842134
0.69318422
0.67794752
0.66271119
0.64747518
0.63223943
0.61700391
0.60176857
0.5865334
0.57129835
0.55606341
0.54082856
0.52559377
0.51035903
0.49512433
0.47988966
0.46465502
0.44942039
0.43418578
0.41895117
0.40371657
0.38848197
0.37324738
0.35801279
0.3427782
0.32754361
0.31230902
0.29707444
0.28183985
0.26660526
0.25137068
0.23613609
0.2209015
0.20566691
0.19043233
0.17519774
0.15996315
0.14472857
0.12949398
0.11425939
0.099024806
0.083790219
0.068555632
0.053321045
0.038086458
0.022851871
0.0076172878
1.5244744
1.5069382
1.4915543
1.4765854
1.4611621
1.4453353
1.4294306
1.4136379
1.3979698
1.3823724
1.3668062
1.3512616
1.3357424
1.3202514
1.3047868
1.2893447
1.2739215
1.258515
1.2431238
1.2277465
1.2123819
1.1970288
1.1816861
1.1663529
1.1510285
1.1357121
1.1204029
1.1051005
1.0898042
1.0745136
1.0592281
1.0439474
1.028671
1.0133986
0.99812983
0.98286444
0.96760211
0.95234259
0.93708562
0.921831
0.90657851
0.89132797
0.87607919
0.86083203
0.84558633
0.83034195
0.81509877
0.79985668
0.78461555
0.76937531
0.75413584
0.73889708
0.72365893
0.70842134
0.69318422
0.67794752
0.66271119
0.64747518
0.63223943
0.61700391
0.60176857
0.5865334
0.57129835
0.55606341
0.54082856
0.52559377
0.51035903
0.49512433
0.47988966
0.46465502
0.44942039
0.43418578
0.41895117
0.40371657
0.38848197
0.37324738
0.35801279
0.3427782
0.32754361
0.31230902
0.29707444
0.28183985
0.26660526
0.25137068
0.23613609
0.2209015
0.20566691
0.19043233
0.17519774
0.15996315
0.14472857
0.12949398
0.11425939
0.099024806
0.083790219
0.068555632
0.053321045
0.038086459
0.022851872
0.0076172882
1.5248451
1.5074524
1.4918937
1.4766821
1.4611177
1.4452621
1.429377
1.4136019
1.3979373
1.3823374
1.3667706
1.3512289
1.3357141
1.3202271
1.3047654
1.2893256
1.2739043
1.2584997
1.24311
1.2277341
1.2123707
1.1970186
1.1816769
1.1663446
1.1510209
1.1357051
1.1203966
1.1050947
1.0897989
1.0745087
1.0592236
1.0439433
1.0286672
1.0133952
0.99812671
0.98286159
0.9675995
0.95234021
0.93708345
0.92182902
0.90657671
0.89132633
0.8760777
0.86083068
0.84558511
0.83034085
0.81509778
0.79985578
0.78461475
0.76937459
0.7541352
0.73889651
0.72365843
0.70842089
0.69318383
0.67794719
0.66271091
0.64747493
0.63223922
0.61700373
0.60176843
0.58653328
0.57129826
0.55606334
0.5408285
0.52559372
0.51035899
0.4951243
0.47988964
0.464655
0.44942038
0.43418577
0.41895116
0.40371657
0.38848197
0.37324738
0.35801279
0.3427782
0.32754361
0.31230902
0.29707444
0.28183985
0.26660526
0.25137068
0.23613609
0.2209015
0.20566691
0.19043233
0.17519774
0.15996315
0.14472857
0.12949398
0.11425939
0.099024807
0.08379022
0.068555633
0.053321046
0.03808646
0.022851873
0.007617289
1.5254744
1.5082911
1.4924118
1.4768044
1.461031
1.4451438
1.4292937
1.4135456
1.3978866
1.3822842
1.3667181
1.3511819
1.3356741
1.3201931
1.3047359
1.2892995
1.2738812
1.2584791
1.2430917
1.2277177
1.212356
1.1970053
1.1816649
1.1663337
1.151011
1.1356961
1.1203884
1.1050872
1.0897921
1.0745025
1.059218
1.0439381
1.0286625
1.0133909
0.99812279
0.98285801
0.96759625
0.95233724
0.93708076
0.92182658
0.90657449
0.89132432
0.87607589
0.86082904
0.84558363
0.83033952
0.81509659
0.79985471
0.7846138
0.76937374
0.75413445
0.73889585
0.72365785
0.70842039
0.6931834
0.67794682
0.66271059
0.64747466
0.632239
0.61700355
0.60176828
0.58653316
0.57129816
0.55606326
0.54082843
0.52559367
0.51035895
0.49512427
0.47988962
0.46465499
0.44942037
0.43418576
0.41895116
0.40371656
0.38848197
0.37324738
0.35801279
0.3427782
0.32754361
0.31230902
0.29707444
0.28183985
0.26660526
0.25137068
0.23613609
0.2209015
0.20566691
0.19043233
0.17519774
0.15996315
0.14472857
0.12949398
0.11425939
0.099024807
0.08379022
0.068555634
0.053321047
0.038086461
0.022851875
0.0076172899
1.5261268
1.5090928
1.4928357
1.4768466
1.4609074
1.4450159
1.4292071
1.4134853
1.3978328
1.3822312
1.3666687
1.351139
1.335638
1.3201624
1.3047092
1.2892759
1.2738602
1.2584604
1.243075
1.2277028
1.2123426
1.1969932
1.1816539
1.1663238
1.151002
1.135688
1.120381
1.1050805
1.089786
1.074497
1.059213
1.0439336
1.0286584
1.0133871
0.99811941
0.98285496
0.96759349
0.95233476
0.93707852
0.92182456
0.90657269
0.89132271
0.87607445
0.86082776
0.84558249
0.83033851
0.8150957
0.79985394
0.78461312
0.76937315
0.75413395
0.73889542
0.72365748
0.70842008
0.69318314
0.6779466
0.66271041
0.64747452
0.63223888
0.61700345
0.6017682
0.5865331
0.57129811
0.55606322
0.54082841
0.52559365
0.51035894
0.49512427
0.47988962
0.46465498
0.44942037
0.43418576
0.41895116
0.40371656
0.38848197
0.37324738
0.35801279
0.3427782
0.32754361
0.31230902
0.29707444
0.28183985
0.26660526
0.25137068
0.23613609
0.2209015
0.20566691
0.19043233
0.17519774
0.15996315
0.14472857
0.12949398
0.11425939
0.099024807
0.08379022
0.068555634
0.053321048
0.038086462
0.022851876
0.0076172908
1.5264997
1.5094984
1.4929632
1.4767525
1.4607476
1.4448769
1.4291013
1.4133994
1.3977572
1.3821637
1.3666099
1.3510886
1.3355948
1.3201249
1.3046762
1.2892465
1.2738339
1.2584369
1.2430539
1.2276837
1.2123253
1.1969776
1.1816397
1.1663109
1.1509903
1.1356773
1.1203713
1.1050717
1.089778
1.0744897
1.0592064
1.0439276
1.028653
1.0133823
0.99811502
0.982851
0.96758994
0.95233157
0.93707567
0.92182202
0.90657042
0.89132069
0.87607267
0.86082619
0.84558111
0.83033731
0.81509465
0.79985304
0.78461235
0.7693725
0.75413339
0.73889495
0.7236571
0.70841976
0.69318288
0.67794639
0.66271025
0.64747439
0.63223878
0.61700338
0.60176815
0.58653306
0.57129808
0.5560632
0.54082839
0.52559364
0.51035894
0.49512426
0.47988961
0.46465498
0.44942037
0.43418576
0.41895116
0.40371656
0.38848197
0.37324738
0.35801279
0.3427782
0.32754361
0.31230902
0.29707444
0.28183985
0.26660526
0.25137068
0.23613609
0.2209015
0.20566691
0.19043233
0.17519774
0.15996315
0.14472857
0.12949398
0.11425939
0.099024807
0.083790221
0.068555634
0.053321048
0.038086462
0.022851876
0.0076172914
)
;

boundaryField
{
    top
    {
        type            zeroGradient;
    }
    inlet
    {
        type            fixedValue;
        value           uniform 1.5352;
    }
    outlet
    {
        type            fixedValue;
        value           uniform 0;
    }
    bottom
    {
        type            zeroGradient;
    }
    back
    {
        type            empty;
    }
    front
    {
        type            empty;
    }
}


// ************************************************************************* //
