/*--------------------------------*- C++ -*----------------------------------*\
| =========                 |                                                 |
| \\      /  F ield         | OpenFOAM: The Open Source CFD Toolbox           |
|  \\    /   O peration     | Version:  2112                                  |
|   \\  /    A nd           | Website:  www.openfoam.com                      |
|    \\/     M anipulation  |                                                 |
\*---------------------------------------------------------------------------*/
FoamFile
{
    version     2.0;
    format      ascii;
    arch        "LSB;label=32;scalar=64";
    class       surfaceScalarField;
    location    "11";
    object      phi;
}
// * * * * * * * * * * * * * * * * * * * * * * * * * * * * * * * * * * * * * //

dimensions      [0 3 -1 0 0 0 0];

oriented        oriented;

internalField   nonuniform List<scalar> 
1890
(
0.0028415563
3.0302548e-06
0.0028316004
9.9564843e-06
0.0028196635
1.1936585e-05
0.0028091414
1.0521327e-05
0.0028009341
8.2066133e-06
0.0027945649
6.3685272e-06
0.00278938
5.1843862e-06
0.0027849861
4.3933976e-06
0.00278121
3.7756676e-06
0.0027779603
3.2493071e-06
0.0027751534
2.806639e-06
0.0027727048
2.4483791e-06
0.0027705424
2.1622875e-06
0.002768613
1.9292339e-06
0.0027668801
1.732839e-06
0.0027653171
1.5629045e-06
0.0027639032
1.4138919e-06
0.0027626208
1.2823765e-06
0.0027614552
1.165627e-06
0.0027603939
1.0612698e-06
0.0027594266
9.673718e-07
0.0027585441
8.82447e-07
0.0027577388
8.05366e-07
0.0027570036
7.3522091e-07
0.0027563324
6.7125345e-07
0.0027557196
6.1280776e-07
0.0027551604
5.5932381e-07
0.0027546501
5.1031523e-07
0.0027541848
4.6536493e-07
0.0027537608
4.2410397e-07
0.0027533746
3.8621038e-07
0.0027530233
3.5139419e-07
0.0027527039
3.193999e-07
0.002752414
2.8999473e-07
0.0027521511
2.6297202e-07
0.002751913
2.3814136e-07
0.0027516978
2.1533245e-07
0.0027515034
1.9438689e-07
0.0027513283
1.7516223e-07
0.0027511709
1.5752512e-07
0.0027510296
1.4135529e-07
0.0027509031
1.2653982e-07
0.0027507902
1.1297689e-07
0.0027506897
1.0057114e-07
0.0027506005
8.9236942e-08
0.0027505216
7.8894586e-08
0.0027504522
6.9472997e-08
0.0027503914
6.0906521e-08
0.0027503383
5.3136879e-08
0.0027502922
4.6110343e-08
0.0027502525
3.9778855e-08
0.0027502185
3.4097681e-08
0.0027501895
2.9025713e-08
0.002750165
2.452367e-08
0.0027501445
2.0553861e-08
0.0027501274
1.7079246e-08
0.0027501134
1.4062858e-08
0.002750102
1.1467828e-08
0.0027500928
9.256694e-09
0.0027500854
7.3924527e-09
0.0027500796
5.8376911e-09
0.0027500751
4.5564342e-09
0.0027500716
3.5130397e-09
0.0027500689
2.6745523e-09
0.0027500669
2.009177e-09
0.0027500654
1.4888417e-09
0.0027500644
1.0872992e-09
0.0027500636
7.8244247e-10
0.002750063
5.5408751e-10
0.0027500627
3.8617425e-10
0.0027500624
2.643175e-10
0.0027500622
1.7783807e-10
0.0027500621
1.1719389e-10
0.0027500621
7.5892382e-11
0.002750062
4.7985276e-11
0.002750062
2.9942866e-11
0.002750062
1.825226e-11
0.002750062
1.1245813e-11
0.002750062
6.8846066e-12
0.0027500619
4.6141353e-12
0.0027500619
3.2133957e-12
0.0027500619
2.7219702e-12
0.0027500619
2.2951666e-12
0.0027500619
2.3013325e-12
0.0027500619
2.0988235e-12
0.0027500619
2.1228949e-12
0.0027500619
1.9107625e-12
0.0027500619
1.7950296e-12
0.0027500619
1.608756e-12
0.0027500619
1.3779103e-12
0.0027500619
1.3597581e-12
0.0027500619
1.165623e-12
0.0027500619
1.6754019e-12
0.0027500619
2.0779144e-12
0.0027500619
4.2343496e-12
0.0027500619
6.9854256e-12
0.0027500619
1.3487589e-11
0.0027500619
2.2371036e-11
0.0027500618
4.1623905e-11
6.0966892e-11
0.0069381805
3.2692507e-06
0.0069343776
1.3760101e-05
0.0069274067
1.8907503e-05
0.0069193153
1.8612032e-05
0.0069114613
1.6059946e-05
0.0069041968
1.3632377e-05
0.0068974797
1.19011e-05
0.0068912599
1.0612789e-05
0.0068855502
9.4850089e-06
0.0068803692
8.4299891e-06
0.0068757001
7.4755394e-06
0.006871496
6.6522666e-06
0.0068677021
5.9560117e-06
0.0068642694
5.3618779e-06
0.0068611572
4.8449158e-06
0.0068583315
4.3885566e-06
0.0068557623
3.9830322e-06
0.0068534231
3.621521e-06
0.0068512907
3.2980423e-06
0.0068493447
3.0071856e-06
0.0068475677
2.7443772e-06
0.0068459442
2.5059706e-06
0.0068444606
2.2890606e-06
0.0068431045
2.0912631e-06
0.0068418653
1.910548e-06
0.0068407329
1.7451697e-06
0.0068396987
1.5936154e-06
0.0068387544
1.4545796e-06
0.0068378929
1.3269203e-06
0.0068371074
1.2096365e-06
0.0068363919
1.1018371e-06
0.0068357406
1.00273e-06
0.0068351484
9.1160138e-07
0.0068346106
8.2781093e-07
0.0068341229
7.5077622e-07
0.0068336811
6.7997032e-07
0.0068332816
6.149098e-07
0.0068329209
5.5515433e-07
0.0068325958
5.0029754e-07
0.0068323034
4.4996748e-07
0.006832041
4.0381968e-07
0.006831806
3.6153833e-07
0.0068315962
3.2283102e-07
0.0068314094
2.8743011e-07
0.0068312436
2.5508879e-07
0.0068310969
2.2558238e-07
0.0068309677
1.9870517e-07
0.0068308544
1.7427093e-07
0.0068307555
1.5211018e-07
0.0068306696
1.3206956e-07
0.0068305954
1.1400912e-07
0.0068305317
9.7800587e-08
0.0068304775
8.3324767e-08
0.0068304316
7.0469031e-08
0.006830393
5.9125451e-08
0.006830361
4.9188184e-08
0.0068303345
4.055285e-08
0.0068303129
3.3114478e-08
0.0068302954
2.6768486e-08
0.0068302814
2.1409478e-08
0.0068302703
1.6933604e-08
0.0068302617
1.323797e-08
0.006830255
1.0223851e-08
0.0068302499
7.7962548e-09
0.006830246
5.8671918e-09
0.0068302432
4.3548327e-09
0.0068302411
3.1863671e-09
0.0068302396
2.296472e-09
0.0068302385
1.6294478e-09
0.0068302378
1.1370014e-09
0.0068302373
7.7979078e-10
0.0068302369
5.2480097e-10
0.0068302367
3.4645035e-10
0.0068302366
2.2378241e-10
0.0068302365
1.4149104e-10
0.0068302364
8.7246608e-11
0.0068302364
5.2719873e-11
0.0068302364
3.1095753e-11
0.0068302364
1.830877e-11
0.0068302364
1.0789119e-11
0.0068302364
6.9311094e-12
0.0068302364
4.8006403e-12
0.0068302364
4.0711767e-12
0.0068302364
3.57662e-12
0.0068302364
3.7085789e-12
0.0068302364
3.4658518e-12
0.0068302364
3.6942744e-12
0.0068302364
3.2576122e-12
0.0068302364
3.5392122e-12
0.0068302364
2.9255496e-12
0.0068302363
3.481091e-12
0.0068302363
2.9874964e-12
0.0068302363
4.4409375e-12
0.0068302363
5.23144e-12
0.0068302363
9.1917267e-12
0.0068302363
1.3936219e-11
0.0068302363
2.3489626e-11
0.0068302363
3.7678648e-11
0.0068302363
5.6118028e-11
7.8682487e-11
0.0097116302
2.3217867e-06
0.0097140633
1.1327554e-05
0.0097160978
1.6872626e-05
0.0097170199
1.7689138e-05
0.0097170974
1.5981819e-05
0.0097166223
1.4107084e-05
0.0097157462
1.2776813e-05
0.0097145645
1.1794108e-05
0.0097131777
1.0871457e-05
0.009711681
9.9264663e-06
0.009710145
9.0113614e-06
0.0097086145
8.182633e-06
0.0097071168
7.4535437e-06
0.0097056701
6.8084783e-06
0.0097042868
6.2281451e-06
0.0097029746
5.7006211e-06
0.0097017376
5.220052e-06
0.0097005766
4.7824607e-06
0.0096994909
4.3836958e-06
0.0096984786
4.0194514e-06
0.0096975371
3.685855e-06
0.0096966634
3.379708e-06
0.0096958541
3.0983896e-06
0.0096951057
2.8396549e-06
0.0096944148
2.6015175e-06
0.0096937777
2.3821952e-06
0.0096931913
2.1801001e-06
0.0096926521
1.9938125e-06
0.009692157
1.8220646e-06
0.0096917029
1.6637095e-06
0.0096912871
1.51771e-06
0.0096909067
1.383118e-06
0.0096905593
1.2590704e-06
0.0096902424
1.144774e-06
0.0096899537
1.0395029e-06
0.0096896911
9.4258627e-07
0.0096894526
8.5340741e-07
0.0096892364
7.7139411e-07
0.0096890408
6.9601862e-07
0.009688864
6.2678997e-07
0.0096887046
5.6325472e-07
0.0096885612
5.049909e-07
0.0096884324
4.5160916e-07
0.0096883171
4.0274802e-07
0.0096882142
3.5807533e-07
0.0096881225
3.1728444e-07
0.0096880412
2.8009532e-07
0.0096879692
2.4625121e-07
0.0096879058
2.1551902e-07
0.0096878503
1.8768584e-07
0.0096878017
1.6255817e-07
0.0096877596
1.3995815e-07
0.0096877233
1.1972176e-07
0.0096876921
1.0169505e-07
0.0096876655
8.5731723e-08
0.009687643
7.1690186e-08
0.0096876242
5.9431397e-08
0.0096876085
4.8817437e-08
0.0096875956
3.9710259e-08
0.009687585
3.1972148e-08
0.0096875765
2.5465586e-08
0.0096875697
2.0055312e-08
0.0096875644
1.5608877e-08
0.0096875602
1.1999565e-08
0.009687557
9.106956e-09
0.0096875545
6.8198462e-09
0.0096875527
5.0361961e-09
0.0096875513
3.6653781e-09
0.0096875503
2.6272076e-09
0.0096875496
1.8533406e-09
0.0096875491
1.2854717e-09
0.0096875488
8.7599113e-10
0.0096875485
5.8565345e-10
0.0096875484
3.8384316e-10
0.0096875483
2.4612663e-10
0.0096875482
1.5436704e-10
0.0096875482
9.4474996e-11
0.0096875481
5.658015e-11
0.0096875481
3.3174505e-11
0.0096875481
1.9393558e-11
0.0096875481
1.1484799e-11
0.0096875481
7.3326919e-12
0.0096875481
5.2182063e-12
0.0096875481
4.3084994e-12
0.0096875481
3.9892181e-12
0.0096875481
3.8154984e-12
0.0096875481
3.8895012e-12
0.0096875481
3.6552499e-12
0.0096875481
3.852683e-12
0.0096875481
3.4659089e-12
0.0096875481
3.9523141e-12
0.0096875481
3.8568051e-12
0.0096875481
5.2174509e-12
0.0096875481
6.7812272e-12
0.0096875481
1.0149485e-11
0.0096875481
1.5409477e-11
0.0096875481
2.2367448e-11
0.0096875481
3.4684081e-11
0.0096875481
4.5100703e-11
6.1317549e-11
0.011410782
1.1600382e-06
0.011415984
6.1263429e-06
0.011423328
9.527474e-06
0.011430688
1.0328985e-05
0.011437133
9.5361316e-06
0.011442689
8.550648e-06
0.011447594
7.871725e-06
0.011451991
7.3968335e-06
0.011455924
6.9380625e-06
0.011459414
6.4357537e-06
0.0114625
5.925718e-06
0.011465232
5.4503343e-06
0.011467662
5.0232974e-06
0.011469833
4.6377509e-06
0.011471777
4.2833931e-06
0.011473523
3.954493e-06
0.011475094
3.6491277e-06
0.01147651
3.3663349e-06
0.011477789
3.1046825e-06
0.011478946
2.8623726e-06
0.011479994
2.6376715e-06
0.011480945
2.4291527e-06
0.011481808
2.2356282e-06
0.011482591
2.056065e-06
0.011483303
1.8894933e-06
0.011483951
1.7350184e-06
0.011484539
1.5917985e-06
0.011485074
1.4590687e-06
0.01148556
1.3361104e-06
0.011486001
1.2222665e-06
0.011486402
1.116913e-06
0.011486766
1.0194771e-06
0.011487095
9.2941334e-07
0.011487394
8.4622097e-07
0.011487664
7.6942273e-07
0.011487908
6.9858049e-07
0.011488128
6.3327605e-07
0.011488326
5.7312555e-07
0.011488505
5.1776247e-07
0.011488665
4.6685065e-07
0.011488808
4.2006947e-07
0.011488936
3.771254e-07
0.01148905
3.3773924e-07
0.011489151
3.0165625e-07
0.01148924
2.6863544e-07
0.011489319
2.3845811e-07
0.011489388
2.1091887e-07
0.011489449
1.8583256e-07
0.011489501
1.6302663e-07
0.011489547
1.4234603e-07
0.011489586
1.2364672e-07
0.011489619
1.0679856e-07
0.011489647
9.1679836e-08
0.011489671
7.8178216e-08
0.01148969
6.618656e-08
0.011489706
5.5602595e-08
0.011489719
4.6326426e-08
0.01148973
3.8259442e-08
0.011489738
3.130392e-08
0.011489745
2.5361711e-08
0.01148975
2.0335984e-08
0.011489754
1.6129779e-08
0.011489757
1.2649432e-08
0.011489759
9.8028571e-09
0.011489761
7.5040015e-09
0.011489762
5.670512e-09
0.011489763
4.2284457e-09
0.011489763
3.1090733e-09
0.011489764
2.2534319e-09
0.011489764
1.6082482e-09
0.011489764
1.1300772e-09
0.011489764
7.8051652e-10
0.011489764
5.3006811e-10
0.011489764
3.5297634e-10
0.011489764
2.3089668e-10
0.011489765
1.4762415e-10
0.011489765
9.2820283e-11
0.011489765
5.6852016e-11
0.011489765
3.4645703e-11
0.011489765
2.0580865e-11
0.011489765
1.2773365e-11
0.011489765
7.8378886e-12
0.011489765
5.7194732e-12
0.011489765
4.0838821e-12
0.011489765
3.8579343e-12
0.011489765
3.1254462e-12
0.011489765
3.4234783e-12
0.011489765
2.786007e-12
0.011489765
3.2273747e-12
0.011489765
2.5807611e-12
0.011489765
3.2123948e-12
0.011489765
3.0274025e-12
0.011489765
4.1690737e-12
0.011489765
5.264812e-12
0.011489765
7.4458636e-12
0.011489765
1.02429e-11
0.011489765
1.3606325e-11
0.011489765
1.9177403e-11
0.011489765
2.0647525e-11
2.7269827e-11
0.012214292
2.6450515e-11
0.012220418
9.427726e-11
0.012229945
6.0808889e-11
0.012240273
2.9524303e-11
0.012249809
6.3548702e-11
0.012258359
1.2711255e-10
0.01226623
1.6977772e-10
0.012273626
1.7005397e-10
0.012280564
1.545345e-10
0.012286999
1.3612881e-10
0.012292925
1.1713063e-10
0.012298375
8.8624326e-11
0.012303398
5.5341212e-11
0.012308035
1.7734346e-11
0.012312319
-2.025857e-11
0.012316273
-5.7990185e-11
0.012319922
-9.1794625e-11
0.012323289
-1.2574484e-10
0.012326394
-1.5397744e-10
0.012329256
-1.8010221e-10
0.012331894
-1.986888e-10
0.012334323
-2.1428268e-10
0.012336559
-2.2213496e-10
0.012338616
-2.2685813e-10
0.012340505
-2.2431528e-10
0.01234224
-2.19405e-10
0.012343833
-2.0845116e-10
0.012345292
-1.9600907e-10
0.012346628
-1.7891196e-10
0.012347851
-1.6165807e-10
0.012348968
-1.4136104e-10
0.012349987
-1.2193703e-10
0.012350917
-1.008107e-10
0.012351763
-8.1619115e-11
0.012352533
-6.1970203e-11
0.012353231
-4.4801585e-11
0.012353865
-2.806123e-11
0.012354438
-1.4137203e-11
0.012354956
-1.020254e-12
0.012355423
9.4443361e-12
0.012355843
1.8976162e-11
0.01235622
2.6024674e-11
0.012356558
3.2512839e-11
0.012356859
3.7194179e-11
0.012357128
4.1806361e-11
0.012357366
4.5302585e-11
0.012357577
4.9121736e-11
0.012357763
5.2492728e-11
0.012357926
5.6472308e-11
0.012358068
6.03762e-11
0.012358192
6.4829224e-11
0.012358299
6.9297199e-11
0.01235839
7.3998885e-11
0.012358468
7.8504633e-11
0.012358535
8.267527e-11
0.01235859
8.627729e-11
0.012358636
8.8949149e-11
0.012358675
9.0710419e-11
0.012358706
9.106312e-11
0.012358731
9.0303814e-11
0.012358751
8.7928472e-11
0.012358767
8.4549552e-11
0.01235878
7.9665308e-11
0.01235879
7.4094115e-11
0.012358797
6.7372856e-11
0.012358803
6.0517522e-11
0.012358807
5.3025489e-11
0.01235881
4.5924483e-11
0.012358812
3.8660582e-11
0.012358814
3.2282777e-11
0.012358815
2.6111373e-11
0.012358816
2.1064034e-11
0.012358816
1.6360869e-11
0.012358817
1.2881399e-11
0.012358817
9.7288458e-12
0.012358817
7.6656986e-12
0.012358817
5.7488204e-12
0.012358817
4.7615843e-12
0.012358817
3.737408e-12
0.012358817
3.4002635e-12
0.012358817
2.8235429e-12
0.012358817
2.7925107e-12
0.012358817
2.4400854e-12
0.012358817
2.4750735e-12
0.012358817
2.1042282e-12
0.012358817
2.1290615e-12
0.012358817
1.7763762e-12
0.012358817
1.754193e-12
0.012358817
1.3615534e-12
0.012358817
1.4324603e-12
0.012358817
1.1299633e-12
0.012358817
1.5591706e-12
0.012358817
1.338859e-12
0.012358817
2.0731476e-12
0.012358817
1.8070113e-12
0.012358817
1.5849302e-12
0.012358817
7.089126e-13
0.012358817
-8.6740118e-13
0.012358817
-6.571729e-12
-9.9350234e-12
0.012214291
-1.1601221e-06
0.012220418
-6.1267251e-06
0.012229945
-9.5277218e-06
0.012240273
-1.0328962e-05
0.012249809
-9.535961e-06
0.012258359
-8.5504612e-06
0.01226623
-7.8715174e-06
0.012273626
-7.3965994e-06
0.012280564
-6.9378106e-06
0.012286999
-6.4355115e-06
0.012292925
-5.9255101e-06
0.012298375
-5.4501793e-06
0.012303398
-5.0232015e-06
0.012308036
-4.6377193e-06
0.012312319
-4.2834267e-06
0.012316273
-3.9545937e-06
0.012319922
-3.649292e-06
0.012323289
-3.3665609e-06
0.012326394
-3.1049618e-06
0.012329256
-2.8626987e-06
0.012331894
-2.638033e-06
0.012334323
-2.4295417e-06
0.012336559
-2.2360325e-06
0.012338615
-2.0564765e-06
0.012340505
-1.889901e-06
0.01234224
-1.7354157e-06
0.012343832
-1.5921761e-06
0.012345291
-1.4594221e-06
0.012346628
-1.336433e-06
0.01234785
-1.2225563e-06
0.012348967
-1.1171662e-06
0.012349987
-1.0196938e-06
0.012350916
-9.2959206e-07
0.012351763
-8.46364e-07
0.012352532
-7.6953055e-07
0.012353231
-6.9865666e-07
0.012353864
-6.3332245e-07
0.012354437
-5.7314643e-07
0.012354955
-5.1776023e-07
0.012355422
-4.6682954e-07
0.012355842
-4.2003195e-07
0.012356219
-3.7707516e-07
0.012356557
-3.3767798e-07
0.012356859
-3.0158654e-07
0.012357127
-2.68558e-07
0.012357366
-2.383743e-07
0.012357577
-2.1082849e-07
0.012357763
-1.8573594e-07
0.012357926
-1.6292297e-07
0.012358068
-1.4223514e-07
0.012358192
-1.235278e-07
0.012358298
-1.0667146e-07
0.01235839
-9.1544272e-08
0.012358468
-7.803458e-08
0.012358534
-6.6035531e-08
0.01235859
-5.5445375e-08
0.012358636
-4.616467e-08
0.012358674
-3.8095061e-08
0.012358706
-3.1139337e-08
0.012358731
-2.5199221e-08
0.012358751
-2.0178239e-08
0.012358767
-1.5978894e-08
0.01235878
-1.250778e-08
0.01235879
-9.6719423e-09
0.012358797
-7.3854332e-09
0.012358803
-5.5648132e-09
0.012358807
-4.1362889e-09
0.01235881
-3.0300172e-09
0.012358812
-2.1872364e-09
0.012358814
-1.5536356e-09
0.012358815
-1.0861997e-09
0.012358816
-7.4568388e-10
0.012358816
-5.0316409e-10
0.012358817
-3.3221268e-10
0.012358817
-2.1525624e-10
0.012358817
-1.3558895e-10
0.012358817
-8.3658793e-11
0.012358817
-4.9417997e-11
0.012358817
-2.8561817e-11
0.012358817
-1.5168789e-11
0.012358817
-7.9113136e-12
0.012358817
-3.2234367e-12
0.012358817
-1.3207672e-12
0.012358817
1.2994642e-13
0.012358817
6.4243172e-14
0.012358817
5.2779702e-13
0.012358817
-4.2858517e-14
0.012358817
1.6759246e-13
0.012358817
-5.9643927e-13
0.012358817
-1.9825574e-13
0.012358817
-1.0434744e-12
0.012358817
-5.194777e-13
0.012358817
-1.7391631e-12
0.012358817
-1.9517174e-12
0.012358817
-4.4151332e-12
0.012358817
-7.4468086e-12
0.012358817
-1.202236e-11
0.012358817
-2.0402973e-11
0.012358817
-3.0058111e-11
-4.1464994e-11
0.011410783
-2.3217529e-06
0.011415984
-1.1327438e-05
0.011423329
-1.687261e-05
0.011430688
-1.7689203e-05
0.011437133
-1.5981838e-05
0.011442689
-1.4107015e-05
0.011447594
-1.2776681e-05
0.011451991
-1.1793946e-05
0.011455924
-1.0871292e-05
0.011459415
-9.9263035e-06
0.0114625
-9.0112137e-06
0.011465232
-8.1825049e-06
0.011467662
-7.4534535e-06
0.011469833
-6.8084289e-06
0.011471777
-6.2281495e-06
0.011473523
-5.7006744e-06
0.011475094
-5.22016e-06
0.01147651
-4.7826132e-06
0.011477789
-4.3838947e-06
0.011478946
-4.0196832e-06
0.011479994
-3.6861193e-06
0.011480945
-3.3799898e-06
0.011481807
-3.0986873e-06
0.011482591
-2.8399539e-06
0.011483303
-2.6018171e-06
0.01148395
-2.3824825e-06
0.011484538
-2.1803753e-06
0.011485073
-1.9940652e-06
0.011485559
-1.8222969e-06
0.011486
-1.6639134e-06
0.011486401
-1.5178889e-06
0.011486764
-1.3832664e-06
0.011487094
-1.2591932e-06
0.011487393
-1.1448677e-06
0.011487663
-1.0395731e-06
0.011487907
-9.4263107e-07
0.011488127
-8.5343304e-07
0.011488325
-7.7139961e-07
0.011488503
-6.960099e-07
0.011488663
-6.2676655e-07
0.011488807
-5.6322192e-07
0.011488935
-5.0494818e-07
0.011489048
-4.5156059e-07
0.01148915
-4.0269269e-07
0.011489239
-3.5801607e-07
0.011489318
-3.1721984e-07
0.011489387
-2.8002698e-07
0.011489448
-2.4617751e-07
0.0114895
-2.1544075e-07
0.011489546
-1.8760156e-07
0.011489585
-1.6246828e-07
0.011489618
-1.3986188e-07
0.011489646
-1.1961957e-07
0.01148967
-1.0158712e-07
0.011489689
-8.5618867e-08
0.011489705
-7.1573607e-08
0.011489719
-5.9312229e-08
0.011489729
-4.8697731e-08
0.011489738
-3.9591296e-08
0.011489744
-3.185643e-08
0.01148975
-2.5354143e-08
0.011489754
-1.9950648e-08
0.011489757
-1.5511494e-08
0.011489759
-1.1911556e-08
0.011489761
-9.0279955e-09
0.011489762
-6.7514148e-09
0.011489763
-4.9771734e-09
0.011489763
-3.616586e-09
0.011489764
-2.5867937e-09
0.011489764
-1.8216548e-09
0.011489764
-1.260289e-09
0.011489764
-8.5741717e-10
0.011489764
-5.7131961e-10
0.011489764
-3.7390208e-10
0.011489764
-2.3840532e-10
0.011489764
-1.4922544e-10
0.011489764
-9.0014785e-11
0.011489764
-5.3439349e-11
0.011489764
-2.9871628e-11
0.011489764
-1.6756787e-11
0.011489764
-8.3321234e-12
0.011489764
-4.5992694e-12
0.011489764
-2.0295992e-12
0.011489764
-1.5853643e-12
0.011489764
-9.3478932e-13
0.011489764
-1.3979547e-12
0.011489764
-1.2190844e-12
0.011489764
-1.7974834e-12
0.011489764
-1.7170304e-12
0.011489764
-2.0789257e-12
0.011489764
-2.1908773e-12
0.011489764
-2.6720159e-12
0.011489764
-3.5528652e-12
0.011489764
-5.459159e-12
0.011489764
-8.3746609e-12
0.011489764
-1.4184198e-11
0.011489764
-2.1098815e-11
0.011489764
-3.4351279e-11
0.011489764
-4.5333675e-11
-6.2371651e-11
0.0097116301
-3.2692224e-06
0.0097140633
-1.3759988e-05
0.0097160979
-1.8907443e-05
0.0097170201
-1.8612135e-05
0.0097170977
-1.6060154e-05
0.0097166226
-1.3632564e-05
0.0097157466
-1.1901205e-05
0.009714565
-1.0612818e-05
0.0097131782
-9.4849938e-06
0.0097116815
-8.4299465e-06
0.0097101454
-7.4754787e-06
0.0097086149
-6.652193e-06
0.0097071172
-5.9559409e-06
0.0097056704
-5.361822e-06
0.009704287
-4.8448881e-06
0.0097029748
-4.3885597e-06
0.0097017376
-3.9830685e-06
0.0097005766
-3.621586e-06
0.0096994908
-3.298135e-06
0.0096984784
-3.0073001e-06
0.0096975368
-2.7445109e-06
0.0096966629
-2.5061159e-06
0.0096958534
-2.2892143e-06
0.0096951049
-2.0914184e-06
0.0096944139
-1.9107024e-06
0.0096937767
-1.7453171e-06
0.0096931901
-1.5937545e-06
0.0096926508
-1.4547062e-06
0.0096921556
-1.327034e-06
0.0096917015
-1.2097344e-06
0.0096912856
-1.1019201e-06
0.0096909052
-1.0027965e-06
0.0096905577
-9.116531e-07
0.0096902407
-8.2784725e-07
0.009689952
-7.5079942e-07
0.0096896894
-6.7998063e-07
0.0096894509
-6.149098e-07
0.0096892347
-5.5514456e-07
0.0096890391
-5.0028046e-07
0.0096888623
-4.4994375e-07
0.0096887029
-4.0379143e-07
0.0096885596
-3.6150593e-07
0.0096884309
-3.2279597e-07
0.0096883156
-2.8739241e-07
0.0096882127
-2.5504929e-07
0.0096881211
-2.2554068e-07
0.0096880398
-1.9866155e-07
0.0096879679
-1.7422483e-07
0.0096879045
-1.520616e-07
0.009687849
-1.3201804e-07
0.0096878006
-1.1395464e-07
0.0096877585
-9.7743028e-08
0.0096877222
-8.3264327e-08
0.0096876911
-7.040612e-08
0.0096876646
-5.9060565e-08
0.0096876421
-4.9122162e-08
0.0096876234
-4.0486432e-08
0.0096876078
-3.3048877e-08
0.0096875949
-2.6704501e-08
0.0096875844
-2.1348337e-08
0.009687576
-1.6875959e-08
0.0096875693
-1.3184946e-08
0.009687564
-1.0175762e-08
0.0096875598
-7.7538159e-09
0.0096875566
-5.8302786e-09
0.0096875542
-4.3238223e-09
0.0096875524
-3.1607045e-09
0.0096875511
-2.2761048e-09
0.0096875502
-1.6134952e-09
0.0096875495
-1.1252511e-09
0.009687549
-7.7121813e-10
0.0096875487
-5.1905966e-10
0.0096875484
-3.4252475e-10
0.0096875483
-2.2147417e-10
0.0096875482
-1.3994495e-10
0.0096875481
-8.6364414e-11
0.0096875481
-5.1834373e-11
0.0096875481
-3.0366224e-11
0.0096875481
-1.7268581e-11
0.0096875481
-9.6969868e-12
0.0096875481
-5.4229836e-12
0.0096875481
-3.3211909e-12
0.0096875481
-2.3392891e-12
0.0096875481
-1.987428e-12
0.0096875481
-1.9865683e-12
0.0096875481
-2.0578588e-12
0.0096875481
-2.2996622e-12
0.0096875481
-2.2238746e-12
0.0096875481
-2.5159814e-12
0.0096875481
-2.2614193e-12
0.0096875481
-2.8678576e-12
0.0096875481
-2.7169811e-12
0.0096875481
-4.3409922e-12
0.0096875481
-5.5815538e-12
0.0096875481
-9.5631133e-12
0.0096875481
-1.4188484e-11
0.0096875481
-2.3578751e-11
0.0096875481
-3.6848536e-11
0.0096875481
-4.8249461e-11
-6.8260546e-11
0.0069381804
-3.0301489e-06
0.0069343775
-9.9564494e-06
0.0069274067
-1.1936686e-05
0.0069193155
-1.0521587e-05
0.0069114615
-8.2069975e-06
0.006904197
-6.3689349e-06
0.0068974798
-5.1847189e-06
0.00689126
-4.3936271e-06
0.0068855503
-3.7758083e-06
0.0068803693
-3.2493931e-06
0.0068757001
-2.8066846e-06
0.006871496
-2.4483994e-06
0.0068677022
-2.1622864e-06
0.0068642694
-1.9292273e-06
0.0068611572
-1.7328305e-06
0.0068583314
-1.5629046e-06
0.0068557622
-1.4138967e-06
0.006853423
-1.282391e-06
0.0068512905
-1.1656449e-06
0.0068493444
-1.0612953e-06
0.0068475673
-9.6739819e-07
0.0068459437
-8.8247796e-07
0.0068444599
-8.053949e-07
0.0068431038
-7.3525123e-07
0.0068418645
-6.7127904e-07
0.006840732
-6.1283228e-07
0.0068396977
-5.59342e-07
0.0068387534
-5.1033088e-07
0.0068378918
-4.6537343e-07
0.0068371062
-4.2410915e-07
0.0068363906
-3.8620845e-07
0.0068357393
-3.5138894e-07
0.0068351471
-3.1938809e-07
0.0068346093
-2.8998005e-07
0.0068341215
-2.6295185e-07
0.0068336798
-2.381192e-07
0.0068332802
-2.1530607e-07
0.0068329195
-1.9435948e-07
0.0068325945
-1.7513193e-07
0.0068323021
-1.5749474e-07
0.0068320397
-1.4132316e-07
0.0068318048
-1.2650826e-07
0.006831595
-1.1294441e-07
0.0068314083
-1.0053954e-07
0.0068312425
-8.9204843e-08
0.0068310959
-7.8863293e-08
0.0068309667
-6.9441332e-08
0.0068308535
-6.0875405e-08
0.0068307546
-5.3105392e-08
0.0068306687
-4.6079085e-08
0.0068305946
-3.9747281e-08
0.006830531
-3.4066188e-08
0.0068304767
-2.8994184e-08
0.0068304309
-2.4492302e-08
0.0068303924
-2.0522956e-08
0.0068303604
-1.7048834e-08
0.006830334
-1.4033629e-08
0.0068303124
-1.1439566e-08
0.006830295
-9.2303394e-09
0.0068302811
-7.3675341e-09
0.0068302701
-5.8153376e-09
0.0068302614
-4.535852e-09
0.0068302548
-3.4953768e-09
0.0068302497
-2.6587502e-09
0.0068302459
-1.9963818e-09
0.0068302431
-1.4777569e-09
0.006830241
-1.0789333e-09
0.0068302395
-7.7538317e-10
0.0068302385
-5.4929633e-10
0.0068302378
-3.8217211e-10
0.0068302372
-2.6200222e-10
0.0068302369
-1.7576611e-10
0.0068302367
-1.1630301e-10
0.0068302366
-7.4811008e-11
0.0068302365
-4.766602e-11
0.0068302364
-2.9136108e-11
0.0068302364
-1.7982553e-11
0.0068302364
-1.0369196e-11
0.0068302364
-6.4515046e-12
0.0068302364
-3.5504623e-12
0.0068302364
-2.6509465e-12
0.0068302364
-1.5791157e-12
0.0068302364
-1.7563386e-12
0.0068302364
-1.231262e-12
0.0068302364
-1.7447624e-12
0.0068302364
-1.3075406e-12
0.0068302364
-1.8413333e-12
0.0068302364
-1.2911862e-12
0.0068302363
-1.8508283e-12
0.0068302363
-1.1999252e-12
0.0068302363
-1.9514842e-12
0.0068302363
-1.4319652e-12
0.0068302363
-2.999385e-12
0.0068302363
-3.1081765e-12
0.0068302363
-5.9231129e-12
0.0068302363
-8.4259786e-12
0.0068302363
-1.5396211e-11
0.0068302363
-2.2531315e-11
0.0068302363
-3.4543994e-11
-5.1143741e-11
0.0028415567
0.0028316004
0.0028196635
0.0028091414
0.002800934
0.0027945646
0.0027893796
0.0027849856
0.0027812096
0.00277796
0.0027751531
0.0027727046
0.0027705422
0.0027686129
0.00276688
0.0027653171
0.0027639032
0.0027626208
0.0027614551
0.0027603938
0.0027594264
0.002758544
0.0027577386
0.0027570034
0.0027563321
0.0027557193
0.00275516
0.0027546497
0.0027541844
0.0027537603
0.0027533742
0.0027530228
0.0027527035
0.0027524136
0.0027521507
0.0027519126
0.0027516973
0.002751503
0.0027513279
0.0027511705
0.0027510292
0.0027509027
0.0027507898
0.0027506893
0.0027506002
0.0027505213
0.0027504519
0.0027503911
0.002750338
0.002750292
0.0027502523
0.0027502182
0.0027501893
0.0027501648
0.0027501443
0.0027501273
0.0027501133
0.0027501019
0.0027500927
0.0027500853
0.0027500795
0.002750075
0.0027500715
0.0027500689
0.0027500669
0.0027500654
0.0027500644
0.0027500636
0.0027500631
0.0027500627
0.0027500624
0.0027500622
0.0027500621
0.0027500621
0.002750062
0.002750062
0.002750062
0.002750062
0.002750062
0.002750062
0.002750062
0.002750062
0.002750062
0.0027500619
0.0027500619
0.0027500619
0.0027500619
0.0027500619
0.0027500619
0.0027500619
0.0027500619
0.0027500619
0.0027500619
0.0027500619
0.0027500619
0.0027500619
0.0027500619
0.0027500619
0.0027500618
)
;

boundaryField
{
    top
    {
        type            calculated;
        value           uniform 0;
    }
    inlet
    {
        type            calculated;
        value           nonuniform List<scalar> 10(-0.0028445855 -0.0069384189 -0.0097106817 -0.01140962 -0.012213131 -0.01221313 -0.011409621 -0.0097106816 -0.0069384187 -0.0028445864);
    }
    outlet
    {
        type            calculated;
        value           nonuniform List<scalar> 10(0.0027500618 0.0068302363 0.0096875481 0.011489765 0.012358817 0.012358817 0.011489765 0.0096875481 0.0068302362 0.0027500618);
    }
    bottom
    {
        type            calculated;
        value           uniform 0;
    }
    back
    {
        type            empty;
        value           nonuniform List<scalar> 0();
    }
    front
    {
        type            empty;
        value           nonuniform List<scalar> 0();
    }
}


// ************************************************************************* //
