/*--------------------------------*- C++ -*----------------------------------*\
| =========                 |                                                 |
| \\      /  F ield         | OpenFOAM: The Open Source CFD Toolbox           |
|  \\    /   O peration     | Version:  2112                                  |
|   \\  /    A nd           | Website:  www.openfoam.com                      |
|    \\/     M anipulation  |                                                 |
\*---------------------------------------------------------------------------*/
FoamFile
{
    version     2.0;
    format      ascii;
    arch        "LSB;label=32;scalar=64";
    class       volVectorField;
    location    "11";
    object      U;
}
// * * * * * * * * * * * * * * * * * * * * * * * * * * * * * * * * * * * * * //

dimensions      [0 1 -1 0 0 0 0];

internalField   nonuniform List<vector> 
1000
(
(0.28438573 0.00025353233 0)
(0.28383811 0.00072727814 0)
(0.28262725 0.00078882782 0)
(0.28142666 0.00059758627 0)
(0.28047408 0.000389961 0)
(0.2797522 0.00026038247 0)
(0.27918245 0.00019550231 0)
(0.27870761 0.00015939234 0)
(0.27830076 0.0001322459 0)
(0.27795047 0.00010962562 0)
(0.27764872 9.2068855e-05 0)
(0.27738707 7.9419571e-05 0)
(0.27715751 7.0293943e-05 0)
(0.27695368 6.3197211e-05 0)
(0.27677114 5.7200007e-05 0)
(0.27660678 5.1914191e-05 0)
(0.27645829 4.7212244e-05 0)
(0.27632378 4.3022946e-05 0)
(0.27620164 3.9269434e-05 0)
(0.27609051 3.587769e-05 0)
(0.27598927 3.2792113e-05 0)
(0.27589695 2.9975183e-05 0)
(0.2758127 2.7400292e-05 0)
(0.27573581 2.5044708e-05 0)
(0.2756656 2.2887776e-05 0)
(0.2756015 2.0910391e-05 0)
(0.275543 1.9095896e-05 0)
(0.2754896 1.7429484e-05 0)
(0.2754409 1.5898338e-05 0)
(0.2753965 1.4490802e-05 0)
(0.27535606 1.3196614e-05 0)
(0.27531924 1.2006331e-05 0)
(0.27528576 1.0911633e-05 0)
(0.27525535 9.9048135e-06 0)
(0.27522775 8.9790539e-06 0)
(0.27520274 8.1279689e-06 0)
(0.27518011 7.34588e-06 0)
(0.27515967 6.6274271e-06 0)
(0.27514123 5.9678255e-06 0)
(0.27512463 5.3625381e-06 0)
(0.27510972 4.807512e-06 0)
(0.27509636 4.2989006e-06 0)
(0.27508441 3.833275e-06 0)
(0.27507376 3.4073944e-06 0)
(0.2750643 3.0183876e-06 0)
(0.27505592 2.6635592e-06 0)
(0.27504852 2.3405343e-06 0)
(0.27504203 2.0471002e-06 0)
(0.27503634 1.7813074e-06 0)
(0.2750314 1.5413363e-06 0)
(0.27502713 1.3255582e-06 0)
(0.27502345 1.1324328e-06 0)
(0.27502031 9.605322e-07 0)
(0.27501765 8.0846837e-07 0)
(0.27501541 6.7489508e-07 0)
(0.27501354 5.5847574e-07 0)
(0.275012 4.5786912e-07 0)
(0.27501073 3.7173557e-07 0)
(0.2750097 2.9871688e-07 0)
(0.27500888 2.374801e-07 0)
(0.27500823 1.8668718e-07 0)
(0.27500771 1.4506375e-07 0)
(0.27500732 1.1135926e-07 0)
(0.27500701 8.443136e-08 0)
(0.27500678 6.3186832e-08 0)
(0.27500661 4.6668924e-08 0)
(0.27500649 3.3984335e-08 0)
(0.27500639 2.4399565e-08 0)
(0.27500633 1.7245169e-08 0)
(0.27500628 1.2005302e-08 0)
(0.27500625 8.2100793e-09 0)
(0.27500623 5.5279071e-09 0)
(0.27500622 3.6479758e-09 0)
(0.27500621 2.3755298e-09 0)
(0.2750062 1.5136326e-09 0)
(0.2750062 9.6371092e-10 0)
(0.2750062 6.0457222e-10 0)
(0.2750062 3.9608029e-10 0)
(0.2750062 2.6228295e-10 0)
(0.27500619 1.9874517e-10 0)
(0.27500619 1.5570939e-10 0)
(0.27500619 1.4429788e-10 0)
(0.27500619 1.2920911e-10 0)
(0.27500619 1.2898999e-10 0)
(0.27500619 1.1824245e-10 0)
(0.27500619 1.1526614e-10 0)
(0.27500619 1.0097975e-10 0)
(0.27500619 9.1860781e-11 0)
(0.27500619 7.7724796e-11 0)
(0.27500619 6.562289e-11 0)
(0.27500619 6.0557614e-11 0)
(0.27500619 5.5444975e-11 0)
(0.27500619 8.6479481e-11 0)
(0.27500619 1.2747797e-10 0)
(0.27500619 2.8130021e-10 0)
(0.27500619 4.9508788e-10 0)
(0.27500619 9.699203e-10 0)
(0.27500619 1.6024938e-09 0)
(0.27500618 2.9066615e-09 0)
(0.27500618 4.0183132e-09 0)
(0.69364644 0.00029772328 0)
(0.69413745 0.0012706479 0)
(0.69338668 0.0017531902 0)
(0.69237143 0.0016929288 0)
(0.69149324 0.0014047786 0)
(0.6907547 0.001130858 0)
(0.69007992 0.00093899851 0)
(0.68943842 0.00080533794 0)
(0.68883702 0.0006977439 0)
(0.68828782 0.00060342596 0)
(0.68779398 0.00052222531 0)
(0.68735107 0.00045540882 0)
(0.68695234 0.00040152002 0)
(0.68659189 0.00035744984 0)
(0.68626526 0.00032034208 0)
(0.68596887 0.00028834704 0)
(0.68569963 0.00026041268 0)
(0.6854547 0.00023585969 0)
(0.68523156 0.00021413998 0)
(0.68502803 0.00019478299 0)
(0.68484223 0.00017740808 0)
(0.6846725 0.00016172437 0)
(0.68451741 0.00014751064 0)
(0.68437566 0.00013459097 0)
(0.68424612 0.00012281925 0)
(0.68412773 0.00011207117 0)
(0.68401958 0.00010224078 0)
(0.68392082 9.3237287e-05 0)
(0.68383068 8.4982529e-05 0)
(0.68374847 7.7408205e-05 0)
(0.68367354 7.0454274e-05 0)
(0.68360531 6.4067332e-05 0)
(0.68354324 5.819984e-05 0)
(0.68348684 5.2809056e-05 0)
(0.68343566 4.785656e-05 0)
(0.68338926 4.3307445e-05 0)
(0.68334727 3.9130058e-05 0)
(0.68330933 3.5295401e-05 0)
(0.68327511 3.1777006e-05 0)
(0.68324429 2.8550497e-05 0)
(0.68321661 2.5593547e-05 0)
(0.68319179 2.2885555e-05 0)
(0.6831696 2.0407663e-05 0)
(0.68314982 1.8142513e-05 0)
(0.68313223 1.6074291e-05 0)
(0.68311664 1.4188531e-05 0)
(0.68310289 1.2472142e-05 0)
(0.68309079 1.0913226e-05 0)
(0.68308021 9.5010549e-06 0)
(0.683071 8.2258634e-06 0)
(0.68306302 7.0787751e-06 0)
(0.68305615 6.0515785e-06 0)
(0.68305028 5.1366123e-06 0)
(0.68304529 4.3265542e-06 0)
(0.68304109 3.6143129e-06 0)
(0.68303758 2.9928797e-06 0)
(0.68303467 2.4552693e-06 0)
(0.68303228 1.9944588e-06 0)
(0.68303034 1.6034008e-06 0)
(0.68302878 1.2750578e-06 0)
(0.68302754 1.0024707e-06 0)
(0.68302656 7.7885148e-07 0)
(0.6830258 5.976721e-07 0)
(0.68302522 4.5277864e-07 0)
(0.68302478 3.3845372e-07 0)
(0.68302445 2.495046e-07 0)
(0.6830242 1.8128068e-07 0)
(0.68302403 1.2973386e-07 0)
(0.6830239 9.1376628e-08 0)
(0.68302381 6.3296571e-08 0)
(0.68302375 4.3072392e-08 0)
(0.68302371 2.8770142e-08 0)
(0.68302368 1.8835015e-08 0)
(0.68302366 1.2079605e-08 0)
(0.68302365 7.576079e-09 0)
(0.68302365 4.6550125e-09 0)
(0.68302364 2.8048337e-09 0)
(0.68302364 1.6785749e-09 0)
(0.68302364 1.0117634e-09 0)
(0.68302364 6.4371398e-10 0)
(0.68302364 4.5039665e-10 0)
(0.68302364 3.627197e-10 0)
(0.68302364 3.2688357e-10 0)
(0.68302364 3.1530651e-10 0)
(0.68302364 3.1549196e-10 0)
(0.68302364 3.0743429e-10 0)
(0.68302364 3.0531699e-10 0)
(0.68302364 2.7790279e-10 0)
(0.68302364 2.7641357e-10 0)
(0.68302364 2.3340282e-10 0)
(0.68302363 2.5517082e-10 0)
(0.68302364 2.1779497e-10 0)
(0.68302363 3.1959063e-10 0)
(0.68302363 3.7188482e-10 0)
(0.68302363 7.0348179e-10 0)
(0.68302363 1.0773553e-09 0)
(0.68302363 1.9613759e-09 0)
(0.68302363 3.1475001e-09 0)
(0.68302362 5.1223506e-09 0)
(0.68302363 7.7959663e-09 0)
(0.97068823 0.00023530053 0)
(0.97208065 0.001186108 0)
(0.97204383 0.0018267347 0)
(0.97172799 0.0019640001 0)
(0.97160599 0.0018072542 0)
(0.9716221 0.0015926405 0)
(0.97162205 0.0014213014 0)
(0.97154479 0.0012915966 0)
(0.97140921 0.0011768661 0)
(0.97125152 0.0010648484 0)
(0.97109266 0.00095784922 0)
(0.970938 0.00086114936 0)
(0.97078712 0.00077661155 0)
(0.97064001 0.00070289365 0)
(0.97049799 0.00063778453 0)
(0.97036259 0.0005796139 0)
(0.97023473 0.0005273879 0)
(0.97011467 0.00048043601 0)
(0.9700023 0.00043815615 0)
(0.96989739 0.00039996673 0)
(0.9697997 0.0003653463 0)
(0.96970895 0.00033386089 0)
(0.96962482 0.00030515667 0)
(0.96954698 0.00027893888 0)
(0.96947506 0.0002549543 0)
(0.96940871 0.00023298233 0)
(0.96934758 0.00021283023 0)
(0.96929135 0.00019432973 0)
(0.96923969 0.00017733317 0)
(0.96919228 0.00016171012 0)
(0.96914883 0.0001473444 0)
(0.96910907 0.00013413205 0)
(0.96907272 0.00012197946 0)
(0.96903955 0.00011080215 0)
(0.9690093 0.00010052339 0)
(0.96898178 9.1073403e-05 0)
(0.96895676 8.2388342e-05 0)
(0.96893406 7.4409737e-05 0)
(0.9689135 6.7083811e-05 0)
(0.9688949 6.0361076e-05 0)
(0.96887812 5.4195868e-05 0)
(0.96886301 4.8546094e-05 0)
(0.96884942 4.3372914e-05 0)
(0.96883724 3.8640574e-05 0)
(0.96882635 3.431621e-05 0)
(0.96881664 3.036973e-05 0)
(0.96880801 2.6773656e-05 0)
(0.96880036 2.3502996e-05 0)
(0.96879361 2.0535065e-05 0)
(0.96878767 1.7849283e-05 0)
(0.96878248 1.5426935e-05 0)
(0.96877796 1.3250881e-05 0)
(0.96877405 1.1305263e-05 0)
(0.96877068 9.5751673e-06 0)
(0.9687678 8.0463467e-06 0)
(0.96876536 6.7049161e-06 0)
(0.9687633 5.5371768e-06 0)
(0.96876158 4.5294287e-06 0)
(0.96876016 3.6679508e-06 0)
(0.96875899 2.9389707e-06 0)
(0.96875805 2.3287975e-06 0)
(0.96875729 1.8239139e-06 0)
(0.96875668 1.4112022e-06 0)
(0.96875621 1.0780875e-06 0)
(0.96875584 8.1276962e-07 0)
(0.96875556 6.0433393e-07 0)
(0.96875535 4.4292239e-07 0)
(0.96875519 3.1975912e-07 0)
(0.96875508 2.2722758e-07 0)
(0.96875499 1.588038e-07 0)
(0.96875493 1.0905297e-07 0)
(0.96875489 7.3496552e-08 0)
(0.96875486 4.8558264e-08 0)
(0.96875484 3.1396932e-08 0)
(0.96875483 1.9842697e-08 0)
(0.96875482 1.2231242e-08 0)
(0.96875482 7.35499e-09 0)
(0.96875482 4.3110583e-09 0)
(0.96875481 2.486712e-09 0)
(0.96875481 1.4273729e-09 0)
(0.96875481 8.5930468e-10 0)
(0.96875481 5.6301129e-10 0)
(0.96875481 4.4187594e-10 0)
(0.96875481 3.8472618e-10 0)
(0.96875481 3.8940757e-10 0)
(0.96875481 3.7528968e-10 0)
(0.96875481 3.9995248e-10 0)
(0.96875481 3.668347e-10 0)
(0.96875481 3.9721003e-10 0)
(0.96875481 3.4264398e-10 0)
(0.96875481 4.0032235e-10 0)
(0.96875481 3.6209449e-10 0)
(0.96875481 5.0373411e-10 0)
(0.96875481 6.1085154e-10 0)
(0.96875481 9.6739549e-10 0)
(0.96875481 1.4649859e-09 0)
(0.96875481 2.257562e-09 0)
(0.96875481 3.6130996e-09 0)
(0.9687548 5.0540056e-09 0)
(0.96875482 7.4290558e-09 0)
(1.1404215 0.00014518702 0)
(1.1423592 0.00079870551 0)
(1.1427241 0.0012976472 0)
(1.1428228 0.0014605638 0)
(1.1432295 0.0013965985 0)
(1.1438649 0.001270193 0)
(1.1444995 0.0011649554 0)
(1.1450209 0.0010866047 0)
(1.1454359 0.0010160122 0)
(1.1457878 0.00094264861 0)
(1.1461045 0.00086798407 0)
(1.146393 0.00079701448 0)
(1.1466525 0.00073241792 0)
(1.1468831 0.00067407806 0)
(1.147088 0.00062084092 0)
(1.1472713 0.00057178873 0)
(1.147436 0.00052646901 0)
(1.1475847 0.00048464575 0)
(1.147719 0.00044608656 0)
(1.1478404 0.00041051957 0)
(1.1479503 0.00037767184 0)
(1.1480499 0.00034730422 0)
(1.1481402 0.00031921478 0)
(1.1482223 0.00029322889 0)
(1.1482969 0.00026918834 0)
(1.1483646 0.00024694797 0)
(1.1484262 0.00022637395 0)
(1.1484822 0.00020734422 0)
(1.1485331 0.00018974662 0)
(1.1485794 0.00017347844 0)
(1.1486214 0.00015844446 0)
(1.1486595 0.00014455689 0)
(1.1486941 0.000131734 0)
(1.1487254 0.00011990028 0)
(1.1487538 0.00010898529 0)
(1.1487794 9.8923797e-05 0)
(1.1488025 8.9654831e-05 0)
(1.1488234 8.1121835e-05 0)
(1.1488422 7.3271872e-05 0)
(1.148859 6.6055816e-05 0)
(1.1488741 5.9427665e-05 0)
(1.1488877 5.3344771e-05 0)
(1.1488997 4.776728e-05 0)
(1.1489104 4.2658353e-05 0)
(1.1489199 3.7983717e-05 0)
(1.1489283 3.3711873e-05 0)
(1.1489357 2.9813722e-05 0)
(1.1489421 2.6262707e-05 0)
(1.1489478 2.3034472e-05 0)
(1.1489526 2.0106895e-05 0)
(1.1489568 1.7459733e-05 0)
(1.1489604 1.507452e-05 0)
(1.1489635 1.29342e-05 0)
(1.148966 1.102291e-05 0)
(1.1489682 9.3256369e-06 0)
(1.1489699 7.8279666e-06 0)
(1.1489714 6.5158354e-06 0)
(1.1489726 5.3753282e-06 0)
(1.1489735 4.3925928e-06 0)
(1.1489742 3.5537432e-06 0)
(1.1489748 2.8449611e-06 0)
(1.1489753 2.2525005e-06 0)
(1.1489756 1.7629331e-06 0)
(1.1489758 1.3632039e-06 0)
(1.148976 1.040943e-06 0)
(1.1489762 7.8449719e-07 0)
(1.1489763 5.8322419e-07 0)
(1.1489763 4.2744312e-07 0)
(1.1489764 3.0866241e-07 0)
(1.1489764 2.194291e-07 0)
(1.1489764 1.5347905e-07 0)
(1.1489764 1.0549962e-07 0)
(1.1489764 7.1224574e-08 0)
(1.1489764 4.7146045e-08 0)
(1.1489764 3.0587637e-08 0)
(1.1489765 1.9399965e-08 0)
(1.1489765 1.2043026e-08 0)
(1.1489765 7.2900719e-09 0)
(1.1489765 4.3389975e-09 0)
(1.1489765 2.5308967e-09 0)
(1.1489765 1.5002915e-09 0)
(1.1489765 9.0397267e-10 0)
(1.1489765 6.1785256e-10 0)
(1.1489765 4.5160922e-10 0)
(1.1489765 4.0986637e-10 0)
(1.1489765 3.5781515e-10 0)
(1.1489765 3.7935835e-10 0)
(1.1489765 3.3459679e-10 0)
(1.1489765 3.7212579e-10 0)
(1.1489765 3.1867348e-10 0)
(1.1489765 3.7606099e-10 0)
(1.1489765 3.5773775e-10 0)
(1.1489765 4.7299982e-10 0)
(1.1489765 6.0757981e-10 0)
(1.1489764 8.646971e-10 0)
(1.1489765 1.2861913e-09 0)
(1.1489764 1.7748743e-09 0)
(1.1489765 2.7096466e-09 0)
(1.1489764 3.3343078e-09 0)
(1.1489765 4.6158225e-09 0)
(1.2206835 4.8627895e-05 0)
(1.2228777 0.00027804332 0)
(1.2234095 0.00046220829 0)
(1.2236726 0.00053011721 0)
(1.2243087 0.00051402371 0)
(1.2252392 0.00047224106 0)
(1.2261964 0.00043692129 0)
(1.2270368 0.00041139616 0)
(1.2277575 0.00038864624 0)
(1.2284041 0.00036437854 0)
(1.229007 0.00033893319 0)
(1.2295729 0.00031422499 0)
(1.2300988 0.00029139479 0)
(1.2305833 0.00027050282 0)
(1.2310288 0.00025117142 0)
(1.2314392 0.00023309392 0)
(1.2318182 0.00021614205 0)
(1.2321682 0.0002002735 0)
(1.2324912 0.0001854459 0)
(1.2327891 0.00017159629 0)
(1.2330636 0.00015865551 0)
(1.2333165 0.00014656209 0)
(1.2335493 0.00013526474 0)
(1.2337635 0.00012471872 0)
(1.2339605 0.00011488214 0)
(1.2341414 0.00010571474 0)
(1.2343075 9.7177842e-05 0)
(1.2344597 8.9234646e-05 0)
(1.2345993 8.1850152e-05 0)
(1.234727 7.4991052e-05 0)
(1.2348437 6.8625509e-05 0)
(1.2349503 6.2723177e-05 0)
(1.2350476 5.7255085e-05 0)
(1.2351362 5.2193708e-05 0)
(1.2352168 4.7512867e-05 0)
(1.2352901 4.318777e-05 0)
(1.2353565 3.9194898e-05 0)
(1.2354167 3.5512037e-05 0)
(1.2354711 3.2118164e-05 0)
(1.2355203 2.8993491e-05 0)
(1.2355645 2.6119367e-05 0)
(1.2356043 2.3478283e-05 0)
(1.2356399 2.1053789e-05 0)
(1.2356718 1.8830533e-05 0)
(1.2357002 1.6794175e-05 0)
(1.2357255 1.4931418e-05 0)
(1.2357479 1.3229931e-05 0)
(1.2357677 1.1678375e-05 0)
(1.2357851 1.0266311e-05 0)
(1.2358003 8.9841955e-06 0)
(1.2358135 7.8232698e-06 0)
(1.235825 6.7755213e-06 0)
(1.2358348 5.8335427e-06 0)
(1.2358433 4.9904616e-06 0)
(1.2358505 4.2397895e-06 0)
(1.2358565 3.5753448e-06 0)
(1.2358616 2.9911227e-06 0)
(1.2358658 2.4812363e-06 0)
(1.2358692 2.0398384e-06 0)
(1.235872 1.6611086e-06 0)
(1.2358743 1.3392428e-06 0)
(1.2358761 1.0684867e-06 0)
(1.2358775 8.4317958e-07 0)
(1.2358786 6.5781898e-07 0)
(1.2358794 5.0713546e-07 0)
(1.2358801 3.8615768e-07 0)
(1.2358805 2.9028126e-07 0)
(1.2358809 2.1530785e-07 0)
(1.2358811 1.5749162e-07 0)
(1.2358813 1.1354082e-07 0)
(1.2358815 8.062839e-08 0)
(1.2358816 5.6356996e-08 0)
(1.2358816 3.8748037e-08 0)
(1.2358817 2.6184531e-08 0)
(1.2358817 1.7384173e-08 0)
(1.2358817 1.1332049e-08 0)
(1.2358817 7.2579426e-09 0)
(1.2358817 4.5724723e-09 0)
(1.2358817 2.8500841e-09 0)
(1.2358817 1.7698112e-09 0)
(1.2358817 1.1175076e-09 0)
(1.2358817 7.303928e-10 0)
(1.2358817 5.1737795e-10 0)
(1.2358817 3.9339096e-10 0)
(1.2358817 3.3373707e-10 0)
(1.2358817 2.8739055e-10 0)
(1.2358817 2.7411197e-10 0)
(1.2358817 2.4259752e-10 0)
(1.2358817 2.4069846e-10 0)
(1.2358817 2.1507069e-10 0)
(1.2358817 2.2316858e-10 0)
(1.2358817 2.3705545e-10 0)
(1.2358817 2.7380763e-10 0)
(1.2358817 3.7127093e-10 0)
(1.2358817 4.6220426e-10 0)
(1.2358817 6.155528e-10 0)
(1.2358817 7.2932582e-10 0)
(1.2358817 9.5015301e-10 0)
(1.2358817 7.6741607e-10 0)
(1.2358817 8.5442128e-10 0)
(1.2206834 -4.8628076e-05 0)
(1.2228777 -0.00027804138 0)
(1.2234095 -0.00046220543 0)
(1.2236726 -0.00053011037 0)
(1.2243087 -0.00051400768 0)
(1.2252392 -0.00047221535 0)
(1.2261964 -0.00043688994 0)
(1.2270368 -0.00041136386 0)
(1.2277575 -0.00038861523 0)
(1.2284041 -0.00036435037 0)
(1.229007 -0.00033890894 0)
(1.2295729 -0.00031420653 0)
(1.2300988 -0.00029138309 0)
(1.2305833 -0.00027049882 0)
(1.2310288 -0.00025117482 0)
(1.2314393 -0.00023310479 0)
(1.2318182 -0.00021615982 0)
(1.2321682 -0.00020029804 0)
(1.2324912 -0.00018547624 0)
(1.2327891 -0.00017163185 0)
(1.2330636 -0.00015869498 0)
(1.2333165 -0.00014660469 0)
(1.2335493 -0.00013530909 0)
(1.2337635 -0.00012476402 0)
(1.2339605 -0.0001149271 0)
(1.2341414 -0.00010575871 0)
(1.2343074 -9.7219758e-05 0)
(1.2344597 -8.9274053e-05 0)
(1.2345992 -8.1886255e-05 0)
(1.2347269 -7.5023664e-05 0)
(1.2348437 -6.8654136e-05 0)
(1.2349503 -6.2747865e-05 0)
(1.2350475 -5.7275603e-05 0)
(1.2351362 -5.2210321e-05 0)
(1.2352168 -4.7525569e-05 0)
(1.23529 -4.319697e-05 0)
(1.2353565 -3.9200741e-05 0)
(1.2354167 -3.5515014e-05 0)
(1.2354711 -3.2118517e-05 0)
(1.2355202 -2.899173e-05 0)
(1.2355644 -2.6115719e-05 0)
(1.2356042 -2.3473175e-05 0)
(1.2356399 -2.1047396e-05 0)
(1.2356717 -1.8823165e-05 0)
(1.2357002 -1.6785908e-05 0)
(1.2357255 -1.4922425e-05 0)
(1.2357479 -1.3220195e-05 0)
(1.2357676 -1.166795e-05 0)
(1.235785 -1.0255112e-05 0)
(1.2358002 -8.9722062e-06 0)
(1.2358135 -7.8104021e-06 0)
(1.2358249 -6.7617511e-06 0)
(1.2358348 -5.8188345e-06 0)
(1.2358433 -4.974841e-06 0)
(1.2358504 -4.2233234e-06 0)
(1.2358565 -3.558143e-06 0)
(1.2358615 -2.9733638e-06 0)
(1.2358657 -2.463109e-06 0)
(1.2358692 -2.0216121e-06 0)
(1.235872 -1.6430196e-06 0)
(1.2358742 -1.3215983e-06 0)
(1.235876 -1.0515107e-06 0)
(1.2358774 -8.2715596e-07 0)
(1.2358785 -6.4290999e-07 0)
(1.2358794 -4.9355093e-07 0)
(1.23588 -3.7395528e-07 0)
(1.2358805 -2.795674e-07 0)
(1.2358809 -2.0603193e-07 0)
(1.2358811 -1.4966174e-07 0)
(1.2358813 -1.0701038e-07 0)
(1.2358815 -7.5331274e-08 0)
(1.2358815 -5.209355e-08 0)
(1.2358816 -3.5421551e-08 0)
(1.2358817 -2.357814e-08 0)
(1.2358817 -1.5405275e-08 0)
(1.2358817 -9.7859491e-09 0)
(1.2358817 -6.0865676e-09 0)
(1.2358817 -3.6162054e-09 0)
(1.2358817 -2.0917196e-09 0)
(1.2358817 -1.0924216e-09 0)
(1.2358817 -5.4489734e-10 0)
(1.2358817 -1.7398986e-10 0)
(1.2358817 -2.7702943e-11 0)
(1.2358817 9.5300213e-11 0)
(1.2358817 9.0972616e-11 0)
(1.2358817 1.3267215e-10 0)
(1.2358817 7.9684985e-11 0)
(1.2358817 1.033577e-10 0)
(1.2358817 3.7615728e-11 0)
(1.2358817 6.9728239e-11 0)
(1.2358817 2.0342665e-12 0)
(1.2358817 5.4548927e-11 0)
(1.2358817 -1.9713904e-11 0)
(1.2358817 1.2728747e-11 0)
(1.2358817 -1.0962001e-10 0)
(1.2358817 -2.708774e-10 0)
(1.2358817 -5.3185001e-10 0)
(1.2358817 -1.0339911e-09 0)
(1.2358817 -1.7964053e-09 0)
(1.2358817 -2.7115522e-09 0)
(1.1404216 -0.00014518756 0)
(1.1423593 -0.00079871672 0)
(1.1427242 -0.0012976642 0)
(1.1428228 -0.0014605759 0)
(1.1432295 -0.0013965995 0)
(1.143865 -0.0012701828 0)
(1.1444996 -0.0011649379 0)
(1.1450209 -0.0010865836 0)
(1.1454359 -0.0010159902 0)
(1.1457879 -0.00094262726 0)
(1.1461045 -0.0008679651 0)
(1.1463931 -0.00079699917 0)
(1.1466525 -0.0007324077 0)
(1.1468831 -0.0006740734 0)
(1.1470881 -0.00062084246 0)
(1.1472713 -0.00057179635 0)
(1.147436 -0.00052648279 0)
(1.1475847 -0.00048466511 0)
(1.147719 -0.00044611112 0)
(1.1478404 -0.00041054836 0)
(1.1479503 -0.0003777042 0)
(1.1480499 -0.000347339 0)
(1.1481402 -0.00031925123 0)
(1.1482223 -0.00029326589 0)
(1.1482968 -0.0002692252 0)
(1.1483646 -0.00024698372 0)
(1.1484262 -0.00022640809 0)
(1.1484821 -0.00020737598 0)
(1.148533 -0.00018977574 0)
(1.1485793 -0.00017350442 0)
(1.1486213 -0.00015846723 0)
(1.1486594 -0.0001445762 0)
(1.1486939 -0.00013174999 0)
(1.1487253 -0.00011991291 0)
(1.1487536 -0.00010899484 0)
(1.1487793 -9.8930382e-05 0)
(1.1488024 -8.9658837e-05 0)
(1.1488233 -8.1123475e-05 0)
(1.148842 -7.3271549e-05 0)
(1.1488589 -6.6053743e-05 0)
(1.148874 -5.942422e-05 0)
(1.1488875 -5.3340148e-05 0)
(1.1488996 -4.7761764e-05 0)
(1.1489103 -4.2652049e-05 0)
(1.1489198 -3.7976795e-05 0)
(1.1489282 -3.3704349e-05 0)
(1.1489356 -2.9805654e-05 0)
(1.148942 -2.6254039e-05 0)
(1.1489477 -2.3025189e-05 0)
(1.1489525 -2.0096922e-05 0)
(1.1489567 -1.7449036e-05 0)
(1.1489603 -1.5063054e-05 0)
(1.1489634 -1.2921965e-05 0)
(1.1489659 -1.100994e-05 0)
(1.1489681 -9.3120017e-06 0)
(1.1489698 -7.8137943e-06 0)
(1.1489713 -6.50127e-06 0)
(1.1489725 -5.3605779e-06 0)
(1.1489734 -4.3778523e-06 0)
(1.1489742 -3.5392646e-06 0)
(1.1489748 -2.8309421e-06 0)
(1.1489752 -2.2391821e-06 0)
(1.1489755 -1.7504711e-06 0)
(1.1489758 -1.351786e-06 0)
(1.148976 -1.0306436e-06 0)
(1.1489761 -7.7541796e-07 0)
(1.1489762 -5.7534732e-07 0)
(1.1489763 -4.2078526e-07 0)
(1.1489764 -3.0312049e-07 0)
(1.1489764 -2.1494903e-07 0)
(1.1489764 -1.4990414e-07 0)
(1.1489764 -1.0274245e-07 0)
(1.1489764 -6.9107214e-08 0)
(1.1489764 -4.5577322e-08 0)
(1.1489764 -2.9402937e-08 0)
(1.1489764 -1.853492e-08 0)
(1.1489764 -1.136257e-08 0)
(1.1489764 -6.7639597e-09 0)
(1.1489764 -3.8702822e-09 0)
(1.1489764 -2.1273801e-09 0)
(1.1489764 -1.0957995e-09 0)
(1.1489764 -5.3074008e-10 0)
(1.1489764 -2.3250429e-10 0)
(1.1489764 -1.0164813e-10 0)
(1.1489764 -5.6774311e-11 0)
(1.1489764 -4.885482e-11 0)
(1.1489764 -7.625864e-11 0)
(1.1489764 -8.5237394e-11 0)
(1.1489764 -1.2996767e-10 0)
(1.1489764 -1.2092818e-10 0)
(1.1489764 -1.7546379e-10 0)
(1.1489764 -1.6975771e-10 0)
(1.1489764 -2.6511796e-10 0)
(1.1489764 -3.6999116e-10 0)
(1.1489764 -6.1884481e-10 0)
(1.1489764 -1.0718777e-09 0)
(1.1489764 -1.6278429e-09 0)
(1.1489765 -2.7271724e-09 0)
(1.1489764 -3.7963853e-09 0)
(1.1489765 -5.4338124e-09 0)
(0.97068822 -0.00023529928 0)
(0.97208065 -0.0011860989 0)
(0.97204383 -0.0018267277 0)
(0.97172799 -0.0019640019 0)
(0.97160602 -0.0018072609 0)
(0.97162214 -0.0015926451 0)
(0.97162209 -0.0014213 0)
(0.97154484 -0.0012915895 0)
(0.97140926 -0.001176856 0)
(0.97125157 -0.0010648372 0)
(0.9710927 -0.00095783828 0)
(0.97093804 -0.00086113917 0)
(0.97078716 -0.00077660337 0)
(0.97064005 -0.00070288812 0)
(0.97049802 -0.0006377829 0)
(0.97036261 -0.00057961626 0)
(0.97023475 -0.00052739469 0)
(0.97011468 -0.00048044659 0)
(0.97000229 -0.00043817048 0)
(0.96989738 -0.00039998389 0)
(0.96979967 -0.00036536605 0)
(0.96970891 -0.00033388219 0)
(0.96962476 -0.00030517918 0)
(0.96954691 -0.00027896158 0)
(0.96947497 -0.00025497693 0)
(0.96940861 -0.00023300403 0)
(0.96934747 -0.00021285084 0)
(0.96929123 -0.0001943486 0)
(0.96923955 -0.0001773503 0)
(0.96919214 -0.00016172504 0)
(0.96914868 -0.00014735727 0)
(0.96910891 -0.00013414257 0)
(0.96907256 -0.00012198792 0)
(0.96903938 -0.0001108084 0)
(0.96900914 -0.0001005278 0)
(0.96898161 -9.1075933e-05 0)
(0.96895659 -8.2389396e-05 0)
(0.96893389 -7.4409348e-05 0)
(0.96891333 -6.7082354e-05 0)
(0.96889474 -6.0358604e-05 0)
(0.96887796 -5.4192719e-05 0)
(0.96886284 -4.8542296e-05 0)
(0.96884926 -4.3368708e-05 0)
(0.96883709 -3.8635937e-05 0)
(0.9688262 -3.4311291e-05 0)
(0.96881649 -3.0364455e-05 0)
(0.96880786 -2.6768089e-05 0)
(0.96880022 -2.349704e-05 0)
(0.96879347 -2.0528736e-05 0)
(0.96878755 -1.7842496e-05 0)
(0.96878236 -1.5419699e-05 0)
(0.96877785 -1.3243161e-05 0)
(0.96877394 -1.1297091e-05 0)
(0.96877058 -9.5665828e-06 0)
(0.96876771 -8.0374221e-06 0)
(0.96876527 -6.6957644e-06 0)
(0.96876322 -5.527901e-06 0)
(0.96876151 -4.520196e-06 0)
(0.96876009 -3.6588762e-06 0)
(0.96875893 -2.93024e-06 0)
(0.96875799 -2.3205017e-06 0)
(0.96875724 -1.8162241e-06 0)
(0.96875664 -1.4041644e-06 0)
(0.96875617 -1.0718288e-06 0)
(0.96875581 -8.0726863e-07 0)
(0.96875553 -5.9966408e-07 0)
(0.96875533 -4.3900164e-07 0)
(0.96875517 -3.1660912e-07 0)
(0.96875506 -2.2471227e-07 0)
(0.96875498 -1.5691238e-07 0)
(0.96875492 -1.0762714e-07 0)
(0.96875488 -7.251381e-08 0)
(0.96875485 -4.7853564e-08 0)
(0.96875483 -3.0959281e-08 0)
(0.96875482 -1.9527494e-08 0)
(0.96875482 -1.2050618e-08 0)
(0.96875481 -7.1846143e-09 0)
(0.96875481 -4.1919734e-09 0)
(0.96875481 -2.3238526e-09 0)
(0.96875481 -1.2849886e-09 0)
(0.96875481 -6.5497075e-10 0)
(0.96875481 -3.7850971e-10 0)
(0.96875481 -2.0650692e-10 0)
(0.96875481 -1.8508908e-10 0)
(0.96875481 -1.5432079e-10 0)
(0.96875481 -1.9126727e-10 0)
(0.96875481 -1.9586978e-10 0)
(0.96875481 -2.259398e-10 0)
(0.96875481 -2.3924433e-10 0)
(0.96875481 -2.4229593e-10 0)
(0.96875481 -2.7937146e-10 0)
(0.96875481 -2.9083508e-10 0)
(0.96875481 -4.0740401e-10 0)
(0.96875481 -5.6345006e-10 0)
(0.9687548 -9.0189449e-10 0)
(0.96875481 -1.4363904e-09 0)
(0.9687548 -2.2184631e-09 0)
(0.96875481 -3.6241594e-09 0)
(0.9687548 -4.8159944e-09 0)
(0.96875481 -6.9106756e-09 0)
(0.69364642 -0.00029771708 0)
(0.69413745 -0.0012706367 0)
(0.69338668 -0.0017531885 0)
(0.69237143 -0.0016929458 0)
(0.69149325 -0.0014048115 0)
(0.69075472 -0.001130896 0)
(0.69007994 -0.00093903108 0)
(0.68943844 -0.00080536112 0)
(0.68883703 -0.00069775852 0)
(0.68828783 -0.00060343466 0)
(0.68779399 -0.00052222958 0)
(0.68735108 -0.00045540998 0)
(0.68695235 -0.00040151904 0)
(0.6865919 -0.00035744835 0)
(0.68626526 -0.00032034109 0)
(0.68596887 -0.00028834754 0)
(0.68569962 -0.00026041467 0)
(0.68545469 -0.00023586333 0)
(0.68523154 -0.00021414485 0)
(0.68502801 -0.00019478908 0)
(0.68484219 -0.00017741488 0)
(0.68467245 -0.0001617318 0)
(0.68451735 -0.00014751815 0)
(0.6843756 -0.00013459849 0)
(0.68424604 -0.00012282634 0)
(0.68412765 -0.00011207779 0)
(0.68401949 -0.00010224658 0)
(0.68392072 -9.3242334e-05 0)
(0.68383057 -8.4986574e-05 0)
(0.68374835 -7.7411362e-05 0)
(0.68367341 -7.0456382e-05 0)
(0.68360518 -6.4068563e-05 0)
(0.68354311 -5.8200107e-05 0)
(0.68348671 -5.2808551e-05 0)
(0.68343552 -4.7855246e-05 0)
(0.68338913 -4.3305537e-05 0)
(0.68334714 -3.9127551e-05 0)
(0.6833092 -3.5292494e-05 0)
(0.68327498 -3.1773706e-05 0)
(0.68324417 -2.854698e-05 0)
(0.68321648 -2.5589815e-05 0)
(0.68319167 -2.2881736e-05 0)
(0.68316948 -2.0403737e-05 0)
(0.6831497 -1.8138563e-05 0)
(0.68313212 -1.6070278e-05 0)
(0.68311653 -1.4184494e-05 0)
(0.68310278 -1.2468033e-05 0)
(0.68309069 -1.090906e-05 0)
(0.68308012 -9.4967914e-06 0)
(0.68307091 -8.2215091e-06 0)
(0.68306293 -7.0743146e-06 0)
(0.68305607 -6.0470259e-06 0)
(0.6830502 -5.1319861e-06 0)
(0.68304522 -4.3218835e-06 0)
(0.68304103 -3.6096491e-06 0)
(0.68303752 -2.9882611e-06 0)
(0.68303462 -2.4507703e-06 0)
(0.68303223 -1.9901205e-06 0)
(0.6830303 -1.5993051e-06 0)
(0.68302874 -1.2712303e-06 0)
(0.68302751 -9.9898483e-07 0)
(0.68302653 -7.7571196e-07 0)
(0.68302578 -5.9493349e-07 0)
(0.6830252 -4.5041158e-07 0)
(0.68302476 -3.3648843e-07 0)
(0.68302443 -2.4788784e-07 0)
(0.68302419 -1.8002445e-07 0)
(0.68302402 -1.2875947e-07 0)
(0.68302389 -9.0682965e-08 0)
(0.68302381 -6.279832e-08 0)
(0.68302375 -4.2767319e-08 0)
(0.68302371 -2.8568807e-08 0)
(0.68302368 -1.8741197e-08 0)
(0.68302366 -1.2016644e-08 0)
(0.68302365 -7.5619042e-09 0)
(0.68302364 -4.6213221e-09 0)
(0.68302364 -2.7827374e-09 0)
(0.68302364 -1.6165464e-09 0)
(0.68302364 -9.5391694e-10 0)
(0.68302364 -5.4224894e-10 0)
(0.68302364 -3.5411758e-10 0)
(0.68302364 -2.3334751e-10 0)
(0.68302364 -2.1723541e-10 0)
(0.68302364 -1.8490089e-10 0)
(0.68302364 -2.1544591e-10 0)
(0.68302364 -2.0049518e-10 0)
(0.68302364 -2.4029122e-10 0)
(0.68302364 -2.0910524e-10 0)
(0.68302364 -2.4904064e-10 0)
(0.68302363 -1.9979483e-10 0)
(0.68302363 -2.6787238e-10 0)
(0.68302363 -2.2825267e-10 0)
(0.68302363 -4.0018818e-10 0)
(0.68302363 -4.745344e-10 0)
(0.68302363 -8.5609469e-10 0)
(0.68302363 -1.2207831e-09 0)
(0.68302363 -2.1136583e-09 0)
(0.68302363 -3.2554026e-09 0)
(0.68302362 -4.4627569e-09 0)
(0.68302363 -6.5915144e-09 0)
(0.28438581 -0.00025352488 0)
(0.28383814 -0.00072727403 0)
(0.28262725 -0.00078883615 0)
(0.28142665 -0.00059760775 0)
(0.28047407 -0.00038999097 0)
(0.27975218 -0.00026041314 0)
(0.27918242 -0.00019552709 0)
(0.27870757 -0.00015940953 0)
(0.27830072 -0.0001322566 0)
(0.27795044 -0.00010963221 0)
(0.27764868 -9.2072485e-05 0)
(0.27738704 -7.9421358e-05 0)
(0.27715748 -7.029427e-05 0)
(0.27695366 -6.3197097e-05 0)
(0.27677112 -5.7199663e-05 0)
(0.27660677 -5.1914188e-05 0)
(0.27645829 -4.7212278e-05 0)
(0.27632377 -4.3023277e-05 0)
(0.27620163 -3.9269688e-05 0)
(0.2760905 -3.5878133e-05 0)
(0.27598926 -3.2792381e-05 0)
(0.27589693 -2.9975526e-05 0)
(0.27581268 -2.7400372e-05 0)
(0.27573578 -2.5044773e-05 0)
(0.27566557 -2.2887514e-05 0)
(0.27560147 -2.0910052e-05 0)
(0.27554296 -1.909522e-05 0)
(0.27548957 -1.742872e-05 0)
(0.27544086 -1.5897247e-05 0)
(0.27539646 -1.4489621e-05 0)
(0.27535601 -1.3195143e-05 0)
(0.2753192 -1.2004795e-05 0)
(0.27528572 -1.0909852e-05 0)
(0.2752553 -9.9029938e-06 0)
(0.2752277 -8.977046e-06 0)
(0.2752027 -8.1259633e-06 0)
(0.27518007 -7.3437431e-06 0)
(0.27515963 -6.6253253e-06 0)
(0.27514119 -5.9656472e-06 0)
(0.27512459 -5.3604276e-06 0)
(0.27510968 -4.8053681e-06 0)
(0.27509632 -4.2968397e-06 0)
(0.27508438 -3.8312108e-06 0)
(0.27507373 -3.4054192e-06 0)
(0.27506427 -3.0164254e-06 0)
(0.27505589 -2.6616773e-06 0)
(0.27504849 -2.3386729e-06 0)
(0.275042 -2.0453082e-06 0)
(0.27503632 -1.7795419e-06 0)
(0.27503138 -1.5396293e-06 0)
(0.2750271 -1.3238864e-06 0)
(0.27502343 -1.1308162e-06 0)
(0.27502029 -9.5896808e-07 0)
(0.27501763 -8.0696467e-07 0)
(0.27501539 -6.7346533e-07 0)
(0.27501353 -5.5711659e-07 0)
(0.27501198 -4.5660966e-07 0)
(0.27501072 -3.7056048e-07 0)
(0.27500969 -2.9766144e-07 0)
(0.27500887 -2.3651572e-07 0)
(0.27500822 -1.8585545e-07 0)
(0.27500771 -1.4432427e-07 0)
(0.27500731 -1.1075141e-07 0)
(0.27500701 -8.3902282e-08 0)
(0.27500678 -6.2778525e-08 0)
(0.27500661 -4.6321621e-08 0)
(0.27500648 -3.3738904e-08 0)
(0.27500639 -2.418943e-08 0)
(0.27500633 -1.7115976e-08 0)
(0.27500628 -1.1889079e-08 0)
(0.27500625 -8.1525104e-09 0)
(0.27500623 -5.4599505e-09 0)
(0.27500622 -3.6224973e-09 0)
(0.27500621 -2.3265327e-09 0)
(0.2750062 -1.4954197e-09 0)
(0.2750062 -9.116619e-10 0)
(0.2750062 -5.8028845e-10 0)
(0.2750062 -3.3798418e-10 0)
(0.2750062 -2.3127364e-10 0)
(0.2750062 -1.3363101e-10 0)
(0.2750062 -1.2206833e-10 0)
(0.2750062 -8.3414336e-11 0)
(0.2750062 -1.0255838e-10 0)
(0.2750062 -7.7837935e-11 0)
(0.27500619 -1.0620951e-10 0)
(0.27500619 -8.3477166e-11 0)
(0.27500619 -1.0857155e-10 0)
(0.27500619 -7.7297824e-11 0)
(0.27500619 -1.033336e-10 0)
(0.27500619 -7.0134039e-11 0)
(0.27500619 -1.1052018e-10 0)
(0.27500619 -9.3843504e-11 0)
(0.27500619 -1.9472658e-10 0)
(0.27500619 -2.2867751e-10 0)
(0.27500619 -4.2111756e-10 0)
(0.27500619 -6.1496949e-10 0)
(0.27500619 -1.1187982e-09 0)
(0.27500619 -1.5864287e-09 0)
(0.27500618 -2.3649505e-09 0)
(0.27500618 -3.3018323e-09 0)
)
;

boundaryField
{
    top
    {
        type            fixedValue;
        value           uniform (0 0 0);
    }
    inlet
    {
        type            pressureNormalInletOutletVelocity;
        phi             phi;
        rho             rho;