/*--------------------------------*- C++ -*----------------------------------*\
| =========                 |                                                 |
| \\      /  F ield         | OpenFOAM: The Open Source CFD Toolbox           |
|  \\    /   O peration     | Version:  v1812                                 |
|   \\  /    A nd           | Web:      www.OpenFOAM.com                      |
|    \\/     M anipulation  |                                                 |
\*---------------------------------------------------------------------------*/
FoamFile
{
    version     2.0;
    format      ascii;
    class       surfaceScalarField;
    location    "19";
    object      phi;
}
// * * * * * * * * * * * * * * * * * * * * * * * * * * * * * * * * * * * * * //

dimensions      [0 3 -1 0 0 0 0];
oriented        oriented;


internalField   nonuniform List<scalar> 
1890
(
0.0033565595
1.3598827e-06
0.0033518585
4.7019331e-06
0.0033458906
5.9682277e-06
0.0033403431
5.5474254e-06
0.0033358341
4.5086961e-06
0.0033322575
3.5761896e-06
0.0033293171
2.9401644e-06
0.0033267919
2.5249511e-06
0.0033245722
2.2193887e-06
0.0033226105
1.9614789e-06
0.0033208749
1.7353915e-06
0.0033193317
1.5430212e-06
0.0033179467
1.3848042e-06
0.003316691
1.2555758e-06
0.0033155431
1.1477813e-06
0.0033144879
1.055008e-06
0.0033135146
9.7322114e-07
0.0033126143
9.0023466e-07
0.0033117794
8.3474526e-07
0.0033110036
7.7572378e-07
0.0033102813
7.2223721e-07
0.0033096078
6.7347595e-07
0.003308979
6.2879226e-07
0.0033083912
5.8768633e-07
0.0033078414
5.4976534e-07
0.0033073267
5.1470217e-07
0.0033068444
4.8221519e-07
0.0033063923
4.5205633e-07
0.0033059683
4.2401006e-07
0.0033055703
3.9788674e-07
0.0033051968
3.7352196e-07
0.003304846
3.5076878e-07
0.0033045165
3.2949848e-07
0.0033042069
3.0959393e-07
0.0033039159
2.9095215e-07
0.0033036424
2.7347825e-07
0.0033033853
2.570888e-07
0.0033031436
2.4170594e-07
0.0033029163
2.2726125e-07
0.0033027026
2.1368987e-07
0.0033025017
2.0093497e-07
0.0033023127
1.8894192e-07
0.003302135
1.7766304e-07
0.003301968
1.6705174e-07
0.0033018109
1.5706763e-07
0.0033016632
1.4767062e-07
0.0033015244
1.3882624e-07
0.0033013939
1.3049965e-07
0.0033012712
1.2266119e-07
0.0033011559
1.152804e-07
0.0033010476
1.0833166e-07
0.0033009458
1.017881e-07
0.0033008502
9.5627453e-08
0.0033007604
8.9825974e-08
0.003300676
8.4364279e-08
0.0033005968
7.9221229e-08
0.0033005224
7.437989e-08
0.0033004526
6.9821439e-08
0.003300387
6.5531104e-08
0.0033003255
6.1492014e-08
0.0033002678
5.7691245e-08
0.0033002137
5.4113698e-08
0.003300163
5.0748106e-08
0.0033001154
4.7580858e-08
0.0033000708
4.4602105e-08
0.003300029
4.1799604e-08
0.0032999898
3.9164795e-08
0.0032999531
3.668657e-08
0.0032999188
3.4357478e-08
0.0032998866
3.2167453e-08
0.0032998565
3.0110088e-08
0.0032998283
2.8176147e-08
0.003299802
2.6360146e-08
0.0032997773
2.4653598e-08
0.0032997543
2.3051948e-08
0.0032997327
2.1547216e-08
0.0032997126
2.0135772e-08
0.0032996938
1.8809977e-08
0.0032996762
1.7567295e-08
0.0032996598
1.640003e-08
0.0032996445
1.5306988e-08
0.0032996302
1.4279958e-08
0.0032996169
1.331968e-08
0.0032996045
1.241651e-08
0.0032995929
1.1574067e-08
0.0032995822
1.0779962e-08
0.0032995721
1.0042381e-08
0.0032995628
9.3439418e-09
0.0032995541
8.6999933e-09
0.003299546
8.0849428e-09
0.0032995385
7.5251679e-09
0.0032995315
6.982462e-09
0.003299525
6.498797e-09
0.003299519
6.0193142e-09
0.0032995134
5.6036762e-09
0.0032995082
5.1841947e-09
0.0032995034
4.8279705e-09
0.0032994989
4.4949078e-09
0.0032994946
4.2183852e-09
4.2886648e-09
0.0085028898
1.4576617e-06
0.0085011099
6.4830055e-06
0.0084977568
9.3219002e-06
0.0084937252
9.5790172e-06
0.008489715
8.5185223e-06
0.0084859472
7.3436488e-06
0.0084824096
6.4775478e-06
0.008479065
5.8693825e-06
0.0084759131
5.3710242e-06
0.0084729727
4.9017609e-06
0.0084702533
4.454613e-06
0.0084677473
4.0487957e-06
0.0084654366
3.6954e-06
0.0084633008
3.3912417e-06
0.0084613222
3.1262772e-06
0.008459486
2.8910327e-06
0.0084577798
2.6793716e-06
0.0084561921
2.4878204e-06
0.0084547128
2.3140588e-06
0.0084533324
2.156025e-06
0.0084520428
2.0117391e-06
0.0084508368
1.8794299e-06
0.0084497079
1.7576293e-06
0.0084486504
1.6451603e-06
0.0084476591
1.5410593e-06
0.0084467293
1.4445099e-06
0.0084458566
1.3547987e-06
0.0084450374
1.2713007e-06
0.0084442679
1.1934653e-06
0.0084435449
1.1208113e-06
0.0084428655
1.0529124e-06
0.0084422269
9.8939249e-07
0.0084416264
9.2991292e-07
0.0084410618
8.7417209e-07
0.0084405309
8.2189552e-07
0.0084400315
7.7283744e-07
0.0084395618
7.2677213e-07
0.00843912
6.8349679e-07
0.0084387044
6.4282335e-07
0.0084383135
6.045822e-07
0.0084379458
5.6861468e-07
0.0084376
5.3477752e-07
0.0084372747
5.0293553e-07
0.0084369688
4.7296645e-07
0.0084366811
4.4475399e-07
0.0084364106
4.181931e-07
0.0084361562
3.9318303e-07
0.0084359171
3.6963279e-07
0.0084356923
3.4745442e-07
0.008435481
3.2656879e-07
0.0084352824
3.0689877e-07
0.0084350958
2.8837507e-07
0.0084349205
2.7092968e-07
0.0084347559
2.5450186e-07
0.0084346012
2.3903145e-07
0.0084344559
2.2446495e-07
0.0084343196
2.1074894e-07
0.0084341916
1.9783629e-07
0.0084340714
1.8567956e-07
0.0084339587
1.7423704e-07
0.0084338529
1.6346643e-07
0.0084337537
1.5333094e-07
0.0084336606
1.4379286e-07
0.0084335734
1.3481957e-07
0.0084334916
1.2637735e-07
0.008433415
1.1843739e-07
0.0084333432
1.1096959e-07
0.0084332759
1.0394834e-07
0.0084332129
9.7346698e-08
0.0084331539
9.1141981e-08
0.0084330987
8.5310173e-08
0.0084330471
7.9830991e-08
0.0084329988
7.4683035e-08
0.0084329536
6.9848139e-08
0.0084329113
6.5307519e-08
0.0084328718
6.1044503e-08
0.0084328349
5.7042887e-08
0.0084328004
5.3287012e-08
0.0084327682
4.9763694e-08
0.0084327382
4.6457209e-08
0.0084327101
4.3358098e-08
0.008432684
4.0449222e-08
0.0084326596
3.7726546e-08
0.0084326368
3.5168861e-08
0.0084326156
3.2780459e-08
0.0084325959
3.0531873e-08
0.0084325775
2.8441264e-08
0.0084325603
2.6463245e-08
0.0084325444
2.4639451e-08
0.0084325296
2.2895621e-08
0.0084325158
2.1314098e-08
0.008432503
1.976882e-08
0.0084324911
1.8412953e-08
0.0084324801
1.7028373e-08
0.0084324698
1.5894229e-08
0.0084324603
1.462916e-08
0.0084324514
1.3745494e-08
0.0084324434
1.2569492e-08
0.0084324355
1.2063148e-08
1.0904282e-08
0.012207656
1.0619843e-06
0.012208741
5.3991328e-06
0.01220972
8.3426461e-06
0.012210218
9.0808204e-06
0.012210332
8.4037536e-06
0.012210205
7.4705391e-06
0.012209887
6.79568e-06
0.012209407
6.3490109e-06
0.0122088
5.9780669e-06
0.012208108
5.5939532e-06
0.012207366
5.1958989e-06
0.012206601
4.8141991e-06
0.012205827
4.4690469e-06
0.012205056
4.1625025e-06
0.012204295
3.8871032e-06
0.01220355
3.6351154e-06
0.012202828
3.4020838e-06
0.012202129
3.186091e-06
0.012201457
2.9860386e-06
0.012200813
2.8007125e-06
0.012200196
2.6286999e-06
0.012199606
2.4686263e-06
0.012199045
2.3193227e-06
0.01219851
2.1798398e-06
0.012198002
2.0493856e-06
0.012197519
1.9272633e-06
0.012197061
1.8128418e-06
0.012196626
1.705546e-06
0.012196215
1.6048564e-06
0.012195825
1.5103039e-06
0.012195457
1.4214651e-06
0.012195108
1.3379536e-06
0.012194779
1.2594171e-06
0.012194467
1.1855304e-06
0.012194173
1.1159961e-06
0.012193896
1.0505379e-06
0.012193633
9.8890244e-07
0.012193386
9.3085322e-07
0.012193153
8.7617267e-07
0.012192933
8.2465664e-07
0.012192725
7.7611699e-07
0.01219253
7.3037632e-07
0.012192345
6.8727098e-07
0.012192172
6.4664592e-07
0.012192008
6.0835813e-07
0.012191854
5.7227151e-07
0.012191709
5.3826048e-07
0.012191572
5.0620504e-07
0.012191444
4.7599462e-07
0.012191323
4.4752309e-07
0.012191209
4.2069275e-07
0.012191102
3.9540945e-07
0.012191001
3.7158672e-07
0.012190907
3.491409e-07
0.012190818
3.2799529e-07
0.012190734
3.0807536e-07
0.012190655
2.8931307e-07
0.012190582
2.7164199e-07
0.012190512
2.5500162e-07
0.012190447
2.3933267e-07
0.012190386
2.245814e-07
0.012190329
2.1069486e-07
0.012190275
1.9762526e-07
0.012190224
1.8532521e-07
0.012190177
1.7375232e-07
0.012190133
1.6286415e-07
0.012190091
1.5262304e-07
0.012190052
1.4299092e-07
0.012190015
1.3393443e-07
0.012189981
1.2541937e-07
0.012189949
1.1741625e-07
0.012189919
1.0989414e-07
0.012189891
1.0282723e-07
0.012189864
9.6187339e-08
0.01218984
8.9952156e-08
0.012189817
8.4095519e-08
0.012189795
7.8598875e-08
0.012189775
7.3437141e-08
0.012189756
6.8596088e-08
0.012189738
6.4050168e-08
0.012189722
5.9790986e-08
0.012189707
5.5790026e-08
0.012189692
5.2047588e-08
0.012189679
4.8527641e-08
0.012189667
4.5244898e-08
0.012189655
4.2147691e-08
0.012189644
3.9275781e-08
0.012189634
3.6546822e-08
0.012189625
3.4045741e-08
0.012189616
3.1631897e-08
0.012189608
2.9472663e-08
0.0121896
2.7318127e-08
0.012189593
2.5486853e-08
0.012189587
2.3526995e-08
0.01218958
2.2035072e-08
0.012189575
2.0193201e-08
0.01218957
1.9097257e-08
0.012189565
1.7284291e-08
0.01218956
1.6693601e-08
1.4878566e-08
0.014597134
5.4358954e-07
0.014599578
2.9562932e-06
0.014603179
4.7421737e-06
0.014606936
5.3234459e-06
0.014610316
5.0232033e-06
0.014613274
4.5120108e-06
0.014615917
4.1523429e-06
0.014618332
3.9339059e-06
0.014620551
3.759505e-06
0.014622578
3.5664751e-06
0.01462442
3.3532203e-06
0.014626093
3.1413291e-06
0.014627616
2.9461309e-06
0.014629008
2.7704733e-06
0.014630285
2.6103314e-06
0.014631458
2.4612324e-06
0.01463254
2.3208591e-06
0.014633537
2.1885627e-06
0.014634459
2.0641677e-06
0.014635312
1.9473209e-06
0.014636103
1.8374534e-06
0.014636838
1.7339602e-06
0.014637521
1.6363281e-06
0.014638157
1.5441551e-06
0.014638749
1.457109e-06
0.014639301
1.3748942e-06
0.014639817
1.2972303e-06
0.014640298
1.2238558e-06
0.014640749
1.154523e-06
0.01464117
1.0890077e-06
0.014641564
1.0270966e-06
0.014641934
9.6859513e-07
0.01464228
9.1331528e-07
0.014642604
8.6108487e-07
0.014642908
8.1173617e-07
0.014643194
7.6511628e-07
0.014643462
7.2107511e-07
0.014643713
6.7947658e-07
0.014643949
6.4018598e-07
0.014644171
6.0308203e-07
0.014644379
5.6804363e-07
0.014644574
5.3496248e-07
0.014644758
5.0372953e-07
0.01464493
4.7424821e-07
0.014645092
4.4642028e-07
0.014645244
4.2015949e-07
0.014645387
3.9537728e-07
0.014645521
3.7199674e-07
0.014645647
3.4993803e-07
0.014645766
3.2913251e-07
0.014645877
3.0950812e-07
0.014645981
2.9100378e-07
0.014646079
2.7355446e-07
0.014646171
2.5710574e-07
0.014646258
2.4159889e-07
0.014646339
2.2698562e-07
0.014646415
2.1321288e-07
0.014646486
2.0023777e-07
0.014646553
1.8801235e-07
0.014646616
1.7649866e-07
0.014646675
1.6565341e-07
0.01464673
1.5544293e-07
0.014646782
1.4582808e-07
0.01464683
1.3677918e-07
0.014646876
1.2826086e-07
0.014646919
1.2024686e-07
0.014646959
1.1270517e-07
0.014646996
1.056127e-07
0.014647031
9.8940546e-08
0.014647064
9.2668273e-08
0.014647094
8.6769776e-08
0.014647123
8.1227023e-08
0.01464715
7.6016609e-08
0.014647175
7.1122344e-08
0.014647198
6.6523462e-08
0.01464722
6.2205179e-08
0.014647241
5.8149629e-08
0.01464726
5.4342512e-08
0.014647278
5.0769436e-08
0.014647294
4.741538e-08
0.01464731
4.4270851e-08
0.014647324
4.1317694e-08
0.014647338
3.8554024e-08
0.01464735
3.5954501e-08
0.014647362
3.3530264e-08
0.014647373
3.1240995e-08
0.014647383
2.912098e-08
0.014647392
2.7100854e-08
0.014647401
2.5257099e-08
0.014647409
2.3465193e-08
0.014647417
2.1878616e-08
0.014647424
2.0270707e-08
0.014647431
1.8934351e-08
0.014647437
1.7459212e-08
0.014647442
1.6385798e-08
0.014647448
1.4983239e-08
0.014647452
1.4213197e-08
0.014647457
1.2805612e-08
0.014647461
1.240045e-08
1.1045601e-08
0.015766498
3.3490975e-11
0.015769455
1.0379075e-10
0.015774197
4.7261976e-11
0.01577952
-7.9702245e-12
0.015784543
-1.5852918e-11
0.015789054
3.3785591e-11
0.015793206
9.6537651e-11
0.01579714
1.3738273e-10
0.015800899
1.4930318e-10
0.015804465
1.5117503e-10
0.015807818
1.5289085e-10
0.015810959
1.5767503e-10
0.015813905
1.5946162e-10
0.015816675
1.5786639e-10
0.015819285
1.512971e-10
0.015821746
1.4231359e-10
0.015824067
1.3109768e-10
0.015826255
1.1897626e-10
0.015828319
1.0593398e-10
0.015830267
9.238078e-11
0.015832104
7.8747537e-11
0.015833838
6.5063246e-11
0.015835474
5.2151452e-11
0.015837018
3.955635e-11
0.015838475
2.8242942e-11
0.01583985
1.7326854e-11
0.015841147
8.0584981e-12
0.015842371
-1.2728855e-13
0.015843526
-8.1618384e-12
0.015844615
-1.5045152e-11
0.015845642
-2.0231947e-11
0.01584661
-2.5379144e-11
0.015847524
-2.8855173e-11
0.015848385
-3.261145e-11
0.015849196
-3.481413e-11
0.015849962
-3.7489623e-11
0.015850683
-3.8679479e-11
0.015851362
-4.0636973e-11
0.015852002
-4.1197138e-11
0.015852605
-4.2582777e-11
0.015853174
-4.2554032e-11
0.015853709
-4.3534269e-11
0.015854212
-4.3130033e-11
0.015854687
-4.3705423e-11
0.015855133
-4.2845655e-11
0.015855553
-4.3115238e-11
0.015855949
-4.1990205e-11
0.015856321
-4.1956234e-11
0.015856671
-4.0509008e-11
0.015857
-4.0312015e-11
0.015857309
-3.8782315e-11
0.0158576
-3.8468083e-11
0.015857874
-3.6819473e-11
0.015858131
-3.6537534e-11
0.015858373
-3.4998172e-11
0.0158586
-3.4762371e-11
0.015858813
-3.3237068e-11
0.015859013
-3.3125523e-11
0.015859201
-3.1763835e-11
0.015859378
-3.1706631e-11
0.015859544
-3.0329528e-11
0.015859699
-3.0327822e-11
0.015859845
-2.9021921e-11
0.015859982
-2.8959427e-11
0.01586011
-2.7517846e-11
0.01586023
-2.7385203e-11
0.015860343
-2.5902344e-11
0.015860449
-2.5610441e-11
0.015860548
-2.3921954e-11
0.01586064
-2.3512911e-11
0.015860727
-2.176932e-11
0.015860808
-2.1217302e-11
0.015860884
-1.9316877e-11
0.015860956
-1.872036e-11
0.015861022
-1.6859706e-11
0.015861084
-1.6234495e-11
0.015861142
-1.4342095e-11
0.015861197
-1.3803303e-11
0.015861248
-1.2078721e-11
0.015861295
-1.1642207e-11
0.015861339
-1.0002829e-11
0.015861381
-9.7662806e-12
0.015861419
-8.3855824e-12
0.015861455
-8.3482767e-12
0.015861489
-7.1170592e-12
0.01586152
-7.3530196e-12
0.015861549
-6.4242757e-12
0.015861576
-6.9180841e-12
0.015861601
-6.1842036e-12
0.015861625
-7.0137458e-12
0.015861647
-6.7671406e-12
0.015861667
-8.2216902e-12
0.015861686
-8.6182164e-12
0.015861704
-1.0537774e-11
0.01586172
-1.1106898e-11
0.015861735
-1.19669e-11
0.015861749
-1.2888455e-11
0.015861762
-1.316437e-11
0.015861774
-1.7439615e-11
-2.0949493e-11
0.015766496
-5.4364228e-07
0.015769454
-2.9565978e-06
0.015774197
-4.7424937e-06
0.01577952
-5.3236339e-06
0.015784542
-5.0232412e-06
0.015789054
-4.51196e-06
0.015793206
-4.1522303e-06
0.01579714
-3.9337431e-06
0.015800899
-3.7593071e-06
0.015804465
-3.5662481e-06
0.015807818
-3.3529717e-06
0.015810959
-3.1410638e-06
0.015813905
-2.9458584e-06
0.015816675
-2.7702009e-06
0.015819286
-2.6100671e-06
0.015821747
-2.4609811e-06
0.015824067
-2.3206255e-06
0.015826256
-2.1883496e-06
0.01582832
-2.0639775e-06
0.015830267
-1.9471548e-06
0.015832104
-1.8373118e-06
0.015833838
-1.7338431e-06
0.015835474
-1.6362346e-06
0.015837018
-1.5440843e-06
0.015838475
-1.457059e-06
0.01583985
-1.3748639e-06
0.015841147
-1.2972171e-06
0.015842371
-1.2238582e-06
0.015843526
-1.1545394e-06
0.015844615
-1.0890365e-06
0.015845642
-1.0271353e-06
0.01584661
-9.6864267e-07
0.015847524
-9.1336953e-07
0.015848385
-8.6114543e-07
0.015849197
-8.1180107e-07
0.015849962
-7.6518545e-07
0.015850683
-7.2114686e-07
0.015851362
-6.7955126e-07
0.015852002
-6.4026203e-07
0.015852606
-6.0315994e-07
0.015853174
-5.6812195e-07
0.015853709
-5.3504192e-07
0.015854212
-5.0380864e-07
0.015854687
-4.7432767e-07
0.015855133
-4.4649871e-07
0.015855553
-4.2023774e-07
0.015855949
-3.9545393e-07
0.015856321
-3.7207264e-07
0.015856671
-3.5001187e-07
0.015857
-3.2920533e-07
0.015857309
-3.0957864e-07
0.0158576
-2.9107305e-07
0.015857874
-2.7362134e-07
0.015858131
-2.5717147e-07
0.015858373
-2.4166233e-07
0.0158586
-2.2704797e-07
0.015858813
-2.132731e-07
0.015859013
-2.0029717e-07
0.015859201
-1.8806982e-07
0.015859378
-1.7655539e-07
0.015859544
-1.6570829e-07
0.015859699
-1.5549721e-07
0.015859845
-1.4588054e-07
0.015859982
-1.368309e-07
0.01586011
-1.2831061e-07
0.01586023
-1.2029577e-07
0.015860343
-1.1275193e-07
0.015860449
-1.0565831e-07
0.015860547
-9.8983728e-08
0.01586064
-9.2710112e-08
0.015860727
-8.6808972e-08
0.015860808
-8.1264594e-08
0.015860884
-7.6051351e-08
0.015860955
-7.1155414e-08
0.015861022
-6.6553666e-08
0.015861084
-6.2233644e-08
0.015861142
-5.8175278e-08
0.015861197
-5.4366617e-08
0.015861247
-5.0790933e-08
0.015861295
-4.7435507e-08
0.015861339
-4.428864e-08
0.01586138
-4.1334513e-08
0.015861419
-3.8568893e-08
0.015861455
-3.5968736e-08
0.015861489
-3.3542954e-08
0.01586152
-3.1253567e-08
0.015861549
-2.9132488e-08
0.015861576
-2.7112673e-08
0.015861601
-2.5268354e-08
0.015861625
-2.3477398e-08
0.015861647
-2.1891041e-08
0.015861667
-2.0285017e-08
0.015861686
-1.8950076e-08
0.015861703
-1.7477764e-08
0.01586172
-1.6405638e-08
0.015861735
-1.5004706e-08
0.015861749
-1.4235832e-08
0.015861762
-1.2828011e-08
0.015861774
-1.2429427e-08
-1.1079167e-08
0.014597135
-1.0619779e-06
0.014599578
-5.3990634e-06
0.014603179
-8.3426036e-06
0.014606936
-9.0808519e-06
0.014610316
-8.4038007e-06
0.014613274
-7.4705735e-06
0.014615917
-6.7956695e-06
0.014618332
-6.3489589e-06
0.014620551
-5.9779707e-06
0.014622578
-5.5938256e-06
0.014624421
-5.1957418e-06
0.014626093
-4.8140241e-06
0.014627616
-4.4688573e-06
0.014629008
-4.1623082e-06
0.014630285
-3.8869084e-06
0.014631459
-3.6349276e-06
0.01463254
-3.4019063e-06
0.014633537
-3.1859281e-06
0.014634459
-2.9858922e-06
0.014635313
-2.8005841e-06
0.014636104
-2.6285906e-06
0.014636838
-2.4685355e-06
0.014637521
-2.3192509e-06
0.014638157
-2.1797849e-06
0.014638749
-2.049348e-06
0.014639302
-1.9272399e-06
0.014639817
-1.812833e-06
0.014640299
-1.7055482e-06
0.014640749
-1.6048706e-06
0.01464117
-1.5103261e-06
0.014641565
-1.4214964e-06
0.014641934
-1.3379899e-06
0.01464228
-1.2594602e-06
0.014642604
-1.1855763e-06
0.014642909
-1.1160469e-06
0.014643194
-1.0505898e-06
0.014643462
-9.8895804e-07
0.014643713
-9.309087e-07
0.014643949
-8.7623097e-07
0.014644171
-8.2471393e-07
0.014644379
-7.7617657e-07
0.014644574
-7.3043428e-07
0.014644758
-6.8733065e-07
0.01464493
-6.4670341e-07
0.014645092
-6.08417e-07
0.014645244
-5.7232775e-07
0.014645387
-5.3831766e-07
0.014645521
-5.0625918e-07
0.014645647
-4.7604952e-07
0.014645765
-4.4757472e-07
0.014645877
-4.207449e-07
0.014645981
-3.9545819e-07
0.014646079
-3.7163607e-07
0.014646171
-3.4918689e-07
0.014646257
-3.280419e-07
0.014646338
-3.0811871e-07
0.014646415
-2.8935729e-07
0.014646486
-2.7168313e-07
0.014646553
-2.550437e-07
0.014646616
-2.3937178e-07
0.014646675
-2.2462164e-07
0.01464673
-2.1073221e-07
0.014646782
-1.9766366e-07
0.01464683
-1.8536066e-07
0.014646876
-1.7378881e-07
0.014646918
-1.6289759e-07
0.014646958
-1.5265726e-07
0.014646996
-1.4302187e-07
0.014647031
-1.3396605e-07
0.014647063
-1.2544756e-07
0.014647094
-1.1744483e-07
0.014647123
-1.0991911e-07
0.014647149
-1.0285254e-07
0.014647174
-9.6208984e-08
0.014647198
-8.9974014e-08
0.01464722
-8.4113701e-08
0.01464724
-7.8617416e-08
0.014647259
-7.3452157e-08
0.014647277
-6.861153e-08
0.014647294
-6.4062261e-08
0.014647309
-5.9803833e-08
0.014647324
-5.5799832e-08
0.014647337
-5.2058359e-08
0.01464735
-4.8535661e-08
0.014647361
-4.5254324e-08
0.014647372
-4.2154741e-08
0.014647383
-3.9284548e-08
0.014647392
-3.655353e-08
0.014647401
-3.4054706e-08
0.014647409
-3.1639262e-08
0.014647416
-2.948278e-08
0.014647424
-2.7326926e-08
0.01464743
-2.549919e-08
0.014647436
-2.3538395e-08
0.014647442
-2.2050155e-08
0.014647447
-2.0207551e-08
0.014647452
-1.911273e-08
0.014647456
-1.7298021e-08
0.014647461
-1.6706806e-08
-1.4892486e-08
0.012207656
-1.4576376e-06
0.012208741
-6.4828503e-06
0.01220972
-9.3216944e-06
0.012210218
-9.5789053e-06
0.012210333
-8.518569e-06
0.012210205
-7.3438059e-06
0.012209887
-6.477728e-06
0.012209407
-5.8695211e-06
0.0122088
-5.3710984e-06
0.012208108
-4.9017787e-06
0.012207367
-4.4545889e-06
0.012206601
-4.0487429e-06
0.012205827
-3.6953254e-06
0.012205056
-3.3911516e-06
0.012204295
-3.1261773e-06
0.012203551
-2.8909294e-06
0.012202828
-2.6792703e-06
0.01220213
-2.487725e-06
0.012201458
-2.3139722e-06
0.012200813
-2.1559486e-06
0.012200196
-2.011674e-06
0.012199607
-1.879376e-06
0.012199045
-1.757587e-06
0.012198511
-1.6451286e-06
0.012198002
-1.541038e-06
0.012197519
-1.4444974e-06
0.012197061
-1.3547949e-06
0.012196627
-1.2713039e-06
0.012196216
-1.1934752e-06
0.012195826
-1.1208261e-06
0.012195457
-1.0529321e-06
0.012195109
-9.8941527e-07
0.012194779
-9.2993906e-07
0.012194468
-8.7419984e-07
0.012194174
-8.2192538e-07
0.012193896
-7.7286799e-07
0.012193634
-7.2680411e-07
0.012193386
-6.8352868e-07
0.012193153
-6.4285606e-07
0.012192933
-6.046145e-07
0.012192725
-5.686476e-07
0.01219253
-5.3480964e-07
0.012192345
-5.0296792e-07
0.012192172
-4.7299791e-07
0.012192008
-4.4478563e-07
0.012191854
-4.182235e-07
0.012191709
-3.9321334e-07
0.012191572
-3.6966178e-07
0.012191444
-3.474833e-07
0.012191323
-3.2659615e-07
0.012191209
-3.0692583e-07
0.012191102
-2.8840068e-07
0.012191001
-2.7095513e-07
0.012190906
-2.5452579e-07
0.012190817
-2.3905518e-07
0.012190734
-2.2448736e-07
0.012190655
-2.1077138e-07
0.012190581
-1.9785744e-07
0.012190512
-1.8570073e-07
0.012190447
-1.7425712e-07
0.012190386
-1.6348673e-07
0.012190328
-1.5335009e-07
0.012190275
-1.4381212e-07
0.012190224
-1.3483777e-07
0.012190177
-1.2639572e-07
0.012190132
-1.1845452e-07
0.01219009
-1.1098668e-07
0.012190051
-1.0396417e-07
0.012190015
-9.7362462e-08
0.012189981
-9.1156261e-08
0.012189948
-8.532416e-08
0.012189918
-7.984349e-08
0.01218989
-7.4695278e-08
0.012189864
-6.9858754e-08
0.012189839
-6.5317745e-08
0.012189816
-6.1053212e-08
0.012189795
-5.7051373e-08
0.012189774
-5.3293974e-08
0.012189756
-4.9770432e-08
0.012189738
-4.6462658e-08
0.012189722
-4.3363603e-08
0.012189706
-4.0453528e-08
0.012189692
-3.7730996e-08
0.012189678
-3.5172411e-08
0.012189666
-3.2784492e-08
0.012189654
-3.0535134e-08
0.012189644
-2.8445148e-08
0.012189633
-2.6466671e-08
0.012189624
-2.4643889e-08
0.012189615
-2.2899732e-08
0.012189607
-2.1319323e-08
0.0121896
-1.9773715e-08
0.012189593
-1.8418911e-08
0.012189586
-1.7033684e-08
0.01218958
-1.5901092e-08
0.012189574
-1.4636857e-08
0.012189569
-1.3752037e-08
0.012189564
-1.2574874e-08
0.01218956
-1.2061087e-08
-1.0899094e-08
0.0085028904
-1.3598086e-06
0.0085011105
-4.7018065e-06
0.0084977574
-5.9681174e-06
0.0084937259
-5.5473895e-06
0.0084897157
-4.5088009e-06
0.0084859479
-3.5764102e-06
0.0084824102
-2.9404307e-06
0.0084790655
-2.5251832e-06
0.0084759136
-2.2195598e-06
0.0084729731
-1.9615899e-06
0.0084702536
-1.7354636e-06
0.0084677477
-1.5430661e-06
0.0084654369
-1.3848317e-06
0.0084633012
-1.2555878e-06
0.0084613226
-1.1477827e-06
0.0084594865
-1.0550019e-06
0.0084577803
-9.7321192e-07
0.0084561926
-9.0022483e-07
0.0084547133
-8.3473654e-07
0.0084533329
-7.7571736e-07
0.0084520434
-7.2223303e-07
0.0084508374
-6.73475e-07
0.0084497085
-6.2879361e-07
0.008448651
-5.8769103e-07
0.0084476596
-5.4977176e-07
0.0084467298
-5.1471155e-07
0.0084458572
-4.8222557e-07
0.0084450379
-4.5206915e-07
0.0084442684
-4.2402304e-07
0.0084435454
-3.9790163e-07
0.008442866
-3.7353637e-07
0.0084422273
-3.5078467e-07
0.0084416268
-3.2951322e-07
0.0084410622
-3.0960979e-07
0.0084405312
-2.9096653e-07
0.0084400318
-2.734936e-07
0.0084395621
-2.5710241e-07
0.0084391203
-2.4172045e-07
0.0084387047
-2.2727396e-07
0.0084383137
-2.1370355e-07
0.008437946
-2.0094676e-07
0.0084376002
-1.889547e-07
0.0084372748
-1.7767396e-07
0.0084369689
-1.6706372e-07
0.0084366812
-1.5707766e-07
0.0084364106
-1.476817e-07
0.0084361562
-1.3883538e-07
0.0084359171
-1.3050987e-07
0.0084356923
-1.2266939e-07
0.0084354809
-1.1528965e-07
0.0084352824
-1.0833893e-07
0.0084350957
-1.0179649e-07
0.0084349204
-9.5633839e-08
0.0084347557
-8.9833515e-08
0.008434601
-8.4369934e-08
0.0084344558
-7.9228156e-08
0.0084343194
-7.4384959e-08
0.0084341914
-6.9827841e-08
0.0084340712
-6.5535776e-08
0.0084339584
-6.1498117e-08
0.0084338526
-5.7695617e-08
0.0084337534
-5.4119507e-08
0.0084336604
-5.0752251e-08
0.0084335731
-4.758646e-08
0.0084334913
-4.4605968e-08
0.0084334147
-4.1804856e-08
0.0084333428
-3.9168313e-08
0.0084332756
-3.6691443e-08
0.0084332126
-3.4360504e-08
0.0084331536
-3.2171746e-08
0.0084330984
-3.0112536e-08
0.0084330467
-2.8179845e-08
0.0084329984
-2.6361922e-08
0.0084329532
-2.465658e-08
0.0084329109
-2.3053069e-08
0.0084328714
-2.154959e-08
0.0084328345
-2.0136275e-08
0.0084328
-1.8811758e-08
0.0084327678
-1.7567329e-08
0.0084327378
-1.6401445e-08
0.0084327097
-1.5306698e-08
0.0084326835
-1.4281108e-08
0.0084326591
-1.3319275e-08
0.0084326364
-1.2417662e-08
0.0084326152
-1.1573713e-08
0.0084325954
-1.0781223e-08
0.008432577
-1.0042282e-08
0.0084325599
-9.3455637e-09
0.008432544
-8.7003135e-09
0.0084325291
-8.0869983e-09
0.0084325153
-7.5258556e-09
0.0084325026
-6.9845724e-09
0.0084324906
-6.4988311e-09
0.0084324796
-6.0206152e-09
0.0084324693
-5.6037889e-09
0.0084324599
-5.1850709e-09
0.008432451
-4.8281264e-09
0.0084324429
-4.4959303e-09
0.0084324351
-4.2131e-09
-4.2790977e-09
0.0033565605
0.0033518591
0.0033458911
0.0033403436
0.0033358345
0.0033322579
0.0033293172
0.0033267919
0.0033245721
0.0033226104
0.0033208747
0.0033193315
0.0033179466
0.0033166909
0.003315543
0.0033144879
0.0033135146
0.0033126143
0.0033117795
0.0033110038
0.0033102815
0.003309608
0.0033089791
0.0033083914
0.0033078416
0.0033073268
0.0033068446
0.0033063925
0.0033059684
0.0033055705
0.003305197
0.0033048462
0.0033045166
0.003304207
0.003303916
0.0033036425
0.0033033854
0.0033031437
0.0033029164
0.0033027027
0.0033025017
0.0033023127
0.0033021351
0.003301968
0.0033018109
0.0033016632
0.0033015244
0.0033013939
0.0033012712
0.0033011559
0.0033010476
0.0033009458
0.0033008501
0.0033007603
0.0033006759
0.0033005967
0.0033005223
0.0033004525
0.0033003869
0.0033003255
0.0033002678
0.0033002136
0.0033001629
0.0033001153
0.0033000707
0.0033000289
0.0032999897
0.003299953
0.0032999187
0.0032998865
0.0032998564
0.0032998282
0.0032998018
0.0032997772
0.0032997541
0.0032997326
0.0032997125
0.0032996936
0.0032996761
0.0032996597
0.0032996444
0.0032996301
0.0032996168
0.0032996044
0.0032995928
0.003299582
0.003299572
0.0032995626
0.0032995539
0.0032995458
0.0032995383
0.0032995313
0.0032995248
0.0032995188
0.0032995132
0.003299508
0.0032995032
0.0032994987
0.0032994945
)
;

boundaryField
{
    top
    {
        type            calculated;
        value           uniform 0;
    }
    inlet
    {
        type            calculated;
        value           nonuniform List<scalar> 10(-0.0033579184 -0.0085029867 -0.012207259 -0.014596615 -0.015765953 -0.015765952 -0.014596615 -0.012207259 -0.0085029873 -0.0033579197);
    }
    outlet
    {
        type            calculated;
        value           nonuniform List<scalar> 10(0.0032994904 0.0084324289 0.012189556 0.014647465 0.015861785 0.015861785 0.014647464 0.012189556 0.0084324284 0.0032994902);
    }
    bottom
    {
        type            calculated;
        value           uniform 0;
    }
    back
    {
        type            empty;
        value           nonuniform 0();
    }
    front
    {
        type            empty;
        value           nonuniform 0();
    }
}


// ************************************************************************* //
