/*--------------------------------*- C++ -*----------------------------------*\
| =========                 |                                                 |
| \\      /  F ield         | OpenFOAM: The Open Source CFD Toolbox           |
|  \\    /   O peration     | Version:  v1812                                 |
|   \\  /    A nd           | Web:      www.OpenFOAM.com                      |
|    \\/     M anipulation  |                                                 |
\*---------------------------------------------------------------------------*/
FoamFile
{
    version     2.0;
    format      ascii;
    class       volVectorField;
    location    "19";
    object      U;
}
// * * * * * * * * * * * * * * * * * * * * * * * * * * * * * * * * * * * * * //

dimensions      [0 1 -1 0 0 0 0];


internalField   nonuniform List<vector> 
1000
(
(0.33575923 0.0001193691 0)
(0.33550483 0.00036559525 0)
(0.33492142 0.00041886434 0)
(0.3343089 0.00033423873 0)
(0.33379603 0.00022559401 0)
(0.3333935 0.00015095466 0)
(0.33307121 0.00011247184 0)
(0.33280021 9.3100304e-05 0)
(0.33256397 7.9948624e-05 0)
(0.33235535 6.852604e-05 0)
(0.33217085 5.8764001e-05 0)
(0.33200734 5.12235e-05 0)
(0.33186137 4.5754574e-05 0)
(0.33172972 4.1709057e-05 0)
(0.33160984 3.8453562e-05 0)
(0.33149991 3.5613203e-05 0)
(0.33139867 3.304286e-05 0)
(0.33130513 3.0706355e-05 0)
(0.3312185 2.8587923e-05 0)
(0.33113808 2.6662724e-05 0)
(0.33106327 2.4900904e-05 0)
(0.33099356 2.3277225e-05 0)
(0.33092851 2.177445e-05 0)
(0.33086774 2.038114e-05 0)
(0.33081092 1.908848e-05 0)
(0.33075775 1.7888262e-05 0)
(0.33070794 1.6772626e-05 0)
(0.33066127 1.5734158e-05 0)
(0.3306175 1.4766292e-05 0)
(0.33057644 1.3863132e-05 0)
(0.3305379 1.3019538e-05 0)
(0.33050171 1.2230782e-05 0)
(0.33046772 1.1492694e-05 0)
(0.33043579 1.0801383e-05 0)
(0.33040579 1.0153448e-05 0)
(0.33037758 9.5456813e-06 0)
(0.33035107 8.9753054e-06 0)
(0.33032615 8.4396627e-06 0)
(0.33030272 7.9364632e-06 0)
(0.33028069 7.4634713e-06 0)
(0.33025997 7.0187792e-06 0)
(0.33024049 6.6004913e-06 0)
(0.33022217 6.2070069e-06 0)
(0.33020495 5.8366966e-06 0)
(0.33018875 5.4882038e-06 0)
(0.33017353 5.1601197e-06 0)
(0.33015921 4.851288e-06 0)
(0.33014576 4.5604741e-06 0)
(0.33013311 4.286684e-06 0)
(0.33012122 4.0288331e-06 0)
(0.33011004 3.786065e-06 0)
(0.33009955 3.557415e-06 0)
(0.33008968 3.3421408e-06 0)
(0.33008042 3.1393861e-06 0)
(0.33007171 2.9485084e-06 0)
(0.33006354 2.7687387e-06 0)
(0.33005587 2.5995188e-06 0)
(0.33004866 2.4401621e-06 0)
(0.3300419 2.2901858e-06 0)
(0.33003555 2.1489691e-06 0)
(0.3300296 2.0160932e-06 0)
(0.33002401 1.8910013e-06 0)
(0.33001877 1.7733327e-06 0)
(0.33001386 1.6625805e-06 0)
(0.33000925 1.5584329e-06 0)
(0.33000494 1.4604326e-06 0)
(0.33000089 1.368313e-06 0)
(0.3299971 1.2816541e-06 0)
(0.32999355 1.2002273e-06 0)
(0.32999023 1.1236506e-06 0)
(0.32998712 1.0517319e-06 0)
(0.32998421 9.8411577e-07 0)
(0.32998148 9.2064172e-07 0)
(0.32997893 8.6098184e-07 0)
(0.32997655 8.050088e-07 0)
(0.32997432 7.5240952e-07 0)
(0.32997224 7.0308936e-07 0)
(0.32997029 6.5674795e-07 0)
(0.32996848 6.1333083e-07 0)
(0.32996678 5.7253162e-07 0)
(0.3299652 5.3434528e-07 0)
(0.32996372 4.9844608e-07 0)
(0.32996234 4.6490123e-07 0)
(0.32996106 4.3332835e-07 0)
(0.32995986 4.0390041e-07 0)
(0.32995874 3.761358e-07 0)
(0.3299577 3.5037215e-07 0)
(0.32995673 3.2595028e-07 0)
(0.32995583 3.0345296e-07 0)
(0.32995499 2.8195553e-07 0)
(0.32995421 2.6238426e-07 0)
(0.32995349 2.4346318e-07 0)
(0.32995281 2.264982e-07 0)
(0.32995219 2.0994948e-07 0)
(0.32995161 1.9520086e-07 0)
(0.32995107 1.8127852e-07 0)
(0.32995058 1.6830616e-07 0)
(0.32995009 1.593539e-07 0)
(0.32994971 1.499247e-07 0)
(0.32994914 1.6513203e-07 0)
(0.85020267 0.00012875576 0)
(0.85043491 0.00059256581 0)
(0.85009732 0.00086568011 0)
(0.84960295 0.00088216912 0)
(0.84915245 0.00076325566 0)
(0.84876691 0.00062853758 0)
(0.84841468 0.00052765699 0)
(0.84807601 0.00045915185 0)
(0.84774992 0.0004073685 0)
(0.84744242 0.00036223529 0)
(0.84715772 0.000321467 0)
(0.84689614 0.00028601323 0)
(0.84665566 0.00025645468 0)
(0.84643376 0.00023213887 0)
(0.84622833 0.00021181149 0)
(0.84603778 0.00019434113 0)
(0.84586083 0.00017899304 0)
(0.8456963 0.00016535359 0)
(0.84554313 0.00015316488 0)
(0.84540031 0.00014221956 0)
(0.84526697 0.00013233102 0)
(0.84514232 0.00012333887 0)
(0.8450257 0.00011511526 0)
(0.84491649 0.00010756192 0)
(0.84481414 0.00010060185 0)
(0.84471818 9.4171782e-05 0)
(0.84462814 8.8217651e-05 0)
(0.84454362 8.2692594e-05 0)
(0.84446425 7.7555998e-05 0)
(0.84438969 7.2772622e-05 0)
(0.84431963 6.831179e-05 0)
(0.84425379 6.4146495e-05 0)
(0.84419188 6.0252835e-05 0)
(0.84413368 5.6609444e-05 0)
(0.84407895 5.3197235e-05 0)
(0.84402747 4.999899e-05 0)
(0.84397906 4.6999231e-05 0)
(0.84393352 4.4183889e-05 0)
(0.84389068 4.1540237e-05 0)
(0.84385039 3.9056606e-05 0)
(0.84381249 3.6722384e-05 0)
(0.84377684 3.4527775e-05 0)
(0.84374331 3.2463841e-05 0)
(0.84371178 3.0522263e-05 0)
(0.84368212 2.8695427e-05 0)
(0.84365423 2.6976211e-05 0)
(0.84362801 2.5358081e-05 0)
(0.84360335 2.3834879e-05 0)
(0.84358017 2.2400947e-05 0)
(0.84355838 2.1050933e-05 0)
(0.84353791 1.9779914e-05 0)
(0.84351867 1.8583205e-05 0)
(0.84350059 1.7456492e-05 0)
(0.8434836 1.639566e-05 0)
(0.84346765 1.5396925e-05 0)
(0.84345266 1.445665e-05 0)
(0.84343859 1.35715e-05 0)
(0.84342538 1.2738259e-05 0)
(0.84341299 1.1953987e-05 0)
(0.84340135 1.1215828e-05 0)
(0.84339043 1.0521179e-05 0)
(0.84338019 9.867506e-06 0)
(0.84337059 9.2525091e-06 0)
(0.84336158 8.6739304e-06 0)
(0.84335314 8.129728e-06 0)
(0.84334522 7.6178925e-06 0)
(0.84333781 7.1366196e-06 0)
(0.84333086 6.6841101e-06 0)
(0.84332435 6.2587624e-06 0)
(0.84331826 5.8589673e-06 0)
(0.84331256 5.4833148e-06 0)
(0.84330722 5.1303519e-06 0)
(0.84330222 4.798836e-06 0)
(0.84329755 4.4874511e-06 0)
(0.84329318 4.1951236e-06 0)
(0.8432891 3.9206371e-06 0)
(0.84328528 3.6630811e-06 0)
(0.84328172 3.4213069e-06 0)
(0.84327839 3.1945954e-06 0)
(0.84327528 2.9818027e-06 0)
(0.84327237 2.7824378e-06 0)
(0.84326967 2.5952816e-06 0)
(0.84326714 2.4201697e-06 0)
(0.84326478 2.2556595e-06 0)
(0.84326259 2.102066e-06 0)
(0.84326054 1.9574992e-06 0)
(0.84325864 1.8230413e-06 0)
(0.84325686 1.6959708e-06 0)
(0.84325521 1.5785919e-06 0)
(0.84325368 1.4667589e-06 0)
(0.84325225 1.3647452e-06 0)
(0.84325092 1.2660555e-06 0)
(0.84324969 1.1780501e-06 0)
(0.84324854 1.0905416e-06 0)
(0.84324749 1.0156463e-06 0)
(0.84324647 9.3772408e-07 0)
(0.84324562 8.7621527e-07 0)
(0.84324465 8.0838854e-07 0)
(0.84324409 7.6529264e-07 0)
(0.84324295 7.222295e-07 0)
(1.2205326 0.00010248927 0)
(1.2211902 0.00054565878 0)
(1.2212088 0.00088224898 0)
(1.2210604 0.00099334309 0)
(1.2209833 0.00094636558 0)
(1.2209837 0.00084932877 0)
(1.2209953 0.00076451299 0)
(1.2209767 0.000703046 0)
(1.2209248 0.00065389817 0)
(1.2208538 0.00060707934 0)
(1.2207766 0.00056018293 0)
(1.2206989 0.00051519534 0)
(1.2206218 0.00047425231 0)
(1.2205448 0.00043795067 0)
(1.2204683 0.00040572421 0)
(1.2203927 0.00037672626 0)
(1.2203191 0.00035033056 0)
(1.2202478 0.00032618333 0)
(1.2201791 0.00030406972 0)
(1.2201132 0.00028380287 0)
(1.2200501 0.00026519034 0)
(1.2199898 0.00024804596 0)
(1.2199322 0.00023220639 0)
(1.2198773 0.00021753592 0)
(1.2198252 0.00020392167 0)
(1.2197756 0.00019126696 0)
(1.2197286 0.00017948655 0)
(1.219684 0.00016850463 0)
(1.2196417 0.00015825371 0)
(1.2196017 0.00014867398 0)
(1.2195638 0.00013971221 0)
(1.2195279 0.00013132092 0)
(1.219494 0.00012345738 0)
(1.219462 0.00011608306 0)
(1.2194317 0.00010916302 0)
(1.2194032 0.00010266557 0)
(1.2193762 9.6561771e-05 0)
(1.2193507 9.0825248e-05 0)
(1.2193267 8.5431769e-05 0)
(1.219304 8.0359137e-05 0)
(1.2192827 7.5586831e-05 0)
(1.2192625 7.1095982e-05 0)
(1.2192435 6.686906e-05 0)
(1.2192256 6.2889882e-05 0)
(1.2192088 5.9143347e-05 0)
(1.2191929 5.5615479e-05 0)
(1.219178 5.2293183e-05 0)
(1.2191639 4.9164307e-05 0)
(1.2191506 4.6217423e-05 0)
(1.2191382 4.3441912e-05 0)
(1.2191264 4.0827756e-05 0)
(1.2191154 3.8365633e-05 0)
(1.219105 3.6046719e-05 0)
(1.2190953 3.3862804e-05 0)
(1.2190861 3.1806096e-05 0)
(1.2190775 2.9869341e-05 0)
(1.2190694 2.8045636e-05 0)
(1.2190618 2.6328561e-05 0)
(1.2190546 2.4711994e-05 0)
(1.2190479 2.3190241e-05 0)
(1.2190416 2.1757859e-05 0)
(1.2190357 2.0409793e-05 0)
(1.2190301 1.9141208e-05 0)
(1.2190249 1.7947606e-05 0)
(1.21902 1.6824681e-05 0)
(1.2190154 1.5768433e-05 0)
(1.2190111 1.4775031e-05 0)
(1.2190071 1.3840909e-05 0)
(1.2190033 1.2962655e-05 0)
(1.2189998 1.2137085e-05 0)
(1.2189965 1.1361174e-05 0)
(1.2189933 1.0632062e-05 0)
(1.2189904 9.9470755e-06 0)
(1.2189877 9.3036299e-06 0)
(1.2189852 8.6993941e-06 0)
(1.2189828 8.1319905e-06 0)
(1.2189806 7.5994344e-06 0)
(1.2189785 7.0994752e-06 0)
(1.2189765 6.6305274e-06 0)
(1.2189747 6.1903352e-06 0)
(1.218973 5.7778183e-06 0)
(1.2189714 5.3905138e-06 0)
(1.2189699 5.0280795e-06 0)
(1.2189686 4.687482e-06 0)
(1.2189673 4.3695488e-06 0)
(1.2189661 4.0700448e-06 0)
(1.2189649 3.7917929e-06 0)
(1.2189639 3.5281985e-06 0)
(1.2189629 3.2856027e-06 0)
(1.218962 3.0529441e-06 0)
(1.2189612 2.8429327e-06 0)
(1.2189604 2.6361356e-06 0)
(1.2189597 2.4569298e-06 0)
(1.218959 2.2702813e-06 0)
(1.2189584 2.1221912e-06 0)
(1.2189577 1.9488905e-06 0)
(1.2189572 1.8361873e-06 0)
(1.2189567 1.6687735e-06 0)
(1.2189564 1.602924e-06 0)
(1.2189557 1.438311e-06 0)
(1.4593819 6.4370886e-05 0)
(1.4603124 0.00036935818 0)
(1.46055 0.00062695911 0)
(1.4606166 0.00073670102 0)
(1.4607964 0.00072723033 0)
(1.4610987 0.00067148923 0)
(1.4614303 0.0006185501 0)
(1.4617243 0.00058085415 0)
(1.4619668 0.00055162937 0)
(1.4621724 0.00052296843 0)
(1.4623571 0.00049245747 0)
(1.4625287 0.00046155161 0)
(1.4626882 0.00043224308 0)
(1.4628348 0.00040541263 0)
(1.4629686 0.00038092271 0)
(1.4630908 0.00035829229 0)
(1.4632029 0.00033714844 0)
(1.4633064 0.00031731293 0)
(1.463402 0.00029871148 0)
(1.4634906 0.00028128291 0)
(1.4635727 0.00026494785 0)
(1.4636488 0.00024961745 0)
(1.4637195 0.00023520898 0)
(1.4637853 0.00022165274 0)
(1.4638466 0.00020889031 0)
(1.4639037 0.00019687065 0)
(1.463957 0.00018554688 0)
(1.4640068 0.00017487555 0)
(1.4640533 0.00016481615 0)
(1.4640968 0.00015533144 0)
(1.4641375 0.0001463869 0)
(1.4641757 0.0001379507 0)
(1.4642114 0.00012999301 0)
(1.4642449 0.00012248614 0)
(1.4642762 0.00011540401 0)
(1.4643057 0.00010872234 0)
(1.4643333 0.00010241821 0)
(1.4643592 9.6470273e-05 0)
(1.4643836 9.0858292e-05 0)
(1.4644064 8.5563449e-05 0)
(1.4644279 8.0567813e-05 0)
(1.464448 7.5854736e-05 0)
(1.4644669 7.1408302e-05 0)
(1.4644847 6.7213751e-05 0)
(1.4645014 6.3256926e-05 0)
(1.4645171 5.9524719e-05 0)
(1.4645318 5.6004517e-05 0)
(1.4645457 5.2684665e-05 0)
(1.4645587 4.9553906e-05 0)
(1.4645709 4.6601868e-05 0)
(1.4645823 4.3818494e-05 0)
(1.4645931 4.1194544e-05 0)
(1.4646032 3.8721028e-05 0)
(1.4646127 3.6389708e-05 0)
(1.4646216 3.4192542e-05 0)
(1.46463 3.2122187e-05 0)
(1.4646378 3.0171443e-05 0)
(1.4646452 2.8333766e-05 0)
(1.4646521 2.6602706e-05 0)
(1.4646586 2.4972431e-05 0)
(1.4646647 2.3437167e-05 0)
(1.4646704 2.1991714e-05 0)
(1.4646757 2.06309e-05 0)
(1.4646807 1.9350092e-05 0)
(1.4646854 1.8144658e-05 0)
(1.4646898 1.7010469e-05 0)
(1.4646939 1.5943377e-05 0)
(1.4646978 1.49397e-05 0)
(1.4647014 1.3995729e-05 0)
(1.4647048 1.3108175e-05 0)
(1.464708 1.2273732e-05 0)
(1.4647109 1.1489444e-05 0)
(1.4647137 1.0752384e-05 0)
(1.4647163 1.0059876e-05 0)
(1.4647187 9.4093621e-06 0)
(1.464721 8.7983667e-06 0)
(1.4647231 8.2247306e-06 0)
(1.4647251 7.6860711e-06 0)
(1.4647269 7.1807017e-06 0)
(1.4647286 6.7061613e-06 0)
(1.4647302 6.2614112e-06 0)
(1.4647317 5.8436149e-06 0)
(1.4647331 5.4527304e-06 0)
(1.4647344 5.0850125e-06 0)
(1.4647356 4.742097e-06 0)
(1.4647368 4.4183533e-06 0)
(1.4647378 4.1183818e-06 0)
(1.4647388 3.8328691e-06 0)
(1.4647397 3.5717835e-06 0)
(1.4647406 3.3188379e-06 0)
(1.4647413 3.0937716e-06 0)
(1.4647421 2.8673848e-06 0)
(1.4647427 2.6770683e-06 0)
(1.4647434 2.4703095e-06 0)
(1.4647439 2.3158827e-06 0)
(1.4647446 2.1205801e-06 0)
(1.4647449 2.0069458e-06 0)
(1.4647456 1.8137776e-06 0)
(1.4647458 1.7502381e-06 0)
(1.4647465 1.5497243e-06 0)
(1.5762668 2.1826941e-05 0)
(1.5773315 0.00012927411 0)
(1.57767 0.0002239929 0)
(1.5778314 0.00026795657 0)
(1.5781277 0.00026809432 0)
(1.5785749 0.00024985755 0)
(1.5790681 0.00023172705 0)
(1.5795261 0.00021903483 0)
(1.5799281 0.00020954967 0)
(1.5802878 0.00020024271 0)
(1.5806231 0.00019006705 0)
(1.5809423 0.0001795107 0)
(1.5812463 0.00016934616 0)
(1.5815334 0.00015995201 0)
(1.5818032 0.00015130886 0)
(1.5820565 0.00014324962 0)
(1.582295 0.00013564046 0)
(1.5825199 0.00012842176 0)
(1.5827322 0.00012157574 0)
(1.5829325 0.00011509068 0)
(1.5831216 0.00010894752 0)
(1.5833 0.00010312247 0)
(1.5834683 9.7593075e-05 0)
(1.5836272 9.2340997e-05 0)
(1.5837771 8.7351567e-05 0)
(1.5839185 8.2612198e-05 0)
(1.584052 7.8111279e-05 0)
(1.5841779 7.3837723e-05 0)
(1.5842967 6.9780995e-05 0)
(1.5844088 6.5931098e-05 0)
(1.5845145 6.2278554e-05 0)
(1.5846142 5.8814352e-05 0)
(1.5847082 5.5529844e-05 0)
(1.5847968 5.241672e-05 0)
(1.5848804 4.9466967e-05 0)
(1.5849591 4.6672884e-05 0)
(1.5850334 4.4027047e-05 0)
(1.5851034 4.1522329e-05 0)
(1.5851693 3.9151869e-05 0)
(1.5852314 3.6909096e-05 0)
(1.5852899 3.4787685e-05 0)
(1.585345 3.2781591e-05 0)
(1.5853969 3.0885002e-05 0)
(1.5854457 2.9092382e-05 0)
(1.5854917 2.7398414e-05 0)
(1.585535 2.5798034e-05 0)
(1.5855758 2.4286391e-05 0)
(1.5856141 2.2858877e-05 0)
(1.5856502 2.1511077e-05 0)
(1.5856841 2.0238802e-05 0)
(1.585716 1.9038043e-05 0)
(1.585746 1.7905009e-05 0)
(1.5857742 1.683607e-05 0)
(1.5858007 1.5827796e-05 0)
(1.5858256 1.4876904e-05 0)
(1.585849 1.3980303e-05 0)
(1.585871 1.3135033e-05 0)
(1.5858917 1.2338308e-05 0)
(1.5859111 1.158746e-05 0)
(1.5859293 1.0879988e-05 0)
(1.5859464 1.0213493e-05 0)
(1.5859624 9.5857245e-06 0)
(1.5859775 8.9945282e-06 0)
(1.5859916 8.4378871e-06 0)
(1.5860048 7.9138704e-06 0)
(1.5860172 7.4206639e-06 0)
(1.5860289 6.9565364e-06 0)
(1.5860398 6.5198635e-06 0)
(1.58605 6.1090997e-06 0)
(1.5860596 5.7227786e-06 0)
(1.5860685 5.3595241e-06 0)
(1.5860769 5.0180143e-06 0)
(1.5860848 4.6970374e-06 0)
(1.5860921 4.3953799e-06 0)
(1.586099 4.1119926e-06 0)
(1.5861054 3.8457446e-06 0)
(1.5861114 3.5957687e-06 0)
(1.5861171 3.3609541e-06 0)
(1.5861223 3.1406569e-06 0)
(1.5861272 2.9337075e-06 0)
(1.5861318 2.7397836e-06 0)
(1.5861361 2.557492e-06 0)
(1.5861401 2.387018e-06 0)
(1.5861438 2.226473e-06 0)
(1.5861473 2.0769156e-06 0)
(1.5861505 1.9354383e-06 0)
(1.5861535 1.8046483e-06 0)
(1.5861563 1.6796933e-06 0)
(1.5861589 1.5659722e-06 0)
(1.5861614 1.4550031e-06 0)
(1.5861636 1.3571827e-06 0)
(1.5861658 1.2574698e-06 0)
(1.5861676 1.1750781e-06 0)
(1.5861696 1.0835086e-06 0)
(1.5861711 1.0171369e-06 0)
(1.5861729 9.3019876e-07 0)
(1.586174 8.8192053e-07 0)
(1.5861759 7.9549153e-07 0)
(1.5861765 7.6851196e-07 0)
(1.5861785 6.7759355e-07 0)
(1.5762667 -2.1825804e-05 0)
(1.5773314 -0.00012927045 0)
(1.57767 -0.00022399293 0)
(1.5778313 -0.0002679606 0)
(1.5781277 -0.00026809677 0)
(1.5785748 -0.00024985106 0)
(1.579068 -0.00023171011 0)
(1.5795261 -0.00021900995 0)
(1.579928 -0.00020952095 0)
(1.5802878 -0.00020021224 0)
(1.5806231 -0.00019003575 0)
(1.5809423 -0.00017947861 0)
(1.5812463 -0.00016931385 0)
(1.5815334 -0.00015992007 0)
(1.5818032 -0.00015127813 0)
(1.5820566 -0.00014322064 0)
(1.582295 -0.00013561368 0)
(1.5825199 -0.00012839742 0)
(1.5827322 -0.00012155402 0)
(1.5829326 -0.00011507169 0)
(1.5831216 -0.00010893127 0)
(1.5833 -0.00010310897 0)
(1.5834683 -9.7582195e-05 0)
(1.5836272 -9.2332661e-05 0)
(1.5837771 -8.7345541e-05 0)
(1.5839185 -8.2608388e-05 0)
(1.584052 -7.8109392e-05 0)
(1.5841779 -7.383766e-05 0)
(1.5842967 -6.9782418e-05 0)
(1.5844088 -6.5933899e-05 0)
(1.5845145 -6.228243e-05 0)
(1.5846142 -5.8819248e-05 0)
(1.5847082 -5.5535481e-05 0)
(1.5847968 -5.2423095e-05 0)
(1.5848804 -4.9473827e-05 0)
(1.5849592 -4.6680262e-05 0)
(1.5850334 -4.4034714e-05 0)
(1.5851034 -4.153036e-05 0)
(1.5851693 -3.9160057e-05 0)
(1.5852314 -3.6917532e-05 0)
(1.5852899 -3.4796169e-05 0)
(1.585345 -3.2790235e-05 0)
(1.5853969 -3.0893613e-05 0)
(1.5854457 -2.9101075e-05 0)
(1.5854917 -2.7406991e-05 0)
(1.585535 -2.5806626e-05 0)
(1.5855758 -2.4294807e-05 0)
(1.5856141 -2.2867248e-05 0)
(1.5856502 -2.1519215e-05 0)
(1.5856841 -2.0246856e-05 0)
(1.585716 -1.9045837e-05 0)
(1.585746 -1.7912698e-05 0)
(1.5857742 -1.6843482e-05 0)
(1.5858007 -1.5835103e-05 0)
(1.5858256 -1.4883945e-05 0)
(1.585849 -1.3987251e-05 0)
(1.585871 -1.3141727e-05 0)
(1.5858917 -1.2344929e-05 0)
(1.5859111 -1.1593851e-05 0)
(1.5859293 -1.088632e-05 0)
(1.5859464 -1.0219601e-05 0)
(1.5859624 -9.5917832e-06 0)
(1.5859774 -9.0003695e-06 0)
(1.5859916 -8.4436716e-06 0)
(1.5860048 -7.9194199e-06 0)
(1.5860172 -7.42614e-06 0)
(1.5860289 -6.9617611e-06 0)
(1.5860398 -6.5249877e-06 0)
(1.58605 -6.1139393e-06 0)
(1.5860595 -5.7274914e-06 0)
(1.5860685 -5.3639318e-06 0)
(1.5860769 -5.0222703e-06 0)
(1.5860848 -4.7009634e-06 0)
(1.5860921 -4.3991416e-06 0)
(1.586099 -4.1154222e-06 0)
(1.5861054 -3.849007e-06 0)
(1.5861114 -3.5986987e-06 0)
(1.586117 -3.3637303e-06 0)
(1.5861223 -3.1431247e-06 0)
(1.5861272 -2.9360446e-06 0)
(1.5861318 -2.7418358e-06 0)
(1.5861361 -2.5594496e-06 0)
(1.58614 -2.3887342e-06 0)
(1.5861438 -2.228136e-06 0)
(1.5861472 -2.0783753e-06 0)
(1.5861505 -1.9368951e-06 0)
(1.5861535 -1.8059554e-06 0)
(1.5861563 -1.6810504e-06 0)
(1.5861589 -1.5672273e-06 0)
(1.5861614 -1.4563706e-06 0)
(1.5861636 -1.3585271e-06 0)
(1.5861658 -1.2590324e-06 0)
(1.5861676 -1.1767548e-06 0)
(1.5861696 -1.0855034e-06 0)
(1.5861711 -1.019319e-06 0)
(1.5861729 -9.3251497e-07 0)
(1.586174 -8.8441577e-07 0)
(1.5861758 -7.9791936e-07 0)
(1.5861765 -7.7157718e-07 0)
(1.5861785 -6.8159212e-07 0)
(1.4593819 -6.4371247e-05 0)
(1.4603124 -0.00036936701 0)
(1.4605499 -0.00062697626 0)
(1.4606165 -0.00073672122 0)
(1.4607964 -0.00072724637 0)
(1.4610987 -0.00067149696 0)
(1.4614303 -0.00061854867 0)
(1.4617243 -0.00058084562 0)
(1.4619668 -0.00055161576 0)
(1.4621724 -0.00052295133 0)
(1.4623571 -0.00049243755 0)
(1.4625288 -0.00046152961 0)
(1.4626882 -0.00043221968 0)
(1.4628348 -0.00040538874 0)
(1.4629686 -0.00038089907 0)
(1.4630908 -0.00035826958 0)
(1.463203 -0.00033712712 0)
(1.4633064 -0.00031729335 0)
(1.4634021 -0.00029869389 0)
(1.4634906 -0.00028126745 0)
(1.4635727 -0.00026493463 0)
(1.4636488 -0.00024960643 0)
(1.4637196 -0.00023520016 0)
(1.4637853 -0.00022164597 0)
(1.4638466 -0.00020888553 0)
(1.4639037 -0.00019686762 0)
(1.463957 -0.00018554552 0)
(1.4640068 -0.00017487559 0)
(1.4640533 -0.00016481751 0)
(1.4640968 -0.00015533388 0)
(1.4641376 -0.00014639034 0)
(1.4641757 -0.00013795489 0)
(1.4642114 -0.00012999791 0)
(1.4642449 -0.00012249155 0)
(1.4642763 -0.0001154099 0)
(1.4643057 -0.00010872854 0)
(1.4643333 -0.00010242474 0)
(1.4643593 -9.6476971e-05 0)
(1.4643836 -9.0865212e-05 0)
(1.4644064 -8.5570431e-05 0)
(1.4644279 -8.0574934e-05 0)
(1.464448 -7.5861848e-05 0)
(1.464467 -7.1415486e-05 0)
(1.4644847 -6.7220855e-05 0)
(1.4645014 -6.3264042e-05 0)
(1.4645171 -5.9531705e-05 0)
(1.4645318 -5.6011465e-05 0)
(1.4645457 -5.269143e-05 0)
(1.4645587 -4.9560595e-05 0)
(1.4645709 -4.6608347e-05 0)
(1.4645823 -4.3824875e-05 0)
(1.4645931 -4.1200695e-05 0)
(1.4646032 -3.8727073e-05 0)
(1.4646127 -3.6395531e-05 0)
(1.4646216 -3.4198269e-05 0)
(1.46463 -3.2127699e-05 0)
(1.4646378 -3.0176875e-05 0)
(1.4646452 -2.8339005e-05 0)
(1.4646521 -2.6607884e-05 0)
(1.4646586 -2.4977427e-05 0)
(1.4646646 -2.3442112e-05 0)
(1.4646703 -2.1996488e-05 0)
(1.4646757 -2.0635625e-05 0)
(1.4646807 -1.9354637e-05 0)
(1.4646854 -1.8149142e-05 0)
(1.4646898 -1.7014762e-05 0)
(1.4646939 -1.5947591e-05 0)
(1.4646978 -1.4943697e-05 0)
(1.4647014 -1.3999624e-05 0)
(1.4647048 -1.3111835e-05 0)
(1.4647079 -1.2277266e-05 0)
(1.4647109 -1.1492718e-05 0)
(1.4647137 -1.0755517e-05 0)
(1.4647162 -1.0062743e-05 0)
(1.4647187 -9.412083e-06 0)
(1.4647209 -8.8008172e-06 0)
(1.464723 -8.2270398e-06 0)
(1.464725 -7.6881266e-06 0)
(1.4647269 -7.1826335e-06 0)
(1.4647286 -6.7078569e-06 0)
(1.4647302 -6.2630093e-06 0)
(1.4647317 -5.8450124e-06 0)
(1.4647331 -5.4540652e-06 0)
(1.4647344 -5.0861785e-06 0)
(1.4647356 -4.7432397e-06 0)
(1.4647367 -4.4193728e-06 0)
(1.4647378 -4.1194231e-06 0)
(1.4647388 -3.8338259e-06 0)
(1.4647396 -3.572811e-06 0)
(1.4647405 -3.3198351e-06 0)
(1.4647413 -3.0949077e-06 0)
(1.464742 -2.8685604e-06 0)
(1.4647427 -2.6784722e-06 0)
(1.4647434 -2.4718407e-06 0)
(1.4647439 -2.3176473e-06 0)
(1.4647445 -2.1224274e-06 0)
(1.4647449 -2.0089189e-06 0)
(1.4647455 -1.8156551e-06 0)
(1.4647457 -1.7524165e-06 0)
(1.4647464 -1.5522274e-06 0)
(1.2205326 -0.00010248923 0)
(1.2211902 -0.00054565177 0)
(1.2212088 -0.00088223771 0)
(1.2210604 -0.00099333525 0)
(1.2209833 -0.00094636331 0)
(1.2209837 -0.00084933139 0)
(1.2209954 -0.00076451677 0)
(1.2209767 -0.00070304815 0)
(1.2209248 -0.00065389655 0)
(1.2208538 -0.00060707391 0)
(1.2207766 -0.00056017406 0)
(1.220699 -0.00051518406 0)
(1.2206218 -0.00047423925 0)
(1.2205449 -0.00043793659 0)
(1.2204683 -0.00040570963 0)
(1.2203928 -0.00037671178 0)
(1.2203191 -0.00035031663 0)
(1.2202478 -0.00032617035 0)
(1.2201792 -0.00030405796 0)
(1.2201133 -0.0002837925 0)
(1.2200502 -0.00026518148 0)
(1.2199898 -0.00024803859 0)
(1.2199323 -0.00023220056 0)
(1.2198774 -0.00021753148 0)
(1.2198252 -0.00020391863 0)
(1.2197757 -0.00019126511 0)
(1.2197286 -0.00017948587 0)
(1.219684 -0.00016850486 0)
(1.2196418 -0.00015825488 0)
(1.2196017 -0.00014867582 0)
(1.2195638 -0.00013971476 0)
(1.219528 -0.00013132391 0)
(1.2194941 -0.00012346086 0)
(1.219462 -0.00011608679 0)
(1.2194318 -0.00010916709 0)
(1.2194032 -0.00010266974 0)
(1.2193762 -9.6566179e-05 0)
(1.2193508 -9.0829667e-05 0)
(1.2193267 -8.5436348e-05 0)
(1.2193041 -8.0363658e-05 0)
(1.2192827 -7.559147e-05 0)
(1.2192625 -7.110052e-05 0)
(1.2192436 -6.6873671e-05 0)
(1.2192257 -6.2894349e-05 0)
(1.2192088 -5.9147863e-05 0)
(1.2191929 -5.5619823e-05 0)
(1.219178 -5.2297541e-05 0)
(1.2191639 -4.9168462e-05 0)
(1.2191506 -4.622158e-05 0)
(1.2191382 -4.3445853e-05 0)
(1.2191264 -4.0831683e-05 0)
(1.2191154 -3.8369333e-05 0)
(1.219105 -3.6050413e-05 0)
(1.2190953 -3.386628e-05 0)
(1.2190861 -3.1809568e-05 0)
(1.2190775 -2.9872604e-05 0)
(1.2190694 -2.8048917e-05 0)
(1.2190617 -2.6331651e-05 0)
(1.2190546 -2.471511e-05 0)
(1.2190479 -2.3193174e-05 0)
(1.2190416 -2.1760834e-05 0)
(1.2190356 -2.0412595e-05 0)
(1.2190301 -1.9144044e-05 0)
(1.2190249 -1.7950262e-05 0)
(1.21902 -1.6827371e-05 0)
(1.2190154 -1.5770936e-05 0)
(1.2190111 -1.4777548e-05 0)
(1.219007 -1.3843218e-05 0)
(1.2190033 -1.2964968e-05 0)
(1.2189997 -1.2139179e-05 0)
(1.2189964 -1.1363249e-05 0)
(1.2189933 -1.0633901e-05 0)
(1.2189904 -9.9488926e-06 0)
(1.2189877 -9.3052086e-06 0)
(1.2189851 -8.700941e-06 0)
(1.2189827 -8.1332969e-06 0)
(1.2189805 -7.6007222e-06 0)
(1.2189784 -7.1005371e-06 0)
(1.2189765 -6.6315778e-06 0)
(1.2189747 -6.1911737e-06 0)
(1.218973 -5.7786735e-06 0)
(1.2189714 -5.3911847e-06 0)
(1.2189699 -5.0287861e-06 0)
(1.2189685 -4.688027e-06 0)
(1.2189672 -4.3701666e-06 0)
(1.218966 -4.0705334e-06 0)
(1.2189649 -3.7923811e-06 0)
(1.2189638 -3.5286825e-06 0)
(1.2189629 -3.2862305e-06 0)
(1.218962 -3.053504e-06 0)
(1.2189611 -2.8436767e-06 0)
(1.2189603 -2.6368315e-06 0)
(1.2189596 -2.4578392e-06 0)
(1.2189589 -2.2711649e-06 0)
(1.2189583 -2.1232541e-06 0)
(1.2189577 -1.9500225e-06 0)
(1.2189572 -1.8373139e-06 0)
(1.2189566 -1.6698501e-06 0)
(1.2189563 -1.6037828e-06 0)
(1.2189556 -1.4387342e-06 0)
(0.85020273 -0.00012875201 0)
(0.85043497 -0.00059255057 0)
(0.85009738 -0.00086566031 0)
(0.84960301 -0.00088215553 0)
(0.84915252 -0.00076325668 0)
(0.84876698 -0.00062855331 0)
(0.84841475 -0.00052768116 0)
(0.84807607 -0.00045917611 0)
(0.84774997 -0.00040738775 0)
(0.84744246 -0.00036224814 0)
(0.84715776 -0.00032147464 0)
(0.84689618 -0.00028601706 0)
(0.8466557 -0.00025645586 0)
(0.8464338 -0.00023213801 0)
(0.84622837 -0.00021180918 0)
(0.84603782 -0.00019433791 0)
(0.84586087 -0.00017898944 0)
(0.84569635 -0.00016535003 0)
(0.84554317 -0.00015316163 0)
(0.84540036 -0.00014221681 0)
(0.84526702 -0.00013232882 0)
(0.84514238 -0.0001233373 0)
(0.84502575 -0.00011511427 0)
(0.84491654 -0.00010756155 0)
(0.8448142 -0.00010060199 0)
(0.84471823 -9.4172432e-05 0)
(0.84462819 -8.8218674e-05 0)
(0.84454367 -8.2694013e-05 0)
(0.8444643 -7.7557666e-05 0)
(0.84438974 -7.2774567e-05 0)
(0.84431968 -6.831386e-05 0)
(0.84425383 -6.4148739e-05 0)
(0.84419192 -6.0255105e-05 0)
(0.84413372 -5.6611807e-05 0)
(0.84407898 -5.3199553e-05 0)
(0.8440275 -5.0001357e-05 0)
(0.84397909 -4.7001519e-05 0)
(0.84393355 -4.4186196e-05 0)
(0.84389071 -4.1542439e-05 0)
(0.84385041 -3.9058822e-05 0)
(0.84381251 -3.672449e-05 0)
(0.84377686 -3.4529887e-05 0)
(0.84374333 -3.246583e-05 0)
(0.84371179 -3.0524259e-05 0)
(0.84368213 -2.8697302e-05 0)
(0.84365424 -2.6978085e-05 0)
(0.84362801 -2.535982e-05 0)
(0.84360335 -2.3836617e-05 0)
(0.84358017 -2.2402553e-05 0)
(0.84355838 -2.1052532e-05 0)
(0.8435379 -1.9781375e-05 0)
(0.84351866 -1.8584665e-05 0)
(0.84350058 -1.7457825e-05 0)
(0.84348359 -1.6396996e-05 0)
(0.84346763 -1.5398137e-05 0)
(0.84345265 -1.4457881e-05 0)
(0.84343858 -1.3572624e-05 0)
(0.84342537 -1.2739409e-05 0)
(0.84341297 -1.1955034e-05 0)
(0.84340133 -1.1216915e-05 0)
(0.84339041 -1.0522176e-05 0)
(0.84338017 -9.8685427e-06 0)
(0.84337056 -9.2534517e-06 0)
(0.84336155 -8.6749148e-06 0)
(0.84335311 -8.1306208e-06 0)
(0.84334519 -7.6188164e-06 0)
(0.84333778 -7.1374377e-06 0)
(0.84333083 -6.6849544e-06 0)
(0.84332432 -6.2594979e-06 0)
(0.84331823 -5.8597155e-06 0)
(0.84331252 -5.4839399e-06 0)
(0.84330718 -5.1309871e-06 0)
(0.84330219 -4.79935e-06 0)
(0.84329751 -4.4879684e-06 0)
(0.84329314 -4.1955142e-06 0)
(0.84328906 -3.9210382e-06 0)
(0.84328524 -3.6633676e-06 0)
(0.84328168 -3.4216076e-06 0)
(0.84327835 -3.194786e-06 0)
(0.84327524 -2.9820235e-06 0)
(0.84327233 -2.7825688e-06 0)
(0.84326962 -2.5954529e-06 0)
(0.8432671 -2.4202609e-06 0)
(0.84326474 -2.2558104e-06 0)
(0.84326254 -2.1021596e-06 0)
(0.8432605 -1.9576634e-06 0)
(0.84325859 -1.8231594e-06 0)
(0.84325682 -1.696178e-06 0)
(0.84325517 -1.5787782e-06 0)
(0.84325363 -1.4670459e-06 0)
(0.8432522 -1.365014e-06 0)
(0.84325088 -1.2664077e-06 0)
(0.84324964 -1.1783443e-06 0)
(0.84324849 -1.0908527e-06 0)
(0.84324744 -1.0159479e-06 0)
(0.84324643 -9.380931e-07 0)
(0.84324557 -8.764571e-07 0)
(0.84324461 -8.0870811e-07 0)
(0.84324405 -7.6497639e-07 0)
(0.8432429 -7.2122843e-07 0)
(0.33575936 -0.00011936343 0)
(0.33550491 -0.00036558452 0)
(0.33492148 -0.00041885603 0)
(0.33430895 -0.00033423818 0)
(0.33379608 -0.00022560483 0)
(0.33339353 -0.00015097394 0)
(0.33307124 -0.00011249363 0)
(0.33280022 -9.3118606e-05 0)
(0.33256397 -7.9961479e-05 0)
(0.33235534 -6.8534014e-05 0)
(0.33217084 -5.8769076e-05 0)
(0.33200733 -5.122687e-05 0)
(0.33186136 -4.5756992e-05 0)
(0.33172971 -4.171066e-05 0)
(0.33160983 -3.8454611e-05 0)
(0.33149991 -3.5613869e-05 0)
(0.33139867 -3.3043386e-05 0)
(0.33130513 -3.0706872e-05 0)
(0.33121851 -2.8588497e-05 0)
(0.33113809 -2.6663397e-05 0)
(0.33106328 -2.490164e-05 0)
(0.33099357 -2.3278066e-05 0)
(0.33092853 -2.1775329e-05 0)
(0.33086776 -2.0382115e-05 0)
(0.33081094 -1.9089451e-05 0)
(0.33075777 -1.7889303e-05 0)
(0.33070796 -1.6773629e-05 0)
(0.33066129 -1.5735216e-05 0)
(0.33061752 -1.4767276e-05 0)
(0.33057646 -1.3864151e-05 0)
(0.33053791 -1.3020461e-05 0)
(0.33050173 -1.2231733e-05 0)
(0.33046774 -1.1493527e-05 0)
(0.3304358 -1.0802236e-05 0)
(0.3304058 -1.0154178e-05 0)
(0.33037759 -9.5464402e-06 0)
(0.33035108 -8.975937e-06 0)
(0.33032616 -8.4403253e-06 0)
(0.33030273 -7.9370046e-06 0)
(0.33028069 -7.4640582e-06 0)
(0.33025998 -7.0192458e-06 0)
(0.3302405 -6.6010065e-06 0)
(0.33022218 -6.2074084e-06 0)
(0.33020495 -5.8371577e-06 0)
(0.33018876 -5.488549e-06 0)
(0.33017353 -5.1605224e-06 0)
(0.33015921 -4.8515781e-06 0)
(0.33014575 -4.5608291e-06 0)
(0.3301331 -4.2869228e-06 0)
(0.33012122 -4.0291335e-06 0)
(0.33011004 -3.7862537e-06 0)
(0.33009954 -3.5576743e-06 0)
(0.33008968 -3.3422881e-06 0)
(0.33008041 -3.1396031e-06 0)
(0.33007171 -2.9486213e-06 0)
(0.33006353 -2.7689326e-06 0)
(0.33005586 -2.5996104e-06 0)
(0.33004865 -2.4403341e-06 0)
(0.33004189 -2.2902631e-06 0)
(0.33003554 -2.1491361e-06 0)
(0.33002959 -2.0161649e-06 0)
(0.330024 -1.8911586e-06 0)
(0.33001876 -1.7733983e-06 0)
(0.33001385 -1.6627363e-06 0)
(0.33000924 -1.5584922e-06 0)
(0.33000493 -1.4605739e-06 0)
(0.33000088 -1.3683584e-06 0)
(0.32999709 -1.2817836e-06 0)
(0.32999354 -1.2002547e-06 0)
(0.32999022 -1.1237536e-06 0)
(0.32998711 -1.051734e-06 0)
(0.32998419 -9.8419716e-07 0)
(0.32998147 -9.2061858e-07 0)
(0.32997892 -8.6103251e-07 0)
(0.32997654 -8.0495974e-07 0)
(0.32997431 -7.5244163e-07 0)
(0.32997223 -7.0302182e-07 0)
(0.32997028 -6.5675963e-07 0)
(0.32996846 -6.1325077e-07 0)
(0.32996677 -5.7254065e-07 0)
(0.32996518 -5.3426465e-07 0)
(0.3299637 -4.9845377e-07 0)
(0.32996233 -4.6482764e-07 0)
(0.32996104 -4.3335266e-07 0)
(0.32995984 -4.0384496e-07 0)
(0.32995872 -3.7617667e-07 0)
(0.32995768 -3.5034045e-07 0)
(0.32995672 -3.2602328e-07 0)
(0.32995581 -3.0345548e-07 0)
(0.32995498 -2.8205792e-07 0)
(0.3299542 -2.6240569e-07 0)
(0.32995347 -2.4355865e-07 0)
(0.3299528 -2.2645385e-07 0)
(0.32995217 -2.099592e-07 0)
(0.32995159 -1.9514744e-07 0)
(0.32995105 -1.8123851e-07 0)
(0.32995056 -1.6822019e-07 0)
(0.32995007 -1.5928904e-07 0)
(0.3299497 -1.4939019e-07 0)
(0.32994912 -1.6435522e-07 0)
)
;

boundaryField
{
    top
    {
        type            fixedValue;
        value           uniform (0 0 0);
    }
    inlet
    {
        type            pressureNormalInletOutletVelocity;
        phi             phi;
        rho             rho;