/*--------------------------------*- C++ -*----------------------------------*\
| =========                 |                                                 |
| \\      /  F ield         | OpenFOAM: The Open Source CFD Toolbox           |
|  \\    /   O peration     | Version:  v1812                                 |
|   \\  /    A nd           | Web:      www.OpenFOAM.com                      |
|    \\/     M anipulation  |                                                 |
\*---------------------------------------------------------------------------*/
FoamFile
{
    version     2.0;
    format      ascii;
    class       volScalarField;
    location    "3.9";
    object      p;
}
// * * * * * * * * * * * * * * * * * * * * * * * * * * * * * * * * * * * * * //

dimensions      [0 2 -2 0 0 0 0];


internalField   nonuniform List<scalar> 
1000
(
1.6867295
1.5656516
1.4696711
1.406015
1.3575055
1.3150334
1.2774982
1.2453265
1.2179262
1.1940887
1.1726946
1.152931
1.1342543
1.1163153
1.0989009
1.0818881
1.0652092
1.0488279
1.0327239
1.0168839
1.0012975
0.98595435
0.97084429
0.95595687
0.94128173
0.92680878
0.91252839
0.89843146
0.88450937
0.87075385
0.85715684
0.84371024
0.83040577
0.81723485
0.80418847
0.79125725
0.77843143
0.76570101
0.75305588
0.74048604
0.72798175
0.71553372
0.70313328
0.69077246
0.67844414
0.66614206
0.65386083
0.6415959
0.62934352
0.61710063
0.60486482
0.59263419
0.58040729
0.56818304
0.55596062
0.54373946
0.53151916
0.5192994
0.50708002
0.49486086
0.48264185
0.47042292
0.45820405
0.44598521
0.43376638
0.42154757
0.40932876
0.39710995
0.38489115
0.37267234
0.36045354
0.34823474
0.33601593
0.32379713
0.31157833
0.29935953
0.28714072
0.27492192
0.26270312
0.25048432
0.23826552
0.22604671
0.21382791
0.20160911
0.18939031
0.17717151
0.16495271
0.15273391
0.1405151
0.1282963
0.1160775
0.1038587
0.091639905
0.079421111
0.067202316
0.054983531
0.042764755
0.03054603
0.018327365
0.0061089385
1.5695098
1.5145807
1.4536282
1.4020605
1.3587905
1.3198222
1.2842359
1.2524633
1.2245025
1.1997247
1.1773229
1.1566218
1.1371405
1.1185529
1.10064
1.0832564
1.0663061
1.0497271
1.0334779
1.0175294
1.0018595
0.98645015
0.97128564
0.95635187
0.94163605
0.9271265
0.91281257
0.89868449
0.88473326
0.87095042
0.85732782
0.8438574
0.83053095
0.81733994
0.80427547
0.79132817
0.7784883
0.76574581
0.75309051
0.74051226
0.72800116
0.71554772
0.70314307
0.69077907
0.67844841
0.66614466
0.65386229
0.64159661
0.62934376
0.61710061
0.60486466
0.59263398
0.58040708
0.56818284
0.55596046
0.54373934
0.53151906
0.51929934
0.50707997
0.49486083
0.48264182
0.47042291
0.45820404
0.4459852
0.43376638
0.42154756
0.40932876
0.39710995
0.38489115
0.37267234
0.36045354
0.34823474
0.33601593
0.32379713
0.31157833
0.29935953
0.28714072
0.27492192
0.26270312
0.25048432
0.23826552
0.22604672
0.21382791
0.20160911
0.18939031
0.17717151
0.16495271
0.15273391
0.1405151
0.1282963
0.1160775
0.1038587
0.091639899
0.079421103
0.067202295
0.054983496
0.04276468
0.030545914
0.018327166
0.0061087805
1.5086885
1.4825134
1.4441166
1.4029837
1.3638984
1.3273076
1.29301
1.2612925
1.2324364
1.2063354
1.1825816
1.1606918
1.1402423
1.1209019
1.1024225
1.0846225
1.0673723
1.0505791
1.0341765
1.0181164
1.002363
0.98688927
0.97167341
0.95669734
0.94194558
0.92740468
0.91306285
0.89890956
0.88493524
0.87113103
0.85748852
0.84399949
0.83065564
0.81744841
0.8043689
0.79140778
0.77855533
0.76580155
0.75313624
0.74054926
0.72803066
0.7155709
0.703161
0.69079273
0.67845865
0.66615221
0.65386776
0.6416005
0.62934648
0.61710248
0.60486592
0.59263481
0.58040761
0.56818318
0.55596067
0.54373946
0.53151913
0.51929938
0.50707999
0.49486084
0.48264183
0.47042291
0.45820404
0.4459852
0.43376638
0.42154756
0.40932876
0.39710995
0.38489115
0.37267234
0.36045354
0.34823474
0.33601593
0.32379713
0.31157833
0.29935953
0.28714072
0.27492192
0.26270312
0.25048432
0.23826552
0.22604672
0.21382791
0.20160911
0.18939031
0.17717151
0.16495271
0.1527339
0.1405151
0.1282963
0.11607749
0.10385869
0.091639878
0.079421069
0.067202227
0.054983384
0.042764485
0.030545634
0.018326818
0.0061085462
1.47928
1.4637819
1.436912
1.4029881
1.3671871
1.3322358
1.2989339
1.2675809
1.2384503
1.2116589
1.1870715
1.1643796
1.1432282
1.1233001
1.1043428
1.0861643
1.0686203
1.051602
1.0350274
1.018835
1.0029787
0.9874237
0.97214282
0.95711388
0.94231839
0.92774071
0.91336742
0.89918681
0.88518835
0.8713624
0.85769995
0.84419232
0.83083089
0.8176069
0.80451131
0.79153476
0.77866757
0.76589979
0.75322133
0.74062213
0.72809233
0.71562244
0.70320353
0.69082737
0.67848648
0.66617427
0.65388499
0.64161379
0.62935658
0.61711004
0.6048715
0.59263887
0.58041052
0.56818524
0.5559621
0.54374044
0.53151979
0.51929982
0.50708028
0.49486102
0.48264195
0.47042298
0.45820408
0.44598523
0.43376639
0.42154757
0.40932876
0.39710995
0.38489115
0.37267234
0.36045354
0.34823474
0.33601593
0.32379713
0.31157833
0.29935953
0.28714072
0.27492192
0.26270312
0.25048432
0.23826552
0.22604672
0.21382791
0.20160911
0.18939031
0.17717151
0.1649527
0.1527339
0.1405151
0.12829629
0.11607748
0.10385868
0.091639849
0.079421021
0.067202138
0.054983242
0.042764264
0.030545342
0.018326501
0.0061083499
1.4665485
1.4545951
1.4323607
1.4020732
1.368212
1.3342165
1.3015189
1.2705134
1.2414161
1.2144043
1.1894775
1.1664282
1.1449472
1.1247303
1.1055277
1.0871468
1.0694399
1.0522923
1.0356159
1.0193429
1.0034222
0.98781528
0.9724919
0.95742779
0.94260275
0.92799987
0.9136048
0.89940511
0.88538967
0.87154836
0.85787174
0.84435082
0.83097673
0.81774051
0.80463301
0.79164483
0.77876629
0.76598749
0.75329842
0.74068913
0.72814985
0.71567121
0.70324433
0.69086103
0.67851388
0.66619625
0.65390237
0.64162733
0.62936697
0.6171179
0.60487735
0.59264316
0.58041363
0.56818744
0.55596364
0.54374151
0.53152052
0.5193003
0.5070806
0.49486123
0.48264208
0.47042306
0.45820413
0.44598526
0.43376641
0.42154758
0.40932877
0.39710996
0.38489115
0.37267234
0.36045354
0.34823474
0.33601593
0.32379713
0.31157833
0.29935953
0.28714072
0.27492192
0.26270312
0.25048432
0.23826552
0.22604672
0.21382791
0.20160911
0.18939031
0.17717151
0.1649527
0.1527339
0.14051509
0.12829629
0.11607747
0.10385867
0.091639828
0.079420987
0.067202078
0.054983148
0.042764127
0.03054517
0.018326325
0.0061082462
1.4665485
1.4545951
1.4323607
1.4020732
1.368212
1.3342165
1.3015189
1.2705134
1.2414161
1.2144043
1.1894775
1.1664282
1.1449472
1.1247303
1.1055277
1.0871469
1.0694399
1.0522923
1.0356159
1.0193429
1.0034222
0.98781529
0.97249191
0.9574278
0.94260276
0.92799988
0.91360481
0.89940511
0.88538968
0.87154836
0.85787174
0.84435082
0.83097672
0.8177405
0.80463301
0.79164483
0.77876628
0.76598748
0.75329841
0.74068912
0.72814985
0.7156712
0.70324433
0.69086103
0.67851387
0.66619624
0.65390237
0.64162732
0.62936697
0.61711789
0.60487735
0.59264316
0.58041362
0.56818744
0.55596364
0.54374151
0.53152052
0.5193003
0.5070806
0.49486123
0.48264208
0.47042306
0.45820413
0.44598526
0.43376641
0.42154758
0.40932877
0.39710996
0.38489115
0.37267234
0.36045354
0.34823474
0.33601593
0.32379713
0.31157833
0.29935953
0.28714072
0.27492192
0.26270312
0.25048432
0.23826552
0.22604671
0.21382791
0.20160911
0.18939031
0.17717151
0.1649527
0.1527339
0.14051509
0.12829629
0.11607747
0.10385867
0.091639829
0.079420988
0.067202079
0.054983149
0.042764128
0.030545171
0.018326327
0.0061082472
1.47928
1.4637819
1.436912
1.4029881
1.3671871
1.3322358
1.2989339
1.2675809
1.2384503
1.2116589
1.1870715
1.1643796
1.1432282
1.1233001
1.1043428
1.0861643
1.0686204
1.0516021
1.0350274
1.018835
1.0029787
0.98742373
0.97214284
0.95711391
0.94231841
0.92774073
0.91336744
0.89918682
0.88518836
0.8713624
0.85769995
0.84419232
0.83083088
0.81760689
0.8045113
0.79153475
0.77866756
0.76589978
0.75322132
0.74062212
0.72809232
0.71562243
0.70320352
0.69082735
0.67848646
0.66617425
0.65388498
0.64161378
0.62935657
0.61711003
0.60487149
0.59263886
0.58041051
0.56818523
0.55596209
0.54374044
0.53151979
0.51929981
0.50708028
0.49486102
0.48264195
0.47042298
0.45820408
0.44598523
0.43376639
0.42154757
0.40932876
0.39710995
0.38489115
0.37267234
0.36045354
0.34823474
0.33601593
0.32379713
0.31157833
0.29935953
0.28714072
0.27492192
0.26270312
0.25048432
0.23826552
0.22604671
0.21382791
0.20160911
0.18939031
0.17717151
0.1649527
0.1527339
0.14051509
0.12829629
0.11607748
0.10385868
0.09163985
0.079421023
0.06720214
0.054983243
0.042764267
0.030545347
0.018326506
0.006108352
1.5086885
1.4825134
1.4441166
1.4029837
1.3638984
1.3273076
1.29301
1.2612925
1.2324364
1.2063354
1.1825816
1.1606918
1.1402423
1.1209019
1.1024225
1.0846225
1.0673723
1.0505791
1.0341766
1.0181164
1.002363
0.9868893
0.97167345
0.95669737
0.94194561
0.92740471
0.91306288
0.89890958
0.88493525
0.87113103
0.85748852
0.84399949
0.83065563
0.8174484
0.80436889
0.79140776
0.77855532
0.76580153
0.75313622
0.74054924
0.72803064
0.71557088
0.70316098
0.69079271
0.67845863
0.66615219
0.65386774
0.64160049
0.62934647
0.61710246
0.60486591
0.5926348
0.5804076
0.56818317
0.55596066
0.54373946
0.53151913
0.51929937
0.50707999
0.49486084
0.48264183
0.47042291
0.45820404
0.4459852
0.43376638
0.42154757
0.40932876
0.39710995
0.38489115
0.37267234
0.36045354
0.34823474
0.33601593
0.32379713
0.31157833
0.29935953
0.28714072
0.27492192
0.26270312
0.25048432
0.23826552
0.22604671
0.21382791
0.20160911
0.18939031
0.17717151
0.1649527
0.1527339
0.1405151
0.1282963
0.11607749
0.10385869
0.09163988
0.079421072
0.067202229
0.054983386
0.042764488
0.030545639
0.018326824
0.0061085486
1.5695098
1.5145807
1.4536282
1.4020605
1.3587905
1.3198222
1.2842359
1.2524633
1.2245024
1.1997247
1.1773229
1.1566218
1.1371405
1.1185529
1.10064
1.0832564
1.0663062
1.0497271
1.0334779
1.0175294
1.0018595
0.98645019
0.97128567
0.95635191
0.94163608
0.92712653
0.91281259
0.8986845
0.88473327
0.87095042
0.85732782
0.8438574
0.83053094
0.81733993
0.80427545
0.79132816
0.77848828
0.76574579
0.75309049
0.74051224
0.72800113
0.71554769
0.70314304
0.69077904
0.67844839
0.66614464
0.65386226
0.64159659
0.62934374
0.61710059
0.60486465
0.59263396
0.58040706
0.56818283
0.55596045
0.54373933
0.53151906
0.51929933
0.50707997
0.49486083
0.48264183
0.47042291
0.45820404
0.4459852
0.43376638
0.42154757
0.40932876
0.39710995
0.38489115
0.37267234
0.36045354
0.34823474
0.33601593
0.32379713
0.31157833
0.29935953
0.28714072
0.27492192
0.26270312
0.25048432
0.23826552
0.22604671
0.21382791
0.20160911
0.18939031
0.17717151
0.1649527
0.1527339
0.1405151
0.1282963
0.1160775
0.1038587
0.091639902
0.079421107
0.067202299
0.054983499
0.042764683
0.03054592
0.018327173
0.0061087831
1.6867294
1.5656515
1.4696711
1.406015
1.3575055
1.3150334
1.2774982
1.2453265
1.2179262
1.1940887
1.1726946
1.152931
1.1342543
1.1163153
1.0989009
1.0818881
1.0652092
1.0488279
1.0327239
1.016884
1.0012975
0.98595438
0.97084432
0.9559569
0.94128176
0.92680881
0.91252841
0.89843147
0.88450937
0.87075385
0.85715684
0.84371023
0.83040576
0.81723483
0.80418845
0.79125723
0.77843141
0.76570098
0.75305586
0.74048602
0.72798173
0.7155337
0.70313325
0.69077243
0.67844411
0.66614203
0.6538608
0.64159588
0.6293435
0.61710062
0.60486481
0.59263418
0.58040728
0.56818303
0.55596061
0.54373946
0.53151915
0.5192994
0.50708002
0.49486086
0.48264185
0.47042292
0.45820405
0.44598521
0.43376638
0.42154757
0.40932876
0.39710995
0.38489115
0.37267234
0.36045354
0.34823474
0.33601593
0.32379713
0.31157833
0.29935953
0.28714072
0.27492192
0.26270312
0.25048432
0.23826552
0.22604671
0.21382791
0.20160911
0.18939031
0.17717151
0.1649527
0.1527339
0.1405151
0.1282963
0.1160775
0.1038587
0.091639907
0.079421114
0.067202318
0.054983533
0.042764761
0.03054604
0.018327373
0.0061089409
)
;

boundaryField
{
    top
    {
        type            zeroGradient;
    }
    inlet
    {
        type            zeroGradient;
    }
    outlet
    {
        type            fixedValue;
        value           uniform 0;
    }
    bottom
    {
        type            zeroGradient;
    }
    back
    {
        type            empty;
    }
    front
    {
        type            empty;
    }
}


// ************************************************************************* //
