/*--------------------------------*- C++ -*----------------------------------*\
| =========                 |                                                 |
| \\      /  F ield         | OpenFOAM: The Open Source CFD Toolbox           |
|  \\    /   O peration     | Version:  v1812                                 |
|   \\  /    A nd           | Web:      www.OpenFOAM.com                      |
|    \\/     M anipulation  |                                                 |
\*---------------------------------------------------------------------------*/
FoamFile
{
    version     2.0;
    format      ascii;
    class       volScalarField;
    location    "9.4";
    object      p;
}
// * * * * * * * * * * * * * * * * * * * * * * * * * * * * * * * * * * * * * //

dimensions      [0 2 -2 0 0 0 0];


internalField   nonuniform List<scalar> 
1000
(
1.6755392
1.5544613
1.4584808
1.3948247
1.3463152
1.3038432
1.2663079
1.2341362
1.2067358
1.1828983
1.1615039
1.1417401
1.123063
1.1051234
1.0877081
1.0706939
1.054013
1.0376289
1.0215207
1.0056747
0.99007975
0.97472465
0.95959795
0.94468772
0.92998172
0.91546773
0.90113377
0.88696826
0.87296021
0.8590992
0.84537548
0.83177993
0.81830403
0.80493986
0.79168003
0.77851767
0.76544637
0.75246017
0.73955351
0.72672119
0.71395838
0.70126056
0.68862351
0.67604329
0.66351621
0.65103882
0.6386079
0.62622043
0.61387358
0.60156472
0.58929139
0.57705127
0.56484223
0.55266224
0.54050941
0.52838198
0.51627829
0.50419678
0.49213601
0.48009463
0.46807137
0.45606505
0.44407459
0.43209895
0.42013716
0.40818833
0.3962516
0.38432619
0.37241134
0.36050637
0.34861066
0.33672362
0.32484472
0.31297343
0.30110929
0.28925183
0.27740062
0.26555526
0.25371539
0.24188067
0.23005079
0.21822548
0.20640447
0.19458749
0.1827743
0.17096464
0.15915826
0.14735494
0.13555448
0.1237567
0.11196141
0.10016846
0.088377667
0.076588872
0.064801892
0.053016563
0.041232719
0.029450223
0.017669062
0.0058889964
1.5583195
1.5033904
1.442438
1.3908702
1.3476002
1.3086319
1.2730456
1.241273
1.2133121
1.1885342
1.1661324
1.145431
1.1259494
1.1073613
1.0894478
1.072063
1.0551112
1.0385298
1.0222771
1.0063236
0.99064657
0.97522703
0.96004818
0.94509452
0.93035148
0.91580526
0.90144286
0.88725199
0.87322115
0.85933957
0.84559719
0.83198468
0.81849332
0.80511503
0.79184229
0.77866809
0.76558592
0.75258972
0.73967385
0.72683304
0.71406239
0.70135732
0.68871357
0.67612713
0.6635943
0.65111157
0.63867569
0.62628362
0.61393249
0.60161965
0.58934262
0.57709906
0.56488681
0.55270382
0.54054821
0.52841819
0.51631208
0.50422833
0.49216546
0.48012212
0.46809703
0.45608901
0.44409694
0.43211981
0.42015664
0.40820651
0.39626857
0.38434203
0.37242612
0.36052016
0.34862352
0.3367356
0.32485586
0.3129838
0.30111892
0.28926078
0.27740893
0.26556297
0.25372252
0.24188725
0.23005685
0.21823104
0.20640955
0.19459213
0.18277853
0.17096848
0.15916175
0.1473581
0.13555732
0.12375923
0.11196366
0.10017044
0.088379404
0.076590393
0.064803214
0.053017708
0.041233712
0.029451025
0.017669745
0.0058892624
1.4974983
1.4713232
1.4329263
1.3917934
1.3527082
1.3161174
1.2818197
1.2501022
1.2212461
1.195145
1.171391
1.149501
1.1290512
1.1097103
1.0912301
1.0734291
1.0561772
1.0393817
1.0229756
1.0069104
0.99115008
0.97566638
0.96043651
0.94544102
0.93066275
0.91608627
0.90169745
0.88748328
0.87343174
0.85953167
0.84577274
0.83214536
0.81864062
0.80525026
0.7919666
0.77878253
0.7656914
0.75268706
0.73976377
0.72691619
0.71413935
0.70142861
0.68877965
0.67618843
0.66365119
0.65116441
0.6387248
0.62632927
0.61397496
0.60165917
0.5893794
0.57713331
0.5649187
0.55273353
0.54057589
0.52844398
0.51633612
0.50425074
0.49218637
0.48014162
0.46811523
0.45610598
0.44411278
0.43213458
0.42017041
0.40821936
0.39628057
0.38435322
0.37243658
0.36052993
0.34863263
0.33674409
0.32486377
0.31299116
0.30112577
0.28926716
0.27741487
0.2655685
0.25372767
0.24189204
0.23006128
0.21823512
0.20641331
0.19459558
0.18278169
0.17097138
0.1591644
0.14736053
0.13555954
0.12376124
0.11196546
0.10017205
0.088380825
0.076591651
0.064804311
0.053018666
0.041234513
0.029451685
0.017670144
0.0058894762
1.4680897
1.4525917
1.4257217
1.3917979
1.3559969
1.3210456
1.2877436
1.2563906
1.2272599
1.2004684
1.1758809
1.1531886
1.1320368
1.1121081
1.0931499
1.0749702
1.0574244
1.0404034
1.0238248
1.0076268
0.99176282
0.97619707
0.9609011
0.94585142
0.93102799
0.91641327
0.90199164
0.88774901
0.87367256
0.85975055
0.84597217
0.83232746
0.81880724
0.80540298
0.79210683
0.77891147
0.76581014
0.75279654
0.73986483
0.72700958
0.71422573
0.70150858
0.68885374
0.67625713
0.66371494
0.65122359
0.63877977
0.62638036
0.61402246
0.60170336
0.58942052
0.57717158
0.56495433
0.55276672
0.5406068
0.52847278
0.51636297
0.50427577
0.49220971
0.48016339
0.46813553
0.45612492
0.44413045
0.43215106
0.42018579
0.40823371
0.39629396
0.38436573
0.37244826
0.36054085
0.34864284
0.33675364
0.32487269
0.31299948
0.30113355
0.28927442
0.27742166
0.26557486
0.25373363
0.24189761
0.2300665
0.21823999
0.20641784
0.1945998
0.1827856
0.17097502
0.15916779
0.14736368
0.13556246
0.12376395
0.11196795
0.10017434
0.088382893
0.07659353
0.064805982
0.053020185
0.041235801
0.029452853
0.017670931
0.0058901957
1.4553582
1.4434049
1.4211705
1.3908829
1.3570217
1.3230262
1.2903286
1.259323
1.2302256
1.2032138
1.1782867
1.1552371
1.1337556
1.113538
1.0943344
1.0759522
1.0582433
1.0410928
1.024412
1.0081329
0.99220386
0.97658529
0.96124577
0.94615961
0.93130516
0.91666368
0.90221871
0.88795553
0.87386084
0.85992255
0.84612957
0.83247174
0.81893966
0.80552469
0.79221882
0.77901465
0.76590529
0.75288438
0.739946
0.72708465
0.71429521
0.70157293
0.68891339
0.67631245
0.66376627
0.65127125
0.63882405
0.62642151
0.61406073
0.60173895
0.58945364
0.57720241
0.56498304
0.55279345
0.5406317
0.52849598
0.51638458
0.50429592
0.49222849
0.48018091
0.46815187
0.45614017
0.44414467
0.43216433
0.42019817
0.40824526
0.39630475
0.38437581
0.37245768
0.36054965
0.34865107
0.33676133
0.32487988
0.31300621
0.30113984
0.28928031
0.27742717
0.26558003
0.25373848
0.24190217
0.23007077
0.218244
0.2064216
0.1946033
0.18278887
0.17097807
0.15917064
0.14736635
0.13556495
0.12376628
0.11197011
0.10017633
0.088384713
0.076595202
0.064807478
0.053021566
0.041236981
0.029453965
0.017671731
0.0058909586
1.4553582
1.4434049
1.4211705
1.3908829
1.3570217
1.3230262
1.2903286
1.259323
1.2302256
1.2032138
1.1782867
1.1552371
1.1337556
1.113538
1.0943344
1.0759522
1.0582433
1.0410928
1.024412
1.0081329
0.99220386
0.97658529
0.96124577
0.94615961
0.93130515
0.91666368
0.90221871
0.88795553
0.87386084
0.85992255
0.84612957
0.83247174
0.81893966
0.80552469
0.79221882
0.77901465
0.76590529
0.75288438
0.739946
0.72708465
0.71429521
0.70157294
0.68891339
0.67631245
0.66376627
0.65127125
0.63882405
0.62642151
0.61406073
0.60173896
0.58945364
0.57720241
0.56498304
0.55279345
0.5406317
0.52849598
0.51638458
0.50429592
0.4922285
0.48018091
0.46815187
0.45614017
0.44414467
0.43216433
0.42019817
0.40824526
0.39630475
0.38437581
0.37245769
0.36054966
0.34865108
0.33676134
0.32487989
0.31300621
0.30113984
0.28928031
0.27742718
0.26558004
0.25373849
0.24190218
0.23007078
0.21824401
0.20642159
0.19460329
0.18278886
0.17097806
0.15917063
0.14736634
0.13556495
0.12376628
0.1119701
0.10017632
0.088384701
0.076595188
0.064807466
0.053021557
0.041236976
0.029453965
0.017671733
0.0058909611
1.4680897
1.4525917
1.4257217
1.3917979
1.3559969
1.3210456
1.2877436
1.2563906
1.2272599
1.2004684
1.1758809
1.1531886
1.1320368
1.1121081
1.0931499
1.0749702
1.0574244
1.0404034
1.0238248
1.0076268
0.99176282
0.97619706
0.96090109
0.94585142
0.93102799
0.91641327
0.90199164
0.88774902
0.87367257
0.85975055
0.84597217
0.83232746
0.81880723
0.80540298
0.79210682
0.77891147
0.76581014
0.75279654
0.73986484
0.72700959
0.71422573
0.70150858
0.68885374
0.67625713
0.66371493
0.65122358
0.63877977
0.62638036
0.61402247
0.60170337
0.58942053
0.57717158
0.56495433
0.55276671
0.5406068
0.52847278
0.51636297
0.50427578
0.49220972
0.4801634
0.46813554
0.45612493
0.44413045
0.43215106
0.42018579
0.40823372
0.39629398
0.38436576
0.3724483
0.36054088
0.34864287
0.33675365
0.3248727
0.31299949
0.30113355
0.28927443
0.27742169
0.2655749
0.25373367
0.24189765
0.23006652
0.21824
0.20641783
0.19459977
0.18278558
0.170975
0.15916777
0.14736368
0.13556246
0.12376395
0.11196794
0.10017431
0.088382859
0.076593494
0.06480595
0.053020164
0.04123579
0.029452853
0.01767094
0.0058902015
1.4974983
1.4713232
1.4329263
1.3917934
1.3527082
1.3161174
1.2818197
1.2501022
1.2212461
1.195145
1.171391
1.149501
1.1290512
1.1097103
1.0912301
1.0734291
1.0561773
1.0393817
1.0229756
1.0069104
0.99115007
0.97566637
0.9604365
0.94544101
0.93066275
0.91608628
0.90169746
0.88748329
0.87343175
0.85953168
0.84577274
0.83214535
0.81864061
0.80525025
0.7919666
0.77878253
0.76569141
0.75268707
0.73976378
0.7269162
0.71413935
0.7014286
0.68877964
0.67618842
0.66365119
0.65116441
0.6387248
0.62632928
0.61397497
0.60165918
0.5893794
0.5771333
0.56491869
0.55273352
0.54057588
0.52844398
0.51633613
0.50425076
0.49218639
0.48014164
0.46811523
0.45610598
0.44411277
0.43213458
0.42017042
0.40821938
0.3962806
0.38435327
0.37243663
0.36052997
0.34863266
0.33674411
0.32486378
0.31299117
0.3011258
0.2892672
0.27741493
0.26556857
0.25372773
0.24189208
0.2300613
0.21823512
0.20641328
0.19459555
0.18278166
0.17097137
0.1591644
0.14736054
0.13555954
0.12376123
0.11196543
0.10017201
0.088380776
0.076591604
0.064804274
0.053018644
0.041234508
0.029451687
0.017670151
0.0058894804
1.5583195
1.5033904
1.442438
1.3908703
1.3476002
1.3086319
1.2730457
1.241273
1.2133121
1.1885342
1.1661324
1.145431
1.1259494
1.1073613
1.0894478
1.072063
1.0551112
1.0385298
1.0222771
1.0063236
0.99064656
0.97522702
0.96004817
0.94509452
0.93035148
0.91580527
0.90144287
0.887252
0.87322116
0.85933957
0.84559719
0.83198467
0.81849331
0.80511503
0.79184229
0.77866809
0.76558593
0.75258974
0.73967386
0.72683305
0.71406239
0.70135731
0.68871355
0.67612712
0.66359429
0.65111157
0.6386757
0.62628363
0.6139325
0.60161966
0.58934261
0.57709905
0.56488679
0.55270381
0.54054821
0.5284182
0.5163121
0.50422835
0.49216548
0.48012213
0.46809703
0.456089
0.44409694
0.43211982
0.42015666
0.40820655
0.39626863
0.38434209
0.37242617
0.3605202
0.34862354
0.33673561
0.32485587
0.31298382
0.30111897
0.28926085
0.27740901
0.26556305
0.25372258
0.24188728
0.23005685
0.21823102
0.20640953
0.19459212
0.18277853
0.17096849
0.15916176
0.14735811
0.13555731
0.12375921
0.11196362
0.10017039
0.088379352
0.076590351
0.064803187
0.053017696
0.041233702
0.02945102
0.017669747
0.0058892669
1.6755392
1.5544613
1.4584808
1.3948247
1.3463152
1.3038432
1.2663079
1.2341362
1.2067358
1.1828983
1.1615039
1.1417401
1.123063
1.1051234
1.0877081
1.0706939
1.054013
1.0376289
1.0215207
1.0056747
0.99007974
0.97472464
0.95959795
0.94468772
0.92998172
0.91546774
0.90113378
0.88696827
0.87296021
0.8590992
0.84537547
0.83177992
0.81830402
0.80493985
0.79168003
0.77851768
0.76544638
0.75246018
0.73955351
0.72672119
0.71395837
0.70126054
0.6886235
0.67604328
0.66351621
0.65103883
0.63860791
0.62622044
0.61387359
0.60156472
0.58929138
0.57705126
0.56484222
0.55266223
0.54050941
0.52838199
0.51627831
0.5041968
0.49213603
0.48009463
0.46807136
0.45606504
0.44407459
0.43209896
0.42013719
0.40818838
0.39625166
0.38432624
0.37241138
0.3605064
0.34861067
0.33672363
0.32484474
0.31297347
0.30110935
0.28925191
0.27740071
0.26555534
0.25371544
0.24188069
0.23005079
0.21822547
0.20640446
0.1945875
0.18277432
0.17096466
0.15915828
0.14735495
0.13555447
0.12375667
0.11196137
0.10016841
0.088377625
0.076588842
0.064801871
0.053016545
0.041232699
0.029450214
0.017669077
0.0058890074
)
;

boundaryField
{
    top
    {
        type            zeroGradient;
    }
    inlet
    {
        type            zeroGradient;
    }
    outlet
    {
        type            fixedValue;
        value           uniform 0;
    }
    bottom
    {
        type            zeroGradient;
    }
    back
    {
        type            empty;
    }
    front
    {
        type            empty;
    }
}


// ************************************************************************* //
