/*--------------------------------*- C++ -*----------------------------------*\
| =========                 |                                                 |
| \\      /  F ield         | OpenFOAM: The Open Source CFD Toolbox           |
|  \\    /   O peration     | Version:  2112                                  |
|   \\  /    A nd           | Website:  www.openfoam.com                      |
|    \\/     M anipulation  |                                                 |
\*---------------------------------------------------------------------------*/
FoamFile
{
    version     2.0;
    format      ascii;
    arch        "LSB;label=32;scalar=64";
    class       volScalarField;
    location    "10";
    object      T;
}
// * * * * * * * * * * * * * * * * * * * * * * * * * * * * * * * * * * * * * //

dimensions      [0 0 0 1 0 0 0];

internalField   nonuniform List<scalar> 
10000
(
1.36481
1.36481
1.36481
1.36481
1.36481
1.36481
1.36481
1.36481
1.36481
1.36481
1.10138
1.10138
1.10138
1.10137
1.10137
1.10137
1.10137
1.10137
1.10137
1.10137
0.857727
0.857729
0.857727
0.857725
0.857724
0.857724
0.857724
0.857725
0.857726
0.857725
0.643717
0.643719
0.643716
0.643714
0.643712
0.643712
0.643713
0.643714
0.643715
0.643715
0.465094
0.465095
0.465092
0.46509
0.465089
0.465089
0.46509
0.465091
0.465093
0.465092
0.323313
0.323314
0.323311
0.323309
0.323308
0.323308
0.323309
0.323311
0.323313
0.323313
0.216186
0.216187
0.216184
0.216183
0.216182
0.216183
0.216184
0.216185
0.216188
0.216187
0.13905
0.13905
0.139048
0.139047
0.139046
0.139047
0.139048
0.139049
0.139051
0.139052
0.0860533
0.0860533
0.0860518
0.0860509
0.0860506
0.0860509
0.0860519
0.0860534
0.0860552
0.0860555
0.0512656
0.0512654
0.0512643
0.0512637
0.0512636
0.0512639
0.0512647
0.051266
0.0512674
0.0512677
0.0294183
0.0294181
0.0294174
0.029417
0.0294169
0.0294172
0.0294179
0.0294188
0.02942
0.0294203
0.016273
0.0162729
0.0162724
0.0162722
0.0162721
0.0162724
0.0162728
0.0162735
0.0162744
0.0162746
0.00868444
0.00868432
0.00868403
0.00868388
0.00868388
0.00868404
0.00868437
0.00868485
0.00868543
0.00868564
0.00447535
0.00447527
0.0044751
0.00447501
0.00447502
0.00447513
0.00447535
0.00447566
0.00447604
0.00447619
0.00222912
0.00222906
0.00222896
0.00222892
0.00222893
0.002229
0.00222913
0.00222933
0.00222956
0.00222967
0.00107418
0.00107414
0.00107409
0.00107407
0.00107408
0.00107412
0.0010742
0.00107431
0.00107445
0.00107452
0.000501276
0.000501256
0.00050123
0.000501219
0.000501226
0.00050125
0.000501295
0.000501361
0.00050144
0.00050148
0.000226755
0.000226745
0.000226732
0.000226727
0.000226731
0.000226745
0.000226769
0.000226804
0.000226848
0.000226871
9.95252e-05
9.95198e-05
9.95135e-05
9.95114e-05
9.95138e-05
9.95212e-05
9.9534e-05
9.95524e-05
9.95752e-05
9.95875e-05
4.24241e-05
4.24214e-05
4.24186e-05
4.24177e-05
4.2419e-05
4.24228e-05
4.24292e-05
4.24385e-05
4.24499e-05
4.24563e-05
1.7579e-05
1.75778e-05
1.75765e-05
1.75762e-05
1.75769e-05
1.75787e-05
1.75818e-05
1.75863e-05
1.75919e-05
1.75951e-05
7.08711e-06
7.08653e-06
7.08598e-06
7.08586e-06
7.08621e-06
7.08709e-06
7.08855e-06
7.09065e-06
7.09324e-06
7.09478e-06
2.78234e-06
2.78209e-06
2.78186e-06
2.78182e-06
2.78199e-06
2.78239e-06
2.78306e-06
2.784e-06
2.78517e-06
2.78589e-06
1.0646e-06
1.06449e-06
1.0644e-06
1.06438e-06
1.06446e-06
1.06464e-06
1.06493e-06
1.06534e-06
1.06586e-06
1.06618e-06
3.97321e-07
3.97277e-07
3.97241e-07
3.97239e-07
3.97273e-07
3.97349e-07
3.97473e-07
3.97648e-07
3.97866e-07
3.98004e-07
1.44751e-07
1.44733e-07
1.4472e-07
1.44719e-07
1.44734e-07
1.44766e-07
1.44817e-07
1.44889e-07
1.44979e-07
1.45037e-07
5.15166e-08
5.15098e-08
5.15048e-08
5.15051e-08
5.15112e-08
5.1524e-08
5.15444e-08
5.15731e-08
5.16089e-08
5.16322e-08
1.7924e-08
1.79214e-08
1.79196e-08
1.79198e-08
1.79223e-08
1.79273e-08
1.79351e-08
1.79459e-08
1.79592e-08
1.79676e-08
6.10073e-09
6.09979e-09
6.09917e-09
6.09928e-09
6.1002e-09
6.10199e-09
6.10463e-09
6.10778e-09
6.11055e-09
6.1101e-09
2.03272e-09
2.03239e-09
2.03217e-09
2.03222e-09
2.03251e-09
2.03297e-09
2.03324e-09
2.03202e-09
2.02578e-09
2.00856e-09
1.36481
1.36481
1.36481
1.36481
1.36481
1.36481
1.36481
1.36481
1.36481
1.36481
1.10138
1.10138
1.10138
1.10137
1.10137
1.10137
1.10137
1.10137
1.10138
1.10137
0.857729
0.85773
0.857727
0.857725
0.857724
0.857724
0.857724
0.857725
0.857727
0.857726
0.643719
0.643719
0.643716
0.643713
0.643712
0.643712
0.643713
0.643715
0.643717
0.643716
0.465095
0.465095
0.465092
0.465089
0.465088
0.465089
0.46509
0.465092
0.465094
0.465093
0.323314
0.323313
0.32331
0.323308
0.323308
0.323308
0.323309
0.323311
0.323314
0.323314
0.216187
0.216186
0.216184
0.216182
0.216182
0.216182
0.216183
0.216185
0.216188
0.216188
0.13905
0.139049
0.139047
0.139046
0.139046
0.139046
0.139047
0.139049
0.139052
0.139052
0.0860533
0.0860527
0.0860512
0.0860502
0.08605
0.0860504
0.0860515
0.0860533
0.0860556
0.0860558
0.0512654
0.051265
0.0512638
0.0512632
0.0512631
0.0512635
0.0512643
0.0512658
0.0512677
0.051268
0.0294181
0.0294178
0.029417
0.0294166
0.0294166
0.0294169
0.0294176
0.0294187
0.0294201
0.0294204
0.0162729
0.0162726
0.0162721
0.0162719
0.0162719
0.0162721
0.0162726
0.0162734
0.0162744
0.0162747
0.00868432
0.00868414
0.00868384
0.0086837
0.0086837
0.00868387
0.00868422
0.00868475
0.00868546
0.00868567
0.00447527
0.00447515
0.00447498
0.0044749
0.00447491
0.00447502
0.00447525
0.0044756
0.00447605
0.00447621
0.00222906
0.00222899
0.00222889
0.00222885
0.00222886
0.00222894
0.00222908
0.00222929
0.00222957
0.00222968
0.00107414
0.0010741
0.00107405
0.00107403
0.00107404
0.00107408
0.00107417
0.00107429
0.00107446
0.00107452
0.000501256
0.000501234
0.000501207
0.000501197
0.000501204
0.00050123
0.000501277
0.000501348
0.00050144
0.000501481
0.000226745
0.000226733
0.00022672
0.000226715
0.000226719
0.000226734
0.000226759
0.000226798
0.000226848
0.000226871
9.95198e-05
9.95138e-05
9.95075e-05
9.95055e-05
9.9508e-05
9.95157e-05
9.9529e-05
9.95489e-05
9.95749e-05
9.95877e-05
4.24214e-05
4.24185e-05
4.24156e-05
4.24148e-05
4.24162e-05
4.24201e-05
4.24268e-05
4.24367e-05
4.24497e-05
4.24564e-05
1.75778e-05
1.75764e-05
1.75751e-05
1.75748e-05
1.75756e-05
1.75775e-05
1.75807e-05
1.75855e-05
1.75918e-05
1.75951e-05
7.08653e-06
7.08592e-06
7.08537e-06
7.08526e-06
7.08562e-06
7.08653e-06
7.08805e-06
7.09027e-06
7.09319e-06
7.09479e-06
2.78209e-06
2.78182e-06
2.7816e-06
2.78156e-06
2.78174e-06
2.78215e-06
2.78284e-06
2.78384e-06
2.78515e-06
2.78589e-06
1.06449e-06
1.06438e-06
1.06429e-06
1.06428e-06
1.06435e-06
1.06454e-06
1.06484e-06
1.06528e-06
1.06585e-06
1.06618e-06
3.97277e-07
3.97231e-07
3.97196e-07
3.97194e-07
3.97229e-07
3.97308e-07
3.97435e-07
3.9762e-07
3.97861e-07
3.98005e-07
1.44733e-07
1.44715e-07
1.44702e-07
1.44702e-07
1.44717e-07
1.44749e-07
1.44802e-07
1.44878e-07
1.44977e-07
1.45037e-07
5.15098e-08
5.15028e-08
5.1498e-08
5.14983e-08
5.15046e-08
5.15177e-08
5.15387e-08
5.15688e-08
5.16081e-08
5.16323e-08
1.79214e-08
1.79188e-08
1.79171e-08
1.79173e-08
1.79198e-08
1.79249e-08
1.7933e-08
1.79443e-08
1.79589e-08
1.79677e-08
6.09979e-09
6.09884e-09
6.09824e-09
6.09837e-09
6.09931e-09
6.10114e-09
6.10385e-09
6.1072e-09
6.11044e-09
6.11013e-09
2.03239e-09
2.03205e-09
2.03184e-09
2.03189e-09
2.03219e-09
2.03267e-09
2.03296e-09
2.03181e-09
2.02574e-09
2.00856e-09
1.36481
1.36481
1.36481
1.36481
1.36481
1.36481
1.36481
1.36481
1.36481
1.36481
1.10138
1.10138
1.10137
1.10137
1.10137
1.10137
1.10137
1.10137
1.10137
1.10137
0.857727
0.857727
0.857724
0.857722
0.857721
0.857721
0.857721
0.857723
0.857725
0.857725
0.643716
0.643716
0.643712
0.64371
0.643709
0.643709
0.64371
0.643712
0.643715
0.643715
0.465092
0.465092
0.465088
0.465086
0.465085
0.465085
0.465086
0.465089
0.465092
0.465093
0.323311
0.32331
0.323307
0.323305
0.323304
0.323305
0.323306
0.323309
0.323313
0.323313
0.216184
0.216184
0.216181
0.216179
0.216179
0.216179
0.216181
0.216184
0.216187
0.216188
0.139048
0.139047
0.139045
0.139044
0.139043
0.139044
0.139045
0.139048
0.139051
0.139052
0.0860518
0.0860512
0.0860495
0.0860486
0.0860484
0.0860489
0.0860501
0.0860522
0.086055
0.0860555
0.0512643
0.0512638
0.0512627
0.0512621
0.051262
0.0512624
0.0512634
0.051265
0.0512673
0.0512678
0.0294174
0.029417
0.0294163
0.0294159
0.0294158
0.0294162
0.0294169
0.0294182
0.0294198
0.0294203
0.0162724
0.0162721
0.0162717
0.0162714
0.0162714
0.0162717
0.0162722
0.0162731
0.0162743
0.0162746
0.00868403
0.00868384
0.00868354
0.0086834
0.00868342
0.0086836
0.00868398
0.00868457
0.00868536
0.00868564
0.0044751
0.00447498
0.0044748
0.00447473
0.00447474
0.00447487
0.00447511
0.00447549
0.004476
0.00447619
0.00222896
0.00222889
0.0022288
0.00222875
0.00222877
0.00222885
0.002229
0.00222923
0.00222954
0.00222967
0.00107409
0.00107405
0.001074
0.00107398
0.00107399
0.00107404
0.00107412
0.00107426
0.00107444
0.00107452
0.00050123
0.000501207
0.000501181
0.000501171
0.000501179
0.000501206
0.000501256
0.000501332
0.000501434
0.00050148
0.000226732
0.00022672
0.000226707
0.000226702
0.000226707
0.000226722
0.000226749
0.00022679
0.000226845
0.000226871
9.95135e-05
9.95075e-05
9.95014e-05
9.94995e-05
9.95022e-05
9.95103e-05
9.95243e-05
9.95454e-05
9.95735e-05
9.95876e-05
4.24186e-05
4.24156e-05
4.24128e-05
4.24121e-05
4.24136e-05
4.24176e-05
4.24247e-05
4.24352e-05
4.24492e-05
4.24564e-05
1.75765e-05
1.75751e-05
1.75739e-05
1.75736e-05
1.75744e-05
1.75764e-05
1.75798e-05
1.75848e-05
1.75915e-05
1.75951e-05
7.08598e-06
7.08537e-06
7.08484e-06
7.08474e-06
7.08513e-06
7.08607e-06
7.08765e-06
7.08999e-06
7.0931e-06
7.09482e-06
2.78186e-06
2.7816e-06
2.78138e-06
2.78135e-06
2.78153e-06
2.78196e-06
2.78268e-06
2.78373e-06
2.78512e-06
2.78591e-06
1.0644e-06
1.06429e-06
1.0642e-06
1.06419e-06
1.06427e-06
1.06446e-06
1.06478e-06
1.06523e-06
1.06584e-06
1.06619e-06
3.97241e-07
3.97196e-07
3.97162e-07
3.97161e-07
3.97198e-07
3.97279e-07
3.97411e-07
3.97604e-07
3.97859e-07
3.9801e-07
1.4472e-07
1.44702e-07
1.44689e-07
1.44689e-07
1.44705e-07
1.44739e-07
1.44793e-07
1.44872e-07
1.44976e-07
1.45039e-07
5.15048e-08
5.1498e-08
5.14933e-08
5.14938e-08
5.15003e-08
5.15138e-08
5.15355e-08
5.15668e-08
5.16081e-08
5.16335e-08
1.79196e-08
1.79171e-08
1.79154e-08
1.79157e-08
1.79183e-08
1.79235e-08
1.79318e-08
1.79436e-08
1.7959e-08
1.79682e-08
6.09918e-09
6.09824e-09
6.09766e-09
6.09782e-09
6.09879e-09
6.10067e-09
6.10348e-09
6.10698e-09
6.11049e-09
6.11034e-09
2.03218e-09
2.03185e-09
2.03165e-09
2.03171e-09
2.03202e-09
2.03251e-09
2.03284e-09
2.03174e-09
2.02577e-09
2.00864e-09
1.36481
1.36481
1.36481
1.3648
1.3648
1.3648
1.3648
1.36481
1.36481
1.36481
1.10137
1.10137
1.10137
1.10137
1.10137
1.10137
1.10137
1.10137
1.10137
1.10137
0.857725
0.857725
0.857722
0.85772
0.857719
0.857719
0.85772
0.857721
0.857724
0.857724
0.643714
0.643713
0.64371
0.643708
0.643707
0.643707
0.643708
0.64371
0.643714
0.643714
0.46509
0.465089
0.465086
0.465084
0.465083
0.465083
0.465085
0.465088
0.465091
0.465092
0.323309
0.323308
0.323305
0.323303
0.323303
0.323303
0.323305
0.323308
0.323312
0.323312
0.216183
0.216182
0.216179
0.216178
0.216177
0.216178
0.21618
0.216183
0.216187
0.216187
0.139047
0.139046
0.139044
0.139043
0.139042
0.139043
0.139044
0.139047
0.139051
0.139051
0.0860509
0.0860502
0.0860486
0.0860478
0.0860476
0.0860481
0.0860495
0.0860517
0.0860547
0.0860555
0.0512637
0.0512632
0.0512621
0.0512615
0.0512614
0.0512619
0.051263
0.0512647
0.0512671
0.0512678
0.029417
0.0294166
0.0294159
0.0294155
0.0294155
0.0294158
0.0294167
0.029418
0.0294198
0.0294203
0.0162722
0.0162719
0.0162714
0.0162712
0.0162712
0.0162715
0.0162721
0.016273
0.0162742
0.0162747
0.00868388
0.0086837
0.0086834
0.00868327
0.00868329
0.00868349
0.00868389
0.00868452
0.00868535
0.00868566
0.00447501
0.0044749
0.00447473
0.00447465
0.00447468
0.00447481
0.00447507
0.00447546
0.004476
0.00447621
0.00222892
0.00222885
0.00222875
0.00222872
0.00222873
0.00222882
0.00222898
0.00222922
0.00222955
0.00222968
0.00107407
0.00107403
0.00107398
0.00107396
0.00107397
0.00107402
0.00107411
0.00107426
0.00107445
0.00107453
0.000501219
0.000501197
0.000501171
0.000501162
0.000501171
0.0005012
0.000501252
0.000501331
0.000501437
0.000501486
0.000226727
0.000226715
0.000226702
0.000226698
0.000226704
0.00022672
0.000226748
0.00022679
0.000226847
0.000226874
9.95114e-05
9.95055e-05
9.94995e-05
9.94978e-05
9.95008e-05
9.95092e-05
9.95238e-05
9.95457e-05
9.95748e-05
9.95895e-05
4.24177e-05
4.24148e-05
4.24121e-05
4.24114e-05
4.2413e-05
4.24173e-05
4.24246e-05
4.24354e-05
4.24499e-05
4.24574e-05
1.75762e-05
1.75748e-05
1.75736e-05
1.75734e-05
1.75742e-05
1.75763e-05
1.75798e-05
1.7585e-05
1.75919e-05
1.75956e-05
7.08586e-06
7.08526e-06
7.08474e-06
7.08467e-06
7.08508e-06
7.08605e-06
7.08769e-06
7.0901e-06
7.09329e-06
7.09507e-06
2.78182e-06
2.78156e-06
2.78135e-06
2.78133e-06
2.78152e-06
2.78196e-06
2.7827e-06
2.78378e-06
2.78521e-06
2.78603e-06
1.06438e-06
1.06428e-06
1.06419e-06
1.06419e-06
1.06427e-06
1.06447e-06
1.06479e-06
1.06526e-06
1.06588e-06
1.06624e-06
3.97239e-07
3.97194e-07
3.97161e-07
3.97162e-07
3.97201e-07
3.97284e-07
3.9742e-07
3.97617e-07
3.97878e-07
3.98034e-07
1.44719e-07
1.44702e-07
1.44689e-07
1.44691e-07
1.44707e-07
1.44741e-07
1.44797e-07
1.44878e-07
1.44985e-07
1.45049e-07
5.15051e-08
5.14983e-08
5.14938e-08
5.14946e-08
5.15013e-08
5.15152e-08
5.15374e-08
5.15694e-08
5.16116e-08
5.16376e-08
1.79199e-08
1.79173e-08
1.79157e-08
1.79161e-08
1.79188e-08
1.79242e-08
1.79327e-08
1.79448e-08
1.79604e-08
1.79698e-08
6.0993e-09
6.09838e-09
6.09783e-09
6.09801e-09
6.09902e-09
6.10095e-09
6.10382e-09
6.10743e-09
6.11106e-09
6.11098e-09
2.03224e-09
2.03192e-09
2.03173e-09
2.03179e-09
2.03212e-09
2.03263e-09
2.03298e-09
2.03192e-09
2.02599e-09
2.00888e-09
1.36481
1.36481
1.36481
1.3648
1.3648
1.3648
1.3648
1.3648
1.36481
1.36481
1.10137
1.10137
1.10137
1.10137
1.10137
1.10137
1.10137
1.10137
1.10137
1.10137
0.857724
0.857724
0.857721
0.857719
0.857718
0.857718
0.857719
0.857721
0.857724
0.857724
0.643712
0.643712
0.643709
0.643707
0.643706
0.643706
0.643707
0.64371
0.643713
0.643714
0.465089
0.465088
0.465085
0.465083
0.465082
0.465083
0.465084
0.465087
0.465091
0.465092
0.323308
0.323308
0.323304
0.323303
0.323302
0.323303
0.323304
0.323308
0.323312
0.323313
0.216182
0.216182
0.216179
0.216177
0.216177
0.216178
0.216179
0.216183
0.216187
0.216188
0.139046
0.139046
0.139043
0.139042
0.139042
0.139043
0.139044
0.139047
0.139051
0.139052
0.0860506
0.08605
0.0860484
0.0860476
0.0860475
0.0860481
0.0860495
0.0860518
0.086055
0.0860558
0.0512636
0.0512631
0.051262
0.0512614
0.0512614
0.0512619
0.051263
0.0512649
0.0512673
0.051268
0.0294169
0.0294166
0.0294158
0.0294155
0.0294155
0.0294159
0.0294168
0.0294181
0.0294199
0.0294205
0.0162721
0.0162719
0.0162714
0.0162712
0.0162712
0.0162715
0.0162721
0.0162731
0.0162744
0.0162748
0.00868388
0.0086837
0.00868342
0.00868329
0.00868333
0.00868354
0.00868396
0.0086846
0.00868546
0.00868578
0.00447502
0.00447491
0.00447474
0.00447468
0.00447471
0.00447485
0.00447511
0.00447552
0.00447607
0.00447629
0.00222893
0.00222886
0.00222877
0.00222873
0.00222876
0.00222885
0.00222901
0.00222926
0.00222959
0.00222973
0.00107408
0.00107404
0.00107399
0.00107397
0.00107399
0.00107404
0.00107414
0.00107428
0.00107447
0.00107456
0.000501226
0.000501204
0.000501179
0.000501171
0.000501181
0.000501211
0.000501265
0.000501345
0.000501453
0.000501503
0.000226731
0.000226719
0.000226707
0.000226704
0.000226709
0.000226726
0.000226755
0.000226798
0.000226855
0.000226883
9.95138e-05
9.9508e-05
9.95022e-05
9.95008e-05
9.95041e-05
9.95128e-05
9.95278e-05
9.955e-05
9.95795e-05
9.95945e-05
4.2419e-05
4.24162e-05
4.24136e-05
4.2413e-05
4.24148e-05
4.24192e-05
4.24266e-05
4.24377e-05
4.24523e-05
4.246e-05
1.75769e-05
1.75756e-05
1.75744e-05
1.75742e-05
1.75751e-05
1.75772e-05
1.75808e-05
1.75861e-05
1.75931e-05
1.75969e-05
7.08621e-06
7.08562e-06
7.08513e-06
7.08508e-06
7.08551e-06
7.08651e-06
7.08818e-06
7.09063e-06
7.09386e-06
7.09565e-06
2.78199e-06
2.78174e-06
2.78153e-06
2.78152e-06
2.78173e-06
2.78218e-06
2.78293e-06
2.78403e-06
2.78547e-06
2.78629e-06
1.06446e-06
1.06435e-06
1.06427e-06
1.06427e-06
1.06437e-06
1.06457e-06
1.06489e-06
1.06537e-06
1.066e-06
1.06636e-06
3.97273e-07
3.97229e-07
3.97198e-07
3.97201e-07
3.97241e-07
3.97326e-07
3.97464e-07
3.97664e-07
3.97928e-07
3.98084e-07
1.44734e-07
1.44717e-07
1.44705e-07
1.44707e-07
1.44724e-07
1.44759e-07
1.44816e-07
1.44898e-07
1.45005e-07
1.4507e-07
5.15112e-08
5.15046e-08
5.15003e-08
5.15013e-08
5.15084e-08
5.15225e-08
5.1545e-08
5.15774e-08
5.16199e-08
5.16461e-08
1.79223e-08
1.79198e-08
1.79183e-08
1.79188e-08
1.79216e-08
1.79271e-08
1.79357e-08
1.79479e-08
1.79637e-08
1.79732e-08
6.10026e-09
6.09936e-09
6.09884e-09
6.09906e-09
6.1001e-09
6.10207e-09
6.10498e-09
6.10863e-09
6.11231e-09
6.11225e-09
2.03261e-09
2.03229e-09
2.03211e-09
2.03219e-09
2.03253e-09
2.03305e-09
2.03341e-09
2.03237e-09
2.02645e-09
2.00935e-09
1.36481
1.36481
1.36481
1.3648
1.3648
1.3648
1.3648
1.3648
1.36481
1.36481
1.10137
1.10137
1.10137
1.10137
1.10137
1.10137
1.10137
1.10137
1.10137
1.10137
0.857724
0.857724
0.857721
0.857719
0.857718
0.857718
0.857719
0.857721
0.857724
0.857725
0.643712
0.643712
0.643709
0.643707
0.643706
0.643706
0.643708
0.643711
0.643714
0.643715
0.465089
0.465089
0.465085
0.465083
0.465083
0.465083
0.465085
0.465088
0.465092
0.465093
0.323308
0.323308
0.323305
0.323303
0.323303
0.323303
0.323305
0.323308
0.323313
0.323314
0.216183
0.216182
0.216179
0.216178
0.216178
0.216178
0.21618
0.216183
0.216188
0.216189
0.139047
0.139046
0.139044
0.139043
0.139043
0.139044
0.139045
0.139048
0.139052
0.139053
0.0860509
0.0860504
0.0860489
0.0860481
0.0860481
0.0860488
0.0860502
0.0860526
0.0860558
0.0860566
0.0512639
0.0512635
0.0512624
0.0512619
0.0512619
0.0512625
0.0512636
0.0512655
0.051268
0.0512687
0.0294172
0.0294169
0.0294162
0.0294158
0.0294159
0.0294163
0.0294172
0.0294186
0.0294204
0.029421
0.0162724
0.0162721
0.0162717
0.0162715
0.0162715
0.0162719
0.0162725
0.0162734
0.0162747
0.0162752
0.00868404
0.00868387
0.0086836
0.00868349
0.00868354
0.00868377
0.00868419
0.00868484
0.0086857
0.00868602
0.00447513
0.00447502
0.00447487
0.00447481
0.00447485
0.004475
0.00447527
0.00447568
0.00447623
0.00447645
0.002229
0.00222894
0.00222885
0.00222882
0.00222885
0.00222894
0.0022291
0.00222936
0.00222969
0.00222983
0.00107412
0.00107408
0.00107404
0.00107402
0.00107404
0.00107409
0.00107419
0.00107434
0.00107453
0.00107462
0.00050125
0.00050123
0.000501206
0.0005012
0.000501211
0.000501242
0.000501296
0.000501377
0.000501485
0.000501535
0.000226745
0.000226734
0.000226722
0.00022672
0.000226726
0.000226743
0.000226772
0.000226816
0.000226873
0.000226901
9.95212e-05
9.95157e-05
9.95103e-05
9.95092e-05
9.95128e-05
9.95217e-05
9.95368e-05
9.95591e-05
9.95886e-05
9.96036e-05
4.24228e-05
4.24201e-05
4.24176e-05
4.24173e-05
4.24192e-05
4.24236e-05
4.24312e-05
4.24422e-05
4.24569e-05
4.24645e-05
1.75787e-05
1.75775e-05
1.75764e-05
1.75763e-05
1.75772e-05
1.75794e-05
1.7583e-05
1.75883e-05
1.75953e-05
1.75991e-05
7.08709e-06
7.08653e-06
7.08607e-06
7.08605e-06
7.08651e-06
7.08753e-06
7.08921e-06
7.09166e-06
7.09489e-06
7.09668e-06
2.78239e-06
2.78215e-06
2.78196e-06
2.78196e-06
2.78218e-06
2.78264e-06
2.7834e-06
2.78449e-06
2.78594e-06
2.78676e-06
1.06464e-06
1.06454e-06
1.06446e-06
1.06447e-06
1.06457e-06
1.06477e-06
1.0651e-06
1.06557e-06
1.0662e-06
1.06656e-06
3.97349e-07
3.97308e-07
3.97279e-07
3.97284e-07
3.97326e-07
3.97412e-07
3.97551e-07
3.97751e-07
3.98014e-07
3.9817e-07
1.44766e-07
1.44749e-07
1.44739e-07
1.44741e-07
1.44759e-07
1.44795e-07
1.44852e-07
1.44933e-07
1.45041e-07
1.45106e-07
5.1524e-08
5.15177e-08
5.15138e-08
5.15152e-08
5.15225e-08
5.15367e-08
5.15593e-08
5.15917e-08
5.16342e-08
5.16603e-08
1.79273e-08
1.7925e-08
1.79236e-08
1.79242e-08
1.79271e-08
1.79326e-08
1.79413e-08
1.79535e-08
1.79693e-08
1.79787e-08
6.10219e-09
6.10133e-09
6.10086e-09
6.10112e-09
6.1022e-09
6.10419e-09
6.10711e-09
6.11075e-09
6.11442e-09
6.11435e-09
2.03332e-09
2.03302e-09
2.03286e-09
2.03295e-09
2.0333e-09
2.03384e-09
2.0342e-09
2.03315e-09
2.02723e-09
2.01011e-09
1.36481
1.36481
1.36481
1.3648
1.3648
1.3648
1.3648
1.36481
1.36481
1.36481
1.10137
1.10137
1.10137
1.10137
1.10137
1.10137
1.10137
1.10137
1.10137
1.10137
0.857724
0.857724
0.857721
0.85772
0.857719
0.857719
0.857721
0.857723
0.857725
0.857726
0.643713
0.643713
0.64371
0.643708
0.643707
0.643708
0.643709
0.643712
0.643716
0.643716
0.46509
0.46509
0.465086
0.465085
0.465084
0.465085
0.465087
0.46509
0.465094
0.465095
0.323309
0.323309
0.323306
0.323305
0.323304
0.323305
0.323307
0.32331
0.323315
0.323316
0.216184
0.216183
0.216181
0.21618
0.216179
0.21618
0.216182
0.216185
0.21619
0.21619
0.139048
0.139047
0.139045
0.139044
0.139044
0.139045
0.139047
0.13905
0.139054
0.139054
0.0860519
0.0860515
0.0860501
0.0860495
0.0860495
0.0860502
0.0860517
0.0860541
0.0860572
0.086058
0.0512647
0.0512643
0.0512634
0.051263
0.051263
0.0512636
0.0512648
0.0512667
0.0512691
0.0512698
0.0294179
0.0294176
0.0294169
0.0294167
0.0294168
0.0294172
0.0294181
0.0294195
0.0294213
0.0294219
0.0162728
0.0162726
0.0162722
0.0162721
0.0162721
0.0162725
0.0162731
0.0162741
0.0162753
0.0162758
0.00868437
0.00868422
0.00868398
0.00868389
0.00868396
0.00868419
0.00868461
0.00868526
0.00868611
0.00868642
0.00447535
0.00447525
0.00447511
0.00447507
0.00447511
0.00447527
0.00447554
0.00447595
0.00447649
0.0044767
0.00222913
0.00222908
0.002229
0.00222898
0.00222901
0.0022291
0.00222927
0.00222952
0.00222985
0.00222998
0.0010742
0.00107417
0.00107412
0.00107411
0.00107414
0.00107419
0.00107429
0.00107443
0.00107462
0.00107471
0.000501295
0.000501277
0.000501256
0.000501252
0.000501265
0.000501296
0.000501351
0.000501431
0.000501537
0.000501586
0.000226769
0.000226759
0.000226749
0.000226748
0.000226755
0.000226772
0.000226801
0.000226844
0.000226901
0.000226928
9.9534e-05
9.9529e-05
9.95243e-05
9.95238e-05
9.95278e-05
9.95368e-05
9.95518e-05
9.95739e-05
9.9603e-05
9.96176e-05
4.24292e-05
4.24268e-05
4.24247e-05
4.24246e-05
4.24266e-05
4.24312e-05
4.24386e-05
4.24496e-05
4.2464e-05
4.24715e-05
1.75818e-05
1.75807e-05
1.75798e-05
1.75798e-05
1.75808e-05
1.7583e-05
1.75866e-05
1.75918e-05
1.75987e-05
1.76024e-05
7.08855e-06
7.08805e-06
7.08765e-06
7.08769e-06
7.08818e-06
7.08921e-06
7.09088e-06
7.0933e-06
7.09649e-06
7.09824e-06
2.78306e-06
2.78284e-06
2.78268e-06
2.7827e-06
2.78293e-06
2.7834e-06
2.78414e-06
2.78523e-06
2.78665e-06
2.78746e-06
1.06493e-06
1.06484e-06
1.06478e-06
1.06479e-06
1.06489e-06
1.0651e-06
1.06542e-06
1.06589e-06
1.06651e-06
1.06687e-06
3.97473e-07
3.97435e-07
3.97411e-07
3.9742e-07
3.97464e-07
3.97551e-07
3.97688e-07
3.97886e-07
3.98146e-07
3.98299e-07
1.44817e-07
1.44802e-07
1.44793e-07
1.44797e-07
1.44816e-07
1.44852e-07
1.44908e-07
1.44989e-07
1.45095e-07
1.45159e-07
5.15445e-08
5.15388e-08
5.15356e-08
5.15375e-08
5.15451e-08
5.15594e-08
5.15818e-08
5.16138e-08
5.16558e-08
5.16814e-08
1.79353e-08
1.79332e-08
1.79321e-08
1.79329e-08
1.79359e-08
1.79414e-08
1.795e-08
1.79621e-08
1.79776e-08
1.79869e-08
6.10522e-09
6.10444e-09
6.10406e-09
6.1044e-09
6.10551e-09
6.10751e-09
6.11041e-09
6.114e-09
6.11758e-09
6.11744e-09
2.03445e-09
2.03417e-09
2.03404e-09
2.03416e-09
2.03452e-09
2.03506e-09
2.03541e-09
2.03434e-09
2.02838e-09
2.01123e-09
1.36481
1.36481
1.36481
1.36481
1.3648
1.3648
1.36481
1.36481
1.36481
1.36481
1.10137
1.10137
1.10137
1.10137
1.10137
1.10137
1.10137
1.10137
1.10137
1.10138
0.857725
0.857725
0.857723
0.857721
0.857721
0.857721
0.857723
0.857725
0.857727
0.857728
0.643714
0.643715
0.643712
0.64371
0.64371
0.643711
0.643712
0.643715
0.643718
0.643719
0.465091
0.465092
0.465089
0.465088
0.465087
0.465088
0.46509
0.465093
0.465097
0.465098
0.323311
0.323311
0.323309
0.323308
0.323308
0.323308
0.32331
0.323314
0.323318
0.323318
0.216185
0.216185
0.216184
0.216183
0.216183
0.216183
0.216185
0.216188
0.216193
0.216193
0.139049
0.139049
0.139048
0.139047
0.139047
0.139048
0.13905
0.139053
0.139056
0.139057
0.0860534
0.0860533
0.0860522
0.0860517
0.0860518
0.0860526
0.0860541
0.0860564
0.0860594
0.08606
0.051266
0.0512658
0.051265
0.0512647
0.0512649
0.0512655
0.0512667
0.0512685
0.0512708
0.0512714
0.0294188
0.0294187
0.0294182
0.029418
0.0294181
0.0294186
0.0294195
0.0294208
0.0294225
0.029423
0.0162735
0.0162734
0.0162731
0.016273
0.0162731
0.0162734
0.0162741
0.016275
0.0162762
0.0162766
0.00868485
0.00868475
0.00868457
0.00868452
0.0086846
0.00868484
0.00868526
0.00868588
0.0086867
0.00868697
0.00447566
0.0044756
0.00447549
0.00447546
0.00447552
0.00447568
0.00447595
0.00447634
0.00447686
0.00447705
0.00222933
0.00222929
0.00222923
0.00222922
0.00222926
0.00222936
0.00222952
0.00222976
0.00223007
0.0022302
0.00107431
0.00107429
0.00107426
0.00107426
0.00107428
0.00107434
0.00107443
0.00107457
0.00107476
0.00107483
0.000501361
0.000501348
0.000501332
0.000501331
0.000501345
0.000501377
0.000501431
0.000501509
0.000501611
0.000501656
0.000226804
0.000226798
0.00022679
0.00022679
0.000226798
0.000226816
0.000226844
0.000226886
0.00022694
0.000226966
9.95524e-05
9.95489e-05
9.95454e-05
9.95457e-05
9.955e-05
9.95591e-05
9.95739e-05
9.95953e-05
9.96234e-05
9.9637e-05
4.24385e-05
4.24367e-05
4.24352e-05
4.24354e-05
4.24377e-05
4.24422e-05
4.24496e-05
4.24602e-05
4.24742e-05
4.24811e-05
1.75863e-05
1.75855e-05
1.75848e-05
1.7585e-05
1.75861e-05
1.75883e-05
1.75918e-05
1.75969e-05
1.76036e-05
1.76071e-05
7.09065e-06
7.09027e-06
7.08999e-06
7.0901e-06
7.09063e-06
7.09166e-06
7.0933e-06
7.09565e-06
7.09874e-06
7.10038e-06
2.784e-06
2.78384e-06
2.78373e-06
2.78378e-06
2.78403e-06
2.78449e-06
2.78523e-06
2.78628e-06
2.78766e-06
2.78842e-06
1.06534e-06
1.06528e-06
1.06523e-06
1.06526e-06
1.06537e-06
1.06557e-06
1.06589e-06
1.06635e-06
1.06695e-06
1.06729e-06
3.97648e-07
3.9762e-07
3.97604e-07
3.97617e-07
3.97664e-07
3.97751e-07
3.97886e-07
3.98079e-07
3.98331e-07
3.98476e-07
1.44889e-07
1.44878e-07
1.44872e-07
1.44878e-07
1.44898e-07
1.44934e-07
1.44989e-07
1.45068e-07
1.45171e-07
1.45231e-07
5.15733e-08
5.1569e-08
5.1567e-08
5.15696e-08
5.15776e-08
5.15919e-08
5.1614e-08
5.16452e-08
5.16859e-08
5.17102e-08
1.79465e-08
1.79449e-08
1.79443e-08
1.79454e-08
1.79485e-08
1.7954e-08
1.79624e-08
1.79742e-08
1.79893e-08
1.7998e-08
6.10947e-09
6.10888e-09
6.10866e-09
6.1091e-09
6.11026e-09
6.11225e-09
6.11509e-09
6.11857e-09
6.12198e-09
6.12165e-09
2.03602e-09
2.03581e-09
2.03574e-09
2.03589e-09
2.03627e-09
2.0368e-09
2.03713e-09
2.03602e-09
2.02999e-09
2.01276e-09
1.36481
1.36481
1.36481
1.36481
1.36481
1.36481
1.36481
1.36481
1.36481
1.36481
1.10137
1.10138
1.10137
1.10137
1.10137
1.10137
1.10137
1.10137
1.10138
1.10138
0.857726
0.857727
0.857725
0.857724
0.857724
0.857724
0.857725
0.857727
0.85773
0.85773
0.643715
0.643717
0.643715
0.643714
0.643713
0.643714
0.643716
0.643718
0.643721
0.643722
0.465093
0.465094
0.465092
0.465091
0.465091
0.465092
0.465094
0.465097
0.465101
0.465101
0.323313
0.323314
0.323313
0.323312
0.323312
0.323313
0.323315
0.323318
0.323322
0.323322
0.216188
0.216188
0.216187
0.216187
0.216187
0.216188
0.21619
0.216193
0.216196
0.216196
0.139051
0.139052
0.139051
0.139051
0.139051
0.139052
0.139054
0.139056
0.139059
0.13906
0.0860552
0.0860556
0.086055
0.0860547
0.086055
0.0860558
0.0860572
0.0860594
0.0860621
0.0860624
0.0512674
0.0512677
0.0512673
0.0512671
0.0512673
0.051268
0.0512691
0.0512708
0.051273
0.0512733
0.02942
0.0294201
0.0294198
0.0294198
0.0294199
0.0294204
0.0294213
0.0294225
0.0294242
0.0294244
0.0162744
0.0162744
0.0162743
0.0162742
0.0162744
0.0162747
0.0162753
0.0162762
0.0162774
0.0162776
0.00868543
0.00868546
0.00868536
0.00868535
0.00868546
0.0086857
0.00868611
0.0086867
0.00868745
0.00868763
0.00447604
0.00447605
0.004476
0.004476
0.00447607
0.00447623
0.00447649
0.00447686
0.00447734
0.00447747
0.00222956
0.00222957
0.00222954
0.00222955
0.00222959
0.00222969
0.00222985
0.00223007
0.00223037
0.00223045
0.00107445
0.00107446
0.00107444
0.00107445
0.00107447
0.00107453
0.00107462
0.00107476
0.00107493
0.00107498
0.00050144
0.00050144
0.000501434
0.000501437
0.000501453
0.000501485
0.000501537
0.000501611
0.000501706
0.000501739
0.000226848
0.000226848
0.000226845
0.000226847
0.000226855
0.000226873
0.000226901
0.00022694
0.000226991
0.000227011
9.95752e-05
9.95749e-05
9.95735e-05
9.95748e-05
9.95795e-05
9.95886e-05
9.9603e-05
9.96234e-05
9.96496e-05
9.96602e-05
4.24499e-05
4.24497e-05
4.24492e-05
4.24499e-05
4.24523e-05
4.24569e-05
4.2464e-05
4.24742e-05
4.24872e-05
4.24927e-05
1.75919e-05
1.75918e-05
1.75915e-05
1.75919e-05
1.75931e-05
1.75953e-05
1.75987e-05
1.76036e-05
1.76098e-05
1.76126e-05
7.09324e-06
7.09319e-06
7.0931e-06
7.09329e-06
7.09386e-06
7.09489e-06
7.09649e-06
7.09874e-06
7.10162e-06
7.10297e-06
2.78517e-06
2.78515e-06
2.78512e-06
2.78521e-06
2.78547e-06
2.78594e-06
2.78665e-06
2.78766e-06
2.78896e-06
2.78958e-06
1.06586e-06
1.06585e-06
1.06584e-06
1.06588e-06
1.066e-06
1.0662e-06
1.06651e-06
1.06695e-06
1.06751e-06
1.06779e-06
3.97866e-07
3.97861e-07
3.97859e-07
3.97878e-07
3.97928e-07
3.98014e-07
3.98146e-07
3.98331e-07
3.98567e-07
3.98689e-07
1.44979e-07
1.44977e-07
1.44976e-07
1.44985e-07
1.45005e-07
1.45041e-07
1.45095e-07
1.45171e-07
1.45267e-07
1.45318e-07
5.16093e-08
5.16085e-08
5.16085e-08
5.1612e-08
5.16203e-08
5.16346e-08
5.16561e-08
5.1686e-08
5.17244e-08
5.1745e-08
1.79605e-08
1.79602e-08
1.79603e-08
1.79618e-08
1.7965e-08
1.79705e-08
1.79787e-08
1.799e-08
1.80042e-08
1.80116e-08
6.11477e-09
6.11467e-09
6.11472e-09
6.11527e-09
6.11648e-09
6.11846e-09
6.12122e-09
6.12452e-09
6.1276e-09
6.12675e-09
2.03798e-09
2.03794e-09
2.03796e-09
2.03816e-09
2.03855e-09
2.03908e-09
2.03939e-09
2.03821e-09
2.03205e-09
2.01462e-09
1.36481
1.36481
1.36481
1.36481
1.36481
1.36481
1.36481
1.36481
1.36481
1.36481
1.10137
1.10137
1.10137
1.10137
1.10137
1.10137
1.10137
1.10138
1.10138
1.10138
0.857725
0.857726
0.857725
0.857724
0.857724
0.857725
0.857726
0.857728
0.85773
0.857729
0.643715
0.643716
0.643715
0.643714
0.643714
0.643715
0.643716
0.643719
0.643722
0.643721
0.465092
0.465093
0.465093
0.465092
0.465092
0.465093