/*--------------------------------*- C++ -*----------------------------------*\
| =========                 |                                                 |
| \\      /  F ield         | OpenFOAM: The Open Source CFD Toolbox           |
|  \\    /   O peration     | Version:  v1812                                 |
|   \\  /    A nd           | Web:      www.OpenFOAM.com                      |
|    \\/     M anipulation  |                                                 |
\*---------------------------------------------------------------------------*/
FoamFile
{
    version     2.0;
    format      ascii;
    class       surfaceScalarField;
    location    "80";
    object      phi;
}
// * * * * * * * * * * * * * * * * * * * * * * * * * * * * * * * * * * * * * //

dimensions      [0 3 -1 0 0 0 0];
oriented        oriented;


internalField   nonuniform List<scalar> 
1890
(
0.0092501688
0.00074983118
0.0082910045
0.00095916431
0.007362155
0.00092884952
0.0065322493
0.00082990567
0.0058250505
0.00070719882
0.0052477517
0.00057729869
0.0047933607
0.00045439095
0.0044450115
0.00034834924
0.004182227
0.00026278462
0.0039852755
0.00019695172
0.0038371618
0.00014811392
0.0037244022
0.00011275959
0.0036367605
8.7641445e-05
0.0035668195
6.9940577e-05
0.0035093734
5.7445542e-05
0.0034608563
4.8516945e-05
0.0034188674
4.1989213e-05
0.0033818063
3.7061838e-05
0.0033486064
3.3200699e-05
0.0033185488
3.0057917e-05
0.0032911372
2.7411398e-05
0.0032660154
2.5121124e-05
0.0032429158
2.3098782e-05
0.0032216277
2.1287647e-05
0.0032019777
1.965004e-05
0.003183818
1.8160054e-05
0.0031670194
1.6799219e-05
0.0031514661
1.5553718e-05
0.0031370539
1.4412429e-05
0.0031236883
1.3365622e-05
0.0031112838
1.2404326e-05
0.0030997634
1.1520156e-05
0.0030890579
1.070544e-05
0.0030791045
9.9533551e-06
0.0030698466
9.2580501e-06
0.0030612321
8.6146558e-06
0.0030532129
8.0192972e-06
0.003045744
7.4689691e-06
0.0030387826
6.9613736e-06
0.0030322879
6.4945471e-06
0.0030262212
6.0664294e-06
0.0030205467
5.6743212e-06
0.003015232
5.3144822e-06
0.0030102499
4.9818647e-06
0.0030055796
4.6702323e-06
0.0030012071
4.3725042e-06
0.0029971256
4.0815008e-06
0.002993335
3.7906881e-06
0.0029898399
3.4950982e-06
0.0029866481
3.1918722e-06
0.0029837673
2.8807449e-06
0.0029812033
2.5639097e-06
0.0029789574
2.2458186e-06
0.0029770249
1.9323749e-06
0.0029753944
1.6303367e-06
0.002974048
1.3462418e-06
0.0029729618
1.0859672e-06
0.0029721079
8.5379862e-07
0.0029714552
6.5258302e-07
0.0029709721
4.8305038e-07
0.0029706274
3.4470223e-07
0.0029703922
2.3513906e-07
0.0029702406
1.5163985e-07
0.0029701505
9.0050738e-08
0.0029701034
4.7048169e-08
0.0029700853
1.8092141e-08
0.0029700847
5.902609e-10
0.0029700942
-9.6033626e-09
0.0029701077
-1.3595183e-08
0.0029701226
-1.5059443e-08
0.0029701359
-1.332597e-08
0.0029701478
-1.2053877e-08
0.0029701564
-8.6664198e-09
0.0029701638
-7.5908231e-09
0.0029701678
-4.082382e-09
0.0029701721
-4.3365432e-09
0.0029701729
-8.2767284e-10
0.0029701756
-2.7648809e-09
0.0029701743
1.2723071e-09
0.0029701768
-2.5590602e-09
0.0029701739
2.7985e-09
0.0029701772
-3.3043603e-09
0.0029701729
4.297445e-09
0.0029701776
-4.7050805e-09
0.0029701714
6.1622421e-09
0.0029701779
-6.5059572e-09
0.0029701692
8.6355593e-09
0.0029701774
-8.1765073e-09
0.0029701655
1.182262e-08
0.0029701737
-8.1701459e-09
0.0029701579
1.5748091e-08
0.0029701601
-2.1899344e-09
0.0029701397
2.0554159e-08
0.0029701199
2.0021227e-08
0.0029700949
2.5171744e-08
0.002970021
7.3860459e-08
0.0029700147
6.005373e-09
0.0029699002
1.1428515e-07
0.0029701441
-2.4403931e-07
-2.1065282e-07
0.010379776
0.00037005492
0.010574967
0.00076397368
0.01062758
0.00087623601
0.01056664
0.00089084618
0.010429447
0.00084439179
0.010247193
0.00075955214
0.010042592
0.00065899279
0.009832618
0.00055832286
0.0096291832
0.0004662194
0.0094394518
0.00038668322
0.009266948
0.00032061791
0.0091125604
0.00026714715
0.0089756353
0.00022456645
0.0088546743
0.00019090128
0.0087478443
0.00016427532
0.0086532844
0.00014307672
0.00856927
0.00012600379
0.0084942836
0.00011204859
0.0084270319
0.00010045288
0.0083664325
9.0657521e-05
0.0083115884
8.225536e-05
0.0082617577
7.4951392e-05
0.0082163253
6.8530774e-05
0.0081747781
6.2834623e-05
0.0081366851
5.7743049e-05
0.0081016814
5.3163973e-05
0.0080694553
4.9025666e-05
0.0080397378
4.5271456e-05
0.0080122949
4.1855487e-05
0.0079869209
3.8739506e-05
0.0079634345
3.5890627e-05
0.0079416745
3.3280083e-05
0.0079214972
3.0882718e-05
0.0079027737
2.8676855e-05
0.0078853875
2.6644291e-05
0.0078692321
2.4770142e-05
0.007854209
2.3042485e-05
0.0078402264
2.1451587e-05
0.0078271989
1.9988891e-05
0.0078150477
1.8645626e-05
0.0078037025
1.741156e-05
0.0077931029
1.6273854e-05
0.0077832005
1.5216705e-05
0.0077739608
1.4221567e-05
0.0077653625
1.3268415e-05
0.0077573975
1.2337464e-05
0.0077500676
1.1411443e-05
0.0077433807
1.0477566e-05
0.0077373466
9.5292633e-06
0.0077319716
8.5668285e-06
0.0077272549
7.5974317e-06
0.0077231849
6.633841e-06
0.0077197377
5.6928655e-06
0.0077168771
4.7928585e-06
0.0077145555
3.9518297e-06
0.0077127166
3.1850194e-06
0.0077112985
2.5040001e-06
0.007710237
1.9151674e-06
0.0077094691
1.4204438e-06
0.0077089355
1.0166129e-06
0.0077085827
6.974662e-07
0.0077083646
4.5320933e-07
0.0077082426
2.7361596e-07
0.0077081861
1.4653629e-07
0.0077081712
6.1884032e-08
0.0077081809
8.391345e-09
0.0077082026
-2.1194405e-08
0.0077082288
-3.5879519e-08
0.0077082542
-3.904651e-08
0.0077082768
-3.7706216e-08
0.0077082948
-3.1374555e-08
0.007708309
-2.6325091e-08
0.0077083187
-1.8444723e-08
0.0077083261
-1.4972917e-08
0.0077083299
-8.0103303e-09
0.0077083333
-7.6987747e-09
0.0077083338
-1.4049909e-09
0.0077083355
-4.4733076e-09
0.0077083343
2.4776601e-09
0.0077083358
-4.1445001e-09
0.0077083334
5.1859711e-09
0.0077083358
-5.7317263e-09
0.0077083321
8.0209629e-09
0.0077083361
-8.7546737e-09
0.0077083303
1.2014183e-08
0.0077083368
-1.3086154e-08
0.0077083273
1.8169239e-08
0.0077083376
-1.848144e-08
0.0077083216
2.7852788e-08
0.0077083368
-2.3441516e-08
0.007708309
4.3583085e-08
0.007708329
-2.2222992e-08
0.0077082785
7.1090868e-08
0.0077082959
2.7418725e-09
0.0077081967
1.244549e-07
0.0077081738
9.6714809e-08
0.007707945
2.3470812e-07
0.007707709
3.5008126e-07
0.0077070026
4.6228683e-07
8.4617939e-07
0.010194547
0.00017550777
0.010510297
0.00044822425
0.010823883
0.00056264936
0.011103868
0.00061086184
0.011333741
0.00061451861
0.011509103
0.00058418988
0.011633657
0.0005344385
0.011714988
0.0004769917
0.01176189
0.00041931742
0.011782797
0.00036577659
0.011784951
0.000318464
0.011774172
0.00027792682
0.011754925
0.00024381297
0.011730492
0.00021533372
0.011703199
0.00019156803
0.011674643
0.00017163282
0.011645887
0.0001547604
0.011617614
0.00014032132
0.011590249
0.00012781833
0.011564039
0.00011686815
0.011539114
0.00010717982
0.011515531
9.853378e-05
0.011493298
9.0763407e-05
0.011472393
8.3740151e-05
0.011452773
7.736273e-05
0.011434387
7.1549988e-05
0.011417177
6.6236149e-05
0.011401081
6.1367259e-05
0.011386039
5.6898144e-05
0.011371988
5.2789918e-05
0.011358871
4.9008225e-05
0.011346628
4.5522343e-05
0.011335206
4.230497e-05
0.011324551
3.933235e-05
0.01131461
3.6584409e-05
0.011305336
3.4044562e-05
0.01129668
3.1699087e-05
0.011288595
2.9535909e-05
0.011281041
2.7543058e-05
0.01127398
2.570689e-05
0.011267381
2.4010669e-05
0.011261221
2.2433693e-05
0.011255486
2.0951543e-05
0.01125017
1.9537288e-05
0.011245275
1.8163815e-05
0.011240805
1.6806577e-05
0.01123677
1.5446587e-05
0.011233175
1.4072671e-05
0.011230021
1.2682996e-05
0.011227303
1.1285048e-05
0.011225006
9.8946546e-06
0.011223106
8.5335717e-06
0.011221572
7.2268188e-06
0.011220366
5.9993029e-06
0.011219444
4.8733256e-06
0.011218763
3.8659426e-06
0.011218279
2.9881314e-06
0.01121795
2.243647e-06
0.011217741
1.6302247e-06
0.011217618
1.1394878e-06
0.011217556
7.5967266e-07
0.011217533
4.754686e-07
0.011217535
2.7160592e-07
0.01121755
1.3148899e-07
0.011217571
4.1452599e-08
0.011217592
-1.2676673e-08
0.011217611
-4.015822e-08
0.011217626
-5.1579002e-08
0.011217638
-5.1105895e-08
0.011217647
-4.6509031e-08
0.011217653
-3.7294348e-08
0.011217657
-3.0189326e-08
0.011217659
-2.0555367e-08
0.01121766
-1.621422e-08
0.01121766
-8.2570006e-09
0.011217661
-7.9470956e-09
0.01121766
-8.8962396e-10
0.01121766
-4.6444134e-09
0.011217659
3.3652577e-09
0.01121766
-4.7457965e-09
0.011217659
6.5525956e-09
0.01121766
-7.2042906e-09
0.011217658
1.038399e-08
0.011217661
-1.1790842e-08
0.011217656
1.6418781e-08
0.011217662
-1.898827e-08
0.011217654
2.6556221e-08
0.011217665
-2.9655589e-08
0.011217649
4.3769505e-08
0.01121767
-4.4049577e-08
0.01121764
7.3419645e-08
0.011217676
-5.8565197e-08
0.011217621
1.2644376e-07
0.011217679
-5.4857442e-08
0.011217573
2.2978134e-07
0.011217632
3.7908819e-08
0.011217397
4.700981e-07
0.011217261
4.8508035e-07
0.011216554
1.169984e-06
2.1008511e-06
0.010101125
7.4383129e-05
0.010347883
0.00020146599
0.010645913
0.00026461963
0.010960847
0.00029592755
0.011269219
0.00030614635
0.011554366
0.00029904322
0.011807917
0.00028088738
0.012027601
0.00025730764
0.012214837
0.00023208137
0.012373018
0.00020759569
0.012506297
0.00018518552
0.012618823
0.00016540063
0.012714342
0.00014829347
0.012796031
0.00013364425
0.012866483
0.00012111618
0.012927765
0.00011035135
0.012981504
0.0001010213
0.013028977
9.2848006e-05
0.013071188
8.560783e-05
0.01310893
7.9126882e-05
0.013142836
7.3273003e-05
0.013173423
6.794691e-05
0.013201112
6.3073758e-05
0.013226256
5.859604e-05
0.01324915
5.4468444e-05
0.013270046
5.0654456e-05
0.013289158
4.7124229e-05
0.013306673
4.3852961e-05
0.013322751
4.081947e-05
0.013337536
3.8005016e-05
0.013351152
3.53925e-05
0.013363708
3.2966165e-05
0.013375301
3.0711692e-05
0.013386017
2.8616469e-05
0.013395932
2.6669781e-05
0.013405114
2.4862712e-05
0.013413625
2.3187651e-05
0.013421524
2.1637386e-05
0.013428863
2.0203956e-05
0.013435692
1.8877455e-05
0.013442058
1.7645185e-05
0.013448
1.6491334e-05
0.013453554
1.5397515e-05
0.013458747
1.4344008e-05
0.013463599
1.3311728e-05
0.013468122
1.2284352e-05
0.013472318
1.1250433e-05
0.013476186
1.0204834e-05
0.013479719
9.1494639e-06
0.013482911
8.092883e-06
0.013485757
7.0491824e-06
0.013488254
6.035965e-06
0.013490409
5.0722332e-06
0.013492232
4.1759427e-06
0.013493743
3.3623109e-06
0.013494967
2.6421171e-06
0.013495934
2.0213698e-06
0.013496677
1.5007358e-06
0.01349723
1.07664e-06
0.013497628
7.4137384e-07
0.013497903
4.8513976e-07
0.013498082
2.9601497e-07
0.013498192
1.62447e-07
0.013498251
7.2321342e-08
0.013498276
1.5803514e-08
0.013498281
-1.7019278e-08
0.013498273
-3.2564592e-08
0.01349826
-3.7987766e-08
0.013498245
-3.6049383e-08
0.01349823
-3.1874962e-08
0.013498218
-2.5011689e-08
0.013498207
-1.989212e-08
0.0134982
-1.3249874e-08
0.013498194
-1.0358306e-08
0.013498191
-5.0039947e-09
0.013498188
-4.9934341e-09
0.013498187
-1.8131723e-10
0.013498186
-3.0506181e-09
0.013498186
2.6466428e-09
0.013498185
-3.4421528e-09
0.013498187
4.965432e-09
0.013498185
-5.5613874e-09
0.013498187
8.0530151e-09
0.013498185
-9.4669876e-09
0.013498188
1.3192418e-08
0.013498185
-1.5854322e-08
0.013498189
2.2089981e-08
0.013498186
-2.5920063e-08
0.013498192
3.7453295e-08
0.013498189
-4.0790021e-08
0.013498198
6.3915447e-08
0.013498199
-5.9174508e-08
0.013498215
1.1011871e-07
0.013498229
-6.8489438e-08
0.013498262
1.9650419e-07
0.01349831
-1.0146244e-08
0.013498385
3.9562022e-07
0.013498506
3.6372245e-07
0.013498661
1.0148085e-06
1.8752224e-06
0.010074383
-4.7626837e-12
0.010275849
-1.370019e-13
0.010540469
1.5607086e-12
0.010836396
1.9592145e-12
0.011142543
1.7163425e-12
0.011441586
1.7869983e-12
0.011722473
2.6499133e-12
0.011979781
2.0770431e-12
0.012211862
3.103186e-12
0.012419458
4.3905128e-12
0.012604644
5.8334734e-12
0.012770044
8.7097579e-12
0.012918338
6.2932122e-12
0.013051982
3.2527583e-12
0.013173098
-2.0046046e-12
0.013283449
-5.5204102e-12
0.01338447
-9.6595892e-13
0.013477319
6.2723997e-12
0.013562927
1.7986315e-11
0.013642054
2.8185735e-11
0.013715327
3.4409401e-11
0.013783273
4.2155377e-11
0.013846347
4.8145232e-11
0.013904942
5.7532338e-11
0.013959411
6.4307583e-11
0.014010065
6.3790319e-11
0.01405719
5.3769833e-11
0.014101043
2.8592075e-11
0.014141862
-5.1450743e-12
0.014179867
-4.9396562e-11
0.01421526
-9.4508667e-11
0.014248226
-1.4319968e-10
0.014278938
-1.8774853e-10
0.014307555
-2.3231324e-10
0.014334225
-2.7028894e-10
0.014359088
-3.0490388e-10
0.014382276
-3.3068826e-10
0.014403914
-3.4968203e-10
0.014424118
-3.591723e-10
0.014442996
-3.6100065e-10
0.014460641
-3.5545738e-10
0.014477133
-3.4560699e-10
0.014492531
-3.3292553e-10
0.014506875
-3.2093877e-10
0.014520187
-3.0923795e-10
0.014532472
-2.9927749e-10
0.014543722
-2.8953551e-10
0.014553928
-2.7829e-10
0.014563077
-2.6652753e-10
0.01457117
-2.479114e-10
0.01457822
-2.3014815e-10
0.014584256
-2.0191815e-10
0.014589329
-1.7975627e-10
0.014593505
-1.4696868e-10
0.014596867
-1.2771997e-10
0.014599509
-9.9808843e-11
0.014601531
-9.1372781e-11
0.014603032
-7.5097976e-11
0.014604108
-8.0354306e-11
0.01460485
-7.641374e-11
0.014605335
-9.2078027e-11
0.014605631
-9.4627358e-11
0.014605794
-1.1304442e-10
0.014605866
-1.1444785e-10
0.014605882
-1.2874935e-10
0.014605865
-1.2310424e-10
0.014605833
-1.2960576e-10
0.014605795
-1.1555723e-10
0.014605759
-1.1501547e-10
0.014605727
-9.4455103e-11
0.014605703
-8.9900123e-11
0.014605683
-6.6892706e-11
0.01460567
-6.2312273e-11
0.014605659
-4.0282565e-11
0.014605654
-3.8353555e-11
0.014605649
-1.9998265e-11
0.014605649
-2.2406705e-11
0.014605646
-8.4057291e-12
0.014605649
-1.4890632e-11
0.014605645
-5.0303496e-12
0.01460565
-1.4593648e-11
0.014605645
-6.6105765e-12
0.014605653
-1.6218029e-11
0.014605643
-6.805755e-12
0.014605657
-1.3490813e-11
0.014605641
-5.1261761e-13
0.014605663
-4.577234e-12
0.014605637
7.9837184e-12
0.014605674
1.7099484e-12
0.014605634
7.2656802e-12
0.014605697
-5.1139562e-12
0.014605638
-9.0925828e-12
0.014605749
-2.7893506e-11
0.01460568
-2.9961771e-11
0.014605877
-4.3785189e-11
0.014605867
-2.9785157e-11
0.014606262
-2.5464414e-11
0.014606626
-8.6329666e-12
0.014607641
2.744106e-12
2.2217196e-12
0.010074383
-7.4383138e-05
0.010275849
-0.00020146599
0.010540469
-0.00026461962
0.010836396
-0.00029592755
0.011142543
-0.00030614635
0.011441586
-0.00029904321
0.011722473
-0.00028088738
0.011979781
-0.00025730763
0.012211862
-0.00023208137
0.012419458
-0.00020759568
0.012604644
-0.00018518551
0.012770044
-0.00016540061
0.012918338
-0.00014829345
0.013051982
-0.00013364424
0.013173098
-0.00012111618
0.013283449
-0.00011035136
0.01338447
-0.0001010213
0.013477319
-9.2847998e-05
0.013562927
-8.5607806e-05
0.013642054
-7.9126839e-05
0.013715327
-7.3272941e-05
0.013783273
-6.7946826e-05
0.013846347
-6.3073653e-05
0.013904943
-5.8595915e-05
0.013959411
-5.446831e-05
0.014010065
-5.0654327e-05
0.01405719
-4.7124126e-05
0.014101043
-4.3852905e-05
0.014141862
-4.0819477e-05
0.014179867
-3.80051e-05
0.01421526
-3.5392666e-05
0.014248226
-3.2966419e-05
0.014278938
-3.0712032e-05
0.014307554
-2.8616895e-05
0.014334224
-2.6670282e-05
0.014359087
-2.4863281e-05
0.014382275
-2.3188268e-05
0.014403913
-2.1638038e-05
0.014424117
-2.0204622e-05
0.014442995
-1.8878122e-05
0.014460641
-1.7645839e-05
0.014477132
-1.6491965e-05
0.01449253
-1.5398123e-05
0.014506874
-1.4344592e-05
0.014520186
-1.3312296e-05
0.014532471
-1.2284904e-05
0.014543722
-1.1250975e-05
0.014553927
-1.0205363e-05
0.014563077
-9.1499771e-06
0.01457117
-8.093371e-06
0.014578219
-7.0496371e-06
0.014584255
-6.0363775e-06
0.014589328
-5.0725953e-06
0.014593504
-4.1762545e-06
0.014596867
-3.3625708e-06
0.014599509
-2.6423365e-06
0.01460153
-2.0215538e-06
0.014603031
-1.5009029e-06
0.014604108
-1.076797e-06
0.014604849
-7.4153925e-07
0.014605335
-4.8531595e-07
0.014605631
-2.9621356e-07
0.014605793
-1.6266304e-07
0.014605866
-7.2558547e-08
0.014605882
-1.6050838e-08
0.014605865
1.6763883e-08
0.014605833
3.2314127e-08
0.014605795
3.7745378e-08
0.014605759
3.5826338e-08
0.014605727
3.1672595e-08
0.014605702
2.4837166e-08
0.014605683
1.9743127e-08
0.014605669
1.312966e-08
0.014605659
1.0261787e-08
0.014605654
4.9313822e-09
0.014605649
4.9375801e-09
0.014605649
1.4118547e-10
0.014605646
3.0189928e-09
0.014605649
-2.6709299e-09
0.014605645
3.4187063e-09
0.01460565
-4.9878935e-09
0.014605645
5.5364557e-09
0.014605653
-8.0779272e-09
0.014605643
9.4428355e-09
0.014605657
-1.3211619e-08
0.014605641
1.584374e-08
0.014605663
-2.209163e-08
0.014605637
2.5928612e-08
0.014605674
-3.7441909e-08
0.014605634
4.0799784e-08
0.014605697
-6.3921005e-08
0.014605638
5.9148732e-08
0.014605748
-1.1017307e-07
0.01460568
6.8414737e-08
0.014605877
-1.9658874e-07
0.014605867
1.0067342e-08
0.014606262
-3.9566516e-07
0.014606626
-3.637376e-07
0.01460764
-1.0148055e-06
-1.8752193e-06
0.010101125
-0.00017550777
0.010347883
-0.00044822425
0.010645913
-0.00056264936
0.010960847
-0.00061086184
0.011269219
-0.0006145186
0.011554366
-0.00058418988
0.011807917
-0.00053443849
0.012027601
-0.0004769917
0.012214837
-0.00041931742
0.012373018
-0.00036577659
0.012506297
-0.00031846399
0.012618823
-0.00027792681
0.012714342
-0.00024381294
0.012796031
-0.00021533369
0.012866483
-0.00019156801
0.012927765
-0.00017163281
0.012981504
-0.00015476042
0.013028977
-0.00014032134
0.013071188
-0.00012781834
0.01310893
-0.00011686814
0.013142836
-0.00010717976
0.013173423
-9.8533684e-05
0.013201112
-9.0763281e-05
0.013226256
-8.3740015e-05
0.013249151
-7.7362598e-05
0.013270046
-7.1549871e-05
0.013289158
-6.623606e-05
0.013306673
-6.13672e-05
0.013322751
-5.689813e-05
0.013337536
-5.2789953e-05
0.013351152
-4.9008323e-05
0.013363708
-4.5522509e-05
0.013375301
-4.2305215e-05
0.013386017
-3.933267e-05
0.013395931
-3.6584803e-05
0.013405113
-3.4045016e-05
0.013413624
-3.1699587e-05
0.013421523
-2.9536436e-05
0.013428862
-2.7543592e-05
0.013435691
-2.5707419e-05
0.013442056
-2.4011174e-05
0.013447999
-2.2434178e-05
0.013453552
-2.0951998e-05
0.013458746
-1.9537732e-05
0.013463598
-1.8164242e-05
0.01346812
-1.6807013e-05
0.013472316
-1.544702e-05
0.013476184
-1.407312e-05
0.013479717
-1.2683441e-05
0.013482909
-1.1285496e-05
0.013485755
-9.8950813e-06
0.013488252
-8.5339774e-06
0.013490407
-7.2271815e-06
0.013492231
-5.9996263e-06
0.013493742
-4.8735985e-06
0.013494966
-3.8661775e-06
0.013495932
-2.9883272e-06
0.013496675
-2.2438237e-06
0.013497229
-1.6303853e-06
0.013497627
-1.1396539e-06
0.013497902
-7.5984273e-07
0.013498081
-4.7566079e-07
0.013498191
-2.7180964e-07
0.01349825
-1.3171749e-07
0.013498276
-4.1685888e-08
0.01349828
1.2427668e-08
0.013498272
3.9918983e-08
0.013498259
5.1337397e-08
0.013498244
5.0889119e-08
0.013498229
4.6300821e-08
0.013498217
3.7120292e-08
0.013498207
3.0028488e-08
0.013498199
2.0431261e-08
0.013498194
1.6101916e-08
0.01349819
8.1777754e-09
0.013498188
7.87387e-09
0.013498187
8.4288826e-10
0.013498185
4.596306e-09
0.013498186
-3.3945489e-09
0.013498185
4.7082549e-09
0.013498186
-6.5766633e-09
0.013498185
7.1683117e-09
0.013498187
-1.0407226e-08
0.013498185
1.1757434e-08
0.013498188
-1.6433639e-08
0.013498185
1.8969201e-08
0.013498189
-2.6551427e-08
0.013498186
2.9658567e-08
0.013498192
-4.374845e-08
0.013498189
4.4059306e-08
0.013498198
-7.3415215e-08
0.013498199
5.853554e-08
0.013498215
-1.264978e-07
0.013498229
5.4775321e-08
0.013498262
-2.2986617e-07
0.01349831
-3.7972225e-08
0.013498385
-4.7014203e-07
0.013498506
-4.8510166e-07
0.013498661
-1.1699887e-06
-2.100853e-06
0.010194547
-0.00037005493
0.010510297
-0.00076397368
0.010823883
-0.00087623601
0.011103868
-0.00089084618
0.011333741
-0.00084439179
0.011509103
-0.00075955214
0.011633657
-0.00065899279
0.011714988
-0.00055832285
0.011761891
-0.0004662194
0.011782797
-0.00038668323
0.011784951
-0.00032061791
0.011774172
-0.00026714716
0.011754925
-0.00022456644
0.011730492
-0.00019090126
0.011703199
-0.00016427532
0.011674643
-0.00014307672
0.011645887
-0.00012600381
0.011617614
-0.00011204859
0.011590249
-0.00010045287
0.011564039
-9.0657488e-05
0.011539114
-8.2255297e-05
0.011515532
-7.4951326e-05
0.011493299
-6.8530705e-05
0.011472393
-6.2834557e-05
0.011452773
-5.7742984e-05
0.011434387
-5.3163889e-05
0.011417177
-4.9025573e-05
0.011401081
-4.5271352e-05
0.011386039
-4.1855398e-05
0.011371988
-3.873945e-05
0.01135887
-3.5890624e-05
0.011346628
-3.3280143e-05
0.011335205
-3.0882846e-05
0.01132455
-2.8677047e-05
0.011314609
-2.664454e-05
0.011305335
-2.4770437e-05
0.011296678
-2.3042812e-05
0.011288594
-2.1451937e-05
0.011281039
-1.9989243e-05
0.011273978
-1.8645974e-05
0.011267379
-1.7411887e-05
0.011261219
-1.6274162e-05
0.011255484
-1.521699e-05
0.011250168
-1.4221837e-05
0.011245272
-1.3268679e-05
0.011240803
-1.2337732e-05
0.011236768
-1.1411724e-05
0.011233173
-1.0477868e-05
0.011230019
-9.5295811e-06
0.011227301
-8.5671663e-06
0.011225003
-7.5977667e-06
0.011223104
-6.634181e-06
0.01122157
-5.6931743e-06
0.011220363
-4.7931561e-06
0.011219442
-3.9520772e-06
0.011218761
-3.1852514e-06
0.011218277
-2.5041815e-06
0.011217949
-1.9153441e-06
0.011217739
-1.4205854e-06
0.011217616
-1.0167679e-06
0.011217554
-6.9760424e-07
0.011217532
-4.5337569e-07
0.011217534
-2.7377637e-07
0.011217549
-1.4672985e-07
0.011217569
-6.2070383e-08
0.011217591
-8.606208e-09
0.01121761
2.0996118e-08
0.011217625
3.5662343e-08
0.011217637
3.885835e-08
0.011217646
3.7507881e-08
0.011217652
3.121441e-08
0.011217656
2.6159713e-08
0.011217658
1.8322144e-08
0.01121766
1.484509e-08
0.01121766
7.9244214e-09
0.01121766
7.6043778e-09
0.01121766
1.3488754e-09
0.01121766
4.4033911e-09
0.011217659
-2.5149688e-09
0.01121766
4.0883739e-09
0.011217658
-5.2137781e-09
0.01121766
5.6817752e-09
0.011217658
-8.0440543e-09
0.011217661
8.710687e-09
0.011217656
-1.2027355e-08
0.011217662
1.3056919e-08
0.011217654
-1.8162708e-08
0.011217665
1.8476975e-08
0.011217649
-2.7825441e-08
0.01121767
2.3449645e-08
0.01121764
-4.3571629e-08
0.011217676
2.2190438e-08
0.011217621
-7.1127995e-08
0.011217678
-2.800454e-09
0.011217573
-1.2448992e-07
0.011217632
-9.674264e-08
0.011217396
-2.3473385e-07
0.011217261
-3.5010534e-07
0.011216554
-4.6231185e-07
-8.4620733e-07
0.010379776
-0.00074983119
0.010574967
-0.00095916432
0.01062758
-0.00092884953
0.01056664
-0.00082990567
0.010429447
-0.00070719882
0.010247193
-0.00057729868
0.010042592
-0.00045439093
0.009832618
-0.00034834921
0.0096291833
-0.0002627846
0.0094394519
-0.00019695171
0.0092669481
-0.00014811394
0.0091125605
-0.00011275964
0.0089756353
-8.764152e-05
0.0088546743
-6.9940657e-05
0.0087478442
-5.7445588e-05
0.0086532843
-4.8516937e-05
0.00856927
-4.1989123e-05
0.0084942837
-3.7061691e-05
0.008427032
-3.3200538e-05
0.0083664326
-3.0057801e-05
0.0083115886
-2.7411392e-05
0.0082617579
-2.512122e-05
0.0082163255
-2.3098951e-05
0.0081747783
-2.1287802e-05
0.0081366853
-1.9650103e-05
0.0081016816
-1.8159993e-05
0.0080694554
-1.6799042e-05
0.0080397379
-1.5553492e-05
0.0080122949
-1.4412223e-05
0.0079869209
-1.3365494e-05
0.0079634343
-1.240429e-05
0.0079416741
-1.1520202e-05
0.0079214966
-1.0705527e-05
0.0079027729
-9.9534618e-06
0.0078853866
-9.2581469e-06
0.0078692311
-8.6147531e-06
0.0078542079
-8.0193931e-06
0.0078402252
-7.4690812e-06
0.0078271976
-6.9615062e-06
0.0078150463
-6.4947008e-06
0.007803701
-6.0666002e-06
0.0077931013
-5.6744964e-06
0.0077831988
-5.3146507e-06
0.0077739589
-4.9820199e-06
0.0077653606
-4.6703657e-06
0.0077573955
-4.3726266e-06
0.0077500655
-4.0816081e-06
0.0077433785
-3.7907983e-06
0.0077373443
-3.4952106e-06
0.0077319693
-3.191997e-06
0.0077272526
-2.8808867e-06
0.0077231827
-2.5640597e-06
0.0077197356
-2.2459877e-06
0.0077168751
-1.9325347e-06
0.0077145535
-1.6305076e-06
0.0077127147
-1.346385e-06
0.0077112967
-1.0861136e-06
0.0077102354
-8.5390859e-07
0.0077094675
-6.5269526e-07
0.007708934
-4.8312994e-07
0.0077085812
-3.4479091e-07
0.0077083632
-2.3520603e-07
0.0077082413
-1.5172556e-07
0.0077081848
-9.0124838e-08
0.00770817
-4.7147586e-08
0.0077081797
-1.818345e-08
0.0077082015
-7.0783205e-10
0.0077082278
9.4971218e-09
0.0077082532
1.3466175e-08
0.0077082758
1.4949095e-08
0.0077082939
1.3198132e-08
0.0077083082
1.1952047e-08
0.0077083179
8.5511207e-09
0.0077083253
7.5064898e-09
0.0077083293
3.9864382e-09
0.0077083327
4.2731876e-09
0.0077083333
7.5201069e-10
0.007708335
2.7206465e-09
0.0077083338
-1.3309337e-09
0.0077083355
2.5293565e-09
0.0077083331
-2.8454637e-09
0.0077083356
3.284502e-09
0.0077083319
-4.3372684e-09
0.007708336
4.692462e-09
0.0077083301
-6.1967342e-09
0.0077083368
6.5020512e-09
0.0077083272
-8.6591054e-09
0.0077083375
8.1862287e-09
0.0077083214
-1.1835001e-08
0.0077083367
8.1780236e-09
0.0077083087
-1.5773542e-08
0.0077083288
2.1913412e-09
0.0077082784
-2.0555509e-08
0.0077082959
-1.9975716e-08
0.0077081967
-2.5129737e-08
0.0077081739
-7.38411e-08
0.007707945
-6.0489689e-09
0.0077077089
-1.143514e-07
0.0077070024
2.4396922e-07
2.1060891e-07
0.0092501688
0.0082910045
0.007362155
0.0065322493
0.0058250504
0.0052477518
0.0047933609
0.0044450117
0.0041822273
0.0039852757
0.0038371617
0.0037244019
0.00363676
0.003566819
0.0035093733
0.0034608565
0.0034188679
0.0033818068
0.0033486066
0.0033185488
0.0032911371
0.0032660153
0.0032429158
0.0032216278
0.0032019778
0.0031838181
0.0031670194
0.0031514661
0.0031370539
0.0031236883
0.0031112838
0.0030997634
0.0030890578
0.0030791043
0.0030698463
0.0030612317
0.0030532125
0.0030457435
0.003038782
0.0030322873
0.0030262206
0.0030205461
0.0030152313
0.0030102492
0.0030055789
0.0030012063
0.0029971248
0.0029933341
0.002989839
0.0029866472
0.0029837664
0.0029812024
0.0029789565
0.002977024
0.0029753936
0.0029740472
0.0029729611
0.0029721072
0.0029714546
0.0029709715
0.0029706268
0.0029703917
0.0029702401
0.00297015
0.002970103
0.0029700848
0.0029700842
0.0029700937
0.0029701073
0.0029701222
0.0029701355
0.0029701474
0.002970156
0.0029701635
0.0029701676
0.0029701718
0.0029701726
0.0029701753
0.0029701741
0.0029701766
0.0029701738
0.0029701771
0.0029701728
0.0029701775
0.0029701714
0.0029701779
0.0029701692
0.0029701773
0.0029701654
0.0029701735
0.0029701578
0.00297016
0.0029701398
0.00297012
0.002970095
0.002970021
0.0029700147
0.0029699001
0.002970144
)
;

boundaryField
{
    top
    {
        type            calculated;
        value           uniform 0;
    }
    inlet
    {
        type            calculated;
        value           nonuniform List<scalar> 10(-0.01 -0.01 -0.01 -0.01 -0.01 -0.01 -0.01 -0.01 -0.01 -0.01);
    }
    outlet
    {
        type            calculated;
        value           nonuniform List<scalar> 10(0.0029703547 0.0077059457 0.011215299 0.013498887 0.014609516 0.014609516 0.013498887 0.011215299 0.0077059455 0.0029703546);
    }
    bottom
    {
        type            calculated;
        value           uniform 0;
    }
    back
    {
        type            empty;
        value           nonuniform 0();
    }
    front
    {
        type            empty;
        value           nonuniform 0();
    }
}


// ************************************************************************* //
