/*--------------------------------*- C++ -*----------------------------------*\
| =========                 |                                                 |
| \\      /  F ield         | OpenFOAM: The Open Source CFD Toolbox           |
|  \\    /   O peration     | Version:  2112                                  |
|   \\  /    A nd           | Website:  www.openfoam.com                      |
|    \\/     M anipulation  |                                                 |
\*---------------------------------------------------------------------------*/
FoamFile
{
    version     2.0;
    format      ascii;
    arch        "LSB;label=32;scalar=64";
    class       volScalarField;
    location    "55";
    object      T;
}
// * * * * * * * * * * * * * * * * * * * * * * * * * * * * * * * * * * * * * //

dimensions      [0 0 0 1 0 0 0];

internalField   nonuniform List<scalar> 
10000
(
1.44284
1.44284
1.44284
1.44284
1.44284
1.44284
1.44284
1.44284
1.44284
1.44284
1.32904
1.32904
1.32904
1.32904
1.32904
1.32904
1.32904
1.32904
1.32904
1.32904
1.21679
1.21679
1.21679
1.21679
1.21679
1.21679
1.21679
1.21679
1.21679
1.21679
1.10708
1.10708
1.10708
1.10708
1.10708
1.10708
1.10708
1.10708
1.10708
1.10708
1.00083
1.00083
1.00083
1.00083
1.00083
1.00083
1.00083
1.00083
1.00083
1.00083
0.89887
0.89887
0.898869
0.898869
0.898869
0.898869
0.898869
0.898869
0.898869
0.898869
0.801914
0.801914
0.801914
0.801913
0.801913
0.801913
0.801913
0.801913
0.801913
0.801913
0.710556
0.710556
0.710555
0.710555
0.710555
0.710555
0.710555
0.710555
0.710555
0.710555
0.625255
0.625255
0.625254
0.625254
0.625254
0.625253
0.625254
0.625254
0.625254
0.625254
0.546332
0.546332
0.546331
0.546331
0.546331
0.546331
0.546331
0.546331
0.546331
0.546331
0.473972
0.473972
0.473972
0.473971
0.473971
0.473971
0.473971
0.473971
0.473972
0.473972
0.408231
0.408231
0.40823
0.40823
0.40823
0.40823
0.40823
0.40823
0.40823
0.40823
0.349042
0.349043
0.349042
0.349042
0.349041
0.349041
0.349042
0.349042
0.349042
0.349042
0.296235
0.296235
0.296235
0.296234
0.296234
0.296234
0.296234
0.296234
0.296235
0.296235
0.249545
0.249545
0.249545
0.249544
0.249544
0.249544
0.249544
0.249545
0.249545
0.249545
0.208636
0.208636
0.208635
0.208635
0.208635
0.208635
0.208635
0.208635
0.208635
0.208635
0.173113
0.173113
0.173112
0.173112
0.173112
0.173111
0.173111
0.173111
0.173112
0.173112
0.142544
0.142544
0.142543
0.142543
0.142542
0.142542
0.142541
0.142541
0.142541
0.142541
0.116472
0.116472
0.116472
0.116471
0.11647
0.11647
0.116469
0.116469
0.116469
0.116468
0.0944354
0.0944352
0.0944343
0.0944333
0.0944323
0.0944312
0.0944303
0.0944295
0.094429
0.0944286
0.075974
0.0759736
0.0759725
0.0759711
0.0759694
0.0759677
0.075966
0.0759646
0.0759636
0.0759629
0.0606451
0.0606445
0.0606429
0.0606408
0.0606383
0.0606355
0.0606326
0.0606301
0.0606282
0.060627
0.0480295
0.0480286
0.0480263
0.0480232
0.0480193
0.0480148
0.0480101
0.0480057
0.0480023
0.0480003
0.0377383
0.0377368
0.0377336
0.037729
0.037723
0.0377158
0.0377082
0.0377008
0.0376948
0.0376913
0.0294167
0.0294145
0.02941
0.0294032
0.0293941
0.029383
0.0293706
0.0293581
0.0293477
0.0293416
0.0227464
0.0227434
0.022737
0.0227272
0.0227138
0.0226968
0.0226769
0.0226561
0.0226378
0.0226266
0.0174462
0.0174422
0.0174335
0.0174199
0.0174006
0.0173751
0.0173438
0.017309
0.0172762
0.0172549
0.0132714
0.0132662
0.0132549
0.0132366
0.0132099
0.0131729
0.0131246
0.0130667
0.0130069
0.0129637
0.0100118
0.0100053
0.0099912
0.00996792
0.00993255
0.00988127
0.00980977
0.00971556
0.0096048
0.0095094
0.00748915
0.00748151
0.00746496
0.00743698
0.00739321
0.00732684
0.00722784
0.00708264
0.00687932
0.00664379
1.44284
1.44284
1.44284
1.44284
1.44284
1.44284
1.44284
1.44284
1.44284
1.44284
1.32904
1.32904
1.32904
1.32904
1.32904
1.32904
1.32904
1.32904
1.32904
1.32904
1.21679
1.21679
1.21679
1.21679
1.21679
1.21679
1.21679
1.21679
1.21679
1.21679
1.10708
1.10708
1.10708
1.10708
1.10708
1.10708
1.10708
1.10708
1.10708
1.10708
1.00083
1.00083
1.00083
1.00083
1.00083
1.00083
1.00083
1.00083
1.00083
1.00083
0.89887
0.89887
0.898869
0.898869
0.898869
0.898869
0.898869
0.898869
0.898869
0.898869
0.801914
0.801914
0.801913
0.801913
0.801913
0.801913
0.801913
0.801913
0.801913
0.801913
0.710556
0.710556
0.710555
0.710555
0.710555
0.710555
0.710555
0.710555
0.710555
0.710555
0.625255
0.625255
0.625254
0.625254
0.625253
0.625253
0.625254
0.625254
0.625254
0.625254
0.546332
0.546332
0.546331
0.546331
0.54633
0.54633
0.546331
0.546331
0.546331
0.546331
0.473972
0.473972
0.473972
0.473971
0.473971
0.473971
0.473971
0.473971
0.473972
0.473972
0.408231
0.408231
0.40823
0.40823
0.40823
0.40823
0.40823
0.40823
0.408231
0.408231
0.349043
0.349043
0.349042
0.349041
0.349041
0.349041
0.349041
0.349042
0.349042
0.349042
0.296235
0.296235
0.296235
0.296234
0.296234
0.296234
0.296234
0.296234
0.296235
0.296235
0.249545
0.249545
0.249545
0.249544
0.249544
0.249544
0.249544
0.249545
0.249545
0.249545
0.208636
0.208636
0.208635
0.208635
0.208635
0.208635
0.208635
0.208635
0.208635
0.208635
0.173113
0.173113
0.173112
0.173112
0.173112
0.173111
0.173111
0.173112
0.173112
0.173112
0.142544
0.142544
0.142543
0.142542
0.142542
0.142542
0.142541
0.142541
0.142542
0.142541
0.116472
0.116472
0.116472
0.116471
0.11647
0.116469
0.116469
0.116469
0.116469
0.116468
0.0944355
0.0944351
0.0944343
0.0944333
0.0944322
0.0944312
0.0944302
0.0944295
0.0944291
0.0944287
0.0759741
0.0759736
0.0759724
0.075971
0.0759694
0.0759677
0.075966
0.0759646
0.0759637
0.075963
0.0606452
0.0606445
0.0606429
0.0606408
0.0606382
0.0606354
0.0606326
0.0606301
0.0606282
0.0606271
0.0480296
0.0480285
0.0480263
0.0480231
0.0480192
0.0480147
0.04801
0.0480057
0.0480024
0.0480004
0.0377383
0.0377368
0.0377336
0.0377289
0.0377229
0.0377158
0.0377081
0.0377008
0.0376949
0.0376914
0.0294167
0.0294145
0.0294099
0.0294031
0.0293941
0.029383
0.0293705
0.0293581
0.0293478
0.0293417
0.0227464
0.0227433
0.022737
0.0227272
0.0227138
0.0226968
0.0226769
0.0226561
0.0226378
0.0226267
0.0174463
0.0174421
0.0174335
0.0174199
0.0174006
0.0173751
0.0173438
0.017309
0.0172762
0.0172549
0.0132715
0.0132661
0.0132549
0.0132366
0.0132099
0.0131728
0.0131246
0.0130667
0.0130069
0.0129637
0.0100118
0.0100052
0.00999119
0.00996791
0.00993254
0.00988126
0.00980976
0.00971556
0.00960482
0.00950941
0.00748916
0.0074815
0.00746494
0.00743697
0.0073932
0.00732683
0.00722783
0.00708264
0.00687934
0.0066438
1.44284
1.44284
1.44284
1.44284
1.44284
1.44284
1.44284
1.44284
1.44284
1.44284
1.32904
1.32904
1.32904
1.32904
1.32904
1.32904
1.32904
1.32904
1.32904
1.32904
1.21679
1.21679
1.21679
1.21679
1.21679
1.21679
1.21679
1.21679
1.21679
1.21679
1.10708
1.10708
1.10708
1.10708
1.10708
1.10708
1.10708
1.10708
1.10708
1.10708
1.00083
1.00083
1.00083
1.00083
1.00083
1.00083
1.00083
1.00083
1.00083
1.00083
0.89887
0.898869
0.898869
0.898868
0.898868
0.898868
0.898868
0.898868
0.898869
0.898869
0.801914
0.801913
0.801913
0.801912
0.801912
0.801912
0.801912
0.801913
0.801913
0.801913
0.710555
0.710555
0.710555
0.710554
0.710554
0.710554
0.710554
0.710554
0.710555
0.710555
0.625254
0.625254
0.625253
0.625253
0.625253
0.625253
0.625253
0.625253
0.625254
0.625254
0.546331
0.546331
0.54633
0.54633
0.54633
0.54633
0.54633
0.54633
0.546331
0.546331
0.473972
0.473972
0.473971
0.47397
0.47397
0.47397
0.47397
0.473971
0.473972
0.473972
0.40823
0.40823
0.40823
0.408229
0.408229
0.408229
0.408229
0.40823
0.40823
0.40823
0.349042
0.349042
0.349041
0.349041
0.349041
0.349041
0.349041
0.349041
0.349042
0.349042
0.296235
0.296235
0.296234
0.296233
0.296233
0.296233
0.296234
0.296234
0.296235
0.296235
0.249545
0.249545
0.249544
0.249544
0.249544
0.249544
0.249544
0.249544
0.249545
0.249545
0.208636
0.208635
0.208635
0.208634
0.208634
0.208634
0.208634
0.208635
0.208635
0.208635
0.173113
0.173113
0.173112
0.173111
0.173111
0.173111
0.173111
0.173111
0.173112
0.173112
0.142543
0.142543
0.142543
0.142542
0.142542
0.142541
0.142541
0.142541
0.142541
0.142541
0.116472
0.116472
0.116471
0.11647
0.11647
0.116469
0.116469
0.116468
0.116469
0.116468
0.0944352
0.0944348
0.0944339
0.0944329
0.0944319
0.0944309
0.09443
0.0944293
0.094429
0.0944287
0.0759738
0.0759733
0.0759722
0.0759707
0.0759691
0.0759674
0.0759658
0.0759644
0.0759635
0.0759629
0.060645
0.0606442
0.0606426
0.0606405
0.060638
0.0606352
0.0606324
0.0606299
0.0606282
0.060627
0.0480294
0.0480283
0.0480261
0.0480229
0.048019
0.0480145
0.0480099
0.0480056
0.0480023
0.0480003
0.0377382
0.0377366
0.0377334
0.0377288
0.0377228
0.0377157
0.037708
0.0377007
0.0376948
0.0376914
0.0294166
0.0294144
0.0294098
0.029403
0.0293939
0.0293828
0.0293704
0.0293581
0.0293478
0.0293416
0.0227463
0.0227432
0.0227369
0.0227271
0.0227137
0.0226967
0.0226768
0.022656
0.0226378
0.0226266
0.0174462
0.0174421
0.0174334
0.0174198
0.0174005
0.017375
0.0173437
0.0173089
0.0172762
0.0172549
0.0132714
0.0132661
0.0132548
0.0132366
0.0132098
0.0131728
0.0131245
0.0130666
0.0130069
0.0129637
0.0100118
0.0100052
0.00999113
0.00996785
0.00993248
0.0098812
0.00980972
0.00971553
0.0096048
0.00950941
0.00748912
0.00748146
0.0074649
0.00743692
0.00739315
0.00732679
0.00722779
0.00708261
0.00687932
0.0066438
1.44284
1.44284
1.44284
1.44284
1.44284
1.44284
1.44284
1.44284
1.44284
1.44284
1.32904
1.32904
1.32904
1.32904
1.32904
1.32904
1.32904
1.32904
1.32904
1.32904
1.21679
1.21679
1.21679
1.21679
1.21679
1.21679
1.21679
1.21679
1.21679
1.21679
1.10708
1.10708
1.10708
1.10708
1.10708
1.10708
1.10708
1.10708
1.10708
1.10708
1.00083
1.00083
1.00083
1.00083
1.00083
1.00083
1.00083
1.00083
1.00083
1.00083
0.898869
0.898869
0.898868
0.898868
0.898868
0.898868
0.898868
0.898868
0.898869
0.898869
0.801913
0.801913
0.801912
0.801912
0.801912
0.801912
0.801912
0.801912
0.801913
0.801913
0.710555
0.710555
0.710554
0.710554
0.710554
0.710554
0.710554
0.710554
0.710555
0.710555
0.625254
0.625254
0.625253
0.625252
0.625252
0.625252
0.625253
0.625253
0.625254
0.625254
0.546331
0.546331
0.54633
0.54633
0.546329
0.546329
0.54633
0.54633
0.546331
0.546331
0.473971
0.473971
0.47397
0.47397
0.47397
0.47397
0.47397
0.473971
0.473971
0.473972
0.40823
0.40823
0.408229
0.408229
0.408228
0.408229
0.408229
0.408229
0.40823
0.40823
0.349042
0.349042
0.349041
0.34904
0.34904
0.34904
0.349041
0.349041
0.349042
0.349042
0.296234
0.296234
0.296234
0.296233
0.296233
0.296233
0.296233
0.296234
0.296234
0.296235
0.249545
0.249545
0.249544
0.249543
0.249543
0.249543
0.249543
0.249544
0.249545
0.249545
0.208635
0.208635
0.208635
0.208634
0.208634
0.208634
0.208634
0.208634
0.208635
0.208635
0.173112
0.173112
0.173112
0.173111
0.173111
0.173111
0.173111
0.173111
0.173112
0.173112
0.142543
0.142543
0.142542
0.142542
0.142541
0.142541
0.142541
0.142541
0.142541
0.142541
0.116472
0.116472
0.116471
0.11647
0.11647
0.116469
0.116469
0.116468
0.116468
0.116468
0.094435
0.0944346
0.0944337
0.0944327
0.0944317
0.0944307
0.0944298
0.0944292
0.094429
0.0944287
0.0759737
0.0759732
0.075972
0.0759706
0.075969
0.0759673
0.0759657
0.0759643
0.0759635
0.0759629
0.0606448
0.0606441
0.0606425
0.0606404
0.0606379
0.0606351
0.0606323
0.0606299
0.0606281
0.060627
0.0480293
0.0480282
0.048026
0.0480228
0.0480189
0.0480144
0.0480098
0.0480055
0.0480023
0.0480003
0.0377381
0.0377365
0.0377333
0.0377287
0.0377227
0.0377156
0.0377079
0.0377006
0.0376948
0.0376914
0.0294165
0.0294143
0.0294097
0.0294029
0.0293939
0.0293828
0.0293704
0.029358
0.0293477
0.0293417
0.0227462
0.0227432
0.0227368
0.022727
0.0227136
0.0226966
0.0226768
0.022656
0.0226378
0.0226267
0.0174461
0.017442
0.0174334
0.0174198
0.0174005
0.017375
0.0173437
0.0173089
0.0172762
0.0172549
0.0132714
0.013266
0.0132548
0.0132365
0.0132098
0.0131728
0.0131245
0.0130666
0.0130069
0.0129637
0.0100117
0.0100052
0.0099911
0.00996782
0.00993246
0.00988118
0.0098097
0.00971552
0.0096048
0.00950942
0.0074891
0.00748143
0.00746488
0.0074369
0.00739313
0.00732678
0.00722778
0.00708261
0.00687932
0.0066438
1.44284
1.44284
1.44284
1.44284
1.44284
1.44284
1.44284
1.44284
1.44284
1.44284
1.32904
1.32904
1.32904
1.32904
1.32904
1.32904
1.32904
1.32904
1.32904
1.32904
1.21679
1.21679
1.21679
1.21679
1.21679
1.21679
1.21679
1.21679
1.21679
1.21679
1.10708
1.10708
1.10708
1.10708
1.10708
1.10708
1.10708
1.10708
1.10708
1.10708
1.00083
1.00083
1.00083
1.00083
1.00083
1.00083
1.00083
1.00083
1.00083
1.00083
0.898869
0.898869
0.898868
0.898868
0.898868
0.898868
0.898868
0.898868
0.898869
0.898869
0.801913
0.801913
0.801912
0.801912
0.801911
0.801911
0.801912
0.801912
0.801913
0.801913
0.710555
0.710555
0.710554
0.710554
0.710553
0.710553
0.710554
0.710554
0.710555
0.710555
0.625254
0.625253
0.625253
0.625252
0.625252
0.625252
0.625252
0.625253
0.625254
0.625254
0.546331
0.54633
0.54633
0.546329
0.546329
0.546329
0.546329
0.54633
0.546331
0.546331
0.473971
0.473971
0.47397
0.47397
0.47397
0.47397
0.47397
0.473971
0.473971
0.473972
0.40823
0.40823
0.408229
0.408228
0.408228
0.408228
0.408229
0.408229
0.40823
0.40823
0.349041
0.349041
0.349041
0.34904
0.34904
0.34904
0.349041
0.349041
0.349042
0.349042
0.296234
0.296234
0.296233
0.296233
0.296233
0.296233
0.296233
0.296234
0.296235
0.296235
0.249544
0.249544
0.249544
0.249543
0.249543
0.249543
0.249543
0.249544
0.249545
0.249545
0.208635
0.208635
0.208634
0.208634
0.208634
0.208634
0.208634
0.208634
0.208635
0.208635
0.173112
0.173112
0.173112
0.173111
0.173111
0.173111
0.173111
0.173111
0.173112
0.173112
0.142543
0.142543
0.142542
0.142542
0.142541
0.142541
0.142541
0.142541
0.142541
0.142541
0.116472
0.116472
0.116471
0.11647
0.11647
0.116469
0.116469
0.116468
0.116469
0.116468
0.0944349
0.0944346
0.0944337
0.0944327
0.0944317
0.0944307
0.0944298
0.0944292
0.094429
0.0944287
0.0759736
0.0759731
0.075972
0.0759705
0.0759689
0.0759673
0.0759657
0.0759644
0.0759636
0.075963
0.0606448
0.0606441
0.0606425
0.0606404
0.0606379
0.0606351
0.0606323
0.0606299
0.0606282
0.0606271
0.0480293
0.0480282
0.048026
0.0480228
0.0480189
0.0480145
0.0480098
0.0480055
0.0480023
0.0480004
0.0377381
0.0377365
0.0377333
0.0377287
0.0377227
0.0377156
0.037708
0.0377007
0.0376949
0.0376915
0.0294165
0.0294143
0.0294097
0.0294029
0.0293939
0.0293828
0.0293704
0.0293581
0.0293478
0.0293417
0.0227462
0.0227432
0.0227368
0.022727
0.0227136
0.0226967
0.0226768
0.0226561
0.0226378
0.0226267
0.0174461
0.017442
0.0174334
0.0174198
0.0174005
0.017375
0.0173437
0.0173089
0.0172762
0.0172549
0.0132714
0.013266
0.0132548
0.0132365
0.0132098
0.0131728
0.0131245
0.0130667
0.0130069
0.0129638
0.0100117
0.0100052
0.0099911
0.00996783
0.00993247
0.00988119
0.00980972
0.00971554
0.00960483
0.00950944
0.0074891
0.00748144
0.00746488
0.00743691
0.00739314
0.00732679
0.0072278
0.00708262
0.00687934
0.00664382
1.44284
1.44284
1.44284
1.44284
1.44284
1.44284
1.44284
1.44284
1.44284
1.44284
1.32904
1.32904
1.32904
1.32904
1.32904
1.32904
1.32904
1.32904
1.32904
1.32904
1.21679
1.21679
1.21679
1.21679
1.21679
1.21679
1.21679
1.21679
1.21679
1.21679
1.10708
1.10708
1.10708
1.10708
1.10708
1.10708
1.10708
1.10708
1.10708
1.10708
1.00083
1.00083
1.00083
1.00083
1.00083
1.00083
1.00083
1.00083
1.00083
1.00083
0.898869
0.898869
0.898868
0.898868
0.898868
0.898868
0.898868
0.898868
0.898869
0.898869
0.801913
0.801913
0.801912
0.801912
0.801911
0.801912
0.801912
0.801912
0.801913
0.801913
0.710555
0.710555
0.710554
0.710554
0.710553
0.710553
0.710554
0.710554
0.710555
0.710555
0.625253
0.625253
0.625253
0.625252
0.625252
0.625252
0.625253
0.625253
0.625254
0.625254
0.546331
0.54633
0.54633
0.546329
0.546329
0.546329
0.54633
0.54633
0.546331
0.546331
0.473971
0.473971
0.47397
0.47397
0.47397
0.47397
0.47397
0.473971
0.473972
0.473972
0.40823
0.40823
0.408229
0.408229
0.408228
0.408229
0.408229
0.40823
0.40823
0.408231
0.349041
0.349041
0.349041
0.34904
0.34904
0.34904
0.349041
0.349041
0.349042
0.349042
0.296234
0.296234
0.296233
0.296233
0.296233
0.296233
0.296233
0.296234
0.296235
0.296235
0.249545
0.249544
0.249544
0.249543
0.249543
0.249543
0.249544
0.249544
0.249545
0.249545
0.208635
0.208635
0.208634
0.208634
0.208634
0.208634
0.208634
0.208635
0.208635
0.208635
0.173112
0.173112
0.173112
0.173111
0.173111
0.173111
0.173111
0.173111
0.173112
0.173112
0.142543
0.142543
0.142542
0.142542
0.142541
0.142541
0.142541
0.142541
0.142542
0.142542
0.116472
0.116472
0.116471
0.11647
0.11647
0.116469
0.116469
0.116469
0.116469
0.116469
0.094435
0.0944346
0.0944338
0.0944328
0.0944318
0.0944308
0.09443
0.0944294
0.0944292
0.0944289
0.0759737
0.0759732
0.075972
0.0759706
0.0759691
0.0759674
0.0759658
0.0759645
0.0759637
0.0759632
0.0606448
0.0606441
0.0606425
0.0606405
0.060638
0.0606352
0.0606324
0.06063
0.0606283
0.0606273
0.0480293
0.0480283
0.048026
0.0480229
0.048019
0.0480146
0.0480099
0.0480057
0.0480024
0.0480005
0.0377381
0.0377366
0.0377334
0.0377287
0.0377228
0.0377157
0.0377081
0.0377008
0.037695
0.0376916
0.0294165
0.0294143
0.0294098
0.029403
0.0293939
0.0293829
0.0293705
0.0293582
0.0293479
0.0293418
0.0227463
0.0227432
0.0227369
0.0227271
0.0227137
0.0226967
0.0226769
0.0226561
0.0226379
0.0226268
0.0174462
0.017442
0.0174334
0.0174198
0.0174005
0.0173751
0.0173438
0.017309
0.0172763
0.017255
0.0132714
0.0132661
0.0132548
0.0132366
0.0132098
0.0131728
0.0131246
0.0130667
0.013007
0.0129638
0.0100118
0.0100052
0.00999114
0.00996786
0.00993251
0.00988123
0.00980976
0.00971559
0.00960487
0.00950949
0.00748912
0.00748146
0.00746491
0.00743694
0.00739317
0.00732682
0.00722783
0.00708266
0.00687938
0.00664386
1.44284
1.44284
1.44284
1.44284
1.44284
1.44284
1.44284
1.44284
1.44284
1.44284
1.32904
1.32904
1.32904
1.32904
1.32904
1.32904
1.32904
1.32904
1.32904
1.32904
1.21679
1.21679
1.21679
1.21679
1.21679
1.21679
1.21679
1.21679
1.21679
1.21679
1.10708
1.10708
1.10708
1.10708
1.10708
1.10708
1.10708
1.10708
1.10708
1.10708
1.00083
1.00083
1.00083
1.00083
1.00083
1.00083
1.00083
1.00083
1.00083
1.00083
0.898869
0.898869
0.898868
0.898868
0.898868
0.898868
0.898868
0.898868
0.898869
0.898869
0.801913
0.801913
0.801912
0.801912
0.801912
0.801912
0.801912
0.801912
0.801913
0.801913
0.710555
0.710555
0.710554
0.710554
0.710554
0.710554
0.710554
0.710555
0.710555
0.710555
0.625254
0.625254
0.625253
0.625253
0.625252
0.625253
0.625253
0.625253
0.625254
0.625254
0.546331
0.546331
0.54633
0.54633
0.546329
0.54633
0.54633
0.546331
0.546331
0.546332
0.473971
0.473971
0.47397
0.47397
0.47397
0.47397
0.47397
0.473971
0.473972
0.473972
0.40823
0.40823
0.408229
0.408229
0.408229
0.408229
0.408229
0.40823
0.408231
0.408231
0.349042
0.349042
0.349041
0.349041
0.349041
0.349041
0.349041
0.349042
0.349043
0.349043
0.296234
0.296234
0.296234
0.296233
0.296233
0.296233
0.296234
0.296234
0.296235
0.296235
0.249545
0.249545
0.249544
0.249544
0.249544
0.249544
0.249544
0.249545
0.249545
0.249545
0.208635
0.208635
0.208635
0.208634
0.208634
0.208634
0.208634
0.208635
0.208636
0.208636
0.173113
0.173112
0.173112
0.173112
0.173111
0.173111
0.173111
0.173112
0.173112
0.173112
0.142543
0.142543
0.142543
0.142542
0.142542
0.142541
0.142541
0.142542
0.142542
0.142542
0.116472
0.116472
0.116471
0.116471
0.11647
0.116469
0.116469
0.116469
0.116469
0.116469
0.0944352
0.0944348
0.094434
0.0944331
0.0944321
0.0944311
0.0944303
0.0944297
0.0944295
0.0944292
0.0759738
0.0759734
0.0759722
0.0759709
0.0759693
0.0759676
0.0759661
0.0759648
0.075964
0.0759634
0.060645
0.0606443
0.0606427
0.0606407
0.0606382
0.0606354
0.0606327
0.0606303
0.0606286
0.0606275
0.0480295
0.0480284
0.0480262
0.0480231
0.0480192
0.0480148
0.0480101
0.0480059
0.0480026
0.0480007
0.0377382
0.0377367
0.0377335
0.0377289
0.0377229
0.0377159
0.0377082
0.0377009
0.0376951
0.0376917
0.0294166
0.0294144
0.0294099
0.0294031
0.0293941
0.029383
0.0293706
0.0293583
0.029348
0.029342
0.0227464
0.0227433
0.022737
0.0227272
0.0227138
0.0226968
0.022677
0.0226563
0.0226381
0.0226269
0.0174462
0.0174421
0.0174335
0.0174199
0.0174006
0.0173752
0.0173439
0.0173091
0.0172764
0.0172551
0.0132714
0.0132661
0.0132549
0.0132366
0.0132099
0.0131729
0.0131247
0.0130668
0.0130071
0.0129639
0.0100118
0.0100052
0.0099912
0.00996793
0.00993258
0.00988131
0.00980983
0.00971566
0.00960494
0.00950956
0.00748916
0.0074815
0.00746496
0.00743699
0.00739323
0.00732688
0.00722789
0.00708271
0.00687943
0.00664391
1.44284
1.44284
1.44284
1.44284
1.44284
1.44284
1.44284
1.44284
1.44284
1.44284
1.32904
1.32904
1.32904
1.32904
1.32904
1.32904
1.32904
1.32904
1.32904
1.32904
1.21679
1.21679
1.21679
1.21679
1.21679
1.21679
1.21679
1.21679
1.21679
1.21679
1.10708
1.10708
1.10708
1.10708
1.10708
1.10708
1.10708
1.10708
1.10708
1.10708
1.00083
1.00083
1.00083
1.00083
1.00083
1.00083
1.00083
1.00083
1.00083
1.00083
0.898869
0.898869
0.898869
0.898868
0.898868
0.898868
0.898868
0.898869
0.898869
0.898869
0.801913
0.801913
0.801913
0.801912
0.801912
0.801912
0.801912
0.801913
0.801914
0.801914
0.710555
0.710555
0.710554
0.710554
0.710554
0.710554
0.710555
0.710555
0.710556
0.710556
0.625254
0.625254
0.625253
0.625253
0.625253
0.625253
0.625253
0.625254
0.625255
0.625255
0.546331
0.546331
0.54633
0.54633
0.54633
0.54633
0.546331
0.546331
0.546332
0.546332
0.473971
0.473971
0.473971
0.473971
0.473971
0.473971
0.473971
0.473972
0.473973
0.473973
0.40823
0.40823
0.40823
0.408229
0.408229
0.40823
0.40823
0.408231
0.408231
0.408232
0.349042
0.349042
0.349042
0.349041
0.349041
0.349041
0.349042
0.349042
0.349043
0.349043
0.296235
0.296235
0.296234
0.296234
0.296234
0.296234
0.296234
0.296235
0.296236
0.296236
0.249545
0.249545
0.249545
0.249544
0.249544
0.249544
0.249545
0.249545
0.249546
0.249546
0.208636
0.208636
0.208635
0.208635
0.208635
0.208635
0.208635
0.208636
0.208636
0.208636
0.173113
0.173113
0.173112
0.173112
0.173112
0.173112
0.173112
0.173112
0.173113
0.173113
0.142544
0.142544
0.142543
0.142543
0.142542
0.142542
0.142542
0.142542
0.142542
0.142542
0.116472
0.116472
0.116472
0.116471
0.11647
0.11647
0.116469
0.116469
0.116469
0.116469
0.0944354
0.0944351
0.0944343
0.0944334
0.0944325
0.0944315
0.0944307
0.0944301
0.0944299
0.0944296
0.0759741
0.0759736
0.0759726
0.0759712
0.0759697
0.075968
0.0759664
0.0759652
0.0759644
0.0759638
0.0606452
0.0606445
0.060643
0.060641
0.0606385
0.0606358
0.060633
0.0606306
0.0606289
0.0606278
0.0480296
0.0480286
0.0480264
0.0480233
0.0480195
0.048015
0.0480104
0.0480062
0.0480029
0.048001
0.0377384
0.0377369
0.0377337
0.0377291
0.0377232
0.0377161
0.0377085
0.0377012
0.0376954
0.037692
0.0294168
0.0294146
0.0294101
0.0294033
0.0293943
0.0293832
0.0293709
0.0293585
0.0293482
0.0293422
0.0227465
0.0227434
0.0227371
0.0227274
0.022714
0.022697
0.0226772
0.0226564
0.0226382
0.0226271
0.0174463
0.0174422
0.0174336
0.0174201
0.0174008
0.0173753
0.017344
0.0173092
0.0172765
0.0172553
0.0132715
0.0132662
0.013255
0.0132368
0.01321
0.013173
0.0131248
0.0130669
0.0130072
0.012964
0.0100119
0.0100053
0.00999129
0.00996802
0.00993268
0.00988141
0.00980994
0.00971576
0.00960504
0.00950965
0.00748922
0.00748157
0.00746503
0.00743707
0.00739331
0.00732696
0.00722797
0.00708279
0.00687951
0.00664398
1.44284
1.44284
1.44284
1.44284
1.44284
1.44284
1.44284
1.44284
1.44284
1.44284
1.32904
1.32904
1.32904
1.32904
1.32904
1.32904
1.32904
1.32904
1.32904
1.32904
1.21679
1.21679
1.21679
1.21679
1.21679
1.21679
1.21679
1.21679
1.21679
1.21679
1.10708
1.10708
1.10708
1.10708
1.10708
1.10708
1.10708
1.10708
1.10708
1.10708
1.00083
1.00083
1.00083
1.00083
1.00083
1.00083
1.00083
1.00083
1.00083
1.00083
0.898869
0.898869
0.898869
0.898869
0.898869
0.898869
0.898869
0.898869
0.89887
0.89887
0.801913
0.801913
0.801913
0.801913
0.801913
0.801913
0.801913
0.801914
0.801914
0.801914
0.710555
0.710555
0.710555
0.710555
0.710555
0.710555
0.710555
0.710556
0.710556
0.710556
0.625254
0.625254
0.625254
0.625254
0.625254
0.625254
0.625254
0.625255
0.625255
0.625256
0.546331
0.546331
0.546331
0.546331
0.546331
0.546331
0.546331
0.546332
0.546333
0.546333
0.473972
0.473972
0.473972
0.473971
0.473971
0.473972
0.473972
0.473973
0.473973
0.473973
0.408231
0.408231
0.40823
0.40823
0.40823
0.40823
0.408231
0.408231
0.408232
0.408232
0.349042
0.349043
0.349042
0.349042
0.349042
0.349042
0.349043
0.349043
0.349044
0.349044
0.296235
0.296235
0.296235
0.296235
0.296235
0.296235
0.296235
0.296236
0.296237
0.296237
0.249545
0.249546
0.249545
0.249545
0.249545
0.249545
0.249545
0.249546
0.249547
0.249547
0.208636
0.208636
0.208636
0.208636
0.208636
0.208636
0.208636
0.208636
0.208637
0.208637
0.173113
0.173113
0.173113
0.173113
0.173112
0.173112
0.173113
0.173113
0.173113
0.173113
0.142544
0.142544
0.142544
0.142543
0.142543
0.142543
0.142543
0.142543
0.142543
0.142543
0.116473
0.116473
0.116472
0.116472
0.116471
0.11647
0.11647
0.11647
0.11647
0.11647
0.0944357
0.0944355
0.0944348
0.094434
0.094433
0.0944321
0.0944312
0.0944306
0.0944304
0.09443
0.0759743
0.075974
0.075973
0.0759717
0.0759701
0.0759685
0.0759669
0.0759656
0.0759648
0.0759642
0.0606454
0.0606448
0.0606434
0.0606414
0.0606389
0.0606362
0.0606334
0.060631
0.0606293
0.0606281
0.0480298
0.0480289
0.0480267
0.0480237
0.0480198
0.0480154
0.0480108
0.0480065
0.0480033
0.0480013
0.0377386
0.0377371
0.037734
0.0377294
0.0377235
0.0377164
0.0377088
0.0377015
0.0376957
0.0376922
0.0294169
0.0294148
0.0294103
0.0294036
0.0293946
0.0293835
0.0293711
0.0293588
0.0293485
0.0293424
0.0227466
0.0227436
0.0227373
0.0227276
0.0227142
0.0226973
0.0226774
0.0226567
0.0226384
0.0226273
0.0174464
0.0174424
0.0174338
0.0174202
0.017401
0.0173755
0.0173442
0.0173094
0.0172767
0.0172554
0.0132716
0.0132663
0.0132551
0.0132369
0.0132102
0.0131732
0.013125
0.0130671
0.0130073
0.0129641
0.0100119
0.0100054
0.0099914
0.00996815
0.0099328
0.00988154
0.00981007
0.00971588
0.00960515
0.00950975
0.00748928
0.00748164
0.00746512
0.00743717
0.00739341
0.00732707
0.00722807
0.00708289
0.0068796
0.00664406
1.44284
1.44284
1.44284
1.44284
1.44284
1.44284
1.44284
1.44284
1.44284
1.44284
1.32904
1.32904
1.32904
1.32904
1.32904
1.32904
1.32904
1.32904
1.32904
1.32904
1.21679
1.21679
1.21679
1.21679
1.21679
1.21679
1.21679
1.21679
1.21679
1.21679
1.10708
1.10708
1.10708
1.10708
1.10708
1.10708
1.10708
1.10708
1.10708
1.10708
1.00083
1.00083
1.00083
1.00083
1.00083
1.00083
1.00083
1.00083
1.00083
1.00083
0.898869
0.898869
0.898869
0.898869
0.898869
0.898869
0.898869
0.898869
0.89887
0.89887
0.801913
0.801913
0.801913
0.801913
0.801913
0.801913
0.801913
0.801914
0.801914
0.801914
0.710555
0.710555
0.710555
0.710555
0.710555
0.710555
0.710555
0.710556
0.710556
0.710556
0.625254
0.625254
0.625254
0.625254
0.625254
0.625254
0.625254
0.625255
0.625256
0.625255
0.546331
0.546331
0.546331
0.546331
0.546331
0.546331
0.546332
0.546332
0.546333
0.546333
0.473972
0.473972
0.473972
0.473972
0.473972
0.473972
0.473972
0.473973
0.473973
0.473973
0.408231
0.408231
0.408231
0.40823
0.40823
0.408231
0.408231
0.408232
0.408232
0.408232
0.349042
0.349043
0.349042
0.349042
0.349042
0.349042
0.349043
0.349043
0.349044
0.349044
0.296235
0.296235
0.296235
0.296235
0.296235
0.296235
0.296235
0.296236
0.296237
0.296236
0.249545
0.249546
0.249545
0.249545
0.249545
0.249545
0.249546
0.249546
0.249547
0.249546
0.208636
0.208636
0.208636
0.208636
0.208636
0.208636
0.208636
0.208636
0.208637
0.208637
0.173113
0.173113
0.173113
0.173113
0.173113
0.173113
0.173113
0.173113
0.173113
0.173113
0.142544
0.142544
0.142544
0.142543
0.142543
0.142543
0.142543
0.142543
0.142543
0.142543
0.116473
0.116473
0.116472
0.116472
0.116471
0.116471
0.11647
0.11647
0.11647
0.11647
0.0944357
0.0944355
0.0944349
0.0944341
0.0944332
0.0944322
0.0944314
0.0944308
0.0944304
0.0944299
0.0759743
0.075974
0.075973
0.0759718
0.0759703
0.0759686
0.0759671
0.0759657
0.0759648
0.075964
0.0606454
0.0606448
0.0606434
0.0606415
0.060639
0.0606363
0.0606336
0.0606311
0.0606293
0.060628
0.0480298
0.0480289
0.0480268
0.0480238
0.0480199
0.0480155
0.0480109
0.0480066
0.0480033
0.0480012
0.0377386
0.0377371
0.0377341
0.0377295
0.0377236
0.0377165
0.0377089
0.0377016
0.0376957
0.0376921
0.0294169
0.0294148
0.0294104
0.0294036
0.0293946
0.0293836
0.0293712
0.0293588
0.0293485
0.0293423
0.0227466
0.0227436
0.0227374
0.0227277
0.0227143
0.0226973
0.0226775
0.0226567
0.0226385
0.0226272
0.0174465
0.0174424
0.0174338
0.0174203
0.017401
0.0173756
0.0173443
0.0173095
0.0172767
0.0172554
0.0132716
0.0132663
0.0132551
0.013237
0.0132102
0.0131732
0.013125
0.0130671
0.0130074
0.0129641
0.010012
0.0100054
0.00999142
0.00996818
0.00993284
0.00988157
0.0098101
0.00971591
0.00960517
0.00950972
0.00748929
0.00748165
0.00746514
0.00743719
0.00739344
0.0073271
0.0072281
0.00708292
0.00687961
0.00664403
0.00555441
0.00554601
0.00552774
0.00549647
0.00544662
0.00536877
0.00524661
0.00504956
0.00471075
0.00404864
0.00408414
0.0040755
0.00405668
0.0040244
0.00397284
0.00389223
0.00376629
0.00356716
0.0032467
0.00272771
0.00297725
0.0029689
0.00295078
0.00291991
0.00287111
0.00279617
0.00268255
0.00251189
0.00226004
0.00190522
0.00215177
0.00214416
0.00212776
0.00210014
0.00205723
0.00199303
0.00189926
0.00176564
0.00158212
0.0013457
0.00154198
0.0015354
0.00152133
0.00149796
0.00146239
0.00141064
0.00133775
0.00123855
0.00110953
0.00095253
0.00109575
0.00109031
0.00107879
0.00105993
0.00103181
0.000991985
0.000937705
0.0008666
0.000777847
0.000673816
0.000772244
0.000767925
0.000758859
0.000744232
0.000722865
0.000693347
0.000654288
0.000604765
0.000544951
0.000476738
0.000539842
0.000536533
0.000529648
0.000518696
0.000503006
0.000481845
0.000454624
0.000421184
0.000382109
0.000338854
0.000374381
0.000371925
0.00036686
0.000358916
0.00034775
0.000333056
0.000314721
0.000293042
0.000268959
0.00024412
0.000257607
0.000255837
0.000252218
0.000246619
0.000238902
0.000229007
0.000217087
0.000203715
0.000190245
0.00017967
0.00555442
0.00554601
0.00552773
0.00549646
0.00544662
0.00536876
0.0052466
0.00504956
0.00471075
0.00404865
0.00408414
0.00407549
0.00405667
0.0040244
0.00397283
0.00389223
0.00376628
0.00356715
0.0032467
0.00272772
0.00297725
0.00296889
0.00295078
0.0029199
0.0028711
0.00279617
0.00268255
0.00251189
0.00226004
0.00190522
0.00215178
0.00214416
0.00212776
0.00210013
0.00205722
0.00199303
0.00189926
0.00176564
0.00158212
0.0013457
0.00154199
0.0015354