/*--------------------------------*- C++ -*----------------------------------*\
| =========                 |                                                 |
| \\      /  F ield         | OpenFOAM: The Open Source CFD Toolbox           |
|  \\    /   O peration     | Version:  v1812                                 |
|   \\  /    A nd           | Web:      www.OpenFOAM.com                      |
|    \\/     M anipulation  |                                                 |
\*---------------------------------------------------------------------------*/
FoamFile
{
    version     2.0;
    format      ascii;
    class       surfaceScalarField;
    location    "9";
    object      phi;
}
// * * * * * * * * * * * * * * * * * * * * * * * * * * * * * * * * * * * * * //

dimensions      [0 3 -1 0 0 0 0];
oriented        oriented;


internalField   nonuniform List<scalar> 
1890
(
0.0025960136
3.684574e-06
0.0025842547
1.1759372e-05
0.0025705851
1.366932e-05
0.0025588764
1.1708076e-05
0.002549931
8.9448606e-06
0.0025430582
6.872464e-06
0.0025374971
5.5607357e-06
0.0025328345
4.6623161e-06
0.0025288909
3.9434512e-06
0.0025255539
3.3368286e-06
0.0025227137
2.8401918e-06
0.0025202669
2.44678e-06
0.0025181324
2.1345872e-06
0.0025162532
1.8792078e-06
0.00251459
1.6632665e-06
0.0025131131
1.4769501e-06
0.0025117986
1.314688e-06
0.0025106262
1.1724674e-06
0.0025095794
1.0469216e-06
0.0025086442
9.3528335e-07
0.0025078089
8.3543858e-07
0.0025070633
7.4578848e-07
0.0025063983
6.650843e-07
0.0025058062
5.9228585e-07
0.0025052798
5.265137e-07
0.0025048129
4.6700931e-07
0.0025043999
4.1312682e-07
0.0025040358
3.6430336e-07
0.0025037159
3.2005361e-07
0.0025034361
2.799502e-07
0.0025031926
2.4362602e-07
0.0025029819
2.1076252e-07
0.002502801
1.8109219e-07
0.0025026467
1.5438776e-07
0.0025025164
1.3046058e-07
0.0025024074
1.0914898e-07
0.0025023172
9.0311642e-08
0.0025022435
7.3816152e-08
0.0025021841
5.9530478e-08
0.0025021369
4.7315999e-08
0.0025020999
3.7021067e-08
0.0025020716
2.8481562e-08
0.0025020501
2.151872e-08
0.0025020343
1.5947106e-08
0.0025020228
1.1575014e-08
0.0025020146
8.2166418e-09
0.002502009
5.6932583e-09
0.0025020052
3.8432074e-09
0.0025020027
2.5195656e-09
0.0025020011
1.5991053e-09
0.0025020002
9.7655836e-10
0.0025019996
5.7016814e-10
0.0025019993
3.1349929e-10
0.0025019992
1.5914916e-10
0.0025019991
7.0363339e-11
0.0025019991
2.3278427e-11
0.0025019991
1.3548405e-12
0.0025019991
-6.5425854e-12
0.0025019991
-8.9248232e-12
0.0025019991
-7.369566e-12
0.0025019991
-5.7091338e-12
0.0025019991
-3.2551074e-12
0.0025019991
-2.1548986e-12
0.0025019991
-8.3484285e-13
0.0025019991
-6.9552058e-13
0.0025019991
-1.9845251e-13
0.0025019991
-6.1739734e-13
0.0025019991
-3.7753234e-13
0.0025019991
-9.2541272e-13
0.0025019991
-6.0716666e-13
0.0025019991
-1.073088e-12
0.0025019991
-6.2175253e-13
0.0025019992
-8.9119735e-13
0.0025019992
-3.0424096e-13
0.0025019992
-4.1162773e-13
0.0025019992
2.1949278e-13
0.0025019992
1.856775e-13
0.0025019992
9.0125943e-13
0.0025019992
7.732032e-13
0.0025019992
1.4652996e-12
0.0025019992
1.2620994e-12
0.0025019992
1.8846489e-12
0.0025019992
1.5569442e-12
0.0025019992
2.0375821e-12
0.0025019992
1.642679e-12
0.0025019991
2.0127379e-12
0.0025019991
1.5859067e-12
0.0025019991
1.8344376e-12
0.0025019991
1.5635613e-12
0.0025019991
1.8098206e-12
0.0025019991
1.9785779e-12
0.0025019991
2.4520114e-12
0.0025019991
3.8707449e-12
0.0025019991
5.6696997e-12
0.0025019991
1.1175858e-11
0.0025019991
1.7981583e-11
0.002501999
3.4171526e-11
0.002501999
5.299128e-11
0.0025019989
1.0357083e-10
1.4047893e-10
0.0062269019
4.01179e-06
0.0062223247
1.6337459e-05
0.0062141207
2.1873304e-05
0.0062047966
2.1031557e-05
0.0061958749
1.7866133e-05
0.006187707
1.5040078e-05
0.0061802355
1.3031957e-05
0.0061734148
1.1482827e-05
0.0061672587
1.0099344e-05
0.0061617683
8.827084e-06
0.0061568995
7.708869e-06
0.0061525817
6.7645416e-06
0.0061487436
5.9727677e-06
0.0061453245
5.2983045e-06
0.0061422747
4.7131319e-06
0.0061395516
4.2001071e-06
0.006137118
3.7482913e-06
0.0061349416
3.3489253e-06
0.0061329944
2.9942069e-06
0.0061312523
2.6775044e-06
0.0061296943
2.3935107e-06
0.0061283021
2.1380542e-06
0.0061270596
1.90775e-06
0.0061259522
1.6997623e-06
0.0061249671
1.5116615e-06
0.0061240929
1.3413647e-06
0.006123319
1.1870704e-06
0.0061226362
1.047218e-06
0.0061220359
9.2043977e-07
0.0061215104
8.0554048e-07
0.0061210527
7.014745e-07
0.0061206562
6.0733853e-07
0.0061203151
5.2235672e-07
0.0061200237
4.4587125e-07
0.0061197769
3.773245e-07
0.0061195699
3.1624008e-07
0.0061193981
2.6219916e-07
0.0061192572
2.1481385e-07
0.0061191432
1.7370445e-07
0.0061190521
1.3847538e-07
0.0061189805
1.0870421e-07
0.0061189252
8.3930291e-08
0.0061188831
6.3661326e-08
0.0061188517
4.7376596e-08
0.0061188288
3.4547012e-08
0.0061188125
2.4645837e-08
0.006118801
1.7172442e-08
0.0061187933
1.1660662e-08
0.0061187881
7.6967514e-09
0.0061187848
4.9199016e-09
0.0061187828
3.0310365e-09
0.0061187816
1.7857317e-09
0.006118781
9.9483791e-10
0.0061187806
5.1223528e-10
0.0061187805
2.3311169e-10
0.0061187804
8.1023124e-11
0.0061187804
8.5985331e-12
0.0061187804
-2.2025337e-11
0.0061187805
-2.9223981e-11
0.0061187805
-2.6806981e-11
0.0061187805
-2.0006588e-11
0.0061187805
-1.3807865e-11
0.0061187805
-8.2012057e-12
0.0061187805
-4.8233827e-12
0.0061187805
-2.2790573e-12
0.0061187805
-1.3400919e-12
0.0061187805
-6.7397865e-13
0.0061187805
-9.27883e-13
0.0061187805
-7.9290102e-13
0.0061187805
-1.2906486e-12
0.0061187805
-1.133699e-12
0.0061187805
-1.4908631e-12
0.0061187805
-1.0571132e-12
0.0061187805
-1.0933936e-12
0.0061187805
-5.0219899e-13
0.0061187805
-2.9318646e-13
0.0061187805
4.5361142e-13
0.0061187805
7.1610171e-13
0.0061187805
1.5529906e-12
0.0061187805
1.6906465e-12
0.0061187805
2.5350772e-12
0.0061187805
2.5561601e-12
0.0061187805
3.2536726e-12
0.0061187805
3.064816e-12
0.0061187805
3.6905323e-12
0.0061187805
3.3465492e-12
0.0061187805
3.9226916e-12
0.0061187805
3.4203524e-12
0.0061187805
4.2788452e-12
0.0061187805
3.8336859e-12
0.0061187805
5.5227032e-12
0.0061187805
5.5553251e-12
0.0061187805
9.7477281e-12
0.0061187805
1.2494994e-11
0.0061187805
2.3460498e-11
0.0061187805
3.4274763e-11
0.0061187804
5.9501692e-11
0.0061187804
8.9201933e-11
0.0061187804
1.3761584e-10
1.8271182e-10
0.0086086173
2.8277447e-06
0.008611539
1.3416575e-05
0.008613868
1.9544156e-05
0.0086148251
2.0073915e-05
0.0086147651
1.792579e-05
0.0086140496
1.5755349e-05
0.0086128792
1.4202153e-05
0.0086113878
1.2974037e-05
0.0086097052
1.1781743e-05
0.0086079432
1.0588943e-05
0.0086061794
9.4725844e-06
0.0086044605
8.483432e-06
0.0086028139
7.6193222e-06
0.0086012568
6.8554653e-06
0.008599799
6.1708715e-06
0.0085984451
5.5540172e-06
0.0085971953
4.9981794e-06
0.008596047
4.4972946e-06
0.0085949961
4.0451155e-06
0.0085940378
3.6358552e-06
0.0085931667
3.264675e-06
0.0085923772
2.9276105e-06
0.0085916637
2.6213137e-06
0.0085910207
2.3428428e-06
0.0085904429
2.089587e-06
0.0085899251
1.8592219e-06
0.0085894625
1.6496864e-06
0.0085890507
1.4591381e-06
0.0085886853
1.2859307e-06
0.0085883623
1.1285854e-06
0.0085880781
9.8578632e-07
0.0085878291
8.563666e-07
0.0085876123
7.3930752e-07
0.0085874245
6.3372447e-07
0.008587263
5.3885833e-07
0.0085871253
4.5405288e-07
0.0085870089
3.7873356e-07
0.0085869114
3.1237639e-07
0.0085868307
2.5447925e-07
0.0085867647
2.0453347e-07
0.0085867115
1.620016e-07
0.0085866692
1.2630528e-07
0.0085866361
9.681999e-08
0.0085866107
7.2884433e-08
0.0085865915
5.3812014e-08
0.0085865772
3.8914514e-08
0.0085865669
2.7520254e-08
0.0085865596
1.8999036e-08
0.0085865546
1.2775072e-08
0.0085865512
8.3433375e-09
0.008586549
5.2716399e-09
0.0085865476
3.2053673e-09
0.0085865467
1.8594954e-09
0.0085865463
1.0156349e-09
0.008586546
5.0883916e-10
0.0085865459
2.2041618e-10
0.0085865458
6.8334828e-11
0.0085865458
-3.4481804e-12
0.0085865458
-3.1041722e-11
0.0085865458
-3.5540707e-11
0.0085865458
-3.0835356e-11
0.0085865458
-2.2767566e-11
0.0085865459
-1.5523316e-11
0.0085865459
-9.4728432e-12
0.0085865459
-5.5966798e-12
0.0085865459
-2.9819943e-12
0.0085865459
-1.7595213e-12
0.0085865459
-1.0501178e-12
0.0085865459
-9.7998089e-13
0.0085865459
-8.7020831e-13
0.0085865459
-1.0672236e-12
0.0085865459
-9.0765381e-13
0.0085865459
-9.3131704e-13
0.0085865459
-5.9813828e-13
0.0085865459
-3.2544039e-13
0.0085865459
5.68373e-14
0.0085865459
5.2827424e-13
0.0085865459
1.1413237e-12
0.0085865459
1.4896429e-12
0.0085865459
2.1691645e-12
0.0085865459
2.4435407e-12
0.0085865459
3.0339914e-12
0.0085865459
3.1873186e-12
0.0085865459
3.6554577e-12
0.0085865459
3.7434372e-12
0.0085865459
4.0580287e-12
0.0085865459
4.1788565e-12
0.0085865459
4.4187379e-12
0.0085865459
4.8788696e-12
0.0085865459
5.197857e-12
0.0085865459
6.6454736e-12
0.0085865459
7.6639966e-12
0.0085865458
1.2111715e-11
0.0085865458
1.6396749e-11
0.0085865458
2.6902932e-11
0.0085865458
3.8965353e-11
0.0085865458
5.9089436e-11
0.0085865458
8.6859486e-11
0.0085865458
1.1852242e-10
1.5330413e-10
0.010027723
1.3993301e-06
0.010033915
7.2246963e-06
0.010042444
1.1015446e-05
0.010050801
1.1716831e-05
0.010058013
1.0712833e-05
0.010064176
9.5927688e-06
0.010069565
8.812066e-06
0.010074329
8.2099963e-06
0.010078514
7.5964696e-06
0.010082159
6.9438514e-06
0.010085325
6.306728e-06
0.010088083
5.7258985e-06
0.010090495
5.2063173e-06
0.010092615
4.73615e-06
0.010094481
4.3049902e-06
0.010096126
3.9082588e-06
0.010097581
3.5440737e-06
0.010098867
3.210495e-06
0.010100008
2.9049592e-06
0.010101019
2.6248729e-06
0.010101915
2.3679774e-06
0.010102711
2.1324066e-06
0.010103416
1.9165069e-06
0.01010404
1.7187747e-06
0.010104592
1.5377934e-06
0.010105079
1.3722682e-06
0.010105507
1.2209932e-06
0.010105884
1.0828717e-06
0.010106213
9.5687948e-07
0.010106499
8.4208531e-07
0.010106748
7.3762737e-07
0.010106961
6.4273515e-07
0.010107144
5.5671126e-07
0.010107299
4.7894674e-07
0.010107429
4.0890225e-07
0.010107537
3.4611195e-07
0.010107626
2.9016077e-07
0.010107697
2.4067508e-07
0.010107755
1.9729888e-07
0.0101078
1.5967773e-07
0.010107834
1.2744268e-07
0.01010786
1.0019703e-07
0.01010788
7.7515812e-08
0.010107894
5.8941865e-08
0.010107904
4.4001599e-08
0.01010791
3.2208399e-08
0.010107915
2.3087677e-08
0.010107918
1.6180536e-08
0.010107919
1.1068955e-08
0.01010792
7.373168e-09
0.010107921
4.7706213e-09
0.010107921
2.9848827e-09
0.010107921
1.7978135e-09
0.010107921
1.0320715e-09
0.010107921
5.5835364e-10
0.010107921
2.7599531e-10
0.010107921
1.1823637e-10
0.010107921
3.507114e-11
0.010107921
-2.6247692e-12
0.010107921
-1.7826062e-11
0.010107921
-1.9206901e-11
0.010107921
-1.740976e-11
0.010107921
-1.2307514e-11
0.010107921
-9.2389099e-12
0.010107921
-5.328178e-12
0.010107921
-3.9830688e-12
0.010107921
-1.8461129e-12
0.010107921
-1.7162252e-12
0.010107921
-5.8760737e-13
0.010107921
-9.2122212e-13
0.010107921
-1.3894806e-13
0.010107921
-4.8670919e-13
0.010107921
2.6045114e-13
0.010107921
1.5517485e-14
0.010107921
8.6749519e-13
0.010107921
5.4157248e-13
0.010107921
1.5801528e-12
0.010107921
1.1605384e-12
0.010107921
2.2720797e-12
0.010107921
1.7590064e-12
0.010107921
2.8314285e-12
0.010107921
2.1915066e-12
0.010107921
3.2599634e-12
0.010107921
2.5273041e-12
0.010107921
3.5737669e-12
0.010107921
2.7764202e-12
0.010107921
3.968957e-12
0.010107921
3.1888585e-12
0.010107921
4.7019861e-12
0.010107921
4.0521912e-12
0.010107921
6.4465836e-12
0.010107921
6.6485768e-12
0.010107921
1.1382918e-11
0.010107921
1.4089938e-11
0.010107921
2.2212416e-11
0.010107921
2.930468e-11
0.010107921
4.0635121e-11
0.010107921
5.6263662e-11
0.010107921
7.1116484e-11
8.8823439e-11
0.01068597
3.839619e-11
0.010693196
1.2679841e-10
0.010704211
5.7856284e-11
0.010715927
-4.5292969e-11
0.01072664
-8.2529157e-11
0.010736232
-7.2838491e-11
0.010745044
-7.8621839e-11
0.010753254
-1.0772328e-10
0.01076085
-1.3589715e-10
0.010767794
-1.5577286e-10
0.010774101
-1.6581406e-10
0.010779827
-1.8264048e-10
0.010785034
-1.9555799e-10
0.01078977
-2.0856312e-10
0.010794075
-2.0964727e-10
0.010797984
-2.0738731e-10
0.010801528
-1.949877e-10
0.010804739
-1.8180734e-10
0.010807644
-1.6109024e-10
0.010810269
-1.4070296e-10
0.010812637
-1.1511807e-10
0.01081477
-9.2283944e-11
0.010816686
-6.7449725e-11
0.010818405
-4.7076795e-11
0.010819943
-2.678985e-11
0.010821315
-1.1875198e-11
0.010822536
1.9528244e-12
0.010823619
1.0862716e-11
0.010824576
1.9242041e-11
0.010825419
2.4142117e-11
0.010826156
2.9650431e-11
0.010826799
3.3968973e-11
0.010827356
4.0314897e-11
0.010827835
4.7283796e-11
0.010828244
5.674755e-11
0.01082859
6.7678969e-11
0.01082888
8.0512101e-11
0.010829121
9.4383767e-11
0.010829318
1.0840181e-10
0.010829478
1.2222099e-10
0.010829605
1.3419203e-10
0.010829705
1.4475419e-10
0.010829782
1.5179323e-10
0.010829841
1.5654685e-10
0.010829885
1.5688743e-10
0.010829917
1.5495976e-10
0.01082994
1.486423e-10
0.010829956
1.4058575e-10
0.010829967
1.2886059e-10
0.010829975
1.1664797e-10
0.010829979
1.0195166e-10
0.010829982
8.7980144e-11
0.010829984
7.2857166e-11
0.010829985
5.9868132e-11
0.010829986
4.6781491e-11
0.010829986
3.6118154e-11
0.010829986
2.565016e-11
0.010829986
1.8816692e-11
0.010829986
1.194429e-11
0.010829986
7.8327033e-12
0.010829986
3.7030666e-12
0.010829986
1.9253681e-12
0.010829986
-2.2935906e-13
0.010829986
-5.2580235e-13
0.010829986
-1.6126174e-12
0.010829986
-1.1348101e-12
0.010829986
-1.5719215e-12
0.010829986
-6.9586932e-13
0.010829986
-9.3696086e-13
0.010829986
8.1292887e-14
0.010829986
-3.4973146e-14
0.010829986
9.4588855e-13
0.010829986
6.4601801e-13
0.010829986
1.6606047e-12
0.010829986
1.2956245e-12
0.010829986
2.1678364e-12
0.010829986
1.6276581e-12
0.010829986
2.4036978e-12
0.010829986
1.834348e-12
0.010829986
2.4600083e-12
0.010829986
1.7431753e-12
0.010829986
2.3042442e-12
0.010829986
1.6651305e-12
0.010829986
2.1590632e-12
0.010829986
1.4844278e-12
0.010829986
2.104566e-12
0.010829986
1.634582e-12
0.010829986
2.4036983e-12
0.010829986
2.1002906e-12
0.010829986
3.1275765e-12
0.010829986
3.4017807e-12
0.010829986
5.1745509e-12
0.010829986
6.3171376e-12
0.010829986
8.9331722e-12
0.010829986
9.8662869e-12
0.010829986
1.1841179e-11
0.010829986
1.0990803e-11
0.010829986
1.1783795e-11
0.010829986
1.0293157e-11
9.5763369e-12
0.010685969
-1.3993936e-06
0.010693195
-7.2249679e-06
0.010704211
-1.1015567e-05
0.010715927
-1.1716824e-05
0.010726639
-1.0712902e-05
0.010736232
-9.5929606e-06
0.010745044
-8.812298e-06
0.010753254
-8.2102273e-06
0.01076085
-7.596704e-06
0.010767794
-6.9441158e-06
0.010774101
-6.3070289e-06
0.010779827
-5.7262369e-06
0.010785033
-5.2066796e-06
0.01078977
-4.736529e-06
0.010794075
-4.3053711e-06
0.010797983
-3.9086343e-06
0.010801527
-3.5444302e-06
0.010804738
-3.2108264e-06
0.010807643
-2.9052544e-06
0.010810268
-2.625129e-06
0.010812636
-2.3681883e-06
0.010814769
-2.1325746e-06
0.010816686
-1.916631e-06
0.010818405
-1.7188606e-06
0.010819942
-1.5378436e-06
0.010821315
-1.3722906e-06
0.010822536
-1.2209917e-06
0.010823619
-1.0828533e-06
0.010824576
-9.5684691e-07
0.010825418
-8.4204318e-07
0.010826156
-7.3757566e-07
0.010826798
-6.4267472e-07
0.010827355
-5.5663921e-07
0.010827834
-4.7886107e-07
0.010828243
-4.087988e-07
0.010828589
-3.4598782e-07
0.010828879
-2.9001273e-07
0.01082912
-2.4050156e-07
0.010829317
-1.9709959e-07
0.010829477
-1.5945379e-07
0.010829605
-1.2719706e-07
0.010829705
-9.9933335e-08
0.010829782
-7.7239795e-08
0.010829841
-5.8658747e-08
0.010829885
-4.3718333e-08
0.010829917
-3.1930252e-08
0.01082994
-2.2821411e-08
0.010829956
-1.5930361e-08
0.010829967
-1.084005e-08
0.010829975
-7.1675575e-09
0.010829979
-4.5913592e-09
0.010829982
-2.8318014e-09
0.010829984
-1.6713337e-09
0.010829985
-9.2949234e-10
0.010829986
-4.7858002e-10
0.010829986
-2.1543793e-10
0.010829986
-7.624238e-11
0.010829986
-4.4904645e-12
0.010829986
2.1596032e-11
0.010829986
2.9291841e-11
0.010829986
2.4314857e-11
0.010829986
1.9109396e-11
0.010829986
1.1107047e-11
0.010829986
6.999691e-12
0.010829986
2.3149114e-12
0.010829986
1.0900071e-12
0.010829986
-8.9293143e-13
0.010829986
-1.8197634e-13
0.010829986
-8.0049629e-13
0.010829986
7.3557487e-13
0.010829986
3.4706616e-13
0.010829986
1.9285692e-12
0.010829986
1.2467184e-12
0.010829986
2.8468361e-12
0.010829986
1.8402975e-12
0.010829986
3.1165998e-12
0.010829986
1.8456968e-12
0.010829986
2.9509468e-12
0.010829986
1.5232654e-12
0.010829986
2.355816e-12
0.010829986
8.7589445e-13
0.010829986
1.6079024e-12
0.010829986
3.0950541e-13
0.010829986
9.1268191e-13
0.010829986
-2.5118077e-13
0.010829986
6.0662985e-13
0.010829986
-4.2680189e-13
0.010829986
6.7116551e-13
0.010829986
-2.1170088e-13
0.010829986
1.2825136e-12
0.010829986
3.7334206e-13
0.010829986
2.2849687e-12
0.010829986
6.2914937e-13
0.010829986
1.4063951e-12
0.010829986
-4.1182488e-12
0.010829986
-8.1764945e-12
0.010829986
-2.0372376e-11
0.010829986
-3.5433223e-11
0.010829986
-5.2414655e-11
-7.1152179e-11
0.010027723
-2.8277034e-06
0.010033915
-1.341648e-05
0.010042444
-1.9544223e-05
0.0100508
-2.0074077e-05
0.010058013
-1.7925922e-05
0.010064175
-1.5755431e-05
0.010069565
-1.4202248e-05
0.010074329
-1.2974162e-05
0.010078514
-1.1781911e-05
0.010082158
-1.058913e-05
0.010085324
-9.4727985e-06
0.010088081
-8.4836593e-06
0.010090494
-7.619576e-06
0.010092614
-6.855728e-06
0.010094479
-6.1711478e-06
0.010096125
-5.5542858e-06
0.010097579
-4.9984434e-06
0.010098866
-4.497535e-06
0.010100006
-4.0453367e-06
0.010101017
-3.6360424e-06
0.010101914
-3.2648355e-06
0.010102709
-2.9277343e-06
0.010103414
-2.6214104e-06
0.010104038
-2.3429071e-06
0.01010459
-2.0896302e-06
0.010105077
-1.8592411e-06
0.010105506
-1.6496923e-06
0.010105882
-1.4591285e-06
0.010106211
-1.285914e-06
0.010106498
-1.1285586e-06
0.010106746
-9.8575396e-07
0.01010696
-8.563242e-07
0.010107143
-7.3925641e-07
0.010107297
-6.336597e-07
0.010107428
-5.3877917e-07
0.010107536
-4.5395577e-07
0.010107624
-3.7861758e-07
0.010107696
-3.1224088e-07
0.010107753
-2.5432434e-07
0.010107798
-2.0436188e-07
0.010107833
-1.618146e-07
0.010107859
-1.2610839e-07
0.010107879
-9.66152e-08
0.010107893
-7.2678866e-08
0.010107903
-5.3607292e-08
0.01010791
-3.8718153e-08
0.010107914
-2.7332946e-08
0.010107917
-1.882755e-08
0.010107919
-1.2618411e-08
0.01010792
-8.20699e-09
0.010107921
-5.1528956e-09
0.010107921
-3.1079578e-09
0.010107921
-1.7789603e-09
0.010107921
-9.5376689e-10
0.010107921
-4.6034936e-10
0.010107921
-1.8722163e-10
0.010107921
-4.5537406e-11
0.010107921
1.7548173e-11
0.010107921
4.0279598e-11
0.010107921
3.7974935e-11
0.010107921
3.2018468e-11
0.010107921
2.0127075e-11
0.010107921
1.347354e-11
0.010107921
5.459007e-12
0.010107921
3.0530776e-12
0.010107921
-6.3091406e-13
0.010107921
-4.0270642e-14
0.010107921
-1.4353532e-12
0.010107921
5.8162201e-13
0.010107921
-3.5391077e-14
0.010107921
2.1030339e-12
0.010107921
1.0444124e-12
0.010107921
3.2211774e-12
0.010107921
1.7685662e-12
0.010107921
3.5567003e-12
0.010107921
1.7100168e-12
0.010107921
3.1926758e-12
0.010107921
1.2055655e-12
0.010107921
2.2900558e-12
0.010107921
3.5189642e-13
0.010107921
1.20806e-12
0.010107921
-6.7774485e-13
0.010107921
1.3948473e-13
0.010107921
-1.6191532e-12
0.010107921
-4.6710048e-13
0.010107921
-2.046241e-12
0.010107921
-7.3074184e-13
0.010107921
-2.0654566e-12
0.010107921
-6.7650508e-13
0.010107921
-1.5706625e-12
0.010107921
-6.1843673e-13
0.010107921
-1.6852005e-12
0.010107921
-2.58676e-12
0.010107921
-6.4636134e-12
0.010107921
-1.3384416e-11
0.010107921
-2.4762513e-11
0.010107921
-4.4012267e-11
0.010107921
-7.2353675e-11
0.010107921
-1.0496425e-10
-1.3922603e-10
0.0086086169
-4.0118002e-06
0.0086115385
-1.6337479e-05
0.0086138675
-2.1873387e-05
0.0086148247
-2.1031718e-05
0.0086147646
-1.7866306e-05
0.008614049
-1.5040203e-05
0.0086128785
-1.3032047e-05
0.008611387
-1.148291e-05
0.0086097042
-1.0099443e-05
0.0086079421
-8.8271874e-06
0.0086061782
-7.7089739e-06
0.0086044592
-6.764643e-06
0.0086028125
-5.972875e-06
0.0086012552
-5.2984179e-06
0.0085997973
-4.7132549e-06
0.0085984433
-4.2002317e-06
0.0085971934
-3.7484153e-06
0.0085960449
-3.3490398e-06
0.008594994
-2.994311e-06
0.0085940357
-2.6775924e-06
0.0085931645
-2.3935838e-06
0.008592375
-2.138109e-06
0.0085916615
-1.9077895e-06
0.0085910185
-1.6997856e-06
0.0085904407
-1.5116729e-06
0.0085899229
-1.3413645e-06
0.0085894604
-1.1870627e-06
0.0085890486
-1.0472031e-06
0.0085886833
-9.2042049e-07
0.0085883603
-8.055161e-07
0.0085880762
-7.0144598e-07
0.0085878273
-6.0730412e-07
0.0085876105
-5.2231594e-07
0.0085874228
-4.4582218e-07
0.0085872614
-3.772662e-07
0.0085871237
-3.1617142e-07
0.0085870074
-2.6211979e-07
0.00858691
-2.147244e-07
0.0085868294
-1.7360549e-07
0.0085867636
-1.3836896e-07
0.0085867105
-1.0859174e-07
0.0085866683
-8.381501e-08
0.0085866353
-6.3544859e-08
0.00858661
-4.7262315e-08
0.0085865909
-3.4436283e-08
0.0085865768
-2.454196e-08
0.0085865667
-1.7076099e-08
0.0085865595
-1.1574278e-08
0.0085865545
-7.6201247e-09
0.0085865512
-4.8548246e-09
0.0085865491
-2.9766063e-09
0.0085865477
-1.7423529e-09
0.008586547
-9.6018402e-10
0.0085865465
-4.8692845e-10
0.0085865463
-2.150055e-10
0.0085865462
-6.9955704e-11
0.0085865461
-1.9098142e-12
0.0085865461
2.4781757e-11
0.0085865462
2.9976037e-11
0.0085865462
2.5229029e-11
0.0085865462
1.8035564e-11
0.0085865462
1.0688594e-11
0.0085865462
5.4944016e-12
0.0085865462
1.7557778e-12
0.0085865462
1.2942245e-14
0.0085865462
-9.9801089e-13
0.0085865462
-8.5619503e-13
0.0085865462
-5.1739157e-13
0.0085865462
3.7316152e-13
0.0085865462
8.220467e-13
0.0085865462
1.4854378e-12
0.0085865462
1.798811e-12
0.0085865462
2.2561489e-12
0.0085865462
2.0945108e-12
0.0085865462
2.1382361e-12
0.0085865462
1.7982702e-12
0.0085865462
1.6747653e-12
0.0085865462
9.8248296e-13
0.0085865462
6.6377629e-13
0.0085865462
3.6806951e-14
0.0085865462
-2.6237326e-13
0.0085865462
-9.647712e-13
0.0085865462
-1.255306e-12
0.0085865462
-1.635566e-12
0.0085865462
-1.7114707e-12
0.0085865462
-1.959745e-12
0.0085865462
-1.9685509e-12
0.0085865462
-1.8224185e-12
0.0085865462
-1.7632364e-12
0.0085865462
-1.4930577e-12
0.0085865462
-2.0642289e-12
0.0085865462
-2.1340083e-12
0.0085865462
-5.2849625e-12
0.0085865462
-8.1368129e-12
0.0085865462
-1.7706654e-11
0.0085865462
-2.7120929e-11
0.0085865462
-5.2344916e-11
0.0085865462
-8.2743767e-11
0.0085865462
-1.2967477e-10
-1.7358803e-10
0.0062269013
-3.6844857e-06
0.0062223239
-1.1759391e-05
0.0062141199
-1.3669437e-05
0.006204796
-1.1708276e-05
0.0061958742
-8.9451171e-06
0.0061877063
-6.8727282e-06
0.0061802348
-5.5609361e-06
0.0061734139
-4.6624507e-06
0.0061672578
-3.9435301e-06
0.0061617673
-3.3368841e-06
0.0061568984
-2.8402224e-06
0.0061525806
-2.446798e-06
0.0061487423
-2.1345868e-06
0.0061453231
-1.8792055e-06
0.0061422732
-1.663258e-06
0.00613955
-1.4769458e-06
0.0061371164
-1.3146778e-06
0.00613494
-1.1724575e-06
0.0061329927
-1.0469029e-06
0.0061312506
-9.3526275e-07
0.0061296926
-8.3540857e-07
0.0061283004
-7.4575583e-07
0.0061270578
-6.6504304e-07
0.0061259504
-5.9224255e-07
0.0061249654
-5.2646361e-07
0.0061240912
-4.6695847e-07
0.0061233174
-4.1307149e-07
0.0061226346
-3.6424864e-07
0.0061220343
-3.1999613e-07
0.0061215089
-2.7989374e-07
0.0061210512
-2.435677e-07
0.0061206548
-2.1070487e-07
0.0061203137
-1.8103288e-07
0.0061200224
-1.5432816e-07
0.0061197757
-1.303994e-07
0.0061195688
-1.0908685e-07
0.0061193971
-9.0248622e-08
0.0061192563
-7.3752139e-08
0.0061191423
-5.9466878e-08
0.0061190514
-4.7252107e-08
0.0061189799
-3.6959544e-08
0.0061189246
-2.8420864e-08
0.0061188827
-2.1462246e-08
0.0061188514
-1.589259e-08
0.0061188286
-1.1526364e-08
0.0061188123
-8.1709165e-09
0.006118801
-5.6541884e-09
0.0061187933
-3.8074708e-09
0.0061187882
-2.4907215e-09
0.006118785
-1.573524e-09
0.006118783
-9.5728799e-10
0.0061187818
-5.5343821e-10
0.0061187812
-3.0227808e-10
0.0061187809
-1.4975415e-10
0.0061187808
-6.4981382e-11
0.0061187807
-1.8844632e-11
0.0061187807
-3.2092272e-13
0.0061187808
8.2529745e-12
0.0061187808
8.0811875e-12
0.0061187808
7.7421368e-12
0.0061187808
3.8999675e-12
0.0061187808
2.9418951e-12
0.0061187808
2.4709103e-13
0.0061187808
4.0356195e-13
0.0061187808
-1.0564217e-12
0.0061187808
-3.413657e-14
0.0061187808
-8.840137e-13
0.0061187808
5.9747593e-13
0.0061187808
-1.5810265e-13
0.0061187808
1.2018448e-12
0.0061187808
3.2186485e-13
0.0061187808
1.6531757e-12
0.0061187808
5.120902e-13
0.0061187808
1.6242358e-12
0.0061187808
3.8380235e-13
0.0061187808
1.3805106e-12
0.0061187808
4.741701e-14
0.0061187809
8.4041732e-13
0.0061187809
-5.3916596e-13
0.0061187809
3.3920134e-13
0.0061187809
-1.0764319e-12
0.0061187809
-2.1130681e-13
0.0061187809
-1.5266393e-12
0.0061187809
-4.6485922e-13
0.0061187809
-1.793326e-12
0.0061187809
-6.131056e-13
0.0061187809
-1.8285619e-12
0.0061187809
-4.7228404e-13
0.0061187808
-1.7016466e-12
0.0061187808
-3.3268755e-13
0.0061187808
-1.987203e-12
0.0061187808
-1.0091726e-12
0.0061187808
-4.7870601e-12
0.0061187808
-4.9918585e-12
0.0061187808
-1.1924972e-11
0.0061187808
-1.7318207e-11
0.0061187808
-3.4579296e-11
0.0061187807
-5.2784112e-11
0.0061187807
-1.0080255e-10
-1.3694413e-10
0.0025960136
0.0025842544
0.0025705847
0.0025588761
0.0025499307
0.0025430578
0.0025374967
0.0025328341
0.0025288904
0.0025255535
0.0025227132
0.0025202664
0.0025181319
0.0025162527
0.0025145895
0.0025131126
0.002511798
0.0025106257
0.0025095788
0.0025086437
0.0025078084
0.0025070627
0.0025063978
0.0025058056
0.0025052793
0.0025048124
0.0025043994
0.0025040353
0.0025037154
0.0025034356
0.0025031921
0.0025029815
0.0025028006
0.0025026464
0.0025025161
0.0025024071
0.0025023169
0.0025022433
0.0025021839
0.0025021367
0.0025020998
0.0025020715
0.0025020501
0.0025020342
0.0025020227
0.0025020146
0.002502009
0.0025020052
0.0025020028
0.0025020012
0.0025020003
0.0025019997
0.0025019994
0.0025019993
0.0025019992
0.0025019992
0.0025019992
0.0025019992
0.0025019993
0.0025019993
0.0025019993
0.0025019993
0.0025019993
0.0025019993
0.0025019993
0.0025019993
0.0025019993
0.0025019993
0.0025019993
0.0025019993
0.0025019993
0.0025019993
0.0025019993
0.0025019993
0.0025019993
0.0025019993
0.0025019993
0.0025019993
0.0025019993
0.0025019993
0.0025019993
0.0025019993
0.0025019993
0.0025019993
0.0025019993
0.0025019993
0.0025019993
0.0025019993
0.0025019993
0.0025019993
0.0025019993
0.0025019993
0.0025019993
0.0025019992
0.0025019992
0.0025019992
0.0025019992
0.0025019991
0.002501999
)
;

boundaryField
{
    top
    {
        type            calculated;
        value           uniform 0;
    }
    inlet
    {
        type            calculated;
        value           nonuniform List<scalar> 10(-0.002599697 -0.0062272284 -0.008607432 -0.010026293 -0.01068457 -0.010684569 -0.010026294 -0.0086074316 -0.0062272277 -0.0025996976);
    }
    outlet
    {
        type            calculated;
        value           nonuniform List<scalar> 10(0.0025019987 0.0061187803 0.0085865459 0.010107921 0.010829986 0.010829986 0.010107922 0.0085865463 0.0061187807 0.0025019989);
    }
    bottom
    {
        type            calculated;
        value           uniform 0;
    }
    back
    {
        type            empty;
        value           nonuniform 0();
    }
    front
    {
        type            empty;
        value           nonuniform 0();
    }
}


// ************************************************************************* //
