/*--------------------------------*- C++ -*----------------------------------*\
| =========                 |                                                 |
| \\      /  F ield         | OpenFOAM: The Open Source CFD Toolbox           |
|  \\    /   O peration     | Version:  v1812                                 |
|   \\  /    A nd           | Web:      www.OpenFOAM.com                      |
|    \\/     M anipulation  |                                                 |
\*---------------------------------------------------------------------------*/
FoamFile
{
    version     2.0;
    format      ascii;
    class       volVectorField;
    location    "9";
    object      U;
}
// * * * * * * * * * * * * * * * * * * * * * * * * * * * * * * * * * * * * * //

dimensions      [0 1 -1 0 0 0 0];


internalField   nonuniform List<vector> 
1000
(
(0.25988142 0.00030031069 0)
(0.25922791 0.00083278308 0)
(0.25781207 0.00087705633 0)
(0.25645233 0.00064659072 0)
(0.2554042 0.00041529919 0)
(0.25462328 0.0002772568 0)
(0.25401091 0.00020813298 0)
(0.25350406 0.00016734869 0)
(0.25307551 0.00013589881 0)
(0.2527128 0.00011057545 0)
(0.25240539 9.1747123e-05 0)
(0.25214245 7.8429688e-05 0)
(0.25191454 6.8680086e-05 0)
(0.25171471 6.0901044e-05 0)
(0.25153824 5.4265015e-05 0)
(0.25138174 4.8459606e-05 0)
(0.25124259 4.3353925e-05 0)
(0.2511186 3.883958e-05 0)
(0.25100794 3.48129e-05 0)
(0.25090909 3.1191659e-05 0)
(0.25082079 2.7920177e-05 0)
(0.25074193 2.4959339e-05 0)
(0.25067157 2.2277932e-05 0)
(0.25060886 1.9847672e-05 0)
(0.25055307 1.7643381e-05 0)
(0.25050352 1.5642566e-05 0)
(0.25045964 1.382588e-05 0)
(0.25042087 1.2176097e-05 0)
(0.25038676 1.0678274e-05 0)
(0.25035685 9.3190733e-06 0)
(0.25033076 8.0871204e-06 0)
(0.25030812 6.9725245e-06 0)
(0.25028861 5.9670713e-06 0)
(0.25027191 5.0637277e-06 0)
(0.25025773 4.2566162e-06 0)
(0.25024582 3.5405336e-06 0)
(0.25023591 2.9107417e-06 0)
(0.25022776 2.3625611e-06 0)
(0.25022114 1.891125e-06 0)
(0.25021585 1.4911995e-06 0)
(0.25021168 1.1570242e-06 0)
(0.25020845 8.8241368e-07 0)
(0.25020598 6.6073395e-07 0)
(0.25020414 4.8523615e-07 0)
(0.25020279 3.4907714e-07 0)
(0.25020182 2.457312e-07 0)
(0.25020114 1.6895162e-07 0)
(0.25020068 1.1326326e-07 0)
(0.25020038 7.379992e-08 0)
(0.25020018 4.6620274e-08 0)
(0.25020006 2.8376206e-08 0)
(0.25019998 1.6576656e-08 0)
(0.25019994 9.170115e-09 0)
(0.25019992 4.7751972e-09 0)
(0.25019991 2.2334221e-09 0)
(0.25019991 8.9654348e-10 0)
(0.25019991 1.8288432e-10 0)
(0.25019991 -9.6811075e-11 0)
(0.25019991 -1.9102619e-10 0)
(0.25019991 -1.4539619e-10 0)
(0.25019991 -1.1595534e-10 0)
(0.25019991 -4.9077552e-11 0)
(0.25019991 -4.2910033e-11 0)
(0.25019991 -6.314357e-12 0)
(0.25019991 -2.7374708e-11 0)
(0.25019991 -8.0278157e-12 0)
(0.25019991 -4.1552769e-11 0)
(0.25019991 -2.7944484e-11 0)
(0.25019991 -5.6545345e-11 0)
(0.25019991 -3.5948229e-11 0)
(0.25019991 -5.7188691e-11 0)
(0.25019991 -2.8420606e-11 0)
(0.25019992 -3.978894e-11 0)
(0.25019992 -2.5707761e-12 0)
(0.25019992 -1.1873104e-11 0)
(0.25019992 2.8901762e-11 0)
(0.25019992 2.2546749e-11 0)
(0.25019992 6.2591702e-11 0)
(0.25019992 5.4614636e-11 0)
(0.25019992 8.8828204e-11 0)
(0.25019992 7.76301e-11 0)
(0.25019992 1.0601152e-10 0)
(0.25019992 8.7010054e-11 0)
(0.25019992 1.0745947e-10 0)
(0.25019992 8.4513345e-11 0)
(0.25019991 1.0028253e-10 0)
(0.25019991 7.3889139e-11 0)
(0.25019991 8.6849083e-11 0)
(0.25019991 6.8028349e-11 0)
(0.25019991 8.7155415e-11 0)
(0.25019991 9.226306e-11 0)
(0.25019991 1.3471409e-10 0)
(0.25019991 2.1846643e-10 0)
(0.25019991 3.6157172e-10 0)
(0.25019991 7.2038335e-10 0)
(0.25019991 1.2262714e-09 0)
(0.25019991 2.3011186e-09 0)
(0.2501999 3.6352946e-09 0)
(0.25019989 6.8217505e-09 0)
(0.25019988 8.8799308e-09 0)
(0.6224963 0.00037025587 0)
(0.62307153 0.0015134791 0)
(0.62215534 0.0020221888 0)
(0.62097228 0.0018962066 0)
(0.61997797 0.0015401886 0)
(0.61914905 0.0012263086 0)
(0.61839298 0.0010110411 0)
(0.61768146 0.0008573137 0)
(0.6170264 0.00073071476 0)
(0.61643986 0.00062110952 0)
(0.61592157 0.0005294553 0)
(0.61546366 0.00045575106 0)
(0.61505732 0.00039677312 0)
(0.61469549 0.00034842581 0)
(0.61437281 0.00030763236 0)
(0.61408487 0.00027257589 0)
(0.61382771 0.00024217211 0)
(0.61359784 0.00021562242 0)
(0.6133922 0.00019225917 0)
(0.6132082 0.00017153962 0)
(0.61304361 0.00015304951 0)
(0.61289646 0.00013647691 0)
(0.61276505 0.00012157837 0)
(0.61264784 0.00010815396 0)
(0.61254348 9.6035485e-05 0)
(0.61245075 8.5080003e-05 0)
(0.61236856 7.5165809e-05 0)
(0.61229592 6.6188145e-05 0)
(0.61223194 5.8056468e-05 0)
(0.61217581 5.0692077e-05 0)
(0.61212679 4.402716e-05 0)
(0.61208422 3.8003608e-05 0)
(0.61204746 3.2572376e-05 0)
(0.61201595 2.7692191e-05 0)
(0.61198915 2.3328429e-05 0)
(0.61196657 1.945135e-05 0)
(0.61194773 1.6034459e-05 0)
(0.61193219 1.3052555e-05 0)
(0.61191952 1.0480176e-05 0)
(0.61190934 8.290243e-06 0)
(0.61190128 6.4533474e-06 0)
(0.611895 4.9375157e-06 0)
(0.61189018 3.7086007e-06 0)
(0.61188656 2.7310945e-06 0)
(0.61188389 1.969198e-06 0)
(0.61188196 1.3880164e-06 0)
(0.6118806 9.5462531e-07 0)
(0.61187966 6.3914026e-07 0)
(0.61187903 4.1528694e-07 0)
(0.61187862 2.6080775e-07 0)
(0.61187836 1.5736096e-07 0)
(0.61187821 9.0414958e-08 0)
(0.61187812 4.8707305e-08 0)
(0.61187808 2.392759e-08 0)
(0.61187805 1.003564e-08 0)
(0.61187804 2.8532237e-09 0)
(0.61187804 -5.1921528e-10 0)
(0.61187804 -1.7256679e-09 0)
(0.61187805 -1.8423731e-09 0)
(0.61187805 -1.485793e-09 0)
(0.61187805 -1.0452975e-09 0)
(0.61187805 -6.3711636e-10 0)
(0.61187805 -3.600721e-10 0)
(0.61187805 -1.6971816e-10 0)
(0.61187805 -8.507439e-11 0)
(0.61187805 -3.9365594e-11 0)
(0.61187805 -5.3133425e-11 0)
(0.61187805 -6.5830668e-11 0)
(0.61187805 -9.9805773e-11 0)
(0.61187805 -1.0889125e-10 0)
(0.61187805 -1.3066768e-10 0)
(0.61187805 -1.2013361e-10 0)
(0.61187805 -1.145817e-10 0)
(0.61187805 -7.7143975e-11 0)
(0.61187805 -5.3403082e-11 0)
(0.61187805 -6.8288196e-12 0)
(0.61187805 3.1179055e-11 0)
(0.61187805 9.0472405e-11 0)
(0.61187805 1.2652807e-10 0)
(0.61187805 1.7748752e-10 0)
(0.61187805 2.0683325e-10 0)
(0.61187805 2.4772666e-10 0)
(0.61187805 2.612496e-10 0)
(0.61187805 2.8247315e-10 0)
(0.61187805 2.8573121e-10 0)
(0.61187805 2.9350322e-10 0)
(0.61187805 2.9021992e-10 0)
(0.61187805 2.8419093e-10 0)
(0.61187805 2.9991424e-10 0)
(0.61187805 2.9933825e-10 0)
(0.61187805 3.8055397e-10 0)
(0.61187805 4.1899525e-10 0)
(0.61187805 7.0018146e-10 0)
(0.61187805 9.4005719e-10 0)
(0.61187805 1.8050796e-09 0)
(0.61187805 2.7113929e-09 0)
(0.61187804 4.9781706e-09 0)
(0.61187805 7.4308178e-09 0)
(0.61187802 1.2675125e-08 0)
(0.61187804 1.789656e-08 0)
(0.86031074 0.00029321646 0)
(0.86195601 0.0014272043 0)
(0.8618612 0.0021371659 0)
(0.86148666 0.0022404274 0)
(0.86136308 0.0020253797 0)
(0.86138232 0.0017688743 0)
(0.86136078 0.0015687548 0)
(0.86124646 0.0014110238 0)
(0.86107471 0.0012663668 0)
(0.8608881 0.0011266284 0)
(0.86070608 0.00099728888 0)
(0.86053165 0.00088345624 0)
(0.86036391 0.00078526456 0)
(0.86020347 0.00070004251 0)
(0.86005202 0.00062509792 0)
(0.8599109 0.0005586709 0)
(0.85978048 0.00049964709 0)
(0.85966055 0.00044712399 0)
(0.85955062 0.00040025365 0)
(0.8594502 0.00035827163 0)
(0.85935878 0.00032053918 0)
(0.85927582 0.00028653941 0)
(0.85920075 0.0002558468 0)
(0.859133 0.00022810033 0)
(0.85907205 0.0002029881 0)
(0.85901735 0.00018023961 0)
(0.85896841 0.00015961966 0)
(0.85892477 0.00014092288 0)
(0.85888598 0.00012396887 0)
(0.85885164 0.00010859889 0)
(0.85882134 9.467368e-05 0)
(0.85879475 8.2072015e-05 0)
(0.85877152 7.0689468e-05 0)
(0.85875134 6.0436972e-05 0)
(0.85873393 5.1239033e-05 0)
(0.85871902 4.3031259e-05 0)
(0.85870636 3.5757514e-05 0)
(0.8586957 2.9366512e-05 0)
(0.85868683 2.3808645e-05 0)
(0.85867954 1.9032923e-05 0)
(0.85867361 1.4984955e-05 0)
(0.85866886 1.1605643e-05 0)
(0.85866512 8.8312673e-06 0)
(0.85866222 6.5942932e-06 0)
(0.85866001 4.8252596e-06 0)
(0.85865836 3.4548239e-06 0)
(0.85865715 2.4162274e-06 0)
(0.85865628 1.6472026e-06 0)
(0.85865568 1.0917494e-06 0)
(0.85865527 7.0103753e-07 0)
(0.85865499 4.3402359e-07 0)
(0.85865482 2.5720826e-07 0)
(0.85865471 1.4423904e-07 0)
(0.85865465 7.495212e-08 0)
(0.85865461 3.4568267e-08 0)
(0.85865459 1.2534225e-08 0)
(0.85865458 1.6165776e-09 0)
(0.85865458 -2.9692606e-09 0)
(0.85865458 -4.2046702e-09 0)
(0.85865458 -3.8993234e-09 0)
(0.85865458 -3.0111288e-09 0)
(0.85865458 -2.0860998e-09 0)
(0.85865458 -1.3019605e-09 0)
(0.85865459 -7.549526e-10 0)
(0.85865459 -3.8821578e-10 0)
(0.85865459 -1.9823621e-10 0)
(0.85865459 -9.9597133e-11 0)
(0.85865459 -8.3267414e-11 0)
(0.85865459 -8.3169528e-11 0)
(0.85865459 -1.0930543e-10 0)
(0.85865459 -1.211391e-10 0)
(0.85865459 -1.3595482e-10 0)
(0.85865459 -1.2085522e-10 0)
(0.85865459 -1.0477e-10 0)
(0.85865459 -6.3274525e-11 0)
(0.85865459 -2.7310965e-11 0)
(0.85865459 3.3784911e-11 0)
(0.85865459 8.1211801e-11 0)
(0.85865459 1.4678709e-10 0)
(0.85865459 1.9153988e-10 0)
(0.85865459 2.5463929e-10 0)
(0.85865459 2.8947195e-10 0)
(0.85865459 3.4003008e-10 0)
(0.85865459 3.557916e-10 0)
(0.85865459 3.9880372e-10 0)
(0.85865459 3.9768034e-10 0)
(0.85865459 4.4000245e-10 0)
(0.85865459 4.2285831e-10 0)
(0.85865459 4.9542268e-10 0)
(0.85865459 4.8131633e-10 0)
(0.85865459 6.4550559e-10 0)
(0.85865459 6.855214e-10 0)
(0.85865458 1.1162763e-09 0)
(0.85865459 1.44725e-09 0)
(0.85865458 2.5233618e-09 0)
(0.85865459 3.6438418e-09 0)
(0.85865458 5.9157634e-09 0)
(0.85865459 8.8753934e-09 0)
(0.85865456 1.2959365e-08 0)
(0.8586546 1.7759361e-08 0)
(1.0020192 0.00017976782 0)
(1.0042947 0.00096008639 0)
(1.0046444 0.0015201089 0)
(1.0047469 0.0016714066 0)
(1.0052482 0.0015733051 0)
(1.0059907 0.0014215341 0)
(1.0066927 0.0012993902 0)
(1.007247 0.0012031409 0)
(1.0076825 0.0011108831 0)
(1.0080524 0.0010153572 0)
(1.0083833 0.00092129933 0)
(1.008679 0.00083431534 0)
(1.0089388 0.00075610545 0)
(1.0091651 0.0006856575 0)
(1.0093628 0.0006215481 0)
(1.0095369 0.0005629144 0)
(1.0096909 0.00050932008 0)
(1.0098272 0.00046041576 0)
(1.0099481 0.00041580487 0)
(1.0100551 0.00037507832 0)
(1.0101501 0.00033786733 0)
(1.0102343 0.00030385902 0)
(1.010309 0.00027278204 0)
(1.0103752 0.00024439313 0)
(1.0104337 0.00021846911 0)
(1.0104854 0.00019480628 0)
(1.010531 0.00017321846 0)
(1.0105711 0.00015353638 0)
(1.0106062 0.00013560509 0)
(1.0106369 0.00011928366 0)
(1.0106635 0.00010444399 0)
(1.0106865 9.0971261e-05 0)
(1.0107062 7.8763309e-05 0)
(1.010723 6.7730765e-05 0)
(1.0107371 5.779586e-05 0)
(1.010749 4.8891379e-05 0)
(1.0107587 4.0958393e-05 0)
(1.0107667 3.3943853e-05 0)
(1.0107731 2.7797621e-05 0)
(1.0107781 2.2469669e-05 0)
(1.010782 1.7907745e-05 0)
(1.010785 1.405561e-05 0)
(1.0107872 1.0852545e-05 0)
(1.0107888 8.2334277e-06 0)
(1.01079 6.1302526e-06 0)
(1.0107908 4.4736264e-06 0)
(1.0107913 3.1953451e-06 0)
(1.0107917 2.230127e-06 0)
(1.0107919 1.5179854e-06 0)
(1.010792 1.005157e-06 0)
(1.0107921 6.4547562e-07 0)
(1.0107921 4.0011146e-07 0)
(1.0107921 2.3791804e-07 0)
(1.0107921 1.3425311e-07 0)
(1.0107921 7.0664896e-08 0)
(1.0107921 3.3388802e-08 0)
(1.0107921 1.2965857e-08 0)
(1.0107921 2.637987e-09 0)
(1.0107921 -1.8145579e-09 0)
(1.0107921 -3.2603396e-09 0)
(1.0107921 -3.1620466e-09 0)
(1.0107921 -2.5720984e-09 0)
(1.0107921 -1.8051232e-09 0)
(1.0107921 -1.2129192e-09 0)
(1.0107921 -7.0970371e-10 0)
(1.0107921 -4.4007059e-10 0)
(1.0107921 -2.1793408e-10 0)
(1.0107921 -1.5715103e-10 0)
(1.0107921 -7.2861496e-11 0)
(1.0107921 -9.3732958e-11 0)
(1.0107921 -4.6935404e-11 0)
(1.0107921 -7.9717836e-11 0)
(1.0107921 -2.9974803e-11 0)
(1.0107921 -4.8889401e-11 0)
(1.0107921 1.7365396e-11 0)
(1.0107921 1.9361925e-11 0)
(1.0107921 9.7207836e-11 0)
(1.0107921 1.0179584e-10 0)
(1.0107921 1.8370566e-10 0)
(1.0107921 1.8746514e-10 0)
(1.0107921 2.6640211e-10 0)
(1.0107921 2.6040419e-10 0)
(1.0107921 3.3329224e-10 0)
(1.0107921 3.1583217e-10 0)
(1.0107921 3.8483012e-10 0)
(1.0107921 3.5567589e-10 0)
(1.0107921 4.3288565e-10 0)
(1.0107921 3.9943163e-10 0)
(1.0107921 5.0932193e-10 0)
(1.0107921 4.8511754e-10 0)
(1.0107921 6.8401217e-10 0)
(1.0107921 7.2763714e-10 0)
(1.0107921 1.1797828e-09 0)
(1.0107921 1.5123705e-09 0)
(1.0107921 2.4335546e-09 0)
(1.0107921 3.4173926e-09 0)
(1.0107921 4.9521254e-09 0)
(1.0107921 7.2517997e-09 0)
(1.0107921 9.6537044e-09 0)
(1.0107921 1.2606164e-08 0)
(1.067749 5.9898296e-05 0)
(1.0703141 0.00033352622 0)
(1.0708369 0.00054087517 0)
(1.0711203 0.00060631669 0)
(1.0718913 0.0005790712 0)
(1.0729809 0.00052906332 0)
(1.0740556 0.00048867589 0)
(1.0749731 0.00045762228 0)
(1.0757542 0.00042760822 0)
(1.0764558 0.00039549574 0)
(1.0771063 0.00036293875 0)
(1.077708 0.00033218652 0)
(1.078257 0.00030406497 0)
(1.0787545 0.0002783182 0)
(1.079205 0.00025449086 0)
(1.0796139 0.00023233094 0)
(1.0799853 0.000211751 0)
(1.0803222 0.00019269315 0)
(1.0806273 0.00017507201 0)
(1.0809032 0.00015878597 0)
(1.0811522 0.00014373931 0)
(1.0813766 0.00012984951 0)
(1.0815785 0.00011704325 0)
(1.0817598 0.00010525175 0)
(1.0819222 9.4408645e-05 0)
(1.0820673 8.4450383e-05 0)
(1.0821966 7.5316473e-05 0)
(1.0823114 6.6949746e-05 0)
(1.0824131 5.9296139e-05 0)
(1.0825028 5.2304871e-05 0)
(1.0825815 4.5928526e-05 0)
(1.0826502 4.0123486e-05 0)
(1.08271 3.4850045e-05 0)
(1.0827616 3.0072685e-05 0)
(1.0828058 2.5759889e-05 0)
(1.0828433 2.1883979e-05 0)
(1.082875 1.8420401e-05 0)
(1.0829013 1.5346997e-05 0)
(1.0829231 1.2642875e-05 0)
(1.0829407 1.0287443e-05 0)
(1.082955 8.2593621e-06 0)
(1.0829662 6.5358751e-06 0)
(1.082975 5.0923827e-06 0)
(1.0829817 3.9024762e-06 0)
(1.0829867 2.9383141e-06 0)
(1.0829904 2.17128e-06 0)
(1.0829931 1.5728513e-06 0)
(1.082995 1.1154615e-06 0)
(1.0829963 7.733731e-07 0)
(1.0829972 5.232816e-07 0)
(1.0829978 3.4480681e-07 0)
(1.0829981 2.2063244e-07 0)
(1.0829983 1.3658173e-07 0)
(1.0829985 8.1344718e-08 0)
(1.0829985 4.6242615e-08 0)
(1.0829986 2.470725e-08 0)
(1.0829986 1.2072419e-08 0)
(1.0829986 5.0758959e-09 0)
(1.0829986 1.4859339e-09 0)
(1.0829986 -1.8083705e-10 0)
(1.0829986 -7.9822077e-10 0)
(1.0829986 -9.0618453e-10 0)
(1.0829986 -7.8561522e-10 0)
(1.0829986 -6.1465886e-10 0)
(1.0829986 -4.4042346e-10 0)
(1.0829986 -3.1457175e-10 0)
(1.0829986 -2.0490041e-10 0)
(1.0829986 -1.4111909e-10 0)
(1.0829986 -7.979932e-11 0)
(1.0829986 -4.7655702e-11 0)
(1.0829986 -2.1270791e-12 0)
(1.0829986 1.8612179e-11 0)
(1.0829986 5.3905414e-11 0)
(1.0829986 7.1872966e-11 0)
(1.0829986 1.1015065e-10 0)
(1.0829986 1.2942678e-10 0)
(1.0829986 1.6099504e-10 0)
(1.0829986 1.7668266e-10 0)
(1.0829986 2.0452872e-10 0)
(1.0829986 2.1360225e-10 0)
(1.0829986 2.3022692e-10 0)
(1.0829986 2.3026432e-10 0)
(1.0829986 2.4723422e-10 0)
(1.0829986 2.4452377e-10 0)
(1.0829986 2.5936188e-10 0)
(1.0829986 2.5638769e-10 0)
(1.0829986 2.8490824e-10 0)
(1.0829986 2.926289e-10 0)
(1.0829986 3.4653425e-10 0)
(1.0829986 3.7470548e-10 0)
(1.0829986 4.9611429e-10 0)
(1.0829986 5.945294e-10 0)
(1.0829986 8.8084826e-10 0)
(1.0829986 1.1487971e-09 0)
(1.0829986 1.5981919e-09 0)
(1.0829986 2.1019077e-09 0)
(1.0829986 2.5965187e-09 0)
(1.0829986 3.4880283e-09 0)
(1.0829986 4.2075896e-09 0)
(1.0829986 5.108682e-09 0)
(1.0677489 -5.9896603e-05 0)
(1.0703141 -0.00033351791 0)
(1.0708369 -0.00054086914 0)
(1.0711203 -0.00060632039 0)
(1.0718913 -0.00057908212 0)
(1.0729809 -0.00052907879 0)
(1.0740556 -0.00048869459 0)
(1.0749731 -0.00045764521 0)
(1.0757541 -0.00042763459 0)
(1.0764557 -0.0003955258 0)
(1.0771063 -0.00036297184 0)
(1.0777079 -0.00033222328 0)
(1.078257 -0.00030410442 0)
(1.0787544 -0.00027835987 0)
(1.079205 -0.00025453288 0)
(1.0796139 -0.00023237245 0)
(1.0799853 -0.0002117903 0)
(1.0803222 -0.00019272972 0)
(1.0806273 -0.00017510456 0)
(1.0809031 -0.00015881431 0)
(1.0811521 -0.00014376266 0)
(1.0813765 -0.00012986815 0)
(1.0815784 -0.000117057 0)
(1.0817597 -0.00010526129 0)
(1.0819221 -9.441418e-05 0)
(1.0820672 -8.4452821e-05 0)
(1.0821965 -7.5316189e-05 0)
(1.0823114 -6.6947584e-05 0)
(1.082413 -5.929237e-05 0)
(1.0825027 -5.2300055e-05 0)
(1.0825814 -4.5922673e-05 0)
(1.0826502 -4.0116741e-05 0)
(1.0827099 -3.4842106e-05 0)
(1.0827615 -3.0063353e-05 0)
(1.0828057 -2.574872e-05 0)
(1.0828433 -2.1870636e-05 0)
(1.0828749 -1.8404526e-05 0)
(1.0829013 -1.5328357e-05 0)
(1.082923 -1.2621425e-05 0)
(1.0829407 -1.0263225e-05 0)
(1.0829549 -8.232704e-06 0)
(1.0829662 -6.5070925e-06 0)
(1.0829749 -5.0621215e-06 0)
(1.0829816 -3.8712453e-06 0)
(1.0829867 -2.9069248e-06 0)
(1.0829904 -2.1402662e-06 0)
(1.0829931 -1.5430205e-06 0)
(1.082995 -1.0872438e-06 0)
(1.0829963 -7.4742756e-07 0)
(1.0829972 -4.998038e-07 0)
(1.0829978 -3.2421725e-07 0)
(1.0829981 -2.0287016e-07 0)
(1.0829983 -1.2181058e-07 0)
(1.0829985 -6.9236659e-08 0)
(1.0829985 -3.6747757e-08 0)
(1.0829986 -1.7385647e-08 0)
(1.0829986 -6.7999296e-09 0)
(1.0829986 -1.2737717e-09 0)
(1.0829986 9.7103778e-10 0)
(1.0829986 1.7659952e-09 0)
(1.0829986 1.5791787e-09 0)
(1.0829986 1.2925178e-09 0)
(1.0829986 7.615227e-10 0)
(1.0829986 4.9927008e-10 0)
(1.0829986 1.3000834e-10 0)
(1.0829986 8.2492285e-11 0)
(1.0829986 -9.6700617e-11 0)
(1.0829986 -6.5217192e-12 0)
(1.0829986 -9.5251015e-11 0)
(1.0829986 5.6413458e-11 0)
(1.0829986 -1.8701213e-12 0)
(1.0829986 1.5042928e-10 0)
(1.0829986 8.8691461e-11 0)
(1.0829986 2.3241354e-10 0)
(1.0829986 1.5878243e-10 0)
(1.0829986 2.7749253e-10 0)
(1.0829986 1.788763e-10 0)
(1.0829986 2.8336369e-10 0)
(1.0829986 1.7076442e-10 0)
(1.0829986 2.5979775e-10 0)
(1.0829986 1.2764938e-10 0)
(1.0829986 2.120027e-10 0)
(1.0829986 7.8485382e-11 0)
(1.0829986 1.6649578e-10 0)
(1.0829986 3.9082848e-11 0)
(1.0829986 1.4749617e-10 0)
(1.0829986 3.6694802e-11 0)
(1.0829986 1.6270642e-10 0)
(1.0829986 6.2518555e-11 0)
(1.0829986 2.2137961e-10 0)
(1.0829986 1.5704951e-10 0)
(1.0829986 3.689524e-10 0)
(1.0829986 3.2191787e-10 0)
(1.0829986 5.2990115e-10 0)
(1.0829986 2.9835768e-10 0)
(1.0829986 2.0562886e-10 0)
(1.0829986 -4.1053692e-10 0)
(1.0829986 -1.1610341e-09 0)
(1.0829986 -2.0916839e-09 0)
(1.0829986 -3.1722804e-09 0)
(1.0020193 -0.00017976741 0)
(1.0042946 -0.00096009365 0)
(1.0046444 -0.0015201231 0)
(1.0047469 -0.0016714222 0)
(1.0052482 -0.0015733195 0)
(1.0059906 -0.0014215476 0)
(1.0066926 -0.0012994053 0)
(1.007247 -0.0012031584 0)
(1.0076825 -0.0011109036 0)
(1.0080524 -0.0010153804 0)
(1.0083832 -0.00092132558 0)
(1.0086789 -0.0008343443 0)
(1.0089387 -0.00075613721 0)
(1.009165 -0.00068569091 0)
(1.0093627 -0.00062158245 0)
(1.0095367 -0.00056294821 0)
(1.0096907 -0.00050935266 0)
(1.0098271 -0.00046044589 0)
(1.0099479 -0.00041583212 0)
(1.010055 -0.00037510184 0)
(1.0101499 -0.0003378871 0)
(1.0102341 -0.00030387469 0)
(1.0103088 -0.00027279399 0)
(1.010375 -0.00024440143 0)
(1.0104335 -0.00021847442 0)
(1.0104853 -0.00019480892 0)
(1.0105309 -0.00017321913 0)
(1.010571 -0.00015353538 0)
(1.0106061 -0.00013560296 0)
(1.0106367 -0.00011928054 0)
(1.0106634 -0.00010444007 0)
(1.0106863 -9.0966394e-05 0)
(1.0107061 -7.8757371e-05 0)
(1.0107229 -6.7723422e-05 0)
(1.010737 -5.7786822e-05 0)
(1.0107488 -4.8880323e-05 0)
(1.0107586 -4.0945076e-05 0)
(1.0107666 -3.3928163e-05 0)
(1.0107729 -2.7779532e-05 0)
(1.010778 -2.2449381e-05 0)
(1.0107819 -1.7885478e-05 0)
(1.0107849 -1.4031836e-05 0)
(1.0107871 -1.082767e-05 0)
(1.0107888 -8.2080946e-06 0)
(1.0107899 -6.1049229e-06 0)
(1.0107908 -4.4489617e-06 0)
(1.0107913 -3.171748e-06 0)
(1.0107917 -2.2081673e-06 0)
(1.0107919 -1.4978985e-06 0)
(1.010792 -9.873261e-07 0)
(1.0107921 -6.2992678e-07 0)
(1.0107921 -3.8702555e-07 0)
(1.0107921 -2.27083e-07 0)
(1.0107921 -1.2564487e-07 0)
(1.0107921 -6.3973102e-08 0)
(1.0107921 -2.8496469e-08 0)
(1.0107921 -9.4209838e-09 0)
(1.0107921 -3.5850126e-10 0)
(1.0107921 3.2502166e-09 0)
(1.0107921 3.955774e-09 0)
(1.0107921 3.4583413e-09 0)
(1.0107921 2.495769e-09 0)
(1.0107921 1.6158853e-09 0)
(1.0107921 8.5989197e-10 0)
(1.0107921 4.0482324e-10 0)
(1.0107921 9.600325e-11 0)
(1.0107921 -2.2698713e-13 0)
(1.0107921 -6.7249439e-11 0)
(1.0107921 -6.6911303e-12 0)
(1.0107921 1.8184419e-11 0)
(1.0107921 1.1540116e-10 0)
(1.0107921 1.4370107e-10 0)
(1.0107921 2.2832811e-10 0)
(1.0107921 2.3656678e-10 0)
(1.0107921 2.8639002e-10 0)
(1.0107921 2.5069593e-10 0)
(1.0107921 2.6872132e-10 0)
(1.0107921 2.1193448e-10 0)
(1.0107921 2.0675148e-10 0)
(1.0107921 1.2493642e-10 0)
(1.0107921 1.1085996e-10 0)
(1.0107921 3.9758651e-11 0)
(1.0107921 2.7515626e-11 0)
(1.0107921 -3.9204447e-11 0)
(1.0107921 -4.3988022e-11 0)
(1.0107921 -7.8409417e-11 0)
(1.0107921 -7.0420207e-11 0)
(1.0107921 -8.1521343e-11 0)
(1.0107921 -6.7766415e-11 0)
(1.0107921 -3.7003268e-11 0)
(1.0107921 -3.1991602e-11 0)
(1.0107921 6.1323706e-12 0)
(1.0107921 -1.1760796e-10 0)
(1.0107921 -2.4979224e-10 0)
(1.0107921 -8.6616238e-10 0)
(1.0107921 -1.6371678e-09 0)
(1.0107921 -3.1653277e-09 0)
(1.0107921 -5.4166673e-09 0)
(1.0107921 -7.986396e-09 0)
(1.0107922 -1.0972004e-08 0)
(0.8603107 -0.00029321605 0)
(0.86195599 -0.0014272014 0)
(0.86186116 -0.0021371711 0)
(0.8614866 -0.0022404413 0)
(0.86136303 -0.002025396 0)
(0.86138227 -0.0017688868 0)
(0.86136072 -0.0015687643 0)
(0.86124638 -0.0014110326 0)
(0.86107462 -0.0012663779 0)
(0.860888 -0.0011266415 0)
(0.86070597 -0.00099730407 0)
(0.86053152 -0.00088347238 0)
(0.86036377 -0.0007852823 0)
(0.86020331 -0.00070006107 0)
(0.86005186 -0.00062511758 0)
(0.85991072 -0.00055869041 0)
(0.8597803 -0.00049966636 0)
(0.85966035 -0.00044714175 0)
(0.85955041 -0.00040026992 0)
(0.85944999 -0.00035828549 0)
(0.85935856 -0.00032055093 0)
(0.8592756 -0.00028654853 0)
(0.85920052 -0.00025585379 0)
(0.85913278 -0.00022810498 0)
(0.85907183 -0.0002029911 0)
(0.85901713 -0.00018024093 0)
(0.8589682 -0.00015961995 0)
(0.85892456 -0.00014092212 0)
(0.85888578 -0.00012396753 0)
(0.85885144 -0.00010859684 0)
(0.85882115 -9.4671106e-05 0)
(0.85879456 -8.2068633e-05 0)
(0.85877133 -7.0685245e-05 0)
(0.85875116 -6.0431586e-05 0)
(0.85873376 -5.1232355e-05 0)
(0.85871886 -4.3023079e-05 0)
(0.8587062 -3.5747756e-05 0)
(0.85869556 -2.9355203e-05 0)
(0.8586867 -2.3795843e-05 0)
(0.85867941 -1.9018896e-05 0)
(0.8586735 -1.4969872e-05 0)
(0.85866877 -1.1589953e-05 0)
(0.85866504 -8.8151914e-06 0)
(0.85866215 -6.5783561e-06 0)
(0.85865995 -4.809639e-06 0)
(0.85865831 -3.4400353e-06 0)
(0.85865712 -2.4023604e-06 0)
(0.85865626 -1.6346866e-06 0)
(0.85865567 -1.0805284e-06 0)
(0.85865526 -6.91431e-07 0)
(0.858655 -4.2584256e-07 0)
(0.85865483 -2.5063158e-07 0)
(0.85865473 -1.389464e-07 0)
(0.85865467 -7.1065027e-08 0)
(0.85865464 -3.1675783e-08 0)
(0.85865462 -1.0657381e-08 0)
(0.85865462 -3.3259771e-10 0)
(0.85865461 3.5546077e-09 0)
(0.85865462 4.4822767e-09 0)
(0.85865462 3.7755364e-09 0)
(0.85865462 2.833114e-09 0)
(0.85865462 1.6975116e-09 0)
(0.85865462 9.9511622e-10 0)
(0.85865462 3.2882986e-10 0)
(0.85865462 1.3228562e-10 0)
(0.85865462 -1.3254442e-10 0)
(0.85865462 -5.1541047e-11 0)
(0.85865462 -1.3525547e-10 0)
(0.85865462 5.5325063e-11 0)
(0.85865462 1.3587842e-11 0)
(0.85865462 1.9876516e-10 0)
(0.85865462 1.420877e-10 0)
(0.85865462 2.9971175e-10 0)
(0.85865462 2.0668366e-10 0)
(0.85865462 3.1483371e-10 0)
(0.85865462 1.8156783e-10 0)
(0.85865462 2.6678535e-10 0)
(0.85865462 1.0791831e-10 0)
(0.85865462 1.6438143e-10 0)
(0.85865462 -1.0581674e-11 0)
(0.85865462 5.5423655e-11 0)
(0.85865462 -1.0759236e-10 0)
(0.85865462 -3.9927617e-11 0)
(0.85865462 -1.9195224e-10 0)
(0.85865462 -1.0729919e-10 0)
(0.85865462 -2.3181353e-10 0)
(0.85865462 -1.4085889e-10 0)
(0.85865462 -2.3264267e-10 0)
(0.85865462 -1.2995982e-10 0)
(0.85865462 -1.8658833e-10 0)
(0.85865462 -1.3982752e-10 0)
(0.85865462 -2.2282641e-10 0)
(0.85865462 -4.0122846e-10 0)
(0.85865462 -7.4086694e-10 0)
(0.85865462 -1.5738665e-09 0)
(0.85865463 -2.6055416e-09 0)
(0.85865462 -4.8024731e-09 0)
(0.85865463 -7.8394027e-09 0)
(0.8586546 -1.192808e-08 0)
(0.85865464 -1.6590608e-08 0)
(0.62249623 -0.00037025225 0)
(0.62307147 -0.00151348 0)
(0.62215526 -0.0020221994 0)
(0.62097219 -0.0018962265 0)
(0.61997789 -0.0015402134 0)
(0.61914899 -0.0012263331 0)
(0.61839291 -0.0010110608 0)
(0.61768139 -0.00085732884 0)
(0.61702631 -0.00073072625 0)
(0.61643977 -0.00062111892 0)
(0.61592146 -0.00052946251 0)
(0.61546355 -0.00045575671 0)
(0.61505719 -0.00039677727 0)
(0.61469536 -0.00034842955 0)
(0.61437267 -0.00030763577 0)
(0.61408472 -0.00027257944 0)
(0.61382756 -0.00024217522 0)
(0.61359768 -0.00021562512 0)
(0.61339203 -0.00019226091 0)
(0.61320803 -0.00017154057 0)
(0.61304343 -0.00015304932 0)
(0.61289629 -0.00013647584 0)
(0.61276487 -0.00012157621 0)
(0.61264767 -0.00010815107 0)
(0.61254331 -9.6031787e-05 0)
(0.61245058 -8.5075835e-05 0)
(0.61236839 -7.5161139e-05 0)
(0.61229575 -6.6183247e-05 0)
(0.61223177 -5.8051277e-05 0)
(0.61217565 -5.0686734e-05 0)
(0.61212664 -4.4021551e-05 0)
(0.61208407 -3.7997766e-05 0)
(0.61204732 -3.2566176e-05 0)
(0.61201582 -2.768561e-05 0)
(0.61198903 -2.3321395e-05 0)
(0.61196645 -1.9443849e-05 0)
(0.61194762 -1.6026531e-05 0)
(0.61193209 -1.3044233e-05 0)
(0.61191943 -1.0471604e-05 0)
(0.61190926 -8.281486e-06 0)
(0.61190121 -6.4446219e-06 0)
(0.61189494 -4.9288986e-06 0)
(0.61189013 -3.7003299e-06 0)
(0.61188652 -2.7232018e-06 0)
(0.61188386 -1.9619038e-06 0)
(0.61188194 -1.3813094e-06 0)
(0.61188059 -9.4869347e-07 0)
(0.61187965 -6.3389616e-07 0)
(0.61187903 -4.1087191e-07 0)
(0.61187863 -2.5708446e-07 0)
(0.61187838 -1.5442606e-07 0)
(0.61187823 -8.8074223e-08 0)
(0.61187815 -4.7046331e-08 0)
(0.6118781 -2.2705865e-08 0)
(0.61187808 -9.273774e-09 0)
(0.61187807 -2.3232772e-09 0)
(0.61187807 7.0246547e-10 0)
(0.61187807 1.7979206e-09 0)
(0.61187808 1.7109317e-09 0)
(0.61187808 1.3500015e-09 0)
(0.61187808 8.0460509e-10 0)
(0.61187808 4.5717223e-10 0)
(0.61187808 1.1099277e-10 0)
(0.61187808 2.0637369e-11 0)
(0.61187808 -1.1515294e-10 0)
(0.61187808 -6.1621909e-11 0)
(0.61187808 -1.0086122e-10 0)
(0.61187808 1.9913557e-11 0)
(0.61187808 8.8036297e-12 0)
(0.61187808 1.2297047e-10 0)
(0.61187808 9.5640917e-11 0)
(0.61187808 1.9099235e-10 0)
(0.61187808 1.4044749e-10 0)
(0.61187808 1.9829731e-10 0)
(0.61187808 1.1759793e-10 0)
(0.61187808 1.6209749e-10 0)
(0.61187809 6.490116e-11 0)
(0.61187808 8.9531256e-11 0)
(0.61187809 -1.79341e-11 0)
(0.61187808 1.4821948e-11 0)
(0.61187809 -9.0327157e-11 0)
(0.61187809 -6.4215099e-11 0)
(0.61187809 -1.674546e-10 0)
(0.61187809 -1.185029e-10 0)
(0.61187809 -2.0136848e-10 0)
(0.61187808 -1.4176164e-10 0)
(0.61187809 -2.1587685e-10 0)
(0.61187808 -1.2418806e-10 0)
(0.61187809 -1.9329433e-10 0)
(0.61187808 -9.2327893e-11 0)
(0.61187808 -2.2194168e-10 0)
(0.61187808 -1.6629129e-10 0)
(0.61187808 -5.405242e-10 0)
(0.61187808 -7.2987906e-10 0)
(0.61187808 -1.6280372e-09 0)
(0.61187808 -2.4083458e-09 0)
(0.61187808 -4.7269956e-09 0)
(0.61187808 -7.2562293e-09 0)
(0.61187806 -1.2252649e-08 0)
(0.61187807 -1.7311307e-08 0)
(0.25988147 -0.00030030499 0)
(0.2592279 -0.00083278363 0)
(0.25781203 -0.00087706393 0)
(0.25645229 -0.00064660389 0)
(0.25540416 -0.0004153162 0)
(0.25462325 -0.0002772748 0)
(0.25401087 -0.00020814715 0)
(0.25350401 -0.00016735806 0)
(0.25307546 -0.0001359037 0)
(0.25271275 -0.00011057803 0)
(0.25240534 -9.1747676e-05 0)
(0.2521424 -7.8429171e-05 0)
(0.25191449 -6.8678257e-05 0)
(0.25171466 -6.0898961e-05 0)
(0.25153819 -5.426251e-05 0)
(0.25138169 -4.8457338e-05 0)
(0.25124254 -4.3351323e-05 0)
(0.25111854 -3.883703e-05 0)
(0.25100788 -3.4809897e-05 0)
(0.25090904 -3.1188629e-05 0)
(0.25082073 -2.7916714e-05 0)
(0.25074187 -2.4955838e-05 0)
(0.25067151 -2.2274064e-05 0)
(0.2506088 -1.9843806e-05 0)
(0.25055301 -1.7639241e-05 0)
(0.25050347 -1.5638476e-05 0)
(0.25045958 -1.3821622e-05 0)
(0.25042082 -1.2171942e-05 0)
(0.25038671 -1.0674034e-05 0)
(0.25035681 -9.3149498e-06 0)
(0.25033072 -8.0829674e-06 0)
(0.25030808 -6.9684865e-06 0)
(0.25028857 -5.9630468e-06 0)
(0.25027187 -5.0598006e-06 0)
(0.2502577 -4.2527419e-06 0)
(0.25024579 -3.5367538e-06 0)
(0.25023588 -2.9070762e-06 0)
(0.25022773 -2.3590063e-06 0)
(0.25022112 -1.8877494e-06 0)
(0.25021583 -1.4879609e-06 0)
(0.25021167 -1.1540376e-06 0)
(0.25020844 -8.7959702e-07 0)
(0.25020597 -6.5821583e-07 0)
(0.25020414 -4.828953e-07 0)
(0.25020279 -3.4706188e-07 0)
(0.25020182 -2.4389182e-07 0)
(0.25020115 -1.6743922e-07 0)
(0.25020069 -1.1190084e-07 0)
(0.25020038 -7.2752115e-08 0)
(0.25020019 -4.5692254e-08 0)
(0.25020007 -2.7727763e-08 0)
(0.2502 -1.599226e-08 0)
(0.25019996 -8.8060129e-09 0)
(0.25019994 -4.4134361e-09 0)
(0.25019993 -2.0696366e-09 0)
(0.25019992 -7.1003775e-10 0)
(0.25019992 -1.5576769e-10 0)
(0.25019992 1.6986814e-10 0)
(0.25019992 1.3728114e-10 0)
(0.25019993 1.692799e-10 0)
(0.25019993 3.3680811e-11 0)
(0.25019993 5.8031234e-11 0)
(0.25019993 -4.4935366e-11 0)
(0.25019993 2.6096937e-11 0)
(0.25019993 -5.7354041e-11 0)
(0.25019993 2.738584e-11 0)
(0.25019993 -3.7471985e-11 0)
(0.25019993 5.4665794e-11 0)
(0.25019993 -1.6781948e-11 0)
(0.25019993 7.1119657e-11 0)
(0.25019993 4.4702651e-12 0)
(0.25019993 8.8021556e-11 0)
(0.25019993 6.6215879e-12 0)
(0.25019993 7.6296592e-11 0)
(0.25019993 -6.0594427e-12 0)
(0.25019993 6.3604923e-11 0)
(0.25019993 -3.0937106e-11 0)
(0.25019993 3.4821991e-11 0)
(0.25019993 -4.9997763e-11 0)
(0.25019993 2.0421593e-11 0)
(0.25019993 -7.2950805e-11 0)
(0.25019993 -7.5499279e-12 0)
(0.25019993 -9.116714e-11 0)
(0.25019993 -1.5636755e-11 0)
(0.25019993 -9.977739e-11 0)
(0.25019993 -2.3812684e-11 0)
(0.25019993 -9.7077901e-11 0)
(0.25019993 -8.5189722e-12 0)
(0.25019993 -8.8021472e-11 0)
(0.25019993 -5.2518486e-12 0)
(0.25019993 -1.140185e-10 0)
(0.25019993 -7.8639779e-11 0)
(0.25019993 -3.2114846e-10 0)
(0.25019993 -3.942876e-10 0)
(0.25019992 -8.3213898e-10 0)
(0.25019992 -1.2744135e-09 0)
(0.25019992 -2.4263104e-09 0)
(0.25019992 -3.7099664e-09 0)
(0.2501999 -6.7228601e-09 0)
(0.25019989 -8.7574532e-09 0)
)
;

boundaryField
{
    top
    {
        type            fixedValue;
        value           uniform (0 0 0);
    }
    inlet
    {
        type            pressureNormalInletOutletVelocity;
        phi             phi;
        rho             rho;