/*--------------------------------*- C++ -*----------------------------------*\
| =========                 |                                                 |
| \\      /  F ield         | OpenFOAM: The Open Source CFD Toolbox           |
|  \\    /   O peration     | Version:  2112                                  |
|   \\  /    A nd           | Website:  www.openfoam.com                      |
|    \\/     M anipulation  |                                                 |
\*---------------------------------------------------------------------------*/
FoamFile
{
    version     2.0;
    format      ascii;
    arch        "LSB;label=32;scalar=64";
    class       surfaceScalarField;
    location    "20";
    object      phi;
}
// * * * * * * * * * * * * * * * * * * * * * * * * * * * * * * * * * * * * * //

dimensions      [0 3 -1 0 0 0 0];

oriented        oriented;

internalField   nonuniform List<scalar> 
1890
(
0.0093061957
0.00069380425
0.0082843931
0.0010218027
0.0073298986
0.00095449448
0.0064869553
0.00084294334
0.0057695845
0.0007173708
0.00518986
0.00057972443
0.004738168
0.00045169204
0.00439519
0.00034297801
0.0041390268
0.00025616318
0.003949107
0.00018991984
0.003807888
0.00014121898
0.0037013782
0.0001065098
0.003619058
8.2320217e-05
0.0035534117
6.5646233e-05
0.0034992845
5.4127239e-05
0.0034532445
4.6040035e-05
0.0034130502
4.0194285e-05
0.0033772574
3.5792756e-05
0.0033449387
3.2318764e-05
0.0033154894
2.9449287e-05
0.0032885008
2.6988581e-05
0.0032636805
2.4820302e-05
0.003240805
2.2875479e-05
0.0032196926
2.1112416e-05
0.0032001879
1.9504654e-05
0.0031821539
1.8034015e-05
0.0031654672
1.6686724e-05
0.0031500158
1.5451362e-05
0.003135698
1.4317862e-05
0.0031224209
1.3277074e-05
0.0031101003
1.2320596e-05
0.0030986596
1.1440724e-05
0.0030880292
1.0630435e-05
0.0030781458
9.8833623e-06
0.0030689521
9.193766e-06
0.0030603956
8.5564913e-06
0.0030524286
7.9669183e-06
0.0030450077
7.4209086e-06
0.003038093
6.914755e-06
0.0030316479
6.445132e-06
0.0030256388
6.0090547e-06
0.003020035
5.6038378e-06
0.0030148079
5.2270588e-06
0.0030099314
4.8765247e-06
0.0030053811
4.5502432e-06
0.0030011347
4.2464016e-06
0.0029971714
3.963348e-06
0.0029934718
3.699573e-06
0.0029900181
3.4536936e-06
0.0029867937
3.2244362e-06
0.002983783
3.0106258e-06
0.0029809719
2.811175e-06
0.0029783468
2.62508e-06
0.0029758954
2.4514161e-06
0.0029736061
2.2893324e-06
0.002971468
2.1380434e-06
0.0029694712
1.9968204e-06
0.0029676062
1.8649833e-06
0.0029658643
1.7418988e-06
0.0029642373
1.6269756e-06
0.0029627177
1.5196649e-06
0.0029612982
1.4194547e-06
0.0029599724
1.3258691e-06
0.0029587339
1.2384635e-06
0.0029575771
1.156824e-06
0.0029564965
1.0805672e-06
0.0029554872
1.0093397e-06
0.0029545443
9.4281378e-07
0.0029536636
8.8068728e-07
0.002952841
8.2266975e-07
0.0029520725
7.6848976e-07
0.0029513546
7.1788062e-07
0.002950684
6.7059781e-07
0.0029500576
6.2641182e-07
0.0029494725
5.8512783e-07
0.0029489259
5.4655705e-07
0.0029484154
5.1054197e-07
0.0029479385
4.7690485e-07
0.002947493
4.4550673e-07
0.0029470768
4.1615573e-07
0.002946688
3.8875035e-07
0.0029463248
3.6311996e-07
0.0029459857
3.3925114e-07
0.0029456689
3.1692454e-07
0.0029453728
2.9609292e-07
0.0029450962
2.7643807e-07
0.0029448379
2.5816473e-07
0.0029445969
2.4101832e-07
0.0029443717
2.2539671e-07
0.0029441612
2.1060494e-07
0.0029439641
1.9703066e-07
0.0029437803
1.8369522e-07
0.0029436085
1.717457e-07
0.0029434484
1.6009923e-07
0.0029432981
1.5022881e-07
0.0029431576
1.4049748e-07
0.0029430254
1.3223904e-07
0.0029429003
1.2517432e-07
0.0029427808
1.194757e-07
1.2579521e-07
0.010339525
0.00035427932
0.010570754
0.00079057334
0.010606301
0.0009189482
0.010547573
0.00090167137
0.010422317
0.00084262623
0.010244356
0.00075768559
0.010039421
0.00065662744
0.0098287427
0.00055365587
0.009625135
0.00045977084
0.0094353013
0.00037975355
0.0092624277
0.00031409259
0.0091075332
0.00026140426
0.008970154
0.00021969948
0.0088489024
0.00018689785
0.0087419716
0.000161058
0.0086474927
0.00014051893
0.008563694
0.00012399296
0.0084890108
0.000110476
0.0084221097
9.9219874e-05
0.0083618776
8.9681406e-05
0.0083073955
8.1470666e-05
0.0082579079
7.4307842e-05
0.0082127929
6.7990494e-05
0.0081715353
6.2369989e-05
0.008133705
5.7335014e-05
0.0080989388
5.2800182e-05
0.0080669273
4.8698263e-05
0.0080374037
4.4974952e-05
0.0080101362
4.1585392e-05
0.0079849214
3.8491852e-05
0.0079615799
3.5662161e-05
0.007939952
3.3068614e-05
0.0079198952
3.0687169e-05
0.0079012818
2.8496842e-05
0.0078839963
2.6479233e-05
0.0078679346
2.461814e-05
0.0078530023
2.2899247e-05
0.0078391134
2.1309858e-05
0.0078261895
1.9838676e-05
0.007814159
1.8475619e-05
0.0078029564
1.7211664e-05
0.0077925215
1.6038712e-05
0.0077827991
1.4949464e-05
0.0077737383
1.3937325e-05
0.0077652922
1.2996315e-05
0.0077574176
1.2121006e-05
0.0077500745
1.1306457e-05
0.0077432259
1.0548159e-05
0.0077368376
9.8419845e-06
0.0077308779
9.1841452e-06
0.0077253174
8.571156e-06
0.0077201288
7.9998085e-06
0.0077152867
7.4671473e-06
0.0077107677
6.9704524e-06
0.0077065498
6.5072164e-06
0.0077026127
6.075124e-06
0.0076989375
5.6720291e-06
0.0076955065
5.2959376e-06
0.0076923034
4.9449992e-06
0.0076893129
4.6174967e-06
0.0076865208
4.3118371e-06
0.0076839137
4.0265372e-06
0.0076814793
3.7602174e-06
0.0076792062
3.5115915e-06
0.0076770836
3.2794681e-06
0.0076751014
3.062739e-06
0.0076732503
2.8603809e-06
0.0076715217
2.671441e-06
0.0076699074
2.4950366e-06
0.0076683997
2.3303287e-06
0.0076669917
2.1765359e-06
0.0076656767
2.0329081e-06
0.0076644485
1.8987649e-06
0.0076633014
1.7734586e-06
0.0076622301
1.6564345e-06
0.0076612295
1.54713e-06
0.007660295
1.4450826e-06
0.0076594221
1.3497544e-06
0.0076586069
1.2607627e-06
0.0076578454
1.1776015e-06
0.0076571342
1.0999888e-06
0.0076564699
1.027401e-06
0.0076558495
9.59767e-07
0.00765527
8.9649297e-07
0.0076547285
8.3752065e-07
0.0076542228
7.8193565e-07
0.0076537506
7.303448e-07
0.0076533097
6.8192923e-07
0.0076528976
6.3774739e-07
0.0076525128
5.9552833e-07
0.0076521528
5.5688345e-07
0.0076518174
5.1894432e-07
0.0076515032
4.8582928e-07
0.0076512109
4.5250995e-07
0.0076509358
4.2540844e-07
0.0076506809
3.9535029e-07
0.0076504387
3.7437798e-07
0.0076502167
3.4722784e-07
0.0076500001
3.3612935e-07
3.1080812e-07
0.010188704
0.00016557515
0.010530487
0.00044879099
0.010851453
0.00059798177
0.011124174
0.00062895024
0.011350581
0.00061621886
0.011524486
0.00058378056
0.01164633
0.00053478422
0.011724155
0.00047583051
0.011767999
0.00041592667
0.011786639
0.000361114
0.011787114
0.00031361712
0.011775058
0.00027346025
0.011754861
0.00023989717
0.011729768
0.00021199029
0.011702054
0.00018877259
0.011673239
0.00016933387
0.011644339
0.00015289296
0.011616003
0.00013881183
0.011588629
0.00012659379
0.011562446
0.00011586444
0.011537572
0.00010634493
0.011514052
9.7826998e-05
0.01149189
9.0153361e-05
0.011471056
8.3203363e-05
0.011451509
7.6882606e-05
0.011433193
7.1115553e-05
0.011416051
6.5840288e-05
0.011400021
6.1004911e-05
0.011385042
5.6565079e-05
0.011371051
5.2482349e-05
0.01135799
4.8723035e-05
0.011345801
4.5257389e-05
0.01133443
4.2058988e-05
0.011323822
3.910426e-05
0.011313929
3.6372111e-05
0.011304704
3.3843603e-05
0.011296101
3.1501695e-05
0.01128808
2.9331024e-05
0.011280601
2.7317706e-05
0.011273628
2.5449179e-05
0.011267125
2.3714046e-05
0.011261062
2.2101951e-05
0.011255408
2.0603456e-05
0.011250135
1.920995e-05
0.011245218
1.7913566e-05
0.011240632
1.6707107e-05
0.011236355
1.5583977e-05
0.011232365
1.4538113e-05
0.011228643
1.356394e-05
0.011225171
1.2656314e-05
0.011221931
1.1810496e-05
0.011218909
1.1022108e-05
0.011216089
1.0287118e-05
0.011213458
9.6017984e-06
0.011211002
8.9627025e-06
0.011208711
8.3666308e-06
0.011206572
7.8106145e-06
0.011204576
7.2919008e-06
0.011202713
6.8079366e-06
0.011200974
6.3563523e-06
0.011199351
5.9349439e-06
0.011197836
5.5416606e-06
0.011196422
5.1745941e-06
0.011195101
4.8319683e-06
0.011193869
4.5121358e-06
0.011192718
4.2135661e-06
0.011191643
3.9348446e-06
0.01119064
3.6746462e-06
0.011189703
3.4317368e-06
0.011188829
3.2049467e-06
0.011188012
2.9931927e-06
0.01118725
2.7954434e-06
0.011186538
2.6107825e-06
0.011185873
2.4383298e-06
0.011185252
2.2773204e-06
0.011184672
2.1269626e-06
0.011184131
1.986589e-06
0.011183625
1.855448e-06
0.011183153
1.7330083e-06
0.011182712
1.6185532e-06
0.0111823
1.5118106e-06
0.011181915
1.4121015e-06
0.011181556
1.3192215e-06
0.01118122
1.2319937e-06
0.011180907
1.1506127e-06
0.011180615
1.0741682e-06
0.011180341
1.0038719e-06
0.011180086
9.3761003e-07
0.011179847
8.7674074e-07
0.011179625
8.1770306e-07
0.011179417
7.64751e-07
0.011179223
7.1242174e-07
0.01117904
6.6823769e-07
0.011178872
6.2123318e-07
0.011178712
5.8537922e-07
0.011178567
5.4121071e-07
0.011178426
5.1519638e-07
0.0111783
4.7217484e-07
0.011178177
4.5906326e-07
4.1616625e-07
0.010097182
6.8393555e-05
0.010346961
0.00019901112
0.010662469
0.00028247387
0.010982753
0.00030866649
0.011290229
0.00030874343
0.011575251
0.0002987579
0.011829022
0.00028101348
0.012047865
0.00025698757
0.012233272
0.00023051983
0.01238924
0.00020514589
0.012520295
0.00018256235
0.012630755
0.00016299956
0.012724428
0.00014622489
0.012804515
0.00013190311
0.012873613
0.00011967425
0.012933772
0.0001091746
0.012986596
0.00010006907
0.013033332
9.2076361e-05
0.01307495
8.4975247e-05
0.013112216
7.8598608e-05
0.013145739
7.28223e-05
0.013176012
6.7553935e-05
0.013203441
6.2723919e-05
0.013228366
5.8278886e-05
0.013251071
5.4176976e-05
0.013271803
5.0384424e-05
0.01329077
4.6873163e-05
0.013308155
4.3619187e-05
0.013324119
4.0601472e-05
0.0133388
3.7801291e-05
0.013352321
3.5201758e-05
0.013364791
3.2787529e-05
0.013376306
3.0544585e-05
0.01338695
2.846008e-05
0.0133968
2.6522216e-05
0.013405923
2.4720135e-05
0.013414381
2.3043846e-05
0.013422228
2.1484146e-05
0.013429513
2.0032558e-05
0.013436281
1.8681267e-05
0.013442572
1.7423062e-05
0.013448423
1.625128e-05
0.013453866
1.5159765e-05
0.013458933
1.414283e-05
0.013463652
1.3195217e-05
0.013468047
1.2312064e-05
0.013472142
1.1488866e-05
0.013475959
1.0721443e-05
0.013479517
1.0005919e-05
0.013482834
9.3386979e-06
0.013485928
8.7164421e-06
0.013488814
8.1360609e-06
0.013491507
7.594688e-06
0.013494019
7.0896604e-06
0.013496363
6.6184995e-06
0.013498551
6.1788957e-06
0.013500593
5.7687017e-06
0.013502499
5.3859218e-06
0.013504278
5.0287049e-06
0.013505939
4.695321e-06
0.01350749
4.3841613e-06
0.013508938
4.0937255e-06
0.01351029
3.8226181e-06
0.013511552
3.5695384e-06
0.013512731
3.3332815e-06
0.013513832
3.1127251e-06
0.01351486
2.9068287e-06
0.01351582
2.7146099e-06
0.013516717
2.5351526e-06
0.013517554
2.3675875e-06
0.013518336
2.2111171e-06
0.013519066
2.0649929e-06
0.013519749
1.9285513e-06
0.013520386
1.8011458e-06
0.013520981
1.6822089e-06
0.013521537
1.5711341e-06
0.013522056
1.4674274e-06
0.013522541
1.3705106e-06
0.013522994
1.2800179e-06
0.013523417
1.1954706e-06
0.013523812
1.1167278e-06
0.013524181
1.0431235e-06
0.013524526
9.7437612e-07
0.013524848
9.0964133e-07
0.013525149
8.4956285e-07
0.01352543
7.9344897e-07
0.013525693
7.4191729e-07
0.013525937
6.9263853e-07
0.013526166
6.4730757e-07
0.01352638
6.0336162e-07
0.013526581
5.6485068e-07
0.013526768
5.2615309e-07
0.013526941
4.9395794e-07
0.013527103
4.5837869e-07
0.013527256
4.3260698e-07
0.0135274
3.9893639e-07
0.013527535
3.8077962e-07
0.013527659
3.4705164e-07
0.013527779
3.3804544e-07
3.0571947e-07
0.010068394
1.1245256e-12
0.010267405
4.7650829e-12
0.010549879
1.0658086e-11
0.010858545
1.763104e-11
0.011167288
2.2630016e-11
0.011466046
2.3879685e-11
0.01174706
2.0735242e-11
0.012004047
1.3135347e-11
0.012234567
4.4365032e-12
0.012439713
-6.0299032e-12
0.012622275
-1.4928648e-11
0.012785275
-1.8544527e-11
0.0129315
-1.5695247e-11
0.013063403
-1.058234e-11
0.013183077
-5.2186149e-12
0.013292252
-2.1881774e-12
0.013392321
-2.6753443e-12
0.013484397
-5.4331486e-12
0.013569373
-7.6573356e-12
0.013647971
-9.142733e-12
0.013720794
-8.3720266e-12
0.013788347
-8.6258081e-12
0.013851071
-1.0418257e-11
0.01390935
-1.0524742e-11
0.013963527
-6.9489867e-12
0.014013912
-1.5548044e-12
0.014060785
5.8369467e-12
0.014104404
9.7740677e-12
0.014145006
7.6189139e-12
0.014182807
2.1147705e-12
0.014218009
-5.1983519e-12
0.014250796
-1.1848247e-11
0.014281341
-1.3094278e-11
0.014309801
-8.8664387e-12
0.014336323
-3.4397613e-12
0.014361043
1.5092903e-12
0.014384087
6.4366579e-12
0.014405571
5.8181629e-12
0.014425604
3.1662924e-12
0.014444285
1.7336476e-12
0.014461708
9.0534208e-13
0.014477959
-7.8351773e-13
0.014493119
-4.5644986e-12
0.014507262
-9.1769803e-12
0.014520457
-1.0933258e-11
0.014532769
-7.1379514e-12
0.014544258
-1.0368361e-12
0.01455498
8.1628647e-12
0.014564985
1.3523965e-11
0.014574324
1.0927662e-11
0.014583041
2.6224762e-12
0.014591177
-7.5694497e-12
0.014598771
-1.5659129e-11
0.014605861
-1.5518791e-11
0.01461248
-9.1511412e-12
0.014618658
-3.4598428e-12
0.014624427
7.0354616e-13
0.014629813
5.9678206e-12
0.014634842
8.0700568e-12
0.014639537
8.651898e-12
0.014643921
6.9729808e-12
0.014648015
2.7054634e-12
0.014651838
-4.6954285e-12
0.014655407
-1.3844325e-11
0.01465874
-1.8669302e-11
0.014661853
-1.3568384e-11
0.01466476
-2.8175632e-12
0.014667475
1.3041091e-11
0.01467001
2.5740493e-11
0.014672377
2.4409167e-11
0.014674588
9.2957558e-12
0.014676653
-7.5679828e-12
0.014678582
-2.2467387e-11
0.014680383
-2.1103441e-11
0.014682065
-4.399127e-12
0.014683637
1.0975664e-11
0.014685104
1.5213352e-11
0.014686475
2.8455922e-12
0.014687755
-1.2615829e-11
0.01468895
1.2914247e-12
0.014690067
4.97619e-11
0.01469111
7.587025e-11
0.014692084
3.0666646e-12
0.014692993
-1.2803016e-10
0.014693843
-1.5868706e-10
0.014694638
-3.2198182e-11
0.01469538
1.5613855e-10
0.014696071
2.1128544e-10
0.014696717
5.431704e-11
0.014697321
-1.5422545e-10
0.014697888
-2.2940588e-10
0.014698415
-1.0672992e-10
0.014698907
9.0071327e-11
0.014699363
1.7573558e-10
0.014699796
1.2169247e-10
0.014700198
4.4814684e-12
0.014700581
-6.4090822e-11
0.014700926
-6.169503e-11
0.014701262
-1.3707808e-11
2.2171465e-12
0.010068394
-6.8393553e-05
0.010267405
-0.00019901111
0.010549879
-0.00028247385
0.010858545
-0.00030866646
0.011167288
-0.00030874339
0.011466046
-0.00029875787
0.01174706
-0.00028101345
0.012004047
-0.00025698755
0.012234567
-0.00023051982
0.012439713
-0.0002051459
0.012622275
-0.00018256237
0.012785275
-0.00016299958
0.0129315
-0.00014622492
0.013063403
-0.00013190313
0.013183077
-0.00011967427
0.013292252
-0.00010917461
0.013392321
-0.00010006907
0.013484397
-9.2076372e-05
0.013569373
-8.4975259e-05
0.013647971
-7.8598619e-05
0.013720794
-7.2822312e-05
0.013788347
-6.755395e-05
0.013851071
-6.2723935e-05
0.01390935
-5.8278901e-05
0.013963527
-5.4176983e-05
0.014013912
-5.0384421e-05
0.014060785
-4.6873153e-05
0.014104404
-4.3619175e-05
0.014145006
-4.0601464e-05
0.014182807
-3.7801291e-05
0.014218009
-3.5201766e-05
0.014250796
-3.2787541e-05
0.014281341
-3.0544598e-05
0.014309801
-2.8460091e-05
0.014336323
-2.6522219e-05
0.014361043
-2.4720133e-05
0.014384087
-2.3043842e-05
0.014405571
-2.1484142e-05
0.014425604
-2.0032554e-05
0.014444285
-1.8681264e-05
0.014461708
-1.7423061e-05
0.014477959
-1.6251282e-05
0.014493119
-1.5159774e-05
0.014507262
-1.4142844e-05
0.014520457
-1.3195232e-05
0.014532769
-1.2312072e-05
0.014544258
-1.1488863e-05
0.01455498
-1.0721431e-05
0.014564985
-1.0005906e-05
0.014574324
-9.3386902e-06
0.014583041
-8.7164452e-06
0.014591177
-8.136073e-06
0.014598771
-7.5947027e-06
0.014605861
-7.0896741e-06
0.01461248
-6.6185089e-06
0.014618658
-6.1788993e-06
0.014624427
-5.7686995e-06
0.014629813
-5.3859164e-06
0.014634842
-5.0286941e-06
0.014639537
-4.6953083e-06
0.014643921
-4.3841517e-06
0.014648015
-4.0937245e-06
0.014651838
-3.8226287e-06
0.014655407
-3.5695584e-06
0.01465874
-3.3333022e-06
0.014661853
-3.1127371e-06
0.01466476
-2.906824e-06
0.014667475
-2.7145893e-06
0.01467001
-2.5351264e-06
0.014672377
-2.3675684e-06
0.014674588
-2.2111167e-06
0.014676653
-2.0650087e-06
0.014678582
-1.9285677e-06
0.014680383
-1.8011481e-06
0.014682065
-1.682197e-06
0.014683637
-1.5711199e-06
0.014685104
-1.4674278e-06
0.014686475
-1.3705302e-06
0.014687755
-1.2800299e-06
0.01468895
-1.1954289e-06
0.014690067
-1.116633e-06
0.01469111
-1.0430704e-06
0.014692084
-9.7448193e-07
0.014692993
-9.0991048e-07
0.014693844
-8.4971934e-07
0.014694638
-7.9323049e-07
0.014695379
-7.4153061e-07
0.014696071
-6.9255452e-07
0.014696717
-6.4766403e-07
0.014697322
-6.0378415e-07
0.014697889
-5.6489647e-07
0.014698415
-5.2586662e-07
0.014698906
-4.9373305e-07
0.014699363
-4.5838911e-07
0.014699797
-4.3273825e-07
0.014700199
-3.9898317e-07
0.01470058
-3.8074578e-07
0.014700925
-3.4701996e-07
0.014701261
-3.3802557e-07
-3.0570481e-07
0.010097182
-0.00016557515
0.010346961
-0.00044879098
0.010662469
-0.00059798175
0.010982753
-0.00062895023
0.011290229
-0.00061621885
0.011575251
-0.00058378055
0.011829022
-0.0005347842
0.012047865
-0.0004758305
0.012233272
-0.00041592666
0.01238924
-0.000361114
0.012520295
-0.00031361712
0.012630755
-0.00027346026
0.012724428
-0.00023989719
0.012804515
-0.00021199031
0.012873613
-0.00018877261
0.012933772
-0.00016933389
0.012986596
-0.00015289297
0.013033332
-0.00013881183
0.01307495
-0.00012659379
0.013112216
-0.00011586445
0.013145739
-0.00010634494
0.013176012
-9.7827005e-05
0.013203441
-9.0153366e-05
0.013228366
-8.3203366e-05
0.013251071
-7.6882609e-05
0.013271803
-7.1115556e-05
0.01329077
-6.5840291e-05
0.013308155
-6.1004912e-05
0.013324119
-5.6565076e-05
0.0133388
-5.2482343e-05
0.013352321
-4.8723029e-05
0.013364791
-4.5257385e-05
0.013376306
-4.2058987e-05
0.01338695
-3.9104265e-05
0.0133968
-3.6372119e-05
0.013405923
-3.384361e-05
0.013414381
-3.1501699e-05
0.013422228
-2.9331023e-05
0.013429513
-2.7317702e-05
0.013436281
-2.5449175e-05
0.013442572
-2.3714046e-05
0.013448423
-2.2101954e-05
0.013453866
-2.0603459e-05
0.013458933
-1.9209951e-05
0.013463652
-1.7913568e-05
0.013468047
-1.6707112e-05
0.013472142
-1.5583985e-05
0.013475959
-1.4538124e-05
0.013479517
-1.3563948e-05
0.013482834
-1.2656317e-05
0.013485928
-1.1810491e-05
0.013488814
-1.1022101e-05
0.013491507
-1.0287114e-05
0.013494019
-9.6018008e-06
0.013496363
-8.9627096e-06
0.013498551
-8.3666388e-06
0.013500593
-7.8106202e-06
0.013502499
-7.2919027e-06
0.013504278
-6.8079359e-06
0.013505939
-6.3563503e-06
0.01350749
-5.9349418e-06
0.013508938
-5.5416576e-06
0.01351029
-5.1745892e-06
0.013511552
-4.8319614e-06
0.013512731
-4.5121304e-06
0.013513832
-4.2135662e-06
0.01351486
-3.9348526e-06
0.01351582
-3.6746604e-06
0.013516717
-3.4317516e-06
0.013517554
-3.2049524e-06
0.013518336
-2.9931828e-06
0.013519066
-2.7954213e-06
0.013519749
-2.6107598e-06
0.013520386
-2.4383206e-06
0.013520981
-2.2773316e-06
0.013521537
-2.1269825e-06
0.013522056
-1.9865998e-06
0.013522541
-1.8554248e-06
0.013522994
-1.7329571e-06
0.013523417
-1.6185436e-06
0.013523812
-1.5119003e-06
0.013524181
-1.4122192e-06
0.013524526
-1.3191926e-06
0.013524848
-1.2317864e-06
0.013525149
-1.1504686e-06
0.01352543
-1.0743345e-06
0.013525692
-1.0042185e-06
0.013525937
-9.3774787e-07
0.013526166
-8.7654362e-07
0.01352638
-8.1744329e-07
0.01352658
-7.6471435e-07
0.013526767
-7.1259573e-07
0.013526941
-6.6839969e-07
0.013527104
-6.2125529e-07
0.013527257
-5.853121e-07
0.0135274
-5.411442e-07
0.013527534
-5.151503e-07
0.013527658
-4.7215155e-07
0.013527779
-4.5904673e-07
-4.1613513e-07
0.010188704
-0.00035427931
0.010530487
-0.00079057334
0.010851453
-0.0009189482
0.011124174
-0.00090167136
0.011350581
-0.00084262623
0.011524487
-0.00075768559
0.01164633
-0.00065662744
0.011724155
-0.00055365586
0.011767999
-0.00045977084
0.011786639
-0.00037975354
0.011787114
-0.00031409259
0.011775058
-0.00026140425
0.011754861
-0.00021969948
0.011729768
-0.00018689786
0.011702054
-0.00016105803
0.011673239
-0.00014051895
0.011644339
-0.00012399297
0.011616003
-0.000110476
0.011588629
-9.921987e-05
0.011562446
-8.96814e-05
0.011537572
-8.1470663e-05
0.011514052
-7.4307841e-05
0.01149189
-6.7990491e-05
0.011471056
-6.2369986e-05
0.011451509
-5.7335015e-05
0.011433193
-5.280019e-05
0.011416051
-4.8698276e-05
0.011400021
-4.4974964e-05
0.011385042
-4.1585397e-05
0.011371051
-3.8491846e-05
0.01135799
-3.5662146e-05
0.011345801
-3.3068596e-05
0.01133443
-3.0687156e-05
0.011323822
-2.8496839e-05
0.011313929
-2.647924e-05
0.011304704
-2.4618154e-05
0.011296101
-2.2899261e-05
0.01128808
-2.1309866e-05
0.011280601
-1.9838676e-05
0.011273628
-1.8475615e-05
0.011267125
-1.7211661e-05
0.011261062
-1.6038708e-05
0.011255408
-1.4949458e-05
0.011250135
-1.3937316e-05
0.011245218
-1.2996309e-05
0.011240632
-1.2121008e-05
0.011236355
-1.1306471e-05
0.011232365
-1.0548182e-05
0.011228643
-9.8420075e-06
0.011225171
-9.1841574e-06
0.011221931
-8.5711513e-06
0.011218909
-7.9997897e-06
0.011216089
-7.4671251e-06
0.011213458
-6.9704376e-06
0.011211002
-6.5072148e-06
0.011208711
-6.0751331e-06
0.011206572
-5.6720428e-06
0.011204576
-5.2959514e-06
0.011202713
-4.9450111e-06
0.011200974
-4.6175052e-06
0.011199351
-4.3118394e-06
0.011197836
-4.0265302e-06
0.011196422
-3.7601995e-06
0.011195101
-3.5115666e-06
0.011193869
-3.2794451e-06
0.011192718
-3.0627298e-06
0.011191643
-2.8603949e-06
0.01119064
-2.6714763e-06
0.011189703
-2.4950786e-06
0.011188829
-2.3303553e-06
0.011188012
-2.1765301e-06
0.01118725
-2.0328703e-06
0.011186538
-1.8987173e-06
0.011185873
-1.773429e-06
0.011185252
-1.6564368e-06
0.011184672
-1.5471563e-06
0.01118413
-1.4451014e-06
0.011183625
-1.3497455e-06
0.011183153
-1.2607415e-06
0.011182712
-1.1776208e-06
0.0111823
-1.100083e-06
0.011181915
-1.0275048e-06
0.011181556
-9.5972254e-07
0.01118122
-8.9624321e-07
0.011180907
-8.3728901e-07
0.011180615
-7.8204026e-07
0.011180341
-7.3078846e-07
0.011180085
-6.8230541e-07
0.011179847
-6.3765038e-07
0.011179625
-5.9506913e-07
0.011179417
-5.5655507e-07
0.011179223
-5.1902915e-07
0.01117904
-4.8615874e-07
0.011178872
-4.5273986e-07
0.011178712
-4.2540024e-07
0.011178566
-3.95218e-07
0.011178425
-3.7426352e-07
0.0111783
-3.4717141e-07
0.011178177
-3.3608781e-07
-3.1077013e-07
0.010339525
-0.00069380425
0.010570754
-0.0010218027
0.010606301
-0.00095449448
0.010547573
-0.00084294334
0.010422317
-0.0007173708
0.010244356
-0.00057972444
0.010039421
-0.00045169204
0.0098287427
-0.00034297801
0.009625135
-0.00025616318
0.0094353013
-0.00018991983
0.0092624277
-0.00014121897
0.0091075332
-0.00010650979
0.008970154
-8.2320218e-05
0.0088489023
-6.5646243e-05
0.0087419716
-5.4127254e-05
0.0086474927
-4.604005e-05
0.008563694
-4.0194294e-05
0.0084890108
-3.5792758e-05
0.0084221097
-3.231876e-05
0.0083618775
-2.9449281e-05
0.0083073955
-2.6988574e-05
0.0082579079
-2.4820295e-05
0.0082127929
-2.2875474e-05
0.0081715353
-2.1112413e-05
0.008133705
-1.9504655e-05
0.0080989388
-1.8034022e-05
0.0080669273
-1.6686735e-05
0.0080374037
-1.5451373e-05
0.0080101362
-1.4317867e-05
0.0079849214
-1.327707e-05
0.0079615799
-1.2320583e-05
0.007939952
-1.1440708e-05
0.0079198952
-1.0630422e-05
0.0079012818
-9.8833566e-06
0.0078839963
-9.19377e-06
0.0078679346
-8.5565025e-06
0.0078530023
-7.9669307e-06
0.0078391134
-7.4209173e-06
0.0078261895
-6.9147577e-06
0.007814159
-6.4451305e-06
0.0078029564
-6.0090509e-06
0.0077925215
-5.6038322e-06
0.0077827991
-5.2270509e-06
0.0077737383
-4.8765155e-06
0.0077652922
-4.5502367e-06
0.0077574176
-4.2464028e-06
0.0077500745
-3.9633591e-06
0.0077432259
-3.6995917e-06
0.0077368376
-3.4537126e-06
0.0077308779
-3.2244471e-06
0.0077253174
-3.0106226e-06
0.0077201288
-2.8111592e-06
0.0077152867
-2.6250596e-06
0.0077107677
-2.4514007e-06
0.0077065498
-2.2893272e-06
0.0077026127
-2.1380483e-06
0.0076989375
-1.9968317e-06
0.0076955065
-1.8649975e-06
0.0076923034
-1.7419122e-06
0.0076893129
-1.6269852e-06
0.0076865207
-1.5196672e-06
0.0076839137
-1.4194478e-06
0.0076814793
-1.3258527e-06
0.0076792062
-1.2384409e-06
0.0076770836
-1.1568036e-06
0.0076751014
-1.0805594e-06
0.0076732504
-1.0093516e-06
0.0076715217
-9.4284365e-07
0.0076699073
-8.8072203e-07
0.0076683997
-8.2269226e-07
0.0076669917
-7.6848641e-07
0.0076656767
-7.1785193e-07
0.0076644485
-6.7056124e-07
0.0076633015
-6.2638751e-07
0.0076622301
-5.8512713e-07
0.0076612295
-5.4657137e-07
0.007660295
-5.1055553e-07
0.0076594222
-4.7690393e-07
0.007658607
-4.4550582e-07
0.0076578454
-4.1618835e-07
0.0076571341
-3.8882627e-07
0.0076564697
-3.6317008e-07
0.0076558494
-3.3917473e-07
0.0076552701
-3.1672826e-07
0.0076547287
-2.9597362e-07
0.0076542229
-2.7656425e-07
0.0076537504
-2.5846071e-07
0.0076533095
-2.4120805e-07
0.0076528974
-2.2531169e-07
0.0076525129
-2.1034091e-07
0.007652153
-1.9683708e-07
0.0076518175
-1.8371035e-07
0.0076515032
-1.7191142e-07
0.0076512107
-1.6026393e-07
0.0076509357
-1.5028846e-07
0.007650681
-1.4044538e-07
0.0076504388
-1.3214089e-07
0.0076502167
-1.2509508e-07
0.0076500001
-1.1943018e-07
-1.2577504e-07
0.0093061958
0.0082843931
0.0073298986
0.0064869553
0.0057695845
0.00518986
0.004738168
0.00439519
0.0041390268
0.003949107
0.003807888
0.0037013782
0.003619058
0.0035534117
0.0034992845
0.0034532444
0.0034130501
0.0033772574
0.0033449386
0.0033154894
0.0032885008
0.0032636805
0.003240805
0.0032196926
0.003200188
0.0031821539
0.0031654672
0.0031500158
0.003135698
0.0031224209
0.0031101003
0.0030986596
0.0030880292
0.0030781458
0.0030689521
0.0030603956
0.0030524286
0.0030450077
0.003038093
0.0030316478
0.0030256388
0.003020035
0.0030148079
0.0030099314
0.0030053812
0.0030011348
0.0029971714
0.0029934718
0.0029900181
0.0029867936
0.002983783
0.0029809719
0.0029783468
0.0029758954
0.0029736061
0.002971468
0.0029694712
0.0029676062
0.0029658643
0.0029642373
0.0029627176
0.0029612982
0.0029599724
0.0029587339
0.0029575771
0.0029564966
0.0029554872
0.0029545443
0.0029536636
0.0029528409
0.0029520725
0.0029513546
0.002950684
0.0029500576
0.0029494725
0.0029489259
0.0029484154
0.0029479385
0.002947493
0.0029470767
0.0029466878
0.0029463248
0.0029459859
0.0029456691
0.0029453728
0.002945096
0.0029448377
0.0029445969
0.0029443718
0.0029441612
0.0029439641
0.0029437803
0.0029436086
0.0029434484
0.0029432981
0.0029431576
0.0029430254
0.0029429003
0.0029427809
)
;

boundaryField
{
    top
    {
        type            calculated;
        value           uniform 0;
    }
    inlet
    {
        type            calculated;
        value           nonuniform List<scalar> 10(-0.01 -0.01 -0.01 -0.01 -0.01 -0.01 -0.01 -0.01 -0.01 -0.01);
    }
    outlet
    {
        type            calculated;
        value           nonuniform List<scalar> 10(0.002942655 0.007649815 0.011178072 0.013527889 0.014701567 0.014701567 0.01352789 0.011178072 0.0076498151 0.0029426551);
    }
    bottom
    {
        type            calculated;
        value           uniform 0;
    }
    back
    {
        type            empty;
        value           nonuniform List<scalar> 0();
    }
    front
    {
        type            empty;
        value           nonuniform List<scalar> 0();
    }
}


// ************************************************************************* //
