/*--------------------------------*- C++ -*----------------------------------*\
| =========                 |                                                 |
| \\      /  F ield         | OpenFOAM: The Open Source CFD Toolbox           |
|  \\    /   O peration     | Version:  v1812                                 |
|   \\  /    A nd           | Web:      www.OpenFOAM.com                      |
|    \\/     M anipulation  |                                                 |
\*---------------------------------------------------------------------------*/
FoamFile
{
    version     2.0;
    format      ascii;
    class       volScalarField;
    location    "14";
    object      p;
}
// * * * * * * * * * * * * * * * * * * * * * * * * * * * * * * * * * * * * * //

dimensions      [0 2 -2 0 0 0 0];


internalField   nonuniform List<scalar> 
1000
(
1.5145594
1.4979721
1.4817351
1.4657523
1.4499379
1.4342362
1.4186148
1.4030553
1.3875466
1.3720799
1.3566479
1.3412449
1.3258664
1.3105093
1.2951712
1.2798502
1.2645448
1.2492536
1.2339753
1.2187089
1.2034535
1.1882082
1.1729723
1.157745
1.1425257
1.1273139
1.1121089
1.0969104
1.0817178
1.0665307
1.0513488
1.0361716
1.0209989
1.0058304
0.99066569
0.97550457
0.9603468
0.94519213
0.93004035
0.91489126
0.89974467
0.8846004
0.8694583
0.8543182
0.83917997
0.82404348
0.80890859
0.7937752
0.77864319
0.76351247
0.74838294
0.73325451
0.7181271
0.70300064
0.68787505
0.67275027
0.65762623
0.64250289
0.62738017
0.61225805
0.59713646
0.58201536
0.56689473
0.55177451
0.53665468
0.5215352
0.50641604
0.49129718
0.47617859
0.46106025
0.44594213
0.43082422
0.41570649
0.40058893
0.38547153
0.37035426
0.35523712
0.34012009
0.32500316
0.30988632
0.29476956
0.27965287
0.26453625
0.24941968
0.23430316
0.21918668
0.20407023
0.18895382
0.17383744
0.15872108
0.14360473
0.12848841
0.1133721
0.098255798
0.083139507
0.068023223
0.052906946
0.037790673
0.022674403
0.0075581342
1.514258
1.4976369
1.4816195
1.4658213
1.4500681
1.4343528
1.4187036
1.4031265
1.3876092
1.3721366
1.3566984
1.3412889
1.3259045
1.3105426
1.2952008
1.2798768
1.2645688
1.2492754
1.2339951
1.2187271
1.2034701
1.1882235
1.1729864
1.157758
1.1425377
1.1273249
1.1121191
1.0969198
1.0817265
1.0665388
1.0513563
1.0361786
1.0210054
1.0058363
0.99067119
0.97550966
0.96035151
0.94519648
0.93004437
0.91489498
0.8997481
0.88460357
0.86946122
0.8543209
0.83918246
0.82404577
0.8089107
0.79377714
0.77864498
0.76351411
0.74838445
0.73325589
0.71812837
0.7030018
0.68787611
0.67275124
0.65762711
0.64250369
0.6273809
0.61225871
0.59713706
0.58201591
0.56689522
0.55177496
0.53665508
0.52153556
0.50641637
0.49129747
0.47617885
0.46106048
0.44594234
0.4308244
0.41570665
0.40058907
0.38547165
0.37035437
0.35523721
0.34012017
0.32500323
0.30988638
0.29476961
0.27965291
0.26453628
0.24941971
0.23430318
0.2191867
0.20407025
0.18895383
0.17383745
0.15872108
0.14360474
0.12848841
0.1133721
0.098255801
0.083139509
0.068023225
0.052906947
0.037790674
0.022674405
0.0075581355
1.5137208
1.4969647
1.4812449
1.4657677
1.4501674
1.4344655
1.4187817
1.4031785
1.3876531
1.3721801
1.3567404
1.3413264
1.3259365
1.3105699
1.2952245
1.2798979
1.2645878
1.2492925
1.2340106
1.2187411
1.2034829
1.1882351
1.172997
1.1577677
1.1425466
1.1273332
1.1121267
1.0969268
1.081733
1.0665447
1.0513618
1.0361836
1.0210101
1.0058407
0.9906752
0.97551338
0.96035494
0.94519966
0.93004731
0.9148977
0.89975062
0.8846059
0.86946337
0.85432288
0.83918429
0.82404746
0.80891226
0.79377858
0.7786463
0.76351533
0.74838557
0.73325692
0.71812931
0.70300267
0.68787691
0.67275197
0.65762778
0.6425043
0.62738146
0.61225922
0.59713752
0.58201633
0.56689561
0.55177531
0.5366554
0.52153585
0.50641663
0.49129771
0.47617906
0.46106067
0.44594251
0.43082455
0.41570679
0.40058919
0.38547176
0.37035446
0.35523729
0.34012024
0.32500329
0.30988643
0.29476966
0.27965296
0.26453632
0.24941974
0.2343032
0.21918672
0.20407027
0.18895385
0.17383746
0.15872109
0.14360475
0.12848842
0.11337211
0.098255805
0.083139513
0.068023228
0.05290695
0.037790677
0.022674408
0.007558137
1.5131928
1.496249
1.4807811
1.4656394
1.4502319
1.4345697
1.4188583
1.4032278
1.3876941
1.3722231
1.3567845
1.3413674
1.3259722
1.3106003
1.2952509
1.2799214
1.2646089
1.2493114
1.2340276
1.2187564
1.2034968
1.1882478
1.1730085
1.1577783
1.1425563
1.1273421
1.1121349
1.0969344
1.08174
1.0665512
1.0513677
1.0361892
1.0210152
1.0058454
0.99067961
0.97551746
0.96035873
0.94520317
0.93005057
0.91490072
0.89975342
0.8846085
0.86946578
0.85432512
0.83918636
0.82404938
0.80891404
0.79378022
0.77864782
0.76351674
0.74838687
0.73325812
0.71813042
0.70300369
0.68787785
0.67275284
0.65762858
0.64250504
0.62738214
0.61225984
0.5971381
0.58201686
0.56689609
0.55177575
0.5366558
0.52153621
0.50641696
0.49129801
0.47617934
0.46106092
0.44594273
0.43082476
0.41570697
0.40058936
0.38547191
0.3703546
0.35523742
0.34012035
0.32500339
0.30988652
0.29476973
0.27965302
0.26453638
0.24941979
0.23430325
0.21918675
0.2040703
0.18895388
0.17383748
0.15872111
0.14360477
0.12848844
0.11337212
0.098255815
0.083139521
0.068023235
0.052906956
0.037790682
0.022674412
0.0075581398
1.5128775
1.4958049
1.4804744
1.4655391
1.4502623
1.4346338
1.4189078
1.4032596
1.3877203
1.3722511
1.3568142
1.3413959
1.3259974
1.3106221
1.29527
1.2799385
1.2646244
1.2493255
1.2340403
1.2187679
1.2035073
1.1882573
1.1730173
1.1577864
1.1425638
1.1273489
1.1121413
1.0969402
1.0817454
1.0665562
1.0513724
1.0361935
1.0210192
1.0058491
0.99068305
0.97552066
0.9603617
0.94520594
0.93005314
0.9149031
0.89975563
0.88461055
0.86946769
0.85432689
0.83918801
0.8240509
0.80891545
0.79378153
0.77864904
0.76351786
0.74838791
0.73325909
0.71813132
0.70300452
0.68787861
0.67275354
0.65762923
0.64250564
0.62738269
0.61226035
0.59713856
0.58201729
0.56689648
0.55177611
0.53665613
0.52153652
0.50641724
0.49129827
0.47617957
0.46106113
0.44594293
0.43082493
0.41570713
0.40058951
0.38547204
0.37035472
0.35523752
0.34012045
0.32500347
0.3098866
0.2947698
0.27965308
0.26453643
0.24941983
0.23430329
0.21918679
0.20407033
0.1889539
0.17383751
0.15872113
0.14360478
0.12848845
0.11337213
0.098255825
0.083139529
0.068023242
0.052906962
0.037790688
0.022674416
0.0075581426
1.5128775
1.4958049
1.4804744
1.4655391
1.4502623
1.4346338
1.4189078
1.4032596
1.3877203
1.3722511
1.3568142
1.3413959
1.3259974
1.3106221
1.2952701
1.2799385
1.2646244
1.2493255
1.2340403
1.2187679
1.2035073
1.1882574
1.1730173
1.1577864
1.1425638
1.1273489
1.1121413
1.0969402
1.0817454
1.0665562
1.0513724
1.0361935
1.0210192
1.0058491
0.99068305
0.97552066
0.9603617
0.94520594
0.93005314
0.9149031
0.89975563
0.88461055
0.86946769
0.85432689
0.83918801
0.8240509
0.80891545
0.79378153
0.77864904
0.76351786
0.74838791
0.73325909
0.71813132
0.70300451
0.68787861
0.67275354
0.65762923
0.64250564
0.62738269
0.61226035
0.59713856
0.58201729
0.56689648
0.55177611
0.53665613
0.52153652
0.50641724
0.49129827
0.47617957
0.46106113
0.44594293
0.43082493
0.41570713
0.40058951
0.38547204
0.37035472
0.35523752
0.34012045
0.32500347
0.3098866
0.2947698
0.27965308
0.26453643
0.24941983
0.23430329
0.21918679
0.20407033
0.1889539
0.17383751
0.15872113
0.14360478
0.12848845
0.11337213
0.098255825
0.083139529
0.068023243
0.052906962
0.037790688
0.022674416
0.0075581429
1.5131928
1.496249
1.4807812
1.4656394
1.4502318
1.4345697
1.4188583
1.4032278
1.3876941
1.3722231
1.3567845
1.3413674
1.3259722
1.3106003
1.2952509
1.2799214
1.2646089
1.2493114
1.2340276
1.2187564
1.2034968
1.1882478
1.1730085
1.1577783
1.1425563
1.1273421
1.1121349
1.0969344
1.08174
1.0665512
1.0513677
1.0361892
1.0210152
1.0058454
0.99067961
0.97551746
0.96035873
0.94520317
0.93005057
0.91490072
0.89975342
0.88460849
0.86946578
0.85432512
0.83918636
0.82404938
0.80891403
0.79378022
0.77864782
0.76351673
0.74838686
0.73325812
0.71813042
0.70300369
0.68787785
0.67275283
0.65762858
0.64250504
0.62738214
0.61225984
0.59713809
0.58201686
0.56689609
0.55177575
0.5366558
0.52153621
0.50641696
0.49129801
0.47617934
0.46106092
0.44594273
0.43082476
0.41570697
0.40058936
0.38547191
0.3703546
0.35523742
0.34012035
0.32500339
0.30988652
0.29476973
0.27965302
0.26453638
0.24941979
0.23430325
0.21918676
0.2040703
0.18895388
0.17383748
0.15872111
0.14360477
0.12848844
0.11337212
0.098255816
0.083139522
0.068023236
0.052906957
0.037790683
0.022674413
0.0075581406
1.5137208
1.4969647
1.4812449
1.4657677
1.4501673
1.4344654
1.4187817
1.4031785
1.3876531
1.3721801
1.3567404
1.3413264
1.3259365
1.3105699
1.2952245
1.2798979
1.2645878
1.2492925
1.2340106
1.2187411
1.2034829
1.1882351
1.172997
1.1577677
1.1425466
1.1273332
1.1121267
1.0969268
1.081733
1.0665447
1.0513618
1.0361836
1.0210101
1.0058407
0.9906752
0.97551338
0.96035494
0.94519966
0.93004731
0.91489769
0.89975061
0.88460589
0.86946337
0.85432288
0.83918429
0.82404746
0.80891226
0.79377858
0.7786463
0.76351533
0.74838556
0.73325692
0.71812931
0.70300266
0.6878769
0.67275196
0.65762778
0.6425043
0.62738146
0.61225922
0.59713752
0.58201633
0.56689561
0.55177531
0.5366554
0.52153585
0.50641663
0.49129771
0.47617906
0.46106067
0.44594251
0.43082455
0.41570679
0.40058919
0.38547176
0.37035446
0.35523729
0.34012024
0.32500329
0.30988643
0.29476966
0.27965296
0.26453632
0.24941974
0.2343032
0.21918672
0.20407027
0.18895385
0.17383746
0.15872109
0.14360475
0.12848842
0.11337211
0.098255806
0.083139514
0.068023229
0.052906951
0.037790678
0.022674409
0.0075581377
1.514258
1.4976369
1.4816195
1.4658213
1.450068
1.4343528
1.4187035
1.4031264
1.3876092
1.3721366
1.3566984
1.3412889
1.3259045
1.3105426
1.2952008
1.2798768
1.2645688
1.2492754
1.2339952
1.2187271
1.2034702
1.1882235
1.1729864
1.157758
1.1425377
1.1273249
1.1121192
1.0969198
1.0817265
1.0665388
1.0513563
1.0361786
1.0210054
1.0058363
0.99067118
0.97550966
0.9603515
0.94519648
0.93004437
0.91489497
0.8997481
0.88460357
0.86946122
0.8543209
0.83918246
0.82404577
0.8089107
0.79377714
0.77864498
0.76351411
0.74838444
0.73325589
0.71812837
0.7030018
0.68787611
0.67275123
0.65762711
0.64250369
0.6273809
0.61225871
0.59713706
0.58201591
0.56689522
0.55177496
0.53665508
0.52153556
0.50641637
0.49129747
0.47617885
0.46106048
0.44594234
0.4308244
0.41570665
0.40058907
0.38547165
0.37035437
0.35523721
0.34012017
0.32500323
0.30988638
0.29476961
0.27965292
0.26453628
0.24941971
0.23430318
0.2191867
0.20407025
0.18895384
0.17383745
0.15872109
0.14360474
0.12848842
0.1133721
0.098255802
0.08313951
0.068023226
0.052906948
0.037790675
0.022674406
0.0075581359
1.5145594
1.4979721
1.4817351
1.4657523
1.4499379
1.4342362
1.4186147
1.4030553
1.3875466
1.3720798
1.3566479
1.3412449
1.3258664
1.3105093
1.2951712
1.2798502
1.2645448
1.2492536
1.2339753
1.2187089
1.2034535
1.1882082
1.1729723
1.157745
1.1425257
1.1273139
1.1121089
1.0969104
1.0817178
1.0665307
1.0513488
1.0361716
1.0209989
1.0058304
0.99066569
0.97550457
0.9603468
0.94519213
0.93004035
0.91489125
0.89974466
0.8846004
0.86945829
0.8543182
0.83917997
0.82404347
0.80890859
0.7937752
0.77864319
0.76351247
0.74838294
0.73325451
0.7181271
0.70300064
0.68787505
0.67275027
0.65762623
0.64250288
0.62738017
0.61225804
0.59713646
0.58201536
0.56689473
0.55177451
0.53665468
0.5215352
0.50641604
0.49129718
0.47617859
0.46106025
0.44594213
0.43082422
0.41570649
0.40058893
0.38547153
0.37035426
0.35523712
0.34012009
0.32500316
0.30988632
0.29476956
0.27965287
0.26453625
0.24941968
0.23430316
0.21918668
0.20407023
0.18895382
0.17383744
0.15872108
0.14360474
0.12848841
0.1133721
0.098255799
0.083139508
0.068023224
0.052906946
0.037790673
0.022674403
0.0075581345
)
;

boundaryField
{
    top
    {
        type            zeroGradient;
    }
    inlet
    {
        type            fixedValue;
        value           uniform 1.523;
    }
    outlet
    {
        type            fixedValue;
        value           uniform 0;
    }
    bottom
    {
        type            zeroGradient;
    }
    back
    {
        type            empty;
    }
    front
    {
        type            empty;
    }
}


// ************************************************************************* //
