/*--------------------------------*- C++ -*----------------------------------*\
| =========                 |                                                 |
| \\      /  F ield         | OpenFOAM: The Open Source CFD Toolbox           |
|  \\    /   O peration     | Version:  v1812                                 |
|   \\  /    A nd           | Web:      www.OpenFOAM.com                      |
|    \\/     M anipulation  |                                                 |
\*---------------------------------------------------------------------------*/
FoamFile
{
    version     2.0;
    format      ascii;
    class       surfaceScalarField;
    location    "3";
    object      phi;
}
// * * * * * * * * * * * * * * * * * * * * * * * * * * * * * * * * * * * * * //

dimensions      [0 3 -1 0 0 0 0];
oriented        oriented;


internalField   nonuniform List<scalar> 
1890
(
0.001501912
6.6802079e-06
0.0014853701
1.6540784e-05
0.0014706369
1.4733401e-05
0.0014610948
9.5434308e-06
0.0014555033
5.593118e-06
0.0014522785
3.22633e-06
0.0014505214
1.7583795e-06
0.0014496867
8.3609642e-07
0.0014493636
3.2435216e-07
0.0014492751
8.9673915e-08
0.0014492723
3.8095622e-09
0.0014492946
-2.1488662e-08
0.0014493164
-2.1149375e-08
0.001449332
-1.5177317e-08
0.0014493417
-9.4111385e-09
0.0014493473
-5.393303e-09
0.0014493504
-2.9730982e-09
0.0014493521
-1.6109708e-09
0.0014493531
-8.6925816e-10
0.0014493536
-4.6638684e-10
0.0014493539
-2.4862064e-10
0.001449354
-1.2788989e-10
0.0014493541
-6.2833565e-11
0.0014493542
-2.6282518e-11
0.0014493542
-8.0712239e-12
0.0014493542
2.2206539e-12
0.0014493542
6.2302239e-12
0.0014493542
8.5540972e-12
0.0014493542
7.7156193e-12
0.0014493542
8.0354999e-12
0.0014493542
5.944335e-12
0.0014493542
5.6634527e-12
0.0014493542
3.3937311e-12
0.0014493542
3.1213141e-12
0.0014493542
1.0694037e-12
0.0014493542
9.2758687e-13
0.0014493542
-5.1735113e-13
0.0014493542
-1.7499223e-13
0.0014493542
-1.0979484e-12
0.0014493542
-2.52619e-13
0.0014493542
-6.5193071e-13
0.0014493542
6.040997e-13
0.0014493542
3.0287629e-13
0.0014493542
1.5831125e-12
0.0014493542
1.1276714e-12
0.0014493542
2.3198725e-12
0.0014493542
1.4464338e-12
0.0014493542
2.1970424e-12
0.0014493542
1.0181731e-12
0.0014493542
1.4167667e-12
0.0014493542
8.7538302e-14
0.0014493542
5.9123825e-14
0.0014493542
-1.2794382e-12
0.0014493542
-9.4793969e-13
0.0014493542
-2.3217692e-12
0.0014493542
-1.7032157e-12
0.0014493542
-2.710284e-12
0.0014493542
-1.6555404e-12
0.0014493542
-2.3205623e-12
0.0014493542
-1.0160017e-12
0.0014493542
-1.2594804e-12
0.0014493542
1.5944183e-13
0.0014493542
1.1951006e-13
0.0014493542
1.5220672e-12
0.0014493542
1.2434218e-12
0.0014493542
2.6765114e-12
0.0014493542
2.0324233e-12
0.0014493542
3.1176892e-12
0.0014493542
2.1760244e-12
0.0014493542
2.9557356e-12
0.0014493542
1.6386002e-12
0.0014493542
2.0160378e-12
0.0014493542
6.0234591e-13
0.0014493542
7.2772673e-13
0.0014493542
-8.0797632e-13
0.0014493542
-6.8492935e-13
0.0014493542
-2.1976717e-12
0.0014493542
-1.7951732e-12
0.0014493542
-3.2263333e-12
0.0014493542
-2.5895679e-12
0.0014493542
-3.6850266e-12
0.0014493542
-2.6626844e-12
0.0014493542
-3.4768883e-12
0.0014493542
-2.198778e-12
0.0014493542
-2.6269969e-12
0.0014493542
-1.0795094e-12
0.0014493542
-1.2233862e-12
0.0014493542
3.4305108e-13
0.0014493542
4.7006555e-13
0.0014493542
2.2812127e-12
0.0014493542
2.289274e-12
0.0014493542
4.2327873e-12
0.0014493542
4.7008041e-12
0.0014493542
7.5003076e-12
0.0014493542
1.1370479e-11
0.0014493542
1.3500585e-11
0.0014493542
2.0475531e-11
0.0014493541
1.8911321e-11
0.0014493541
-5.5730578e-12
-5.6489435e-11
0.0031244761
7.5804622e-06
0.0031180766
2.2937443e-05
0.0031087064
2.4102131e-05
0.0031000999
1.8150496e-05
0.003093587
1.2107325e-05
0.0030891134
7.7010316e-06
0.0030862984
4.5741551e-06
0.0030847042
2.4312415e-06
0.0030839012
1.1285095e-06
0.0030835434
4.4859319e-07
0.0030834064
1.4173764e-07
0.0030833634
2.2365679e-08
0.0030833566
-1.3771335e-08
0.0030833603
-1.8394107e-08
0.0030833651
-1.3870681e-08
0.0030833686
-8.6916482e-09
0.0030833708
-5.0182621e-09
0.0030833721
-2.8036647e-09
0.0030833729
-1.5563829e-09
0.0030833734
-8.7023006e-10
0.0030833737
-4.8817056e-10
0.0030833738
-2.7272435e-10
0.003083374
-1.4704358e-10
0.003083374
-7.5294732e-11
0.0030833741
-3.2733611e-11
0.0030833741
-1.005653e-11
0.0030833741
3.0546582e-12
0.0030833741
8.0896639e-12
0.0030833741
1.1116591e-11
0.0030833741
1.040439e-11
0.0030833741
1.0130785e-11
0.0030833741
7.6568197e-12
0.0030833741
6.5876834e-12
0.0030833741
3.9796051e-12
0.0030833741
2.9209772e-12
0.0030833741
9.054924e-13
0.0030833741
2.6332439e-13
0.0030833741
-7.8295906e-13
0.0030833741
-5.8061539e-13
0.0030833741
-9.2877211e-13
0.0030833741
-7.4471176e-14
0.0030833741
2.2194403e-13
0.0030833741
1.3732474e-12
0.0030833741
1.413558e-12
0.0030833741
2.6513679e-12
0.0030833741
2.3309967e-12
0.0030833741
3.0640995e-12
0.0030833741
2.1627987e-12
0.0030833741
2.3794386e-12
0.0030833741
1.1424294e-12
0.0030833741
7.5936378e-13
0.0030833741
-6.9257212e-13
0.0030833741
-9.9463996e-13
0.0030833741
-2.3958309e-12
0.0030833741
-2.3678439e-12
0.0030833741
-3.5017272e-12
0.0030833741
-2.8906587e-12
0.0030833741
-3.4380067e-12
0.0030833741
-2.3759846e-12
0.0030833741
-2.416361e-12
0.0030833741
-1.0114257e-12
0.0030833741
-4.9578376e-13
0.0030833741
9.4668922e-13
0.0030833741
1.276928e-12
0.0030833741
2.8240603e-12
0.0030833741
2.833704e-12
0.0030833741
4.0276138e-12
0.0030833741
3.5146688e-12
0.0030833741
4.2856333e-12
0.0030833741
3.3145888e-12
0.0030833741
3.4949703e-12
0.0030833741
2.0890134e-12
0.0030833741
1.8455567e-12
0.0030833741
4.1077054e-13
0.0030833741
-2.5404548e-13
0.0030833741
-1.8306976e-12
0.0030833741
-2.0965844e-12
0.0030833741
-3.6414124e-12
0.0030833741
-3.6124183e-12
0.0030833741
-4.8895254e-12
0.0030833741
-4.3465366e-12
0.0030833741
-5.1182771e-12
0.0030833741
-4.1598504e-12
0.0030833741
-4.4766168e-12
0.0030833741
-3.0277922e-12
0.0030833741
-2.8086274e-12
0.0030833741
-1.179769e-12
0.0030833741
-4.2157116e-13
0.0030833741
1.4523067e-12
0.0030833741
2.2438581e-12
0.0030833741
4.3875403e-12
0.0030833741
5.011833e-12
0.0030833741
7.9364497e-12
0.0030833741
9.0343431e-12
0.0030833741
1.498244e-11
0.0030833742
1.0125466e-11
0.0030833742
1.0256481e-11
0.0030833742
-3.2036508e-12
0.0030833743
-9.1154349e-11
-1.8028065e-10
0.0039112478
5.1063125e-06
0.0039160248
1.8157177e-05
0.0039188023
2.1324219e-05
0.0039192665
1.7687746e-05
0.0039186023
1.277279e-05
0.0039176546
8.6494721e-06
0.0039167945
5.4346924e-06
0.0039161529
3.0734309e-06
0.0039157406
1.5415863e-06
0.0039155078
6.8229175e-07
0.0039153901
2.6022084e-07
0.003915336
7.7206848e-08
0.0039153128
9.9809767e-09
0.0039153037
-8.8769491e-09
0.0039153005
-1.0268527e-08
0.0039152993
-7.2280234e-09
0.0039152988
-4.3455923e-09
0.0039152986
-2.4579459e-09
0.0039152985
-1.3724264e-09
0.0039152984
-7.7612722e-10
0.0039152985
-4.4757715e-10
0.0039152985
-2.5906914e-10
0.0039152985
-1.4762991e-10
0.0039152985
-7.9162747e-11
0.0039152986
-3.8381968e-11
0.0039152986
-1.3436464e-11
0.0039152986
-5.1001391e-14
0.0039152986
7.3523963e-12
0.0039152986
9.8896616e-12
0.0039152986
1.0943864e-11
0.0039152986
9.5759123e-12
0.0039152986
8.4772201e-12
0.0039152986
6.0947261e-12
0.0039152986
4.584609e-12
0.0039152986
2.483087e-12
0.0039152986
1.2612975e-12
0.0039152986
1.9449942e-13
0.0039152986
-4.4407128e-13
0.0039152986
-6.4537386e-13
0.0039152986
-4.2102651e-13
0.0039152986
1.2660373e-13
0.0039152986
8.1507215e-13
0.0039152986
1.3076469e-12
0.0039152986
2.2325164e-12
0.0039152986
2.3771161e-12
0.0039152986
2.9754281e-12
0.0039152986
2.5869718e-12
0.0039152986
2.6146163e-12
0.0039152986
1.7507042e-12
0.0039152986
1.1658413e-12
0.0039152986
2.3538824e-13
0.0039152986
-6.8971589e-13
0.0039152986
-1.7835223e-12
0.0039152986
-2.2266089e-12
0.0039152986
-3.1636213e-12
0.0039152986
-3.0985771e-12
0.0039152986
-3.538381e-12
0.0039152986
-2.9322211e-12
0.0039152986
-2.7955565e-12
0.0039152986
-1.7739714e-12
0.0039152986
-1.0620029e-12
0.0039152986
-5.6399235e-14
0.0039152986
8.9815279e-13
0.0039152986
2.0904209e-12
0.0039152986
2.5725122e-12
0.0039152986
3.6237519e-12
0.0039152986
3.6478838e-12
0.0039152986
4.2724372e-12
0.0039152986
3.7838851e-12
0.0039152987
3.867989e-12
0.0039152987
2.9190116e-12
0.0039152987
2.500067e-12
0.0039152987
1.342717e-12
0.0039152986
3.7524801e-13
0.0039152986
-7.6266301e-13
0.0039152986
-1.5712226e-12
0.0039152986
-2.8675521e-12
0.0039152986
-3.3103769e-12
0.0039152986
-4.4131298e-12
0.0039152986
-4.4177869e-12
0.0039152986
-5.1025999e-12
0.0039152986
-4.6284653e-12
0.0039152986
-4.816993e-12
0.0039152986
-3.8659495e-12
0.0039152986
-3.5393255e-12
0.0039152986
-2.2377333e-12
0.0039152986
-1.3356441e-12
0.0039152986
1.7986033e-14
0.0039152986
1.3638955e-12
0.0039152986
3.1072553e-12
0.0039152986
4.1636229e-12
0.0039152986
6.1090097e-12
0.0039152986
8.243061e-12
0.0039152986
1.013821e-11
0.0039152987
1.3585572e-11
0.0039152987
6.1298136e-12
0.0039152987
-3.3909109e-12
0.0039152987
-1.9121355e-11
0.0039152987
-1.2661786e-10
-2.2520948e-10
0.0042558612
2.3355139e-06
0.0042646989
9.3172715e-06
0.0042742895
1.1733639e-05
0.0042816766
1.030224e-05
0.0042866625
7.7883278e-06
0.0042898426
5.4700617e-06
0.0042917259
3.5518043e-06
0.004292721
2.0787698e-06
0.0042931791
1.0841504e-06
0.004293359
5.0322061e-07
0.0042934146
2.0541744e-07
0.0042934227
6.9802596e-08
0.0042934172
1.606497e-08
0.0042934096
-8.1948034e-10
0.0042934042
-4.5208887e-09
0.0042934009
-3.6278985e-09
0.004293399
-2.256201e-09
0.0042933979
-1.2775111e-09
0.0042933974
-7.0212394e-10
0.0042933971
-3.9508135e-10
0.0042933969
-2.2696482e-10
0.0042933968
-1.3410066e-10
0.0042933968
-7.5321016e-11
0.0042933968
-4.1473746e-11
0.0042933968
-1.7025486e-11
0.0042933968
-5.0584203e-12
0.0042933968
4.6134247e-12
0.0042933968
6.8854424e-12
0.0042933968
1.0217469e-11
0.0042933968
8.271801e-12
0.0042933968
9.1743194e-12
0.0042933968
5.7858187e-12
0.0042933969
5.837294e-12
0.0042933969
2.5312225e-12
0.0042933969
2.6676984e-12
0.0042933969
2.4959126e-13
0.0042933969
6.0099819e-13
0.0042933969
-9.5893422e-13
0.0042933969
2.8650481e-13
0.0042933969
-5.6799546e-13
0.0042933969
1.1674141e-12
0.0042933969
4.6790123e-13
0.0042933969
2.4568788e-12
0.0042933969
1.3993238e-12
0.0042933969
3.2202299e-12
0.0042933969
1.7252206e-12
0.0042933969
3.1411352e-12
0.0042933969
1.1876987e-12
0.0042933969
1.9698141e-12
0.0042933969
-1.9414237e-15
0.0042933969
2.532222e-13
0.0042933969
-1.8214955e-12
0.0042933969
-1.1338454e-12
0.0042933969
-3.2293579e-12
0.0042933969
-1.973633e-12
0.0042933969
-3.772875e-12
0.0042933969
-2.0767438e-12
0.0042933968
-3.329074e-12
0.0042933968
-1.224121e-12
0.0042933968
-1.9656275e-12
0.0042933968
5.3773335e-14
0.0042933968
-1.1690745e-13
0.0042933969
2.021965e-12
0.0042933969
1.2963384e-12
0.0042933969
3.4748073e-12
0.0042933969
2.3242273e-12
0.0042933969
4.3042588e-12
0.0042933969
2.6446581e-12
0.0042933969
4.1207517e-12
0.0042933969
2.1077171e-12
0.0042933969
3.1568141e-12
0.0042933969
9.4157861e-13
0.0042933969
1.4482462e-12
0.0042933969
-7.4559242e-13
0.0042933969
-3.5777668e-13
0.0042933969
-2.5877271e-12
0.0042933969
-1.8172502e-12
0.0042933969
-4.0769866e-12
0.0042933969
-2.8174728e-12
0.0042933969
-4.853349e-12
0.0042933968
-3.2251046e-12
0.0042933968
-4.8262049e-12
0.0042933968
-2.7447048e-12
0.0042933968
-3.9164286e-12
0.0042933968
-1.638066e-12
0.0042933968
-2.2788649e-12
0.0042933968
1.3513787e-14
0.0042933968
7.9177896e-14
0.0042933968
2.5520032e-12
0.0042933968
2.2550821e-12
0.0042933969
5.3342533e-12
0.0042933969
5.3657837e-12
0.0042933969
9.9215587e-12
0.0042933969
1.0033522e-11
0.0042933969
1.4428899e-11
0.0042933969
7.165338e-12
0.0042933969
-1.5270451e-13
0.0042933969
-1.2688535e-11
0.0042933968
-8.3091416e-11
-1.4856494e-10
0.0043810514
-5.9711086e-11
0.0043903659
-2.7045794e-10
0.0044020999
-1.3388384e-10
0.0044124045
-6.8061415e-11
0.0044201953
-3.0480678e-10
0.0044256671
-7.1685707e-10
0.0044292203
-9.4513024e-10
0.0044313005
-8.9396147e-10
0.0044323861
-7.2140985e-10
0.0044328906
-5.3531801e-10
0.0044330972
-3.7339314e-10
0.0044331679
-2.3362524e-10
0.0044331847
-1.3147395e-10
0.0044331844
-6.3241472e-11
0.0044331803
-2.1477764e-11
0.004433177
3.4964304e-12
0.0044331749
1.5009036e-11
0.0044331738
2.1440324e-11
0.0044331732
2.1145908e-11
0.0044331729
2.0938265e-11
0.0044331727
1.7691778e-11
0.0044331726
1.7140702e-11
0.0044331725
1.418105e-11
0.0044331725
1.4123728e-11
0.0044331725
1.159376e-11
0.0044331725
1.2113494e-11
0.0044331725
9.7523174e-12
0.0044331725
1.008891e-11
0.0044331725
7.4970089e-12
0.0044331725
7.6153624e-12
0.0044331726
4.983503e-12
0.0044331726
4.7773357e-12
0.0044331726
2.1643418e-12
0.0044331726
2.3262673e-12
0.0044331726
2.1999052e-13
0.0044331726
7.7462937e-13
0.0044331726
-8.6380385e-13
0.0044331726
4.5790296e-13
0.0044331726
-5.4148944e-13
0.0044331726
1.0782294e-12
0.0044331726
2.278025e-13
0.0044331726
2.067435e-12
0.0044331726
1.17439e-12
0.0044331726
2.6595015e-12
0.0044331726
1.3858979e-12
0.0044331726
2.6130907e-12
0.0044331726
1.0563083e-12
0.0044331726
1.7481627e-12
0.0044331726
-1.5511359e-13
0.0044331726
4.9298809e-13
0.0044331726
-1.4392393e-12
0.0044331726
-7.7299663e-13
0.0044331726
-2.5977881e-12
0.0044331726
-1.5300882e-12
0.0044331726
-2.9169412e-12
0.0044331726
-1.6431098e-12
0.0044331726
-2.7220664e-12
0.0044331726
-9.682832e-13
0.0044331726
-1.632573e-12
0.0044331726
1.8146305e-13
0.0044331726
-4.4640659e-13
0.0044331726
1.5928491e-12
0.0044331726
9.0464472e-13
0.0044331726
2.6219615e-12
0.0044331726
1.6196861e-12
0.0044331726
3.1980402e-12
0.0044331726
1.9993182e-12
0.0044331726
3.0808722e-12
0.0044331726
1.4871186e-12
0.0044331726
2.4042739e-12
0.0044331726
6.3635641e-13
0.0044331726
1.2204492e-12
0.0044331726
-7.257617e-13
0.0044331726
-5.2917408e-14
0.0044331726
-1.9055574e-12
0.0044331726
-1.1790315e-12
0.0044331726
-2.9681943e-12
0.0044331726
-1.9228711e-12
0.0044331726
-3.3474184e-12
0.0044331726
-2.1825658e-12
0.0044331726
-3.3923331e-12
0.0044331726
-1.8149722e-12
0.0044331725
-2.6394628e-12
0.0044331725
-9.3158959e-13
0.0044331725
-1.6349328e-12
0.0044331725
3.5360481e-13
0.0044331725
-9.0855036e-14
0.0044331726
2.0011205e-12
0.0044331725
1.4771297e-12
0.0044331726
3.8054269e-12
0.0044331726
3.8467384e-12
0.0044331726
7.212099e-12
0.0044331726
8.4315617e-12
0.0044331726
1.285494e-11
0.0044331726
1.3003036e-11
0.0044331726
1.4748944e-11
0.0044331726
1.3023405e-11
0.0044331725
1.0550677e-11
0.0044331724
5.92791e-12
3.4356301e-12
0.0043810514
-2.3355267e-06
0.0043903657
-9.316555e-06
0.0044020998
-1.1733132e-05
0.0044124046
-1.0302573e-05
0.0044201955
-7.7893567e-06
0.0044256672
-5.4714702e-06
0.0044292202
-3.5533651e-06
0.0044313002
-2.0802727e-06
0.0044323857
-1.0854168e-06
0.0044328903
-5.0417603e-07
0.0044330968
-2.06079e-07
0.0044331676
-7.0220377e-08
0.0044331844
-1.6299426e-08
0.0044331842
6.9513087e-10
0.0044331801
4.4752769e-09
0.0044331768
3.6294766e-09
0.0044331748
2.2773626e-09
0.0044331737
1.3121691e-09
0.0044331731
7.385639e-10
0.0044331728
4.3087143e-10
0.0044331726
2.5880533e-10
0.0044331726
1.6396152e-10
0.0044331725
1.0140954e-10
0.0044331725
6.626287e-11
0.0044331725
3.8853259e-11
0.0044331725
2.6594251e-11
0.0044331725
1.3935542e-11
0.0044331725
1.0891031e-11
0.0044331725
4.5589279e-12
0.0044331725
4.9122987e-12
0.0044331726
1.0595443e-12
0.0044331726
2.0109927e-12
0.0044331726
-6.6781047e-13
0.0044331726
8.2685063e-13
0.0044331726
-1.4430006e-12
0.0044331726
3.2633809e-13
0.0044331726
-1.4029828e-12
0.0044331726
9.6352937e-13
0.0044331726
-6.0466167e-13
0.0044331726
1.6918852e-12
0.0044331726
1.7041128e-13
0.0044331726
2.5644498e-12
0.0044331726
5.9495717e-13
0.0044331726
2.5986091e-12
0.0044331726
4.4538307e-13
0.0044331726
2.2355626e-12
0.0044331726
-1.5111225e-13
0.0044331726
1.15634e-12
0.0044331726
-1.3143107e-12
0.0044331726
2.0148637e-13
0.0044331726
-2.2183747e-12
0.0044331726
-5.5821158e-13
0.0044331726
-2.7800087e-12
0.0044331726
-5.9946158e-13
0.0044331726
-2.5931302e-12
0.0044331726
-4.1771408e-13
0.0044331726
-1.9860863e-12
0.0044331726
4.5868133e-13
0.0044331726
-9.7781711e-13
0.0044331726
1.3858271e-12
0.0044331726
-6.9284102e-14
0.0044331726
2.3705636e-12
0.0044331726
5.4672209e-13
0.0044331726
2.6917433e-12
0.0044331726
6.459436e-13
0.0044331726
2.7620623e-12
0.0044331726
4.8445852e-13
0.0044331726
2.1026196e-12
0.0044331726
-1.4879308e-13
0.0044331726
1.4537997e-12
0.0044331726
-9.8111415e-13
0.0044331726
3.9090116e-13
0.0044331726
-1.8904191e-12
0.0044331726
-1.8425568e-13
0.0044331726
-2.480668e-12
0.0044331726
-6.4636927e-13
0.0044331726
-2.7945712e-12
0.0044331726
-5.8497287e-13
0.0044331726
-2.5563332e-12
0.0044331726
-4.2624934e-13
0.0044331726
-2.067427e-12
0.0044331726
3.0409644e-13
0.0044331726
-1.2390257e-12
0.0044331725
1.048089e-12
0.0044331725
-3.5012934e-13
0.0044331725
2.1289169e-12
0.0044331725
5.2217677e-13
0.0044331726
2.9960718e-12
0.0044331726
1.2453745e-12
0.0044331726
4.3458872e-12
0.0044331726
2.8877805e-12
0.0044331726
7.348261e-12
0.0044331726
6.5480558e-12
0.0044331726
1.2795168e-11
0.0044331726
9.7745993e-12
0.0044331726
2.026498e-11
0.0044331726
2.4575248e-11
0.0044331725
3.1090513e-11
0.0044331724
9.4228969e-11
1.5500355e-10
0.0042558606
-5.1063822e-06
0.0042646993
-1.815766e-05
0.00427429
-2.1324882e-05
0.0042816768
-1.7688201e-05
0.0042866623
-1.2773292e-05
0.0042898422
-8.6502286e-06
0.0042917252
-5.4356238e-06
0.0042927201
-3.07434e-06
0.0042931781
-1.5423547e-06
0.004293358
-6.8290044e-07
0.0042934136
-2.6065852e-07
0.0042934218
-7.7504588e-08
0.0042934165
-1.0157639e-08
0.004293409
8.7618663e-09
0.0042934037
1.0216677e-08
0.0042934005
7.2051959e-09
0.0042933987
4.3503833e-09
0.0042933977
2.4698447e-09
0.0042933972
1.3932726e-09
0.0042933969
7.9468549e-10
0.0042933968
4.6980394e-10
0.0042933968
2.7657418e-10
0.0042933968
1.6781753e-10
0.0042933967
9.4290953e-11
0.0042933968
5.6708907e-11
0.0042933968
2.6904762e-11
0.0042933968
1.6410453e-11
0.0042933968
4.2776634e-12
0.0042933968
3.3762494e-12
0.0042933968
-2.1474367e-12
0.0042933968
-2.5793755e-13
0.0042933968
-3.7051947e-12
0.0042933969
-5.1673654e-13
0.0042933969
-3.3551647e-12
0.0042933969
-3.3515146e-14
0.0042933969
-2.6600472e-12
0.0042933969
1.093524e-12
0.0042933969
-1.4851673e-12
0.0042933969
2.0555264e-12
0.0042933969
-6.7958811e-13
0.0042933969
2.748838e-12
0.0042933969
-1.6797151e-13
0.0042933969
2.7090088e-12
0.0042933969
-5.6698667e-13
0.0042933969
2.286431e-12
0.0042933969
-1.2198317e-12
0.0042933969
1.3933219e-12
0.0042933969
-2.2187684e-12
0.0042933969
5.858358e-13
0.0042933969
-2.7092441e-12
0.0042933969
9.9676228e-14
0.0042933969
-2.9767263e-12
0.0042933969
2.6191402e-13
0.0042933969
-2.5049949e-12
0.0042933969
8.1146915e-13
0.0042933969
-1.9675795e-12
0.0042933969
1.714882e-12
0.0042933968
-9.9134311e-13
0.0042933969
2.3822677e-12
0.0042933968
-4.0382561e-13
0.0042933969
2.8968644e-12
0.0042933969
-4.9158196e-14
0.0042933969
2.8405854e-12
0.0042933969
-3.5610545e-13
0.0042933969
2.5234291e-12
0.0042933969
-8.5076995e-13
0.0042933969
1.8182647e-12
0.0042933969
-1.7581023e-12
0.0042933969
1.1172798e-12
0.0042933969
-2.3143929e-12
0.0042933969
3.3076862e-13
0.0042933969
-2.9350322e-12
0.0042933969
8.8179706e-14
0.0042933969
-2.9437821e-12
0.0042933969
7.6466437e-14
0.0042933969
-2.8239836e-12
0.0042933969
5.798116e-13
0.0042933969
-2.160873e-12
0.0042933969
1.2590316e-12
0.0042933969
-1.5453358e-12
0.0042933969
2.1136277e-12
0.0042933968
-5.0681253e-13
0.0042933968
2.7794751e-12
0.0042933968
2.2550374e-14
0.0042933968
3.4414197e-12
0.0042933968
5.4570846e-13
0.0042933968
3.6715757e-12
0.0042933968
6.014087e-13
0.0042933969
3.9039289e-12
0.0042933968
9.9399773e-13
0.0042933969
4.8510963e-12
0.0042933969
2.2618295e-12
0.0042933969
6.8713621e-12
0.0042933969
4.5339108e-12
0.0042933969
7.7667434e-12
0.0042933969
1.320914e-11
0.0042933969
2.2928342e-11
0.0042933969
3.2856767e-11
0.0042933968
1.350727e-10
2.3063466e-10
0.0039112455
-7.5806657e-06
0.0039160233
-2.2938391e-05
0.0039188011
-2.4103175e-05
0.0039192653
-1.815108e-05
0.003918601
-1.2107447e-05
0.0039176532
-7.7010075e-06
0.0039167931
-4.5742066e-06
0.0039161515
-2.4313913e-06
0.0039157393
-1.1286894e-06
0.0039155065
-4.4874466e-07
0.003915389
-1.4186416e-07
0.003915335
-2.2443218e-08
0.003915312
1.3710606e-08
0.003915303
1.8343467e-08
0.0039152999
1.384044e-08
0.0039152988
8.6730714e-09
0.0039152984
5.0130937e-09
0.0039152983
2.8037172e-09
0.0039152982
1.5622721e-09
0.0039152983
8.7763948e-10
0.0039152983
4.9801677e-10
0.0039152984
2.8174729e-10
0.0039152984
1.5722208e-10
0.0039152985
8.4132464e-11
0.0039152985
4.2764023e-11
0.0039152986
1.8571211e-11
0.0039152986
6.4253759e-12
0.0039152986
-2.6506394e-13
0.0039152986
-2.8933112e-12
0.0039152986
-4.4490598e-12
0.0039152986
-4.2215677e-12
0.0039152986
-4.0777247e-12
0.0039152986
-3.0200069e-12
0.0039152986
-2.7971845e-12
0.0039152986
-1.7182535e-12
0.0039152986
-1.2681675e-12
0.0039152986
-1.3650953e-13
0.0039152986
-1.3672939e-13
0.0039152986
6.5392615e-13
0.0039152986
6.3100875e-13
0.0039152986
1.1757687e-12
0.0039152986
6.3842317e-13
0.0039152986
7.486467e-13
0.0039152987
1.4037339e-13
0.0039152987
2.6718635e-13
0.0039152987
-6.4452496e-13
0.0039152987
-6.0961721e-13
0.0039152987
-1.2250276e-12
0.0039152987
-9.4195386e-13
0.0039152987
-1.488093e-12
0.0039152987
-1.075308e-12
0.0039152987
-1.1384272e-12
0.0039152986
-4.151883e-13
0.0039152986
-5.2837833e-13
0.0039152986
2.0438644e-13
0.0039152986
2.323885e-13
0.0039152986
1.139273e-12
0.0039152986
8.7423197e-13
0.0039152986
1.4248304e-12
0.0039152986
1.2047842e-12
0.0039152986
1.6140276e-12
0.0039152986
9.6852708e-13
0.0039152986
1.0189928e-12
0.0039152986
4.1037655e-13
0.0039152986
4.7354564e-13
0.0039152987
-4.4447946e-13
0.0039152987
-4.4641596e-13
0.0039152987
-1.1775409e-12
0.0039152987
-9.7635934e-13
0.0039152987
-1.7310915e-12
0.0039152987
-1.4908907e-12
0.0039152987
-1.8003711e-12
0.0039152987
-1.2522215e-12
0.0039152987
-1.5288591e-12
0.0039152987
-9.1642378e-13
0.0039152987
-8.1738847e-13
0.0039152986
5.1990673e-14
0.0039152986
-8.7524269e-14
0.0039152986
8.1137095e-13
0.0039152986
8.7792026e-13
0.0039152986
1.7929955e-12
0.0039152986
1.5816022e-12
0.0039152986
2.1806298e-12
0.0039152986
2.0220873e-12
0.0039152986
2.5463685e-12
0.0039152986
1.9960991e-12
0.0039152986
2.1792074e-12
0.0039152986
1.716363e-12
0.0039152986
1.9479349e-12
0.0039152986
1.3944462e-12
0.0039152986
1.6169337e-12
0.0039152987
1.2448656e-12
0.0039152987
8.4869403e-13
0.0039152987
-1.7974834e-13
0.0039152987
-2.6454757e-12
0.0039152987
3.2525958e-12
0.0039152987
1.1222867e-12
0.0039152987
1.0578435e-11
0.0039152987
9.6139911e-11
1.8386096e-10
0.0031244719
-6.6801782e-06
0.0031180734
-1.6540749e-05
0.0031087038
-1.473341e-05
0.0031000976
-9.5433139e-06
0.003093585
-5.5926436e-06
0.0030891119
-3.2256523e-06
0.0030862974
-1.757759e-06
0.0030847034
-8.3563182e-07
0.0030839005
-3.2399949e-07
0.0030835427
-8.9377228e-08
0.0030834058
-3.5489545e-09
0.0030833628
2.1711058e-08
0.0030833561
2.1312643e-08
0.0030833598
1.5293785e-08
0.0030833647
9.4887021e-09
0.0030833683
5.4512642e-09
0.0030833706
3.0115764e-09
0.0030833719
1.6431348e-09
0.0030833727
8.9080329e-10
0.0030833733
4.8688404e-10
0.0030833736
2.6185261e-10
0.0030833738
1.4200136e-10
0.0030833739
7.1445833e-11
0.003083374
3.6671054e-11
0.003083374
1.3971756e-11
0.0030833741
5.8395968e-12
0.0030833741
-1.5034934e-12
0.0030833741
-1.3218334e-12
0.0030833741
-4.7915275e-12
0.0030833741
-2.1201614e-12
0.0030833741
-4.429204e-12
0.0030833741
-1.271938e-12
0.0030833741
-3.3557577e-12
0.0030833741
-4.3362597e-13
0.0030833741
-2.2690923e-12
0.0030833741
6.8279499e-13
0.0030833741
-1.3913753e-12
0.0030833741
1.3392703e-12
0.0030833741
-8.3876482e-13
0.0030833741
1.7887806e-12
0.0030833741
-6.8505277e-13
0.0030833741
1.6091734e-12
0.0030833741
-9.6492716e-13
0.0030833742
1.33661e-12
0.0030833741
-1.4162124e-12
0.0030833742
7.425323e-13
0.0030833741
-1.8367902e-12
0.0030833742
4.9091763e-13
0.0030833741
-2.0288234e-12
0.0030833742
3.1560715e-13
0.0030833741
-1.9156238e-12
0.0030833741
7.425313e-13
0.0030833741
-1.5367946e-12
0.0030833741
1.1295603e-12
0.0030833741
-1.0248284e-12
0.0030833741
1.7349181e-12
0.0030833741
-5.2302727e-13
0.0030833741
1.9755624e-12
0.0030833741
-2.6325596e-13
0.0030833741
2.1686887e-12
0.0030833741
-3.116166e-13
0.0030833741
1.8707451e-12
0.0030833741
-7.1110155e-13
0.0030833741
1.5564361e-12
0.0030833741
-1.2258598e-12
0.0030833742
9.0364974e-13
0.0030833742
-1.7460469e-12
0.0030833742
4.9410327e-13
0.0030833742
-2.1288279e-12
0.0030833742
6.1853318e-14
0.0030833742
-2.2846918e-12
0.0030833742
1.3392998e-13
0.0030833742
-2.1749889e-12
0.0030833742
2.9278913e-13
0.0030833741
-1.83203e-12
0.0030833741
9.2705684e-13
0.0030833741
-1.3095335e-12
0.0030833741
1.3924486e-12
0.0030833741
-7.075587e-13
0.0030833741
2.0441275e-12
0.0030833741
-1.2364699e-13
0.0030833741
2.3606357e-12
0.0030833741
1.8305985e-13
0.0030833741
2.6830239e-12
0.0030833741
2.769137e-13
0.0030833741
2.5315499e-12
0.0030833741
9.6973175e-14
0.0030833741
2.3470272e-12
0.0030833741
-1.802964e-13
0.0030833742
1.9509071e-12
0.0030833742
-7.1220176e-13
0.0030833742
1.1391118e-12
0.0030833742
-2.9756115e-12
0.0030833742
-2.0673883e-12
0.0030833742
-7.2335417e-12
0.0030833742
-6.8530441e-12
0.0030833742
-1.7555616e-11
0.0030833742
-1.8386859e-11
0.0030833743
5.8778233e-12
5.7174114e-11
0.0015019101
0.0014853692
0.0014706365
0.0014610944
0.001455503
0.0014522785
0.0014505218
0.0014496871
0.0014493639
0.0014492753
0.0014492724
0.0014492946
0.0014493163
0.0014493319
0.0014493416
0.0014493472
0.0014493503
0.0014493521
0.001449353
0.0014493536
0.0014493539
0.001449354
0.0014493541
0.0014493542
0.0014493542
0.0014493542
0.0014493542
0.0014493542
0.0014493542
0.0014493542
0.0014493542
0.0014493542
0.0014493542
0.0014493542
0.0014493542
0.0014493542
0.0014493542
0.0014493542
0.0014493542
0.0014493542
0.0014493542
0.0014493542
0.0014493542
0.0014493542
0.0014493542
0.0014493542
0.0014493542
0.0014493542
0.0014493542
0.0014493542
0.0014493542
0.0014493542
0.0014493542
0.0014493542
0.0014493542
0.0014493542
0.0014493542
0.0014493542
0.0014493542
0.0014493542
0.0014493542
0.0014493542
0.0014493542
0.0014493542
0.0014493542
0.0014493542
0.0014493542
0.0014493542
0.0014493542
0.0014493542
0.0014493542
0.0014493542
0.0014493542
0.0014493542
0.0014493542
0.0014493542
0.0014493542
0.0014493542
0.0014493542
0.0014493542
0.0014493542
0.0014493542
0.0014493542
0.0014493542
0.0014493542
0.0014493542
0.0014493542
0.0014493542
0.0014493542
0.0014493542
0.0014493542
0.0014493542
0.0014493542
0.0014493542
0.0014493542
0.0014493542
0.0014493542
0.0014493541
0.0014493542
)
;

boundaryField
{
    top
    {
        type            calculated;
        value           uniform 0;
    }
    inlet
    {
        type            calculated;
        value           nonuniform List<scalar> 10(-0.0015085932 -0.003125378 -0.0039087771 -0.0042530935 -0.0043787187 -0.0043787194 -0.0042530921 -0.0039087743 -0.0031253736 -0.0015085906);
    }
    outlet
    {
        type            calculated;
        value           nonuniform List<scalar> 10(0.0014493542 0.0030833744 0.0039152988 0.0042933967 0.0044331723 0.0044331723 0.0042933967 0.0039152988 0.0030833744 0.0014493542);
    }
    bottom
    {
        type            calculated;
        value           uniform 0;
    }
    back
    {
        type            empty;
        value           nonuniform 0();
    }
    front
    {
        type            empty;
        value           nonuniform 0();
    }
}


// ************************************************************************* //
