/*--------------------------------*- C++ -*----------------------------------*\
| =========                 |                                                 |
| \\      /  F ield         | OpenFOAM: The Open Source CFD Toolbox           |
|  \\    /   O peration     | Version:  v1812                                 |
|   \\  /    A nd           | Web:      www.OpenFOAM.com                      |
|    \\/     M anipulation  |                                                 |
\*---------------------------------------------------------------------------*/
FoamFile
{
    version     2.0;
    format      ascii;
    class       surfaceScalarField;
    location    "6.25";
    object      phi;
}
// * * * * * * * * * * * * * * * * * * * * * * * * * * * * * * * * * * * * * //

dimensions      [0 3 -1 0 0 0 0];
oriented        oriented;


internalField   nonuniform List<scalar> 
1890
(
0.0093061957
0.00069380425
0.0082843931
0.0010218027
0.0073298986
0.00095449449
0.0064869553
0.00084294334
0.0057695845
0.0007173708
0.00518986
0.00057972444
0.004738168
0.00045169205
0.00439519
0.00034297801
0.0041390268
0.00025616318
0.0039491069
0.00018991984
0.003807888
0.00014121897
0.0037013782
0.0001065098
0.003619058
8.2320223e-05
0.0035534117
6.5646248e-05
0.0034992844
5.412726e-05
0.0034532444
4.6040056e-05
0.0034130501
4.0194302e-05
0.0033772573
3.5792766e-05
0.0033449386
3.2318769e-05
0.0033154893
2.9449291e-05
0.0032885007
2.6988587e-05
0.0032636804
2.4820316e-05
0.0032408049
2.2875503e-05
0.0032196924
2.1112451e-05
0.0032001877
1.9504704e-05
0.0031821536
1.8034082e-05
0.0031654668
1.6686811e-05
0.0031500153
1.5451467e-05
0.0031356974
1.4317986e-05
0.0031224201
1.3277214e-05
0.0031100994
1.232075e-05
0.0030986585
1.1440883e-05
0.0030880279
1.0630573e-05
0.0030781445
9.8834216e-06
0.0030689509
9.1936419e-06
0.0030603949
8.5560082e-06
0.0030524291
7.965806e-06
0.0030450104
7.4187723e-06
0.0030380994
6.9110432e-06
0.0030316603
6.4390957e-06
0.0030256607
5.9997104e-06
0.0030200709
5.5899233e-06
0.003014864
5.20701e-06
0.0030100157
4.848448e-06
0.003005504
4.511926e-06
0.0030013089
4.1953157e-06
0.0029974124
3.896701e-06
0.0029937983
3.6143502e-06
0.0029904518
3.3467605e-06
0.0029873594
3.0926233e-06
0.0029845088
2.8508718e-06
0.0029818884
2.6206327e-06
0.0029794874
2.4012705e-06
0.0029772953
2.1923203e-06
0.002975302
1.9935227e-06
0.0029734974
1.8047434e-06
0.0029718716
1.6259962e-06
0.0029704143
1.4573546e-06
0.0029691154
1.2989658e-06
0.0029679645
1.150969e-06
0.0029669509
1.0135029e-06
0.0029660642
8.8663845e-07
0.0029652937
7.703856e-07
0.002964629
6.6465263e-07
0.0029640596
5.6925131e-07
0.0029635756
4.8388437e-07
0.0029631673
4.0815038e-07
0.0029628256
3.4156e-07
0.0029625419
2.8353513e-07
0.0029623084
2.3344731e-07
0.0029621176
1.9060888e-07
0.0029619632
1.5432823e-07
0.0029618393
1.2388655e-07
0.0029617406
9.8602236e-08
0.0029616627
7.7793788e-08
0.0029616018
6.0849177e-08
0.0029615546
4.717408e-08
0.0029615183
3.6258194e-08
0.0029614907
2.7616796e-08
0.0029614699
2.0855025e-08
0.0029614543
1.5602888e-08
0.0029614427
1.157548e-08
0.0029614342
8.50631e-09
0.002961428
6.2031349e-09
0.0029614235
4.4825528e-09
0.0029614203
3.2193543e-09
0.002961418
2.2918686e-09
0.0029614164
1.6219392e-09
0.0029614152
1.1360853e-09
0.0029614145
7.891892e-10
0.002961414
5.4516094e-10
0.0029614136
3.7862736e-10
0.0029614133
2.7826291e-10
0.0029614131
2.2501039e-10
0.0029614128
2.3167313e-10
0.0029614125
2.8246784e-10
0.0029614121
4.0900176e-10
0.0029614114
6.5445103e-10
0.0029614103
1.1756727e-09
1.7989736e-09
0.010339525
0.00035427932
0.010570754
0.00079057335
0.010606301
0.00091894821
0.010547572
0.00090167137
0.010422317
0.00084262624
0.010244356
0.00075768559
0.010039421
0.00065662744
0.0098287427
0.00055365586
0.009625135
0.00045977083
0.0094353013
0.00037975354
0.0092624277
0.00031409259
0.0091075332
0.00026140426
0.0089701539
0.00021969949
0.0088489023
0.00018689788
0.0087419715
0.00016105804
0.0086474926
0.00014051897
0.0085636939
0.00012399299
0.0084890107
0.00011047602
0.0084221096
9.921989e-05
0.0083618774
8.9681421e-05
0.0083073953
8.1470686e-05
0.0082579078
7.4307867e-05
0.0082127928
6.7990521e-05
0.0081715352
6.2370019e-05
0.0081337048
5.7335043e-05
0.0080989387
5.2800201e-05
0.0080669273
4.8698254e-05
0.0080374039
4.4974886e-05
0.0080101366
4.1585226e-05
0.0079849223
3.8491526e-05
0.0079615815
3.5661587e-05
0.0079399547
3.3067656e-05
0.0079198996
3.0685614e-05
0.0079012887
2.8494368e-05
0.007884007
2.6475358e-05
0.0078679508
2.461217e-05
0.0078530264
2.2890207e-05
0.0078391487
2.1296417e-05
0.0078262407
1.9819057e-05
0.0078142323
1.8447506e-05
0.00780306
1.7172096e-05
0.0077926659
1.5984e-05
0.0077829979
1.4875114e-05
0.0077740084
1.383801e-05
0.0077656545
1.2865866e-05
0.0077578974
1.1952473e-05
0.007750702
1.1092194e-05
0.0077440364
1.0280007e-05
0.0077378717
9.5114722e-06
0.0077321817
8.7827927e-06
0.0077269418
8.0907619e-06
0.0077221297
7.4328206e-06
0.0077177241
6.8069673e-06
0.0077137046
6.2117915e-06
0.0077100518
5.6463481e-06
0.0077067464
5.1101558e-06
0.0077037693
4.6030446e-06
0.0077011015
4.1251246e-06
0.0076987237
3.6766294e-06
0.0076966167
3.2578677e-06
0.007694761
2.8690871e-06
0.007693137
2.5104247e-06
0.0076917254
2.1818161e-06
0.0076905069
1.882959e-06
0.0076894626
1.6132775e-06
0.0076885744
1.3719057e-06
0.0076878246
1.157709e-06
0.0076871967
9.6928539e-07
0.007686675
8.05032e-07
0.0076862452
6.6315276e-07
0.0076858939
5.4175523e-07
0.0076856092
4.3885534e-07
0.0076853805
3.5248286e-07
0.0076851984
2.8067072e-07
0.0076850546
2.215588e-07
0.007684942
1.733633e-07
0.0076848546
1.3446849e-07
0.0076847875
1.0337294e-07
0.0076847363
7.8771513e-08
0.0076846977
5.9483371e-08
0.0076846688
4.4525693e-08
0.0076846473
3.3023102e-08
0.0076846315
2.4283014e-08
0.00768462
1.7690225e-08
0.0076846117
1.2787975e-08
0.0076846058
9.1576774e-09
0.0076846015
6.5174983e-09
0.0076845986
4.5889904e-09
0.0076845965
3.2200055e-09
0.0076845951
2.2264393e-09
0.0076845942
1.549039e-09
0.0076845935
1.0650343e-09
0.007684593
7.7324265e-10
0.0076845926
5.9419945e-10
0.0076845923
5.4339524e-10
0.0076845919
6.0300624e-10
0.0076845915
7.5544172e-10
0.0076845911
1.1319201e-09
0.0076845909
1.5602079e-09
2.2633765e-09
0.010188704
0.00016557515
0.010530487
0.000448791
0.010851453
0.00059798178
0.011124174
0.00062895025
0.011350581
0.00061621887
0.011524486
0.00058378056
0.01164633
0.00053478421
0.011724155
0.0004758305
0.011767999
0.00041592666
0.011786639
0.000361114
0.011787114
0.00031361712
0.011775058
0.00027346027
0.011754861
0.0002398972
0.011729768
0.00021199033
0.011702054
0.00018877263
0.011673239
0.00016933391
0.011644339
0.00015289299
0.011616003
0.00013881186
0.011588629
0.00012659382
0.011562446
0.00011586448
0.011537571
0.00010634498
0.011514052
9.7827042e-05
0.011491889
9.0153405e-05
0.011471056
8.3203405e-05
0.011451508
7.6882638e-05
0.011433193
7.1115555e-05
0.011416051
6.5840231e-05
0.011400021
6.1004751e-05
0.011385042
5.6564756e-05
0.011371051
5.2481777e-05
0.011357991
4.8722083e-05
0.011345803
4.5255856e-05
0.011334432
4.2056572e-05
0.011323826
3.910052e-05
0.011313935
3.6366407e-05
0.011304712
3.3835042e-05
0.011296113
3.1489051e-05
0.011288097
2.9312648e-05
0.011280624
2.7291417e-05
0.01127366
2.541215e-05
0.011267169
2.3662685e-05
0.011261121
2.2031796e-05
0.011255487
2.0509088e-05
0.01125024
1.9084935e-05
0.011245356
1.7750437e-05
0.011240811
1.649739e-05
0.011236585
1.5318296e-05
0.011232659
1.4206357e-05
0.011229015
1.3155512e-05
0.011225637
1.2160436e-05
0.011222512
1.1216582e-05
0.011219624
1.0320147e-05
0.011216963
9.4681097e-06
0.011214517
8.6581406e-06
0.011212275
7.8886136e-06
0.011210226
7.1584633e-06
0.011208362
6.4671613e-06
0.011206673
5.814536e-06
0.011205149
5.2007223e-06
0.011203781
4.62597e-06
0.011202559
4.090585e-06
0.011201474
3.5947588e-06
0.011200518
3.1385203e-06
0.011199679
2.721614e-06
0.011198948
2.3434789e-06
0.011198317
2.0031916e-06
0.011197775
1.699474e-06
0.011197313
1.4307021e-06
0.011196923
1.1949404e-06
0.011196596
9.8999968e-07
0.011196324
8.1348421e-07
0.0111961
6.6287961e-07
0.011195917
5.3559511e-07
0.011195768
4.2905914e-07
0.011195649
3.407454e-07
0.011195554
2.6825826e-07
0.011195479
2.0933678e-07
0.011195421
1.619199e-07
0.011195375
1.2413032e-07
0.01119534
9.4316085e-08
0.011195314
7.1020646e-08
0.011195294
5.3002698e-08
0.011195279
3.9201893e-08
0.011195268
2.8738558e-08
0.01119526
2.088467e-08
0.011195254
1.5046188e-08
0.01119525
1.0751665e-08
0.011195247
7.616843e-09
0.011195245
5.3567728e-09
0.011195243
3.7353198e-09
0.011195242
2.5944415e-09
0.011195241
1.8039491e-09
0.011195241
1.2767397e-09
0.011195241
9.6877829e-10
0.01119524
7.9033622e-10
0.01119524
8.028198e-10
0.01119524
8.4717911e-10
0.01119524
1.1612578e-09
0.01119524
1.4084441e-09
1.8951723e-09
0.010097182
6.8393556e-05
0.010346961
0.00019901112
0.010662469
0.00028247387
0.010982753
0.00030866649
0.011290229
0.00030874342
0.011575251
0.00029875789
0.011829022
0.00028101346
0.012047865
0.00025698756
0.012233272
0.00023051982
0.01238924
0.00020514591
0.012520295
0.00018256237
0.012630755
0.00016299959
0.012724428
0.00014622493
0.012804515
0.00013190314
0.012873613
0.00011967429
0.012933772
0.00010917464
0.012986596
0.0001000691
0.013033332
9.2076403e-05
0.01307495
8.4975298e-05
0.013112216
7.8598667e-05
0.013145739
7.2822365e-05
0.013176012
6.7554006e-05
0.013203441
6.2723996e-05
0.013228366
5.8278968e-05
0.013251071
5.4177053e-05
0.013271802
5.0384481e-05
0.013290769
4.687318e-05
0.013308155
4.3619135e-05
0.013324118
4.0601315e-05
0.013338799
3.780097e-05
0.01335232
3.520118e-05
0.013364789
3.2786551e-05
0.013376303
3.0542998e-05
0.013386946
2.8457576e-05
0.013396794
2.651836e-05
0.013405915
2.4714326e-05
0.013414368
2.3035269e-05
0.013422209
2.1471708e-05
0.013429486
2.0014819e-05
0.013436242
1.8656362e-05
0.013442516
1.7388627e-05
0.013448343
1.6204385e-05
0.013453755
1.5096851e-05
0.013458781
1.4059666e-05
0.013463444
1.3086867e-05
0.013467769
1.2172915e-05
0.013471774
1.1312655e-05
0.013475479
1.0501393e-05
0.0134789
9.7348458e-06
0.013482051
9.0092406e-06
0.013484947
8.3212398e-06
0.013487599
7.668062e-06
0.01349002
7.0473592e-06
0.01349222
6.4573415e-06
0.013494213
5.8966068e-06
0.013496007
5.3642529e-06
0.013497614
4.8596674e-06
0.013499046
4.382618e-06
0.013500314
3.9330217e-06
0.013501429
3.5110144e-06
0.013502403
3.1167265e-06
0.013503247
2.750333e-06
0.013503974
2.4118655e-06
0.013504594
2.1012516e-06
0.013505119
1.8181855e-06
0.01350556
1.5621596e-06
0.013505927
1.3324059e-06
0.01350623
1.1279217e-06
0.013506477
9.4747761e-07
0.013506677
7.8963421e-07
0.013506838
6.5281101e-07
0.013506966
5.3528144e-07
0.013507066
4.3528164e-07
0.013507144
3.5098128e-07
0.013507204
2.8061475e-07
0.01350725
2.2242061e-07
0.013507285
1.7478356e-07
0.01350731
1.3614189e-07
0.013507329
1.0512989e-07
0.013507343
8.0456154e-08
0.013507353
6.1046415e-08
0.013507361
4.5897394e-08
0.013507366
3.4221116e-08
0.013507369
2.5277463e-08
0.013507371
1.8526808e-08
0.013507373
1.3447636e-08
0.013507374
9.6971134e-09
0.013507375
6.9196229e-09
0.013507375
4.9165731e-09
0.013507376
3.4533332e-09
0.013507376
2.4303477e-09
0.013507376
1.7005e-09
0.013507376
1.2208803e-09
0.013507376
9.1049425e-10
0.013507376
7.3117721e-10
0.013507376
6.7290585e-10
0.013507376
6.5941107e-10
0.013507377
7.9674992e-10
0.013507377
9.0894134e-10
1.130849e-09
0.010068394
1.234558e-13
0.010267405
4.8119489e-13
0.010549879
8.8961531e-13
0.010858545
1.3924758e-12
0.011167288
2.0492885e-12
0.011466046
2.9127488e-12
0.01174706
4.0153719e-12
0.012004047
5.3955278e-12
0.012234567
7.0551425e-12
0.012439713
9.0459123e-12
0.012622275
1.1352181e-11
0.012785275
1.4061977e-11
0.0129315
1.7182328e-11
0.013063403
2.0867868e-11
0.013183077
2.5177396e-11
0.013292252
3.034525e-11
0.013392321
3.6422156e-11
0.013484397
4.3711912e-11
0.013569373
5.214755e-11
0.013647971
6.211296e-11
0.013720793
7.3273862e-11
0.013788347
8.6095786e-11
0.013851071
9.9951892e-11
0.01390935
1.1543651e-10
0.013963527
1.3164883e-10
0.014013911
1.4936828e-10
0.014060784
1.6753083e-10
0.014104403
1.8708873e-10
0.014145004
2.0651873e-10
0.014182805
2.2671792e-10
0.014218006
2.4558229e-10
0.014250792
2.6385458e-10
0.014281335
2.7879714e-10
0.014309792
2.9046247e-10
0.01433631
2.9611304e-10
0.014361024
2.9524012e-10
0.014384059
2.855791e-10
0.014405531
2.6583263e-10
0.014425545
2.3619244e-10
0.014444201
1.9427018e-10
0.01446159
1.4349145e-10
0.014477794
8.136949e-11
0.014492891
1.2946811e-11
0.014506951
-7.5216487e-11
0.014520038
-1.5836479e-10
0.014532211
-2.5020001e-10
0.014543524
-3.3496932e-10
0.014554025
-4.2445907e-10
0.014563761
-4.9898331e-10
0.014572771
-5.7501307e-10
0.014581092
-6.2922029e-10
0.014588761
-6.8137239e-10
0.014595809
-7.0633814e-10
0.014602267
-7.2840756e-10
0.014608165
-7.2221165e-10
0.01461353
-7.1244217e-10
0.01461839
-6.7614082e-10
0.014622773
-6.3832463e-10
0.014626707
-5.8026254e-10
0.014630219
-5.2211831e-10
0.014633336
-4.5039408e-10
0.014636087
-3.8126206e-10
0.014638499
-3.0670115e-10
0.0146406
-2.3628973e-10
0.014642419
-1.6675864e-10
0.014643981
-1.0263302e-10
0.014645314
-4.5825671e-11
0.014646442
1.0920491e-11
0.014647389
5.8548827e-11
0.014648179
1.0267116e-10
0.014648831
1.3544732e-10
0.014649367
1.6857452e-10
0.014649802
1.8822282e-10
0.014650153
2.113092e-10
0.014650433
2.196262e-10
0.014650655
2.3235519e-10
0.01465083
2.2900499e-10
0.014650966
2.3317644e-10
0.014651071
2.2254845e-10
0.014651151
2.2136458e-10
0.014651212
2.0612133e-10
0.014651258
2.0329463e-10
0.014651292
1.867515e-10
0.014651317
1.8184977e-10
0.014651335
1.6157846e-10
0.014651349
1.5440351e-10
0.014651358
1.3325905e-10
0.014651365
1.2678209e-10
0.01465137
1.0785692e-10
0.014651373
1.0713269e-10
0.014651376
9.6960101e-11
0.014651377
1.0636465e-10
0.014651379
1.066813e-10
0.014651379
1.2398908e-10
0.01465138
1.2852724e-10
0.01465138
1.3591512e-10
0.014651381
1.3596784e-10
0.014651382
1.2593942e-10
0.014651383
1.4549076e-10
1.4513485e-10
0.010068394
-6.8393556e-05
0.010267405
-0.00019901112
0.010549879
-0.00028247387
0.010858545
-0.00030866649
0.011167288
-0.00030874342
0.011466046
-0.00029875788
0.01174706
-0.00028101345
0.012004047
-0.00025698755
0.012234567
-0.00023051981
0.012439713
-0.00020514589
0.012622275
-0.00018256235
0.012785275
-0.00016299956
0.0129315
-0.0001462249
0.013063403
-0.0001319031
0.013183077
-0.00011967424
0.013292252
-0.00010917458
0.013392321
-0.00010006903
0.013484397
-9.207632e-05
0.013569373
-8.4975199e-05
0.013647971
-7.8598549e-05
0.013720794
-7.2822226e-05
0.013788347
-6.7553844e-05
0.013851071
-6.2723808e-05
0.01390935
-5.8278752e-05
0.013963527
-5.4176807e-05
0.014013911
-5.0384204e-05
0.014060785
-4.6872869e-05
0.014104403
-4.361879e-05
0.014145005
-4.0600934e-05
0.014182805
-3.7800553e-05
0.014218006
-3.5200729e-05
0.014250793
-3.2786068e-05
0.014281335
-3.0542488e-05
0.014309793
-2.8457046e-05
0.014336311
-2.6517819e-05
0.014361025
-2.4713787e-05
0.01438406
-2.3034747e-05
0.014405531
-2.147122e-05
0.014425546
-2.0014382e-05
0.014444202
-1.8655996e-05
0.01446159
-1.7388349e-05
0.014477795
-1.6204216e-05
0.014492891
-1.5096806e-05
0.014506951
-1.4059763e-05
0.014520038
-1.3087111e-05
0.014532211
-1.2173314e-05
0.014543524
-1.1313204e-05
0.014554026
-1.0502094e-05
0.014563761
-9.7356833e-06
0.014572771
-9.0102092e-06
0.014581092
-8.3223132e-06
0.014588761
-7.6692279e-06
0.014595809
-7.048584e-06
0.014602267
-6.4586105e-06
0.014608164
-5.8978818e-06
0.014613529
-5.3655187e-06
0.014618389
-4.8608876e-06
0.014622772
-4.3837809e-06
0.014626706
-3.9340971e-06
0.014630218
-3.5119951e-06
0.014633335
-3.1175912e-06
0.014636085
-2.7510808e-06
0.014638498
-2.4124859e-06
0.014640599
-2.1017488e-06
0.014642418
-1.8185588e-06
0.01464398
-1.5624167e-06
0.014645313
-1.3325532e-06
0.014646441
-1.1279649e-06
0.014647388
-9.4742814e-07
0.014648178
-7.8950038e-07
0.014648831
-6.5260839e-07
0.014649366
-5.350154e-07
0.014649801
-4.3496901e-07
0.014650152
-3.5062488e-07
0.014650432
-2.8023383e-07
0.014650655
-2.220175e-07
0.014650829
-1.7437744e-07
0.014650965
-1.3573107e-07
0.01465107
-1.0473132e-07
0.014651151
-8.0064218e-08
0.014651212
-6.067439e-08
0.014651258
-4.5535534e-08
0.014651292
-3.3883075e-08
0.014651317
-2.4954893e-08
0.014651335
-1.8234352e-08
0.014651349
-1.3175326e-08
0.014651358
-9.4572563e-09
0.014651365
-6.6989003e-09
0.01465137
-4.7213413e-09
0.014651373
-3.2659957e-09
0.014651376
-2.2528334e-09
0.014651377
-1.5156379e-09
0.014651379
-1.0269118e-09
0.014651379
-6.9415042e-10
0.01465138
-5.0287112e-10
0.01465138
-4.3194103e-10
0.014651381
-4.1472523e-10
0.014651382
-5.5993076e-10
0.014651383
-6.4725976e-10
-8.8096774e-10
0.010097182
-0.00016557515
0.010346961
-0.000448791
0.010662469
-0.00059798177
0.010982753
-0.00062895025
0.011290229
-0.00061621886
0.011575251
-0.00058378055
0.011829022
-0.0005347842
0.012047865
-0.00047583049
0.012233272
-0.00041592665
0.01238924
-0.00036111399
0.012520295
-0.00031361711
0.012630755
-0.00027346025
0.012724428
-0.00023989717
0.012804515
-0.0002119903
0.012873613
-0.00018877259
0.012933772
-0.00016933386
0.012986596
-0.00015289293
0.013033332
-0.00013881179
0.01307495
-0.00012659374
0.013112216
-0.00011586439
0.013145739
-0.00010634486
0.013176012
-9.7826912e-05
0.013203441
-9.0153255e-05
0.013228366
-8.3203234e-05
0.013251071
-7.6882446e-05
0.013271803
-7.111534e-05
0.01329077
-6.5839992e-05
0.013308155
-6.1004489e-05
0.013324119
-5.656447e-05
0.0133388
-5.2481468e-05
0.013352321
-4.8721751e-05
0.01336479
-4.5255505e-05
0.013376304
-4.2056206e-05
0.013386947
-3.9100145e-05
0.013396795
-3.6366031e-05
0.013405916
-3.3834675e-05
0.01341437
-3.1488705e-05
0.013422211
-2.9312333e-05
0.013429488
-2.7291149e-05
0.013436244
-2.5411938e-05
0.013442518
-2.366255e-05
0.013448345
-2.2031739e-05
0.013453757
-2.0509129e-05
0.013458783
-1.908507e-05
0.013463446
-1.7750686e-05
0.01346777
-1.6497736e-05
0.013471776
-1.5318758e-05
0.013475481
-1.4206906e-05
0.013478901
-1.3156171e-05
0.013482052
-1.2161164e-05
0.013484947
-1.1217399e-05
0.013487599
-1.0321004e-05
0.013490019
-9.4690272e-06
0.013492219
-8.6590653e-06
0.013494211
-7.8895644e-06
0.013496005
-7.1593868e-06
0.013497612
-6.4680763e-06
0.013499044
-5.8153942e-06
0.013500311
-5.2015399e-06
0.013501426
-4.6267087e-06
0.013502399
-4.0912592e-06
0.013503244
-3.5953428e-06
0.01350397
-3.1390246e-06
0.01350459
-2.7220272e-06
0.013505115
-2.3438074e-06
0.013505556
-2.0034364e-06
0.013505924
-1.699636e-06
0.013506226
-1.4307937e-06
0.013506474
-1.1949552e-06
0.013506674
-9.8996005e-07
0.013506835
-8.1337919e-07
0.013506963
-6.6273829e-07
0.013507063
-5.3539989e-07
0.013507142
-4.2884539e-07
0.013507202
-3.4049269e-07
0.013507248
-2.6800599e-07
0.013507283
-2.0905957e-07
0.013507309
-1.6165837e-07
0.013507328
-1.238549e-07
0.013507342
-9.4065705e-08
0.013507352
-7.0759331e-08
0.01350736
-5.2770065e-08
0.013507365
-3.896174e-08
0.013507368
-2.8532502e-08
0.013507371
-2.067531e-08
0.013507372
-1.4875432e-08
0.013507374
-1.0580487e-08
0.013507374
-7.4832557e-09
0.013507375
-5.2147843e-09
0.013507375
-3.6212485e-09
0.013507376
-2.4602023e-09
0.013507376
-1.6904006e-09
0.013507376
-1.1307362e-09
0.013507376
-8.3565479e-10
0.013507376
-6.2466714e-10
0.013507376
-6.4153614e-10
0.013507376
-6.6727806e-10
0.013507377
-9.8987713e-10
0.013507378
-1.239259e-09
-1.7291849e-09
0.010188704
-0.00035427932
0.010530487
-0.00079057335
0.010851453
-0.00091894821
0.011124174
-0.00090167137
0.011350581
-0.00084262623
0.011524486
-0.00075768559
0.01164633
-0.00065662743
0.011724155
-0.00055365586
0.011767999
-0.00045977083
0.011786639
-0.00037975353
0.011787114
-0.00031409258
0.011775058
-0.00026140425
0.011754861
-0.00021969947
0.011729768
-0.00018689785
0.011702054
-0.00016105801
0.011673239
-0.00014051894
0.011644339
-0.00012399295
0.011616003
-0.00011047598
0.011588629
-9.9219838e-05
0.011562446
-8.9681361e-05
0.011537572
-8.1470617e-05
0.011514053
-7.4307788e-05
0.01149189
-6.7990432e-05
0.011471056
-6.2369918e-05
0.011451509
-5.7334931e-05
0.011433194
-5.2800079e-05
0.011416052
-4.8698121e-05
0.011400022
-4.4974743e-05
0.011385043
-4.1585072e-05
0.011371052
-3.8491363e-05
0.011357992
-3.5661416e-05
0.011345804
-3.3067479e-05
0.011334433
-3.0685436e-05
0.011323827
-2.8494192e-05
0.011313936
-2.647519e-05
0.011304714
-2.4612016e-05
0.011296115
-2.2890074e-05
0.011288099
-2.1296312e-05
0.011280627
-1.9818987e-05
0.011273662
-1.8447477e-05
0.011267171
-1.7172116e-05
0.011261124
-1.598407e-05
0.01125549
-1.4875241e-05
0.011250243
-1.3838192e-05
0.011245358
-1.286611e-05
0.011240813
-1.1952769e-05
0.011236587
-1.1092547e-05
0.01123266
-1.0280405e-05
0.011229015
-9.5119193e-06
0.011225637
-8.7832706e-06
0.011222511
-8.0912756e-06
0.011219623
-7.4333498e-06
0.011216962
-6.8075165e-06
0.011214515
-6.2123383e-06
0.011212272
-5.646897e-06
0.011210223
-5.1106863e-06
0.011208359
-4.6035607e-06
0.011206669
-4.1256085e-06
0.011205145
-3.677085e-06
0.011203776
-3.2582818e-06
0.011202554
-2.8694629e-06
0.01120147
-2.5107551e-06
0.011200513
-2.1821033e-06
0.011199674
-1.8832007e-06
0.011198943
-1.6134747e-06
0.011198312
-1.3720621e-06
0.01119777
-1.1578238e-06
0.011197309
-9.6936451e-07
0.011196919
-8.0507218e-07
0.011196592
-6.6316448e-07
0.01119632
-5.4173431e-07
0.011196096
-4.3881264e-07
0.011195914
-3.52413e-07
0.011195765
-2.8058868e-07
0.011195646
-2.214591e-07
0.011195552
-1.7326022e-07
0.011195477
-1.3435485e-07
0.011195419
-1.0326381e-07
0.011195374
-7.8657042e-08
0.011195339
-5.937453e-08
0.011195313
-4.4410761e-08
0.011195293
-3.2916122e-08
0.011195278
-2.4174323e-08
0.011195267
-1.7594089e-08
0.011195259
-1.2694808e-08
0.011195254
-9.0820703e-09
0.011195249
-6.4461616e-09
0.011195246
-4.5302191e-09
0.011195244
-3.1560808e-09
0.011195243
-2.1683175e-09
0.011195242
-1.4810419e-09
0.011195241
-1.002755e-09
0.011195241
-7.0419989e-10
0.011195241
-5.3633265e-10
0.01119524
-4.7488719e-10
0.01119524
-5.2673842e-10
0.01119524
-6.779924e-10
0.01119524
-1.0491855e-09
0.011195241
-1.4762344e-09
-2.1740762e-09
0.010339525
-0.00069380425
0.010570754
-0.0010218027
0.010606301
-0.00095449449
0.010547572
-0.00084294334
0.010422317
-0.0007173708
0.010244356
-0.00057972444
0.010039421
-0.00045169204
0.0098287427
-0.00034297801
0.009625135
-0.00025616317
0.0094353013
-0.00018991983
0.0092624277
-0.00014121897
0.0091075332
-0.00010650979
0.008970154
-8.2320216e-05
0.0088489024
-6.564624e-05
0.0087419716
-5.4127251e-05
0.0086474927
-4.6040045e-05
0.0085636941
-4.0194289e-05
0.0084890108
-3.5792751e-05
0.0084221098
-3.2318751e-05
0.0083618777
-2.9449271e-05
0.0083073956
-2.6988565e-05
0.0082579081
-2.4820291e-05
0.0082127931
-2.2875476e-05
0.0081715356
-2.1112423e-05
0.0081337054
-1.9504673e-05
0.0080989393
-1.8034049e-05
0.008066928
-1.6686774e-05
0.0080374047
-1.5451429e-05
0.0080101375
-1.4317944e-05
0.0079849233
-1.3277171e-05
0.0079615826
-1.2320705e-05
0.007939956
-1.1440838e-05
0.007919901
-1.0630528e-05
0.0079012902
-9.8833784e-06
0.0078840085
-9.1936004e-06
0.0078679524
-8.5559702e-06
0.0078530281
-7.9657699e-06
0.0078391504
-7.4187409e-06
0.0078262424
-6.9110129e-06
0.0078142339
-6.4390712e-06
0.0078030614
-5.9996855e-06
0.0077926672
-5.5899061e-06
0.007782999
-5.2069915e-06
0.0077740092
-4.8484396e-06
0.007765655
-4.5119145e-06
0.0077578976
-4.195317e-06
0.0077507018
-3.8966982e-06
0.0077440358
-3.6143636e-06
0.0077378707
-3.3467682e-06
0.0077321802
-3.09265e-06
0.0077269399
-2.8508929e-06
0.0077221274
-2.620676e-06
0.0077177213
-2.401308e-06
0.0077137015
-2.192381e-06
0.0077100484
-1.9935786e-06
0.0077067427
-1.8048228e-06
0.0077037654
-1.6260713e-06
0.0077010973
-1.4574495e-06
0.0076987194
-1.2990568e-06
0.0076966123
-1.1510749e-06
0.0076947566
-1.0136052e-06
0.0076931326
-8.8674772e-07
0.0076917211
-7.70491e-07
0.0076905027
-6.6475685e-07
0.0076894586
-5.6935231e-07
0.0076885705
-4.839757e-07
0.0076878209
-4.0823828e-07
0.0076871932
-3.4163063e-07
0.0076866718
-2.8360389e-07
0.0076862421
-2.3349303e-07
0.0076858911
-1.9065453e-07
0.0076856067
-1.5434816e-07
0.0076853782
-1.239118e-07
0.0076851963
-9.860292e-08
0.0076850526
-7.7804424e-08
0.0076849403
-6.0837299e-08
0.0076848531
-4.7176049e-08
0.0076847862
-3.623734e-08
0.0076847352
-2.7608318e-08
0.0076846967
-2.0821545e-08
0.0076846679
-1.5583697e-08
0.0076846467
-1.153519e-08
0.007684631
-8.4869053e-09
0.0076846196
-6.1701546e-09
0.0076846114
-4.4760236e-09
0.0076846055
-3.1994049e-09
0.0076846013
-2.2908059e-09
0.0076845985
-1.5976929e-09
0.0076845964
-1.1226012e-09
0.0076845951
-7.5015607e-10
0.0076845942
-5.2261917e-10
0.0076845936
-3.4284653e-10
0.0076845931
-2.7734761e-10
0.0076845928
-2.1651651e-10
0.0076845925
-2.4365143e-10
0.0076845921
-2.8482299e-10
0.0076845918
-4.1007275e-10
0.0076845914
-6.2310619e-10
0.0076845912
-1.1296376e-09
-1.7615791e-09
0.0093061957
0.0082843931
0.0073298986
0.0064869553
0.0057695845
0.00518986
0.004738168
0.00439519
0.0041390268
0.003949107
0.003807888
0.0037013782
0.003619058
0.0035534117
0.0034992845
0.0034532445
0.0034130502
0.0033772574
0.0033449387
0.0033154894
0.0032885008
0.0032636805
0.0032408051
0.0032196926
0.003200188
0.0031821539
0.0031654671
0.0031500157
0.0031356977
0.0031224206
0.0031100999
0.003098659
0.0030880285
0.0030781451
0.0030689514
0.0030603955
0.0030524297
0.0030450109
0.0030380999
0.0030316608
0.0030256611
0.0030200713
0.0030148643
0.0030100159
0.003005504
0.0030013088
0.0029974122
0.0029937979
0.0029904513
0.0029873588
0.002984508
0.0029818875
0.0029794864
0.0029772942
0.0029753007
0.0029734961
0.0029718701
0.0029704128
0.0029691139
0.0029679629
0.0029669494
0.0029660627
0.0029652923
0.0029646275
0.0029640582
0.0029635743
0.0029631661
0.0029628244
0.0029625409
0.0029623074
0.0029621167
0.0029619624
0.0029618385
0.0029617399
0.0029616622
0.0029616013
0.0029615542
0.002961518
0.0029614904
0.0029614696
0.0029614541
0.0029614425
0.0029614341
0.0029614279
0.0029614234
0.0029614202
0.002961418
0.0029614164
0.0029614153
0.0029614146
0.0029614141
0.0029614137
0.0029614134
0.0029614132
0.0029614129
0.0029614126
0.0029614121
0.0029614116
0.0029614105
)
;

boundaryField
{
    top
    {
        type            calculated;
        value           uniform 0;
    }
    inlet
    {
        type            calculated;
        value           nonuniform List<scalar> 10(-0.01 -0.01 -0.01 -0.01 -0.01 -0.01 -0.01 -0.01 -0.01 -0.01);
    }
    outlet
    {
        type            calculated;
        value           nonuniform List<scalar> 10(0.0029614086 0.0076845905 0.011195241 0.013507378 0.014651384 0.014651384 0.013507379 0.011195241 0.0076845908 0.0029614087);
    }
    bottom
    {
        type            calculated;
        value           uniform 0;
    }
    back
    {
        type            empty;
        value           nonuniform 0();
    }
    front
    {
        type            empty;
        value           nonuniform 0();
    }
}


// ************************************************************************* //
