/*--------------------------------*- C++ -*----------------------------------*\
| =========                 |                                                 |
| \\      /  F ield         | OpenFOAM: The Open Source CFD Toolbox           |
|  \\    /   O peration     | Version:  v1812                                 |
|   \\  /    A nd           | Web:      www.OpenFOAM.com                      |
|    \\/     M anipulation  |                                                 |
\*---------------------------------------------------------------------------*/
FoamFile
{
    version     2.0;
    format      ascii;
    class       surfaceScalarField;
    location    "5";
    object      phi;
}
// * * * * * * * * * * * * * * * * * * * * * * * * * * * * * * * * * * * * * //

dimensions      [0 3 -1 0 0 0 0];
oriented        oriented;


internalField   nonuniform List<scalar> 
1890
(
0.0093061957
0.00069380425
0.0082843931
0.0010218027
0.0073298986
0.00095449449
0.0064869553
0.00084294334
0.0057695844
0.0007173708
0.00518986
0.00057972444
0.004738168
0.00045169205
0.00439519
0.000342978
0.0041390268
0.00025616317
0.003949107
0.00018991982
0.003807888
0.00014121894
0.0037013783
0.00010650975
0.0036190581
8.2320154e-05
0.003553412
6.5646142e-05
0.0034992849
5.4127105e-05
0.003453245
4.6039843e-05
0.003413051
4.0194016e-05
0.0033772586
3.5792379e-05
0.0033449404
3.2318238e-05
0.0033154918
2.9448561e-05
0.0032885043
2.6987578e-05
0.0032636854
2.48189e-05
0.0032408119
2.2873488e-05
0.0032197024
2.1109552e-05
0.0032002019
1.9500487e-05
0.003182174
1.8027885e-05
0.0031654964
1.6677642e-05
0.0031500586
1.5437892e-05
0.0031357606
1.4297982e-05
0.0031225127
1.3248007e-05
0.0031102341
1.2278642e-05
0.003098853
1.1381114e-05
0.0030883059
1.054723e-05
0.0030785365
9.769423e-06
0.0030694958
9.0408072e-06
0.0030611406
8.3552459e-06
0.0030534333
7.7074086e-06
0.0030463405
7.0928348e-06
0.0030398326
6.5079476e-06
0.0030338826
5.9500767e-06
0.0030284653
5.417406e-06
0.0030235564
4.9089363e-06
0.003019132
4.4243585e-06
0.0030151681
3.9639541e-06
0.0030116397
3.5284146e-06
0.003008521
3.1187069e-06
0.0030057851
2.7358803e-06
0.0030034041
2.3809333e-06
0.0030013495
2.0546548e-06
0.0029995919
1.7575292e-06
0.0029981022
1.4896464e-06
0.0029968515
1.2506641e-06
0.0029958116
1.039799e-06
0.0029949557
8.5584528e-07
0.0029942584
6.9723489e-07
0.0029936963
5.6209306e-07
0.0029932479
4.4833579e-07
0.0029928941
3.5374094e-07
0.0029926179
2.7606007e-07
0.0029924048
2.1305757e-07
0.0029922422
1.6260285e-07
0.0029921194
1.2269783e-07
0.0029920279
9.1537978e-08
0.0029919603
6.7508308e-08
0.0029919111
4.9215565e-08
0.0029918756
3.5461393e-08
0.0029918503
2.5254974e-08
0.0029918325
1.7773026e-08
0.0029918202
1.2362082e-08
0.0029918117
8.4945977e-09
0.0029918059
5.7696377e-09
0.002991802
3.8703499e-09
0.0029917995
2.5675858e-09
0.0029917978
1.6813451e-09
0.0029917967
1.0904812e-09
0.002991796
6.9731221e-10
0.0029917956
4.4369635e-10
0.0029917953
2.7720872e-10
0.0029917951
1.7468014e-10
0.002991795
1.0659917e-10
0.002991795
6.8555412e-11
0.0029917949
4.0427328e-11
0.0029917949
2.877806e-11
0.0029917949
1.5623368e-11
0.0029917949
1.5255735e-11
0.0029917948
7.016713e-12
0.0029917948
1.2935864e-11
0.0029917948
6.555526e-12
0.0029917948
1.986674e-11
0.0029917948
1.6084117e-11
0.0029917948
4.2413969e-11
0.0029917947
4.7438415e-11
0.0029917946
1.0392181e-10
0.0029917945
1.4829936e-10
0.0029917942
3.0828234e-10
0.0029917937
5.3494526e-10
0.0029917926
1.0497502e-09
0.0029917907
1.874807e-09
0.0029917873
3.3678593e-09
4.9209242e-09
0.010339525
0.00035427932
0.010570754
0.00079057335
0.010606301
0.00091894821
0.010547572
0.00090167138
0.010422317
0.00084262624
0.010244356
0.00075768559
0.01003942
0.00065662744
0.0098287426
0.00055365586
0.009625135
0.00045977082
0.0094353013
0.0003797535
0.0092624277
0.00031409252
0.0091075333
0.00026140416
0.0089701542
0.00021969932
0.0088489027
0.00018689758
0.0087419723
0.00016105758
0.0086474938
0.0001405183
0.0085636958
0.000123992
0.0084890136
0.00011047457
0.0084221141
9.9217758e-05
0.0083618844
8.9678319e-05
0.0083074057
8.1466187e-05
0.0082579233
7.4301347e-05
0.0082128157
6.7981085e-05
0.0081715689
6.235641e-05
0.0081337539
5.7315485e-05
0.0080990096
5.2772182e-05
0.008067029
4.8658269e-05
0.0080375488
4.4918157e-05
0.0080103414
4.1505356e-05
0.0079852093
3.8380111e-05
0.0079619802
3.5507823e-05
0.0079405033
3.285802e-05
0.007920647
3.0403666e-05
0.0079022957
2.8120723e-05
0.0078853487
2.5987893e-05
0.0078697175
2.3986493e-05
0.0078553245
2.2100442e-05
0.0078421011
2.0316255e-05
0.007829986
1.8623055e-05
0.0078189236
1.701252e-05
0.0078088622
1.5478795e-05
0.0077997529
1.4018291e-05
0.0077915478
1.2629435e-05
0.0077841994
1.1312302e-05
0.0077776596
1.0068226e-05
0.007771879
8.8993304e-06
0.0077668067
7.808096e-06
0.0077623907
6.7969034e-06
0.0077585777
5.8676612e-06
0.0077553137
5.0214779e-06
0.0077525448
4.2584382e-06
0.007750218
3.5774676e-06
0.0077482814
2.9762932e-06
0.0077466857
2.4515013e-06
0.0077453842
1.9986578e-06
0.0077443337
1.6125028e-06
0.0077434948
1.2871613e-06
0.0077428321
1.0163927e-06
0.0077423143
7.9381387e-07
0.0077419142
6.1312094e-07
0.0077416085
4.6826223e-07
0.0077413776
3.5359044e-07
0.0077412051
2.6395771e-07
0.0077410778
1.9478286e-07
0.0077409849
1.4207236e-07
0.0077409179
1.0241769e-07
0.0077408702
7.2964538e-08
0.0077408366
5.1367139e-08
0.0077408132
3.5733014e-08
0.0077407972
2.4560052e-08
0.0077407863
1.66788e-08
0.0077407789
1.1190043e-08
0.0077407741
7.418475e-09
0.0077407709
4.8587202e-09
0.0077407689
3.1463571e-09
0.0077407676
2.01298e-09
0.0077407667
1.276103e-09
0.0077407662
7.9898829e-10
0.0077407659
4.9924066e-10
0.0077407657
3.0697386e-10
0.0077407656
1.9294921e-10
0.0077407655
1.1688922e-10
0.0077407654
7.8515718e-11
0.0077407654
4.6415493e-11
0.0077407654
3.9039962e-11
0.0077407654
2.2057973e-11
0.0077407654
3.0159737e-11
0.0077407654
1.8777399e-11
0.0077407653
4.0772808e-11
0.0077407653
3.7047991e-11
0.0077407653
8.1648572e-11
0.0077407652
1.0249137e-10
0.0077407651
1.977918e-10
0.007740765
3.1061392e-10
0.0077407647
5.6599486e-10
0.0077407643
1.0140066e-09
0.0077407636
1.7455727e-09
0.0077407624
3.0376781e-09
0.0077407612
4.4779095e-09
6.2743905e-09
0.010188704
0.00016557515
0.010530487
0.000448791
0.010851453
0.00059798178
0.011124174
0.00062895026
0.011350581
0.00061621887
0.011524486
0.00058378056
0.01164633
0.00053478421
0.011724155
0.0004758305
0.011767999
0.00041592665
0.011786639
0.00036111397
0.011787114
0.00031361707
0.011775058
0.00027346016
0.011754861
0.00023989702
0.011729768
0.00021199003
0.011702053
0.00018877215
0.011673239
0.00016933316
0.011644339
0.00015289186
0.011616003
0.00013881016
0.01158863
0.00012659128
0.011562447
0.00011586071
0.011537574
0.00010633942
0.011514056
9.7818883e-05
0.011491896
9.0141477e-05
0.011471066
8.3186084e-05
0.011451524
7.685766e-05
0.011433217
7.1079755e-05
0.011416086
6.5789248e-05
0.011400071
6.0932707e-05
0.011385113
5.6463878e-05
0.011371151
5.2341949e-05
0.011358128
4.8530398e-05
0.01134599
4.4996229e-05
0.011334684
4.1709478e-05
0.011324162
3.8642895e-05
0.011314378
3.5771788e-05
0.011305291
3.3073992e-05
0.011296861
3.0529929e-05
0.011289055
2.8122718e-05
0.01128184
2.5838258e-05
0.011275187
2.3665302e-05
0.01126907
2.1595435e-05
0.011263466
1.9622991e-05
0.01125835
1.7744822e-05
0.011253703
1.5960002e-05
0.011249501
1.4269386e-05
0.011245726
1.2675144e-05
0.011242353
1.1180205e-05
0.011239363
9.787727e-06
0.01123673
8.500567e-06
0.01123443
7.3208365e-06
0.011232439
6.249527e-06
0.01123073
5.28626e-06
0.011229277
4.4291477e-06
0.011228054
3.6747773e-06
0.011227034
3.0183062e-06
0.011226193
2.4536408e-06
0.011225507
1.9736949e-06
0.011224952
1.5706728e-06
0.01122451
1.2363864e-06
0.01122416
9.6253886e-07
0.011223888
7.4100328e-07
0.011223677
5.640339e-07
0.011223517
4.2445165e-07
0.011223396
3.1574966e-07
0.011223306
2.3217396e-07
0.011223239
1.6873211e-07
0.011223191
1.2119056e-07
0.011223156
8.601712e-08
0.011223132
6.0329809e-08
0.011223115
4.180846e-08
0.011223103
2.8628328e-08
0.011223094
1.9367353e-08
0.011223089
1.2947301e-08
0.011223085
8.550961e-09
0.011223083
5.5834518e-09
0.011223081
3.6019719e-09
0.01122308
2.3014069e-09
0.01122308
1.4525113e-09
0.011223079
9.129652e-10
0.011223079
5.6571094e-10
0.011223079
3.5535611e-10
0.011223079
2.1736357e-10
0.011223079
1.4267232e-10
0.011223079
8.6617698e-11
0.011223079
6.6786054e-11
0.011223078
4.0912736e-11
0.011223078
4.486855e-11
0.011223078
3.1923624e-11
0.011223078
5.0868654e-11
0.011223078
5.2107299e-11
0.011223078
8.9597699e-11
0.011223078
1.2691108e-10
0.011223078
2.072252e-10
0.011223078
3.5978109e-10
0.011223078
5.81298e-10
0.011223078
1.0729619e-09
0.011223078
1.6579311e-09
0.011223079
2.8105499e-09
0.011223079
3.7841217e-09
5.1428132e-09
0.010097182
6.8393556e-05
0.010346961
0.00019901112
0.010662469
0.00028247388
0.010982753
0.0003086665
0.011290229
0.00030874343
0.011575251
0.0002987579
0.011829022
0.00028101347
0.012047865
0.00025698757
0.012233272
0.00023051983
0.01238924
0.0002051459
0.012520295
0.00018256235
0.012630755
0.00016299955
0.012724427
0.00014622485
0.012804514
0.000131903
0.012873612
0.00011967404
0.012933771
0.00010917423
0.012986595
0.00010006845
0.01303333
9.2075394e-05
0.013074947
8.4973749e-05
0.013112211
7.8596319e-05
0.013145732
7.2818844e-05
0.013176002
6.7548762e-05
0.013203427
6.2716245e-05
0.013228346
5.8267622e-05
0.013251043
5.4160602e-05
0.013271762
5.0360827e-05
0.013290712
4.6839442e-05
0.013308073
4.3571451e-05
0.013324002
4.0534594e-05
0.013338635
3.770862e-05
0.013352091
3.5074807e-05
0.013364472
3.2615705e-05
0.013375866
3.0314981e-05
0.013386352
2.8157361e-05
0.013395995
2.6128619e-05
0.013404853
2.4215664e-05
0.013412976
2.2406639e-05
0.013420408
2.0691067e-05
0.013427186
1.9059973e-05
0.013433346
1.7505987e-05
0.013438918
1.6023414e-05
0.013443933
1.4608229e-05
0.013448419
1.3258022e-05
0.013452407
1.1971841e-05
0.013455927
1.0749994e-05
0.013459008
9.5937571e-06
0.013461683
8.5050709e-06
0.013463985
7.4861766e-06
0.013465946
6.5392912e-06
0.013467601
5.6662645e-06
0.013468982
4.86832e-06
0.013470122
4.1458257e-06
0.013471053
3.4981638e-06
0.013471804
2.9236628e-06
0.013472403
2.4196165e-06
0.013472874
1.9823708e-06
0.013473241
1.6074625e-06
0.013473522
1.289808e-06
0.013473734
1.0238999e-06
0.013473893
8.0402407e-07
0.013474009
6.2444977e-07
0.013474093
4.7961242e-07
0.013474154
3.6425028e-07
0.013474196
2.7351824e-07
0.013474225
2.0305489e-07
0.013474245
1.4902245e-07
0.013474258
1.081126e-07
0.013474266
7.7529124e-08
0.013474272
5.495508e-08
0.013474275
3.8502563e-08
0.013474277
2.6664427e-08
0.013474278
1.8252451e-08
0.013474279
1.235245e-08
0.013474279
8.264108e-09
0.013474279
5.4696577e-09
0.013474279
3.5800084e-09
0.013474279
2.3221143e-09
0.013474279
1.4902764e-09
0.013474279
9.5247585e-10
0.013474279
6.0229537e-10
0.013474279
3.8447975e-10
0.013474279
2.4179384e-10
0.013474279
1.5974043e-10
0.013474279
1.0177797e-10
0.013474279
7.5425098e-11
0.013474279
5.0853865e-11
0.013474279
4.7882096e-11
0.013474279
3.8653645e-11
0.013474279
4.7317791e-11
0.013474279
5.2143301e-11
0.013474279
7.1238964e-11
0.013474279
1.0340484e-10
0.013474279
1.4474651e-10
0.013474279
2.5324733e-10
0.013474279
3.7325857e-10
0.01347428
6.8097156e-10
0.013474281
9.9210895e-10
0.013474282
1.6341691e-09
0.013474283
2.1158733e-09
2.8232484e-09
0.010068394
6.7995987e-13
0.010267405
2.4066059e-12
0.010549879
4.4894506e-12
0.010858545
7.1286251e-12
0.011167288
1.0435305e-11
0.011466046
1.4677855e-11
0.01174706
1.9930599e-11
0.012004047
2.6484314e-11
0.012234567
3.4428507e-11
0.012439713
4.4107297e-11
0.012622275
5.5539661e-11
0.012785275
6.9095263e-11
0.0129315
8.4706031e-11
0.013063402
1.027363e-10
0.013183076
1.2298121e-10
0.01329225
1.4565314e-10
0.013392319
1.7004889e-10
0.013484394
1.9567239e-10
0.013569367
2.2090426e-10
0.013647963
2.4427955e-10
0.013720782
2.6315387e-10
0.013788331
2.7508541e-10
0.013851046
2.7696189e-10
0.013909314
2.66309e-10
0.013963474
2.4073834e-10
0.014013835
1.9920248e-10
0.014060674
1.4078743e-10
0.014104245
6.8378684e-11
0.01414478
-2.3155821e-11
0.014182489
-1.2398441e-10
0.014217564
-2.2941362e-10
0.01425018
-3.3838469e-10
0.014280495
-4.4040631e-10
0.014308653
-5.3603289e-10
0.014334782
-6.1362955e-10
0.014358999
-6.7605603e-10
0.014381406
-7.1272355e-10
0.014402098
-7.2968785e-10
0.014421159
-7.1928553e-10
0.014438665
-6.8984295e-10
0.014454689
-6.3706429e-10
0.014469298
-5.7058009e-10
0.014482557
-4.8938485e-10
0.014494529
-4.0312098e-10
0.014505279
-3.1252994e-10
0.014514873
-2.2546308e-10
0.014523378
-1.434667e-10
0.014530865
-7.1988545e-11
0.014537404
-1.0049636e-11
0.01454307
3.9655694e-11
0.014547938
7.6561842e-11
0.014552084
1.0257699e-10
0.014555582
1.1864299e-10
0.014558506
1.283786e-10
0.014560925
1.3206712e-10
0.014562907
1.3462577e-10
0.014564515
1.3453855e-10
0.014565804
1.3706576e-10
0.014566828
1.3861129e-10
0.014567632
1.4458131e-10
0.014568256
1.4919519e-10
0.014568736
1.5800653e-10
0.0145691
1.6371924e-10
0.014569373
1.7257406e-10
0.014569576
1.763053e-10
0.014569725
1.8202595e-10
0.014569833
1.8119757e-10
0.01456991
1.8190914e-10
0.014569965
1.7557553e-10
0.014570003
1.7105608e-10
0.01457003
1.5991552e-10
0.014570048
1.5144977e-10
0.01457006
1.3722494e-10
0.014570068
1.267171e-10
0.014570074
1.1149685e-10
0.014570077
1.0092837e-10
0.014570079
8.6429219e-11
0.014570081
7.7223066e-11
0.014570082
6.4671797e-11
0.014570082
5.7705463e-11
0.014570083
4.7593964e-11
0.014570083
4.3130799e-11
0.014570083
3.5635145e-11
0.014570083
3.3693247e-11
0.014570083
2.8615266e-11
0.014570083
2.9023147e-11
0.014570083
2.6352177e-11
0.014570083
2.9054421e-11
0.014570083
2.8818643e-11
0.014570083
3.3616131e-11
0.014570083
3.4593293e-11
0.014570083
3.8170527e-11
0.014570083
3.6086587e-11
0.014570084
3.7506108e-11
0.014570084
3.3676876e-11
0.014570085
3.4065832e-11
0.014570086
3.3280635e-11
0.014570087
3.1285121e-11
0.014570089
2.2376453e-11
2.0518379e-11
0.010068394
-6.8393555e-05
0.010267405
-0.00019901112
0.010549879
-0.00028247387
0.010858545
-0.00030866648
0.011167288
-0.00030874341
0.011466046
-0.00029875787
0.01174706
-0.00028101343
0.012004047
-0.00025698752
0.012234567
-0.00023051976
0.012439713
-0.00020514582
0.012622275
-0.00018256225
0.012785275
-0.00016299942
0.0129315
-0.00014622469
0.013063402
-0.0001319028
0.013183076
-0.0001196738
0.01329225
-0.00010917395
0.013392319
-0.00010006813
0.013484394
-9.2075028e-05
0.013569368
-8.4973338e-05
0.013647964
-7.8595867e-05
0.013720782
-7.2818359e-05
0.013788331
-6.7548258e-05
0.013851047
-6.2715741e-05
0.013909314
-5.826714e-05
0.013963475
-5.4160169e-05
0.014013835
-5.0360472e-05
0.014060674
-4.6839195e-05
0.014104246
-4.3571339e-05
0.01414478
-4.0534644e-05
0.014182489
-3.7708849e-05
0.014217564
-3.5075223e-05
0.01425018
-3.261631e-05
0.014280495
-3.0315766e-05
0.014308653
-2.8158306e-05
0.014334782
-2.6129701e-05
0.014358998
-2.4216846e-05
0.014381406
-2.2407886e-05
0.014402097
-2.0692336e-05
0.014421158
-1.9061228e-05
0.014438664
-1.7507186e-05
0.014454688
-1.6024528e-05
0.014469297
-1.4609225e-05
0.014482555
-1.3258886e-05
0.014494528
-1.1972554e-05
0.014505278
-1.075056e-05
0.014514872
-9.5941712e-06
0.014523377
-8.5053488e-06
0.014530863
-7.486328e-06
0.014537403
-6.539337e-06
0.014543069
-5.6662218e-06
0.014547937
-4.8682103e-06
0.014552083
-4.1456666e-06
0.014555581
-3.4979703e-06
0.014558505
-2.9234479e-06
0.014560924
-2.4193864e-06
0.014562906
-1.982133e-06
0.014564514
-1.6072161e-06
0.014565803
-1.2895563e-06
0.014566827
-1.0236374e-06
0.014567631
-8.0375316e-07
0.014568256
-6.241646e-07
0.014568735
-4.7931654e-07
0.014569099
-3.6393961e-07
0.014569373
-2.7319894e-07
0.014569575
-2.0272545e-07
0.014569724
-1.4869105e-07
0.014569832
-1.077793e-07
0.01456991
-7.7203087e-08
0.014569965
-5.4636733e-08
0.014570003
-3.8200385e-08
0.01457003
-2.6377757e-08
0.014570048
-1.7988386e-08
0.01457006
-1.2108784e-08
0.014570068
-8.0459287e-09
0.014570074
-5.2729537e-09
0.014570077
-3.4083817e-09
0.014570079
-2.1703552e-09
0.014570081
-1.3606697e-09
0.014570082
-8.3893576e-10
0.014570082
-5.0670455e-10
0.014570083
-3.0060812e-10
0.014570083
-1.711981e-10
0.014570083
-9.6075504e-11
0.014570083
-4.7005564e-11
0.014570083
-2.3310778e-11
0.014570083
-3.535751e-12
0.014570083
1.3300233e-12
0.014570083
9.7456819e-12
0.014570083
6.5386529e-12
0.014570083
5.2745513e-12
0.014570083
-5.9236606e-12
0.014570083
-3.7919244e-11
0.014570083
-7.6663592e-11
0.014570084
-1.893344e-10
0.014570084
-3.0930165e-10
0.014570085
-6.1901785e-10
0.014570086
-9.3206166e-10
0.014570087
-1.5829882e-09
0.014570089
-2.0677557e-09
-2.7838717e-09
0.010097182
-0.00016557515
0.010346961
-0.000448791
0.010662469
-0.00059798177
0.010982753
-0.00062895024
0.011290229
-0.00061621885
0.011575251
-0.00058378054
0.011829022
-0.00053478418
0.012047865
-0.00047583045
0.012233272
-0.00041592659
0.01238924
-0.0003611139
0.012520295
-0.00031361698
0.012630755
-0.00027346005
0.012724427
-0.00023989688
0.012804514
-0.00021198987
0.012873613
-0.00018877196
0.012933772
-0.00016933294
0.012986595
-0.00015289161
0.01303333
-0.00013880987
0.013074948
-0.00012659097
0.013112212
-0.00011586037
0.013145733
-0.00010633906
0.013176003
-9.7818511e-05
0.013203428
-9.0141111e-05
0.013228347
-8.318574e-05
0.013251044
-7.6857358e-05
0.013271763
-7.1079514e-05
0.013290713
-6.5789089e-05
0.013308074
-6.0932645e-05
0.013324003
-5.646393e-05
0.013338637
-5.234212e-05
0.013352092
-4.8530697e-05
0.013364472
-4.4996648e-05
0.013375867
-4.1710014e-05
0.013386352
-3.864353e-05
0.013395995
-3.5772508e-05
0.013404853
-3.3074771e-05
0.013412976
-3.0530748e-05
0.013420407
-2.8123551e-05
0.013427185
-2.5839082e-05
0.013433344
-2.3666096e-05
0.013438915
-2.159618e-05
0.01344393
-1.9623672e-05
0.013448416
-1.7745424e-05
0.013452404
-1.5960519e-05
0.013455924
-1.4269812e-05
0.013459005
-1.2675482e-05
0.01346168
-1.1180455e-05
0.013463982
-9.7878977e-06
0.013465943
-8.5006633e-06
0.013467598
-7.3208707e-06
0.013468979
-6.2495068e-06
0.01347012
-5.2861968e-06
0.013471051
-4.4290492e-06
0.013471802
-3.6746512e-06
0.013472401
-3.0181581e-06
0.013472872
-2.4534749e-06
0.013473238
-1.9735144e-06
0.013473519
-1.5704792e-06
0.013473732
-1.2361814e-06
0.013473891
-9.6232309e-07
0.013474007
-7.4077806e-07
0.013474092
-5.638006e-07
0.013474152
-4.2421188e-07
0.013474194
-3.1550624e-07
0.013474224
-2.3192885e-07
0.013474243
-1.6848931e-07
0.013474257
-1.2095197e-07
0.013474265
-8.5787265e-08
0.013474271
-6.0109801e-08
0.013474274
-4.1602472e-08
0.013474276
-2.843633e-08
0.013474277
-1.9192704e-08
0.013474278
-1.278852e-08
0.013474278
-8.4103915e-09
0.013474279
-5.4584866e-09
0.013474279
-3.4941181e-09
0.013474279
-2.2071083e-09
0.013474279
-1.3727233e-09
0.013474279
-8.4375562e-10
0.013474279
-5.0782073e-10
0.013474279
-3.0464696e-10
0.013474279
-1.7460883e-10
0.013474279
-1.0384661e-10
0.013474279
-5.2772944e-11
0.013474279
-3.3732431e-11
0.013474279
-1.0164917e-11
0.013474279
-1.2017153e-11
0.013474279
1.208248e-12
0.013474279
-1.3100186e-11
0.013474279
-1.1472713e-11
0.013474279
-4.4516868e-11
0.013474279
-8.1650928e-11
0.013474279
-1.6152376e-10
0.013474279
-3.1745283e-10
0.01347428
-5.407676e-10
0.01347428
-1.0338496e-09
0.013474281
-1.6153523e-09
0.013474282
-2.767882e-09
0.013474283
-3.7509275e-09
-5.1146641e-09
0.010188704
-0.00035427932
0.010530487
-0.00079057335
0.010851453
-0.00091894821
0.011124174
-0.00090167137
0.011350581
-0.00084262623
0.011524486
-0.00075768557
0.01164633
-0.00065662741
0.011724155
-0.00055365582
0.011767999
-0.00045977077
0.011786639
-0.00037975345
0.011787114
-0.00031409246
0.011775058
-0.00026140408
0.011754861
-0.00021969923
0.011729768
-0.00018689748
0.011702054
-0.00016105747
0.011673239
-0.00014051817
0.011644339
-0.00012399185
0.011616004
-0.0001104744
0.01158863
-9.9217583e-05
0.011562448
-8.9678133e-05
0.011537575
-8.1465995e-05
0.011514058
-7.4301154e-05
0.011491897
-6.7980899e-05
0.011471068
-6.2356238e-05
0.011451526
-5.7315337e-05
0.011433218
-5.2772065e-05
0.011416087
-4.8658193e-05
0.011400073
-4.4918129e-05
0.011385114
-4.150538e-05
0.011371152
-3.8380191e-05
0.01135813
-3.5507959e-05
0.011345991
-3.2858211e-05
0.011334685
-3.0403905e-05
0.011324162
-2.8121009e-05
0.011314378
-2.5988212e-05
0.01130529
-2.3986844e-05
0.01129686
-2.2100809e-05
0.011289053
-2.0316637e-05
0.011281838
-1.8623435e-05
0.011275185
-1.7012898e-05
0.011269068
-1.5479154e-05
0.011263463
-1.4018633e-05
0.011258347
-1.2629745e-05
0.011253699
-1.1312584e-05
0.011249498
-1.0068468e-05
0.011245722
-8.8995374e-06
0.01124235
-7.8082617e-06
0.011239359
-6.797032e-06
0.011236726
-5.8677519e-06
0.011234427
-5.0215343e-06
0.011232436
-4.2584644e-06
0.011230727
-3.5774658e-06
0.011229274
-2.9762699e-06
0.011228051
-2.4514566e-06
0.011227031
-1.9985993e-06
0.01122619
-1.6124285e-06
0.011225504
-1.2870787e-06
0.01122495
-1.0162981e-06
0.011224507
-7.937147e-07
0.011224158
-6.1301281e-07
0.011223885
-4.6815218e-07
0.011223675
-3.5347403e-07
0.011223515
-2.6384203e-07
0.011223394
-1.9466373e-07
0.011223304
-1.4195665e-07
0.011223238
-1.0230161e-07
0.01122319
-7.2854778e-08
0.011223155
-5.1259924e-08
0.011223131
-3.5634392e-08
0.011223114
-2.4466166e-08
0.011223102
-1.6595136e-08
0.011223094
-1.1112299e-08
0.011223088
-7.3512913e-09
0.011223085
-4.7975199e-09
0.011223082
-3.0952878e-09
0.011223081
-1.9670867e-09
0.01122308
-1.238936e-09
0.011223079
-7.6557654e-10
0.011223079
-4.7298561e-10
0.011223079
-2.8283445e-10
0.011223079
-1.740539e-10
0.011223079
-9.8460236e-11
0.011223079
-6.3764482e-11
0.011223079
-3.0745653e-11
0.011223078
-2.5465935e-11
0.011223078
-6.2513975e-12
0.011223078
-1.5353206e-11
0.011223079
-7.9590539e-13
0.011223079
-2.3340083e-11
0.011223079
-1.6281226e-11
0.011223079
-6.2531568e-11
0.011223079
-8.0806851e-11
0.011223079
-1.7866006e-10
0.011223078
-2.9309993e-10
0.011223079
-5.4762658e-10
0.011223079
-9.8950792e-10
0.011223079
-1.7216405e-09
0.011223079
-3.0235993e-09
0.011223079
-4.4699284e-09
-6.2678253e-09
0.010339525
-0.00069380425
0.010570754
-0.0010218027
0.010606301
-0.00095449449
0.010547572
-0.00084294334
0.010422317
-0.0007173708
0.010244356
-0.00057972443
0.010039421
-0.00045169203
0.0098287427
-0.00034297799
0.0096251351
-0.00025616315
0.0094353014
-0.0001899198
0.0092624279
-0.00014121892
0.0091075335
-0.00010650973
0.0089701544
-8.2320128e-05
0.0088489031
-6.5646113e-05
0.0087419727
-5.4127073e-05
0.0086474943
-4.6039808e-05
0.0085636964
-4.0193978e-05
0.0084890143
-3.5792337e-05
0.0084221149
-3.2318193e-05
0.0083618853
-2.9448514e-05
0.0083074068
-2.6987529e-05
0.0082579245
-2.481885e-05
0.008212817
-2.2873438e-05
0.0081715702
-2.1109503e-05
0.0081337553
-1.950044e-05
0.008099011
-1.8027844e-05
0.0080670304
-1.6677607e-05
0.0080375501
-1.5437865e-05
0.0080103427
-1.4297964e-05
0.0079852105
-1.3248001e-05
0.0079619811
-1.2278647e-05
0.0079405041
-1.1381131e-05
0.0079206474
-1.0547259e-05
0.0079022959
-9.7694619e-06
0.0078853485
-9.0408569e-06
0.007869717
-8.3553023e-06
0.0078553236
-7.7074745e-06
0.0078420999
-7.0929027e-06
0.0078299845
-6.5080225e-06
0.0078189218
-5.9501489e-06
0.0078088601
-5.4174827e-06
0.0077997505
-4.9090064e-06
0.0077915451
-4.4244298e-06
0.0077841966
-3.9640156e-06
0.0077776566
-3.5284742e-06
0.0077718758
-3.118756e-06
0.0077668035
-2.7359253e-06
0.0077623874
-2.3809685e-06
0.0077585744
-2.0546844e-06
0.0077553104
-1.757552e-06
0.0077525416
-1.4896635e-06
0.0077502148
-1.2506776e-06
0.0077482784
-1.0398067e-06
0.0077466828
-8.5585256e-07
0.0077453815
-6.9723654e-07
0.0077443312
-5.620959e-07
0.0077434924
-4.4833267e-07
0.0077428299
-3.5373953e-07
0.0077423123
-2.7605265e-07
0.0077419123
-2.1305167e-07
0.0077416068
-1.6259091e-07
0.007741376
-1.2268729e-07
0.0077412037
-9.1521911e-08
0.0077410766
-6.7493635e-08
0.0077409838
-4.9196205e-08
0.007740917
-3.5444004e-08
0.0077408694
-2.5234131e-08
0.0077408359
-1.7754753e-08
0.0077408126
-1.2341486e-08
0.0077407967
-8.4773711e-09
0.0077407858
-5.7510832e-09
0.0077407786
-3.8555327e-09
0.0077407738
-2.5519477e-09
0.0077407707
-1.669717e-09
0.0077407687
-1.0782517e-09
0.0077407674
-6.8886322e-10
0.0077407666
-4.3443196e-10
0.0077407662
-2.7150799e-10
0.0077407659
-1.6785051e-10
0.0077407657
-1.0280133e-10
0.0077407656
-6.3101717e-11
0.0077407655
-3.7653349e-11
0.0077407655
-2.3989922e-11
0.0077407655
-1.2916284e-11
0.0077407655
-1.0223486e-11
0.0077407655
-3.4888276e-12
0.0077407655
-7.5006063e-12
0.0077407655
-3.063079e-12
0.0077407654
-1.5907998e-11
0.0077407654
-1.5550482e-11
0.0077407654
-4.081969e-11
0.0077407653
-4.6644688e-11
0.0077407653
-9.8697042e-11
0.0077407651
-1.3780616e-10
0.0077407649
-2.9005894e-10
0.0077407645
-5.2009869e-10
0.0077407638
-1.0490926e-09
0.0077407626
-1.8869758e-09
0.0077407614
-3.3802092e-09
-4.9267391e-09
0.0093061957
0.0082843931
0.0073298986
0.0064869553
0.0057695845
0.00518986
0.004738168
0.00439519
0.0041390269
0.0039491071
0.0038078881
0.0037013784
0.0036190583
0.0035534122
0.0034992851
0.0034532453
0.0034130513
0.0033772589
0.0033449407
0.0033154922
0.0032885047
0.0032636858
0.0032408124
0.0032197029
0.0032002024
0.0031821745
0.0031654969
0.0031500591
0.0031357611
0.0031225131
0.0031102344
0.0030988533
0.003088306
0.0030785366
0.0030694957
0.0030611404
0.003053433
0.0030463401
0.003039832
0.0030338819
0.0030284644
0.0030235554
0.003019131
0.0030151669
0.0030116385
0.0030085197
0.0030057838
0.0030034028
0.0030013482
0.0029995906
0.002998101
0.0029968503
0.0029958105
0.0029949547
0.0029942574
0.0029936954
0.002993247
0.0029928933
0.0029926173
0.0029924042
0.0029922416
0.002992119
0.0029920274
0.00299196
0.0029919108
0.0029918753
0.0029918501
0.0029918324
0.00299182
0.0029918116
0.0029918058
0.002991802
0.0029917994
0.0029917978
0.0029917967
0.002991796
0.0029917956
0.0029917953
0.0029917951
0.002991795
0.002991795
0.0029917949
0.0029917949
0.0029917949
0.0029917949
0.0029917949
0.0029917949
0.0029917949
0.0029917949
0.0029917948
0.0029917948
0.0029917947
0.0029917946
0.0029917945
0.0029917943
0.0029917937
0.0029917927
0.0029917907
0.0029917873
)
;

boundaryField
{
    top
    {
        type            calculated;
        value           uniform 0;
    }
    inlet
    {
        type            calculated;
        value           nonuniform List<scalar> 10(-0.01 -0.01 -0.01 -0.01 -0.01 -0.01 -0.01 -0.01 -0.01 -0.01);
    }
    outlet
    {
        type            calculated;
        value           nonuniform List<scalar> 10(0.0029917823 0.0077407598 0.01122308 0.013474286 0.014570092 0.014570092 0.013474286 0.011223081 0.0077407601 0.0029917824);
    }
    bottom
    {
        type            calculated;
        value           uniform 0;
    }
    back
    {
        type            empty;
        value           nonuniform 0();
    }
    front
    {
        type            empty;
        value           nonuniform 0();
    }
}


// ************************************************************************* //
