/*--------------------------------*- C++ -*----------------------------------*\
| =========                 |                                                 |
| \\      /  F ield         | OpenFOAM: The Open Source CFD Toolbox           |
|  \\    /   O peration     | Version:  v1812                                 |
|   \\  /    A nd           | Web:      www.OpenFOAM.com                      |
|    \\/     M anipulation  |                                                 |
\*---------------------------------------------------------------------------*/
FoamFile
{
    version     2.0;
    format      ascii;
    class       volVectorField;
    location    "4.05";
    object      U;
}
// * * * * * * * * * * * * * * * * * * * * * * * * * * * * * * * * * * * * * //

dimensions      [0 1 -1 0 0 0 0];


internalField   nonuniform List<vector> 
1000
(
(0.91890839 0.035821913 0)
(0.86271384 0.062195639 0)
(0.7870597 0.06251009 0)
(0.69536033 0.054550393 0)
(0.61089745 0.044531644 0)
(0.54411594 0.034015951 0)
(0.49343017 0.0241875 0)
(0.45479424 0.016144159 0)
(0.42544601 0.010265665 0)
(0.40347343 0.0063039727 0)
(0.38715811 0.0037974096 0)
(0.37496285 0.0023100379 0)
(0.3656629 0.001492561 0)
(0.35836418 0.0010844426 0)
(0.35244482 0.00090514404 0)
(0.34748508 0.00083984451 0)
(0.34320783 0.00082216519 0)
(0.33943337 0.00081727317 0)
(0.3360465 0.00080918901 0)
(0.33297315 0.00079236157 0)
(0.33016464 0.00076640886 0)
(0.3275875 0.00073306936 0)
(0.32521736 0.00069462338 0)
(0.32303542 0.00065317732 0)
(0.32102642 0.00061039127 0)
(0.31917763 0.00056742737 0)
(0.31747817 0.00052501635 0)
(0.31591869 0.0004835769 0)
(0.31449114 0.00044333034 0)
(0.31318854 0.00040439107 0)
(0.31200472 0.00036682461 0)
(0.31093408 0.00033069192 0)
(0.30997135 0.00029607093 0)
(0.30911136 0.00026306949 0)
(0.30834883 0.00023181781 0)
(0.30767826 0.00020246053 0)
(0.30709384 0.00017513876 0)
(0.30658938 0.00014997833 0)
(0.3061584 0.00012707395 0)
(0.30579418 0.00010648068 0)
(0.30548984 8.8206163e-05 0)
(0.30523854 7.2209305e-05 0)
(0.30503355 5.8402337e-05 0)
(0.30486844 4.6655364e-05 0)
(0.30473715 3.6804224e-05 0)
(0.30463414 2.8660571e-05 0)
(0.30455438 2.2026542e-05 0)
(0.30449348 1.6701481e-05 0)
(0.30444762 1.2491556e-05 0)
(0.30441356 9.2131045e-06 0)
(0.30438863 6.6996257e-06 0)
(0.30437065 4.8018873e-06 0)
(0.30435786 3.3919007e-06 0)
(0.30434891 2.3602655e-06 0)
(0.30434273 1.6179369e-06 0)
(0.30433854 1.0918833e-06 0)
(0.30433573 7.2562274e-07 0)
(0.30433389 4.7436014e-07 0)
(0.30433269 3.0530383e-07 0)
(0.30433193 1.9310648e-07 0)
(0.30433146 1.2031186e-07 0)
(0.30433117 7.358701e-08 0)
(0.30433099 4.4425614e-08 0)
(0.30433089 2.6332959e-08 0)
(0.30433082 1.5518064e-08 0)
(0.30433079 9.0078008e-09 0)
(0.30433077 5.2915695e-09 0)
(0.30433076 3.091951e-09 0)
(0.30433075 1.933002e-09 0)
(0.30433075 1.1758374e-09 0)
(0.30433074 8.6299341e-10 0)
(0.30433074 5.2680034e-10 0)
(0.30433074 5.1653033e-10 0)
(0.30433074 2.741992e-10 0)
(0.30433074 3.6200171e-10 0)
(0.30433074 1.3720964e-10 0)
(0.30433074 2.9183863e-10 0)
(0.30433074 5.9723748e-11 0)
(0.30433074 2.708525e-10 0)
(0.30433074 -1.0277555e-11 0)
(0.30433074 3.1568126e-10 0)
(0.30433074 -5.9115119e-11 0)
(0.30433074 3.9044518e-10 0)
(0.30433074 -8.195955e-11 0)
(0.30433073 5.5382746e-10 0)
(0.30433074 1.5634405e-12 0)
(0.30433073 9.9450962e-10 0)
(0.30433074 5.5560997e-10 0)
(0.30433073 2.3844619e-09 0)
(0.30433074 2.4138382e-09 0)
(0.30433072 6.0651951e-09 0)
(0.30433073 7.5106903e-09 0)
(0.30433069 1.5823157e-08 0)
(0.30433069 2.3548595e-08 0)
(0.30433061 4.9061855e-08 0)
(0.30433059 8.5727566e-08 0)
(0.30433035 1.6813678e-07 0)
(0.3043302 2.8993623e-07 0)
(0.30432937 4.9913998e-07 0)
(0.30432868 6.8356509e-07 0)
(1.0016583 0.05381943 0)
(1.0359761 0.10128444 0)
(1.0597199 0.11073663 0)
(1.0628947 0.10592201 0)
(1.0515569 0.096228715 0)
(1.0340529 0.083934032 0)
(1.0142795 0.070327009 0)
(0.99360707 0.056981241 0)
(0.97292587 0.04510733 0)
(0.95310762 0.035236525 0)
(0.93479578 0.027401324 0)
(0.91829077 0.021386759 0)
(0.90362487 0.016883822 0)
(0.89068247 0.013568729 0)
(0.87928467 0.01114631 0)
(0.86923704 0.0093715396 0)
(0.86035135 0.0080538418 0)
(0.8524574 0.0070526542 0)
(0.84540838 0.0062687247 0)
(0.83908145 0.0056343572 0)
(0.83337558 0.0051044896 0)
(0.82820835 0.004649441 0)
(0.82351276 0.0042495715 0)
(0.81923437 0.0038916857 0)
(0.8153288 0.0035667165 0)
(0.81175975 0.0032682217 0)
(0.80849738 0.0029914192 0)
(0.80551712 0.0027326413 0)
(0.80279855 0.0024890762 0)
(0.8003246 0.0022586511 0)
(0.79808071 0.0020399471 0)
(0.79605413 0.0018321217 0)
(0.79423332 0.001634826 0)
(0.79260736 0.0014481167 0)
(0.79116556 0.0012723464 0)
(0.78989705 0.0011080454 0)
(0.78879063 0.00095579871 0)
(0.78783458 0.00081614023 0)
(0.78701674 0.00068946277 0)
(0.78632453 0.00057595412 0)
(0.7857452 0.00047555716 0)
(0.78526599 0.00038795742 0)
(0.78487439 0.00031259438 0)
(0.78455837 0.00024869124 0)
(0.78430662 0.0001952992 0)
(0.78410871 0.00015135096 0)
(0.78395522 0.00011572006 0)
(0.7838378 8.727082e-05 0)
(0.78374923 6.4904472e-05 0)
(0.78368337 4.7591541e-05 0)
(0.7836351 3.4399299e-05 0)
(0.78360024 2.4503733e-05 0)
(0.78357543 1.7198632e-05 0)
(0.78355805 1.1890771e-05 0)
(0.78354605 8.0964908e-06 0)
(0.7835379 5.4273309e-06 0)
(0.78353244 3.5810399e-06 0)
(0.78352886 2.3245028e-06 0)
(0.78352654 1.4843519e-06 0)
(0.78352507 9.3181706e-07 0)
(0.78352414 5.752097e-07 0)
(0.78352358 3.489987e-07 0)
(0.78352324 2.0825056e-07 0)
(0.78352304 1.2243227e-07 0)
(0.78352292 7.0930197e-08 0)
(0.78352286 4.0921381e-08 0)
(0.78352282 2.3445012e-08 0)
(0.7835228 1.3752261e-08 0)
(0.78352278 8.2554411e-09 0)
(0.78352278 5.1910263e-09 0)
(0.78352277 3.6410349e-09 0)
(0.78352277 2.4202898e-09 0)
(0.78352277 2.1750774e-09 0)
(0.78352277 1.3596415e-09 0)
(0.78352277 1.5619643e-09 0)
(0.78352277 8.3377366e-10 0)
(0.78352276 1.2316968e-09 0)
(0.78352277 5.1563466e-10 0)
(0.78352276 1.0731394e-09 0)
(0.78352277 2.7315211e-10 0)
(0.78352276 1.0933511e-09 0)
(0.78352277 9.8153427e-11 0)
(0.78352276 1.274108e-09 0)
(0.78352277 1.4176739e-11 0)
(0.78352275 1.7011525e-09 0)
(0.78352277 1.7159701e-10 0)
(0.78352275 2.7511778e-09 0)
(0.78352277 1.1705283e-09 0)
(0.78352274 5.6883137e-09 0)
(0.78352278 4.8211855e-09 0)
(0.78352271 1.3443456e-08 0)
(0.78352278 1.5839756e-08 0)
(0.78352266 3.3959717e-08 0)
(0.78352279 4.9947059e-08 0)
(0.78352255 9.7398819e-08 0)
(0.78352276 1.6817239e-07 0)
(0.78352223 3.0491136e-07 0)
(0.78352262 5.3115197e-07 0)
(0.78352121 8.3569151e-07 0)
(0.78352224 1.2682057e-06 0)
(1.0014244 0.026824855 0)
(1.0291272 0.062791352 0)
(1.0654292 0.077736551 0)
(1.098962 0.080597194 0)
(1.1253148 0.078285155 0)
(1.145053 0.073153867 0)
(1.1594858 0.066111219 0)
(1.1694286 0.058161962 0)
(1.1755353 0.050296588 0)
(1.1785737 0.043150448 0)
(1.1793569 0.036972426 0)
(1.1785948 0.031771023 0)
(1.1768302 0.027450921 0)
(1.1744517 0.023885396 0)
(1.1717287 0.020945554 0)
(1.1688446 0.01851266 0)
(1.1659201 0.016483456 0)
(1.163033 0.014772753 0)
(1.1602319 0.013313188 0)
(1.1575455 0.012052923 0)
(1.1549894 0.01095255 0)
(1.1525706 0.0099820068 0)
(1.1502907 0.0091179753 0)
(1.1481483 0.0083420149 0)
(1.1461402 0.0076393245 0)
(1.1442621 0.0069978718 0)
(1.1425091 0.0064077271 0)
(1.1408765 0.0058606171 0)
(1.1393592 0.0053497084 0)
(1.1379527 0.0048695252 0)
(1.1366528 0.0044158923 0)
(1.1354556 0.0039858561 0)
(1.1343575 0.003577587 0)
(1.1333554 0.0031902533 0)
(1.1324459 0.0028238531 0)
(1.1316261 0.0024790025 0)
(1.1308925 0.002156699 0)
(1.1302416 0.001858084 0)
(1.1296693 0.0015842238 0)
(1.1291712 0.0013359246 0)
(1.1287422 0.0011135919 0)
(1.1283769 0.00091714459 0)
(1.1280697 0.00074598193 0)
(1.1278144 0.00059900296 0)
(1.1276051 0.00047466802 0)
(1.1274358 0.0003710891 0)
(1.1273006 0.00028613729 0)
(1.1271943 0.00021755538 0)
(1.1271118 0.00016306635 0)
(1.1270487 0.00012046517 0)
(1.1270012 8.7693888e-05 0)
(1.126966 6.2891308e-05 0)
(1.1269402 4.4425309e-05 0)
(1.1269217 3.090127e-05 0)
(1.1269085 2.1160226e-05 0)
(1.1268994 1.4259981e-05 0)
(1.1268931 9.4546041e-06 0)
(1.1268888 6.1646684e-06 0)
(1.126886 3.9514824e-06 0)
(1.1268841 2.48888e-06 0)
(1.1268829 1.5396248e-06 0)
(1.1268822 9.3543176e-07 0)
(1.1268817 5.5760554e-07 0)
(1.1268814 3.2692528e-07 0)
(1.1268813 1.8798015e-07 0)
(1.1268812 1.0713738e-07 0)
(1.1268811 6.0168046e-08 0)
(1.1268811 3.4214961e-08 0)
(1.1268811 1.9788646e-08 0)
(1.1268811 1.181675e-08 0)
(1.1268811 8.0231672e-09 0)
(1.1268811 5.1278218e-09 0)
(1.126881 4.577691e-09 0)
(1.126881 2.9187652e-09 0)
(1.126881 3.2296354e-09 0)
(1.126881 1.9925159e-09 0)
(1.126881 2.4356076e-09 0)
(1.126881 1.4738985e-09 0)
(1.126881 1.9792999e-09 0)
(1.126881 1.0619946e-09 0)
(1.126881 1.900698e-09 0)
(1.126881 6.9810247e-10 0)
(1.126881 2.1542004e-09 0)
(1.1268811 5.0448282e-10 0)
(1.126881 2.7379901e-09 0)
(1.1268811 8.0517622e-10 0)
(1.126881 4.0165616e-09 0)
(1.1268811 2.3442207e-09 0)
(1.126881 7.3181785e-09 0)
(1.1268811 7.3874302e-09 0)
(1.126881 1.6011504e-08 0)
(1.1268811 2.218475e-08 0)
(1.1268809 3.9534775e-08 0)
(1.1268812 6.7103992e-08 0)
(1.1268808 1.1244291e-07 0)
(1.1268813 2.0897227e-07 0)
(1.1268806 3.339491e-07 0)
(1.1268815 5.8817248e-07 0)
(1.1268799 8.3066743e-07 0)
(1.1268821 1.2184583e-06 0)
(1.0007347 0.011814722 0)
(1.0178472 0.030860927 0)
(1.0462163 0.04143444 0)
(1.0799018 0.045193566 0)
(1.1132663 0.04550234 0)
(1.1437819 0.044080284 0)
(1.170894 0.04143994 0)
(1.1945686 0.037973604 0)
(1.214858 0.034195604 0)
(1.2319649 0.030536686 0)
(1.2462678 0.027221729 0)
(1.2582331 0.024313419 0)
(1.2683123 0.021797098 0)
(1.2768857 0.019632432 0)
(1.2842527 0.017771929 0)
(1.290644 0.016166758 0)
(1.2962374 0.014771292 0)
(1.3011711 0.013546067 0)
(1.3055528 0.012458916 0)
(1.3094671 0.011484632 0)
(1.3129806 0.010603849 0)
(1.3161461 0.0098016546 0)
(1.3190063 0.0090663066 0)
(1.3215963 0.0083882817 0)
(1.3239452 0.0077596972 0)
(1.3260773 0.0071739305 0)
(1.3280128 0.0066253076 0)
(1.3297685 0.0061088908 0)
(1.3313584 0.0056204071 0)
(1.3327945 0.0051562772 0)
(1.3340867 0.0047136566 0)
(1.335244 0.0042904554 0)
(1.3362742 0.0038853383 0)
(1.3371849 0.0034977024 0)
(1.3379833 0.0031276195 0)
(1.3386769 0.0027757261 0)
(1.3392733 0.0024430767 0)
(1.3397804 0.0021309677 0)
(1.3402064 0.001840756 0)
(1.3405597 0.0015736799 0)
(1.3408487 0.0013307031 0)
(1.3410818 0.0011123898 0)
(1.341267 0.00091882557 0)
(1.3414118 0.00074958408 0)
(1.3415231 0.00060374092 0)
(1.3416074 0.00047992633 0)
(1.3416699 0.00037640912 0)
(1.3417155 0.00029119891 0)
(1.341748 0.00022215624 0)
(1.3417708 0.00016709786 0)
(1.3417864 0.00012389093 0)
(1.3417968 9.052731e-05 0)
(1.3418035 6.5179516e-05 0)
(1.3418078 4.6232618e-05 0)
(1.3418104 3.2300514e-05 0)
(1.3418118 2.2222701e-05 0)
(1.3418126 1.5052796e-05 0)
(1.341813 1.0035957e-05 0)
(1.3418132 6.5842326e-06 0)
(1.3418132 4.2497274e-06 0)
(1.3418132 2.6974391e-06 0)
(1.3418132 1.6840074e-06 0)
(1.3418131 1.033241e-06 0)
(1.3418131 6.2404931e-07 0)
(1.341813 3.7043475e-07 0)
(1.341813 2.1726526e-07 0)
(1.341813 1.2576752e-07 0)
(1.341813 7.2556277e-08 0)
(1.341813 4.2290284e-08 0)
(1.341813 2.4674159e-08 0)
(1.341813 1.5784861e-08 0)
(1.341813 9.6436908e-09 0)
(1.341813 7.56404e-09 0)
(1.341813 4.9065062e-09 0)
(1.341813 4.6366504e-09 0)
(1.341813 3.2399726e-09 0)
(1.341813 3.2483866e-09 0)
(1.341813 2.4270009e-09 0)
(1.341813 2.5634114e-09 0)
(1.341813 1.8239194e-09 0)
(1.3418129 2.4198973e-09 0)
(1.341813 1.3349264e-09 0)
(1.3418129 2.62638e-09 0)
(1.341813 1.1883148e-09 0)
(1.3418129 3.0661594e-09 0)
(1.341813 1.7084199e-09 0)
(1.3418129 4.0321574e-09 0)
(1.341813 3.5092621e-09 0)
(1.3418129 6.6761273e-09 0)
(1.3418131 8.4333896e-09 0)
(1.3418128 1.3557675e-08 0)
(1.3418131 2.1531087e-08 0)
(1.3418128 3.1998845e-08 0)
(1.3418133 5.9295653e-08 0)
(1.3418127 8.9850825e-08 0)
(1.3418135 1.715082e-07 0)
(1.3418126 2.5711451e-07 0)
(1.3418139 4.4245516e-07 0)
(1.3418122 5.9445481e-07 0)
(1.341815 8.3588589e-07 0)
(1.0005903 0.0034629162 0)
(1.0136865 0.0093660206 0)
(1.0370283 0.013046807 0)
(1.0674202 0.014563262 0)
(1.1000315 0.014854524 0)
(1.1316427 0.014564987 0)
(1.1610744 0.013888329 0)
(1.1880673 0.012919226 0)
(1.2125202 0.01180647 0)
(1.2343935 0.010696366 0)
(1.253807 0.0096726408 0)
(1.2710329 0.0087626511 0)
(1.2863994 0.0079656896 0)
(1.3002086 0.0072717541 0)
(1.3127063 0.0066680751 0)
(1.3240845 0.0061407843 0)
(1.334495 0.0056763588 0)
(1.344059 0.005262825 0)
(1.3528742 0.0048903471 0)
(1.3610193 0.0045512529 0)
(1.3685585 0.0042397376 0)
(1.3755447 0.0039514335 0)
(1.3820222 0.0036829795 0)
(1.3880289 0.0034316986 0)
(1.393598 0.0031954045 0)
(1.3987585 0.0029722769 0)
(1.4035353 0.0027607585 0)
(1.4079504 0.0025594795 0)
(1.4120228 0.0023672361 0)
(1.4157693 0.0021830051 0)
(1.4192047 0.0020059697 0)
(1.4223423 0.0018355344 0)
(1.4251942 0.0016713375 0)
(1.4277722 0.0015132545 0)
(1.430088 0.0013613934 0)
(1.4321535 0.0012160653 0)
(1.4339814 0.0010777443 0)
(1.4355851 0.00094700821 0)
(1.4369791 0.00082447762 0)
(1.4381788 0.00071074781 0)
(1.4392005 0.00060632779 0)
(1.440061 0.00051158592 0)
(1.4407773 0.00042671091 0)
(1.4413664 0.00035168908 0)
(1.4418448 0.00028629918 0)
(1.4422285 0.00023012507 0)
(1.442532 0.00018258048 0)
(1.442769 0.00014294656 0)
(1.4429515 0.00011041229 0)
(1.4430901 8.4119494e-05 0)
(1.4431938 6.3201933e-05 0)
(1.4432704 4.6822141e-05 0)
(1.4433261 3.4197433e-05 0)
(1.443366 2.462096e-05 0)
(1.4433942 1.7471398e-05 0)
(1.4434138 1.2218677e-05 0)
(1.4434272 8.4204947e-06 0)
(1.4434362 5.7182369e-06 0)
(1.4434422 3.8259088e-06 0)
(1.4434461 2.5225898e-06 0)
(1.4434487 1.6387148e-06 0)
(1.4434503 1.0497728e-06 0)
(1.4434512 6.6287227e-07 0)
(1.4434518 4.1372216e-07 0)
(1.4434522 2.5498482e-07 0)
(1.4434524 1.5626285e-07 0)
(1.4434525 9.5140415e-08 0)
(1.4434526 5.8289534e-08 0)
(1.4434526 3.6110413e-08 0)
(1.4434527 2.2831487e-08 0)
(1.4434527 1.5177101e-08 0)
(1.4434527 1.0281369e-08 0)
(1.4434527 7.6717538e-09 0)
(1.4434527 5.6610041e-09 0)
(1.4434527 4.637573e-09 0)
(1.4434527 3.7600182e-09 0)
(1.4434527 3.1770474e-09 0)
(1.4434527 2.7937185e-09 0)
(1.4434527 2.4594752e-09 0)
(1.4434527 2.2251358e-09 0)
(1.4434527 2.2152281e-09 0)
(1.4434527 1.9034433e-09 0)
(1.4434527 2.2714907e-09 0)
(1.4434527 1.9347513e-09 0)
(1.4434526 2.562015e-09 0)
(1.4434527 2.4464456e-09 0)
(1.4434526 3.2503506e-09 0)
(1.4434528 3.7488756e-09 0)
(1.4434526 4.8942658e-09 0)
(1.4434528 6.5879004e-09 0)
(1.4434525 8.3704185e-09 0)
(1.4434529 1.2478567e-08 0)
(1.4434525 1.575002e-08 0)
(1.4434531 2.70302e-08 0)
(1.4434524 3.7550476e-08 0)
(1.4434534 6.8668071e-08 0)
(1.4434524 9.881797e-08 0)
(1.4434539 1.6444622e-07 0)
(1.4434522 2.1497247e-07 0)
(1.4434552 2.9438562e-07 0)
(1.0005903 -0.0034629154 0)
(1.0136865 -0.0093660179 0)
(1.0370283 -0.013046802 0)
(1.0674202 -0.014563254 0)
(1.1000315 -0.014854512 0)
(1.1316427 -0.014564971 0)
(1.1610744 -0.013888308 0)
(1.1880673 -0.012919198 0)
(1.2125202 -0.011806434 0)
(1.2343935 -0.01069632 0)
(1.2538071 -0.0096725841 0)
(1.2710329 -0.0087625841 0)
(1.2863994 -0.0079656133 0)
(1.3002087 -0.0072716707 0)
(1.3127063 -0.0066679877 0)
(1.3240845 -0.0061406974 0)
(1.334495 -0.0056762772 0)
(1.3440591 -0.0052627542 0)
(1.3528742 -0.004890292 0)
(1.3610193 -0.0045512188 0)
(1.3685586 -0.0042397286 0)
(1.3755447 -0.0039514525 0)
(1.3820222 -0.0036830277 0)
(1.3880289 -0.0034317762 0)
(1.3935981 -0.003195509 0)
(1.3987585 -0.0029724051 0)
(1.4035353 -0.0027609053 0)
(1.4079503 -0.002559639 0)
(1.4120227 -0.0023674017 0)
(1.4157692 -0.0021831704 0)
(1.4192046 -0.002006129 0)
(1.4223421 -0.0018356825 0)
(1.4251941 -0.0016714709 0)
(1.4277721 -0.0015133704 0)
(1.4300879 -0.0013614911 0)
(1.4321534 -0.0012161449 0)
(1.4339812 -0.0010778076 0)
(1.4355849 -0.00094705715 0)
(1.436979 -0.00082451515 0)
(1.4381787 -0.00071077661 0)
(1.4392004 -0.00060635066 0)
(1.4400609 -0.000511605 0)
(1.4407772 -0.00042672768 0)
(1.4413663 -0.00035170443 0)
(1.4418447 -0.00028631313 0)
(1.4422284 -0.00023013732 0)
(1.4425319 -0.00018259003 0)
(1.4427689 -0.00014295247 0)
(1.4429514 -0.00011041339 0)
(1.44309 -8.4115035e-05 0)
(1.4431937 -6.3191312e-05 0)
(1.4432703 -4.6805179e-05 0)
(1.443326 -3.4174332e-05 0)
(1.4433659 -2.4592225e-05 0)
(1.4433941 -1.7437932e-05 0)
(1.4434137 -1.2181412e-05 0)
(1.4434271 -8.380701e-06 0)
(1.4434362 -5.6769028e-06 0)
(1.4434422 -3.7842788e-06 0)
(1.4434461 -2.4814446e-06 0)
(1.4434486 -1.5990682e-06 0)
(1.4434502 -1.0120478e-06 0)
(1.4434512 -6.277404e-07 0)
(1.4434518 -3.8126677e-07 0)
(1.4434521 -2.2561061e-07 0)
(1.4434524 -1.2977296e-07 0)
(1.4434525 -7.1720747e-08 0)
(1.4434526 -3.7564996e-08 0)
(1.4434526 -1.8165448e-08 0)
(1.4434526 -7.1868127e-09 0)
(1.4434526 -1.8440197e-09 0)
(1.4434527 1.2460234e-09 0)
(1.4434527 2.0352223e-09 0)
(1.4434527 2.7265916e-09 0)
(1.4434527 2.416458e-09 0)
(1.4434527 2.4388307e-09 0)
(1.4434527 2.0842459e-09 0)
(1.4434527 1.975848e-09 0)
(1.4434527 1.732632e-09 0)
(1.4434527 1.7894064e-09 0)
(1.4434527 1.4844684e-09 0)
(1.4434527 1.8692639e-09 0)
(1.4434526 1.4449275e-09 0)
(1.4434527 2.1208007e-09 0)
(1.4434526 1.6892815e-09 0)
(1.4434527 2.438977e-09 0)
(1.4434526 2.198471e-09 0)
(1.4434528 2.7984155e-09 0)
(1.4434526 2.6841354e-09 0)
(1.4434528 2.5184033e-09 0)
(1.4434525 1.8073239e-09 0)
(1.4434529 -1.3080662e-09 0)
(1.4434525 -4.6115507e-09 0)
(1.4434531 -1.61524e-08 0)
(1.4434524 -2.7377359e-08 0)
(1.4434534 -5.8772128e-08 0)
(1.4434524 -8.9424099e-08 0)
(1.4434539 -1.5664608e-07 0)
(1.4434522 -2.0967659e-07 0)
(1.4434552 -2.9143083e-07 0)
(1.0007347 -0.011814721 0)
(1.0178472 -0.030860924 0)
(1.0462163 -0.041434435 0)
(1.0799018 -0.045193558 0)
(1.1132663 -0.045502329 0)
(1.1437819 -0.04408027 0)
(1.170894 -0.04143992 0)
(1.1945686 -0.037973578 0)
(1.214858 -0.034195571 0)
(1.2319649 -0.030536645 0)
(1.2462678 -0.027221679 0)
(1.2582332 -0.02431336 0)
(1.2683124 -0.021797033 0)
(1.2768858 -0.019632362 0)
(1.2842528 -0.017771857 0)
(1.2906441 -0.016166686 0)
(1.2962375 -0.014771226 0)
(1.3011712 -0.01354601 0)
(1.305553 -0.012458872 0)
(1.3094673 -0.011484604 0)
(1.3129807 -0.01060384 0)
(1.3161462 -0.0098016672 0)
(1.3190064 -0.009066341 0)
(1.3215963 -0.0083883365 0)
(1.3239452 -0.0077597708 0)
(1.3260773 -0.0071740195 0)
(1.3280127 -0.0066254087 0)
(1.3297684 -0.0061089995 0)
(1.3313583 -0.0056205196 0)
(1.3327943 -0.0051563895 0)
(1.3340865 -0.0047137658 0)
(1.3352437 -0.0042905589 0)
(1.3362739 -0.0038854344 0)
(1.3371846 -0.0034977902 0)
(1.337983 -0.0031276984 0)
(1.3386766 -0.0027757965 0)
(1.339273 -0.002443139 0)
(1.3397801 -0.0021310226 0)
(1.3402061 -0.0018408042 0)
(1.3405594 -0.0015737224 0)
(1.3408485 -0.0013307405 0)
(1.3410816 -0.0011124226 0)
(1.3412667 -0.00091885381 0)
(1.3414115 -0.0007496079 0)
(1.3415229 -0.00060375996 0)
(1.3416071 -0.00047994043 0)
(1.3416697 -0.00037641771 0)
(1.3417152 -0.00029120191 0)
(1.3417478 -0.00022215325 0)
(1.3417706 -0.00016708916 0)
(1.3417862 -0.00012387639 0)
(1.3417966 -9.0507738e-05 0)
(1.3418033 -6.515518e-05 0)
(1.3418076 -4.6204723e-05 0)
(1.3418101 -3.2269509e-05 0)
(1.3418116 -2.2189964e-05 0)
(1.3418125 -1.5018762e-05 0)
(1.3418129 -1.0001938e-05 0)
(1.341813 -6.5504542e-06 0)
(1.3418131 -4.2173184e-06 0)
(1.3418131 -2.6663667e-06 0)
(1.3418131 -1.6551563e-06 0)
(1.341813 -1.0063046e-06 0)
(1.341813 -5.9972258e-07 0)
(1.341813 -3.4821733e-07 0)
(1.341813 -1.9769691e-07 0)
(1.3418129 -1.0819589e-07 0)
(1.3418129 -5.7434564e-08 0)
(1.3418129 -2.8892118e-08 0)
(1.3418129 -1.340309e-08 0)
(1.3418129 -5.8624117e-09 0)
(1.3418129 -1.4683975e-09 0)
(1.3418129 -3.774672e-10 0)
(1.3418129 9.3121467e-10 0)
(1.3418129 6.0615315e-10 0)
(1.3418129 1.0017737e-09 0)
(1.3418129 7.1977197e-10 0)
(1.341813 8.2751901e-10 0)
(1.3418129 6.8671834e-10 0)
(1.341813 9.5326294e-10 0)
(1.3418129 5.6169929e-10 0)
(1.341813 1.3731933e-09 0)
(1.3418129 4.9964229e-10 0)
(1.341813 1.8653772e-09 0)
(1.3418129 6.0048081e-10 0)
(1.341813 2.1187765e-09 0)
(1.3418129 7.0720839e-10 0)
(1.341813 1.7144811e-09 0)
(1.3418129 -1.6312339e-10 0)
(1.3418131 -1.191783e-09 0)
(1.3418128 -5.0984668e-09 0)
(1.3418131 -1.2835643e-08 0)
(1.3418128 -2.317483e-08 0)
(1.3418133 -5.12712e-08 0)
(1.3418127 -8.2335622e-08 0)
(1.3418135 -1.6445574e-07 0)
(1.3418126 -2.5022983e-07 0)
(1.341814 -4.3667049e-07 0)
(1.3418122 -5.9018171e-07 0)
(1.3418151 -8.3314708e-07 0)
(1.0014244 -0.026824854 0)
(1.0291272 -0.06279135 0)
(1.0654292 -0.077736547 0)
(1.098962 -0.080597188 0)
(1.1253148 -0.078285147 0)
(1.145053 -0.073153856 0)
(1.1594858 -0.066111204 0)
(1.1694286 -0.058161943 0)
(1.1755353 -0.050296563 0)
(1.1785737 -0.043150418 0)
(1.179357 -0.036972391 0)
(1.1785949 -0.031770983 0)
(1.1768303 -0.027450878 0)
(1.1744518 -0.023885351 0)
(1.1717288 -0.020945509 0)
(1.1688447 -0.018512617 0)
(1.1659203 -0.016483417 0)
(1.1630332 -0.01477272 0)
(1.1602321 -0.013313162 0)
(1.1575457 -0.012052906 0)
(1.1549896 -0.010952544 0)
(1.1525707 -0.0099820108 0)
(1.1502908 -0.0091179892 0)
(1.1481484 -0.0083420377 0)
(1.1461402 -0.007639355 0)
(1.1442621 -0.0069979087 0)
(1.1425091 -0.0064077687 0)
(1.1408764 -0.0058606625 0)
(1.139359 -0.0053497562 0)
(1.1379525 -0.0048695754 0)
(1.1366526 -0.0044159436 0)
(1.1354553 -0.0039859093 0)
(1.1343573 -0.0035776409 0)
(1.133355 -0.0031903087 0)
(1.1324456 -0.0028239085 0)
(1.1316257 -0.0024790582 0)
(1.1308921 -0.0021567536 0)
(1.1302412 -0.0018581372 0)
(1.1296689 -0.0015842742 0)
(1.1291708 -0.0013359715 0)
(1.1287418 -0.0011136344 0)
(1.1283766 -0.00091718183 0)
(1.1280693 -0.00074601357 0)
(1.1278141 -0.00059902825 0)
(1.1276048 -0.00047468722 0)
(1.1274354 -0.00037110173 0)
(1.1273003 -0.00028614414 0)
(1.1271939 -0.00021755632 0)
(1.1271114 -0.00016306246 0)
(1.1270484 -0.00012045654 0)
(1.1270009 -8.768174e-05 0)
(1.1269657 -6.2875956e-05 0)
(1.1269399 -4.4407923e-05 0)
(1.1269214 -3.088218e-05 0)
(1.1269083 -2.1140416e-05 0)
(1.1268991 -1.4239711e-05 0)
(1.1268929 -9.434613e-06 0)
(1.1268886 -6.1450849e-06 0)
(1.1268858 -3.9328323e-06 0)
(1.126884 -2.4711716e-06 0)
(1.1268828 -1.5232061e-06 0)
(1.1268821 -9.202036e-07 0)
(1.1268816 -5.4380839e-07 0)
(1.1268814 -3.1439642e-07 0)
(1.1268812 -1.7686702e-07 0)
(1.1268811 -9.7229266e-08 0)
(1.1268811 -5.1566773e-08 0)
(1.126881 -2.6687884e-08 0)
(1.126881 -1.3389747e-08 0)
(1.126881 -6.2838498e-09 0)
(1.126881 -3.4077672e-09 0)
(1.126881 -1.1590792e-09 0)
(1.126881 -1.2928904e-09 0)
(1.126881 -5.7706795e-11 0)
(1.126881 -8.4934263e-10 0)
(1.126881 1.3813704e-10 0)
(1.126881 -6.2301213e-10 0)
(1.126881 2.699965e-10 0)
(1.126881 -4.2210661e-10 0)
(1.126881 5.4744718e-10 0)
(1.126881 -3.5167029e-10 0)
(1.126881 1.0321226e-09 0)
(1.126881 -3.6709633e-10 0)
(1.1268811 1.5654188e-09 0)
(1.126881 -4.7797014e-10 0)
(1.1268811 1.8952965e-09 0)
(1.126881 -9.7997643e-10 0)
(1.1268811 1.2987368e-09 0)
(1.126881 -3.2085747e-09 0)
(1.1268811 -2.5860786e-09 0)
(1.126881 -1.0877752e-08 0)
(1.1268812 -1.6826729e-08 0)
(1.1268809 -3.446612e-08 0)
(1.1268812 -6.2684401e-08 0)
(1.1268808 -1.086316e-07 0)
(1.1268814 -2.0525244e-07 0)
(1.1268806 -3.3020672e-07 0)
(1.1268816 -5.8516185e-07 0)
(1.1268799 -8.2908104e-07 0)
(1.1268821 -1.2177512e-06 0)
(1.0016583 -0.05381943 0)
(1.0359761 -0.10128443 0)
(1.0597199 -0.11073663 0)
(1.0628947 -0.10592201 0)
(1.0515569 -0.096228711 0)
(1.0340529 -0.083934026 0)
(1.0142795 -0.070327001 0)
(0.99360709 -0.056981232 0)
(0.9729259 -0.045107318 0)
(0.95310766 -0.035236512 0)
(0.93479584 -0.02740131 0)
(0.91829085 -0.021386743 0)
(0.90362497 -0.016883806 0)
(0.89068258 -0.013568713 0)
(0.8792848 -0.011146295 0)
(0.86923718 -0.0093715247 0)
(0.8603515 -0.0080538274 0)
(0.85245755 -0.0070526408 0)
(0.84540854 -0.0062687123 0)
(0.8390816 -0.0056343461 0)
(0.83337572 -0.0051044795 0)
(0.82820847 -0.0046494321 0)
(0.82351287 -0.0042495642 0)
(0.81923445 -0.0038916804 0)
(0.81532886 -0.0035667135 0)
(0.81175977 -0.0032682212 0)
(0.80849739 -0.0029914216 0)
(0.80551708 -0.0027326467 0)
(0.80279849 -0.0024890851 0)
(0.80032451 -0.0022586631 0)
(0.79808059 -0.0020399626 0)
(0.79605397 -0.0018321402 0)
(0.79423313 -0.0016348476 0)
(0.79260713 -0.0014481405 0)
(0.7911653 -0.0012723724 0)
(0.78989676 -0.0011080725 0)
(0.78879031 -0.00095582644 0)
(0.78783424 -0.00081616769 0)
(0.78701637 -0.00068948938 0)
(0.78632416 -0.00057597918 0)
(0.78574481 -0.00047558008 0)
(0.7852656 -0.00038797788 0)
(0.784874 -0.00031261198 0)
(0.78455799 -0.00024870607 0)
(0.78430625 -0.00019531101 0)
(0.78410836 -0.00015136011 0)
(0.78395488 -0.00011572647 0)
(0.78383749 -8.727501e-05 0)
(0.78374894 -6.4906413e-05 0)
(0.7836831 -4.759178e-05 0)
(0.78363485 -3.4397909e-05 0)
(0.78360002 -2.4501235e-05 0)
(0.78357523 -1.7195079e-05 0)
(0.78355787 -1.1886609e-05 0)
(0.78354588 -8.0917738e-06 0)
(0.78353775 -5.4224024e-06 0)
(0.78353232 -3.5759057e-06 0)
(0.78352875 -2.3194336e-06 0)
(0.78352644 -1.4793383e-06 0)
(0.78352499 -9.2704704e-07 0)
(0.78352407 -5.7063728e-07 0)
(0.78352352 -3.4478285e-07 0)
(0.78352319 -2.0434268e-07 0)
(0.783523 -1.1892534e-07 0)
(0.78352289 -6.7745411e-08 0)
(0.78352283 -3.8144658e-08 0)
(0.78352279 -2.1009827e-08 0)
(0.78352278 -1.1697023e-08 0)
(0.78352277 -6.4759981e-09 0)
(0.78352277 -3.7153589e-09 0)
(0.78352277 -2.3930002e-09 0)
(0.78352277 -1.4079378e-09 0)
(0.78352277 -1.2782639e-09 0)
(0.78352277 -6.3603454e-10 0)
(0.78352277 -9.0202097e-10 0)
(0.78352277 -2.9438119e-10 0)
(0.78352277 -6.8371365e-10 0)
(0.78352277 -3.4910074e-11 0)
(0.78352277 -5.4858373e-10 0)
(0.78352277 2.3322768e-10 0)
(0.78352277 -4.6581794e-10 0)
(0.78352278 5.74317e-10 0)
(0.78352276 -4.614047e-10 0)
(0.78352278 8.9268896e-10 0)
(0.78352276 -5.7545379e-10 0)
(0.78352278 1.0939164e-09 0)
(0.78352276 -1.2611672e-09 0)
(0.78352279 4.2914167e-10 0)
(0.78352275 -4.070078e-09 0)
(0.7835228 -3.3544731e-09 0)
(0.78352273 -1.2268201e-08 0)
(0.7835228 -1.4825527e-08 0)
(0.78352269 -3.2847928e-08 0)
(0.78352281 -4.8366286e-08 0)
(0.78352257 -9.4690788e-08 0)
(0.78352279 -1.6468194e-07 0)
(0.78352226 -3.0261355e-07 0)
(0.78352264 -5.3182753e-07 0)
(0.78352123 -8.3822678e-07 0)
(0.78352227 -1.2706022e-06 0)
(0.91890839 -0.035821913 0)
(0.86271384 -0.062195638 0)
(0.7870597 -0.062510089 0)
(0.69536033 -0.054550392 0)
(0.61089746 -0.044531642 0)
(0.54411595 -0.034015948 0)
(0.49343019 -0.024187497 0)
(0.45479425 -0.016144157 0)
(0.42544603 -0.010265663 0)
(0.40347345 -0.0063039708 0)
(0.38715814 -0.0037974078 0)
(0.37496288 -0.002310036 0)
(0.36566294 -0.001492559 0)
(0.35836422 -0.0010844404 0)
(0.35244486 -0.00090514117 0)
(0.34748513 -0.00083984067 0)
(0.34320788 -0.00082216018 0)
(0.33943342 -0.00081726727 0)
(0.33604655 -0.00080918211 0)
(0.3329732 -0.00079235397 0)
(0.3301647 -0.00076640061 0)
(0.32758755 -0.00073306121 0)
(0.32521741 -0.00069461573 0)
(0.32303546 -0.00065317067 0)
(0.32102646 -0.00061038585 0)
(0.31917766 -0.00056742305 0)
(0.31747819 -0.00052501356 0)
(0.31591869 -0.00048357503 0)
(0.31449113 -0.00044333005 0)
(0.31318852 -0.00040439124 0)
(0.31200468 -0.00036682614 0)
(0.31093403 -0.00033069353 0)
(0.30997128 -0.00029607379 0)
(0.30911127 -0.00026307236 0)
(0.30834872 -0.00023182172 0)
(0.30767814 -0.00020246438 0)
(0.30709371 -0.00017514331 0)
(0.30658924 -0.00014998289 0)
(0.30615825 -0.00012707887 0)
(0.30579402 -0.00010648563 0)
(0.30548969 -8.8211073e-05 0)
(0.30523839 -7.2214284e-05 0)
(0.3050334 -5.8407018e-05 0)
(0.30486829 -4.666015e-05 0)
(0.30473701 -3.6808479e-05 0)
(0.304634 -2.8664906e-05 0)
(0.30455426 -2.203021e-05 0)
(0.30449337 -1.6705157e-05 0)
(0.30444751 -1.249446e-05 0)
(0.30441347 -9.2159572e-06 0)
(0.30438855 -6.7017124e-06 0)
(0.30437057 -4.8038797e-06 0)
(0.30435779 -3.3931589e-06 0)
(0.30434885 -2.3614575e-06 0)
(0.30434268 -1.6185126e-06 0)
(0.30433849 -1.0924362e-06 0)
(0.30433569 -7.2565556e-07 0)
(0.30433385 -4.7445792e-07 0)
(0.30433267 -3.0500969e-07 0)
(0.30433191 -1.9294004e-07 0)
(0.30433144 -1.1982917e-07 0)
(0.30433115 -7.3311485e-08 0)
(0.30433098 -4.3914592e-08 0)
(0.30433088 -2.6055943e-08 0)
(0.30433082 -1.5028334e-08 0)
(0.30433078 -8.7890046e-09 0)
(0.30433076 -4.8911541e-09 0)
(0.30433076 -2.9451316e-09 0)
(0.30433075 -1.5908695e-09 0)
(0.30433075 -1.0959852e-09 0)
(0.30433075 -6.0456243e-10 0)
(0.30433075 -5.1260838e-10 0)
(0.30433074 -2.9911802e-10 0)
(0.30433074 -3.1666141e-10 0)
(0.30433074 -1.9524314e-10 0)
(0.30433074 -2.1253487e-10 0)
(0.30433074 -1.2430169e-10 0)
(0.30433074 -1.4068911e-10 0)
(0.30433074 -9.1857581e-11 0)
(0.30433074 -3.0505838e-11 0)
(0.30433074 -6.458251e-11 0)
(0.30433074 8.8452491e-11 0)
(0.30433074 -8.3044168e-11 0)
(0.30433074 2.0244411e-10 0)
(0.30433074 -1.3763474e-10 0)
(0.30433075 2.0123416e-10 0)
(0.30433074 -5.5558965e-10 0)
(0.30433075 -4.8282397e-10 0)
(0.30433074 -2.3533909e-09 0)
(0.30433074 -3.0270472e-09 0)
(0.30433072 -6.718559e-09 0)
(0.30433073 -8.2990389e-09 0)
(0.30433069 -1.5738998e-08 0)
(0.3043307 -2.2049814e-08 0)
(0.30433062 -4.592635e-08 0)
(0.30433061 -8.3154931e-08 0)
(0.30433036 -1.6844721e-07 0)
(0.3043302 -2.9289642e-07 0)
(0.30432937 -5.0231213e-07 0)
(0.30432869 -6.8554583e-07 0)
)
;

boundaryField
{
    top
    {
        type            fixedValue;
        value           uniform (0 0 0);
    }
    inlet
    {
        type            fixedValue;
        value           uniform (1 0 0);
    }
    outlet
    {
        type            zeroGradient;
    }
    bottom
    {
        type            fixedValue;
        value           uniform (0 0 0);
    }
    back
    {
        type            empty;
    }
    front
    {
        type            empty;
    }
}


// ************************************************************************* //
