/*--------------------------------*- C++ -*----------------------------------*\
| =========                 |                                                 |
| \\      /  F ield         | OpenFOAM: The Open Source CFD Toolbox           |
|  \\    /   O peration     | Version:  v1812                                 |
|   \\  /    A nd           | Web:      www.OpenFOAM.com                      |
|    \\/     M anipulation  |                                                 |
\*---------------------------------------------------------------------------*/
FoamFile
{
    version     2.0;
    format      ascii;
    class       volScalarField;
    location    "9.95";
    object      p;
}
// * * * * * * * * * * * * * * * * * * * * * * * * * * * * * * * * * * * * * //

dimensions      [0 2 -2 0 0 0 0];


internalField   nonuniform List<scalar> 
1000
(
1.6755697
1.5544918
1.4585114
1.3948553
1.3463457
1.3038737
1.2663385
1.2341667
1.2067663
1.1829288
1.1615345
1.1417706
1.1230935
1.1051539
1.0877386
1.0707244
1.0540435
1.0376594
1.0215512
1.0057053
0.99011028
0.97475518
0.95962849
0.94471825
0.93001224
0.91549824
0.90116427
0.88699877
0.87299072
0.85912972
0.84540601
0.83181046
0.81833457
0.8049704
0.79171056
0.77854819
0.76547688
0.75249067
0.739584
0.72675169
0.7139889
0.70129109
0.68865405
0.67607383
0.66354675
0.65106935
0.63863841
0.62625092
0.61390407
0.60159522
0.5893219
0.57708181
0.56487278
0.5526928
0.54053997
0.52841252
0.51630881
0.50422728
0.4921665
0.48012513
0.46810189
0.4560956
0.44410516
0.43212951
0.4201677
0.4082188
0.39628199
0.38435648
0.37244154
0.36053647
0.34864065
0.33675347
0.32487434
0.31300275
0.3011382
0.28928023
0.27742843
0.26558241
0.25374181
0.24190629
0.23007554
0.21824924
0.2064271
0.19460886
0.18279427
0.17098312
0.15917519
0.14737031
0.13556829
0.12376895
0.11197211
0.1001776
0.088385263
0.07659497
0.064806581
0.053019982
0.041235046
0.029451627
0.017669747
0.0058890057
1.55835
1.503421
1.4424685
1.3909008
1.3476307
1.3086624
1.2730762
1.2413035
1.2133426
1.1885648
1.1661629
1.1454615
1.1259799
1.1073919
1.0894783
1.0720935
1.0551417
1.0385603
1.0223076
1.0063541
0.9906771
0.97525757
0.96007872
0.94512506
0.930382
0.91583578
0.90147336
0.88728249
0.87325165
0.85937008
0.84562772
0.83201521
0.81852387
0.80514558
0.79187282
0.77869861
0.76561643
0.75262022
0.73970435
0.72686354
0.7140929
0.70138785
0.68874411
0.67615768
0.66362484
0.6511421
0.63870621
0.62631411
0.61396298
0.60165015
0.58937312
0.57712959
0.56491736
0.55273439
0.54057878
0.52844874
0.5163426
0.50425883
0.49219595
0.48015261
0.46812754
0.45611955
0.44412752
0.43215039
0.4201872
0.40823701
0.396299
0.38437235
0.37245635
0.3605503
0.34865356
0.33676551
0.32488559
0.31301326
0.301148
0.28928938
0.27743695
0.26559034
0.25374919
0.24191315
0.23008191
0.21825516
0.2064326
0.19461396
0.18279899
0.17098747
0.15917919
0.14737398
0.13557164
0.12377202
0.1119749
0.10018015
0.088387569
0.07659705
0.064808438
0.053021622
0.041236504
0.029452837
0.017670807
0.0058894728
1.4975288
1.4713537
1.4329569
1.391824
1.3527387
1.3161479
1.2818502
1.2501327
1.2212766
1.1951755
1.1714215
1.1495315
1.1290817
1.1097408
1.0912606
1.0734596
1.0562078
1.0394122
1.0230061
1.006941
0.9911806
0.97569692
0.96046705
0.94547156
0.93069329
0.91611679
0.90172796
0.88751378
0.87346224
0.85956218
0.84580326
0.83217589
0.81867116
0.8052808
0.79199714
0.77881305
0.76572191
0.75271756
0.73979426
0.72694669
0.71416985
0.70145913
0.68881019
0.67621898
0.66368175
0.65119495
0.63875532
0.62635977
0.61400545
0.60168966
0.5894099
0.57716382
0.56494924
0.55276409
0.54060646
0.52847454
0.51636666
0.50428125
0.49221686
0.48017211
0.46814572
0.45613651
0.44414334
0.43216516
0.42020098
0.40824989
0.39631101
0.38438357
0.37246681
0.36056006
0.34866266
0.33677401
0.32489353
0.31302067
0.30115493
0.28929585
0.27744299
0.26559597
0.25375443
0.24191803
0.23008644
0.21825938
0.20643653
0.19461762
0.1828024
0.17099063
0.15918212
0.14737668
0.13557412
0.12377429
0.11197698
0.10018207
0.088389321
0.07659865
0.064809864
0.053022886
0.041237569
0.029453724
0.017671348
0.0058897971
1.4681203
1.4526222
1.4257523
1.3918284
1.3560274
1.3210761
1.2877741
1.2564211
1.2272904
1.2004989
1.1759114
1.1532192
1.1320674
1.1121386
1.0931804
1.0750007
1.0574549
1.0404339
1.0238553
1.0076573
0.99179334
0.9762276
0.96093164
0.94588196
0.93105853
0.9164438
0.90202215
0.88777951
0.87370306
0.85978105
0.84600268
0.83235799
0.81883778
0.80543353
0.79213737
0.77894201
0.76584066
0.75282704
0.73989532
0.72704007
0.71425623
0.7015391
0.68888428
0.67628768
0.66374549
0.65125414
0.6388103
0.62641087
0.61405295
0.60173384
0.58945101
0.57720209
0.56498487
0.55279728
0.54063737
0.52850335
0.51639352
0.50430629
0.4922402
0.48019387
0.46816602
0.45615543
0.44416099
0.43218163
0.42021635
0.40826424
0.39632441
0.38439608
0.37247849
0.36057096
0.34867283
0.3367835
0.32490238
0.31302894
0.30116267
0.28930309
0.27744976
0.2656023
0.25376034
0.24192355
0.2300916
0.21826419
0.20644102
0.19462183
0.18280634
0.17099433
0.15918558
0.14737991
0.13557712
0.12377708
0.11197956
0.10018447
0.08839154
0.076600723
0.06481174
0.053024626
0.041239031
0.029455072
0.017672225
0.0058906897
1.4553887
1.4434354
1.421201
1.3909134
1.3570523
1.3230567
1.2903591
1.2593535
1.2302561
1.2032443
1.1783172
1.1552677
1.1337861
1.1135685
1.0943649
1.0759827
1.0582738
1.0411233
1.0244425
1.0081634
0.99223438
0.97661582
0.96127631
0.94619016
0.93133569
0.91669421
0.90224923
0.88798603
0.87389134
0.85995304
0.84616008
0.83250226
0.8189702
0.80555524
0.79224937
0.77904519
0.76593581
0.75291489
0.73997649
0.72711514
0.71432571
0.70160345
0.68894392
0.676343
0.66379683
0.65130181
0.63885458
0.62645203
0.61409122
0.60176944
0.58948413
0.57723291
0.56501357
0.552824
0.54066227
0.52852655
0.51641514
0.50432644
0.49225899
0.48021139
0.46818235
0.45617067
0.4441752
0.43219488
0.42022872
0.40827578
0.39633519
0.38440614
0.37248788
0.36057972
0.34868101
0.33679113
0.32490951
0.31303561
0.3011689
0.28930892
0.27745523
0.26560742
0.25376512
0.24192802
0.23009577
0.21826809
0.20644468
0.19462526
0.18280956
0.17099736
0.15918842
0.14738257
0.13557961
0.1237794
0.11198172
0.10018648
0.088393407
0.076602481
0.064813339
0.053026137
0.041240313
0.0294563
0.017673084
0.0058915978
1.4553887
1.4434354
1.421201
1.3909134
1.3570523
1.3230567
1.2903591
1.2593535
1.2302561
1.2032443
1.1783172
1.1552677
1.1337861
1.1135685
1.0943649
1.0759827
1.0582738
1.0411233
1.0244425
1.0081634
0.99223437
0.97661582
0.96127631
0.94619016
0.9313357
0.91669421
0.90224923
0.88798603
0.87389133
0.85995304
0.84616008
0.83250226
0.8189702
0.80555524
0.79224937
0.77904519
0.76593582
0.75291489
0.73997649
0.72711513
0.7143257
0.70160344
0.68894392
0.676343
0.66379683
0.65130181
0.63885459
0.62645203
0.61409122
0.60176944
0.58948413
0.57723291
0.56501357
0.552824
0.54066227
0.52852655
0.51641514
0.50432645
0.49225899
0.48021139
0.46818235
0.45617066
0.4441752
0.43219489
0.42022873
0.40827579
0.3963352
0.38440614
0.37248788
0.36057972
0.34868101
0.33679113
0.32490952
0.31303562
0.30116892
0.28930894
0.27745524
0.26560743
0.25376513
0.24192802
0.23009577
0.21826809
0.20644468
0.19462527
0.18280957
0.17099737
0.15918843
0.14738258
0.13557961
0.12377939
0.11198171
0.10018648
0.088393401
0.076602476
0.064813335
0.053026129
0.0412403
0.02945628
0.017673059
0.0058915851
1.4681203
1.4526222
1.4257523
1.3918284
1.3560274
1.3210761
1.2877741
1.2564211
1.2272904
1.2004989
1.1759114
1.1532192
1.1320674
1.1121386
1.0931804
1.0750007
1.0574549
1.0404339
1.0238553
1.0076573
0.99179334
0.9762276
0.96093164
0.94588197
0.93105853
0.9164438
0.90202215
0.88777951
0.87370306
0.85978105
0.84600268
0.83235799
0.81883778
0.80543354
0.79213738
0.77894201
0.76584066
0.75282704
0.73989532
0.72704006
0.71425622
0.70153909
0.68888428
0.67628769
0.6637455
0.65125414
0.6388103
0.62641087
0.61405295
0.60173384
0.589451
0.57720208
0.56498487
0.55279728
0.54063738
0.52850336
0.51639352
0.50430629
0.49224019
0.48019386
0.46816601
0.45615543
0.44416099
0.43218164
0.42021637
0.40826426
0.39632443
0.38439608
0.37247849
0.36057095
0.34867282
0.3367835
0.3249024
0.31302897
0.30116271
0.28930313
0.2774498
0.26560233
0.25376036
0.24192355
0.2300916
0.2182642
0.20644104
0.19462186
0.18280638
0.17099437
0.15918561
0.14737992
0.13557711
0.12377706
0.11197954
0.10018445
0.088391526
0.076600712
0.064811727
0.053024606
0.041238999
0.029455023
0.017672169
0.0058906627
1.4975288
1.4713537
1.4329569
1.391824
1.3527387
1.3161479
1.2818502
1.2501327
1.2212766
1.1951755
1.1714215
1.1495315
1.1290817
1.1097408
1.0912606
1.0734596
1.0562077
1.0394122
1.0230061
1.006941
0.9911806
0.97569692
0.96046706
0.94547156
0.93069329
0.9161168
0.90172796
0.88751378
0.87346223
0.85956217
0.84580326
0.83217589
0.81867116
0.80528081
0.79199715
0.77881306
0.76572191
0.75271756
0.73979425
0.72694668
0.71416985
0.70145913
0.68881019
0.67621899
0.66368176
0.65119496
0.63875532
0.62635977
0.61400544
0.60168964
0.58940989
0.57716382
0.56494924
0.5527641
0.54060647
0.52847455
0.51636666
0.50428125
0.49221684
0.48017209
0.46814571
0.45613651
0.44414335
0.43216518
0.42020101
0.40824991
0.39631103
0.38438357
0.37246681
0.36056005
0.34866267
0.33677403
0.32489356
0.31302072
0.30115499
0.2892959
0.27744303
0.26559599
0.25375444
0.24191803
0.23008646
0.21825941
0.20643657
0.19461767
0.18280245
0.17099068
0.15918214
0.14737668
0.13557411
0.12377427
0.11197697
0.10018205
0.088389308
0.076598634
0.064809843
0.053022856
0.04123753
0.029453675
0.017671299
0.0058897751
1.5583501
1.503421
1.4424685
1.3909008
1.3476307
1.3086624
1.2730761
1.2413035
1.2133426
1.1885648
1.1661629
1.1454616
1.1259799
1.1073919
1.0894783
1.0720935
1.0551417
1.0385603
1.0223076
1.0063541
0.9906771
0.97525757
0.96007873
0.94512506
0.93038201
0.91583578
0.90147336
0.88728248
0.87325165
0.85937007
0.84562772
0.83201522
0.81852387
0.80514559
0.79187283
0.77869861
0.76561643
0.75262021
0.73970434
0.72686353
0.7140929
0.70138786
0.68874412
0.67615769
0.66362485
0.65114211
0.6387062
0.6263141
0.61396297
0.60165014
0.58937312
0.57712959
0.56491737
0.5527344
0.54057879
0.52844874
0.5163426
0.50425881
0.49219593
0.4801526
0.46812754
0.45611956
0.44412754
0.43215042
0.42018722
0.40823703
0.396299
0.38437235
0.37245634
0.3605503
0.34865358
0.33676556
0.32488565
0.31301332
0.30114807
0.28928942
0.27743698
0.26559036
0.2537492
0.24191318
0.23008195
0.21825521
0.20643266
0.19461402
0.18279904
0.1709875
0.15917921
0.14737399
0.13557164
0.12377201
0.1119749
0.10018014
0.088387558
0.076597031
0.064808412
0.053021589
0.041236467
0.029452801
0.01767078
0.0058894627
1.6755697
1.5544918
1.4585114
1.3948553
1.3463457
1.3038737
1.2663384
1.2341667
1.2067663
1.1829288
1.1615345
1.1417706
1.1230935
1.1051539
1.0877386
1.0707244
1.0540435
1.0376594
1.0215512
1.0057053
0.99011029
0.97475519
0.95962849
0.94471825
0.93001224
0.91549824
0.90116427
0.88699876
0.87299071
0.85912971
0.84540601
0.83181047
0.81833458
0.8049704
0.79171056
0.77854819
0.76547687
0.75249066
0.739584
0.72675169
0.7139889
0.7012911
0.68865406
0.67607384
0.66354675
0.65106935
0.6386384
0.62625091
0.61390406
0.60159521
0.5893219
0.57708182
0.5648728
0.55269281
0.54053997
0.52841252
0.51630879
0.50422726
0.49216649
0.48012512
0.4681019
0.45609562
0.44410518
0.43212954
0.42016771
0.40821881
0.39628199
0.38435647
0.37244153
0.36053649
0.34864069
0.33675352
0.32487441
0.31300282
0.30113825
0.28928027
0.27742845
0.26558243
0.25374183
0.24190633
0.23007559
0.21824931
0.20642717
0.19460892
0.18279432
0.17098315
0.15917521
0.14737033
0.1355683
0.12376896
0.11197211
0.1001776
0.088385254
0.076594954
0.064806556
0.053019951
0.04123501
0.029451595
0.01766973
0.0058890006
)
;

boundaryField
{
    top
    {
        type            zeroGradient;
    }
    inlet
    {
        type            zeroGradient;
    }
    outlet
    {
        type            fixedValue;
        value           uniform 0;
    }
    bottom
    {
        type            zeroGradient;
    }
    back
    {
        type            empty;
    }
    front
    {
        type            empty;
    }
}


// ************************************************************************* //
