/*--------------------------------*- C++ -*----------------------------------*\
| =========                 |                                                 |
| \\      /  F ield         | OpenFOAM: The Open Source CFD Toolbox           |
|  \\    /   O peration     | Version:  v1812                                 |
|   \\  /    A nd           | Web:      www.OpenFOAM.com                      |
|    \\/     M anipulation  |                                                 |
\*---------------------------------------------------------------------------*/
FoamFile
{
    version     2.0;
    format      ascii;
    class       volVectorField;
    location    "18.65";
    object      U;
}
// * * * * * * * * * * * * * * * * * * * * * * * * * * * * * * * * * * * * * //

dimensions      [0 1 -1 0 0 0 0];


internalField   nonuniform List<vector> 
1000
(
(0.91890839 0.035821912 0)
(0.86271384 0.062195638 0)
(0.7870597 0.062510089 0)
(0.69536033 0.054550394 0)
(0.61089745 0.04453165 0)
(0.54411592 0.034015971 0)
(0.49343012 0.02418754 0)
(0.45479414 0.01614423 0)
(0.42544583 0.010265786 0)
(0.40347313 0.0063041453 0)
(0.38715767 0.0037976293 0)
(0.3749622 0.0023103382 0)
(0.36566193 0.001493015 0)
(0.35836272 0.0010851183 0)
(0.35244268 0.00090607198 0)
(0.34748201 0.00084105104 0)
(0.34320348 0.00082372347 0)
(0.33942726 0.00081930988 0)
(0.33603793 0.00081185196 0)
(0.33296114 0.00079580153 0)
(0.33014778 0.0007708122 0)
(0.32756384 0.00073871018 0)
(0.3251842 0.00070188973 0)
(0.32298902 0.00066256561 0)
(0.32096172 0.00062249903 0)
(0.31908785 0.0005829564 0)
(0.31735449 0.00054477061 0)
(0.31574996 0.00050843327 0)
(0.3142636 0.00047419133 0)
(0.31288575 0.0004421247 0)
(0.31160756 0.00041221009 0)
(0.31042101 0.00038436244 0)
(0.30931883 0.00035846568 0)
(0.30829438 0.00033439065 0)
(0.30734165 0.00031200639 0)
(0.30645515 0.0002911867 0)
(0.30562991 0.00027181289 0)
(0.30486136 0.00025377541 0)
(0.30414535 0.00023697355 0)
(0.30347807 0.00022131466 0)
(0.30285601 0.00020671491 0)
(0.30227596 0.00019309671 0)
(0.30173497 0.00018038996 0)
(0.30123029 0.00016852989 0)
(0.30075942 0.00015745728 0)
(0.30032002 0.00014711824 0)
(0.29990993 0.00013746233 0)
(0.29952715 0.00012844407 0)
(0.29916983 0.00012002052 0)
(0.29883624 0.00011215137 0)
(0.29852478 0.00010480012 0)
(0.29823397 9.7931179e-05 0)
(0.29796241 9.1512443e-05 0)
(0.29770883 8.5513711e-05 0)
(0.29747201 7.9906512e-05 0)
(0.29725084 7.4665998e-05 0)
(0.29704429 6.9767607e-05 0)
(0.29685137 6.519084e-05 0)
(0.2966712 6.0914769e-05 0)
(0.29650291 5.6919808e-05 0)
(0.29634572 5.3187715e-05 0)
(0.2961989 4.9700052e-05 0)
(0.29606176 4.6440416e-05 0)
(0.29593366 4.3392883e-05 0)
(0.295814 4.0542934e-05 0)
(0.29570223 3.7878444e-05 0)
(0.29559783 3.5387603e-05 0)
(0.29550031 3.3060313e-05 0)
(0.29540922 3.0887965e-05 0)
(0.29532413 2.8859694e-05 0)
(0.29524465 2.6966794e-05 0)
(0.2951704 2.5198751e-05 0)
(0.29510104 2.3545424e-05 0)
(0.29503625 2.1998325e-05 0)
(0.29497572 2.0549884e-05 0)
(0.29491918 1.9194124e-05 0)
(0.29486637 1.7927504e-05 0)
(0.29481705 1.6744376e-05 0)
(0.29477097 1.5643056e-05 0)
(0.29472793 1.4616414e-05 0)
(0.29468772 1.3660582e-05 0)
(0.29465016 1.2766822e-05 0)
(0.29461507 1.1930706e-05 0)
(0.29458229 1.114468e-05 0)
(0.29455167 1.04078e-05 0)
(0.29452308 9.713262e-06 0)
(0.29449635 9.0725483e-06 0)
(0.29447142 8.4703319e-06 0)
(0.2944481 7.9182888e-06 0)
(0.29442633 7.3969323e-06 0)
(0.29440598 6.9260883e-06 0)
(0.294387 6.4726552e-06 0)
(0.2943692 6.061812e-06 0)
(0.29435259 5.650408e-06 0)
(0.29433714 5.2891223e-06 0)
(0.29432249 4.9685756e-06 0)
(0.29430919 4.6878343e-06 0)
(0.29429569 4.5388865e-06 0)
(0.29428502 4.4055866e-06 0)
(0.29426874 5.0574722e-06 0)
(1.0016583 0.05381943 0)
(1.0359761 0.10128443 0)
(1.0597199 0.11073663 0)
(1.0628947 0.10592201 0)
(1.0515569 0.096228725 0)
(1.0340529 0.083934059 0)
(1.0142795 0.070327062 0)
(0.99360703 0.056981334 0)
(0.97292577 0.045107479 0)
(0.9531074 0.03523675 0)
(0.93479539 0.02740165 0)
(0.91829012 0.021387227 0)
(0.90362379 0.016884499 0)
(0.89068068 0.013569709 0)
(0.87928175 0.011147748 0)
(0.86923242 0.0093736578 0)
(0.86034424 0.0080569271 0)
(0.85244667 0.0070571265 0)
(0.84539242 0.0062752379 0)
(0.83905793 0.0056438286 0)
(0.83334127 0.0051180915 0)
(0.82815884 0.0046686728 0)
(0.82344213 0.0042764175 0)
(0.81913467 0.0039287383 0)
(0.81518962 0.0036172024 0)
(0.81156765 0.0033359687 0)
(0.80823544 0.0030808023 0)
(0.8051644 0.0028484673 0)
(0.80232979 0.0026363682 0)
(0.79971 0.002442338 0)
(0.79728598 0.0022645189 0)
(0.79504087 0.0021012905 0)
(0.79295963 0.0019512261 0)
(0.79102881 0.0018130636 0)
(0.78923628 0.0016856835 0)
(0.78757111 0.0015680916 0)
(0.78602339 0.0014594041 0)
(0.78458412 0.0013588338 0)
(0.78324512 0.0012656787 0)
(0.78199889 0.0011793106 0)
(0.78083861 0.001099167 0)
(0.77975799 0.001024742 0)
(0.77875128 0.00095557996 0)
(0.77781318 0.0008912695 0)
(0.77693882 0.00083143767 0)
(0.77612368 0.00077574642 0)
(0.77536363 0.00072388759 0)
(0.77465481 0.00067558024 0)
(0.77399368 0.00063056702 0)
(0.77337694 0.00058861106 0)
(0.77280154 0.00054949494 0)
(0.77226465 0.00051301758 0)
(0.77176364 0.00047899323 0)
(0.77129607 0.00044725076 0)
(0.77085967 0.00041763126 0)
(0.77045234 0.00038998935 0)
(0.77007212 0.00036418991 0)
(0.76971717 0.00034010946 0)
(0.76938581 0.00031763255 0)
(0.76907644 0.00029665116 0)
(0.7687876 0.00027706452 0)
(0.76851791 0.00025877782 0)
(0.7682661 0.00024170236 0)
(0.76803096 0.00022575576 0)
(0.76781139 0.00021086135 0)
(0.76760635 0.00019694919 0)
(0.76741488 0.00018395492 0)
(0.76723608 0.00017181919 0)
(0.7670691 0.00016048785 0)
(0.76691315 0.00014990806 0)
(0.76676752 0.00014003064 0)
(0.7666315 0.00013080683 0)
(0.76650447 0.00012219101 0)
(0.76638582 0.00011413979 0)
(0.76627501 0.00010661548 0)
(0.76617152 9.9582153e-05 0)
(0.76607485 9.3012189e-05 0)
(0.76598458 8.6874627e-05 0)
(0.76590026 8.114862e-05 0)
(0.76582151 7.580258e-05 0)
(0.76574794 7.081776e-05 0)
(0.76567924 6.6157706e-05 0)
(0.76561504 6.1808963e-05 0)
(0.76555512 5.7732649e-05 0)
(0.7654991 5.3930386e-05 0)
(0.76544684 5.0355212e-05 0)
(0.76539796 4.7038049e-05 0)
(0.76535239 4.3921152e-05 0)
(0.7653097 4.1053474e-05 0)
(0.76526997 3.8323307e-05 0)
(0.76523272 3.5844642e-05 0)
(0.76519804 3.3463748e-05 0)
(0.76516555 3.1331981e-05 0)
(0.76513516 2.9189504e-05 0)
(0.76510713 2.7364071e-05 0)
(0.76507997 2.5517158e-05 0)
(0.76505663 2.407135e-05 0)
(0.76503057 2.2555019e-05 0)
(0.76501445 2.159705e-05 0)
(0.76498346 2.0993302e-05 0)
(1.0014244 0.026824854 0)
(1.0291272 0.06279135 0)
(1.0654292 0.077736549 0)
(1.098962 0.080597196 0)
(1.1253149 0.078285167 0)
(1.145053 0.073153897 0)
(1.1594858 0.066111277 0)
(1.1694287 0.058162063 0)
(1.1755354 0.050296754 0)
(1.1785738 0.043150707 0)
(1.1793571 0.036972824 0)
(1.178595 0.031771631 0)
(1.1768304 0.027451838 0)
(1.1744518 0.023886766 0)
(1.1717287 0.020947618 0)
(1.1688444 0.018515779 0)
(1.1659195 0.016488084 0)
(1.1630317 0.014779502 0)
(1.1602295 0.013322985 0)
(1.1575415 0.012067132 0)
(1.1549828 0.010973 0)
(1.1525601 0.010011061 0)
(1.1502747 0.0091587462 0)
(1.1481246 0.0083986032 0)
(1.1461059 0.0077169491 0)
(1.1442134 0.0071028865 0)
(1.1424414 0.0065475903 0)
(1.1407838 0.0060437941 0)
(1.1392344 0.0055854252 0)
(1.1377869 0.0051673441 0)
(1.1364353 0.0047851568 0)
(1.1351738 0.0044350763 0)
(1.1339968 0.0041138169 0)
(1.1328987 0.0038185128 0)
(1.1318746 0.0035466524 0)
(1.1309195 0.0032960259 0)
(1.1300289 0.0030646815 0)
(1.1291985 0.0028508889 0)
(1.1284242 0.0026531089 0)
(1.1277022 0.0024699677 0)
(1.1270291 0.0023002354 0)
(1.1264014 0.0021428073 0)
(1.1258161 0.0019966887 0)
(1.1252702 0.0018609811 0)
(1.1247612 0.0017348711 0)
(1.1242865 0.0016176202 0)
(1.1238437 0.0015085564 0)
(1.1234307 0.0014070667 0)
(1.1230455 0.0013125902 0)
(1.1226861 0.0012246132 0)
(1.1223509 0.0011426637 0)
(1.1220381 0.0010663079 0)
(1.1217462 0.00099514601 0)
(1.1214739 0.00092880956 0)
(1.1212198 0.00086695876 0)
(1.1209827 0.0008092802 0)
(1.1207614 0.00075548473 0)
(1.1205548 0.0007053049 0)
(1.1203621 0.00065849237 0)
(1.1201821 0.00061481621 0)
(1.1200142 0.00057406198 0)
(1.1198574 0.00053602966 0)
(1.1197111 0.00050053337 0)
(1.1195745 0.00046740023 0)
(1.1194469 0.00043647047 0)
(1.1193278 0.00040759569 0)
(1.1192167 0.00038063895 0)
(1.1191129 0.0003554729 0)
(1.119016 0.00033197926 0)
(1.1189255 0.00031004604 0)
(1.118841 0.0002895693 0)
(1.1187621 0.00027044886 0)
(1.1186884 0.00025259387 0)
(1.1186197 0.00023591661 0)
(1.1185554 0.00022034108 0)
(1.1184954 0.00020579153 0)
(1.1184394 0.00019220613 0)
(1.1183871 0.00017951724 0)
(1.1183382 0.0001676757 0)
(1.1182926 0.000156614 0)
(1.11825 0.00014629405 0)
(1.1182103 0.00013664295 0)
(1.118173 0.00012764277 0)
(1.1181384 0.00011921026 0)
(1.1181059 0.00011135865 0)
(1.1180757 0.00010398411 0)
(1.1180473 9.7152803e-05 0)
(1.1180211 9.0704378e-05 0)
(1.1179962 8.4785848e-05 0)
(1.1179734 7.9128962e-05 0)
(1.1179516 7.4028619e-05 0)
(1.1179318 6.9017179e-05 0)
(1.1179128 6.4660672e-05 0)
(1.1178955 6.0140899e-05 0)
(1.117879 5.6561855e-05 0)
(1.1178635 5.2424781e-05 0)
(1.11785 4.9742916e-05 0)
(1.1178349 4.5807512e-05 0)
(1.1178261 4.4320504e-05 0)
(1.1178083 4.0575258e-05 0)
(1.0007347 0.011814721 0)
(1.0178472 0.030860924 0)
(1.0462163 0.041434438 0)
(1.0799018 0.045193566 0)
(1.1132664 0.045502348 0)
(1.143782 0.044080305 0)
(1.1708941 0.04143998 0)
(1.1945687 0.037973676 0)
(1.2148582 0.034195728 0)
(1.2319652 0.030536886 0)
(1.2462683 0.027222043 0)
(1.2582339 0.024313918 0)
(1.2683135 0.021797886 0)
(1.2768875 0.019633657 0)
(1.2842554 0.017773824 0)
(1.2906479 0.01616965 0)
(1.296243 0.014775589 0)
(1.3011791 0.013552297 0)
(1.3055645 0.012467863 0)
(1.3094838 0.011497465 0)
(1.3130042 0.01062216 0)
(1.3161792 0.0098275118 0)
(1.3190526 0.0091024095 0)
(1.3216607 0.0084381752 0)
(1.3240343 0.0078279023 0)
(1.3261995 0.007265973 0)
(1.3281786 0.0067477076 0)
(1.3299913 0.006269116 0)
(1.3316544 0.0058267269 0)
(1.3331829 0.0054174727 0)
(1.3345896 0.0050386115 0)
(1.3358862 0.0046876729 0)
(1.3370827 0.0043624186 0)
(1.3381883 0.0040608137 0)
(1.3392108 0.0037810032 0)
(1.3401576 0.0035212938 0)
(1.3410349 0.0032801372 0)
(1.3418486 0.0030561163 0)
(1.3426038 0.002847933 0)
(1.3433051 0.002654397 0)
(1.3439569 0.0024744158 0)
(1.3445629 0.0023069862 0)
(1.3451267 0.0021511859 0)
(1.3456513 0.0020061666 0)
(1.3461398 0.0018711471 0)
(1.3465947 0.0017454082 0)
(1.3470185 0.001628286 0)
(1.3474135 0.0015191675 0)
(1.3477816 0.0014174864 0)
(1.3481249 0.0013227186 0)
(1.3484449 0.0012343795 0)
(1.3487435 0.0011520199 0)
(1.349022 0.0010752237 0)
(1.3492818 0.0010036055 0)
(1.3495242 0.00093680815 0)
(1.3497505 0.00087450083 0)
(1.3499616 0.00081637625 0)
(1.3501587 0.00076214902 0)
(1.3503427 0.00071155328 0)
(1.3505145 0.00066434164 0)
(1.3506748 0.00062028412 0)
(1.3508245 0.00057916644 0)
(1.3509643 0.00054078963 0)
(1.3510948 0.00050496824 0)
(1.3512167 0.00047153072 0)
(1.3513305 0.00044031731 0)
(1.3514368 0.00041117979 0)
(1.3515361 0.00038397913 0)
(1.3516288 0.00035858663 0)
(1.3517153 0.00033488012 0)
(1.3517962 0.00031274664 0)
(1.3518717 0.00029207846 0)
(1.3519422 0.00027277903 0)
(1.3520081 0.00025475461 0)
(1.3520696 0.00023792506 0)
(1.3521271 0.00022220766 0)
(1.3521808 0.00020753566 0)
(1.3522309 0.00019383165 0)
(1.3522777 0.00018104288 0)
(1.3523215 0.00016909218 0)
(1.3523623 0.00015794193 0)
(1.3524005 0.00014750945 0)
(1.352436 0.00013778671 0)
(1.3524695 0.00012867314 0)
(1.3525004 0.0001202022 0)
(1.3525296 0.00011223836 0)
(1.3525564 0.00010488195 0)
(1.3525823 9.7900524e-05 0)
(1.3526054 9.153263e-05 0)
(1.3526281 8.5398866e-05 0)
(1.3526479 7.9933079e-05 0)
(1.3526684 7.4429983e-05 0)
(1.352685 6.9802662e-05 0)
(1.3527036 6.4827017e-05 0)
(1.3527169 6.1121517e-05 0)
(1.3527349 5.6441713e-05 0)
(1.3527447 5.3738229e-05 0)
(1.3527628 4.9138912e-05 0)
(1.3527683 4.7704596e-05 0)
(1.3527888 4.2958806e-05 0)
(1.0005903 0.0034629152 0)
(1.0136865 0.009366018 0)
(1.0370283 0.013046804 0)
(1.0674202 0.014563259 0)
(1.1000315 0.014854523 0)
(1.1316428 0.014564989 0)
(1.1610745 0.013888337 0)
(1.1880674 0.012919244 0)
(1.2125205 0.011806505 0)
(1.2343939 0.010696425 0)
(1.2538077 0.0096727405 0)
(1.2710339 0.0087628202 0)
(1.286401 0.0079659717 0)
(1.3002111 0.0072722127 0)
(1.3127102 0.006668807 0)
(1.3240903 0.006141924 0)
(1.3345036 0.0056780711 0)
(1.3440716 0.0052653202 0)
(1.3528927 0.0048939344 0)
(1.3610463 0.0045563948 0)
(1.3685975 0.0042470684 0)
(1.3756004 0.0039617742 0)
(1.3821012 0.0036973961 0)
(1.3881402 0.0034515812 0)
(1.3937533 0.0032225173 0)
(1.3989728 0.0030087686 0)
(1.403828 0.0028091568 0)
(1.4083456 0.0026226783 0)
(1.4125503 0.0024484489 0)
(1.4164646 0.0022856699 0)
(1.4201094 0.0021336064 0)
(1.423504 0.0019915749 0)
(1.426666 0.001858935 0)
(1.4296121 0.0017350847 0)
(1.4323573 0.0016194577 0)
(1.4349159 0.0015115207 0)
(1.4373007 0.0014107723 0)
(1.4395241 0.0013167413 0)
(1.441597 0.0012289855 0)
(1.4435301 0.00114709 0)
(1.4453328 0.0010706661 0)
(1.4470143 0.00099934971 0)
(1.4485827 0.0009328003 0)
(1.4500459 0.00087069943 0)
(1.451411 0.0008127498 0)
(1.4526846 0.00075867385 0)
(1.4538731 0.00070821234 0)
(1.4549822 0.00066112297 0)
(1.4560172 0.00061717962 0)
(1.4569831 0.00057617128 0)
(1.4578847 0.00053790048 0)
(1.4587262 0.00050218327 0)
(1.4595117 0.00046884792 0)
(1.460245 0.0004377348 0)
(1.4609295 0.00040869538 0)
(1.4615685 0.00038159127 0)
(1.4621651 0.0003562931 0)
(1.4627221 0.00033267961 0)
(1.4632422 0.00031063781 0)
(1.4637278 0.00029006202 0)
(1.4641811 0.00027085345 0)
(1.4646045 0.00025292076 0)
(1.4649998 0.00023617872 0)
(1.4653689 0.00022054802 0)
(1.4657136 0.0002059549 0)
(1.4660355 0.00019233087 0)
(1.4663361 0.00017961194 0)
(1.4666168 0.00016773733 0)
(1.466879 0.0001566508 0)
(1.4671238 0.00014629896 0)
(1.4673524 0.00013663208 0)
(1.4675659 0.00012760323 0)
(1.4677654 0.00011917108 0)
(1.4679517 0.00011129559 0)
(1.4681255 0.00010394269 0)
(1.468288 9.7077094e-05 0)
(1.4684398 9.0670151e-05 0)
(1.4685816 8.4685795e-05 0)
(1.4687138 7.9100806e-05 0)
(1.4688374 7.387954e-05 0)
(1.468953 6.9006965e-05 0)
(1.4690609 6.4444905e-05 0)
(1.4691613 6.0194664e-05 0)
(1.4692557 5.6209478e-05 0)
(1.4693434 5.251314e-05 0)
(1.4694257 4.9034121e-05 0)
(1.4695017 4.5824177e-05 0)
(1.4695742 4.2769614e-05 0)
(1.4696403 4.0002189e-05 0)
(1.4697038 3.7311717e-05 0)
(1.4697605 3.4923089e-05 0)
(1.4698172 3.2495617e-05 0)
(1.4698655 3.0499421e-05 0)
(1.4699166 2.830425e-05 0)
(1.4699559 2.6720986e-05 0)
(1.4700045 2.4640294e-05 0)
(1.4700341 2.3490793e-05 0)
(1.4700831 2.1415775e-05 0)
(1.4701 2.0809285e-05 0)
(1.4701556 1.8651459e-05 0)
(1.0005903 -0.0034629162 0)
(1.0136865 -0.0093660206 0)
(1.0370283 -0.013046807 0)
(1.0674202 -0.014563262 0)
(1.1000315 -0.014854525 0)
(1.1316428 -0.014564991 0)
(1.1610745 -0.013888338 0)
(1.1880674 -0.012919246 0)
(1.2125205 -0.011806507 0)
(1.2343939 -0.010696428 0)
(1.2538077 -0.0096727436 0)
(1.2710339 -0.0087628233 0)
(1.286401 -0.0079659746 0)
(1.3002111 -0.0072722154 0)
(1.3127102 -0.0066688092 0)
(1.3240903 -0.0061419261 0)
(1.3345036 -0.0056780731 0)
(1.3440716 -0.0052653217 0)
(1.3528927 -0.0048939356 0)
(1.3610463 -0.0045563964 0)
(1.3685975 -0.0042470707 0)
(1.3756004 -0.0039617769 0)
(1.3821012 -0.0036973985 0)
(1.3881402 -0.0034515834 0)
(1.3937533 -0.0032225196 0)
(1.3989728 -0.003008771 0)
(1.403828 -0.002809159 0)
(1.4083456 -0.0026226799 0)
(1.4125503 -0.00244845 0)
(1.4164646 -0.0022856709 0)
(1.4201094 -0.0021336077 0)
(1.423504 -0.0019915767 0)
(1.426666 -0.001858937 0)
(1.4296121 -0.0017350868 0)
(1.4323573 -0.0016194596 0)
(1.4349158 -0.0015115225 0)
(1.4373007 -0.0014107741 0)
(1.439524 -0.0013167432 0)
(1.441597 -0.0012289871 0)
(1.4435301 -0.001147091 0)
(1.4453328 -0.0010706664 0)
(1.4470143 -0.00099934968 0)
(1.4485827 -0.00093280029 0)
(1.4500459 -0.00087070009 0)
(1.451411 -0.00081275156 0)
(1.4526846 -0.0007586766 0)
(1.4538731 -0.00070821549 0)
(1.4549821 -0.00066112589 0)
(1.4560171 -0.00061718155 0)
(1.4569831 -0.00057617155 0)
(1.4578847 -0.00053789944 0)
(1.4587262 -0.00050218184 0)
(1.4595117 -0.00046884734 0)
(1.460245 -0.00043773578 0)
(1.4609295 -0.00040869757 0)
(1.4615685 -0.00038159352 0)
(1.4621651 -0.00035629405 0)
(1.4627221 -0.0003326787 0)
(1.4632422 -0.00031063478 0)
(1.4637278 -0.00029005737 0)
(1.4641811 -0.00027084877 0)
(1.4646045 -0.00025291746 0)
(1.4649998 -0.00023617763 0)
(1.4653689 -0.00022054926 0)
(1.4657136 -0.00020595806 0)
(1.4660355 -0.00019233433 0)
(1.4663361 -0.00017961353 0)
(1.4666168 -0.00016773595 0)
(1.466879 -0.00015664613 0)
(1.4671238 -0.00014629161 0)
(1.4673524 -0.00013662452 0)
(1.4675659 -0.0001275984 0)
(1.4677654 -0.00011917099 0)
(1.4679517 -0.0001113004 0)
(1.4681255 -0.00010395076 0)
(1.468288 -9.7084262e-05 0)
(1.4684398 -9.0672088e-05 0)
(1.4685816 -8.4681775e-05 0)
(1.4687138 -7.9092343e-05 0)
(1.4688374 -7.3869374e-05 0)
(1.468953 -6.8999442e-05 0)
(1.4690609 -6.4444148e-05 0)
(1.4691613 -6.0201e-05 0)
(1.4692557 -5.6218646e-05 0)
(1.4693434 -5.2518133e-05 0)
(1.4694257 -4.9035983e-05 0)
(1.4695017 -4.5825105e-05 0)
(1.4695742 -4.2762851e-05 0)
(1.4696403 -3.9981965e-05 0)
(1.4697038 -3.7297789e-05 0)
(1.4697604 -3.4933949e-05 0)
(1.4698172 -3.251379e-05 0)
(1.4698655 -3.050834e-05 0)
(1.4699166 -2.8304245e-05 0)
(1.4699559 -2.6711225e-05 0)
(1.4700046 -2.462533e-05 0)
(1.4700342 -2.3489729e-05 0)
(1.4700831 -2.1432819e-05 0)
(1.4701 -2.0824476e-05 0)
(1.4701556 -1.8661161e-05 0)
(1.0007347 -0.011814722 0)
(1.0178472 -0.030860927 0)
(1.0462163 -0.041434442 0)
(1.0799018 -0.04519357 0)
(1.1132664 -0.045502351 0)
(1.143782 -0.044080308 0)
(1.1708941 -0.041439982 0)
(1.1945687 -0.037973678 0)
(1.2148582 -0.03419573 0)
(1.2319652 -0.030536888 0)
(1.2462683 -0.027222046 0)
(1.2582339 -0.024313921 0)
(1.2683135 -0.021797888 0)
(1.2768875 -0.01963366 0)
(1.2842554 -0.017773826 0)
(1.2906479 -0.016169652 0)
(1.296243 -0.01477559 0)
(1.3011791 -0.013552298 0)
(1.3055645 -0.012467864 0)
(1.3094838 -0.011497466 0)
(1.3130042 -0.010622162 0)
(1.3161792 -0.0098275136 0)
(1.3190526 -0.0091024113 0)
(1.3216607 -0.008438177 0)
(1.3240343 -0.0078279043 0)
(1.3261995 -0.0072659751 0)
(1.3281786 -0.0067477093 0)
(1.3299913 -0.0062691172 0)
(1.3316544 -0.0058267277 0)
(1.3331829 -0.0054174735 0)
(1.3345896 -0.0050386126 0)
(1.3358862 -0.0046876741 0)
(1.3370827 -0.0043624199 0)
(1.3381882 -0.0040608151 0)
(1.3392108 -0.0037810048 0)
(1.3401576 -0.0035212956 0)
(1.3410349 -0.0032801392 0)
(1.3418486 -0.0030561182 0)
(1.3426038 -0.0028479344 0)
(1.3433051 -0.0026543976 0)
(1.3439569 -0.0024744157 0)
(1.3445629 -0.0023069857 0)
(1.3451267 -0.0021511857 0)
(1.3456513 -0.0020061672 0)
(1.3461398 -0.0018711489 0)
(1.3465947 -0.0017454109 0)
(1.3470185 -0.001628289 0)
(1.3474135 -0.0015191701 0)
(1.3477816 -0.0014174878 0)
(1.3481249 -0.0013227188 0)
(1.3484449 -0.0012343786 0)
(1.3487435 -0.0011520186 0)
(1.349022 -0.0010752228 0)
(1.3492818 -0.0010036055 0)
(1.3495242 -0.00093680895 0)
(1.3497505 -0.0008745019 0)
(1.3499616 -0.0008163771 0)
(1.3501587 -0.00076214887 0)
(1.3503427 -0.0007115518 0)
(1.3505145 -0.00066433899 0)
(1.3506748 -0.00062028088 0)
(1.3508245 -0.00057916351 0)
(1.3509643 -0.00054078782 0)
(1.3510948 -0.00050496823 0)
(1.3512167 -0.00047153231 0)
(1.3513305 -0.00044031953 0)
(1.3514368 -0.00041118139 0)
(1.3515361 -0.00038397908 0)
(1.3516288 -0.0003585844 0)
(1.3517153 -0.000334876 0)
(1.3517962 -0.00031274205 0)
(1.3518717 -0.00029207527 0)
(1.3519422 -0.0002727785 0)
(1.3520081 -0.00025475723 0)
(1.3520696 -0.00023792941 0)
(1.3521271 -0.00022221152 0)
(1.3521808 -0.0002075373 0)
(1.3522309 -0.00019383052 0)
(1.3522777 -0.00018103927 0)
(1.3523215 -0.00016908688 0)
(1.3523623 -0.00015793745 0)
(1.3524005 -0.00014750827 0)
(1.352436 -0.00013778863 0)
(1.3524695 -0.00012867592 0)
(1.3525004 -0.00012020651 0)
(1.3525296 -0.00011224337 0)
(1.3525564 -0.00010488269 0)
(1.3525823 -9.789397e-05 0)
(1.3526054 -9.1526917e-05 0)
(1.3526281 -8.5397769e-05 0)
(1.3526479 -7.9930593e-05 0)
(1.3526684 -7.442735e-05 0)
(1.352685 -6.9805511e-05 0)
(1.3527037 -6.4832414e-05 0)
(1.352717 -6.1122412e-05 0)
(1.3527349 -5.6441903e-05 0)
(1.3527447 -5.3744895e-05 0)
(1.3527628 -4.9145786e-05 0)
(1.3527683 -4.7705265e-05 0)
(1.3527888 -4.2959291e-05 0)
(1.0014244 -0.026824855 0)
(1.0291272 -0.062791352 0)
(1.0654292 -0.077736552 0)
(1.098962 -0.0805972 0)
(1.1253149 -0.07828517 0)
(1.145053 -0.073153899 0)
(1.1594858 -0.066111278 0)
(1.1694287 -0.058162063 0)
(1.1755354 -0.050296754 0)
(1.1785738 -0.043150708 0)
(1.1793571 -0.036972825 0)
(1.1785949 -0.031771633 0)
(1.1768304 -0.02745184 0)
(1.1744518 -0.023886768 0)
(1.1717287 -0.02094762 0)
(1.1688444 -0.01851578 0)
(1.1659195 -0.016488084 0)
(1.1630317 -0.014779502 0)
(1.1602295 -0.013322985 0)
(1.1575415 -0.012067133 0)
(1.1549828 -0.010973001 0)
(1.1525601 -0.010011062 0)
(1.1502747 -0.0091587472 0)
(1.1481246 -0.0083986045 0)
(1.1461059 -0.0077169506 0)
(1.1442134 -0.0071028881 0)
(1.1424414 -0.0065475916 0)
(1.1407838 -0.006043795 0)
(1.1392344 -0.0055854258 0)
(1.1377869 -0.0051673447 0)
(1.1364353 -0.0047851573 0)
(1.1351738 -0.0044350767 0)
(1.1339968 -0.0041138175 0)
(1.1328987 -0.0038185135 0)
(1.1318746 -0.0035466535 0)
(1.1309195 -0.0032960275 0)
(1.1300289 -0.0030646833 0)
(1.1291985 -0.0028508905 0)
(1.1284242 -0.0026531099 0)
(1.1277022 -0.0024699681 0)
(1.1270291 -0.0023002351 0)
(1.1264014 -0.0021428067 0)
(1.1258161 -0.0019966884 0)
(1.1252702 -0.0018609815 0)
(1.1247612 -0.0017348724 0)
(1.1242865 -0.0016176222 0)
(1.1238437 -0.0015085586 0)
(1.1234307 -0.0014070684 0)
(1.1230455 -0.0013125912 0)
(1.1226861 -0.0012246135 0)
(1.1223509 -0.0011426633 0)
(1.1220381 -0.0010663069 0)
(1.1217462 -0.0009951447 0)
(1.1214739 -0.00092880821 0)
(1.1212198 -0.00086695779 0)
(1.1209827 -0.00080928015 0)
(1.1207614 -0.00075548577 0)
(1.1205548 -0.00070530622 0)
(1.1203621 -0.00065849316 0)
(1.1201821 -0.0006148162 0)
(1.1200142 -0.00057406076 0)
(1.1198574 -0.00053602733 0)
(1.1197111 -0.00050053072 0)
(1.1195745 -0.00046739832 0)
(1.1194469 -0.00043646966 0)
(1.1193278 -0.00040759605 0)
(1.1192167 -0.00038064043 0)
(1.1191129 -0.00035547471 0)
(1.119016 -0.00033198062 0)
(1.1189255 -0.00031004663 0)
(1.118841 -0.00028956855 0)
(1.1187621 -0.00027044697 0)
(1.1186884 -0.00025259151 0)
(1.1186197 -0.0002359146 0)
(1.1185554 -0.00022034005 0)
(1.1184954 -0.000205792 0)
(1.1184394 -0.00019220869 0)
(1.1183871 -0.000179521 0)
(1.1183383 -0.00016767904 0)
(1.1182927 -0.00015661519 0)
(1.11825 -0.0001462924 0)
(1.1182103 -0.00013663928 0)
(1.118173 -0.00012763793 0)
(1.1181384 -0.00011920597 0)
(1.1181059 -0.00011135956 0)
(1.1180757 -0.00010398947 0)
(1.1180473 -9.7156087e-05 0)
(1.1180211 -9.070485e-05 0)
(1.1179963 -8.4791795e-05 0)
(1.1179734 -7.9137844e-05 0)
(1.1179516 -7.401949e-05 0)
(1.1179318 -6.8989896e-05 0)
(1.1179128 -6.4648385e-05 0)
(1.1178955 -6.0158286e-05 0)
(1.117879 -5.6584154e-05 0)
(1.1178635 -5.2431399e-05 0)
(1.11785 -4.9738127e-05 0)
(1.1178349 -4.5800984e-05 0)
(1.1178261 -4.4313207e-05 0)
(1.1178083 -4.0569608e-05 0)
(1.0016583 -0.05381943 0)
(1.0359761 -0.10128444 0)
(1.0597199 -0.11073663 0)
(1.0628947 -0.10592202 0)
(1.0515569 -0.096228728 0)
(1.0340529 -0.083934061 0)
(1.0142795 -0.070327063 0)
(0.99360703 -0.056981334 0)
(0.97292577 -0.045107479 0)
(0.9531074 -0.03523675 0)
(0.93479538 -0.02740165 0)
(0.91829012 -0.021387228 0)
(0.90362379 -0.0168845 0)
(0.89068067 -0.01356971 0)
(0.87928174 -0.011147749 0)
(0.86923242 -0.0093736586 0)
(0.86034423 -0.0080569274 0)
(0.85244667 -0.0070571267 0)
(0.84539241 -0.006275238 0)
(0.83905793 -0.0056438286 0)
(0.83334126 -0.0051180914 0)
(0.82815884 -0.0046686728 0)
(0.82344212 -0.0042764176 0)
(0.81913467 -0.0039287387 0)
(0.81518961 -0.0036172032 0)
(0.81156765 -0.0033359698 0)
(0.80823544 -0.0030808033 0)
(0.8051644 -0.0028484682 0)
(0.80232979 -0.0026363689 0)
(0.79970999 -0.0024423385 0)
(0.79728597 -0.0022645191 0)
(0.79504086 -0.0021012904 0)
(0.79295963 -0.0019512259 0)
(0.7910288 -0.0018130634 0)
(0.78923627 -0.0016856837 0)
(0.7875711 -0.0015680924 0)
(0.78602338 -0.0014594055 0)
(0.78458411 -0.0013588354 0)
(0.78324511 -0.00126568 0)
(0.78199889 -0.0011793116 0)
(0.7808386 -0.0010991672 0)
(0.77975799 -0.0010247416 0)
(0.77875127 -0.00095557923 0)
(0.77781317 -0.00089126875 0)
(0.77693881 -0.0008314374 0)
(0.77612367 -0.00077574675 0)
(0.77536362 -0.00072388854 0)
(0.77465481 -0.00067558156 0)
(0.77399367 -0.00063056842 0)
(0.77337693 -0.00058861246 0)
(0.77280153 -0.00054949567 0)
(0.77226464 -0.0005130172 0)
(0.77176363 -0.00047899175 0)
(0.77129606 -0.00044724819 0)
(0.77085967 -0.00041762877 0)
(0.77045234 -0.00038998791 0)
(0.77007211 -0.00036419058 0)
(0.76971717 -0.00034011169 0)
(0.76938581 -0.00031763543 0)
(0.76907644 -0.00029665378 0)
(0.7687876 -0.00027706568 0)
(0.76851791 -0.00025877682 0)
(0.76826609 -0.00024169959 0)
(0.76803096 -0.00022575192 0)
(0.76781139 -0.00021085782 0)
(0.76760635 -0.00019694719 0)
(0.76741489 -0.00018395549 0)
(0.76723608 -0.00017182258 0)
(0.7670691 -0.00016049282 0)
(0.76691316 -0.00014991306 0)
(0.76676752 -0.00014003345 0)
(0.7666315 -0.00013080589 0)
(0.76650446 -0.00012218667 0)
(0.76638582 -0.00011413341 0)
(0.76627501 -0.00010660975 0)
(0.76617152 -9.9579906e-05 0)
(0.76607486 -9.3014779e-05 0)
(0.76598459 -8.6881922e-05 0)
(0.76590026 -8.1157574e-05 0)
(0.76582151 -7.580926e-05 0)
(0.76574794 -7.0819059e-05 0)
(0.76567924 -6.6152804e-05 0)
(0.76561504 -6.1799842e-05 0)
(0.76555512 -5.7722352e-05 0)
(0.76549911 -5.3925596e-05 0)
(0.76544685 -5.0358108e-05 0)
(0.76539796 -4.7043908e-05 0)
(0.7653524 -4.3930016e-05 0)
(0.76530971 -4.1069266e-05 0)
(0.76526996 -3.833269e-05 0)
(0.7652327 -3.582858e-05 0)
(0.76519805 -3.3433349e-05 0)
(0.76516559 -3.1318665e-05 0)
(0.76513516 -2.9204121e-05 0)
(0.7651071 -2.738584e-05 0)
(0.76507997 -2.5524423e-05 0)
(0.76505664 -2.4063775e-05 0)
(0.76503057 -2.2544962e-05 0)
(0.76501445 -2.1587612e-05 0)
(0.76498347 -2.0984987e-05 0)
(0.91890839 -0.035821913 0)
(0.86271384 -0.062195638 0)
(0.7870597 -0.06251009 0)
(0.69536033 -0.054550395 0)
(0.61089745 -0.044531651 0)
(0.54411592 -0.034015972 0)
(0.49343012 -0.02418754 0)
(0.45479413 -0.01614423 0)
(0.42544582 -0.010265785 0)
(0.40347313 -0.006304145 0)
(0.38715766 -0.0037976294 0)
(0.3749622 -0.0023103384 0)
(0.36566192 -0.0014930154 0)
(0.35836272 -0.0010851186 0)
(0.35244268 -0.0009060723 0)
(0.34748201 -0.00084105135 0)
(0.34320348 -0.00082372362 0)
(0.33942726 -0.00081931007 0)
(0.33603793 -0.00081185199 0)
(0.33296114 -0.00079580153 0)
(0.33014778 -0.00077081194 0)
(0.32756384 -0.00073870994 0)
(0.3251842 -0.00070188955 0)
(0.32298902 -0.00066256563 0)
(0.32096172 -0.00062249931 0)
(0.31908785 -0.00058295704 0)
(0.31735449 -0.00054477116 0)
(0.31574995 -0.00050843392 0)
(0.3142636 -0.00047419168 0)
(0.31288574 -0.00044212494 0)
(0.31160755 -0.0004122099 0)
(0.31042101 -0.00038436204 0)
(0.30931883 -0.00035846518 0)
(0.30829438 -0.00033439022 0)
(0.30734165 -0.00031200633 0)
(0.30645515 -0.00029118713 0)
(0.30562991 -0.00027181379 0)
(0.30486136 -0.00025377647 0)
(0.30414535 -0.00023697438 0)
(0.30347807 -0.00022131524 0)
(0.302856 -0.00020671481 0)
(0.30227596 -0.0001930962 0)
(0.30173496 -0.00018038906 0)
(0.30123029 -0.00016852894 0)
(0.30075942 -0.00015745675 0)
(0.30032002 -0.00014711814 0)
(0.29990993 -0.00013746301 0)
(0.29952715 -0.00012844518 0)
(0.29916983 -0.00012002175 0)
(0.29883624 -0.00011215263 0)
(0.29852478 -0.0001048005 0)
(0.29823396 -9.7930702e-05 0)
(0.29796241 -9.1511038e-05 0)
(0.29770882 -8.5511613e-05 0)
(0.29747201 -7.9904852e-05 0)
(0.29725084 -7.4665171e-05 0)
(0.29704429 -6.976858e-05 0)
(0.29685138 -6.5192821e-05 0)
(0.2966712 -6.0917179e-05 0)
(0.29650291 -5.6921938e-05 0)
(0.29634572 -5.3188425e-05 0)
(0.2961989 -4.9699231e-05 0)
(0.29606176 -4.6438105e-05 0)
(0.29593366 -4.3389759e-05 0)
(0.29581401 -4.0540314e-05 0)
(0.29570224 -3.7877184e-05 0)
(0.29559784 -3.5388642e-05 0)
(0.29550032 -3.3063712e-05 0)
(0.29540922 -3.0892067e-05 0)
(0.29532413 -2.8863467e-05 0)
(0.29524464 -2.696823e-05 0)
(0.29517039 -2.5197011e-05 0)
(0.29510103 -2.3541359e-05 0)
(0.29503624 -2.1993205e-05 0)
(0.29497573 -2.0546074e-05 0)
(0.29491919 -1.919352e-05 0)
(0.29486638 -1.7930367e-05 0)
(0.29481705 -1.6750438e-05 0)
(0.29477097 -1.5649381e-05 0)
(0.29472793 -1.4620438e-05 0)
(0.29468771 -1.3660396e-05 0)
(0.29465016 -1.2762075e-05 0)
(0.29461507 -1.1923777e-05 0)
(0.2945823 -1.1137519e-05 0)
(0.29455168 -1.0405461e-05 0)
(0.29452309 -9.7161629e-06 0)
(0.29449637 -9.0770659e-06 0)
(0.29447142 -8.4789999e-06 0)
(0.29444808 -7.9300781e-06 0)
(0.29442632 -7.3961153e-06 0)
(0.29440599 -6.9097806e-06 0)
(0.294387 -6.4602872e-06 0)
(0.2943692 -6.0628295e-06 0)
(0.29435259 -5.6565893e-06 0)
(0.29433715 -5.2937182e-06 0)
(0.2943225 -4.9716043e-06 0)
(0.29430919 -4.6856322e-06 0)
(0.29429569 -4.5322654e-06 0)
(0.29428502 -4.4001563e-06 0)
(0.29426875 -5.0536323e-06 0)
)
;

boundaryField
{
    top
    {
        type            fixedValue;
        value           uniform (0 0 0);
    }
    inlet
    {
        type            fixedValue;
        value           uniform (1 0 0);
    }
    outlet
    {
        type            zeroGradient;
    }
    bottom
    {
        type            fixedValue;
        value           uniform (0 0 0);
    }
    back
    {
        type            empty;
    }
    front
    {
        type            empty;
    }
}


// ************************************************************************* //
