/*--------------------------------*- C++ -*----------------------------------*\
| =========                 |                                                 |
| \\      /  F ield         | OpenFOAM: The Open Source CFD Toolbox           |
|  \\    /   O peration     | Version:  2112                                  |
|   \\  /    A nd           | Website:  www.openfoam.com                      |
|    \\/     M anipulation  |                                                 |
\*---------------------------------------------------------------------------*/
FoamFile
{
    version     2.0;
    format      ascii;
    arch        "LSB;label=32;scalar=64";
    class       volScalarField;
    location    "95";
    object      T;
}
// * * * * * * * * * * * * * * * * * * * * * * * * * * * * * * * * * * * * * //

dimensions      [0 0 0 1 0 0 0];

internalField   nonuniform List<scalar> 
10000
(
1.45654
1.45654
1.45654
1.45654
1.45654
1.45654
1.45654
1.45654
1.45654
1.45654
1.36985
1.36985
1.36985
1.36985
1.36985
1.36985
1.36985
1.36985
1.36985
1.36985
1.28384
1.28384
1.28384
1.28384
1.28384
1.28384
1.28384
1.28384
1.28384
1.28384
1.19896
1.19896
1.19896
1.19896
1.19896
1.19896
1.19896
1.19896
1.19896
1.19896
1.11564
1.11564
1.11564
1.11564
1.11564
1.11564
1.11564
1.11564
1.11564
1.11564
1.03427
1.03427
1.03427
1.03427
1.03427
1.03427
1.03427
1.03427
1.03427
1.03427
0.955239
0.955239
0.955239
0.955239
0.955238
0.955238
0.955238
0.955238
0.955238
0.955238
0.878872
0.878872
0.878871
0.878871
0.878871
0.87887
0.87887
0.87887
0.87887
0.87887
0.80547
0.80547
0.80547
0.805469
0.805469
0.805468
0.805468
0.805468
0.805468
0.805468
0.73529
0.73529
0.735289
0.735289
0.735288
0.735288
0.735287
0.735287
0.735287
0.735287
0.668543
0.668543
0.668542
0.668541
0.66854
0.668539
0.668539
0.668538
0.668538
0.668538
0.605394
0.605393
0.605392
0.605391
0.60539
0.605389
0.605388
0.605387
0.605387
0.605386
0.545962
0.545962
0.54596
0.545959
0.545957
0.545955
0.545954
0.545953
0.545952
0.545951
0.490321
0.490321
0.490319
0.490317
0.490315
0.490312
0.49031
0.490308
0.490307
0.490306
0.438503
0.438502
0.4385
0.438497
0.438493
0.43849
0.438486
0.438484
0.438482
0.438481
0.390495
0.390494
0.39049
0.390486
0.390481
0.390476
0.390471
0.390467
0.390464
0.390463
0.346249
0.346247
0.346242
0.346236
0.346229
0.346221
0.346214
0.346208
0.346204
0.346202
0.305681
0.305678
0.305671
0.305663
0.305652
0.305641
0.305631
0.305622
0.305616
0.305612
0.268677
0.268673
0.268664
0.268651
0.268636
0.268621
0.268605
0.268592
0.268582
0.268577
0.235098
0.235092
0.235079
0.235061
0.23504
0.235017
0.234994
0.234975
0.23496
0.234952
0.204782
0.204773
0.204755
0.204729
0.204699
0.204665
0.204632
0.204604
0.204582
0.20457
0.17755
0.177538
0.177512
0.177476
0.177433
0.177384
0.177336
0.177294
0.177261
0.177244
0.153213
0.153196
0.15316
0.15311
0.153048
0.152979
0.152908
0.152845
0.152796
0.15277
0.131573
0.131548
0.1315
0.13143
0.131343
0.131243
0.13114
0.131046
0.130972
0.130931
0.112427
0.112394
0.112329
0.112233
0.112111
0.111969
0.111819
0.111676
0.111562
0.111498
0.0955749
0.0955314
0.0954445
0.0953155
0.0951475
0.0949474
0.0947284
0.0945129
0.0943334
0.0942286
0.0808189
0.080763
0.0806504
0.0804805
0.080254
0.0799754
0.0796579
0.0793295
0.0790402
0.0788618
0.0679683
0.0678988
0.0677572
0.0675399
0.0672424
0.066863
0.0664085
0.0659069
0.0654272
0.0651022
0.0568411
0.0567577
0.0565862
0.0563184
0.0559419
0.0554423
0.0548088
0.0540493
0.0532323
0.0525813
0.0472649
0.047169
0.0469702
0.0466552
0.0462015
0.0455769
0.0447367
0.0436284
0.0422275
0.0407476
1.45654
1.45654
1.45654
1.45654
1.45654
1.45654
1.45654
1.45654
1.45654
1.45654
1.36985
1.36985
1.36985
1.36985
1.36985
1.36985
1.36985
1.36985
1.36985
1.36985
1.28384
1.28384
1.28384
1.28384
1.28384
1.28384
1.28384
1.28384
1.28384
1.28384
1.19896
1.19896
1.19896
1.19896
1.19896
1.19896
1.19896
1.19896
1.19896
1.19896
1.11564
1.11564
1.11564
1.11564
1.11564
1.11564
1.11564
1.11564
1.11564
1.11564
1.03427
1.03427
1.03427
1.03427
1.03427
1.03427
1.03427
1.03427
1.03427
1.03427
0.955239
0.955239
0.955239
0.955239
0.955238
0.955238
0.955238
0.955238
0.955238
0.955238
0.878872
0.878872
0.878871
0.878871
0.878871
0.87887
0.87887
0.87887
0.87887
0.87887
0.80547
0.80547
0.80547
0.805469
0.805469
0.805468
0.805468
0.805468
0.805468
0.805468
0.73529
0.73529
0.735289
0.735289
0.735288
0.735288
0.735287
0.735287
0.735287
0.735287
0.668543
0.668543
0.668542
0.668541
0.66854
0.668539
0.668539
0.668538
0.668538
0.668538
0.605394
0.605393
0.605392
0.605391
0.60539
0.605389
0.605388
0.605387
0.605387
0.605387
0.545962
0.545962
0.54596
0.545959
0.545957
0.545955
0.545954
0.545953
0.545952
0.545952
0.490322
0.490321
0.490319
0.490317
0.490315
0.490312
0.49031
0.490308
0.490307
0.490306
0.438503
0.438502
0.438499
0.438496
0.438493
0.43849
0.438486
0.438484
0.438482
0.438481
0.390495
0.390494
0.39049
0.390486
0.390481
0.390476
0.390471
0.390467
0.390464
0.390463
0.346249
0.346247
0.346242
0.346236
0.346229
0.346221
0.346214
0.346208
0.346204
0.346202
0.305681
0.305678
0.305671
0.305663
0.305652
0.305641
0.305631
0.305622
0.305616
0.305612
0.268677
0.268673
0.268664
0.268651
0.268636
0.268621
0.268605
0.268592
0.268583
0.268577
0.235098
0.235092
0.235079
0.235061
0.23504
0.235017
0.234994
0.234975
0.23496
0.234953
0.204782
0.204773
0.204754
0.204729
0.204698
0.204665
0.204632
0.204604
0.204582
0.204571
0.177551
0.177538
0.177512
0.177476
0.177432
0.177384
0.177336
0.177294
0.177262
0.177244
0.153214
0.153196
0.15316
0.15311
0.153048
0.152978
0.152908
0.152845
0.152796
0.15277
0.131573
0.131548
0.1315
0.13143
0.131342
0.131243
0.13114
0.131046
0.130972
0.130931
0.112427
0.112394
0.112329
0.112233
0.112111
0.111969
0.111819
0.111676
0.111562
0.111498
0.095575
0.0955314
0.0954445
0.0953155
0.0951475
0.0949474
0.0947284
0.0945129
0.0943335
0.0942287
0.0808189
0.080763
0.0806504
0.0804805
0.0802539
0.0799754
0.0796578
0.0793295
0.0790403
0.0788618
0.0679683
0.0678987
0.0677572
0.0675399
0.0672424
0.066863
0.0664085
0.0659069
0.0654272
0.0651023
0.0568412
0.0567576
0.0565862
0.0563184
0.0559419
0.0554423
0.0548088
0.0540493
0.0532323
0.0525813
0.047265
0.0471689
0.0469702
0.0466552
0.0462015
0.0455768
0.0447367
0.0436284
0.0422275
0.0407477
1.45654
1.45654
1.45654
1.45654
1.45654
1.45654
1.45654
1.45654
1.45654
1.45654
1.36985
1.36985
1.36985
1.36985
1.36985
1.36985
1.36985
1.36985
1.36985
1.36985
1.28384
1.28384
1.28384
1.28384
1.28384
1.28384
1.28384
1.28384
1.28384
1.28384
1.19896
1.19896
1.19896
1.19896
1.19896
1.19896
1.19896
1.19896
1.19896
1.19896
1.11564
1.11564
1.11564
1.11564
1.11564
1.11564
1.11564
1.11564
1.11564
1.11564
1.03427
1.03427
1.03427
1.03427
1.03427
1.03427
1.03427
1.03427
1.03427
1.03427
0.955239
0.955239
0.955239
0.955238
0.955238
0.955238
0.955238
0.955238
0.955238
0.955238
0.878872
0.878871
0.878871
0.878871
0.87887
0.87887
0.87887
0.87887
0.87887
0.87887
0.80547
0.80547
0.805469
0.805469
0.805468
0.805468
0.805468
0.805468
0.805468
0.805468
0.73529
0.73529
0.735289
0.735288
0.735288
0.735287
0.735287
0.735287
0.735287
0.735286
0.668543
0.668542
0.668541
0.668541
0.66854
0.668539
0.668538
0.668538
0.668538
0.668538
0.605393
0.605393
0.605392
0.605391
0.60539
0.605389
0.605388
0.605387
0.605387
0.605386
0.545962
0.545961
0.54596
0.545958
0.545957
0.545955
0.545954
0.545952
0.545952
0.545951
0.490321
0.49032
0.490319
0.490317
0.490314
0.490312
0.49031
0.490308
0.490307
0.490306
0.438503
0.438501
0.438499
0.438496
0.438493
0.438489
0.438486
0.438483
0.438482
0.438481
0.390495
0.390493
0.39049
0.390486
0.390481
0.390476
0.390471
0.390467
0.390464
0.390463
0.346249
0.346246
0.346242
0.346236
0.346228
0.346221
0.346214
0.346208
0.346204
0.346202
0.305681
0.305677
0.305671
0.305662
0.305652
0.305641
0.305631
0.305622
0.305616
0.305612
0.268677
0.268672
0.268663
0.268651
0.268636
0.26862
0.268605
0.268592
0.268582
0.268577
0.235098
0.235091
0.235078
0.235061
0.235039
0.235016
0.234994
0.234974
0.23496
0.234952
0.204782
0.204772
0.204754
0.204729
0.204698
0.204665
0.204632
0.204603
0.204582
0.20457
0.17755
0.177537
0.177512
0.177476
0.177432
0.177384
0.177336
0.177293
0.177261
0.177244
0.153213
0.153195
0.15316
0.15311
0.153048
0.152978
0.152908
0.152845
0.152796
0.15277
0.131573
0.131548
0.1315
0.13143
0.131342
0.131243
0.13114
0.131045
0.130972
0.130931
0.112427
0.112394
0.112328
0.112233
0.11211
0.111969
0.111819
0.111676
0.111562
0.111498
0.0955748
0.0955312
0.0954443
0.0953153
0.0951473
0.0949472
0.0947282
0.0945127
0.0943334
0.0942287
0.0808188
0.0807628
0.0806502
0.0804803
0.0802538
0.0799752
0.0796577
0.0793293
0.0790402
0.0788618
0.0679682
0.0678986
0.067757
0.0675397
0.0672423
0.0668629
0.0664084
0.0659068
0.0654272
0.0651022
0.056841
0.0567575
0.056586
0.0563182
0.0559417
0.0554422
0.0548087
0.0540492
0.0532323
0.0525813
0.0472649
0.0471688
0.0469701
0.046655
0.0462014
0.0455767
0.0447366
0.0436283
0.0422274
0.0407476
1.45654
1.45654
1.45654
1.45654
1.45654
1.45654
1.45654
1.45654
1.45654
1.45654
1.36985
1.36985
1.36985
1.36985
1.36985
1.36985
1.36985
1.36985
1.36985
1.36985
1.28384
1.28384
1.28384
1.28384
1.28384
1.28384
1.28384
1.28384
1.28384
1.28384
1.19896
1.19896
1.19896
1.19896
1.19896
1.19896
1.19896
1.19896
1.19896
1.19896
1.11564
1.11564
1.11564
1.11564
1.11564
1.11564
1.11564
1.11564
1.11564
1.11564
1.03427
1.03427
1.03427
1.03427
1.03427
1.03427
1.03427
1.03427
1.03427
1.03427
0.955239
0.955239
0.955238
0.955238
0.955238
0.955238
0.955238
0.955238
0.955238
0.955238
0.878871
0.878871
0.878871
0.87887
0.87887
0.87887
0.87887
0.87887
0.87887
0.87887
0.80547
0.80547
0.805469
0.805468
0.805468
0.805468
0.805467
0.805467
0.805467
0.805467
0.73529
0.735289
0.735289
0.735288
0.735287
0.735287
0.735287
0.735286
0.735286
0.735286
0.668542
0.668542
0.668541
0.66854
0.668539
0.668539
0.668538
0.668538
0.668538
0.668538
0.605393
0.605393
0.605392
0.605391
0.605389
0.605388
0.605387
0.605387
0.605387
0.605386
0.545961
0.545961
0.545959
0.545958
0.545956
0.545955
0.545953
0.545952
0.545952
0.545951
0.490321
0.49032
0.490318
0.490316
0.490314
0.490312
0.490309
0.490308
0.490307
0.490306
0.438502
0.438501
0.438499
0.438496
0.438492
0.438489
0.438486
0.438483
0.438482
0.438481
0.390494
0.390493
0.39049
0.390485
0.39048
0.390475
0.390471
0.390467
0.390464
0.390463
0.346248
0.346246
0.346241
0.346235
0.346228
0.346221
0.346214
0.346208
0.346204
0.346202
0.30568
0.305677
0.305671
0.305662
0.305652
0.305641
0.305631
0.305622
0.305616
0.305612
0.268677
0.268672
0.268663
0.268651
0.268636
0.26862
0.268605
0.268592
0.268582
0.268577
0.235098
0.235091
0.235078
0.23506
0.235039
0.235016
0.234994
0.234974
0.23496
0.234952
0.204781
0.204772
0.204754
0.204729
0.204698
0.204665
0.204632
0.204603
0.204582
0.20457
0.17755
0.177537
0.177512
0.177476
0.177432
0.177384
0.177336
0.177293
0.177261
0.177244
0.153213
0.153195
0.15316
0.15311
0.153047
0.152978
0.152908
0.152845
0.152796
0.15277
0.131573
0.131548
0.1315
0.13143
0.131342
0.131243
0.13114
0.131045
0.130972
0.130931
0.112427
0.112394
0.112328
0.112232
0.11211
0.111969
0.111819
0.111676
0.111562
0.111498
0.0955747
0.0955311
0.0954441
0.0953152
0.0951472
0.0949471
0.0947281
0.0945127
0.0943334
0.0942287
0.0808187
0.0807627
0.0806501
0.0804802
0.0802537
0.0799751
0.0796576
0.0793293
0.0790402
0.0788618
0.0679681
0.0678985
0.0677569
0.0675396
0.0672422
0.0668628
0.0664083
0.0659067
0.0654272
0.0651022
0.056841
0.0567574
0.056586
0.0563182
0.0559417
0.0554421
0.0548086
0.0540491
0.0532322
0.0525813
0.0472648
0.0471688
0.04697
0.046655
0.0462014
0.0455767
0.0447365
0.0436283
0.0422274
0.0407476
1.45654
1.45654
1.45654
1.45654
1.45654
1.45654
1.45654
1.45654
1.45654
1.45654
1.36985
1.36985
1.36985
1.36985
1.36985
1.36985
1.36985
1.36985
1.36985
1.36985
1.28384
1.28384
1.28384
1.28384
1.28384
1.28384
1.28384
1.28384
1.28384
1.28384
1.19896
1.19896
1.19896
1.19896
1.19896
1.19896
1.19896
1.19896
1.19896
1.19896
1.11564
1.11564
1.11564
1.11564
1.11564
1.11564
1.11564
1.11564
1.11564
1.11564
1.03427
1.03427
1.03427
1.03427
1.03427
1.03427
1.03427
1.03427
1.03427
1.03427
0.955239
0.955239
0.955238
0.955238
0.955238
0.955237
0.955237
0.955238
0.955238
0.955238
0.878871
0.878871
0.878871
0.87887
0.87887
0.87887
0.87887
0.87887
0.87887
0.87887
0.80547
0.805469
0.805469
0.805468
0.805468
0.805467
0.805467
0.805467
0.805467
0.805467
0.735289
0.735289
0.735289
0.735288
0.735287
0.735287
0.735286
0.735286
0.735286
0.735286
0.668542
0.668542
0.668541
0.66854
0.668539
0.668539
0.668538
0.668538
0.668538
0.668538
0.605393
0.605393
0.605392
0.60539
0.605389
0.605388
0.605387
0.605387
0.605387
0.605386
0.545961
0.545961
0.545959
0.545958
0.545956
0.545955
0.545953
0.545952
0.545952
0.545951
0.490321
0.49032
0.490318
0.490316
0.490314
0.490311
0.490309
0.490308
0.490307
0.490306
0.438502
0.438501
0.438499
0.438496
0.438492
0.438489
0.438486
0.438483
0.438482
0.438481
0.390494
0.390493
0.390489
0.390485
0.39048
0.390475
0.390471
0.390467
0.390464
0.390463
0.346248
0.346246
0.346241
0.346235
0.346228
0.346221
0.346214
0.346208
0.346204
0.346202
0.30568
0.305677
0.305671
0.305662
0.305652
0.305641
0.305631
0.305622
0.305616
0.305612
0.268677
0.268672
0.268663
0.26865
0.268636
0.26862
0.268605
0.268592
0.268582
0.268577
0.235098
0.235091
0.235078
0.23506
0.235039
0.235016
0.234994
0.234974
0.23496
0.234952
0.204781
0.204772
0.204754
0.204729
0.204698
0.204665
0.204632
0.204603
0.204582
0.20457
0.17755
0.177537
0.177512
0.177476
0.177432
0.177384
0.177336
0.177293
0.177261
0.177244
0.153213
0.153195
0.15316
0.15311
0.153047
0.152978
0.152908
0.152845
0.152796
0.15277
0.131573
0.131548
0.1315
0.13143
0.131342
0.131243
0.13114
0.131045
0.130972
0.130931
0.112427
0.112394
0.112328
0.112232
0.11211
0.111969
0.111819
0.111676
0.111562
0.111498
0.0955746
0.0955311
0.0954441
0.0953151
0.0951472
0.0949471
0.0947281
0.0945127
0.0943334
0.0942287
0.0808186
0.0807627
0.0806501
0.0804802
0.0802537
0.0799751
0.0796576
0.0793293
0.0790402
0.0788618
0.0679681
0.0678985
0.0677569
0.0675396
0.0672422
0.0668628
0.0664084
0.0659067
0.0654272
0.0651023
0.0568409
0.0567574
0.0565859
0.0563181
0.0559417
0.0554421
0.0548086
0.0540491
0.0532323
0.0525813
0.0472648
0.0471687
0.04697
0.046655
0.0462013
0.0455767
0.0447365
0.0436283
0.0422274
0.0407476
1.45654
1.45654
1.45654
1.45654
1.45654
1.45654
1.45654
1.45654
1.45654
1.45654
1.36985
1.36985
1.36985
1.36985
1.36985
1.36985
1.36985
1.36985
1.36985
1.36985
1.28384
1.28384
1.28384
1.28384
1.28384
1.28384
1.28384
1.28384
1.28384
1.28384
1.19896
1.19896
1.19896
1.19896
1.19896
1.19896
1.19896
1.19896
1.19896
1.19896
1.11564
1.11564
1.11564
1.11564
1.11564
1.11564
1.11564
1.11564
1.11564
1.11564
1.03427
1.03427
1.03427
1.03427
1.03427
1.03427
1.03427
1.03427
1.03427
1.03427
0.955239
0.955239
0.955238
0.955238
0.955238
0.955238
0.955237
0.955238
0.955238
0.955238
0.878871
0.878871
0.878871
0.87887
0.87887
0.87887
0.87887
0.87887
0.87887
0.87887
0.805469
0.805469
0.805469
0.805468
0.805468
0.805468
0.805467
0.805467
0.805467
0.805467
0.735289
0.735289
0.735289
0.735288
0.735287
0.735287
0.735287
0.735286
0.735287
0.735286
0.668542
0.668542
0.668541
0.66854
0.668539
0.668539
0.668538
0.668538
0.668538
0.668538
0.605393
0.605393
0.605392
0.60539
0.605389
0.605388
0.605387
0.605387
0.605387
0.605386
0.545961
0.545961
0.545959
0.545958
0.545956
0.545955
0.545953
0.545952
0.545952
0.545951
0.490321
0.49032
0.490318
0.490316
0.490314
0.490312
0.490309
0.490308
0.490307
0.490306
0.438502
0.438501
0.438499
0.438496
0.438492
0.438489
0.438486
0.438483
0.438482
0.438481
0.390494
0.390493
0.390489
0.390485
0.39048
0.390475
0.390471
0.390467
0.390464
0.390463
0.346248
0.346246
0.346241
0.346235
0.346228
0.346221
0.346214
0.346208
0.346204
0.346202
0.30568
0.305677
0.305671
0.305662
0.305652
0.305641
0.305631
0.305622
0.305616
0.305612
0.268677
0.268672
0.268663
0.268651
0.268636
0.26862
0.268605
0.268592
0.268582
0.268577
0.235098
0.235091
0.235078
0.23506
0.235039
0.235016
0.234994
0.234974
0.23496
0.234953
0.204781
0.204772
0.204754
0.204729
0.204698
0.204665
0.204632
0.204603
0.204582
0.204571
0.17755
0.177537
0.177512
0.177476
0.177432
0.177384
0.177336
0.177294
0.177262
0.177244
0.153213
0.153195
0.15316
0.15311
0.153047
0.152978
0.152908
0.152845
0.152796
0.15277
0.131573
0.131548
0.1315
0.13143
0.131342
0.131243
0.13114
0.131045
0.130972
0.130931
0.112427
0.112394
0.112328
0.112233
0.11211
0.111969
0.111819
0.111676
0.111562
0.111498
0.0955747
0.0955311
0.0954441
0.0953152
0.0951472
0.0949472
0.0947282
0.0945128
0.0943335
0.0942288
0.0808186
0.0807627
0.0806501
0.0804802
0.0802537
0.0799752
0.0796577
0.0793294
0.0790403
0.0788619
0.0679681
0.0678985
0.0677569
0.0675397
0.0672422
0.0668628
0.0664084
0.0659068
0.0654273
0.0651023
0.056841
0.0567574
0.056586
0.0563182
0.0559417
0.0554422
0.0548087
0.0540492
0.0532323
0.0525813
0.0472648
0.0471688
0.0469701
0.046655
0.0462014
0.0455767
0.0447366
0.0436283
0.0422275
0.0407477
1.45654
1.45654
1.45654
1.45654
1.45654
1.45654
1.45654
1.45654
1.45654
1.45654
1.36985
1.36985
1.36985
1.36985
1.36985
1.36985
1.36985
1.36985
1.36985
1.36985
1.28384
1.28384
1.28384
1.28384
1.28384
1.28384
1.28384
1.28384
1.28384
1.28384
1.19896
1.19896
1.19896
1.19896
1.19896
1.19896
1.19896
1.19896
1.19896
1.19896
1.11564
1.11564
1.11564
1.11564
1.11564
1.11564
1.11564
1.11564
1.11564
1.11564
1.03427
1.03427
1.03427
1.03427
1.03427
1.03427
1.03427
1.03427
1.03427
1.03427
0.955239
0.955239
0.955238
0.955238
0.955238
0.955238
0.955238
0.955238
0.955238
0.955238
0.878871
0.878871
0.878871
0.87887
0.87887
0.87887
0.87887
0.87887
0.87887
0.87887
0.80547
0.805469
0.805469
0.805468
0.805468
0.805468
0.805467
0.805467
0.805468
0.805468
0.735289
0.735289
0.735289
0.735288
0.735287
0.735287
0.735287
0.735287
0.735287
0.735287
0.668542
0.668542
0.668541
0.66854
0.66854
0.668539
0.668538
0.668538
0.668538
0.668538
0.605393
0.605393
0.605392
0.605391
0.605389
0.605388
0.605388
0.605387
0.605387
0.605387
0.545961
0.545961
0.545959
0.545958
0.545956
0.545955
0.545954
0.545953
0.545952
0.545952
0.490321
0.49032
0.490318
0.490316
0.490314
0.490312
0.49031
0.490308
0.490307
0.490307
0.438502
0.438501
0.438499
0.438496
0.438493
0.438489
0.438486
0.438484
0.438482
0.438481
0.390494
0.390493
0.39049
0.390485
0.390481
0.390476
0.390471
0.390467
0.390464
0.390463
0.346248
0.346246
0.346242
0.346235
0.346228
0.346221
0.346214
0.346208
0.346204
0.346202
0.30568
0.305677
0.305671
0.305662
0.305652
0.305641
0.305631
0.305622
0.305616
0.305612
0.268677
0.268672
0.268663
0.268651
0.268636
0.26862
0.268605
0.268592
0.268583
0.268578
0.235098
0.235091
0.235078
0.23506
0.235039
0.235016
0.234994
0.234975
0.234961
0.234953
0.204781
0.204772
0.204754
0.204729
0.204698
0.204665
0.204632
0.204604
0.204582
0.204571
0.17755
0.177537
0.177512
0.177476
0.177432
0.177384
0.177336
0.177294
0.177262
0.177244
0.153213
0.153195
0.15316
0.15311
0.153048
0.152978
0.152908
0.152845
0.152797
0.15277
0.131573
0.131548
0.1315
0.13143
0.131342
0.131243
0.13114
0.131046
0.130972
0.130931
0.112427
0.112394
0.112328
0.112233
0.112111
0.111969
0.111819
0.111676
0.111563
0.111498
0.0955747
0.0955312
0.0954443
0.0953153
0.0951474
0.0949473
0.0947284
0.0945129
0.0943337
0.0942289
0.0808187
0.0807628
0.0806502
0.0804803
0.0802539
0.0799753
0.0796578
0.0793295
0.0790404
0.078862
0.0679682
0.0678986
0.067757
0.0675398
0.0672423
0.066863
0.0664085
0.0659069
0.0654274
0.0651024
0.056841
0.0567575
0.0565861
0.0563183
0.0559418
0.0554423
0.0548088
0.0540493
0.0532324
0.0525815
0.0472649
0.0471688
0.0469701
0.0466551
0.0462015
0.0455768
0.0447367
0.0436284
0.0422276
0.0407478
1.45654
1.45654
1.45654
1.45654
1.45654
1.45654
1.45654
1.45654
1.45654
1.45654
1.36985
1.36985
1.36985
1.36985
1.36985
1.36985
1.36985
1.36985
1.36985
1.36985
1.28384
1.28384
1.28384
1.28384
1.28384
1.28384
1.28384
1.28384
1.28384
1.28384
1.19896
1.19896
1.19896
1.19896
1.19896
1.19896
1.19896
1.19896
1.19896
1.19896
1.11564
1.11564
1.11564
1.11564
1.11564
1.11564
1.11564
1.11564
1.11564
1.11564
1.03427
1.03427
1.03427
1.03427
1.03427
1.03427
1.03427
1.03427
1.03427
1.03427
0.955239
0.955239
0.955238
0.955238
0.955238
0.955238
0.955238
0.955238
0.955238
0.955238
0.878871
0.878871
0.878871
0.87887
0.87887
0.87887
0.87887
0.87887
0.87887
0.87887
0.80547
0.80547
0.805469
0.805469
0.805468
0.805468
0.805468
0.805468
0.805468
0.805468
0.73529
0.735289
0.735289
0.735288
0.735288
0.735287
0.735287
0.735287
0.735287
0.735287
0.668542
0.668542
0.668541
0.668541
0.66854
0.668539
0.668539
0.668538
0.668538
0.668538
0.605393
0.605393
0.605392
0.605391
0.60539
0.605389
0.605388
0.605387
0.605387
0.605387
0.545961
0.545961
0.54596
0.545958
0.545957
0.545955
0.545954
0.545953
0.545952
0.545952
0.490321
0.49032
0.490319
0.490317
0.490314
0.490312
0.49031
0.490308
0.490308
0.490307
0.438502
0.438501
0.438499
0.438496
0.438493
0.43849
0.438486
0.438484
0.438482
0.438481
0.390495
0.390493
0.39049
0.390486
0.390481
0.390476
0.390471
0.390467
0.390465
0.390463
0.346249
0.346246
0.346242
0.346236
0.346229
0.346221
0.346214
0.346209
0.346205
0.346202
0.305681
0.305677
0.305671
0.305662
0.305652
0.305641
0.305631
0.305622
0.305616
0.305613
0.268677
0.268672
0.268663
0.268651
0.268636
0.268621
0.268605
0.268592
0.268583
0.268578
0.235098
0.235091
0.235079
0.235061
0.23504
0.235017
0.234994
0.234975
0.234961
0.234953
0.204782
0.204772
0.204754
0.204729
0.204699
0.204665
0.204633
0.204604
0.204583
0.204571
0.17755
0.177537
0.177512
0.177476
0.177433
0.177384
0.177337
0.177294
0.177262
0.177245
0.153213
0.153195
0.15316
0.15311
0.153048
0.152979
0.152908
0.152845
0.152797
0.15277
0.131573
0.131548
0.1315
0.13143
0.131343
0.131243
0.131141
0.131046
0.130972
0.130931
0.112427
0.112394
0.112329
0.112233
0.112111
0.111969
0.111819
0.111677
0.111563
0.111498
0.0955749
0.0955314
0.0954445
0.0953155
0.0951476
0.0949475
0.0947286
0.0945132
0.0943339
0.0942291
0.0808188
0.080763
0.0806504
0.0804805
0.0802541
0.0799755
0.0796581
0.0793297
0.0790406
0.0788622
0.0679683
0.0678987
0.0677572
0.0675399
0.0672425
0.0668632
0.0664087
0.0659071
0.0654276
0.0651026
0.0568411
0.0567576
0.0565862
0.0563184
0.055942
0.0554425
0.054809
0.0540495
0.0532326
0.0525816
0.047265
0.047169
0.0469703
0.0466552
0.0462016
0.045577
0.0447368
0.0436286
0.0422277
0.0407479
1.45654
1.45654
1.45654
1.45654
1.45654
1.45654
1.45654
1.45654
1.45654
1.45654
1.36985
1.36985
1.36985
1.36985
1.36985
1.36985
1.36985
1.36985
1.36985
1.36985
1.28384
1.28384
1.28384
1.28384
1.28384
1.28384
1.28384
1.28384
1.28384
1.28384
1.19896
1.19896
1.19896
1.19896
1.19896
1.19896
1.19896
1.19896
1.19896
1.19896
1.11564
1.11564
1.11564
1.11564
1.11564
1.11564
1.11564
1.11564
1.11564
1.11564
1.03427
1.03427
1.03427
1.03427
1.03427
1.03427
1.03427
1.03427
1.03427
1.03427
0.955239
0.955239
0.955239
0.955238
0.955238
0.955238
0.955238
0.955238
0.955238
0.955238
0.878871
0.878871
0.878871
0.878871
0.878871
0.87887
0.87887
0.87887
0.87887
0.87887
0.80547
0.80547
0.805469
0.805469
0.805469
0.805468
0.805468
0.805468
0.805468
0.805468
0.73529
0.73529
0.735289
0.735289
0.735288
0.735288
0.735287
0.735287
0.735287
0.735287
0.668542
0.668542
0.668542
0.668541
0.66854
0.66854
0.668539
0.668539
0.668539
0.668539
0.605393
0.605393
0.605392
0.605391
0.60539
0.605389
0.605388
0.605388
0.605388
0.605387
0.545962
0.545961
0.54596
0.545959
0.545957
0.545956
0.545954
0.545953
0.545953
0.545952
0.490321
0.490321
0.490319
0.490317
0.490315
0.490313
0.490311
0.490309
0.490308
0.490307
0.438503
0.438502
0.4385
0.438497
0.438493
0.43849
0.438487
0.438484
0.438483
0.438482
0.390495
0.390493
0.39049
0.390486
0.390481
0.390476
0.390472
0.390468
0.390465
0.390464
0.346249
0.346247
0.346242
0.346236
0.346229
0.346222
0.346215
0.346209
0.346205
0.346203
0.305681
0.305678
0.305671
0.305663
0.305653
0.305642
0.305632
0.305623
0.305617
0.305613
0.268677
0.268673
0.268664
0.268651
0.268637
0.268621
0.268606
0.268593
0.268583
0.268578
0.235098
0.235092
0.235079
0.235061
0.23504
0.235017
0.234995
0.234975
0.234961
0.234953
0.204782
0.204773
0.204755
0.204729
0.204699
0.204666
0.204633
0.204604
0.204583
0.204571
0.17755
0.177538
0.177512
0.177477
0.177433
0.177385
0.177337
0.177294
0.177262
0.177245
0.153214
0.153196
0.153161
0.15311
0.153048
0.152979
0.152909
0.152846
0.152797
0.152771
0.131573
0.131549
0.1315
0.13143
0.131343
0.131244
0.131141
0.131046
0.130973
0.130932
0.112427
0.112394
0.112329
0.112233
0.112111
0.111969
0.111819
0.111677
0.111563
0.111499
0.095575
0.0955316
0.0954447
0.0953158
0.0951479
0.0949478
0.0947289
0.0945134
0.0943341
0.0942294
0.080819
0.0807631
0.0806506
0.0804808
0.0802543
0.0799758
0.0796583
0.07933
0.0790409
0.0788624
0.0679684
0.0678989
0.0677574
0.0675402
0.0672428
0.0668634
0.066409
0.0659074
0.0654278
0.0651028
0.0568412
0.0567578
0.0565864
0.0563186
0.0559422
0.0554427
0.0548092
0.0540497
0.0532328
0.0525818
0.0472651
0.0471691
0.0469704
0.0466554
0.0462018
0.0455772
0.044737
0.0436287
0.0422279
0.0407481
1.45654
1.45654
1.45654
1.45654
1.45654
1.45654
1.45654
1.45654
1.45654
1.45654
1.36985
1.36985
1.36985
1.36985
1.36985
1.36985
1.36985
1.36985
1.36985
1.36985
1.28384
1.28384
1.28384
1.28384
1.28384
1.28384
1.28384
1.28384
1.28384
1.28384
1.19896
1.19896
1.19896
1.19896
1.19896
1.19896
1.19896
1.19896
1.19896
1.19896
1.11564
1.11564
1.11564
1.11564
1.11564
1.11564
1.11564
1.11564
1.11564
1.11564
1.03427
1.03427
1.03427
1.03427
1.03427
1.03427
1.03427
1.03427
1.03427
1.03427
0.955239
0.955239
0.955239
0.955238
0.955238
0.955238
0.955238
0.955238
0.955238
0.955238
0.878871
0.878871
0.878871
0.878871
0.878871
0.87887
0.87887
0.87887
0.878871
0.87887
0.80547
0.80547
0.805469
0.805469
0.805469
0.805468
0.805468
0.805468
0.805468
0.805468
0.73529
0.73529
0.735289
0.735289
0.735288
0.735288
0.735287
0.735287
0.735287
0.735287
0.668542
0.668542
0.668542
0.668541
0.66854
0.66854
0.668539
0.668539
0.668539
0.668538
0.605393
0.605393
0.605392
0.605391
0.60539
0.605389
0.605388
0.605388
0.605388
0.605387
0.545962
0.545961
0.54596
0.545959
0.545957
0.545956
0.545954
0.545953
0.545953
0.545952
0.490321
0.490321
0.490319
0.490317
0.490315
0.490313
0.490311
0.490309
0.490308
0.490307
0.438503
0.438502
0.4385
0.438497
0.438493
0.43849
0.438487
0.438484
0.438483
0.438482
0.390495
0.390493
0.39049
0.390486
0.390481
0.390476
0.390472
0.390468
0.390465
0.390464
0.346249
0.346247
0.346242
0.346236
0.346229
0.346222
0.346215
0.346209
0.346205
0.346203
0.305681
0.305678
0.305672
0.305663
0.305653
0.305642
0.305632
0.305623
0.305617
0.305613
0.268677
0.268673
0.268664
0.268652
0.268637
0.268621
0.268606
0.268593
0.268583
0.268578
0.235098
0.235092
0.235079
0.235061
0.23504
0.235017
0.234995
0.234976
0.234961
0.234953
0.204782
0.204773
0.204755
0.20473
0.204699
0.204666
0.204633
0.204604
0.204583
0.204571
0.17755
0.177538
0.177512
0.177477
0.177433
0.177385
0.177337
0.177294
0.177262
0.177245
0.153214
0.153196
0.153161
0.15311
0.153048
0.152979
0.152909
0.152846
0.152797
0.152771
0.131573
0.131549
0.1315
0.131431
0.131343
0.131244
0.131141
0.131046
0.130973
0.130932
0.112427
0.112394
0.112329
0.112233
0.112111
0.11197
0.111819
0.111677
0.111563
0.111499
0.095575
0.0955316
0.0954447
0.0953159
0.0951479
0.0949479
0.094729
0.0945135
0.0943342
0.0942293
0.080819
0.0807631
0.0806506
0.0804809
0.0802544
0.0799759
0.0796584
0.0793301
0.0790409
0.0788624
0.0679684
0.0678989
0.0677574
0.0675402
0.0672428
0.0668635
0.066409
0.0659074
0.0654278
0.0651027
0.0568412
0.0567578
0.0565864
0.0563187
0.0559422
0.0554427
0.0548092
0.0540497
0.0532328
0.0525817
0.0472651
0.0471691
0.0469705
0.0466555
0.0462019
0.0455772
0.0447371
0.0436288
0.0422279
0.040748
0.0390772
0.0389719
0.0387529
0.0384022
0.0378891
0.037164
0.0361445
0.0346798
0.0324428
0.0285369
0.0321246
0.0320148
0.0317859
0.0314184
0.0308787
0.0301129
0.0290341
0.0274986
0.025262
0.0219365
0.0262627
0.0261537
0.0259267
0.0255635
0.0250333
0.0242892
0.0232624
0.0218557
0.0199456
0.0174263
0.0213556
0.0212521
0.0210378
0.0206971
0.0202055
0.019528
0.0186183
0.0174217
0.0158887
0.014012
0.0172764
0.0171823
0.0169883
0.0166828
0.0162482
0.015661
0.0148938
0.01392
0.0127251
0.0113274
0.0139083
0.0138258
0.0136567
0.0133931
0.0130237
0.0125343
0.0119108
0.0111425
0.01023
0.00919302
0.0111449
0.011075
0.0109325
0.0107127
0.0104091
0.0100147
0.00952385
0.00893512
0.0082546
0.0074984
0.00889121
0.00883366
0.00871716
0.00853937
0.0082975
0.00798943
0.00761533
0.00717945
0.00669157
0.00616546
0.00706337
0.0070173
0.00692466
0.00678482
0.00659759
0.00636422
0.00608887
0.00578041
0.00545406
0.00513032
0.00558852
0.00555256
0.00548072
0.00537351
0.00523237
0.00506057
0.00486472
0.00465701
0.00445976
0.00431747
0.0390772
0.0389719
0.0387529
0.0384021
0.037889
0.037164
0.0361445
0.0346798
0.0324429
0.0285369
0.0321246
0.0320148
0.0317859
0.0314184
0.0308787
0.0301128
0.0290341
0.0274986
0.025262
0.0219365
0.0262627
0.0261537
0.0259267
0.0255635
0.0250333
0.0242892
0.0232624
0.0218557
0.0199456
0.0174263
0.0213556
0.0212521
0.0210378
0.0206971
0.0202055
0.019528
0.0186183
0.0174217
0.0158887
0.014012
0.0172764
0.0171823
0.0169883
0.0166828
0.0162482
0.015661
0.0148938
0.0139199
0.0127251
0.0113274
0.0139083
0.0138258
0.0136567
0.0133931
0.0130237
0.0125343
0.0119108
0.0111425
0.0102299
0.00919302
0.0111449
0.0110749
0.0109325
0.0107127
0.0104091
0.0100147
0.00952385
0.00893511
0.0082546
0.00749839
0.00889122
0.00883365
0.00871715
0.00853937
0.00829749
0.00798943
0.00761532
0.00717945
0.00669157
0.00616546
0.00706338
0.0070173
0.00692465
0.00678482
0.00659758
0.00636421
0.00608886
0.0057804
0.00545406
0.00513032
0.00558852
0.00555256
0.00548071
0.00537351
0.00523236
0.00506057
0.00486472
0.00465701
0.00445976
0.00431747
0.0390771
0.0389718
0.0387528
0.038402
0.0378889
0.0371639
0.0361444
0.0346798
0.0324428
0.0285368
0.0321245
0.0320147
0.0317858
0.0314183
0.0308786
0.0301128
0.0290341
0.0274985
0.025262
0.0219365
0.0262626
0.0261536
0.0259267
0.0255634
0.0250332
0.0242891
0.0232623
0.0218556
0.0199455
0.0174263
0.0213555
0.0212521
0.0210377
0.020697
0.0202054
0.0195279
0.0186182
0.0174217
0.0158887
0.0140119
0.0172764
0.0171822
0.0169882
0.0166827
0.0162481
0.0156609