/*--------------------------------*- C++ -*----------------------------------*\
| =========                 |                                                 |
| \\      /  F ield         | OpenFOAM: The Open Source CFD Toolbox           |
|  \\    /   O peration     | Version:  v1812                                 |
|   \\  /    A nd           | Web:      www.OpenFOAM.com                      |
|    \\/     M anipulation  |                                                 |
\*---------------------------------------------------------------------------*/
FoamFile
{
    version     2.0;
    format      ascii;
    class       volScalarField;
    location    "9";
    object      p;
}
// * * * * * * * * * * * * * * * * * * * * * * * * * * * * * * * * * * * * * //

dimensions      [0 2 -2 0 0 0 0];


internalField   nonuniform List<scalar> 
1000
(
1.5142557
1.4972491
1.4807926
1.4647023
1.4488335
1.4331057
1.4174779
1.4019275
1.3864392
1.3710004
1.3556012
1.3402341
1.324894
1.3095773
1.2942812
1.2790035
1.2637421
1.2484954
1.2332619
1.2180403
1.2028295
1.1876283
1.1724359
1.1572515
1.1420742
1.1269034
1.1117385
1.0965788
1.0814239
1.0662732
1.0511264
1.0359831
1.0208428
1.0057052
0.9905701
0.97543711
0.96030599
0.94517648
0.93004837
0.91492143
0.89979548
0.88467034
0.86954586
0.8544219
0.83929836
0.82417513
0.80905214
0.79392933
0.77880664
0.76368403
0.74856149
0.73343898
0.7183165
0.70319403
0.68807157
0.67294911
0.65782666
0.64270421
0.62758176
0.61245931
0.59733685
0.5822144
0.56709195
0.5519695
0.53684704
0.52172459
0.50660214
0.49147969
0.47635723
0.46123478
0.44611233
0.43098988
0.41586742
0.40074497
0.38562252
0.37050007
0.35537761
0.34025516
0.32513271
0.31001025
0.2948878
0.27976535
0.2646429
0.24952044
0.23439799
0.21927554
0.20415309
0.18903063
0.17390818
0.15878573
0.14366328
0.12854082
0.11341837
0.09829592
0.083173468
0.068051016
0.052928565
0.037806115
0.022683666
0.0075612196
1.5138475
1.4968159
1.4806712
1.4648149
1.4490064
1.4332519
1.4175894
1.4020189
1.3865192
1.3710704
1.3556608
1.3402842
1.3249364
1.3096137
1.2943129
1.2790312
1.2637664
1.2485168
1.2332808
1.218057
1.2028442
1.1876414
1.1724475
1.1572617
1.1420832
1.1269113
1.1117454
1.0965848
1.0814291
1.0662777
1.0511303
1.0359864
1.0208455
1.0057075
0.99057201
0.97543866
0.96030723
0.94517746
0.93004913
0.91492201
0.89979591
0.88467065
0.86954608
0.85442206
0.83929846
0.8241752
0.80905218
0.79392935
0.77880665
0.76368404
0.74856149
0.73343898
0.7183165
0.70319403
0.68807157
0.67294911
0.65782666
0.64270421
0.62758176
0.6124593
0.59733685
0.5822144
0.56709195
0.5519695
0.53684704
0.52172459
0.50660214
0.49147969
0.47635723
0.46123478
0.44611233
0.43098988
0.41586742
0.40074497
0.38562252
0.37050007
0.35537761
0.34025516
0.32513271
0.31001025
0.2948878
0.27976535
0.2646429
0.24952044
0.23439799
0.21927554
0.20415309
0.18903063
0.17390818
0.15878573
0.14366328
0.12854082
0.11341837
0.09829592
0.083173468
0.068051016
0.052928564
0.037806113
0.022683663
0.0075612173
1.5131457
1.4959702
1.4802495
1.4647921
1.4491393
1.4333783
1.417674
1.4020816
1.3865773
1.3711265
1.3557112
1.3403268
1.3249718
1.3096437
1.2943388
1.2790538
1.2637862
1.2485341
1.233296
1.2180703
1.202856
1.1876518
1.1724567
1.1572698
1.1420904
1.1269177
1.111751
1.0965897
1.0814334
1.0662815
1.0511336
1.0359892
1.020848
1.0057096
0.99057378
0.97544015
0.96030847
0.94517848
0.93004995
0.91492267
0.89979643
0.88467105
0.86954639
0.85442229
0.83929863
0.82417532
0.80905227
0.79392941
0.77880669
0.76368406
0.7485615
0.73343899
0.7183165
0.70319403
0.68807157
0.67294911
0.65782666
0.64270421
0.62758176
0.6124593
0.59733685
0.5822144
0.56709195
0.5519695
0.53684704
0.52172459
0.50660214
0.49147969
0.47635723
0.46123478
0.44611233
0.43098988
0.41586742
0.40074497
0.38562252
0.37050007
0.35537761
0.34025516
0.32513271
0.31001025
0.2948878
0.27976535
0.2646429
0.24952044
0.23439799
0.21927554
0.20415309
0.18903063
0.17390818
0.15878573
0.14366328
0.12854082
0.11341837
0.098295919
0.083173467
0.068051015
0.052928562
0.037806111
0.022683659
0.0075612145
1.5124804
1.495101
1.4797406
1.4646938
1.4492374
1.4334945
1.4177536
1.4021393
1.386633
1.3711838
1.3557651
1.3403734
1.3250109
1.3096769
1.2943675
1.2790789
1.2638082
1.2485534
1.2333129
1.2180853
1.2028693
1.1876636
1.1724672
1.1572792
1.1420988
1.1269251
1.1117576
1.0965957
1.0814387
1.0662862
1.0511378
1.0359929
1.0208513
1.0057125
0.9905763
0.97544234
0.96031035
0.94518009
0.93005131
0.9149238
0.89979736
0.88467182
0.869547
0.85442277
0.83929901
0.82417561
0.80905248
0.79392957
0.7788068
0.76368414
0.74856156
0.73343903
0.71831652
0.70319404
0.68807158
0.67294912
0.65782666
0.64270421
0.62758176
0.6124593
0.59733685
0.5822144
0.56709195
0.5519695
0.53684704
0.52172459
0.50660214
0.49147969
0.47635723
0.46123478
0.44611233
0.43098988
0.41586742
0.40074497
0.38562252
0.37050007
0.35537761
0.34025516
0.32513271
0.31001025
0.2948878
0.27976535
0.2646429
0.24952044
0.23439799
0.21927554
0.20415309
0.18903063
0.17390818
0.15878573
0.14366328
0.12854082
0.11341837
0.098295919
0.083173466
0.068051013
0.05292856
0.037806108
0.022683655
0.0075612123
1.5120937
1.4945743
1.4794107
1.4646141
1.4492902
1.4335665
1.4178045
1.4021761
1.3866688
1.3712218
1.3558021
1.3404061
1.3250388
1.3097008
1.2943885
1.2790975
1.2638246
1.2485679
1.2333257
1.2180967
1.2028795
1.1876727
1.1724753
1.1572865
1.1421053
1.126931
1.1117629
1.0966004
1.081443
1.0662901
1.0511412
1.035996
1.020854
1.0057149
0.99057841
0.97544419
0.96031196
0.94518148
0.9300525
0.91492481
0.8997982
0.88467251
0.86954756
0.85442322
0.83929936
0.82417588
0.80905269
0.79392972
0.77880691
0.76368422
0.74856161
0.73343906
0.71831655
0.70319406
0.68807159
0.67294912
0.65782667
0.64270421
0.62758176
0.61245931
0.59733685
0.5822144
0.56709195
0.5519695
0.53684704
0.52172459
0.50660214
0.49147969
0.47635723
0.46123478
0.44611233
0.43098988
0.41586742
0.40074497
0.38562252
0.37050007
0.35537761
0.34025516
0.32513271
0.31001025
0.2948878
0.27976535
0.2646429
0.24952044
0.23439799
0.21927554
0.20415309
0.18903063
0.17390818
0.15878573
0.14366328
0.12854082
0.11341837
0.098295918
0.083173465
0.068051012
0.052928558
0.037806106
0.022683654
0.0075612112
1.5120937
1.4945742
1.4794107
1.4646142
1.4492902
1.4335665
1.4178045
1.4021761
1.3866688
1.3712219
1.3558021
1.3404061
1.3250388
1.3097008
1.2943885
1.2790975
1.2638246
1.2485679
1.2333257
1.2180967
1.2028794
1.1876727
1.1724753
1.1572865
1.1421053
1.126931
1.1117629
1.0966004
1.081443
1.0662901
1.0511412
1.035996
1.020854
1.0057149
0.99057841
0.97544419
0.96031196
0.94518148
0.9300525
0.91492481
0.8997982
0.88467251
0.86954756
0.85442322
0.83929936
0.82417588
0.80905269
0.79392972
0.77880691
0.76368422
0.74856161
0.73343906
0.71831655
0.70319406
0.68807159
0.67294912
0.65782667
0.64270421
0.62758176
0.61245931
0.59733685
0.5822144
0.56709195
0.5519695
0.53684704
0.52172459
0.50660214
0.49147969
0.47635723
0.46123478
0.44611233
0.43098988
0.41586742
0.40074497
0.38562252
0.37050007
0.35537761
0.34025516
0.32513271
0.31001025
0.2948878
0.27976535
0.2646429
0.24952044
0.23439799
0.21927554
0.20415309
0.18903063
0.17390818
0.15878573
0.14366328
0.12854082
0.11341837
0.098295918
0.083173465
0.068051012
0.052928558
0.037806106
0.022683654
0.0075612113
1.5124804
1.495101
1.4797406
1.4646938
1.4492374
1.4334945
1.4177536
1.4021393
1.386633
1.3711838
1.3557651
1.3403735
1.325011
1.3096769
1.2943675
1.2790789
1.2638082
1.2485534
1.2333129
1.2180853
1.2028693
1.1876636
1.1724672
1.1572792
1.1420988
1.1269251
1.1117576
1.0965957
1.0814387
1.0662862
1.0511378
1.0359929
1.0208513
1.0057125
0.9905763
0.97544234
0.96031035
0.94518009
0.93005131
0.9149238
0.89979736
0.88467181
0.869547
0.85442277
0.83929901
0.82417561
0.80905248
0.79392957
0.7788068
0.76368414
0.74856156
0.73343903
0.71831653
0.70319405
0.68807158
0.67294912
0.65782666
0.64270421
0.62758176
0.61245931
0.59733685
0.5822144
0.56709195
0.5519695
0.53684704
0.52172459
0.50660214
0.49147969
0.47635723
0.46123478
0.44611233
0.43098988
0.41586742
0.40074497
0.38562252
0.37050007
0.35537761
0.34025516
0.32513271
0.31001025
0.2948878
0.27976535
0.2646429
0.24952044
0.23439799
0.21927554
0.20415309
0.18903063
0.17390818
0.15878573
0.14366328
0.12854082
0.11341837
0.098295918
0.083173465
0.068051013
0.05292856
0.037806108
0.022683656
0.0075612125
1.5131456
1.4959702
1.4802495
1.4647921
1.4491393
1.4333783
1.417674
1.4020816
1.3865773
1.3711265
1.3557112
1.3403268
1.3249719
1.3096437
1.2943388
1.2790538
1.2637862
1.2485341
1.233296
1.2180703
1.202856
1.1876518
1.1724567
1.1572698
1.1420904
1.1269177
1.111751
1.0965897
1.0814334
1.0662815
1.0511336
1.0359892
1.020848
1.0057096
0.99057378
0.97544015
0.96030847
0.94517848
0.93004995
0.91492266
0.89979643
0.88467105
0.86954639
0.85442229
0.83929863
0.82417532
0.80905227
0.79392941
0.77880669
0.76368407
0.74856151
0.73343899
0.7183165
0.70319403
0.68807157
0.67294911
0.65782666
0.64270421
0.62758176
0.61245931
0.59733685
0.5822144
0.56709195
0.5519695
0.53684704
0.52172459
0.50660214
0.49147969
0.47635723
0.46123478
0.44611233
0.43098988
0.41586742
0.40074497
0.38562252
0.37050007
0.35537761
0.34025516
0.32513271
0.31001025
0.2948878
0.27976535
0.2646429
0.24952044
0.23439799
0.21927554
0.20415309
0.18903063
0.17390818
0.15878573
0.14366328
0.12854082
0.11341837
0.098295919
0.083173466
0.068051014
0.052928562
0.037806111
0.022683659
0.0075612147
1.5138475
1.4968159
1.4806713
1.4648149
1.4490064
1.4332519
1.4175894
1.4020189
1.3865192
1.3710704
1.3556608
1.3402842
1.3249364
1.3096137
1.2943129
1.2790312
1.2637664
1.2485168
1.2332808
1.218057
1.2028442
1.1876413
1.1724475
1.1572617
1.1420832
1.1269113
1.1117454
1.0965848
1.0814291
1.0662777
1.0511303
1.0359864
1.0208455
1.0057075
0.990572
0.97543866
0.96030723
0.94517746
0.93004912
0.914922
0.89979591
0.88467065
0.86954608
0.85442206
0.83929846
0.8241752
0.80905219
0.79392935
0.77880665
0.76368404
0.74856149
0.73343898
0.7183165
0.70319403
0.68807157
0.67294911
0.65782666
0.64270421
0.62758176
0.61245931
0.59733685
0.5822144
0.56709195
0.5519695
0.53684704
0.52172459
0.50660214
0.49147969
0.47635723
0.46123478
0.44611233
0.43098988
0.41586742
0.40074497
0.38562252
0.37050007
0.35537761
0.34025516
0.32513271
0.31001025
0.2948878
0.27976535
0.2646429
0.24952044
0.23439799
0.21927554
0.20415309
0.18903063
0.17390818
0.15878573
0.14366328
0.12854082
0.11341837
0.098295919
0.083173467
0.068051015
0.052928564
0.037806114
0.022683663
0.0075612175
1.5142557
1.4972491
1.4807927
1.4647023
1.4488335
1.4331057
1.4174779
1.4019275
1.3864392
1.3710004
1.3556012
1.3402341
1.324894
1.3095773
1.2942812
1.2790035
1.2637421
1.2484954
1.2332619
1.2180403
1.2028295
1.1876283
1.1724359
1.1572515
1.1420742
1.1269034
1.1117385
1.0965788
1.0814239
1.0662732
1.0511264
1.0359831
1.0208428
1.0057052
0.9905701
0.97543711
0.96030599
0.94517648
0.93004837
0.91492143
0.89979548
0.88467034
0.86954586
0.8544219
0.83929836
0.82417514
0.80905215
0.79392933
0.77880664
0.76368403
0.74856149
0.73343898
0.7183165
0.70319403
0.68807157
0.67294912
0.65782666
0.64270421
0.62758176
0.61245931
0.59733685
0.5822144
0.56709195
0.5519695
0.53684704
0.52172459
0.50660214
0.49147969
0.47635723
0.46123478
0.44611233
0.43098988
0.41586742
0.40074497
0.38562252
0.37050007
0.35537761
0.34025516
0.32513271
0.31001025
0.2948878
0.27976535
0.2646429
0.24952044
0.23439799
0.21927554
0.20415309
0.18903063
0.17390818
0.15878573
0.14366328
0.12854082
0.11341837
0.098295919
0.083173467
0.068051016
0.052928565
0.037806115
0.022683666
0.0075612197
)
;

boundaryField
{
    top
    {
        type            zeroGradient;
    }
    inlet
    {
        type            fixedValue;
        value           uniform 1.523;
    }
    outlet
    {
        type            fixedValue;
        value           uniform 0;
    }
    bottom
    {
        type            zeroGradient;
    }
    back
    {
        type            empty;
    }
    front
    {
        type            empty;
    }
}


// ************************************************************************* //
