/*--------------------------------*- C++ -*----------------------------------*\
| =========                 |                                                 |
| \\      /  F ield         | OpenFOAM: The Open Source CFD Toolbox           |
|  \\    /   O peration     | Version:  v1812                                 |
|   \\  /    A nd           | Web:      www.OpenFOAM.com                      |
|    \\/     M anipulation  |                                                 |
\*---------------------------------------------------------------------------*/
FoamFile
{
    version     2.0;
    format      ascii;
    class       volVectorField;
    location    "18.9";
    object      U;
}
// * * * * * * * * * * * * * * * * * * * * * * * * * * * * * * * * * * * * * //

dimensions      [0 1 -1 0 0 0 0];


internalField   nonuniform List<vector> 
1000
(
(0.91890839 0.035821912 0)
(0.86271384 0.062195638 0)
(0.7870597 0.062510089 0)
(0.69536033 0.054550394 0)
(0.61089745 0.04453165 0)
(0.54411592 0.034015971 0)
(0.49343012 0.02418754 0)
(0.45479414 0.01614423 0)
(0.42544583 0.010265786 0)
(0.40347313 0.0063041453 0)
(0.38715767 0.0037976293 0)
(0.3749622 0.0023103382 0)
(0.36566193 0.001493015 0)
(0.35836272 0.0010851183 0)
(0.35244268 0.00090607198 0)
(0.34748201 0.00084105104 0)
(0.34320348 0.00082372347 0)
(0.33942726 0.00081930989 0)
(0.33603793 0.00081185196 0)
(0.33296114 0.00079580153 0)
(0.33014778 0.0007708122 0)
(0.32756384 0.00073871018 0)
(0.3251842 0.00070188973 0)
(0.32298902 0.00066256561 0)
(0.32096172 0.00062249903 0)
(0.31908785 0.0005829564 0)
(0.31735449 0.00054477061 0)
(0.31574996 0.00050843327 0)
(0.3142636 0.00047419133 0)
(0.31288575 0.0004421247 0)
(0.31160756 0.00041221009 0)
(0.31042101 0.00038436244 0)
(0.30931883 0.00035846568 0)
(0.30829438 0.00033439065 0)
(0.30734165 0.00031200639 0)
(0.30645515 0.00029118669 0)
(0.30562991 0.00027181287 0)
(0.30486136 0.00025377539 0)
(0.30414535 0.00023697354 0)
(0.30347807 0.00022131465 0)
(0.30285601 0.00020671491 0)
(0.30227596 0.0001930967 0)
(0.30173497 0.00018038994 0)
(0.30123029 0.00016852986 0)
(0.30075942 0.00015745724 0)
(0.30032002 0.0001471182 0)
(0.29990993 0.00013746228 0)
(0.29952715 0.00012844403 0)
(0.29916983 0.00012002049 0)
(0.29883624 0.00011215135 0)
(0.29852478 0.0001048001 0)
(0.29823397 9.7931175e-05 0)
(0.29796241 9.1512444e-05 0)
(0.29770883 8.5513716e-05 0)
(0.29747201 7.9906518e-05 0)
(0.29725084 7.4666002e-05 0)
(0.29704429 6.9767608e-05 0)
(0.29685137 6.5190838e-05 0)
(0.2966712 6.0914767e-05 0)
(0.29650291 5.6919806e-05 0)
(0.29634572 5.3187715e-05 0)
(0.2961989 4.9700056e-05 0)
(0.29606176 4.6440423e-05 0)
(0.29593366 4.3392892e-05 0)
(0.295814 4.0542943e-05 0)
(0.29570223 3.7878453e-05 0)
(0.29559783 3.538761e-05 0)
(0.29550031 3.3060317e-05 0)
(0.29540922 3.0887967e-05 0)
(0.29532413 2.8859694e-05 0)
(0.29524465 2.6966792e-05 0)
(0.2951704 2.5198747e-05 0)
(0.29510104 2.3545419e-05 0)
(0.29503625 2.1998322e-05 0)
(0.29497572 2.0549885e-05 0)
(0.29491918 1.9194129e-05 0)
(0.29486637 1.7927512e-05 0)
(0.29481705 1.6744384e-05 0)
(0.29477097 1.5643064e-05 0)
(0.29472793 1.461642e-05 0)
(0.29468772 1.3660583e-05 0)
(0.29465016 1.2766818e-05 0)
(0.29461507 1.1930703e-05 0)
(0.29458229 1.1144678e-05 0)
(0.29455167 1.0407793e-05 0)
(0.29452308 9.7132538e-06 0)
(0.29449635 9.0725503e-06 0)
(0.29447142 8.4703415e-06 0)
(0.2944481 7.9182921e-06 0)
(0.29442633 7.3969329e-06 0)
(0.29440598 6.9261019e-06 0)
(0.294387 6.4726624e-06 0)
(0.2943692 6.0617869e-06 0)
(0.29435259 5.6503856e-06 0)
(0.29433714 5.2891287e-06 0)
(0.29432249 4.9685787e-06 0)
(0.29430919 4.6878191e-06 0)
(0.29429569 4.5388868e-06 0)
(0.29428502 4.4056167e-06 0)
(0.29426874 5.0574863e-06 0)
(1.0016583 0.05381943 0)
(1.0359761 0.10128443 0)
(1.0597199 0.11073663 0)
(1.0628947 0.10592201 0)
(1.0515569 0.096228725 0)
(1.0340529 0.083934059 0)
(1.0142795 0.070327062 0)
(0.99360703 0.056981334 0)
(0.97292577 0.045107479 0)
(0.9531074 0.03523675 0)
(0.93479539 0.02740165 0)
(0.91829012 0.021387227 0)
(0.90362379 0.016884499 0)
(0.89068068 0.013569709 0)
(0.87928175 0.011147748 0)
(0.86923242 0.0093736578 0)
(0.86034424 0.0080569271 0)
(0.85244667 0.0070571265 0)
(0.84539242 0.0062752379 0)
(0.83905793 0.0056438286 0)
(0.83334127 0.0051180914 0)
(0.82815884 0.0046686728 0)
(0.82344213 0.0042764175 0)
(0.81913467 0.0039287383 0)
(0.81518962 0.0036172024 0)
(0.81156765 0.0033359687 0)
(0.80823544 0.0030808023 0)
(0.8051644 0.0028484673 0)
(0.80232979 0.0026363682 0)
(0.79971 0.002442338 0)
(0.79728598 0.0022645189 0)
(0.79504087 0.0021012905 0)
(0.79295963 0.0019512261 0)
(0.79102881 0.0018130636 0)
(0.78923628 0.0016856836 0)
(0.78757111 0.0015680917 0)
(0.78602339 0.0014594041 0)
(0.78458412 0.0013588337 0)
(0.78324512 0.0012656786 0)
(0.7819989 0.0011793105 0)
(0.78083861 0.001099167 0)
(0.77975799 0.001024742 0)
(0.77875128 0.00095558001 0)
(0.77781318 0.00089126954 0)
(0.77693882 0.00083143767 0)
(0.77612368 0.00077574634 0)
(0.77536363 0.00072388745 0)
(0.77465481 0.00067558006 0)
(0.77399368 0.00063056682 0)
(0.77337694 0.00058861087 0)
(0.77280154 0.00054949479 0)
(0.77226465 0.00051301748 0)
(0.77176364 0.00047899317 0)
(0.77129607 0.00044725075 0)
(0.77085967 0.00041763128 0)
(0.77045234 0.00038998939 0)
(0.77007212 0.00036418994 0)
(0.76971717 0.00034010948 0)
(0.76938581 0.00031763255 0)
(0.76907644 0.00029665114 0)
(0.76878761 0.00027706449 0)
(0.76851792 0.0002587778 0)
(0.7682661 0.00024170234 0)
(0.76803096 0.00022575577 0)
(0.76781139 0.00021086137 0)
(0.76760635 0.00019694923 0)
(0.76741488 0.00018395496 0)
(0.76723608 0.00017181923 0)
(0.7670691 0.00016048788 0)
(0.76691315 0.00014990808 0)
(0.76676752 0.00014003065 0)
(0.7666315 0.00013080684 0)
(0.76650447 0.00012219099 0)
(0.76638582 0.00011413976 0)
(0.76627501 0.00010661543 0)
(0.76617152 9.9582119e-05 0)
(0.76607486 9.3012194e-05 0)
(0.76598458 8.6874655e-05 0)
(0.76590026 8.1148656e-05 0)
(0.76582151 7.5802637e-05 0)
(0.76574794 7.081782e-05 0)
(0.76567924 6.6157722e-05 0)
(0.76561504 6.1808947e-05 0)
(0.76555512 5.7732663e-05 0)
(0.7654991 5.3930402e-05 0)
(0.76544684 5.0355136e-05 0)
(0.76539796 4.7037945e-05 0)
(0.76535239 4.3921167e-05 0)
(0.7653097 4.1053538e-05 0)
(0.76526997 3.832325e-05 0)
(0.76523272 3.5844638e-05 0)
(0.76519804 3.3463998e-05 0)
(0.76516555 3.1332099e-05 0)
(0.76513516 2.918926e-05 0)
(0.76510713 2.7363929e-05 0)
(0.76507997 2.551729e-05 0)
(0.76505663 2.407133e-05 0)
(0.76503057 2.2554747e-05 0)
(0.76501446 2.1597032e-05 0)
(0.76498346 2.099346e-05 0)
(1.0014244 0.026824854 0)
(1.0291272 0.06279135 0)
(1.0654292 0.077736549 0)
(1.098962 0.080597196 0)
(1.1253149 0.078285167 0)
(1.145053 0.073153897 0)
(1.1594858 0.066111277 0)
(1.1694287 0.058162063 0)
(1.1755354 0.050296754 0)
(1.1785738 0.043150707 0)
(1.1793571 0.036972824 0)
(1.178595 0.031771631 0)
(1.1768304 0.027451838 0)
(1.1744518 0.023886766 0)
(1.1717287 0.020947618 0)
(1.1688444 0.018515779 0)
(1.1659195 0.016488084 0)
(1.1630317 0.014779502 0)
(1.1602295 0.013322985 0)
(1.1575415 0.012067132 0)
(1.1549828 0.010973 0)
(1.1525601 0.010011061 0)
(1.1502747 0.0091587461 0)
(1.1481246 0.0083986032 0)
(1.1461059 0.0077169492 0)
(1.1442134 0.0071028866 0)
(1.1424414 0.0065475903 0)
(1.1407838 0.0060437941 0)
(1.1392344 0.0055854252 0)
(1.1377869 0.0051673441 0)
(1.1364353 0.0047851569 0)
(1.1351738 0.0044350762 0)
(1.1339968 0.0041138168 0)
(1.1328987 0.0038185127 0)
(1.1318746 0.0035466525 0)
(1.1309195 0.0032960261 0)
(1.1300289 0.0030646817 0)
(1.1291985 0.002850889 0)
(1.1284242 0.0026531088 0)
(1.1277022 0.0024699674 0)
(1.1270291 0.002300235 0)
(1.1264014 0.0021428071 0)
(1.1258161 0.0019966887 0)
(1.1252702 0.0018609813 0)
(1.1247612 0.0017348714 0)
(1.1242865 0.0016176205 0)
(1.1238437 0.0015085566 0)
(1.1234307 0.0014070667 0)
(1.1230455 0.00131259 0)
(1.1226861 0.0012246127 0)
(1.1223509 0.0011426633 0)
(1.1220381 0.0010663075 0)
(1.1217462 0.00099514565 0)
(1.1214739 0.00092880929 0)
(1.1212198 0.00086695861 0)
(1.1209827 0.00080928018 0)
(1.1207614 0.00075548483 0)
(1.1205548 0.00070530504 0)
(1.1203621 0.00065849248 0)
(1.1201821 0.00061481627 0)
(1.1200142 0.00057406196 0)
(1.1198574 0.00053602957 0)
(1.1197111 0.00050053325 0)
(1.1195745 0.00046740013 0)
(1.1194469 0.0004364704 0)
(1.1193278 0.00040759567 0)
(1.1192167 0.00038063899 0)
(1.1191129 0.000355473 0)
(1.119016 0.00033197936 0)
(1.1189255 0.00031004612 0)
(1.118841 0.00028956939 0)
(1.1187621 0.00027044899 0)
(1.1186884 0.000252594 0)
(1.1186197 0.00023591668 0)
(1.1185554 0.000220341 0)
(1.1184954 0.00020579128 0)
(1.1184394 0.00019220592 0)
(1.1183871 0.00017951717 0)
(1.1183382 0.00016767565 0)
(1.1182926 0.000156614 0)
(1.11825 0.00014629428 0)
(1.1182103 0.00013664325 0)
(1.118173 0.00012764277 0)
(1.1181384 0.00011921018 0)
(1.1181059 0.00011135898 0)
(1.1180757 0.00010398441 0)
(1.1180473 9.7152335e-05 0)
(1.1180211 9.0703804e-05 0)
(1.1179962 8.4786169e-05 0)
(1.1179734 7.912912e-05 0)
(1.1179516 7.4027571e-05 0)
(1.1179318 6.9017121e-05 0)
(1.1179128 6.4662548e-05 0)
(1.1178955 6.0141463e-05 0)
(1.117879 5.6560371e-05 0)
(1.1178635 5.2424525e-05 0)
(1.11785 4.9744255e-05 0)
(1.1178349 4.5807146e-05 0)
(1.1178261 4.4318915e-05 0)
(1.1178083 4.0575007e-05 0)
(1.0007347 0.011814721 0)
(1.0178472 0.030860924 0)
(1.0462163 0.041434438 0)
(1.0799018 0.045193566 0)
(1.1132664 0.045502348 0)
(1.143782 0.044080305 0)
(1.1708941 0.04143998 0)
(1.1945687 0.037973676 0)
(1.2148582 0.034195728 0)
(1.2319652 0.030536886 0)
(1.2462683 0.027222043 0)
(1.2582339 0.024313918 0)
(1.2683135 0.021797886 0)
(1.2768875 0.019633657 0)
(1.2842554 0.017773824 0)
(1.2906479 0.01616965 0)
(1.296243 0.014775589 0)
(1.3011791 0.013552296 0)
(1.3055645 0.012467863 0)
(1.3094838 0.011497465 0)
(1.3130042 0.010622161 0)
(1.3161792 0.0098275119 0)
(1.3190526 0.0091024093 0)
(1.3216607 0.0084381749 0)
(1.3240343 0.0078279023 0)
(1.3261995 0.0072659732 0)
(1.3281786 0.0067477077 0)
(1.3299913 0.0062691159 0)
(1.3316544 0.0058267268 0)
(1.3331829 0.0054174728 0)
(1.3345896 0.0050386118 0)
(1.3358862 0.004687673 0)
(1.3370827 0.0043624184 0)
(1.3381883 0.0040608132 0)
(1.3392108 0.0037810028 0)
(1.3401576 0.0035212938 0)
(1.3410349 0.0032801376 0)
(1.3418486 0.0030561169 0)
(1.3426038 0.0028479335 0)
(1.3433051 0.002654397 0)
(1.3439569 0.0024744153 0)
(1.3445629 0.0023069854 0)
(1.3451267 0.0021511852 0)
(1.3456513 0.0020061663 0)
(1.3461398 0.0018711474 0)
(1.3465947 0.0017454089 0)
(1.3470185 0.0016282868 0)
(1.3474135 0.0015191682 0)
(1.3477816 0.0014174867 0)
(1.3481249 0.0013227185 0)
(1.3484449 0.001234379 0)
(1.3487435 0.0011520191 0)
(1.349022 0.0010752229 0)
(1.3492818 0.0010036048 0)
(1.3495242 0.00093680754 0)
(1.3497505 0.0008745004 0)
(1.3499616 0.00081637612 0)
(1.3501587 0.00076214914 0)
(1.3503427 0.00071155353 0)
(1.3505145 0.00066434193 0)
(1.3506748 0.00062028433 0)
(1.3508245 0.00057916647 0)
(1.3509643 0.00054078948 0)
(1.3510948 0.00050496804 0)
(1.3512167 0.0004715305 0)
(1.3513305 0.00044031707 0)
(1.3514368 0.00041117962 0)
(1.3515361 0.00038397916 0)
(1.3516288 0.0003585868 0)
(1.3517153 0.00033488022 0)
(1.3517962 0.00031274669 0)
(1.3518717 0.00029207861 0)
(1.3519422 0.00027277935 0)
(1.3520081 0.00025475508 0)
(1.3520696 0.00023792547 0)
(1.3521271 0.00022220753 0)
(1.3521808 0.00020753507 0)
(1.3522309 0.00019383127 0)
(1.3522777 0.00018104266 0)
(1.3523215 0.00016909168 0)
(1.3523623 0.00015794174 0)
(1.3524005 0.00014751023 0)
(1.352436 0.00013778735 0)
(1.3524695 0.0001286725 0)
(1.3525004 0.00012020204 0)
(1.3525296 0.00011224013 0)
(1.3525565 0.00010488279 0)
(1.3525823 9.7898402e-05 0)
(1.3526054 9.1531786e-05 0)
(1.3526281 8.5401327e-05 0)
(1.3526479 7.9931995e-05 0)
(1.3526685 7.4425001e-05 0)
(1.352685 6.9804203e-05 0)
(1.3527036 6.4833463e-05 0)
(1.352717 6.1120924e-05 0)
(1.3527349 5.6436677e-05 0)
(1.3527447 5.3740187e-05 0)
(1.3527628 4.9143405e-05 0)
(1.3527683 4.7702235e-05 0)
(1.3527888 4.2956183e-05 0)
(1.0005903 0.0034629152 0)
(1.0136865 0.009366018 0)
(1.0370283 0.013046804 0)
(1.0674202 0.014563259 0)
(1.1000315 0.014854523 0)
(1.1316428 0.014564989 0)
(1.1610745 0.013888337 0)
(1.1880674 0.012919244 0)
(1.2125205 0.011806505 0)
(1.2343939 0.010696425 0)
(1.2538077 0.0096727405 0)
(1.2710339 0.0087628202 0)
(1.286401 0.0079659716 0)
(1.3002111 0.0072722127 0)
(1.3127102 0.006668807 0)
(1.3240903 0.0061419241 0)
(1.3345036 0.0056780712 0)
(1.3440716 0.0052653199 0)
(1.3528927 0.0048939341 0)
(1.3610463 0.0045563949 0)
(1.3685975 0.0042470688 0)
(1.3756004 0.0039617745 0)
(1.3821012 0.0036973959 0)
(1.3881402 0.0034515808 0)
(1.3937533 0.0032225172 0)
(1.3989728 0.0030087689 0)
(1.403828 0.0028091571 0)
(1.4083456 0.0026226782 0)
(1.4125503 0.0024484487 0)
(1.4164646 0.0022856699 0)
(1.4201094 0.0021336067 0)
(1.423504 0.0019915752 0)
(1.426666 0.001858935 0)
(1.4296121 0.0017350842 0)
(1.4323573 0.001619457 0)
(1.4349159 0.0015115203 0)
(1.4373007 0.0014107726 0)
(1.4395241 0.0013167421 0)
(1.441597 0.0012289864 0)
(1.4435301 0.0011470905 0)
(1.4453328 0.0010706658 0)
(1.4470143 0.00099934878 0)
(1.4485827 0.00093279911 0)
(1.4500459 0.00087069856 0)
(1.451411 0.00081274965 0)
(1.4526846 0.00075867445 0)
(1.4538731 0.00070821338 0)
(1.4549822 0.00066112407 0)
(1.4560172 0.00061718049 0)
(1.4569831 0.00057617165 0)
(1.4578847 0.00053790018 0)
(1.4587262 0.00050218248 0)
(1.4595117 0.000468847 0)
(1.460245 0.00043773391 0)
(1.4609295 0.00040869449 0)
(1.4615685 0.00038159049 0)
(1.4621651 0.00035629264 0)
(1.4627221 0.00033267953 0)
(1.4632422 0.000310638 0)
(1.4637278 0.00029006236 0)
(1.4641811 0.00027085384 0)
(1.4646045 0.00025292098 0)
(1.4649998 0.00023617869 0)
(1.4653689 0.00022054782 0)
(1.4657136 0.00020595465 0)
(1.4660355 0.00019233054 0)
(1.4663361 0.00017961157 0)
(1.4666168 0.00016773718 0)
(1.466879 0.00015665094 0)
(1.4671238 0.00014629909 0)
(1.4673524 0.00013663204 0)
(1.4675659 0.00012760325 0)
(1.4677654 0.00011917134 0)
(1.4679517 0.0001112962 0)
(1.4681255 0.0001039436 0)
(1.468288 9.7077511e-05 0)
(1.4684398 9.0669572e-05 0)
(1.4685815 8.4685122e-05 0)
(1.4687137 7.9100563e-05 0)
(1.4688375 7.3878841e-05 0)
(1.468953 6.9005972e-05 0)
(1.4690608 6.4445405e-05 0)
(1.4691613 6.0196219e-05 0)
(1.4692557 5.6209082e-05 0)
(1.4693434 5.2511656e-05 0)
(1.4694256 4.9035923e-05 0)
(1.4695018 4.5827442e-05 0)
(1.4695743 4.2767867e-05 0)
(1.4696403 3.9998673e-05 0)
(1.4697037 3.7314985e-05 0)
(1.4697605 3.492561e-05 0)
(1.4698173 3.2487649e-05 0)
(1.4698654 3.0495174e-05 0)
(1.4699165 2.8313719e-05 0)
(1.4699559 2.6726409e-05 0)
(1.4700046 2.4632511e-05 0)
(1.4700341 2.3488313e-05 0)
(1.470083 2.1424072e-05 0)
(1.4701 2.0810251e-05 0)
(1.4701556 1.8647815e-05 0)
(1.0005903 -0.0034629162 0)
(1.0136865 -0.0093660206 0)
(1.0370283 -0.013046807 0)
(1.0674202 -0.014563262 0)
(1.1000315 -0.014854525 0)
(1.1316428 -0.014564991 0)
(1.1610745 -0.013888338 0)
(1.1880674 -0.012919246 0)
(1.2125205 -0.011806507 0)
(1.2343939 -0.010696428 0)
(1.2538077 -0.0096727436 0)
(1.2710339 -0.0087628233 0)
(1.286401 -0.0079659747 0)
(1.3002111 -0.0072722154 0)
(1.3127102 -0.0066688092 0)
(1.3240903 -0.0061419259 0)
(1.3345036 -0.005678073 0)
(1.3440716 -0.0052653219 0)
(1.3528927 -0.0048939359 0)
(1.3610463 -0.0045563964 0)
(1.3685975 -0.0042470703 0)
(1.3756004 -0.0039617766 0)
(1.3821012 -0.0036973987 0)
(1.3881402 -0.0034515838 0)
(1.3937533 -0.0032225197 0)
(1.3989728 -0.0030087707 0)
(1.403828 -0.0028091588 0)
(1.4083456 -0.00262268 0)
(1.4125503 -0.0024484502 0)
(1.4164646 -0.0022856708 0)
(1.4201094 -0.0021336075 0)
(1.423504 -0.0019915764 0)
(1.426666 -0.001858937 0)
(1.4296121 -0.0017350872 0)
(1.4323573 -0.0016194603 0)
(1.4349158 -0.0015115229 0)
(1.4373007 -0.0014107738 0)
(1.439524 -0.0013167424 0)
(1.441597 -0.0012289862 0)
(1.4435301 -0.0011470905 0)
(1.4453328 -0.0010706667 0)
(1.4470143 -0.00099935053 0)
(1.4485827 -0.00093280141 0)
(1.4500459 -0.00087070095 0)
(1.451411 -0.00081275175 0)
(1.4526846 -0.00075867607 0)
(1.4538731 -0.00070821451 0)
(1.4549821 -0.00066112482 0)
(1.4560171 -0.00061718068 0)
(1.4569831 -0.00057617115 0)
(1.4578847 -0.00053789968 0)
(1.4587262 -0.00050218254 0)
(1.4595117 -0.00046884817 0)
(1.460245 -0.00043773658 0)
(1.4609295 -0.0004086984 0)
(1.4615685 -0.00038159426 0)
(1.4621651 -0.00035629449 0)
(1.4627221 -0.0003326788 0)
(1.4632422 -0.00031063464 0)
(1.4637278 -0.00029005709 0)
(1.4641811 -0.00027084844 0)
(1.4646045 -0.00025291726 0)
(1.4649998 -0.00023617766 0)
(1.4653689 -0.00022054942 0)
(1.4657136 -0.00020595828 0)
(1.4660355 -0.00019233464 0)
(1.4663361 -0.00017961388 0)
(1.4666168 -0.00016773609 0)
(1.466879 -0.000156646 0)
(1.4671238 -0.00014629151 0)
(1.4673524 -0.00013662459 0)
(1.4675659 -0.0001275984 0)
(1.4677654 -0.00011917074 0)
(1.4679517 -0.00011129977 0)
(1.4681255 -0.00010394986 0)
(1.468288 -9.7083839e-05 0)
(1.4684398 -9.0672623e-05 0)
(1.4685815 -8.4682407e-05 0)
(1.4687137 -7.9092582e-05 0)
(1.4688375 -7.3870072e-05 0)
(1.468953 -6.9000441e-05 0)
(1.4690608 -6.4443706e-05 0)
(1.4691613 -6.0199503e-05 0)
(1.4692557 -5.6219008e-05 0)
(1.4693434 -5.2519579e-05 0)
(1.4694256 -4.9034245e-05 0)
(1.4695018 -4.5821867e-05 0)
(1.4695742 -4.2764462e-05 0)
(1.4696403 -3.9985412e-05 0)
(1.4697037 -3.7294672e-05 0)
(1.4697605 -3.4931436e-05 0)
(1.4698173 -3.2521535e-05 0)
(1.4698654 -3.0512639e-05 0)
(1.4699165 -2.8295117e-05 0)
(1.4699559 -2.6705827e-05 0)
(1.4700046 -2.4632803e-05 0)
(1.4700341 -2.34922e-05 0)
(1.4700831 -2.142474e-05 0)
(1.4701 -2.0823442e-05 0)
(1.4701556 -1.8664694e-05 0)
(1.0007347 -0.011814722 0)
(1.0178472 -0.030860927 0)
(1.0462163 -0.041434442 0)
(1.0799018 -0.04519357 0)
(1.1132664 -0.045502351 0)
(1.143782 -0.044080308 0)
(1.1708941 -0.041439982 0)
(1.1945687 -0.037973678 0)
(1.2148582 -0.03419573 0)
(1.2319652 -0.030536888 0)
(1.2462683 -0.027222046 0)
(1.2582339 -0.024313921 0)
(1.2683135 -0.021797889 0)
(1.2768875 -0.01963366 0)
(1.2842554 -0.017773826 0)
(1.2906479 -0.016169652 0)
(1.296243 -0.01477559 0)
(1.3011791 -0.013552298 0)
(1.3055645 -0.012467864 0)
(1.3094838 -0.011497466 0)
(1.3130042 -0.010622162 0)
(1.3161792 -0.0098275135 0)
(1.3190526 -0.0091024115 0)
(1.3216607 -0.0084381773 0)
(1.3240343 -0.0078279043 0)
(1.3261995 -0.0072659749 0)
(1.3281786 -0.0067477093 0)
(1.3299913 -0.0062691173 0)
(1.3316544 -0.0058267277 0)
(1.3331829 -0.0054174734 0)
(1.3345896 -0.0050386124 0)
(1.3358862 -0.004687674 0)
(1.3370827 -0.0043624201 0)
(1.3381882 -0.0040608154 0)
(1.3392108 -0.0037810051 0)
(1.3401576 -0.0035212956 0)
(1.3410349 -0.0032801388 0)
(1.3418486 -0.0030561176 0)
(1.3426038 -0.002847934 0)
(1.3433051 -0.0026543975 0)
(1.3439569 -0.0024744161 0)
(1.3445629 -0.0023069864 0)
(1.3451267 -0.0021511863 0)
(1.3456513 -0.0020061675 0)
(1.3461398 -0.0018711488 0)
(1.3465947 -0.0017454104 0)
(1.3470185 -0.0016282883 0)
(1.3474135 -0.0015191694 0)
(1.3477816 -0.0014174874 0)
(1.3481249 -0.0013227188 0)
(1.3484449 -0.001234379 0)
(1.3487435 -0.0011520192 0)
(1.349022 -0.0010752234 0)
(1.3492818 -0.001003606 0)
(1.3495242 -0.00093680947 0)
(1.3497505 -0.00087450228 0)
(1.3499616 -0.00081637726 0)
(1.3501587 -0.00076214884 0)
(1.3503427 -0.00071155167 0)
(1.3505145 -0.00066433882 0)
(1.3506748 -0.00062028073 0)
(1.3508245 -0.00057916348 0)
(1.3509643 -0.0005407879 0)
(1.3510948 -0.00050496837 0)
(1.3512167 -0.00047153248 0)
(1.3513305 -0.00044031973 0)
(1.3514368 -0.00041118154 0)
(1.3515361 -0.00038397907 0)
(1.3516288 -0.00035858429 0)
(1.3517153 -0.00033487597 0)
(1.3517962 -0.00031274206 0)
(1.3518717 -0.00029207513 0)
(1.3519422 -0.00027277816 0)
(1.3520081 -0.00025475673 0)
(1.3520696 -0.00023792898 0)
(1.3521271 -0.00022221159 0)
(1.3521808 -0.00020753779 0)
(1.3522309 -0.00019383087 0)
(1.3522777 -0.00018103951 0)
(1.3523215 -0.00016908739 0)
(1.3523623 -0.00015793771 0)
(1.3524005 -0.00014750762 0)
(1.352436 -0.00013778801 0)
(1.3524695 -0.00012867645 0)
(1.3525004 -0.00012020667 0)
(1.3525296 -0.00011224171 0)
(1.3525565 -0.00010488174 0)
(1.3525823 -9.7895829e-05 0)
(1.3526054 -9.1527834e-05 0)
(1.3526281 -8.5395579e-05 0)
(1.3526479 -7.9931473e-05 0)
(1.3526684 -7.4432056e-05 0)
(1.352685 -6.9804416e-05 0)
(1.3527036 -6.4826457e-05 0)
(1.352717 -6.112263e-05 0)
(1.3527349 -5.6446436e-05 0)
(1.3527446 -5.374324e-05 0)
(1.3527628 -4.9141557e-05 0)
(1.3527683 -4.7707287e-05 0)
(1.3527888 -4.2961752e-05 0)
(1.0014244 -0.026824855 0)
(1.0291272 -0.062791352 0)
(1.0654292 -0.077736552 0)
(1.098962 -0.0805972 0)
(1.1253149 -0.07828517 0)
(1.145053 -0.073153899 0)
(1.1594858 -0.066111278 0)
(1.1694287 -0.058162063 0)
(1.1755354 -0.050296754 0)
(1.1785738 -0.043150708 0)
(1.1793571 -0.036972825 0)
(1.1785949 -0.031771633 0)
(1.1768304 -0.02745184 0)
(1.1744518 -0.023886768 0)
(1.1717287 -0.02094762 0)
(1.1688444 -0.01851578 0)
(1.1659195 -0.016488084 0)
(1.1630317 -0.014779502 0)
(1.1602295 -0.013322985 0)
(1.1575415 -0.012067132 0)
(1.1549828 -0.010973001 0)
(1.1525601 -0.010011062 0)
(1.1502747 -0.0091587473 0)
(1.1481246 -0.0083986045 0)
(1.1461059 -0.0077169506 0)
(1.1442134 -0.0071028881 0)
(1.1424414 -0.0065475916 0)
(1.1407838 -0.006043795 0)
(1.1392344 -0.0055854258 0)
(1.1377869 -0.0051673446 0)
(1.1364353 -0.0047851573 0)
(1.1351738 -0.0044350768 0)
(1.1339968 -0.0041138176 0)
(1.1328987 -0.0038185136 0)
(1.1318746 -0.0035466534 0)
(1.1309195 -0.0032960273 0)
(1.1300289 -0.0030646831 0)
(1.1291985 -0.0028508904 0)
(1.1284242 -0.00265311 0)
(1.1277022 -0.0024699683 0)
(1.1270291 -0.0023002354 0)
(1.1264014 -0.0021428069 0)
(1.1258161 -0.0019966884 0)
(1.1252702 -0.0018609814 0)
(1.1247612 -0.0017348721 0)
(1.1242865 -0.0016176219 0)
(1.1238437 -0.0015085584 0)
(1.1234307 -0.0014070683 0)
(1.1230455 -0.0013125913 0)
(1.1226861 -0.0012246137 0)
(1.1223509 -0.0011426636 0)
(1.1220381 -0.0010663072 0)
(1.1217462 -0.00099514498 0)
(1.1214739 -0.00092880845 0)
(1.1212198 -0.00086695796 0)
(1.1209827 -0.00080928023 0)
(1.1207614 -0.00075548577 0)
(1.1205548 -0.00070530618 0)
(1.1203621 -0.00065849311 0)
(1.1201821 -0.00061481616 0)
(1.1200142 -0.00057406076 0)
(1.1198574 -0.00053602737 0)
(1.1197111 -0.00050053079 0)
(1.1195745 -0.00046739839 0)
(1.1194469 -0.00043646973 0)
(1.1193278 -0.00040759609 0)
(1.1192167 -0.00038064042 0)
(1.1191129 -0.00035547465 0)
(1.119016 -0.00033198057 0)
(1.1189255 -0.00031004657 0)
(1.118841 -0.00028956845 0)
(1.1187621 -0.00027044681 0)
(1.1186884 -0.00025259134 0)
(1.1186197 -0.0002359145 0)
(1.1185554 -0.00022034009 0)
(1.1184954 -0.0002057922 0)
(1.1184394 -0.00019220889 0)
(1.1183871 -0.00017952111 0)
(1.1183383 -0.00016767913 0)
(1.1182927 -0.00015661523 0)
(1.11825 -0.00014629223 0)
(1.1182103 -0.000136639 0)
(1.118173 -0.00012763788 0)
(1.1181384 -0.00011920602 0)
(1.1181059 -0.00011135924 0)
(1.1180757 -0.00010398913 0)
(1.1180473 -9.7156457e-05 0)
(1.1180211 -9.0705433e-05 0)
(1.1179963 -8.4791599e-05 0)
(1.1179734 -7.913769e-05 0)
(1.1179516 -7.4020454e-05 0)
(1.1179318 -6.8990098e-05 0)
(1.1179128 -6.4646705e-05 0)
(1.1178955 -6.0157575e-05 0)
(1.117879 -5.6585373e-05 0)
(1.1178635 -5.24317e-05 0)
(1.11785 -4.9736929e-05 0)
(1.1178349 -4.5801191e-05 0)
(1.1178261 -4.4314694e-05 0)
(1.1178083 -4.0569948e-05 0)
(1.0016583 -0.05381943 0)
(1.0359761 -0.10128444 0)
(1.0597199 -0.11073663 0)
(1.0628947 -0.10592202 0)
(1.0515569 -0.096228728 0)
(1.0340529 -0.083934061 0)
(1.0142795 -0.070327063 0)
(0.99360703 -0.056981334 0)
(0.97292577 -0.045107479 0)
(0.9531074 -0.03523675 0)
(0.93479538 -0.02740165 0)
(0.91829012 -0.021387228 0)
(0.90362379 -0.0168845 0)
(0.89068067 -0.01356971 0)
(0.87928174 -0.011147749 0)
(0.86923242 -0.0093736586 0)
(0.86034423 -0.0080569275 0)
(0.85244667 -0.0070571267 0)
(0.84539241 -0.006275238 0)
(0.83905793 -0.0056438286 0)
(0.83334126 -0.0051180914 0)
(0.82815884 -0.0046686728 0)
(0.82344212 -0.0042764176 0)
(0.81913467 -0.0039287387 0)
(0.81518961 -0.0036172031 0)
(0.81156765 -0.0033359698 0)
(0.80823544 -0.0030808033 0)
(0.8051644 -0.0028484682 0)
(0.80232979 -0.0026363689 0)
(0.79970999 -0.0024423385 0)
(0.79728597 -0.0022645191 0)
(0.79504086 -0.0021012904 0)
(0.79295963 -0.0019512259 0)
(0.7910288 -0.0018130634 0)
(0.78923627 -0.0016856836 0)
(0.7875711 -0.0015680924 0)
(0.78602338 -0.0014594055 0)
(0.78458411 -0.0013588354 0)
(0.78324511 -0.0012656801 0)
(0.78199889 -0.0011793116 0)
(0.7808386 -0.0010991673 0)
(0.77975798 -0.0010247415 0)
(0.77875127 -0.00095557917 0)
(0.77781317 -0.00089126868 0)
(0.77693881 -0.00083143735 0)
(0.77612368 -0.00077574674 0)
(0.77536362 -0.00072388858 0)
(0.77465481 -0.00067558165 0)
(0.77399367 -0.00063056854 0)
(0.77337693 -0.00058861259 0)
(0.77280153 -0.00054949579 0)
(0.77226464 -0.00051301729 0)
(0.77176363 -0.00047899182 0)
(0.77129606 -0.00044724823 0)
(0.77085966 -0.00041762879 0)
(0.77045234 -0.00038998791 0)
(0.77007211 -0.00036419057 0)
(0.76971717 -0.00034011168 0)
(0.76938581 -0.00031763543 0)
(0.76907644 -0.00029665379 0)
(0.7687876 -0.00027706569 0)
(0.76851791 -0.00025877684 0)
(0.76826609 -0.0002416996 0)
(0.76803095 -0.00022575193 0)
(0.76781139 -0.00021085781 0)
(0.76760635 -0.00019694717 0)
(0.76741488 -0.00018395545 0)
(0.76723608 -0.00017182255 0)
(0.7670691 -0.00016049279 0)
(0.76691316 -0.00014991302 0)
(0.76676752 -0.00014003341 0)
(0.7666315 -0.00013080586 0)
(0.76650446 -0.00012218667 0)
(0.76638582 -0.00011413344 0)
(0.76627501 -0.0001066098 0)
(0.76617152 -9.957995e-05 0)
(0.76607486 -9.3014792e-05 0)
(0.76598459 -8.6881911e-05 0)
(0.76590026 -8.1157547e-05 0)
(0.76582151 -7.5809205e-05 0)
(0.76574794 -7.0818992e-05 0)
(0.76567924 -6.615277e-05 0)
(0.76561504 -6.1799843e-05 0)
(0.76555512 -5.7722336e-05 0)
(0.76549911 -5.3925579e-05 0)
(0.76544685 -5.035818e-05 0)
(0.76539796 -4.7044025e-05 0)
(0.76535239 -4.3930031e-05 0)
(0.76530971 -4.1069215e-05 0)
(0.76526996 -3.8332734e-05 0)
(0.7652327 -3.5828591e-05 0)
(0.76519805 -3.3433114e-05 0)
(0.76516559 -3.1318508e-05 0)
(0.76513517 -2.920431e-05 0)
(0.7651071 -2.7385986e-05 0)
(0.76507997 -2.5524328e-05 0)
(0.76505664 -2.4063789e-05 0)
(0.76503057 -2.2545224e-05 0)
(0.76501445 -2.1587675e-05 0)
(0.76498346 -2.0984853e-05 0)
(0.91890839 -0.035821913 0)
(0.86271384 -0.062195638 0)
(0.7870597 -0.06251009 0)
(0.69536033 -0.054550395 0)
(0.61089745 -0.044531651 0)
(0.54411592 -0.034015972 0)
(0.49343012 -0.02418754 0)
(0.45479413 -0.01614423 0)
(0.42544582 -0.010265785 0)
(0.40347313 -0.006304145 0)
(0.38715766 -0.0037976294 0)
(0.3749622 -0.0023103384 0)
(0.36566192 -0.0014930154 0)
(0.35836272 -0.0010851186 0)
(0.35244268 -0.0009060723 0)
(0.34748201 -0.00084105135 0)
(0.34320348 -0.00082372362 0)
(0.33942726 -0.00081931006 0)
(0.33603793 -0.00081185199 0)
(0.33296114 -0.00079580154 0)
(0.33014778 -0.00077081194 0)
(0.32756384 -0.00073870994 0)
(0.3251842 -0.00070188955 0)
(0.32298902 -0.00066256563 0)
(0.32096172 -0.00062249931 0)
(0.31908785 -0.00058295704 0)
(0.31735449 -0.00054477116 0)
(0.31574995 -0.00050843392 0)
(0.3142636 -0.00047419168 0)
(0.31288574 -0.00044212494 0)
(0.31160755 -0.0004122099 0)
(0.31042101 -0.00038436204 0)
(0.30931883 -0.00035846518 0)
(0.30829438 -0.00033439021 0)
(0.30734165 -0.00031200633 0)
(0.30645515 -0.00029118713 0)
(0.30562991 -0.00027181379 0)
(0.30486136 -0.00025377647 0)
(0.30414535 -0.00023697438 0)
(0.30347807 -0.00022131524 0)
(0.302856 -0.00020671481 0)
(0.30227596 -0.0001930962 0)
(0.30173496 -0.00018038906 0)
(0.30123029 -0.00016852894 0)
(0.30075942 -0.00015745676 0)
(0.30032002 -0.00014711816 0)
(0.29990993 -0.00013746304 0)
(0.29952715 -0.00012844521 0)
(0.29916983 -0.00012002178 0)
(0.29883624 -0.00011215266 0)
(0.29852478 -0.00010480051 0)
(0.29823396 -9.7930714e-05 0)
(0.29796241 -9.1511046e-05 0)
(0.29770882 -8.5511616e-05 0)
(0.29747201 -7.9904853e-05 0)
(0.29725084 -7.466517e-05 0)
(0.29704429 -6.9768579e-05 0)
(0.29685138 -6.5192821e-05 0)
(0.2966712 -6.0917179e-05 0)
(0.29650291 -5.6921939e-05 0)
(0.29634572 -5.3188424e-05 0)
(0.2961989 -4.9699229e-05 0)
(0.29606176 -4.6438101e-05 0)
(0.29593366 -4.3389753e-05 0)
(0.29581401 -4.0540307e-05 0)
(0.29570224 -3.7877175e-05 0)
(0.29559784 -3.5388633e-05 0)
(0.29550032 -3.3063705e-05 0)
(0.29540922 -3.0892062e-05 0)
(0.29532413 -2.8863464e-05 0)
(0.29524464 -2.696823e-05 0)
(0.29517039 -2.5197015e-05 0)
(0.29510103 -2.3541365e-05 0)
(0.29503624 -2.199321e-05 0)
(0.29497573 -2.0546076e-05 0)
(0.29491919 -1.9193517e-05 0)
(0.29486638 -1.793036e-05 0)
(0.29481705 -1.675043e-05 0)
(0.29477097 -1.5649371e-05 0)
(0.29472793 -1.462043e-05 0)
(0.29468771 -1.3660393e-05 0)
(0.29465016 -1.2762078e-05 0)
(0.29461507 -1.1923781e-05 0)
(0.2945823 -1.1137523e-05 0)
(0.29455168 -1.040547e-05 0)
(0.29452309 -9.7161735e-06 0)
(0.29449637 -9.0770667e-06 0)
(0.29447142 -8.4789907e-06 0)
(0.29444808 -7.9300719e-06 0)
(0.29442632 -7.3961118e-06 0)
(0.29440599 -6.9097657e-06 0)
(0.294387 -6.460276e-06 0)
(0.2943692 -6.0628499e-06 0)
(0.29435259 -5.6566139e-06 0)
(0.29433715 -5.293718e-06 0)
(0.2943225 -4.9716041e-06 0)
(0.29430919 -4.6856472e-06 0)
(0.29429569 -4.5322686e-06 0)
(0.29428502 -4.400128e-06 0)
(0.29426875 -5.0536138e-06 0)
)
;

boundaryField
{
    top
    {
        type            fixedValue;
        value           uniform (0 0 0);
    }
    inlet
    {
        type            fixedValue;
        value           uniform (1 0 0);
    }
    outlet
    {
        type            zeroGradient;
    }
    bottom
    {
        type            fixedValue;
        value           uniform (0 0 0);
    }
    back
    {
        type            empty;
    }
    front
    {
        type            empty;
    }
}


// ************************************************************************* //
