/*--------------------------------*- C++ -*----------------------------------*\
| =========                 |                                                 |
| \\      /  F ield         | OpenFOAM: The Open Source CFD Toolbox           |
|  \\    /   O peration     | Version:  v1812                                 |
|   \\  /    A nd           | Web:      www.OpenFOAM.com                      |
|    \\/     M anipulation  |                                                 |
\*---------------------------------------------------------------------------*/
FoamFile
{
    version     2.0;
    format      ascii;
    class       surfaceScalarField;
    location    "14.9";
    object      phi;
}
// * * * * * * * * * * * * * * * * * * * * * * * * * * * * * * * * * * * * * //

dimensions      [0 3 -1 0 0 0 0];
oriented        oriented;


internalField   nonuniform List<scalar> 
1890
(
0.0093061958
0.00069380425
0.0082843931
0.0010218027
0.0073298986
0.00095449446
0.0064869553
0.00084294331
0.0057695845
0.00071737078
0.00518986
0.00057972443
0.004738168
0.00045169205
0.00439519
0.00034297802
0.0041390268
0.00025616318
0.003949107
0.00018991983
0.003807888
0.00014121897
0.0037013782
0.0001065098
0.003619058
8.2320225e-05
0.0035534117
6.5646248e-05
0.0034992845
5.4127252e-05
0.0034532444
4.6040041e-05
0.0034130501
4.0194285e-05
0.0033772574
3.579275e-05
0.0033449386
3.2318759e-05
0.0033154893
2.9449285e-05
0.0032885008
2.6988586e-05
0.0032636805
2.482031e-05
0.003240805
2.2875488e-05
0.0032196926
2.1112421e-05
0.0032001879
1.9504655e-05
0.0031821539
1.803401e-05
0.0031654672
1.6686721e-05
0.0031500158
1.5451356e-05
0.0031356979
1.4317861e-05
0.0031224209
1.327707e-05
0.0031101003
1.2320596e-05
0.0030986596
1.1440727e-05
0.0030880291
1.0630443e-05
0.0030781458
9.8833735e-06
0.003068952
9.1937761e-06
0.0030603955
8.5564961e-06
0.0030524285
7.966913e-06
0.0030450076
7.4208954e-06
0.0030380929
6.9147399e-06
0.0030316478
6.4451183e-06
0.0030256387
6.0090532e-06
0.0030200349
5.6038461e-06
0.0030148078
5.2270766e-06
0.0030099313
4.8765437e-06
0.003005381
4.550255e-06
0.0030011346
4.2464062e-06
0.0029971713
3.9633394e-06
0.0029934717
3.6995587e-06
0.002990018
3.4536774e-06
0.0029867936
3.2244172e-06
0.002983783
3.0106157e-06
0.0029809718
2.8111737e-06
0.0029783467
2.6250939e-06
0.0029758953
2.4514454e-06
0.002973606
2.289362e-06
0.0029714679
2.1380665e-06
0.0029694711
1.9968141e-06
0.0029676061
1.864956e-06
0.0029658642
1.7418582e-06
0.0029642373
1.626937e-06
0.0029627176
1.5196481e-06
0.0029612982
1.4194636e-06
0.0029599723
1.3259051e-06
0.0029587338
1.2385129e-06
0.0029575769
1.1568658e-06
0.0029564964
1.0805902e-06
0.002955487
1.0093298e-06
0.0029545442
9.4277069e-07
0.0029536635
8.8063326e-07
0.0029528409
8.2261395e-07
0.0029520724
7.6846047e-07
0.0029513546
7.1789182e-07
0.002950684
6.7064611e-07
0.0029500575
6.264868e-07
0.0029494723
5.8519797e-07
0.0029489257
5.4658872e-07
0.0029484152
5.1052047e-07
0.0029479383
4.7681826e-07
0.0029474929
4.4539826e-07
0.0029470768
4.1607189e-07
0.002946688
3.8874415e-07
0.0029463249
3.6320214e-07
0.0029459856
3.3935356e-07
0.0029456686
3.1698765e-07
0.0029453726
2.9609118e-07
0.0029450961
2.7643473e-07
0.0029448379
2.5822348e-07
0.0029445967
2.4106303e-07
0.0029443712
2.2532417e-07
0.002944161
2.1040317e-07
0.0029439642
1.9683746e-07
0.0029437803
1.8376835e-07
0.0029436083
1.7211367e-07
0.002943448
1.603837e-07
0.0029432978
1.5019956e-07
0.0029431574
1.4030688e-07
0.0029430254
1.3211391e-07
0.0029429003
1.2510728e-07
0.0029427808
1.1940129e-07
1.2576322e-07
0.010339525
0.00035427931
0.010570754
0.00079057333
0.010606301
0.00091894817
0.010547572
0.00090167133
0.010422317
0.0008426262
0.010244356
0.00075768557
0.010039421
0.00065662743
0.0098287427
0.00055365586
0.009625135
0.00045977083
0.0094353013
0.00037975354
0.0092624277
0.00031409258
0.0091075332
0.00026140426
0.008970154
0.00021969949
0.0088489023
0.00018689786
0.0087419716
0.00016105802
0.0086474927
0.00014051894
0.008563694
0.00012399296
0.0084890107
0.000110476
0.0084221096
9.9219873e-05
0.0083618775
8.968141e-05
0.0083073954
8.1470674e-05
0.0082579079
7.4307854e-05
0.0082127929
6.7990501e-05
0.0081715353
6.2369991e-05
0.0081337049
5.7335014e-05
0.0080989388
5.2800182e-05
0.0080669272
4.8698263e-05
0.0080374036
4.4974955e-05
0.0080101361
4.158539e-05
0.0079849213
3.8491849e-05
0.0079615798
3.5662157e-05
0.0079399519
3.3068615e-05
0.0079198952
3.0687176e-05
0.0079012817
2.8496854e-05
0.0078839962
2.6479245e-05
0.0078679345
2.4618146e-05
0.0078530022
2.2899244e-05
0.0078391133
2.1309846e-05
0.0078261893
1.9838661e-05
0.0078141589
1.8475611e-05
0.0078029562
1.7211665e-05
0.0077925214
1.6038725e-05
0.007782799
1.4949479e-05
0.0077737382
1.3937339e-05
0.0077652921
1.2996323e-05
0.0077574175
1.2121005e-05
0.0077500744
1.1306454e-05
0.0077432258
1.0548149e-05
0.0077368375
9.8419714e-06
0.0077308778
9.1841326e-06
0.0077253173
8.5711422e-06
0.0077201286
7.9998097e-06
0.0077152866
7.4671626e-06
0.0077107675
6.9704825e-06
0.0077065496
6.50725e-06
0.0077026125
6.0751374e-06
0.0076989373
5.6720186e-06
0.0076955064
5.2959016e-06
0.0076923033
4.9449596e-06
0.0076893128
4.6174701e-06
0.0076865206
4.3118305e-06
0.0076839135
4.0265614e-06
0.0076814792
3.7602563e-06
0.0076792061
3.5116372e-06
0.0076770834
3.2795025e-06
0.0076751012
3.0627459e-06
0.0076732501
2.8603608e-06
0.0076715215
2.6713995e-06
0.0076699072
2.49498e-06
0.0076683995
2.330288e-06
0.0076669915
2.1765202e-06
0.0076656765
2.0329307e-06
0.0076644483
1.898827e-06
0.0076633013
1.7735359e-06
0.0076622299
1.6564935e-06
0.0076612293
1.547139e-06
0.0076602948
1.4450197e-06
0.007659422
1.3496511e-06
0.0076586067
1.2606575e-06
0.0076578453
1.1775501e-06
0.0076571341
1.1000302e-06
0.0076564698
1.0275204e-06
0.0076558492
9.5988459e-07
0.0076552697
8.9649075e-07
0.0076547283
8.3743787e-07
0.0076542228
7.8190585e-07
0.0076537505
7.304845e-07
0.0076533094
6.8216208e-07
0.0076528971
6.376203e-07
0.0076525126
5.9496712e-07
0.0076521528
5.5669517e-07
0.0076518171
5.1951868e-07
0.0076515027
4.8638934e-07
0.0076512105
4.5244515e-07
0.0076509356
4.2511206e-07
0.0076506807
3.9528338e-07
0.0076504386
3.7435021e-07
0.0076502165
3.4710827e-07
0.0076499998
3.360629e-07
3.1075933e-07
0.010188704
0.00016557515
0.010530487
0.00044879097
0.010851453
0.00059798174
0.011124174
0.00062895021
0.011350581
0.00061621883
0.011524486
0.00058378053
0.01164633
0.00053478419
0.011724155
0.00047583049
0.011767999
0.00041592665
0.011786639
0.00036111399
0.011787114
0.0003136171
0.011775058
0.00027346025
0.011754861
0.00023989718
0.011729768
0.00021199031
0.011702054
0.00018877261
0.011673239
0.00016933389
0.011644339
0.00015289297
0.011616003
0.00013881183
0.011588629
0.0001265938
0.011562446
0.00011586445
0.011537572
0.00010634494
0.011514052
9.7827001e-05
0.011491889
9.0153363e-05
0.011471056
8.3203366e-05
0.011451509
7.6882613e-05
0.011433193
7.1115563e-05
0.011416051
6.5840298e-05
0.011400021
6.1004912e-05
0.011385042
5.6565074e-05
0.011371051
5.2482339e-05
0.01135799
4.872303e-05
0.011345801
4.5257389e-05
0.01133443
4.2058995e-05
0.011323822
3.9104273e-05
0.011313929
3.6372121e-05
0.011304704
3.3843606e-05
0.011296101
3.1501692e-05
0.01128808
2.9331019e-05
0.011280601
2.7317704e-05
0.011273628
2.5449181e-05
0.011267125
2.3714055e-05
0.011261062
2.2101956e-05
0.011255408
2.0603459e-05
0.011250135
1.9209949e-05
0.011245218
1.7913566e-05
0.011240632
1.6707113e-05
0.011236354
1.5583981e-05
0.011232364
1.4538118e-05
0.011228643
1.3563936e-05
0.01122517
1.2656303e-05
0.011221931
1.1810491e-05
0.011218909
1.102211e-05
0.011216089
1.0287135e-05
0.011213457
9.6018205e-06
0.011211002
8.9627133e-06
0.01120871
8.3666264e-06
0.011206572
7.8105965e-06
0.011204576
7.2918868e-06
0.011202713
6.8079299e-06
0.011200974
6.3563555e-06
0.011199351
5.9349626e-06
0.011197836
5.5416779e-06
0.011196421
5.1746111e-06
0.011195101
4.8319744e-06
0.011193868
4.5121345e-06
0.011192718
4.2135604e-06
0.011191643
3.9348335e-06
0.01119064
3.6746327e-06
0.011189703
3.4317275e-06
0.011188829
3.2049361e-06
0.011188012
2.9931999e-06
0.011187249
2.7954683e-06
0.011186537
2.6108195e-06
0.011185873
2.4383635e-06
0.011185252
2.2773249e-06
0.011184672
2.1269182e-06
0.01118413
1.9865124e-06
0.011183625
1.855376e-06
0.011183152
1.7330038e-06
0.011182711
1.6186532e-06
0.0111823
1.5119454e-06
0.011181915
1.4121201e-06
0.011181556
1.3190546e-06
0.01118122
1.2318291e-06
0.011180907
1.1506821e-06
0.011180614
1.0745107e-06
0.011180341
1.0041097e-06
0.011180086
9.3728465e-07
0.011179847
8.7621181e-07
0.011179624
8.1776402e-07
0.011179416
7.6532351e-07
0.011179223
7.1274455e-07
0.01117904
6.6809953e-07
0.011178872
6.2102073e-07
0.011178712
5.8528751e-07
0.011178566
5.4113688e-07
0.011178425
5.1519993e-07
0.0111783
4.7227917e-07
0.011178177
4.5904354e-07
4.1607291e-07
0.010097182
6.8393549e-05
0.010346961
0.0001990111
0.010662469
0.00028247385
0.010982753
0.00030866646
0.011290229
0.00030874339
0.011575251
0.00029875786
0.011829022
0.00028101344
0.012047865
0.00025698754
0.012233272
0.00023051981
0.01238924
0.00020514589
0.012520295
0.00018256234
0.012630755
0.00016299955
0.012724428
0.0001462249
0.012804515
0.00013190312
0.012873613
0.00011967426
0.012933772
0.00010917462
0.012986596
0.00010006908
0.013033332
9.2076374e-05
0.01307495
8.4975258e-05
0.013112216
7.8598616e-05
0.013145739
7.2822304e-05
0.013176012
6.7553939e-05
0.013203441
6.2723924e-05
0.013228366
5.8278896e-05
0.013251071
5.417699e-05
0.013271802
5.0384436e-05
0.01329077
4.6873168e-05
0.013308155
4.3619184e-05
0.013324119
4.0601464e-05
0.0133388
3.7801285e-05
0.013352321
3.5201757e-05
0.013364791
3.2787534e-05
0.013376306
3.0544595e-05
0.01338695
2.846009e-05
0.0133968
2.6522222e-05
0.013405923
2.4720137e-05
0.013414381
2.3043846e-05
0.013422228
2.1484147e-05
0.013429513
2.0032563e-05
0.013436281
1.8681274e-05
0.013442572
1.7423065e-05
0.013448423
1.6251281e-05
0.013453866
1.5159763e-05
0.013458933
1.414283e-05
0.013463652
1.3195221e-05
0.013468047
1.2312071e-05
0.013472142
1.1488872e-05
0.013475958
1.0721443e-05
0.013479517
1.0005915e-05
0.013482834
9.3386938e-06
0.013485928
8.7164417e-06
0.013488814
8.1360733e-06
0.013491507
7.5947026e-06
0.013494019
7.0896688e-06
0.013496363
6.6184973e-06
0.013498551
6.1788881e-06
0.013500593
5.7686981e-06
0.013502499
5.385925e-06
0.013504278
5.0287153e-06
0.013505939
4.6953373e-06
0.01350749
4.3841723e-06
0.013508938
4.0937336e-06
0.01351029
3.8226159e-06
0.013511552
3.569532e-06
0.013512731
3.3332744e-06
0.013513832
3.1127223e-06
0.01351486
2.906832e-06
0.01351582
2.7146142e-06
0.013516716
2.5351562e-06
0.013517554
2.3675992e-06
0.013518336
2.211129e-06
0.013519066
2.0650101e-06
0.013519749
1.9285648e-06
0.013520386
1.8011379e-06
0.013520981
1.6821768e-06
0.013521537
1.5710819e-06
0.013522056
1.4673833e-06
0.013522541
1.3705222e-06
0.013522994
1.2801151e-06
0.013523417
1.1956012e-06
0.013523812
1.11674e-06
0.013524181
1.0429412e-06
0.013524526
9.741774e-07
0.013524848
9.0970604e-07
0.013525149
8.4991191e-07
0.01352543
7.9366209e-07
0.013525692
7.4160369e-07
0.013525937
6.9216514e-07
0.013526166
6.4742037e-07
0.01352638
6.0400271e-07
0.01352658
5.6507406e-07
0.013526767
5.2578058e-07
0.013526942
4.9377324e-07
0.013527104
4.584821e-07
0.013527256
4.325813e-07
0.013527398
3.9884408e-07
0.013527534
3.8081524e-07
0.013527658
3.4712025e-07
0.013527779
3.3802781e-07
3.0563333e-07
0.010068394
-5.0836023e-12
0.010267405
-1.3224266e-11
0.010549879
-1.431362e-11
0.010858545
-1.2175827e-11
0.011167288
-9.3683366e-12
0.011466046
-9.5198689e-12
0.01174706
-1.0851205e-11
0.012004047
-1.2870238e-11
0.012234567
-1.4402879e-11
0.012439713
-1.5441891e-11
0.012622275
-1.4306602e-11
0.012785275
-1.0805772e-11
0.0129315
-6.9492222e-12
0.013063403
-3.0819977e-12
0.013183077
5.0420217e-13
0.013292252
2.298899e-12
0.013392321
2.9094348e-12
0.013484397
3.0714544e-12
0.013569373
3.4950206e-12
0.013647971
3.4955952e-12
0.013720793
1.9826046e-12
0.013788347
2.6409856e-13
0.013851071
-2.9350363e-13
0.01390935
-5.1621666e-13
0.013963527
4.0656917e-13
0.014013912
2.0312402e-12
0.014060785
2.6278389e-12
0.014104404
3.1049088e-12
0.014145006
4.7118358e-12
0.014182807
4.7451326e-12
0.014218009
4.3586305e-12
0.014250796
1.8782832e-12
0.014281341
-1.0714234e-12
0.014309801
-4.4356886e-12
0.014336323
-6.035751e-12
0.014361043
-4.3226651e-12
0.014384087
1.2396373e-13
0.014405571
5.1822546e-12
0.014425604
8.9598307e-12
0.014444285
1.0556349e-11
0.014461708
9.2868042e-12
0.014477959
4.4624241e-12
0.014493119
-3.6813217e-13
0.014507262
-6.2991614e-12
0.014520457
-9.2511656e-12
0.014532769
-8.6344053e-12
0.014544258
-5.7687264e-12
0.014554979
-8.6157912e-13
0.014564985
7.253147e-12
0.014574324
1.5869509e-11
0.014583041
1.9399475e-11
0.014591177
1.3345645e-11
0.014598771
4.5927849e-12
0.014605861
-7.5326597e-12
0.014612479
-1.7493965e-11
0.014618658
-1.7944385e-11
0.014624427
-8.3878825e-12
0.014629813
4.0739835e-12
0.014634842
1.9349547e-11
0.014639537
2.7204595e-11
0.014643921
2.5532539e-11
0.014648015
1.4994265e-11
0.014651837
2.7704122e-12
0.014655407
-1.3009227e-11
0.01465874
-2.3211472e-11
0.014661853
-2.1572203e-11
0.01466476
-1.1301615e-11
0.014667474
6.6672077e-12
0.01467001
2.8918691e-11
0.014672377
3.9679857e-11
0.014674588
3.8030929e-11
0.014676653
1.837548e-11
0.014678582
-5.810787e-12
0.014680383
-3.1354895e-11
0.014682065
-4.6180686e-11
0.014683636
-3.3993885e-11
0.014685104
-7.6392816e-12
0.014686474
2.8741176e-11
0.014687754
5.6367313e-11
0.01468895
5.3499972e-11
0.014690066
2.8639994e-11
0.01469111
1.2906088e-12
0.014692084
-4.0304815e-11
0.014692993
-5.9337804e-11
0.014693844
-2.91151e-11
0.014694637
-1.5488505e-12
0.014695378
1.4622698e-11
0.014696071
5.7668734e-11
0.014696719
1.2521623e-10
0.014697322
6.2549915e-11
0.014697886
-6.2110679e-11
0.014698413
-1.0336073e-10
0.014698909
-9.7324454e-11
0.014699366
2.7124735e-11
0.014699796
1.3179459e-10
0.014700196
8.1124802e-11
0.014700579
-1.4676478e-11
0.014700925
-6.3137298e-11
0.014701262
-7.6155001e-11
-7.2316967e-11
0.010068394
-6.8393558e-05
0.010267405
-0.00019901113
0.010549879
-0.00028247388
0.010858545
-0.00030866649
0.011167288
-0.00030874342
0.011466046
-0.00029875789
0.01174706
-0.00028101346
0.012004047
-0.00025698756
0.012234567
-0.00023051983
0.012439713
-0.00020514591
0.012622275
-0.00018256236
0.012785275
-0.00016299957
0.0129315
-0.00014622491
0.013063403
-0.00013190312
0.013183077
-0.00011967427
0.013292252
-0.00010917461
0.013392321
-0.00010006907
0.013484397
-9.2076363e-05
0.013569373
-8.4975249e-05
0.013647971
-7.859861e-05
0.013720793
-7.2822301e-05
0.013788347
-6.7553936e-05
0.013851071
-6.2723924e-05
0.01390935
-5.8278897e-05
0.013963527
-5.4176988e-05
0.014013912
-5.0384433e-05
0.014060785
-4.6873164e-05
0.014104404
-4.3619178e-05
0.014145006
-4.0601456e-05
0.014182807
-3.7801275e-05
0.014218009
-3.5201752e-05
0.014250796
-3.2787533e-05
0.014281341
-3.0544598e-05
0.014309801
-2.8460098e-05
0.014336323
-2.6522229e-05
0.014361043
-2.4720139e-05
0.014384087
-2.3043843e-05
0.014405571
-2.148414e-05
0.014425604
-2.0032549e-05
0.014444285
-1.8681257e-05
0.014461708
-1.7423053e-05
0.014477959
-1.6251272e-05
0.014493119
-1.5159762e-05
0.014507262
-1.4142837e-05
0.014520457
-1.3195236e-05
0.014532769
-1.2312087e-05
0.014544258
-1.1488882e-05
0.014554979
-1.0721444e-05
0.014564985
-1.0005901e-05
0.014574324
-9.338668e-06
0.014583041
-8.7164187e-06
0.014591177
-8.1360527e-06
0.014598771
-7.594697e-06
0.014605861
-7.0896799e-06
0.014612479
-6.618518e-06
0.014618658
-6.1789067e-06
0.014624427
-5.7687035e-06
0.014629813
-5.3859194e-06
0.014634842
-5.0286933e-06
0.014639537
-4.6952969e-06
0.014643921
-4.3841363e-06
0.014648015
-4.0937077e-06
0.014651837
-3.8226118e-06
0.014655407
-3.5695471e-06
0.01465874
-3.3333088e-06
0.014661853
-3.1127595e-06
0.01466476
-2.9068483e-06
0.014667474
-2.7146043e-06
0.01467001
-2.5351203e-06
0.014672377
-2.367537e-06
0.014674588
-2.2110823e-06
0.014676653
-2.0649865e-06
0.014678582
-1.9285759e-06
0.014680383
-1.8011846e-06
0.014682065
-1.6822288e-06
0.014683636
-1.571118e-06
0.014685104
-1.4673831e-06
0.014686474
-1.3704842e-06
0.014687754
-1.2800585e-06
0.01468895
-1.195541e-06
0.014690067
-1.1167068e-06
0.01469111
-1.0429533e-06
0.014692084
-9.7421804e-07
0.014692993
-9.0976879e-07
0.014693844
-8.4994929e-07
0.014694637
-7.936539e-07
0.014695378
-7.415838e-07
0.014696071
-6.9211583e-07
0.014696719
-6.4727596e-07
0.014697322
-6.0382074e-07
0.014697886
-5.6525353e-07
0.014698413
-5.2610365e-07
0.014698909
-4.9358238e-07
0.014699366
-4.5817913e-07
0.014699796
-4.3275455e-07
0.014700197
-3.9910993e-07
0.014700579
-3.8080569e-07
0.014700925
-3.4701202e-07
0.014701262
-3.3804288e-07
-3.0572502e-07
0.010097182
-0.00016557515
0.010346961
-0.000448791
0.010662469
-0.00059798177
0.010982753
-0.00062895025
0.011290229
-0.00061621886
0.011575251
-0.00058378055
0.011829022
-0.0005347842
0.012047865
-0.0004758305
0.012233272
-0.00041592666
0.01238924
-0.000361114
0.012520295
-0.00031361712
0.012630755
-0.00027346026
0.012724428
-0.00023989719
0.012804515
-0.00021199031
0.012873613
-0.00018877261
0.012933772
-0.00016933388
0.012986596
-0.00015289296
0.013033332
-0.00013881183
0.01307495
-0.00012659379
0.013112216
-0.00011586444
0.013145739
-0.00010634494
0.013176012
-9.7826999e-05
0.013203441
-9.0153362e-05
0.013228366
-8.3203366e-05
0.013251071
-7.6882615e-05
0.013271802
-7.1115563e-05
0.01329077
-6.5840294e-05
0.013308155
-6.1004907e-05
0.013324119
-5.6565068e-05
0.0133388
-5.2482336e-05
0.013352321
-4.8723024e-05
0.013364791
-4.5257387e-05
0.013376306
-4.2058996e-05
0.01338695
-3.9104274e-05
0.0133968
-3.6372125e-05
0.013405923
-3.3843612e-05
0.013414381
-3.1501696e-05
0.013422228
-2.9331016e-05
0.013429513
-2.7317697e-05
0.013436281
-2.5449173e-05
0.013442572
-2.3714041e-05
0.013448423
-2.2101948e-05
0.013453866
-2.0603456e-05
0.013458933
-1.9209954e-05
0.013463652
-1.7913576e-05
0.013468047
-1.6707123e-05
0.013472142
-1.5583991e-05
0.013475959
-1.4538116e-05
0.013479517
-1.356393e-05
0.013482834
-1.2656296e-05
0.013485928
-1.1810474e-05
0.013488814
-1.1022098e-05
0.013491507
-1.0287125e-05
0.013494019
-9.601817e-06
0.013496363
-8.9627199e-06
0.013498551
-8.3666399e-06
0.013500593
-7.810616e-06
0.013502499
-7.2918912e-06
0.013504278
-6.8079219e-06
0.013505939
-6.3563393e-06
0.01350749
-5.9349312e-06
0.013508938
-5.5416511e-06
0.01351029
-5.1745941e-06
0.013511552
-4.8319797e-06
0.013512731
-4.5121507e-06
0.013513832
-4.2135816e-06
0.01351486
-3.934856e-06
0.01351582
-3.6746403e-06
0.013516716
-3.4317151e-06
0.013517554
-3.2049196e-06
0.013518336
-2.9931664e-06
0.013519066
-2.7954407e-06
0.013519749
-2.6108085e-06
0.013520386
-2.4383689e-06
0.013520981
-2.2773456e-06
0.013521537
-2.1269514e-06
0.013522056
-1.9865451e-06
0.013522541
-1.8553909e-06
0.013522994
-1.7329881e-06
0.013523417
-1.6186143e-06
0.013523812
-1.5118979e-06
0.013524181
-1.4120808e-06
0.013524526
-1.3190419e-06
0.013524848
-1.231844e-06
0.013525149
-1.1507595e-06
0.01352543
-1.0745611e-06
0.013525692
-1.0040528e-06
0.013525937
-9.3724346e-07
0.013526166
-8.7630771e-07
0.01352638
-8.1778581e-07
0.01352658
-7.650261e-07
0.013526767
-7.1251236e-07
0.013526942
-6.683443e-07
0.013527104
-6.2133318e-07
0.013527256
-5.8525799e-07
0.013527399
-5.4103308e-07
0.013527533
-5.1516533e-07
0.013527658
-4.7222887e-07
0.013527779
-4.5902745e-07
-4.1608167e-07
0.010188704
-0.00035427932
0.010530487
-0.00079057335
0.010851453
-0.0009189482
0.011124174
-0.00090167137
0.011350581
-0.00084262623
0.011524486
-0.00075768559
0.01164633
-0.00065662744
0.011724155
-0.00055365586
0.011767999
-0.00045977083
0.011786639
-0.00037975354
0.011787114
-0.00031409259
0.011775058
-0.00026140427
0.011754861
-0.0002196995
0.011729768
-0.00018689787
0.011702054
-0.00016105802
0.011673239
-0.00014051894
0.011644339
-0.00012399295
0.011616003
-0.00011047599
0.011588629
-9.9219866e-05
0.011562446
-8.9681403e-05
0.011537572
-8.1470669e-05
0.011514052
-7.4307849e-05
0.01149189
-6.7990499e-05
0.011471056
-6.2369991e-05
0.011451509
-5.7335015e-05
0.011433193
-5.2800185e-05
0.011416051
-4.8698265e-05
0.011400021
-4.4974953e-05
0.011385042
-4.158539e-05
0.011371051
-3.8491846e-05
0.01135799
-3.5662154e-05
0.011345801
-3.306861e-05
0.01133443
-3.0687171e-05
0.011323822
-2.849685e-05
0.011313929
-2.6479244e-05
0.011304704
-2.461815e-05
0.011296101
-2.2899251e-05
0.01128808
-2.1309853e-05
0.011280601
-1.9838666e-05
0.011273628
-1.847561e-05
0.011267125
-1.7211661e-05
0.011261062
-1.6038714e-05
0.011255408
-1.4949471e-05
0.011250135
-1.3937332e-05
0.011245218
-1.2996322e-05
0.011240632
-1.2121011e-05
0.011236354
-1.1306459e-05
0.011232364
-1.0548158e-05
0.011228643
-9.8419794e-06
0.01122517
-9.1841363e-06
0.011221931
-8.5711458e-06
0.011218909
-7.9998009e-06
0.011216089
-7.467149e-06
0.011213457
-6.9704643e-06
0.011211002
-6.5072348e-06
0.01120871
-6.0751394e-06
0.011206572
-5.6720309e-06
0.011204576
-5.2959247e-06
0.011202713
-4.9449784e-06
0.011200974
-4.6174786e-06
0.011199351
-4.3118284e-06
0.011197836
-4.0265393e-06
0.011196421
-3.7602301e-06
0.011195101
-3.5116108e-06
0.011193868
-3.2794861e-06
0.011192718
-3.0627479e-06
0.011191643
-2.8603784e-06
0.01119064
-2.6714286e-06
0.011189703
-2.4950166e-06
0.011188829
-2.3303073e-06
0.011188012
-2.1765217e-06
0.011187249
-2.032906e-06
0.011186537
-1.8987833e-06
0.011185873
-1.7734935e-06
0.011185252
-1.6564691e-06
0.011184672
-1.5471449e-06
0.01118413
-1.4450636e-06
0.011183625
-1.3497117e-06
0.011183152
-1.260714e-06
0.011182711
-1.1775671e-06
0.0111823
-1.0999987e-06
0.011181915
-1.0274578e-06
0.011181556
-9.5980261e-07
0.01118122
-8.9643562e-07
0.011180907
-8.3743329e-07
0.011180614
-7.8196455e-07
0.011180341
-7.3056605e-07
0.011180086
-6.8220386e-07
0.011179847
-6.3767196e-07
0.011179624
-5.9502832e-07
0.011179416
-5.565336e-07
0.011179223
-5.1915203e-07
0.01117904
-4.8629067e-07
0.011178872
-4.5279584e-07
0.011178712
-4.2542118e-07
0.011178566
-3.9518573e-07
0.011178425
-3.7416144e-07
0.0111783
-3.4706534e-07
0.011178177
-3.36002e-07
-3.107004e-07
0.010339525
-0.00069380425
0.010570754
-0.0010218027
0.010606301
-0.00095449448
0.010547572
-0.00084294333
0.010422317
-0.0007173708
0.010244356
-0.00057972444
0.010039421
-0.00045169205
0.0098287427
-0.00034297801
0.009625135
-0.00025616318
0.0094353013
-0.00018991983
0.0092624277
-0.00014121897
0.0091075332
-0.0001065098
0.008970154
-8.2320226e-05
0.0088489023
-6.5646249e-05
0.0087419716
-5.4127255e-05
0.0086474927
-4.6040044e-05
0.008563694
-4.0194286e-05
0.0084890108
-3.579275e-05
0.0084221096
-3.2318756e-05
0.0083618775
-2.9449281e-05
0.0083073954
-2.6988578e-05
0.0082579079
-2.4820303e-05
0.0082127929
-2.2875482e-05
0.0081715353
-2.1112419e-05
0.0081337049
-1.9504656e-05
0.0080989388
-1.8034017e-05
0.0080669272
-1.6686727e-05
0.0080374036
-1.5451364e-05
0.0080101361
-1.4317863e-05
0.0079849213
-1.3277071e-05
0.0079615798
-1.232059e-05
0.0079399519
-1.1440719e-05
0.0079198951
-1.0630433e-05
0.0079012817
-9.8833646e-06
0.0078839962
-9.1937722e-06
0.0078679345
-8.5564989e-06
0.0078530022
-7.9669232e-06
0.0078391133
-7.4209083e-06
0.0078261894
-6.9147502e-06
0.0078141589
-6.445126e-06
0.0078029563
-6.0090509e-06
0.0077925214
-5.6038381e-06
0.007782799
-5.2270621e-06
0.0077737382
-4.8765283e-06
0.0077652921
-4.5502457e-06
0.0077574175
-4.2464032e-06
0.0077500744
-3.9633488e-06
0.0077432258
-3.6995739e-06
0.0077368375
-3.4536945e-06
0.0077308778
-3.2244357e-06
0.0077253173
-3.010622e-06
0.0077201286
-2.8111694e-06
0.0077152866
-2.6250764e-06
0.0077107675
-2.4514173e-06
0.0077065496
-2.2893386e-06
0.0077026126
-2.1380521e-06
0.0076989374
-1.9968258e-06
0.0076955064
-1.8649817e-06
0.0076923033
-1.7418919e-06
0.0076893128
-1.6269684e-06
0.0076865206
-1.5196606e-06
0.0076839135
-1.4194552e-06
0.0076814792
-1.325874e-06
0.007679206
-1.2384693e-06
0.0076770834
-1.1568278e-06
0.0076751012
-1.0805691e-06
0.0076732502
-1.0093405e-06
0.0076715216
-9.4281452e-07
0.0076699072
-8.8068743e-07
0.0076683996
-8.2266799e-07
0.0076669915
-7.6848415e-07
0.0076656765
-7.1787312e-07
0.0076644483
-6.7059479e-07
0.0076633012
-6.2641663e-07
0.0076622299
-5.8514102e-07
0.0076612294
-5.4657135e-07
0.0076602949
-5.1054907e-07
0.007659422
-4.7689561e-07
0.0076586068
-4.4548467e-07
0.0076578453
-4.1613398e-07
0.0076571341
-3.8875077e-07
0.0076564698
-3.6314392e-07
0.0076558492
-3.3926112e-07
0.0076552697
-3.1687928e-07
0.0076547283
-2.9604541e-07
0.0076542229
-2.7646303e-07
0.0076537506
-2.5827604e-07
0.0076533094
-2.4117375e-07
0.0076528971
-2.2548282e-07
0.0076525126
-2.1041406e-07
0.007652153
-1.9666253e-07
0.0076518173
-1.8360636e-07
0.0076515028
-1.7205633e-07
0.0076512105
-1.6040797e-07
0.0076509356
-1.5029095e-07
0.0076506808
-1.4041023e-07
0.0076504386
-1.3209409e-07
0.0076502165
-1.2500815e-07
0.0076499999
-1.1933775e-07
-1.2571447e-07
0.0093061957
0.0082843931
0.0073298986
0.0064869553
0.0057695845
0.00518986
0.004738168
0.00439519
0.0041390268
0.003949107
0.003807888
0.0037013782
0.003619058
0.0035534117
0.0034992845
0.0034532444
0.0034130501
0.0033772574
0.0033449386
0.0033154893
0.0032885008
0.0032636805
0.003240805
0.0032196926
0.0032001879
0.0031821539
0.0031654672
0.0031500158
0.0031356979
0.0031224209
0.0031101003
0.0030986595
0.0030880291
0.0030781458
0.003068952
0.0030603955
0.0030524286
0.0030450076
0.0030380929
0.0030316478
0.0030256387
0.0030200349
0.0030148078
0.0030099313
0.0030053811
0.0030011347
0.0029971713
0.0029934717
0.002990018
0.0029867936
0.0029837829
0.0029809718
0.0029783467
0.0029758953
0.002973606
0.0029714679
0.0029694711
0.0029676061
0.0029658642
0.0029642372
0.0029627175
0.0029612981
0.0029599722
0.0029587338
0.002957577
0.0029564965
0.0029554871
0.0029545443
0.0029536635
0.0029528408
0.0029520723
0.0029513545
0.0029506839
0.0029500575
0.0029494724
0.0029489259
0.0029484153
0.0029479384
0.0029474928
0.0029470767
0.0029466879
0.0029463248
0.0029459856
0.0029456687
0.0029453727
0.0029450963
0.002944838
0.0029445965
0.0029443711
0.002944161
0.0029439642
0.0029437803
0.0029436083
0.0029434482
0.0029432979
0.0029431574
0.0029430253
0.0029429003
0.0029427809
)
;

boundaryField
{
    top
    {
        type            calculated;
        value           uniform 0;
    }
    inlet
    {
        type            calculated;
        value           nonuniform List<scalar> 10(-0.01 -0.01 -0.01 -0.01 -0.01 -0.01 -0.01 -0.01 -0.01 -0.01);
    }
    outlet
    {
        type            calculated;
        value           nonuniform List<scalar> 10(0.0029426551 0.0076498148 0.011178072 0.013527889 0.014701567 0.014701567 0.01352789 0.011178072 0.0076498149 0.0029426552);
    }
    bottom
    {
        type            calculated;
        value           uniform 0;
    }
    back
    {
        type            empty;
        value           nonuniform 0();
    }
    front
    {
        type            empty;
        value           nonuniform 0();
    }
}


// ************************************************************************* //
