/*--------------------------------*- C++ -*----------------------------------*\
| =========                 |                                                 |
| \\      /  F ield         | OpenFOAM: The Open Source CFD Toolbox           |
|  \\    /   O peration     | Version:  v1812                                 |
|   \\  /    A nd           | Web:      www.OpenFOAM.com                      |
|    \\/     M anipulation  |                                                 |
\*---------------------------------------------------------------------------*/
FoamFile
{
    version     2.0;
    format      ascii;
    class       volScalarField;
    location    "11.4";
    object      p;
}
// * * * * * * * * * * * * * * * * * * * * * * * * * * * * * * * * * * * * * //

dimensions      [0 2 -2 0 0 0 0];


internalField   nonuniform List<scalar> 
1000
(
1.6755972
1.5545193
1.4585388
1.3948827
1.3463732
1.3039011
1.2663659
1.2341941
1.2067938
1.1829562
1.1615619
1.1417981
1.1231209
1.1051814
1.087766
1.0707519
1.054071
1.0376868
1.0215786
1.0057327
0.99013771
0.97478261
0.95965591
0.94474567
0.93003966
0.91552567
0.90119169
0.88702619
0.87301813
0.85915714
0.84543343
0.83183789
0.81836199
0.80499782
0.79173798
0.77857561
0.7655043
0.75251809
0.73961142
0.72677911
0.71401631
0.70131851
0.68868147
0.67610126
0.66357417
0.65109677
0.63866583
0.62627834
0.61393149
0.60162263
0.58934932
0.57710923
0.56490021
0.55272023
0.54056739
0.52843994
0.51633623
0.5042547
0.49219392
0.48015255
0.46812931
0.45612303
0.4441326
0.43215696
0.42019514
0.40824625
0.39630944
0.38438393
0.37246898
0.36056391
0.34866808
0.33678087
0.32490171
0.31303007
0.30116544
0.28930737
0.27745542
0.26560922
0.25376839
0.24193258
0.23010147
0.21827474
0.20645209
0.19463324
0.18281794
0.17100596
0.15919709
0.14739115
0.13558794
0.1237873
0.11198904
0.10019302
0.08839906
0.076607049
0.064816853
0.053028368
0.041241516
0.029456138
0.017672372
0.00588964
1.5583775
1.5034484
1.4424959
1.3909282
1.3476582
1.3086898
1.2731036
1.241331
1.21337
1.1885922
1.1661903
1.145489
1.1260074
1.1074193
1.0895057
1.0721209
1.0551691
1.0385877
1.022335
1.0063815
0.99070452
0.97528499
0.96010615
0.94515249
0.93040943
0.9158632
0.90150078
0.88730991
0.87327907
0.85939749
0.84565513
0.83204264
0.81855129
0.805173
0.79190025
0.77872604
0.76564385
0.75264764
0.73973176
0.72689096
0.71412032
0.70141527
0.68877153
0.67618511
0.66365227
0.65116953
0.63873363
0.62634153
0.61399039
0.60167755
0.58940053
0.577157
0.56494478
0.55276182
0.54060621
0.52847617
0.51637004
0.50428625
0.49222336
0.48018002
0.46815495
0.45614697
0.44415495
0.43217784
0.42021466
0.40826448
0.39632646
0.38439981
0.37248379
0.36057773
0.34868097
0.33679292
0.32491298
0.31304061
0.3011753
0.28931658
0.27746403
0.26561724
0.25377585
0.24193954
0.23010796
0.21828081
0.20645778
0.19463857
0.18282293
0.17101062
0.15920143
0.14739517
0.13559167
0.12379077
0.11199228
0.10019605
0.088401907
0.076609705
0.064819321
0.053030617
0.041243592
0.029457916
0.017673953
0.0058904044
1.4975562
1.4713811
1.4329843
1.3918514
1.3527661
1.3161753
1.2818776
1.2501601
1.221304
1.1952029
1.1714489
1.1495589
1.1291091
1.1097682
1.0912881
1.073487
1.0562352
1.0394396
1.0230335
1.0069684
0.99120801
0.97572434
0.96049448
0.94549899
0.93072072
0.91614422
0.90175539
0.8875412
0.87348965
0.85958959
0.84583067
0.8322033
0.81869858
0.80530823
0.79202458
0.77884049
0.76574934
0.75274498
0.73982168
0.72697409
0.71419726
0.70148654
0.6888376
0.67624641
0.66370918
0.65122239
0.63878276
0.6263872
0.61403286
0.60171706
0.5894373
0.57719122
0.56497665
0.55279151
0.54063389
0.52850198
0.51639411
0.50430869
0.49224428
0.48019952
0.46817312
0.45616391
0.44417075
0.43219259
0.42022844
0.40827736
0.3963385
0.38441105
0.37249427
0.36058749
0.34869006
0.33680138
0.32492088
0.31304801
0.30118223
0.28932308
0.27747011
0.26562291
0.25378113
0.24194443
0.2301125
0.21828504
0.20646174
0.1946423
0.18282645
0.17101393
0.15920452
0.14739804
0.13559431
0.12379321
0.11199453
0.10019816
0.088403883
0.076611578
0.064821049
0.05303221
0.041244951
0.029459067
0.017674626
0.0058908494
1.4681477
1.4526496
1.4257797
1.3918558
1.3560548
1.3211035
1.2878015
1.2564485
1.2273178
1.2005263
1.1759388
1.1532466
1.1320948
1.112166
1.0932078
1.0750281
1.0574824
1.0404614
1.0238827
1.0076847
0.99182075
0.97625501
0.96095906
0.94590939
0.93108596
0.91647123
0.90204958
0.88780694
0.87373048
0.85980846
0.84603009
0.8323854
0.81886519
0.80546095
0.7921648
0.77896944
0.76586809
0.75285447
0.73992275
0.72706749
0.71428364
0.7015665
0.68891168
0.6763151
0.66377291
0.65128157
0.63883774
0.62643831
0.61408038
0.60176126
0.58947842
0.57722949
0.56501227
0.55282468
0.5406648
0.52853079
0.51642097
0.50433374
0.49226764
0.4802213
0.46819342
0.45618283
0.44418839
0.43220904
0.42024379
0.4082917
0.3963519
0.38442357
0.37250597
0.3605984
0.34870023
0.33681085
0.3249297
0.31305623
0.30118992
0.28933028
0.27747686
0.26562923
0.25378704
0.24194994
0.23011762
0.21828979
0.20646615
0.19464642
0.18283031
0.17101758
0.15920795
0.14740127
0.13559732
0.123796
0.11199709
0.10020054
0.088406072
0.076613653
0.064822951
0.053034036
0.041246483
0.029460525
0.017675527
0.0058918924
1.4554162
1.4434628
1.4212284
1.3909409
1.3570797
1.3230841
1.2903865
1.259381
1.2302836
1.2032717
1.1783446
1.1552951
1.1338136
1.113596
1.0943924
1.0760102
1.0583013
1.0411508
1.0244699
1.0081908
0.99226178
0.97664323
0.96130372
0.94621758
0.93136313
0.91672165
0.90227667
0.88801347
0.87391876
0.85998046
0.84618749
0.83252966
0.8189976
0.80558265
0.7922768
0.77907262
0.76596325
0.75294233
0.74000392
0.72714256
0.71435312
0.70163085
0.68897132
0.6763704
0.66382424
0.65132924
0.63888202
0.62647947
0.61411866
0.60179687
0.58951154
0.57726031
0.56504096
0.5528514
0.54068968
0.52855398
0.51644259
0.50435391
0.49228645
0.48023883
0.46820977
0.45619806
0.44420258
0.43222227
0.42025613
0.40830323
0.39636267
0.38443364
0.37251538
0.36060719
0.34870842
0.33681848
0.32493679
0.31306283
0.30119608
0.28933605
0.27748226
0.26563431
0.2537918
0.24195439
0.23012175
0.21829362
0.2064697
0.19464972
0.18283339
0.17102048
0.1592107
0.14740387
0.13559976
0.12379828
0.11199919
0.10020248
0.088407835
0.07661532
0.064824466
0.053035518
0.041247745
0.029461802
0.017676419
0.0058929364
1.4554162
1.4434628
1.4212285
1.3909409
1.3570797
1.3230841
1.2903865
1.259381
1.2302836
1.2032717
1.1783446
1.1552951
1.1338136
1.113596
1.0943924
1.0760102
1.0583013
1.0411508
1.0244699
1.0081908
0.99226177
0.97664322
0.96130372
0.94621758
0.93136313
0.91672166
0.90227667
0.88801347
0.87391876
0.85998046
0.84618748
0.83252965
0.8189976
0.80558265
0.7922768
0.77907262
0.76596326
0.75294233
0.74000393
0.72714256
0.71435311
0.70163084
0.68897131
0.6763704
0.66382424
0.65132924
0.63888203
0.62647948
0.61411867
0.60179687
0.58951154
0.5772603
0.56504095
0.55285139
0.54068968
0.52855398
0.5164426
0.50435392
0.49228646
0.48023884
0.46820977
0.45619805
0.44420257
0.43222226
0.42025613
0.40830323
0.39636268
0.38443366
0.37251539
0.36060719
0.34870841
0.33681846
0.32493677
0.31306282
0.30119607
0.28933605
0.27748228
0.26563433
0.25379181
0.24195439
0.23012174
0.2182936
0.20646967
0.1946497
0.18283339
0.17102049
0.15921072
0.14740389
0.13559977
0.12379828
0.11199918
0.10020246
0.088407817
0.076615313
0.064824471
0.05303554
0.041247773
0.029461832
0.017676441
0.005892947
1.4681477
1.4526496
1.4257797
1.3918558
1.3560548
1.3211035
1.2878015
1.2564485
1.2273178
1.2005263
1.1759388
1.1532466
1.1320948
1.1121661
1.0932079
1.0750282
1.0574824
1.0404614
1.0238827
1.0076847
0.99182073
0.976255
0.96095906
0.9459094
0.93108598
0.91647125
0.9020496
0.88780695
0.87373048
0.85980845
0.84603007
0.83238538
0.81886518
0.80546095
0.79216481
0.77896946
0.76586811
0.75285449
0.73992275
0.72706748
0.71428362
0.70156648
0.68891167
0.67631509
0.66377292
0.65128159
0.63883776
0.62643832
0.61408039
0.60176125
0.5894784
0.57722946
0.56501225
0.55282467
0.5406648
0.52853081
0.51642099
0.50433377
0.49226766
0.48022129
0.4681934
0.4561828
0.44418836
0.43220902
0.4202438
0.40829173
0.39635194
0.38442361
0.37250599
0.3605984
0.3487002
0.3368108
0.32492965
0.31305619
0.30118991
0.2893303
0.2774769
0.26562928
0.25378707
0.24194993
0.23011758
0.21828973
0.20646609
0.19464638
0.18283031
0.1710176
0.159208
0.14740132
0.13559735
0.12379599
0.11199706
0.1002005
0.08840604
0.076613649
0.064822986
0.053034098
0.041246562
0.0294606
0.017675581
0.0058919138
1.4975562
1.4713811
1.4329843
1.3918514
1.3527661
1.3161753
1.2818776
1.2501601
1.221304
1.1952029
1.1714489
1.149559
1.1291091
1.1097683
1.0912881
1.0734871
1.0562352
1.0394396
1.0230335
1.0069683
0.991208
0.97572433
0.96049449
0.945499
0.93072074
0.91614424
0.90175539
0.8875412
0.87348964
0.85958957
0.84583065
0.83220329
0.81869858
0.80530824
0.79202459
0.77884051
0.76574936
0.75274499
0.73982167
0.72697408
0.71419724
0.70148652
0.6888376
0.67624641
0.6637092
0.65122241
0.63878277
0.62638721
0.61403285
0.60171704
0.58943727
0.5771912
0.56497664
0.55279152
0.54063392
0.52850201
0.51639413
0.5043087
0.49224427
0.48019949
0.46817309
0.45616388
0.44417074
0.43219261
0.42022848
0.40827741
0.39633854
0.38441106
0.37249426
0.36058745
0.34869001
0.33680134
0.32492085
0.313048
0.30118226
0.28932312
0.27747014
0.26562293
0.25378112
0.24194439
0.23011245
0.21828499
0.20646171
0.1946423
0.18282647
0.17101396
0.15920455
0.14739806
0.1355943
0.12379318
0.11199449
0.10019813
0.088403875
0.076611599
0.064821101
0.053032277
0.041245023
0.02945913
0.017674663
0.0058908585
1.5583775
1.5034484
1.4424959
1.3909282
1.3476582
1.3086898
1.2731036
1.2413309
1.21337
1.1885922
1.1661903
1.145489
1.1260074
1.1074193
1.0895057
1.0721209
1.0551691
1.0385877
1.022335
1.0063815
0.99070452
0.975285
0.96010616
0.9451525
0.93040944
0.91586321
0.90150078
0.88730989
0.87327905
0.85939748
0.84565513
0.83204264
0.8185513
0.80517302
0.79190027
0.77872604
0.76564385
0.75264763
0.73973174
0.72689094
0.71412031
0.70141527
0.68877155
0.67618513
0.66365229
0.65116954
0.63873363
0.62634152
0.61399037
0.60167753
0.58940052
0.577157
0.56494479
0.55276184
0.54060623
0.52847618
0.51637003
0.50428623
0.49222333
0.48017999
0.46815494
0.45614697
0.44415497
0.43217788
0.42021469
0.4082645
0.39632646
0.38439979
0.37248376
0.36057769
0.34868095
0.33679291
0.32491299
0.31304064
0.30117533
0.28931659
0.27746401
0.2656172
0.25377581
0.2419395
0.23010793
0.2182808
0.20645778
0.19463859
0.18282294
0.17101062
0.15920141
0.14739514
0.13559163
0.12379074
0.11199226
0.10019605
0.088401917
0.076609727
0.064819345
0.053030647
0.041243615
0.02945793
0.017673948
0.0058903951
1.6755972
1.5545193
1.4585388
1.3948827
1.3463732
1.3039011
1.2663659
1.2341941
1.2067937
1.1829562
1.1615619
1.1417981
1.123121
1.1051814
1.087766
1.0707518
1.0540709
1.0376868
1.0215786
1.0057327
0.99013771
0.97478262
0.95965593
0.94474568
0.93003967
0.91552566
0.90119168
0.88702617
0.87301812
0.85915713
0.84543343
0.8318379
0.81836201
0.80499783
0.79173799
0.7785756
0.76550429
0.75251807
0.73961141
0.7267791
0.71401632
0.70131852
0.68868149
0.67610127
0.66357418
0.65109677
0.63866581
0.62627832
0.61393147
0.60162262
0.58934932
0.57710925
0.56490023
0.55272025
0.54056741
0.52843994
0.5163362
0.50425467
0.49219389
0.48015253
0.46812932
0.45612306
0.44413263
0.43215699
0.42019516
0.40824625
0.39630942
0.38438389
0.37246894
0.36056389
0.34866808
0.33678089
0.32490174
0.3130301
0.30116545
0.28930735
0.27745539
0.26560917
0.25376835
0.24193256
0.23010147
0.21827476
0.20645211
0.19463325
0.18281793
0.17100593
0.15919705
0.1473911
0.13558791
0.12378728
0.11198904
0.10019303
0.088399075
0.076607061
0.064816863
0.053028373
0.041241515
0.029456124
0.017672353
0.0058896275
)
;

boundaryField
{
    top
    {
        type            zeroGradient;
    }
    inlet
    {
        type            zeroGradient;
    }
    outlet
    {
        type            fixedValue;
        value           uniform 0;
    }
    bottom
    {
        type            zeroGradient;
    }
    back
    {
        type            empty;
    }
    front
    {
        type            empty;
    }
}


// ************************************************************************* //
