/*--------------------------------*- C++ -*----------------------------------*\
| =========                 |                                                 |
| \\      /  F ield         | OpenFOAM: The Open Source CFD Toolbox           |
|  \\    /   O peration     | Version:  v1812                                 |
|   \\  /    A nd           | Web:      www.OpenFOAM.com                      |
|    \\/     M anipulation  |                                                 |
\*---------------------------------------------------------------------------*/
FoamFile
{
    version     2.0;
    format      ascii;
    class       volScalarField;
    location    "1.95";
    object      p;
}
// * * * * * * * * * * * * * * * * * * * * * * * * * * * * * * * * * * * * * //

dimensions      [0 2 -2 0 0 0 0];


internalField   nonuniform List<scalar> 
1000
(
1.7791078
1.6580282
1.5620465
1.4983908
1.44988
1.4074104
1.3699058
1.3378024
1.3105059
1.2868317
1.265698
1.2463151
1.2281513
1.2108722
1.1942743
1.1782275
1.1626405
1.1474438
1.1325782
1.1179858
1.1036095
1.0893977
1.0753064
1.0613
1.0473507
1.0334382
1.0195481
1.0056691
0.99179507
0.97792423
0.96405457
0.95018501
0.93631511
0.92244476
0.90857402
0.89470298
0.88083174
0.86696039
0.85308896
0.83921751
0.82534604
0.81147456
0.79760309
0.78373161
0.76986014
0.75598867
0.7421172
0.72824574
0.71437427
0.70050281
0.68663134
0.67275988
0.65888841
0.64501695
0.63114548
0.61727402
0.60340256
0.58953109
0.57565963
0.56178817
0.5479167
0.53404524
0.52017378
0.50630232
0.49243085
0.47855939
0.46468793
0.45081647
0.436945
0.42307354
0.40920207
0.39533062
0.38145914
0.3675877
0.35371621
0.33984478
0.32597328
0.31210186
0.29823035
0.28435893
0.27048745
0.25661597
0.24274456
0.22887299
0.21500168
0.20113005
0.18725872
0.17338721
0.15951567
0.14564441
0.13177267
0.11790145
0.1040299
0.090158348
0.076287139
0.06241556
0.048544222
0.034673242
0.020802279
0.0069330113
1.6618898
1.6069617
1.546011
1.4944492
1.4511875
1.412219
1.3766351
1.3449066
1.3170456
1.2924134
1.2702185
1.2498284
1.2307975
1.2128123
1.1956553
1.1791782
1.1632736
1.1478514
1.1328292
1.1181305
1.1036853
1.0894314
1.0753165
1.061298
1.0473434
1.033429
1.0195379
1.0056602
0.9917895
0.97792091
0.96405263
0.9501839
0.9363145
0.92244444
0.90857386
0.89470292
0.88083173
0.86696039
0.85308898
0.83921753
0.82534605
0.81147457
0.79760309
0.78373162
0.76986014
0.75598867
0.7421172
0.72824574
0.71437427
0.70050281
0.68663134
0.67275988
0.65888841
0.64501695
0.63114548
0.61727402
0.60340256
0.58953109
0.57565963
0.56178817
0.5479167
0.53404524
0.52017378
0.50630232
0.49243085
0.47855939
0.46468793
0.45081647
0.436945
0.42307354
0.40920207
0.39533062
0.38145913
0.36758771
0.3537162
0.33984479
0.32597326
0.31210187
0.29823034
0.28435893
0.27048746
0.25661594
0.24274461
0.22887294
0.21500173
0.20113001
0.18725873
0.17338722
0.15951563
0.14564444
0.13177268
0.11790136
0.10402994
0.090158222
0.07628699
0.062415556
0.048543822
0.034672847
0.020801466
0.006931984
1.6010723
1.5749016
1.5365113
1.495387
1.4563203
1.4197391
1.3854304
1.3537423
1.3250154
1.2991085
1.2755648
1.2539419
1.2338987
1.2151356
1.1973851
1.1804489
1.1641942
1.148514
1.1333049
1.118469
1.1039217
1.089593
1.0754245
1.0613686
1.0473882
1.0334564
1.0195544
1.0056696
0.9917941
0.97792283
0.96405321
0.95018387
0.93631423
0.92244413
0.90857359
0.89470271
0.88083158
0.8669603
0.85308892
0.83921749
0.82534603
0.81147456
0.79760309
0.78373162
0.76986014
0.75598867
0.74211721
0.72824574
0.71437427
0.70050281
0.68663134
0.67275988
0.65888841
0.64501695
0.63114548
0.61727402
0.60340256
0.58953109
0.57565963
0.56178817
0.5479167
0.53404524
0.52017378
0.50630232
0.49243085
0.47855939
0.46468793
0.45081647
0.436945
0.42307355
0.40920206
0.39533063
0.38145912
0.36758772
0.35371618
0.33984482
0.32597323
0.3121019
0.29823032
0.28435894
0.27048746
0.25661592
0.24274465
0.22887287
0.21500181
0.20112991
0.18725881
0.17338714
0.15951564
0.1456444
0.13177257
0.11790138
0.10402965
0.090158172
0.076286558
0.062415066
0.048543146
0.034671542
0.020800045
0.0069310074
1.5716684
1.5561769
1.5293165
1.4954029
1.4596254
1.4246911
1.3913756
1.3600508
1.3310792
1.3045318
1.2801764
1.257736
1.2369773
1.2176313
1.1994002
1.1820525
1.1654489
1.149485
1.1340489
1.1190295
1.1043337
1.0898877
1.0756299
1.061508
1.04748
1.0335149
1.0195902
1.0056907
0.99180582
0.97792895
0.96405609
0.95018499
0.93631449
0.92244402
0.90857336
0.89470247
0.88083139
0.86696016
0.85308883
0.83921743
0.825346
0.81147454
0.79760308
0.78373161
0.76986014
0.75598867
0.74211721
0.72824574
0.71437427
0.70050281
0.68663134
0.67275988
0.65888841
0.64501695
0.63114549
0.61727402
0.60340256
0.58953109
0.57565963
0.56178817
0.5479167
0.53404524
0.52017378
0.50630232
0.49243085
0.47855939
0.46468792
0.45081647
0.43694499
0.42307355
0.40920206
0.39533064
0.38145911
0.36758773
0.35371616
0.33984483
0.32597321
0.31210192
0.2982303
0.28435896
0.27048745
0.25661591
0.24274469
0.2288728
0.21500191
0.20112979
0.18725892
0.17338703
0.15951566
0.14564442
0.13177233
0.11790154
0.10402924
0.090158087
0.076286215
0.062414228
0.048542563
0.034670371
0.020798668
0.0069303685
1.5589397
1.5469939
1.5247707
1.4944941
1.4606573
1.4266812
1.3939722
1.3629992
1.3340768
1.3073304
1.2826428
1.259836
1.2387403
1.2191071
1.2006269
1.1830553
1.1662545
1.150125
1.1345529
1.1194202
1.1046298
1.0901066
1.0757879
1.0616192
1.0475563
1.0335655
1.0196228
1.0057108
0.99181771
0.97793564
0.96405961
0.95018668
0.93631518
0.9224442
0.90857332
0.89470237
0.88083128
0.86696006
0.85308876
0.83921738
0.82534597
0.81147452
0.79760307
0.78373161
0.76986014
0.75598867
0.7421172
0.72824574
0.71437427
0.70050281
0.68663134
0.67275988
0.65888841
0.64501695
0.63114549
0.61727402
0.60340256
0.5895311
0.57565963
0.56178817
0.54791671
0.53404524
0.52017378
0.50630232
0.49243085
0.47855939
0.46468792
0.45081647
0.43694499
0.42307355
0.40920206
0.39533064
0.38145911
0.36758774
0.35371615
0.33984484
0.3259732
0.31210193
0.29823028
0.28435896
0.27048745
0.25661589
0.24274471
0.22887275
0.21500197
0.2011297
0.187259
0.17338696
0.15951564
0.14564447
0.13177214
0.11790166
0.10402899
0.090157936
0.07628611
0.062413659
0.04854223
0.034669831
0.020797888
0.0069300442
1.5589397
1.5469939
1.5247707
1.4944941
1.4606573
1.4266812
1.3939721
1.3629992
1.3340768
1.3073304
1.2826428
1.259836
1.2387403
1.2191071
1.2006269
1.1830553
1.1662545
1.150125
1.1345529
1.1194202
1.1046298
1.0901066
1.0757879
1.0616192
1.0475563
1.0335655
1.0196228
1.0057108
0.99181771
0.97793563
0.96405961
0.95018668
0.93631518
0.9224442
0.90857332
0.89470236
0.88083127
0.86696006
0.85308876
0.83921738
0.82534597
0.81147452
0.79760307
0.7837316
0.76986014
0.75598867
0.74211721
0.72824574
0.71437427
0.70050281
0.68663134
0.67275988
0.65888841
0.64501695
0.63114549
0.61727402
0.60340256
0.5895311
0.57565963
0.56178817
0.54791671
0.53404524
0.52017378
0.50630232
0.49243085
0.47855939
0.46468792
0.45081647
0.43694499
0.42307355
0.40920206
0.39533064
0.38145911
0.36758774
0.35371615
0.33984484
0.3259732
0.31210193
0.29823028
0.28435896
0.27048745
0.25661589
0.24274471
0.22887275
0.21500197
0.2011297
0.18725899
0.17338696
0.15951564
0.14564447
0.13177214
0.11790166
0.10402899
0.090157935
0.076286111
0.062413659
0.04854223
0.034669831
0.020797887
0.0069300442
1.5716684
1.5561769
1.5293165
1.4954028
1.4596253
1.424691
1.3913756
1.3600508
1.3310792
1.3045318
1.2801764
1.257736
1.2369773
1.2176313
1.1994002
1.1820525
1.1654489
1.1494849
1.1340489
1.1190295
1.1043337
1.0898877
1.0756299
1.061508
1.04748
1.0335149
1.0195902
1.0056907
0.99180581
0.97792894
0.96405607
0.95018498
0.93631448
0.92244401
0.90857335
0.89470247
0.88083139
0.86696016
0.85308882
0.83921743
0.82534599
0.81147454
0.79760308
0.78373161
0.76986014
0.75598867
0.74211721
0.72824574
0.71437427
0.70050281
0.68663134
0.67275988
0.65888841
0.64501695
0.63114549
0.61727402
0.60340256
0.5895311
0.57565963
0.56178817
0.54791671
0.53404524
0.52017378
0.50630232
0.49243085
0.47855939
0.46468792
0.45081647
0.43694499
0.42307355
0.40920206
0.39533064
0.38145911
0.36758773
0.35371616
0.33984483
0.32597321
0.31210192
0.2982303
0.28435896
0.27048745
0.2566159
0.24274469
0.2288728
0.21500191
0.20112979
0.18725892
0.17338703
0.15951566
0.14564442
0.13177233
0.11790154
0.10402923
0.090158087
0.076286216
0.062414229
0.048542563
0.03467037
0.020798667
0.0069303687
1.6010723
1.5749017
1.5365113
1.495387
1.4563203
1.4197391
1.3854303
1.3537423
1.3250154
1.2991085
1.2755648
1.2539419
1.2338988
1.2151356
1.1973851
1.1804489
1.1641941
1.148514
1.1333049
1.1184689
1.1039217
1.089593
1.0754245
1.0613686
1.0473882
1.0334564
1.0195544
1.0056696
0.99179408
0.97792281
0.96405319
0.95018385
0.93631421
0.92244412
0.90857358
0.8947027
0.88083157
0.86696029
0.85308891
0.83921748
0.82534603
0.81147456
0.79760309
0.78373161
0.76986014
0.75598867
0.74211721
0.72824574
0.71437427
0.70050281
0.68663134
0.67275988
0.65888841
0.64501695
0.63114549
0.61727402
0.60340256
0.5895311
0.57565963
0.56178817
0.54791671
0.53404524
0.52017378
0.50630232
0.49243085
0.47855939
0.46468793
0.45081647
0.436945
0.42307355
0.40920206
0.39533063
0.38145912
0.36758772
0.35371618
0.33984481
0.32597323
0.3121019
0.29823032
0.28435894
0.27048746
0.25661592
0.24274465
0.22887287
0.21500181
0.20112991
0.18725881
0.17338714
0.15951564
0.1456444
0.13177257
0.11790138
0.10402965
0.090158168
0.076286558
0.062415068
0.048543147
0.034671541
0.020800044
0.0069310076
1.6618898
1.6069618
1.546011
1.4944492
1.4511874
1.412219
1.3766351
1.3449066
1.3170456
1.2924134
1.2702185
1.2498284
1.2307975
1.2128123
1.1956553
1.1791782
1.1632735
1.1478513
1.1328292
1.1181305
1.1036853
1.0894314
1.0753165
1.061298
1.0473434
1.0334289
1.0195378
1.0056602
0.99178948
0.97792088
0.9640526
0.95018388
0.93631448
0.92244442
0.90857385
0.89470291
0.88083172
0.86696039
0.85308898
0.83921752
0.82534605
0.81147457
0.79760309
0.78373162
0.76986014
0.75598867
0.74211721
0.72824574
0.71437427
0.70050281
0.68663134
0.67275988
0.65888841
0.64501695
0.63114549
0.61727402
0.60340256
0.5895311
0.57565963
0.56178817
0.54791671
0.53404524
0.52017378
0.50630232
0.49243085
0.47855939
0.46468793
0.45081647
0.436945
0.42307354
0.40920207
0.39533062
0.38145913
0.36758771
0.3537162
0.33984479
0.32597326
0.31210187
0.29823034
0.28435893
0.27048745
0.25661594
0.24274461
0.22887294
0.21500173
0.20113001
0.18725873
0.17338722
0.15951563
0.14564444
0.13177268
0.11790136
0.10402994
0.090158219
0.076286992
0.06241556
0.048543823
0.034672845
0.020801464
0.0069319837
1.7791079
1.6580282
1.5620465
1.4983908
1.44988
1.4074103
1.3699058
1.3378023
1.3105059
1.2868317
1.265698
1.2463151
1.2281513
1.2108722
1.1942743
1.1782275
1.1626405
1.1474438
1.1325781
1.1179857
1.1036095
1.0893977
1.0753064
1.0613
1.0473507
1.0334382
1.0195481
1.0056691
0.99179505
0.97792421
0.96405455
0.95018499
0.93631509
0.92244474
0.908574
0.89470297
0.88083174
0.86696039
0.85308896
0.83921751
0.82534604
0.81147456
0.79760309
0.78373161
0.76986014
0.75598867
0.74211721
0.72824574
0.71437427
0.70050281
0.68663134
0.67275988
0.65888841
0.64501695
0.63114549
0.61727402
0.60340256
0.5895311
0.57565963
0.56178817
0.54791671
0.53404524
0.52017378
0.50630232
0.49243085
0.47855939
0.46468793
0.45081647
0.436945
0.42307354
0.40920207
0.39533062
0.38145914
0.3675877
0.35371621
0.33984478
0.32597327
0.31210186
0.29823035
0.28435892
0.27048744
0.25661597
0.24274456
0.22887299
0.21500168
0.20113005
0.18725872
0.17338721
0.15951567
0.14564441
0.13177267
0.11790144
0.1040299
0.090158349
0.076287143
0.062415562
0.048544221
0.034673237
0.020802276
0.0069330108
)
;

boundaryField
{
    top
    {
        type            zeroGradient;
    }
    inlet
    {
        type            zeroGradient;
    }
    outlet
    {
        type            fixedValue;
        value           uniform 0;
    }
    bottom
    {
        type            zeroGradient;
    }
    back
    {
        type            empty;
    }
    front
    {
        type            empty;
    }
}


// ************************************************************************* //
