/*--------------------------------*- C++ -*----------------------------------*\
| =========                 |                                                 |
| \\      /  F ield         | OpenFOAM: The Open Source CFD Toolbox           |
|  \\    /   O peration     | Version:  v1812                                 |
|   \\  /    A nd           | Web:      www.OpenFOAM.com                      |
|    \\/     M anipulation  |                                                 |
\*---------------------------------------------------------------------------*/
FoamFile
{
    version     2.0;
    format      ascii;
    class       surfaceScalarField;
    location    "6";
    object      phi;
}
// * * * * * * * * * * * * * * * * * * * * * * * * * * * * * * * * * * * * * //

dimensions      [0 3 -1 0 0 0 0];
oriented        oriented;


internalField   nonuniform List<scalar> 
1890
(
0.0021519676
5.0015125e-06
0.0021370947
1.4873999e-05
0.0021210221
1.6072818e-05
0.0021081535
1.2868612e-05
0.0020987777
9.3760298e-06
0.0020917601
7.0177576e-06
0.0020862314
5.5286218e-06
0.0020817941
4.4373091e-06
0.0020782462
3.5479231e-06
0.002075414
2.8323562e-06
0.0020731359
2.2782396e-06
0.0020712863
1.8497922e-06
0.0020697793
1.5072428e-06
0.0020685563
1.2231529e-06
0.0020675738
9.8272478e-07
0.0020667959
7.7802238e-07
0.0020661919
6.0409673e-07
0.0020657344
4.576291e-07
0.002065398
3.3640178e-07
0.0020651594
2.3864372e-07
0.002064997
1.6240946e-07
0.0020648918
1.0525505e-07
0.0020648275
6.4263775e-08
0.0020647912
3.6341223e-08
0.0020647729
1.8422336e-08
0.0020647652
7.70051e-09
0.0020647635
1.7573779e-09
0.0020647643
-7.7633419e-10
0.0020647661
-1.7522525e-09
0.002064768
-1.8255976e-09
0.0020647695
-1.5094481e-09
0.0020647707
-1.0933024e-09
0.0020647714
-7.2005353e-10
0.0020647718
-4.3383491e-10
0.0020647721
-2.4020182e-10
0.0020647722
-1.1798084e-10
0.0020647723
-4.9530126e-11
0.0020647723
-1.2730296e-11
0.0020647723
2.0295099e-12
0.0020647723
8.3381395e-12
0.0020647723
8.0873119e-12
0.0020647723
7.6227919e-12
0.0020647723
4.7974185e-12
0.0020647723
4.0197142e-12
0.0020647723
1.9011767e-12
0.0020647723
1.8895408e-12
0.0020647723
5.9903921e-13
0.0020647723
1.0756862e-12
0.0020647723
3.2172829e-13
0.0020647723
1.1352569e-12
0.0020647723
4.7148629e-13
0.0020647723
1.3381049e-12
0.0020647723
6.6097506e-13
0.0020647723
1.5092851e-12
0.0020647723
6.6167918e-13
0.0020647723
1.2953272e-12
0.0020647723
3.8714733e-13
0.0020647723
8.6035807e-13
0.0020647723
-1.2589519e-13
0.0020647723
1.5984191e-13
0.0020647723
-7.9718963e-13
0.0020647723
-2.9800976e-13
0.0020647723
-1.2700917e-12
0.0020647723
-6.3189774e-13
0.0020647723
-1.4271266e-12
0.0020647723
-5.8129362e-13
0.0020647723
-1.2060159e-12
0.0020647723
-3.170655e-13
0.0020647723
-7.0140002e-13
0.0020647723
3.0415504e-13
0.0020647723
-9.572269e-14
0.0020647723
8.5467459e-13
0.0020647723
3.3809986e-13
0.0020647723
1.3091779e-12
0.0020647723
5.8929801e-13
0.0020647723
1.3733166e-12
0.0020647723
5.5758952e-13
0.0020647723
1.1986907e-12
0.0020647723
2.8491963e-13
0.0020647723
6.9411074e-13
0.0020647723
-2.0979041e-13
0.0020647723
2.3393491e-13
0.0020647723
-7.1518871e-13
0.0020647723
-1.586313e-13
0.0020647723
-1.0078155e-12
0.0020647723
-2.5202909e-13
0.0020647723
-9.5937031e-13
0.0020647723
-1.1336355e-13
0.0020647723
-3.8730037e-13
0.0020647723
7.9220542e-13
0.0020647723
9.9610727e-13
0.0020647723
2.6562194e-12
0.0020647723
4.319753e-12
0.0020647723
7.7632461e-12
0.0020647722
1.5312908e-11
0.0020647722
2.5912851e-11
0.0020647722
5.0489277e-11
0.0020647721
7.9292357e-11
0.0020647719
1.745074e-10
2.2482003e-10
0.0049422742
5.5601304e-06
0.0049362838
2.0865607e-05
0.0049261314
2.6225145e-05
0.0049151506
2.3849207e-05
0.0049050164
1.9510521e-05
0.004896015
1.6019439e-05
0.004888069
1.3474635e-05
0.0048811427
1.1363491e-05
0.0048752178
9.4726636e-06
0.0048702226
7.8274841e-06
0.004866042
6.4588614e-06
0.0048625576
5.3342686e-06
0.004859669
4.3959429e-06
0.0048572942
3.5979377e-06
0.0048553644
2.912592e-06
0.0048538192
2.3232687e-06
0.0048526047
1.8186107e-06
0.0048516717
1.3906396e-06
0.0048509743
1.0337917e-06
0.0048504695
7.4346659e-07
0.0048501173
5.1456449e-07
0.0048498819
3.4065169e-07
0.0048497322
2.1397322e-07
0.0048496426
1.2598171e-07
0.004849593
6.8086144e-08
0.0048495684
3.2313593e-08
0.0048495584
1.1868651e-08
0.0048495562
1.4477895e-09
0.0048495575
-3.0290189e-09
0.00484956
-4.2422984e-09
0.0048495624
-3.901648e-09
0.0048495643
-3.0115459e-09
0.0048495657
-2.0762067e-09
0.0048495666
-1.3093912e-09
0.0048495672
-7.5746399e-10
0.0048495674
-3.999522e-10
0.0048495676
-1.8537958e-10
0.0048495676
-6.9735198e-11
0.0048495677
-1.2221108e-11
0.0048495677
1.0594062e-11
0.0048495677
1.8026211e-11
0.0048495676
1.6175292e-11
0.0048495676
1.3389919e-11
0.0048495676
8.7978834e-12
0.0048495676
6.4329269e-12
0.0048495676
3.5323884e-12
0.0048495676
2.642772e-12
0.0048495676
1.2680778e-12
0.0048495676
1.4657363e-12
0.0048495676
9.4816666e-13
0.0048495676
1.6002343e-12
0.0048495676
1.2325025e-12
0.0048495676
2.0905562e-12
0.0048495676
1.6424707e-12
0.0048495676
2.2743509e-12
0.0048495676
1.5244939e-12
0.0048495676
1.8965727e-12
0.0048495676
9.7350334e-13
0.0048495676
8.9547355e-13
0.0048495676
-1.0211391e-13
0.0048495676
-2.5723357e-13
0.0048495676
-1.2394587e-12
0.0048495676
-1.142325e-12
0.0048495676
-2.0905268e-12
0.0048495676
-1.5956074e-12
0.0048495676
-2.175186e-12
0.0048495676
-1.444348e-12
0.0048495676
-1.6765909e-12
0.0048495676
-7.3778478e-13
0.0048495676
-5.5140009e-13
0.0048495676
4.0980079e-13
0.0048495676
4.2102555e-13
0.0048495676
1.5175203e-12
0.0048495676
1.3055789e-12
0.0048495676
2.1939605e-12
0.0048495676
1.6462831e-12
0.0048495676
2.2990118e-12
0.0048495676
1.534996e-12
0.0048495676
1.78977e-12
0.0048495676
8.7713152e-13
0.0048495676
8.6645272e-13
0.0048495676
4.3211134e-14
0.0048495676
-3.9144054e-14
0.0048495676
-9.309917e-13
0.0048495676
-5.7937261e-13
0.0048495676
-1.2873627e-12
0.0048495676
-6.3042258e-13
0.0048495676
-9.8088068e-13
0.0048495676
2.0456639e-13
0.0048495676
6.238507e-13
0.0048495676
3.1252437e-12
0.0048495676
4.1175246e-12
0.0048495676
1.0280364e-11
0.0048495676
1.5057667e-11
0.0048495676
3.1536555e-11
0.0048495676
4.6987586e-11
0.0048495675
8.8154771e-11
0.0048495675
1.2956829e-10
0.0048495674
2.2543095e-10
2.9170417e-10
0.0066259979
3.8656574e-06
0.0066298315
1.7032361e-05
0.0066325782
2.3478091e-05
0.0066334307
2.2996858e-05
0.0066329625
1.9979531e-05
0.0066317139
1.7268486e-05
0.00663
1.5188476e-05
0.0066280374
1.3325779e-05
0.0066260033
1.1506544e-05
0.0066240253
9.805463e-06
0.0066221785
8.3057083e-06
0.0066205008
7.0120269e-06
0.0066190088
5.8879435e-06
0.0066177068
4.8999684e-06
0.0066165907
4.0286718e-06
0.0066156513
3.2627239e-06
0.0066148759
2.5939885e-06
0.00661425
2.0165323e-06
0.0066137574
1.5263542e-06
0.0066133808
1.1200823e-06
0.006613102
7.9332724e-07
0.006612903
5.3962852e-07
0.0066127666
3.5034312e-07
0.0066126774
2.152489e-07
0.006612622
1.2349578e-07
0.0066125897
6.4602862e-08
0.0066125724
2.919623e-08
0.0066125643
9.6814577e-09
0.0066125612
8.6702622e-11
0.0066125607
-3.6916769e-09
0.0066125613
-4.4321209e-09
0.0066125621
-3.8408968e-09
0.0066125629
-2.8500723e-09
0.0066125635
-1.9011302e-09
0.0066125639
-1.1607102e-09
0.0066125642
-6.4817e-10
0.0066125644
-3.2690722e-10
0.0066125644
-1.4160582e-10
0.0066125645
-4.5098636e-11
0.0066125645
1.2846537e-13
0.0066125645
1.6082166e-11
0.0066125645
1.9392116e-11
0.0066125645
1.6118561e-11
0.0066125645
1.2514985e-11
0.0066125645
8.2142913e-12
0.0066125645
5.6507549e-12
0.0066125645
3.3092532e-12
0.0066125645
2.3903083e-12
0.0066125645
1.5915073e-12
0.0066125645
1.6336664e-12
0.0066125645
1.4902684e-12
0.0066125645
1.9643068e-12
0.0066125645
1.9099008e-12
0.0066125645
2.363371e-12
0.0066125645
2.0790985e-12
0.0066125645
2.258882e-12
0.0066125645
1.7019455e-12
0.0066125645
1.4588567e-12
0.0066125645
7.5864585e-13
0.0066125645
8.3547636e-14
0.0066125645
-5.8552571e-13
0.0066125645
-1.0439644e-12
0.0066125645
-1.8177293e-12
0.0066125645
-1.8800561e-12
0.0066125645
-2.3625224e-12
0.0066125645
-2.0649825e-12
0.0066125645
-2.1392462e-12
0.0066125645
-1.5433119e-12
0.0066125645
-1.1270237e-12
0.0066125645
-5.268597e-13
0.0066125645
1.4494592e-13
0.0066125645
9.2538467e-13
0.0066125645
1.2431371e-12
0.0066125645
2.0101142e-12
0.0066125645
1.9909588e-12
0.0066125645
2.5081041e-12
0.0066125645
2.1732295e-12
0.0066125645
2.3116973e-12
0.0066125645
1.7379504e-12
0.0066125645
1.5194459e-12
0.0066125645
9.4429022e-13
0.0066125645
4.0331227e-13
0.0066125645
-5.8152654e-14
0.0066125645
-3.8654439e-13
0.0066125645
-8.2226911e-13
0.0066125645
-7.251393e-13
0.0066125645
-7.759444e-13
0.0066125645
-3.2315895e-13
0.0066125645
5.2797607e-13
0.0066125645
1.5854923e-12
0.0066125645
3.6349443e-12
0.0066125645
6.2364227e-12
0.0066125645
1.2585906e-11
0.0066125645
1.9973003e-11
0.0066125645
3.6307189e-11
0.0066125645
5.2614147e-11
0.0066125645
8.7639453e-11
0.0066125645
1.2502023e-10
0.0066125645
1.9106372e-10
2.4494005e-10
0.0075533887
1.8703267e-06
0.007561353
9.0681769e-06
0.0075716698
1.3160736e-05
0.0075812523
1.3414588e-05
0.0075892215
1.20111e-05
0.0075958399
1.0650644e-05
0.0076014278
9.6005311e-06
0.007606128
8.6253176e-06
0.0076100207
7.6136642e-06
0.0076132074
6.6187837e-06
0.0076158058
5.7074274e-06
0.0076179218
4.896044e-06
0.0076196389
4.1709218e-06
0.0076210214
3.5175591e-06
0.0076221214
2.9287973e-06
0.0076229827
2.4014566e-06
0.0076236435
1.9332514e-06
0.0076241375
1.522582e-06
0.0076244953
1.1686225e-06
0.0076247447
8.7070614e-07
0.0076249108
6.2724098e-07
0.0076250154
4.349874e-07
0.0076250769
2.8891672e-07
0.0076251096
1.8255908e-07
0.0076251245
1.0867717e-07
0.0076251292
5.9968801e-08
0.0076251287
2.9744074e-08
0.0076251262
1.2293437e-08
0.0076251232
3.1461443e-09
0.0076251206
-1.0491608e-09
0.0076251186
-2.4155236e-09
0.0076251173
-2.4504226e-09
0.0076251164
-1.9596327e-09
0.0076251159
-1.3738574e-09
0.0076251156
-8.6791854e-10
0.0076251155
-5.0176527e-10
0.0076251154
-2.596384e-10
0.0076251154
-1.1820804e-10
0.0076251154
-3.9932077e-11
0.0076251154
-4.2103766e-12
0.0076251154
1.1925263e-11
0.0076251154
1.3068784e-11
0.0076251155
1.3400809e-11
0.0076251155
8.570424e-12
0.0076251155
7.3883289e-12
0.0076251155
3.4999779e-12
0.0076251155
3.526236e-12
0.0076251155
1.2556505e-12
0.0076251155
2.1955924e-12
0.0076251155
8.1381177e-13
0.0076251155
2.326406e-12
0.0076251155
1.1220482e-12
0.0076251155
2.6728142e-12
0.0076251155
1.3118925e-12
0.0076251155
2.7140941e-12
0.0076251155
1.1093989e-12
0.0076251155
2.045425e-12
0.0076251155
3.9223729e-13
0.0076251155
9.3191012e-13
0.0076251155
-8.6883449e-13
0.0076251155
-2.7224086e-13
0.0076251155
-2.0765511e-12
0.0076251155
-1.0472896e-12
0.0076251155
-2.7104331e-12
0.0076251155
-1.3728411e-12
0.0076251155
-2.6827056e-12
0.0076251155
-1.0102858e-12
0.0076251155
-1.8470103e-12
0.0076251155
-2.4199359e-13
0.0076251155
-7.0429827e-13
0.0076251155
1.1260252e-12
0.0076251155
3.7857007e-13
0.0076251155
2.1631116e-12
0.0076251155
1.0663765e-12
0.0076251155
2.7718949e-12
0.0076251155
1.3622749e-12
0.0076251155
2.6905961e-12
0.0076251155
1.0778975e-12
0.0076251155
2.1214374e-12
0.0076251155
5.2706161e-13
0.0076251155
1.2211593e-12
0.0076251155
-3.7466687e-13
0.0076251155
4.3886385e-13
0.0076251155
-9.7418537e-13
0.0076251155
6.9933338e-14
0.0076251155
-1.0556228e-12
0.0076251155
4.1189976e-13
0.0076251155
-1.4892742e-13
0.0076251155
1.9332966e-12
0.0076251155
1.5631097e-12
0.0076251155
5.2151424e-12
0.0076251155
6.039452e-12
0.0076251155
1.358657e-11
0.0076251155
1.803391e-11
0.0076251155
3.1907242e-11
0.0076251155
3.9966255e-11
0.0076251155
6.2378869e-11
0.0076251155
8.145318e-11
0.0076251156
1.1475899e-10
1.4440489e-10
0.0079595071
-9.4623288e-12
0.0079685753
-1.3113699e-10
0.0079817356
-2.6184577e-10
0.0079951504
-1.7486527e-10
0.0080071625
7.7900291e-11
0.0080178137
2.187961e-10
0.0080274142
1.8551759e-10
0.0080360391
8.9628486e-11
0.0080436526
7.0582178e-11
0.0080502713
8.4227681e-11
0.0080559788
9.1754455e-11
0.0080608749
5.9412565e-11
0.008065046
2.302408e-11
0.0080685636
-1.1471245e-11
0.0080714926
-2.4676641e-11
0.0080738942
-3.0849805e-11
0.0080758276
-2.4737129e-11
0.0080773503
-1.3928722e-11
0.0080785191
5.1524163e-12
0.0080793898
3.2386685e-11
0.0080800171
6.3397701e-11
0.008080452
9.9915535e-11
0.0080807409
1.3671014e-10
0.0080809233
1.7484335e-10
0.0080810319
2.0708481e-10
0.0080810917
2.3742988e-10
0.0080811213
2.5371295e-10
0.0080811334
2.5557159e-10
0.0080811363
2.5306969e-10
0.0080811351
2.4097726e-10
0.0080811325
2.1492531e-10
0.0080811299
1.8746322e-10
0.0080811279
1.552038e-10
0.0080811264
1.2650775e-10
0.0080811254
9.7474031e-11
0.0080811249
7.4785296e-11
0.0080811246
5.3407858e-11
0.0080811244
3.911089e-11
0.0080811244
2.5693903e-11
0.0080811244
1.8257057e-11
0.0080811244
1.0620711e-11
0.0080811244
7.3114321e-12
0.0080811244
3.1617066e-12
0.0080811244
2.5199251e-12
0.0080811244
2.0967746e-13
0.0080811244
8.9262094e-13
0.0080811244
-3.9116877e-13
0.0080811244
8.6450611e-13
0.0080811244
-8.7140218e-14
0.0080811244
1.4862771e-12
0.0080811244
6.8127597e-13
0.0080811244
2.072861e-12
0.0080811244
8.9956794e-13
0.0080811244
2.1260361e-12
0.0080811244
8.3100153e-13
0.0080811244
1.6400019e-12
0.0080811244
-2.8138061e-14
0.0080811244
7.0110003e-13
0.0080811244
-9.6521646e-13
0.0080811244
-2.5902955e-13
0.0080811244
-2.015107e-12
0.0080811244
-1.0065678e-12
0.0080811244
-2.3429039e-12
0.0080811244
-1.1649605e-12
0.0080811244
-2.2993364e-12
0.0080811244
-7.9444939e-13
0.0080811244
-1.481413e-12
0.0080811244
1.0829721e-13
0.0080811244
-6.4567512e-13
0.0080811244
1.1160537e-12
0.0080811244
3.7225186e-13
0.0080811244
1.9250709e-12
0.0080811244
8.3489711e-13
0.0080811244
2.2155367e-12
0.0080811244
1.0531154e-12
0.0080811244
2.0554739e-12
0.0080811244
5.8003404e-13
0.0080811244
1.4836682e-12
0.0080811244
6.5722492e-14
0.0080811244
8.4529233e-13
0.0080811244
-7.2863112e-13
0.0080811244
2.767876e-13
0.0080811244
-1.0106401e-12
0.0080811244
1.4996918e-13
0.0080811244
-9.7374621e-13
0.0080811244
6.1085548e-13
0.0080811244
-2.3104316e-14
0.0080811244
1.8260207e-12
0.0080811244
1.3016136e-12
0.0080811244
3.6871748e-12
0.0080811244
3.9275447e-12
0.0080811244
7.6474954e-12
0.0080811244
9.2779155e-12
0.0080811244
1.4712694e-11
0.0080811244
1.6812432e-11
0.0080811245
1.9343193e-11
0.0080811245
2.0634852e-11
0.0080811246
1.9975746e-11
0.0080811247
2.0139174e-11
2.1354391e-11
0.0079595055
-1.8703959e-06
0.0079685735
-9.0683479e-06
0.0079817336
-1.3160702e-05
0.0079951486
-1.3414513e-05
0.0080071608
-1.2011087e-05
0.0080178122
-1.065058e-05
0.0080274127
-9.6003832e-06
0.0080360378
-8.6251569e-06
0.0080436513
-7.6135161e-06
0.0080502701
-6.6186603e-06
0.0080559777
-5.7073271e-06
0.0080608739
-4.8959922e-06
0.008065045
-4.1709212e-06
0.0080685627
-3.5176114e-06
0.0080714917
-2.9288782e-06
0.0080738934
-2.4015515e-06
0.0080758268
-1.9333363e-06
0.0080773496
-1.5226444e-06
0.0080785183
-1.1686448e-06
0.0080793891
-8.7067631e-07
0.0080800164
-6.2714719e-07
0.0080804514
-4.3482282e-07
0.0080807403
-2.8867738e-07
0.0080809228
-1.8224673e-07
0.0080810314
-1.0830203e-07
0.0080810913
-5.953985e-08
0.0080811209
-2.9276727e-08
0.008081133
-1.1844753e-08
0.0080811361
-2.690948e-09
0.0080811349
1.4840449e-09
0.0080811324
2.8013575e-09
0.0080811298
2.7834548e-09
0.0080811278
2.234978e-09
0.0080811263
1.5960169e-09
0.0080811254
1.0390305e-09
0.0080811249
6.311519e-10
0.0080811246
3.5230081e-10
0.0080811244
1.8456953e-10
0.0080811244
8.3529153e-11
0.0080811244
3.3879346e-11
0.0080811244
6.4599589e-12
0.0080811244
-2.2873703e-12
0.0080811244
-8.2405769e-12
0.0080811244
-5.6823528e-12
0.0080811244
-7.0257076e-12
0.0080811244
-3.0267427e-12
0.0080811244
-3.8456728e-12
0.0080811244
-7.7646965e-13
0.0080811244
-1.6611346e-12
0.0080811245
1.0937315e-12
0.0080811245
-2.2744307e-13
0.0080811245
1.7504983e-12
0.0080811245
-2.2675659e-14
0.0080811245
1.74606e-12
0.0080811245
-3.187664e-13
0.0080811245
9.6505891e-13
0.0080811245
-1.3399458e-12
0.0080811245
1.6467109e-13
0.0080811245
-2.1204457e-12
0.0080811245
-5.1099813e-13
0.0080811245
-2.7324544e-12
0.0080811245
-6.3960512e-13
0.0080811244
-2.540007e-12
0.0080811244
-4.6272963e-13
0.0080811244
-1.9679636e-12
0.0080811244
3.5835831e-13
0.0080811244
-9.5890104e-13
0.0080811244
1.2741786e-12
0.0080811244
-1.8361151e-13
0.0080811244
2.1298753e-12
0.0080811244
3.6712249e-13
0.0080811244
2.3356097e-12
0.0080811244
3.5413706e-13
0.0080811244
2.1889879e-12
0.0080811244
9.5706175e-14
0.0080811245
1.4878501e-12
0.0080811245
-6.9938173e-13
0.0080811245
8.8851551e-13
0.0080811245
-1.2891477e-12
0.0080811245
2.4243452e-13
0.0080811245
-1.7637498e-12
0.0080811245
1.7523701e-13
0.0080811245
-1.5620969e-12
0.0080811245
3.9562904e-13
0.0080811245
-9.8718838e-13
0.0080811245
1.5576706e-12
0.0080811245
2.9291904e-13
0.0080811245
2.9473701e-12
0.0080811245
1.3916104e-12
0.0080811245
4.8696256e-12
0.0080811245
3.0785051e-12
0.0080811245
7.2708332e-12
0.0080811245
4.3734056e-12
0.0080811245
7.5526844e-12
0.0080811245
-4.6739523e-13
0.0080811245
-5.0354619e-12
0.0080811245
-2.4415714e-11
0.0080811246
-4.5323364e-11
0.0080811247
-7.7770335e-11
-1.0636324e-10
0.0075533839
-3.8655587e-06
0.0075613484
-1.7032206e-05
0.0075716655
-2.3478238e-05
0.0075812483
-2.2997084e-05
0.0075892174
-1.9979667e-05
0.007595836
-1.7268504e-05
0.0076014241
-1.518849e-05
0.0076061246
-1.3325773e-05
0.0076100175
-1.1506553e-05
0.0076132044
-9.8054609e-06
0.0076158028
-8.3057407e-06
0.0076179191
-7.0120787e-06
0.0076196363
-5.8880437e-06
0.0076210189
-4.9000885e-06
0.0076221189
-4.0288176e-06
0.0076229804
-3.2628636e-06
0.0076236413
-2.5941175e-06
0.0076241353
-2.0166277e-06
0.0076244932
-1.5264096e-06
0.0076247427
-1.1200871e-06
0.0076249089
-7.9327511e-07
0.0076250137
-5.3951745e-07
0.0076250753
-3.5017128e-07
0.0076251081
-2.1502455e-07
0.0076251231
-1.2321353e-07
0.007625128
-6.4293667e-08
0.0076251277
-2.887852e-08
0.0076251253
-9.3508966e-09
0.0076251225
2.3408366e-10
0.00762512
3.9874213e-09
0.0076251182
4.6988414e-09
0.0076251169
4.0644721e-09
0.0076251162
3.0374812e-09
0.0076251158
2.0456009e-09
0.0076251156
1.27437e-09
0.0076251155
7.2814687e-10
0.0076251155
3.8686527e-10
0.0076251155
1.7906096e-10
0.0076251155
7.2255145e-11
0.0076251155
1.4428764e-11
0.0076251155
-5.2971219e-12
0.0076251155
-1.6940862e-11
0.0076251156
-1.2904573e-11
0.0076251156
-1.4458234e-11
0.0076251156
-7.3223638e-12
0.0076251156
-8.1354016e-12
0.0076251156
-2.5304417e-12
0.0076251156
-4.0771744e-12
0.0076251156
1.7148144e-13
0.0076251156
-1.7757175e-12
0.0076251156
1.5993565e-12
0.0076251156
-1.2915945e-12
0.0076251156
1.7316581e-12
0.0076251156
-1.4469031e-12
0.0076251156
1.1171838e-12
0.0076251156
-2.2797959e-12
0.0076251156
3.2859882e-13
0.0076251156
-2.8066203e-12
0.0076251156
-1.5452254e-13
0.0076251156
-3.1977763e-12
0.0076251156
-1.5706745e-13
0.0076251156
-2.784941e-12
0.0076251156
2.7698352e-13
0.0076251156
-2.2443889e-12
0.0076251156
1.2573134e-12
0.0076251156
-1.2217525e-12
0.0076251156
2.0711017e-12
0.0076251156
-5.282451e-13
0.0076251156
2.6619501e-12
0.0076251156
-9.2392542e-14
0.0076251156
2.7020084e-12
0.0076251156
-3.4875156e-13
0.0076251156
2.3531894e-12
0.0076251156
-8.6761337e-13
0.0076251156
1.6536178e-12
0.0076251156
-1.7719304e-12
0.0076251156
9.235783e-13
0.0076251156
-2.2235745e-12
0.0076251156
4.1637849e-13
0.0076251156
-2.5951433e-12
0.0076251156
4.1897344e-13
0.0076251156
-2.2331296e-12
0.0076251156
9.5222528e-13
0.0076251156
-1.6417259e-12
0.0076251156
1.9754202e-12
0.0076251156
-2.1676751e-13
0.0076251156
3.2290971e-12
0.0076251156
8.0455074e-13
0.0076251156
4.5139223e-12
0.0076251156
1.9969819e-12
0.0076251156
5.3155578e-12
0.0076251156
2.3180524e-12
0.0076251156
2.9516871e-12
0.0076251156
-3.1517701e-12
0.0076251156
-1.2033126e-11
0.0076251156
-2.7663113e-11
0.0076251157
-5.9449166e-11
0.0076251157
-9.8483977e-11
0.0076251158
-1.6468482e-10
-2.1870272e-10
0.0066259929
-5.5600977e-06
0.0066298265
-2.0865487e-05
0.0066325734
-2.622517e-05
0.0066334261
-2.3849464e-05
0.0066329579
-1.9510867e-05
0.0066317094
-1.6019681e-05
0.0066299956
-1.347474e-05
0.0066280332
-1.1363516e-05
0.0066259993
-9.4726941e-06
0.0066240214
-7.8275365e-06
0.0066221747
-6.4589364e-06
0.0066204971
-5.3343501e-06
0.0066190053
-4.3960412e-06
0.0066177034
-3.5980492e-06
0.0066165874
-2.912717e-06
0.0066156481
-2.3233903e-06
0.0066148729
-1.8187187e-06
0.0066142471
-1.3907222e-06
0.0066137547
-1.0338428e-06
0.0066133782
-7.434827e-07
0.0066130996
-5.1454242e-07
0.0066129007
-3.4059391e-07
0.0066127646
-2.1387915e-07
0.0066126755
-1.2585653e-07
0.0066126203
-6.793701e-08
0.0066125883
-3.2152245e-08
0.0066125712
-1.1696731e-08
0.0066125633
-1.2819695e-09
0.0066125604
3.1889444e-09
0.0066125601
4.3880325e-09
0.0066125608
4.0305609e-09
0.0066125618
3.1185273e-09
0.0066125627
2.163528e-09
0.0066125634
1.3754526e-09
0.0066125639
8.0721356e-10
0.0066125642
4.33957e-10
0.0066125644
2.0930771e-10
0.0066125645
8.3565601e-11
0.0066125646
2.0950668e-11
0.0066125646
-6.9802037e-12
0.0066125646
-1.5949583e-11
0.0066125646
-1.7208116e-11
0.0066125646
-1.4177717e-11
0.0066125646
-1.0993778e-11
0.0066125646
-7.325864e-12
0.0066125646
-5.3236395e-12
0.0066125646
-3.0537446e-12
0.0066125646
-2.0491316e-12
0.0066125646
-7.2430454e-13
0.0066125646
-7.1174581e-13
0.0066125646
-6.6547559e-14
0.0066125646
-4.3517391e-13
0.0066125646
-3.4072359e-14
0.0066125646
-8.2596488e-13
0.0066125646
-7.2932774e-13
0.0066125646
-1.2484644e-12
0.0066125646
-1.0176821e-12
0.0066125646
-1.584728e-12
0.0066125646
-1.2932729e-12
0.0066125646
-1.4198987e-12
0.0066125646
-8.1817282e-13
0.0066125646
-9.9510652e-13
0.0066125646
-3.6810093e-13
0.0066125646
-3.3642546e-13
0.0066125646
5.2541396e-13
0.0066125646
3.0345338e-13
0.0066125646
8.4053668e-13
0.0066125646
7.4284104e-13
0.0066125646
1.2145332e-12
0.0066125646
6.8862759e-13
0.0066125646
8.1814618e-13
0.0066125646
3.2399183e-13
0.0066125646
5.1718719e-13
0.0066125646
-2.9022847e-13
0.0066125646
-1.890317e-13
0.0066125646
-7.6462089e-13
0.0066125646
-4.8050039e-13
0.0066125646
-1.0681753e-12
0.0066125646
-7.6814421e-13
0.0066125646
-9.1783626e-13
0.0066125646
-2.9866755e-13
0.0066125646
-4.9066123e-13
0.0066125646
1.6727977e-13
0.0066125646
2.6497803e-13
0.0066125646
1.2245454e-12
0.0066125646
1.1874417e-12
0.0066125646
1.8663459e-12
0.0066125646
2.0612806e-12
0.0066125646
2.6949782e-12
0.0066125646
2.5977636e-12
0.0066125646
2.3077396e-12
0.0066125646
1.497591e-12
0.0066125646
-1.8848809e-12
0.0066125646
-6.987763e-12
0.0066125646
-1.9479358e-11
0.0066125646
-3.2531916e-11
0.0066125646
-7.432647e-11
0.0066125647
-1.1604111e-10
0.0066125647
-2.1286224e-10
-2.7987473e-10
0.0049422704
-5.0012617e-06
0.0049362797
-1.487356e-05
0.0049261276
-1.6072515e-05
0.004915147
-1.2868646e-05
0.0049050127
-9.3762901e-06
0.0048960113
-7.018007e-06
0.0048880653
-5.5286753e-06
0.0048811391
-4.4372513e-06
0.0048752143
-3.5478422e-06
0.0048702193
-2.8323157e-06
0.0048660388
-2.2781972e-06
0.0048625545
-1.8497493e-06
0.0048596659
-1.5071872e-06
0.0048572913
-1.2231158e-06
0.0048553616
-9.8269979e-07
0.0048538166
-7.7801778e-07
0.0048526022
-6.0409902e-07
0.0048516694
-4.5763789e-07
0.0048509722
-3.364104e-07
0.0048504675
-2.3864745e-07
0.0048501155
-1.6240671e-07
0.0048498803
-1.0523861e-07
0.0048497307
-6.4236986e-08
0.0048496413
-3.6300122e-08
0.0048495919
-1.8374302e-08
0.0048495675
-7.6428445e-09
0.0048495576
-1.6872471e-09
0.0048495556
8.3037815e-10
0.004849557
1.8040386e-09
0.0048495596
1.8762352e-09
0.0048495622
1.5494566e-09
0.0048495642
1.1295443e-09
0.0048495657
7.4462485e-10
0.0048495666
4.5565491e-10
0.0048495672
2.5223302e-10
0.0048495675
1.2909112e-10
0.0048495677
5.3565455e-11
0.0048495678
1.7215752e-11
0.0048495678
-2.2468893e-12
0.0048495678
-6.4068108e-12
0.0048495678
-1.027725e-11
0.0048495678
-6.5726735e-12
0.0048495678
-7.3935391e-12
0.0048495678
-2.9910151e-12
0.0048495678
-4.1076473e-12
0.0048495678
-7.2255101e-13
0.0048495678
-2.227849e-12
0.0048495678
6.2780289e-13
0.0048495678
-1.4798439e-12
0.0048495678
9.291924e-13
0.0048495678
-1.3541245e-12
0.0048495678
9.6736618e-13
0.0048495678
-1.5361207e-12
0.0048495678
5.8245167e-13
0.0048495678
-1.7784539e-12
0.0048495678
4.6963859e-13
0.0048495678
-1.9141881e-12
0.0048495678
2.8888443e-13
0.0048495678
-1.8772551e-12
0.0048495678
5.8407083e-13
0.0048495678
-1.6810025e-12
0.0048495678
7.5813331e-13
0.0048495678
-1.3932392e-12
0.0048495678
1.1753293e-12
0.0048495678
-1.0752158e-12
0.0048495678
1.2997608e-12
0.0048495678
-9.0973323e-13
0.0048495678
1.5205428e-12
0.0048495678
-8.7197003e-13
0.0048495678
1.3619714e-12
0.0048495678
-1.0146153e-12
0.0048495678
1.324972e-12
0.0048495678
-1.1805119e-12
0.0048495678
1.0226916e-12
0.0048495678
-1.3114046e-12
0.0048495678
1.0206048e-12
0.0048495678
-1.3571138e-12
0.0048495678
9.3397993e-13
0.0048495678
-1.2694537e-12
0.0048495678
1.2262092e-12
0.0048495678
-1.0520183e-12
0.0048495678
1.3827229e-12
0.0048495678
-7.5869189e-13
0.0048495678
1.775657e-12
0.0048495678
-3.8080032e-13
0.0048495678
1.9180346e-12
0.0048495678
-1.6171041e-13
0.0048495678
2.1875432e-12
0.0048495678
-2.9626101e-14
0.0048495678
2.1482123e-12
0.0048495678
-5.6847211e-13
0.0048495678
9.3011313e-13
0.0048495678
-4.6311157e-12
0.0048495678
-4.7067195e-12
0.0048495678
-1.3936871e-11
0.0048495677
-2.1799572e-11
0.0048495677
-4.9320537e-11
0.0048495677
-7.6937156e-11
0.0048495676
-1.7254489e-10
-2.2324689e-10
0.0021519667
0.0021370936
0.0021210211
0.0021081526
0.0020987765
0.0020917586
0.00208623
0.0020817928
0.002078245
0.0020754129
0.0020731349
0.0020712853
0.0020697783
0.0020685554
0.0020675729
0.0020667951
0.0020661912
0.0020657336
0.0020653973
0.0020651588
0.0020649964
0.0020648913
0.0020648271
0.0020647908
0.0020647725
0.0020647649
0.0020647633
0.0020647642
0.002064766
0.0020647679
0.0020647695
0.0020647707
0.0020647714
0.0020647719
0.0020647722
0.0020647723
0.0020647723
0.0020647724
0.0020647724
0.0020647724
0.0020647724
0.0020647723
0.0020647723
0.0020647723
0.0020647723
0.0020647723
0.0020647723
0.0020647723
0.0020647723
0.0020647723
0.0020647723
0.0020647723
0.0020647723
0.0020647723
0.0020647723
0.0020647723
0.0020647723
0.0020647723
0.0020647723
0.0020647723
0.0020647723
0.0020647723
0.0020647723
0.0020647723
0.0020647723
0.0020647723
0.0020647723
0.0020647723
0.0020647723
0.0020647723
0.0020647723
0.0020647723
0.0020647723
0.0020647723
0.0020647723
0.0020647723
0.0020647723
0.0020647723
0.0020647723
0.0020647723
0.0020647723
0.0020647723
0.0020647723
0.0020647723
0.0020647723
0.0020647723
0.0020647723
0.0020647723
0.0020647723
0.0020647723
0.0020647723
0.0020647723
0.0020647723
0.0020647723
0.0020647723
0.0020647723
0.0020647722
0.0020647721
0.002064772
)
;

boundaryField
{
    top
    {
        type            calculated;
        value           uniform 0;
    }
    inlet
    {
        type            calculated;
        value           nonuniform List<scalar> 10(-0.0021569672 -0.0049428316 -0.0066243021 -0.0075513926 -0.0079576361 -0.0079576344 -0.007551388 -0.0066242971 -0.0049428279 -0.0021569671);
    }
    outlet
    {
        type            calculated;
        value           nonuniform List<scalar> 10(0.0020647717 0.0048495674 0.0066125645 0.0076251157 0.0080811248 0.0080811248 0.0076251159 0.0066125648 0.0048495676 0.0020647717);
    }
    bottom
    {
        type            calculated;
        value           uniform 0;
    }
    back
    {
        type            empty;
        value           nonuniform 0();
    }
    front
    {
        type            empty;
        value           nonuniform 0();
    }
}


// ************************************************************************* //
