/*--------------------------------*- C++ -*----------------------------------*\
| =========                 |                                                 |
| \\      /  F ield         | OpenFOAM: The Open Source CFD Toolbox           |
|  \\    /   O peration     | Version:  v1812                                 |
|   \\  /    A nd           | Web:      www.OpenFOAM.com                      |
|    \\/     M anipulation  |                                                 |
\*---------------------------------------------------------------------------*/
FoamFile
{
    version     2.0;
    format      ascii;
    class       volVectorField;
    location    "6";
    object      U;
}
// * * * * * * * * * * * * * * * * * * * * * * * * * * * * * * * * * * * * * //

dimensions      [0 1 -1 0 0 0 0];


internalField   nonuniform List<vector> 
1000
(
(0.21557662 0.00038300047 0)
(0.21473171 0.00098913919 0)
(0.21297891 0.00097553704 0)
(0.21141974 0.00067659907 0)
(0.21029839 0.00041894584 0)
(0.20949562 0.0002766927 0)
(0.20887933 0.00020277628 0)
(0.20838522 0.00015403579 0)
(0.20798813 0.00011652291 0)
(0.20767135 8.8804861e-05 0)
(0.20741808 6.9532412e-05 0)
(0.20721353 5.5865245e-05 0)
(0.20704705 4.5328627e-05 0)
(0.20691156 3.6608574e-05 0)
(0.2068021 2.9194785e-05 0)
(0.20671478 2.2876607e-05 0)
(0.20664632 1.7521746e-05 0)
(0.20659381 1.3037914e-05 0)
(0.20655462 9.3654916e-06 0)
(0.20652633 6.453132e-06 0)
(0.20650667 4.2350352e-06 0)
(0.20649362 2.6233363e-06 0)
(0.20648541 1.5132582e-06 0)
(0.20648058 7.9294621e-07 0)
(0.20647799 3.5636724e-07 0)
(0.20647678 1.14479e-07 0)
(0.20647638 -5.5194057e-09 0)
(0.20647637 -6.4161927e-08 0)
(0.20647652 -7.7407493e-08 0)
(0.20647671 -6.7356214e-08 0)
(0.20647688 -5.0395832e-08 0)
(0.20647702 -3.3895082e-08 0)
(0.20647711 -2.0897766e-08 0)
(0.20647717 -1.1718265e-08 0)
(0.2064772 -5.9580142e-09 0)
(0.20647722 -2.5456999e-09 0)
(0.20647723 -8.2145676e-10 0)
(0.20647723 5.0711814e-11 0)
(0.20647723 3.3187431e-10 0)
(0.20647723 4.443433e-10 0)
(0.20647723 3.3964279e-10 0)
(0.20647723 2.9206638e-10 0)
(0.20647723 1.5888937e-10 0)
(0.20647723 1.3678356e-10 0)
(0.20647723 4.7574859e-11 0)
(0.20647723 7.0549436e-11 0)
(0.20647723 8.7920482e-12 0)
(0.20647723 5.5297647e-11 0)
(0.20647723 1.0080387e-11 0)
(0.20647723 6.7310938e-11 0)
(0.20647723 2.3562497e-11 0)
(0.20647723 7.7031421e-11 0)
(0.20647723 3.2492162e-11 0)
(0.20647723 8.0991236e-11 0)
(0.20647723 2.504657e-11 0)
(0.20647723 6.3163274e-11 0)
(0.20647723 1.3110506e-12 0)
(0.20647723 3.8191304e-11 0)
(0.20647723 -2.9340621e-11 0)
(0.20647723 1.0252789e-11 0)
(0.20647723 -5.2837035e-11 0)
(0.20647723 -1.2281907e-11 0)
(0.20647723 -7.0252388e-11 0)
(0.20647723 -2.5216532e-11 0)
(0.20647723 -7.0423929e-11 0)
(0.20647723 -1.3320442e-11 0)
(0.20647723 -5.4111333e-11 0)
(0.20647723 7.1900332e-12 0)
(0.20647723 -3.0681684e-11 0)
(0.20647723 3.4262032e-11 0)
(0.20647723 -7.3059442e-12 0)
(0.20647723 5.4153801e-11 0)
(0.20647723 1.4831932e-11 0)
(0.20647723 6.9800733e-11 0)
(0.20647723 2.0251133e-11 0)
(0.20647723 6.4139575e-11 0)
(0.20647723 8.7899143e-12 0)
(0.20647723 4.8893605e-11 0)
(0.20647723 -1.4468494e-11 0)
(0.20647723 2.4784031e-11 0)
(0.20647723 -3.5355973e-11 0)
(0.20647723 8.6386719e-12 0)
(0.20647723 -5.3821886e-11 0)
(0.20647723 -1.0546601e-11 0)
(0.20647723 -6.0664913e-11 0)
(0.20647723 -7.3789695e-12 0)
(0.20647723 -5.0318289e-11 0)
(0.20647723 1.0906052e-11 0)
(0.20647723 -1.9344002e-11 0)
(0.20647723 6.0474924e-11 0)
(0.20647723 6.706435e-11 0)
(0.20647723 1.7599892e-10 0)
(0.20647723 2.7420693e-10 0)
(0.20647723 5.1179105e-10 0)
(0.20647722 9.7894489e-10 0)
(0.20647722 1.7228288e-09 0)
(0.20647722 3.2685889e-09 0)
(0.20647721 5.3487519e-09 0)
(0.2064772 1.1101914e-08 0)
(0.20647718 1.3846219e-08 0)
(0.49400312 0.00052500591 0)
(0.49472985 0.0019409695 0)
(0.49349374 0.0024056093 0)
(0.49205822 0.0021085597 0)
(0.49093476 0.0016320234 0)
(0.49002028 0.0012626539 0)
(0.48919699 0.0010113667 0)
(0.48845082 0.00082052715 0)
(0.48780151 0.00066128996 0)
(0.48725405 0.00053020263 0)
(0.48679736 0.00042665161 0)
(0.4864166 0.00034556558 0)
(0.48609981 0.00028046223 0)
(0.48583806 0.00022656287 0)
(0.48562412 0.00018114391 0)
(0.48545161 0.00014267593 0)
(0.48531478 0.00011017801 0)
(0.48520847 8.2979471e-05 0)
(0.48512792 6.0614969e-05 0)
(0.4850687 4.2703258e-05 0)
(0.48502665 2.8836259e-05 0)
(0.48499797 1.8523822e-05 0)
(0.48497929 1.1199629e-05 0)
(0.48496778 6.2621614e-06 0)
(0.48496116 3.1284678e-06 0)
(0.4849577 1.2809972e-06 0)
(0.48495613 2.9008451e-07 0)
(0.48495562 -1.7760387e-07 0)
(0.48495564 -3.3786876e-07 0)
(0.48495586 -3.3874453e-07 0)
(0.48495612 -2.7424884e-07 0)
(0.48495635 -1.9601827e-07 0)
(0.48495651 -1.2757292e-07 0)
(0.48495663 -7.6264572e-08 0)
(0.48495669 -4.1755487e-08 0)
(0.48495673 -2.0466285e-08 0)
(0.48495675 -8.4794266e-09 0)
(0.48495676 -2.3091302e-09 0)
(0.48495677 4.3774975e-10 0)
(0.48495677 1.4128198e-09 0)
(0.48495677 1.4778312e-09 0)
(0.48495677 1.2454548e-09 0)
(0.48495676 8.9136156e-10 0)
(0.48495676 6.1673253e-10 0)
(0.48495676 3.7635998e-10 0)
(0.48495676 2.4940962e-10 0)
(0.48495676 1.3517419e-10 0)
(0.48495676 1.0672667e-10 0)
(0.48495676 7.6194876e-11 0)
(0.48495676 1.0488885e-10 0)
(0.48495676 1.0018002e-10 0)
(0.48495676 1.3686329e-10 0)
(0.48495676 1.3795793e-10 0)
(0.48495676 1.7121264e-10 0)
(0.48495676 1.4812784e-10 0)
(0.48495676 1.5223885e-10 0)
(0.48495676 1.0932096e-10 0)
(0.48495676 9.6295257e-11 0)
(0.48495676 3.2120394e-11 0)
(0.48495676 1.0170016e-12 0)
(0.48495676 -5.6698371e-11 0)
(0.48495676 -7.5333025e-11 0)
(0.48495676 -1.3094622e-10 0)
(0.48495676 -1.3662482e-10 0)
(0.48495676 -1.6308554e-10 0)
(0.48495676 -1.3497828e-10 0)
(0.48495676 -1.3881715e-10 0)
(0.48495676 -9.2086648e-11 0)
(0.48495676 -7.0710485e-11 0)
(0.48495676 -1.1002729e-11 0)
(0.48495676 1.2734081e-11 0)
(0.48495676 7.1716525e-11 0)
(0.48495676 9.3255485e-11 0)
(0.48495676 1.4555129e-10 0)
(0.48495676 1.409393e-10 0)
(0.48495676 1.6400507e-10 0)
(0.48495676 1.3914622e-10 0)
(0.48495676 1.4390407e-10 0)
(0.48495676 9.3148858e-11 0)
(0.48495676 7.5139501e-11 0)
(0.48495676 2.3651496e-11 0)
(0.48495676 7.1362647e-12 0)
(0.48495676 -4.4579976e-11 0)
(0.48495676 -6.0155512e-11 0)
(0.48495676 -9.5966582e-11 0)
(0.48495676 -8.2754796e-11 0)
(0.48495676 -9.3931341e-11 0)
(0.48495676 -5.6885619e-11 0)
(0.48495676 -1.2785809e-11 0)
(0.48495676 7.0003558e-11 0)
(0.48495676 2.0199483e-10 0)
(0.48495676 3.6643412e-10 0)
(0.48495676 7.5842835e-10 0)
(0.48495676 1.2083946e-09 0)
(0.48495676 2.4462939e-09 0)
(0.48495676 3.8243851e-09 0)
(0.48495675 7.374023e-09 0)
(0.48495676 1.0922553e-08 0)
(0.48495673 2.1235516e-08 0)
(0.48495675 2.8654928e-08 0)
(0.66192015 0.00042091726 0)
(0.66401776 0.0018711114 0)
(0.66375829 0.0026173963 0)
(0.66329225 0.0025867531 0)
(0.66318891 0.0022455261 0)
(0.66320183 0.0019130523 0)
(0.66311823 0.0016519129 0)
(0.66293221 0.0014265548 0)
(0.66271186 0.0012153361 0)
(0.66250038 0.0010222046 0)
(0.6623076 0.00085453171 0)
(0.66213205 0.00071245205 0)
(0.66197344 0.00059149873 0)
(0.66183313 0.00048722121 0)
(0.6617119 0.00039673312 0)
(0.66160919 0.00031826709 0)
(0.66152369 0.00025059913 0)
(0.6614539 0.00019284498 0)
(0.66139825 0.00014437508 0)
(0.66135508 0.00010466246 0)
(0.66132261 7.3106541e-05 0)
(0.66129901 4.892376e-05 0)
(0.66128252 3.1138646e-05 0)
(0.66127148 1.8649512e-05 0)
(0.66126445 1.0325597e-05 0)
(0.66126024 5.1022405e-06 0)
(0.66125788 2.0576273e-06 0)
(0.6612567 4.5471666e-07 0)
(0.6612562 -2.7001464e-07 0)
(0.66125605 -5.0700308e-07 0)
(0.66125608 -5.0227105e-07 0)
(0.66125616 -4.02338e-07 0)
(0.66125625 -2.8459175e-07 0)
(0.66125632 -1.8324674e-07 0)
(0.66125638 -1.0835509e-07 0)
(0.66125641 -5.8595149e-08 0)
(0.66125643 -2.8286139e-08 0)
(0.66125644 -1.1404727e-08 0)
(0.66125645 -2.8957222e-09 0)
(0.66125645 7.7841057e-10 0)
(0.66125645 2.0041863e-09 0)
(0.66125645 2.0380563e-09 0)
(0.66125645 1.6793998e-09 0)
(0.66125645 1.2015727e-09 0)
(0.66125645 8.2567906e-10 0)
(0.66125645 5.1226156e-10 0)
(0.66125645 3.3078961e-10 0)
(0.66125645 1.9586637e-10 0)
(0.66125645 1.606916e-10 0)
(0.66125645 1.321378e-10 0)
(0.66125645 1.5784009e-10 0)
(0.66125645 1.6301448e-10 0)
(0.66125645 2.0735581e-10 0)
(0.66125645 2.1076561e-10 0)
(0.66125645 2.3201925e-10 0)
(0.66125645 2.0510431e-10 0)
(0.66125645 1.9788413e-10 0)
(0.66125645 1.4116726e-10 0)
(0.66125645 9.6513163e-11 0)
(0.66125645 1.320714e-11 0)
(0.66125645 -3.5673026e-11 0)
(0.66125645 -1.1340937e-10 0)
(0.66125645 -1.5200294e-10 0)
(0.66125645 -2.09091e-10 0)
(0.66125645 -2.1125211e-10 0)
(0.66125645 -2.2932345e-10 0)
(0.66125645 -1.9777186e-10 0)
(0.66125645 -1.7981026e-10 0)
(0.66125645 -1.1016152e-10 0)
(0.66125645 -5.9728333e-11 0)
(0.66125645 1.8660115e-11 0)
(0.66125645 6.5062136e-11 0)
(0.66125645 1.4264208e-10 0)
(0.66125645 1.7542669e-10 0)
(0.66125645 2.2505518e-10 0)
(0.66125645 2.2539236e-10 0)
(0.66125645 2.4649051e-10 0)
(0.66125645 2.1595265e-10 0)
(0.66125645 2.0062586e-10 0)
(0.66125645 1.4027239e-10 0)
(0.66125645 1.0659756e-10 0)
(0.66125645 3.7227059e-11 0)
(0.66125645 -3.2575949e-12 0)
(0.66125645 -6.3517462e-11 0)
(0.66125645 -7.8314721e-11 0)
(0.66125645 -1.0999372e-10 0)
(0.66125645 -8.8090715e-11 0)
(0.66125645 -7.7772829e-11 0)
(0.66125645 2.4963411e-11 0)
(0.66125645 9.1866229e-11 0)
(0.66125645 3.3371644e-10 0)
(0.66125645 5.0574273e-10 0)
(0.66125645 1.1386527e-09 0)
(0.66125645 1.7336309e-09 0)
(0.66125644 3.403057e-09 0)
(0.66125645 4.9775958e-09 0)
(0.66125644 8.8793316e-09 0)
(0.66125646 1.2918204e-08 0)
(0.66125642 2.1295841e-08 0)
(0.66125647 2.8405339e-08 0)
(0.75443666 0.0002546807 0)
(0.75728549 0.0012536774 0)
(0.75750853 0.0018634267 0)
(0.75762332 0.0019418228 0)
(0.75830626 0.0017663746 0)
(0.75918444 0.001568174 0)
(0.75991163 0.0014059935 0)
(0.76043741 0.0012582756 0)
(0.76083973 0.0011089685 0)
(0.76117656 0.00096250846 0)
(0.76146298 0.00082765587 0)
(0.76169955 0.00070753452 0)
(0.76189029 0.00060075893 0)
(0.76204308 0.0005052 0)
(0.76216526 0.00041954994 0)
(0.76226202 0.00034314116 0)
(0.76233716 0.00027554319 0)
(0.76239401 0.00021645579 0)
(0.76243571 0.00016569504 0)
(0.76246524 0.00012310257 0)
(0.76248527 8.8399726e-05 0)
(0.76249816 6.1081677e-05 0)
(0.76250592 4.0394691e-05 0)
(0.76251019 2.538728e-05 0)
(0.76251225 1.5004973e-05 0)
(0.762513 8.193265e-06 0)
(0.76251306 3.9900266e-06 0)
(0.76251282 1.5847267e-06 0)
(0.76251249 3.4127999e-07 0)
(0.76251218 -2.067229e-07 0)
(0.76251195 -3.778412e-07 0)
(0.76251178 -3.683098e-07 0)
(0.76251167 -2.9035e-07 0)
(0.76251161 -2.0207492e-07 0)
(0.76251157 -1.2765984e-07 0)
(0.76251155 -7.3905807e-08 0)
(0.76251154 -3.8746565e-08 0)
(0.76251154 -1.7934247e-08 0)
(0.76251154 -6.5242015e-09 0)
(0.76251154 -1.1244653e-09 0)
(0.76251154 1.1704656e-09 0)
(0.76251154 1.6817602e-09 0)
(0.76251154 1.6368554e-09 0)
(0.76251155 1.2070171e-09 0)
(0.76251155 9.1697234e-10 0)
(0.76251155 5.4176992e-10 0)
(0.76251155 4.1181963e-10 0)
(0.76251155 2.081804e-10 0)
(0.76251155 2.2177946e-10 0)
(0.76251155 1.2237344e-10 0)
(0.76251155 2.0569805e-10 0)
(0.76251155 1.4651129e-10 0)
(0.76251155 2.4291951e-10 0)
(0.76251155 1.763749e-10 0)
(0.76251155 2.553398e-10 0)
(0.76251155 1.6254213e-10 0)
(0.76251155 2.0770284e-10 0)
(0.76251155 8.1827195e-11 0)
(0.76251155 1.04295e-10 0)
(0.76251155 -2.9581189e-11 0)
(0.76251155 -1.8173889e-11 0)
(0.76251155 -1.565901e-10 0)
(0.76251155 -1.2835678e-10 0)
(0.76251155 -2.3936637e-10 0)
(0.76251155 -1.7844145e-10 0)
(0.76251155 -2.5397439e-10 0)
(0.76251155 -1.5334319e-10 0)
(0.76251155 -1.9040856e-10 0)
(0.76251155 -6.0633305e-11 0)
(0.76251155 -7.9149285e-11 0)
(0.76251155 5.7775617e-11 0)
(0.76251155 4.2633948e-11 0)
(0.76251155 1.7544192e-10 0)
(0.76251155 1.4158219e-10 0)
(0.76251155 2.5134669e-10 0)
(0.76251155 1.887759e-10 0)
(0.76251155 2.6474347e-10 0)
(0.76251155 1.6884198e-10 0)
(0.76251155 2.1646082e-10 0)
(0.76251155 9.9409041e-11 0)
(0.76251155 1.3138891e-10 0)
(0.76251155 8.800592e-12 0)
(0.76251155 4.3466042e-11 0)
(0.76251155 -6.7987799e-11 0)
(0.76251155 -9.5137831e-12 0)
(0.76251155 -9.7937252e-11 0)
(0.76251155 7.1887047e-13 0)
(0.76251155 -4.4036837e-11 0)
(0.76251155 1.1854691e-10 0)
(0.76251155 1.3971893e-10 0)
(0.76251155 4.4316781e-10 0)
(0.76251155 5.9286474e-10 0)
(0.76251155 1.2929641e-09 0)
(0.76251155 1.8680304e-09 0)
(0.76251154 3.4081935e-09 0)
(0.76251155 4.6663936e-09 0)
(0.76251154 7.5542516e-09 0)
(0.76251156 1.0544442e-08 0)
(0.76251152 1.5637797e-08 0)
(0.76251159 2.0236314e-08 0)
(0.79495777 8.3804153e-05 0)
(0.79812586 0.00043267033 0)
(0.79850003 0.00066018517 0)
(0.79881647 0.00070274349 0)
(0.79984129 0.00065038593 0)
(0.80114713 0.00058632963 0)
(0.80230941 0.00053385948 0)
(0.80324351 0.00048542368 0)
(0.80402591 0.0004346284 0)
(0.80471766 0.00038297621 0)
(0.80533145 0.00033403065 0)
(0.80586374 0.0002893603 0)
(0.80631666 0.00024875983 0)
(0.80669861 0.00021166431 0)
(0.80701844 0.00017778153 0)
(0.80728313 0.00014703479 0)
(0.80749836 0.00011940702 0)
(0.80766966 9.4903228e-05 0)
(0.80780266 7.3553763e-05 0)
(0.80790307 5.538605e-05 0)
(0.80797648 4.0368856e-05 0)
(0.80802822 2.8368017e-05 0)
(0.8080632 1.913328e-05 0)
(0.80808574 1.2315995e-05 0)
(0.80809948 7.506541e-06 0)
(0.80810728 4.2793067e-06 0)
(0.80811131 2.2319588e-06 0)
(0.8081131 1.0154242e-06 0)
(0.80811367 3.5133721e-07 0)
(0.80811365 3.2219059e-08 0)
(0.8081134 -9.439322e-08 0)
(0.80811312 -1.2211304e-07 0)
(0.80811288 -1.0646297e-07 0)
(0.8081127 -7.7854423e-08 0)
(0.80811258 -5.0481587e-08 0)
(0.80811251 -2.9468128e-08 0)
(0.80811247 -1.530645e-08 0)
(0.80811245 -6.7649005e-09 0)
(0.80811244 -2.0917369e-09 0)
(0.80811243 9.0247712e-11 0)
(0.80811244 9.155732e-10 0)
(0.80811243 1.0243237e-09 0)
(0.80811244 8.8364683e-10 0)
(0.80811244 6.4192751e-10 0)
(0.80811244 4.4105312e-10 0)
(0.80811244 2.6960221e-10 0)
(0.80811244 1.9241379e-10 0)
(0.80811244 1.1989086e-10 0)
(0.80811244 1.2135245e-10 0)
(0.80811244 1.1076057e-10 0)
(0.80811244 1.5863935e-10 0)
(0.80811244 1.5730669e-10 0)
(0.80811244 1.8813469e-10 0)
(0.80811244 1.6965878e-10 0)
(0.80811244 1.8487704e-10 0)
(0.80811244 1.3518949e-10 0)
(0.80811244 1.1130684e-10 0)
(0.80811244 3.743746e-11 0)
(0.80811244 1.4338486e-11 0)
(0.80811244 -6.1862971e-11 0)
(0.80811244 -9.3459098e-11 0)
(0.80811244 -1.5744254e-10 0)
(0.80811244 -1.6256928e-10 0)
(0.80811244 -1.9847467e-10 0)
(0.80811244 -1.8024235e-10 0)
(0.80811244 -1.8255858e-10 0)
(0.80811244 -1.2046113e-10 0)
(0.80811244 -9.7569901e-11 0)
(0.80811244 -2.7384062e-11 0)
(0.80811244 -2.7969429e-12 0)
(0.80811244 7.6617538e-11 0)
(0.80811244 9.994112e-11 0)
(0.80811244 1.5404654e-10 0)
(0.80811244 1.5839741e-10 0)
(0.80811244 1.9598345e-10 0)
(0.80811244 1.7231042e-10 0)
(0.80811244 1.7230942e-10 0)
(0.80811244 1.2406149e-10 0)
(0.80811244 1.1765714e-10 0)
(0.80811244 5.7264193e-11 0)
(0.80811244 4.1474849e-11 0)
(0.80811244 -1.4329247e-11 0)
(0.80811244 -3.8812337e-12 0)
(0.80811244 -4.3689303e-11 0)
(0.80811244 -2.1644083e-11 0)
(0.80811244 -2.9583371e-11 0)
(0.80811244 3.6927722e-11 0)
(0.80811244 6.3546932e-11 0)
(0.80811244 1.6772769e-10 0)
(0.80811244 2.5519765e-10 0)
(0.80811244 4.4727711e-10 0)
(0.80811244 6.7881347e-10 0)
(0.80811244 1.1304746e-09 0)
(0.80811244 1.631831e-09 0)
(0.80811244 2.4531783e-09 0)
(0.80811245 3.0461809e-09 0)
(0.80811244 4.2259849e-09 0)
(0.80811246 5.239581e-09 0)
(0.80811242 6.9323798e-09 0)
(0.8081125 8.5719842e-09 0)
(0.7949576 -8.3807409e-05 0)
(0.7981257 -0.00043269313 0)
(0.79849985 -0.00066022162 0)
(0.79881626 -0.00070276992 0)
(0.7998411 -0.00065037765 0)
(0.80114697 -0.0005862978 0)
(0.80230927 -0.00053382683 0)
(0.80324336 -0.00048540233 0)
(0.80402578 -0.00043461178 0)
(0.80471753 -0.00038295988 0)
(0.80533134 -0.00033401414 0)
(0.80586363 -0.00028934904 0)
(0.80631656 -0.00024875507 0)
(0.80669851 -0.00021166612 0)
(0.80701835 -0.00017778662 0)
(0.80728304 -0.0001470414 0)
(0.80749828 -0.00011941265 0)
(0.80766958 -9.4906616e-05 0)
(0.80780259 -7.3553272e-05 0)
(0.807903 -5.5380519e-05 0)
(0.80797642 -4.0357158e-05 0)
(0.80802816 -2.8349029e-05 0)
(0.80806314 -1.9106578e-05 0)
(0.80808569 -1.2281378e-05 0)
(0.80809943 -7.4650702e-06 0)
(0.80810723 -4.2318926e-06 0)
(0.80811127 -2.1814934e-06 0)
(0.80811306 -9.6309559e-07 0)
(0.80811364 -2.9994532e-07 0)
(0.80811362 1.6007731e-08 0)
(0.80811338 1.3758052e-07 0)
(0.8081131 1.596982e-07 0)
(0.80811286 1.3770742e-07 0)
(0.80811269 1.0325925e-07 0)
(0.80811257 7.0163558e-08 0)
(0.8081125 4.451206e-08 0)
(0.80811247 2.615856e-08 0)
(0.80811245 1.4637169e-08 0)
(0.80811244 7.35519e-09 0)
(0.80811244 3.5706443e-09 0)
(0.80811244 1.2323745e-09 0)
(0.80811244 4.2668829e-10 0)
(0.80811244 -2.1138434e-10 0)
(0.80811244 -1.5333906e-10 0)
(0.80811244 -3.7904757e-10 0)
(0.80811244 -1.0837789e-10 0)
(0.80811244 -2.5284785e-10 0)
(0.80811244 3.5873916e-11 0)
(0.80811244 -1.3184378e-10 0)
(0.80811244 1.5399583e-10 0)
(0.80811245 -2.6123993e-11 0)
(0.80811245 2.1883527e-10 0)
(0.80811245 -2.0124775e-12 0)
(0.80811245 2.2178896e-10 0)
(0.80811245 -2.1788266e-11 0)
(0.80811245 1.6618818e-10 0)
(0.80811245 -1.0382961e-10 0)
(0.80811245 8.6423668e-11 0)
(0.80811245 -1.8192584e-10 0)
(0.80811245 -5.2618654e-12 0)
(0.80811245 -2.6692962e-10 0)
(0.80811245 -5.3254876e-11 0)
(0.80811245 -2.7525455e-10 0)
(0.80811244 -4.1821877e-11 0)
(0.80811244 -2.4364815e-10 0)
(0.80811244 2.3515906e-11 0)
(0.80811244 -1.5839228e-10 0)
(0.80811244 1.0564394e-10 0)
(0.80811244 -8.4353458e-11 0)
(0.80811244 1.9119379e-10 0)
(0.80811244 3.604663e-12 0)
(0.80811244 2.4609553e-10 0)
(0.80811244 2.3592071e-11 0)
(0.80811244 2.4960932e-10 0)
(0.80811244 1.2818831e-11 0)
(0.80811244 2.0814094e-10 0)
(0.80811245 -4.9537528e-11 0)
(0.80811245 1.529028e-10 0)
(0.80811245 -9.917806e-11 0)
(0.80811245 9.6693304e-11 0)
(0.80811245 -1.5871657e-10 0)
(0.80811245 6.1642947e-11 0)
(0.80811245 -1.6492799e-10 0)
(0.80811245 6.9232949e-11 0)
(0.80811245 -1.3890357e-10 0)
(0.80811245 1.3461459e-10 0)
(0.80811245 -3.5479242e-11 0)
(0.80811245 2.5677886e-10 0)
(0.80811245 1.1035544e-10 0)
(0.80811245 4.3941838e-10 0)
(0.80811245 3.3729855e-10 0)
(0.80811245 7.6028854e-10 0)
(0.80811244 6.8246364e-10 0)
(0.80811245 1.1500259e-09 0)
(0.80811244 7.8175076e-10 0)
(0.80811245 7.3000433e-10 0)
(0.80811244 -1.1405798e-10 0)
(0.80811247 -1.2702874e-09 0)
(0.80811243 -2.9150878e-09 0)
(0.80811251 -4.344672e-09 0)
(0.7544362 -0.00025467965 0)
(0.75728499 -0.0012536806 0)
(0.75750807 -0.001863436 0)
(0.7576229 -0.001941828 0)
(0.75830588 -0.0017663707 0)
(0.75918405 -0.0015681634 0)
(0.75991125 -0.0014059842 0)
(0.76043704 -0.0012582685 0)
(0.7608394 -0.0011089627 0)
(0.76117624 -0.00096250233 0)
(0.76146269 -0.00082765233 0)
(0.76169926 -0.00070753506 0)
(0.76189002 -0.00060076496 0)
(0.76204282 -0.00050520995 0)
(0.76216501 -0.0004195625 0)
(0.76226178 -0.00034315407 0)
(0.76233693 -0.00027555494 0)
(0.76239379 -0.00021646471 0)
(0.7624355 -0.00016569983 0)
(0.76246504 -0.00012310207 0)
(0.76248507 -8.8392912e-05 0)
(0.76249798 -6.1068017e-05 0)
(0.76250575 -4.0373831e-05 0)
(0.76251004 -2.5359715e-05 0)
(0.7625121 -1.4971265e-05 0)
(0.76251287 -8.1551111e-06 0)
(0.76251294 -3.9485904e-06 0)
(0.76251272 -1.5423217e-06 0)
(0.76251241 -3.0000858e-07 0)
(0.76251212 2.4448924e-07 0)
(0.76251189 4.1166463e-07 0)
(0.76251174 3.9721604e-07 0)
(0.76251164 3.1439486e-07 0)
(0.76251159 2.2115871e-07 0)
(0.76251156 1.4249685e-07 0)
(0.76251155 8.4833118e-08 0)
(0.76251154 4.6738536e-08 0)
(0.76251155 2.3380487e-08 0)
(0.76251155 1.0276772e-08 0)
(0.76251155 3.3667863e-09 0)
(0.76251155 2.682758e-10 0)
(0.76251156 -9.8833253e-10 0)
(0.76251155 -1.2001323e-09 0)
(0.76251156 -1.1540847e-09 0)
(0.76251156 -8.4049741e-10 0)
(0.76251156 -6.4403626e-10 0)
(0.76251156 -3.6203866e-10 0)
(0.76251156 -2.6426729e-10 0)
(0.76251156 -7.1650224e-11 0)
(0.76251156 -5.3010168e-11 0)
(0.76251156 5.6149482e-11 0)
(0.76251156 2.6286648e-12 0)
(0.76251156 7.2552434e-11 0)
(0.76251156 2.8543192e-13 0)
(0.76251156 3.8074459e-11 0)
(0.76251156 -6.7733016e-11 0)
(0.76251156 -3.0684843e-11 0)
(0.76251156 -1.2116689e-10 0)
(0.76251156 -8.5421891e-11 0)
(0.76251156 -1.8061717e-10 0)
(0.76251156 -1.1577502e-10 0)
(0.76251156 -1.6491464e-10 0)
(0.76251156 -7.7710511e-11 0)
(0.76251156 -1.2508664e-10 0)
(0.76251156 -2.0444663e-11 0)
(0.76251156 -3.9285072e-11 0)
(0.76251156 6.0026247e-11 0)
(0.76251156 1.632751e-11 0)
(0.76251156 1.1402057e-10 0)
(0.76251156 7.64843e-11 0)
(0.76251156 1.4938597e-10 0)
(0.76251156 6.8779446e-11 0)
(0.76251156 1.2384897e-10 0)
(0.76251156 4.4432117e-11 0)
(0.76251156 8.0223883e-11 0)
(0.76251156 -2.574378e-11 0)
(0.76251156 1.4665972e-11 0)
(0.76251156 -6.8923418e-11 0)
(0.76251156 -2.4497595e-11 0)
(0.76251156 -1.1357745e-10 0)
(0.76251156 -4.8219883e-11 0)
(0.76251156 -9.8535717e-11 0)
(0.76251156 -1.8248285e-11 0)
(0.76251156 -6.2107859e-11 0)
(0.76251156 4.5185131e-11 0)
(0.76251156 4.0001428e-11 0)
(0.76251156 1.6025212e-10 0)
(0.76251156 1.6444293e-10 0)
(0.76251156 2.9151984e-10 0)
(0.76251156 3.3364055e-10 0)
(0.76251156 4.364343e-10 0)
(0.76251156 4.7290151e-10 0)
(0.76251156 3.9599893e-10 0)
(0.76251156 2.1249387e-10 0)
(0.76251156 -7.059187e-10 0)
(0.76251157 -1.6519933e-09 0)
(0.76251156 -4.2051382e-09 0)
(0.76251158 -7.3236029e-09 0)
(0.76251154 -1.2365022e-08 0)
(0.76251161 -1.6888578e-08 0)
(0.66191965 -0.00042091205 0)
(0.66401727 -0.0018710964 0)
(0.66375778 -0.002617399 0)
(0.66329177 -0.0025867742 0)
(0.66318846 -0.0022455543 0)
(0.6632014 -0.001913073 0)
(0.66311778 -0.0016519249 0)
(0.66293177 -0.0014265596 0)
(0.66271144 -0.0012153403 0)
(0.66249998 -0.0010222094 0)
(0.66230722 -0.00085453954 0)
(0.66213168 -0.00071246169 0)
(0.66197307 -0.00059151149 0)
(0.66183278 -0.00048723567 0)
(0.66171156 -0.00039674927 0)
(0.66160886 -0.00031828268 0)
(0.66152337 -0.00025061315 0)
(0.6614536 -0.00019285571 0)
(0.66139797 -0.00014438171 0)
(0.66135481 -0.00010466432 0)
(0.66132236 -7.3103204e-05 0)
(0.66129878 -4.8915368e-05 0)
(0.66128231 -3.1125205e-05 0)
(0.66127129 -1.8631867e-05 0)
(0.66126428 -1.0304339e-05 0)
(0.66126008 -5.0787754e-06 0)
(0.66125775 -2.0320087e-06 0)
(0.66125659 -4.3020359e-07 0)
(0.66125611 2.9339337e-07 0)
(0.66125599 5.286364e-07 0)
(0.66125603 5.2149277e-07 0)
(0.66125613 4.1831733e-07 0)
(0.66125623 2.977457e-07 0)
(0.66125631 1.9327826e-07 0)
(0.66125637 1.1605314e-07 0)
(0.66125641 6.3909873e-08 0)
(0.66125643 3.214144e-08 0)
(0.66125645 1.3712779e-08 0)
(0.66125646 4.4763471e-09 0)
(0.66125646 -1.2688809e-10 0)
(0.66125646 -1.5069008e-09 0)
(0.66125646 -2.0636655e-09 0)
(0.66125646 -1.6266208e-09 0)
(0.66125646 -1.4724097e-09 0)
(0.66125646 -8.4769486e-10 0)
(0.66125646 -7.6762131e-10 0)
(0.66125646 -2.9542843e-10 0)
(0.66125646 -3.6654521e-10 0)
(0.66125646 9.6245875e-12 0)
(0.66125646 -1.6613397e-10 0)
(0.66125646 1.0418003e-10 0)
(0.66125646 -1.3277313e-10 0)
(0.66125646 1.1494492e-10 0)
(0.66125646 -1.5251426e-10 0)
(0.66125646 5.6830571e-11 0)
(0.66125646 -2.2190124e-10 0)
(0.66125646 8.4361872e-12 0)
(0.66125646 -2.5987696e-10 0)
(0.66125646 -3.114319e-11 0)
(0.66125646 -2.7429857e-10 0)
(0.66125646 -1.3729675e-12 0)
(0.66125646 -2.2089978e-10 0)
(0.66125646 4.9527198e-11 0)
(0.66125646 -1.593822e-10 0)
(0.66125646 1.3506557e-10 0)
(0.66125646 -7.5445873e-11 0)
(0.66125646 1.9313815e-10 0)
(0.66125646 -3.2651238e-11 0)
(0.66125646 2.3762315e-10 0)
(0.66125646 -1.0244711e-11 0)
(0.66125646 2.1499818e-10 0)
(0.66125646 -5.3661296e-11 0)
(0.66125646 1.7598579e-10 0)
(0.66125646 -1.0228511e-10 0)
(0.66125646 1.0106075e-10 0)
(0.66125646 -1.7594805e-10 0)
(0.66125646 5.4564529e-11 0)
(0.66125646 -2.1132618e-10 0)
(0.66125646 1.7937677e-11 0)
(0.66125646 -2.2827823e-10 0)
(0.66125646 4.4411212e-11 0)
(0.66125646 -1.7874957e-10 0)
(0.66125646 9.1945041e-11 0)
(0.66125646 -1.1214615e-10 0)
(0.66125646 1.9417562e-10 0)
(0.66125646 3.467386e-12 0)
(0.66125646 2.9457482e-10 0)
(0.66125646 1.1465412e-10 0)
(0.66125646 4.0151098e-10 0)
(0.66125646 2.3054964e-10 0)
(0.66125646 4.2969714e-10 0)
(0.66125646 1.9036379e-10 0)
(0.66125646 8.762552e-11 0)
(0.66125647 -5.5243703e-10 0)
(0.66125646 -1.6386405e-09 0)
(0.66125647 -3.0299734e-09 0)
(0.66125646 -6.8007567e-09 0)
(0.66125648 -1.0920591e-08 0)
(0.66125644 -1.9330507e-08 0)
(0.6612565 -2.6503015e-08 0)
(0.49400274 -0.00052499315 0)
(0.49472947 -0.0019409417 0)
(0.49349333 -0.0024055895 0)
(0.49205783 -0.0021085686 0)
(0.4909344 -0.0016320552 0)
(0.49001993 -0.0012626859 0)
(0.48919661 -0.0010113806 0)
(0.48845045 -0.00082052694 0)
(0.48780116 -0.00066128577 0)
(0.48725371 -0.00053020145 0)
(0.48679702 -0.00042665197 0)
(0.48641628 -0.00034556636 0)
(0.48609949 -0.00028046271 0)
(0.48583776 -0.00022656465 0)
(0.48562384 -0.00018114704 0)
(0.48545134 -0.0001426802 0)
(0.48531452 -0.00011018229 0)
(0.48520823 -8.2983022e-05 0)
(0.4851277 -6.0617162e-05 0)
(0.4850685 -4.2703605e-05 0)
(0.48502646 -2.8834594e-05 0)
(0.48499779 -1.851995e-05 0)
(0.48497913 -1.11938e-05 0)
(0.48496764 -6.2544187e-06 0)
(0.48496104 -3.1196892e-06 0)
(0.48495759 -1.2711155e-06 0)
(0.48495604 -2.8061639e-07 0)
(0.48495555 1.8753193e-07 0)
(0.48495559 3.4710691e-07 0)
(0.48495582 3.4717287e-07 0)
(0.4849561 2.8130133e-07 0)
(0.48495633 2.0189457e-07 0)
(0.4849565 1.3202459e-07 0)
(0.48495662 7.9675689e-08 0)
(0.4849567 4.4023706e-08 0)
(0.48495674 2.2088802e-08 0)
(0.48495676 9.3509819e-09 0)
(0.48495677 2.8966451e-09 0)
(0.48495678 -2.9580142e-10 0)
(0.48495678 -1.2914477e-09 0)
(0.48495678 -1.619997e-09 0)
(0.48495678 -1.3104676e-09 0)
(0.48495678 -1.1265074e-09 0)
(0.48495678 -6.8369441e-10 0)
(0.48495678 -5.6113551e-10 0)
(0.48495678 -2.5168509e-10 0)
(0.48495678 -2.6171954e-10 0)
(0.48495678 -3.3863361e-11 0)
(0.48495678 -1.2000406e-10 0)
(0.48495678 3.4291941e-11 0)
(0.48495678 -1.001911e-10 0)
(0.48495678 4.0736004e-11 0)
(0.48495678 -1.0966677e-10 0)
(0.48495678 8.4197882e-14 0)
(0.48495678 -1.5947708e-10 0)
(0.48495678 -2.7151094e-11 0)
(0.48495678 -1.7293612e-10 0)
(0.48495678 -4.6082133e-11 0)
(0.48495678 -1.8195861e-10 0)
(0.48495678 -2.2518104e-11 0)
(0.48495678 -1.3942644e-10 0)
(0.48495678 1.1039153e-11 0)
(0.48495678 -1.0395891e-10 0)
(0.48495678 7.2085656e-11 0)
(0.48495678 -3.8917914e-11 0)
(0.48495678 1.0736307e-10 0)
(0.48495678 -1.9239109e-11 0)
(0.48495678 1.3539781e-10 0)
(0.48495678 -2.2957696e-12 0)
(0.48495678 1.1733416e-10 0)
(0.48495678 -3.5419e-11 0)
(0.48495678 9.6523494e-11 0)
(0.48495678 -5.9094812e-11 0)
(0.48495678 4.8266736e-11 0)
(0.48495678 -1.0985664e-10 0)
(0.48495678 2.5283379e-11 0)
(0.48495678 -1.1642368e-10 0)
(0.48495678 1.1845197e-11 0)
(0.48495678 -1.2277728e-10 0)
(0.48495678 3.8075978e-11 0)
(0.48495678 -7.9520166e-11 0)
(0.48495678 7.2155529e-11 0)
(0.48495678 -4.0359408e-11 0)
(0.48495678 1.3743866e-10 0)
(0.48495678 2.863661e-11 0)
(0.48495678 1.8732431e-10 0)
(0.48495678 6.7689458e-11 0)
(0.48495678 2.3818112e-10 0)
(0.48495678 1.0888804e-10 0)
(0.48495678 2.5557229e-10 0)
(0.48495678 5.6736287e-11 0)
(0.48495678 1.2707527e-10 0)
(0.48495678 -3.8822463e-10 0)
(0.48495678 -6.9316852e-10 0)
(0.48495678 -1.8423097e-09 0)
(0.48495678 -2.9779091e-09 0)
(0.48495677 -6.7273451e-09 0)
(0.48495677 -1.0275652e-08 0)
(0.48495674 -2.06686e-08 0)
(0.48495677 -2.8162847e-08 0)
(0.2155766 -0.00038298333 0)
(0.21473162 -0.00098911221 0)
(0.2129788 -0.00097551671 0)
(0.21141964 -0.00067660012 0)
(0.21029829 -0.00041896195 0)
(0.20949549 -0.00027670739 0)
(0.20887918 -0.00020277727 0)
(0.20838508 -0.00015402913 0)
(0.207988 -0.00011651533 0)
(0.20767124 -8.8800395e-05 0)
(0.20741797 -6.9527994e-05 0)
(0.20721343 -5.5860565e-05 0)
(0.20704695 -4.5323114e-05 0)
(0.20691147 -3.6604256e-05 0)
(0.20680201 -2.919151e-05 0)
(0.2067147 -2.2874789e-05 0)
(0.20664624 -1.7520648e-05 0)
(0.20659373 -1.3037432e-05 0)
(0.20655455 -9.3652624e-06 0)
(0.20652626 -6.4528752e-06 0)
(0.20650661 -4.2346551e-06 0)
(0.20649357 -2.6225049e-06 0)
(0.20648536 -1.5121359e-06 0)
(0.20648054 -7.9128156e-07 0)
(0.20647795 -3.5469675e-07 0)
(0.20647675 -1.1248088e-07 0)
(0.20647635 6.9375611e-09 0)
(0.20647635 6.647434e-08 0)
(0.20647651 7.9259449e-08 0)
(0.2064767 6.9132657e-08 0)
(0.20647688 5.1668665e-08 0)
(0.20647701 3.5050564e-08 0)
(0.20647711 2.1575555e-08 0)
(0.20647717 1.2335336e-08 0)
(0.2064772 6.1933284e-09 0)
(0.20647722 2.8370016e-09 0)
(0.20647723 8.0809204e-10 0)
(0.20647724 7.9833282e-11 0)
(0.20647724 -4.507071e-10 0)
(0.20647724 -3.7219764e-10 0)
(0.20647724 -4.8448266e-10 0)
(0.20647724 -2.421578e-10 0)
(0.20647723 -2.9587028e-10 0)
(0.20647723 -5.5905511e-11 0)
(0.20647723 -1.602225e-10 0)
(0.20647723 3.5686959e-11 0)
(0.20647723 -9.8153996e-11 0)
(0.20647723 7.7234607e-11 0)
(0.20647723 -8.9251317e-11 0)
(0.20647723 6.6422045e-11 0)
(0.20647723 -9.1715826e-11 0)
(0.20647723 6.804821e-11 0)
(0.20647723 -1.0448842e-10 0)
(0.20647723 4.9819197e-11 0)
(0.20647723 -1.0810844e-10 0)
(0.20647723 5.8368653e-11 0)
(0.20647723 -1.0994672e-10 0)
(0.20647723 5.2196195e-11 0)
(0.20647723 -1.0130925e-10 0)
(0.20647723 6.9056333e-11 0)
(0.20647723 -9.5268613e-11 0)
(0.20647723 6.694279e-11 0)
(0.20647723 -8.4776594e-11 0)
(0.20647723 8.2574098e-11 0)
(0.20647723 -8.3733366e-11 0)
(0.20647723 7.4922054e-11 0)
(0.20647723 -8.02266e-11 0)
(0.20647723 8.4926586e-11 0)
(0.20647723 -8.5129838e-11 0)
(0.20647723 7.1394188e-11 0)
(0.20647723 -8.5025253e-11 0)
(0.20647723 7.9464579e-11 0)
(0.20647723 -8.8247366e-11 0)
(0.20647723 7.1356349e-11 0)
(0.20647723 -8.069786e-11 0)
(0.20647723 8.8368293e-11 0)
(0.20647723 -7.5417506e-11 0)
(0.20647723 8.7557985e-11 0)
(0.20647723 -6.238724e-11 0)
(0.20647723 1.0885625e-10 0)
(0.20647723 -5.3792011e-11 0)
(0.20647723 1.0827143e-10 0)
(0.20647723 -4.3823155e-11 0)
(0.20647723 1.2277798e-10 0)
(0.20647723 -4.7579951e-11 0)
(0.20647723 1.1278784e-10 0)
(0.20647723 -4.768952e-11 0)
(0.20647723 1.1928044e-10 0)
(0.20647723 -5.4846525e-11 0)
(0.20647723 1.0064343e-10 0)
(0.20647723 -9.5587183e-11 0)
(0.20647723 3.5741834e-12 0)
(0.20647723 -3.5401111e-10 0)
(0.20647723 -4.0031982e-10 0)
(0.20647723 -9.597438e-10 0)
(0.20647723 -1.594673e-09 0)