/*--------------------------------*- C++ -*----------------------------------*\
| =========                 |                                                 |
| \\      /  F ield         | OpenFOAM: The Open Source CFD Toolbox           |
|  \\    /   O peration     | Version:  v1812                                 |
|   \\  /    A nd           | Web:      www.OpenFOAM.com                      |
|    \\/     M anipulation  |                                                 |
\*---------------------------------------------------------------------------*/
FoamFile
{
    version     2.0;
    format      ascii;
    class       volScalarField;
    location    "85";
    object      T;
}
// * * * * * * * * * * * * * * * * * * * * * * * * * * * * * * * * * * * * * //

dimensions      [0 0 0 1 0 0 0];


internalField   nonuniform List<scalar> 
10000
(
1.45405
1.45405
1.45405
1.45405
1.45405
1.45405
1.45405
1.45405
1.45405
1.45405
1.36242
1.36242
1.36242
1.36242
1.36242
1.36242
1.36242
1.36242
1.36242
1.36242
1.27159
1.27159
1.27159
1.27159
1.27159
1.27159
1.27159
1.27159
1.27159
1.27159
1.1821
1.1821
1.1821
1.1821
1.1821
1.1821
1.1821
1.1821
1.1821
1.1821
1.09444
1.09444
1.09444
1.09444
1.09444
1.09444
1.09444
1.09444
1.09444
1.09444
1.00909
1.00909
1.00909
1.00909
1.00909
1.00908
1.00908
1.00908
1.00909
1.00908
0.926456
0.926456
0.926456
0.926455
0.926455
0.926455
0.926455
0.926455
0.926455
0.926455
0.846939
0.846939
0.846939
0.846938
0.846938
0.846938
0.846938
0.846938
0.846938
0.846938
0.770867
0.770868
0.770867
0.770867
0.770866
0.770866
0.770866
0.770866
0.770866
0.770866
0.69852
0.69852
0.69852
0.698519
0.698519
0.698518
0.698518
0.698518
0.698518
0.698518
0.630119
0.630119
0.630118
0.630118
0.630117
0.630117
0.630117
0.630116
0.630116
0.630116
0.565828
0.565828
0.565828
0.565827
0.565826
0.565826
0.565825
0.565825
0.565825
0.565824
0.505756
0.505756
0.505755
0.505754
0.505753
0.505752
0.505751
0.505751
0.50575
0.50575
0.449953
0.449953
0.449952
0.449951
0.449949
0.449948
0.449947
0.449946
0.449945
0.449945
0.398421
0.39842
0.398419
0.398417
0.398415
0.398413
0.398411
0.39841
0.398409
0.398408
0.351109
0.351108
0.351106
0.351104
0.351101
0.351098
0.351095
0.351093
0.351091
0.35109
0.307926
0.307925
0.307922
0.307918
0.307914
0.307909
0.307905
0.307902
0.307899
0.307898
0.26874
0.268738
0.268734
0.268729
0.268722
0.268716
0.26871
0.268704
0.2687
0.268698
0.233387
0.233384
0.233379
0.233371
0.233362
0.233352
0.233343
0.233335
0.233329
0.233325
0.201677
0.201673
0.201664
0.201653
0.20164
0.201626
0.201612
0.201599
0.20159
0.201585
0.173396
0.173391
0.173379
0.173363
0.173344
0.173323
0.173302
0.173283
0.17327
0.173262
0.14832
0.148312
0.148296
0.148273
0.148244
0.148213
0.148182
0.148155
0.148134
0.148122
0.126211
0.126199
0.126176
0.126144
0.126103
0.126058
0.126012
0.12597
0.125938
0.12592
0.106828
0.106812
0.10678
0.106734
0.106677
0.106611
0.106542
0.106479
0.106429
0.106401
0.0899313
0.0899097
0.0898665
0.0898031
0.0897217
0.0896266
0.089525
0.089428
0.0893497
0.0893053
0.0752862
0.0752574
0.0751997
0.0751135
0.0750004
0.0748645
0.0747144
0.0745654
0.0744403
0.0743668
0.0626655
0.0626284
0.062553
0.0624385
0.0622846
0.0620935
0.0618732
0.061643
0.0614383
0.061311
0.0518538
0.0518072
0.0517119
0.0515646
0.0513609
0.0510982
0.0507795
0.0504235
0.0500791
0.0498435
0.0426486
0.0425925
0.0424766
0.0422941
0.0420348
0.0416863
0.0412382
0.0406934
0.0400993
0.0396202
0.0348619
0.0347973
0.0346627
0.0344474
0.0341338
0.033696
0.033098
0.0322966
0.0312673
0.0301641
1.45405
1.45405
1.45405
1.45405
1.45405
1.45405
1.45405
1.45405
1.45405
1.45405
1.36242
1.36242
1.36242
1.36242
1.36242
1.36242
1.36242
1.36242
1.36242
1.36242
1.27159
1.27159
1.27159
1.27159
1.27159
1.27159
1.27159
1.27159
1.27159
1.27159
1.1821
1.1821
1.1821
1.1821
1.1821
1.1821
1.1821
1.1821
1.1821
1.1821
1.09444
1.09444
1.09444
1.09444
1.09444
1.09444
1.09444
1.09444
1.09444
1.09444
1.00909
1.00909
1.00909
1.00909
1.00909
1.00908
1.00908
1.00908
1.00909
1.00909
0.926456
0.926456
0.926456
0.926455
0.926455
0.926455
0.926455
0.926455
0.926455
0.926455
0.846939
0.846939
0.846939
0.846938
0.846938
0.846938
0.846938
0.846938
0.846938
0.846938
0.770868
0.770868
0.770867
0.770867
0.770866
0.770866
0.770866
0.770866
0.770866
0.770866
0.69852
0.69852
0.69852
0.698519
0.698519
0.698518
0.698518
0.698518
0.698518
0.698518
0.630119
0.630119
0.630118
0.630118
0.630117
0.630117
0.630117
0.630116
0.630116
0.630116
0.565829
0.565828
0.565828
0.565827
0.565826
0.565826
0.565825
0.565825
0.565825
0.565825
0.505756
0.505756
0.505755
0.505754
0.505753
0.505752
0.505751
0.505751
0.50575
0.50575
0.449954
0.449953
0.449952
0.449951
0.449949
0.449948
0.449947
0.449946
0.449945
0.449945
0.398421
0.39842
0.398419
0.398417
0.398415
0.398413
0.398411
0.39841
0.398409
0.398408
0.351109
0.351108
0.351106
0.351104
0.351101
0.351098
0.351095
0.351093
0.351091
0.35109
0.307926
0.307925
0.307922
0.307918
0.307914
0.307909
0.307905
0.307902
0.307899
0.307898
0.26874
0.268738
0.268734
0.268729
0.268722
0.268716
0.26871
0.268704
0.2687
0.268698
0.233387
0.233384
0.233379
0.233371
0.233362
0.233352
0.233343
0.233335
0.233329
0.233325
0.201677
0.201673
0.201664
0.201653
0.20164
0.201626
0.201612
0.201599
0.20159
0.201586
0.173397
0.173391
0.173379
0.173363
0.173344
0.173323
0.173302
0.173283
0.17327
0.173262
0.14832
0.148312
0.148295
0.148273
0.148244
0.148213
0.148182
0.148155
0.148134
0.148122
0.126211
0.126199
0.126176
0.126144
0.126103
0.126058
0.126012
0.12597
0.125938
0.12592
0.106828
0.106812
0.10678
0.106734
0.106677
0.106611
0.106542
0.106479
0.106429
0.106401
0.0899314
0.0899097
0.0898665
0.089803
0.0897217
0.0896265
0.089525
0.089428
0.0893498
0.0893054
0.0752862
0.0752574
0.0751996
0.0751134
0.0750004
0.0748645
0.0747144
0.0745654
0.0744404
0.0743669
0.0626656
0.0626283
0.062553
0.0624385
0.0622846
0.0620934
0.0618732
0.061643
0.0614384
0.0613111
0.0518539
0.0518072
0.0517119
0.0515646
0.0513609
0.0510981
0.0507795
0.0504235
0.0500792
0.0498436
0.0426487
0.0425925
0.0424766
0.0422941
0.0420348
0.0416863
0.0412382
0.0406934
0.0400994
0.0396203
0.034862
0.0347973
0.0346627
0.0344474
0.0341338
0.0336959
0.033098
0.0322966
0.0312673
0.0301641
1.45405
1.45405
1.45405
1.45405
1.45405
1.45405
1.45405
1.45405
1.45405
1.45405
1.36242
1.36242
1.36242
1.36242
1.36242
1.36242
1.36242
1.36242
1.36242
1.36242
1.27159
1.27159
1.27159
1.27159
1.27159
1.27159
1.27159
1.27159
1.27159
1.27159
1.1821
1.1821
1.1821
1.1821
1.1821
1.1821
1.1821
1.1821
1.1821
1.1821
1.09444
1.09444
1.09444
1.09444
1.09444
1.09444
1.09444
1.09444
1.09444
1.09444
1.00909
1.00909
1.00909
1.00908
1.00908
1.00908
1.00908
1.00908
1.00908
1.00908
0.926456
0.926456
0.926455
0.926455
0.926455
0.926455
0.926455
0.926455
0.926455
0.926455
0.846939
0.846939
0.846938
0.846938
0.846938
0.846937
0.846937
0.846937
0.846938
0.846938
0.770867
0.770867
0.770867
0.770866
0.770866
0.770866
0.770866
0.770866
0.770866
0.770866
0.69852
0.69852
0.698519
0.698519
0.698518
0.698518
0.698518
0.698518
0.698518
0.698518
0.630119
0.630119
0.630118
0.630117
0.630117
0.630116
0.630116
0.630116
0.630116
0.630116
0.565828
0.565828
0.565827
0.565826
0.565826
0.565825
0.565825
0.565824
0.565825
0.565824
0.505756
0.505755
0.505754
0.505753
0.505752
0.505751
0.505751
0.50575
0.50575
0.50575
0.449953
0.449953
0.449951
0.44995
0.449949
0.449947
0.449946
0.449945
0.449945
0.449945
0.398421
0.39842
0.398418
0.398416
0.398414
0.398412
0.398411
0.398409
0.398409
0.398408
0.351109
0.351108
0.351106
0.351103
0.3511
0.351097
0.351095
0.351092
0.351091
0.35109
0.307926
0.307924
0.307921
0.307918
0.307913
0.307909
0.307905
0.307901
0.307899
0.307898
0.26874
0.268738
0.268734
0.268728
0.268722
0.268715
0.268709
0.268704
0.2687
0.268698
0.233387
0.233384
0.233378
0.23337
0.233361
0.233352
0.233342
0.233334
0.233329
0.233325
0.201676
0.201672
0.201664
0.201653
0.20164
0.201625
0.201611
0.201599
0.20159
0.201585
0.173396
0.17339
0.173379
0.173363
0.173343
0.173322
0.173301
0.173283
0.17327
0.173262
0.14832
0.148311
0.148295
0.148272
0.148244
0.148213
0.148182
0.148154
0.148134
0.148122
0.12621
0.126199
0.126176
0.126143
0.126103
0.126058
0.126011
0.12597
0.125938
0.12592
0.106828
0.106812
0.10678
0.106734
0.106676
0.10661
0.106542
0.106478
0.106429
0.106401
0.0899312
0.0899094
0.0898662
0.0898028
0.0897214
0.0896264
0.0895248
0.0894278
0.0893497
0.0893053
0.0752861
0.0752572
0.0751994
0.0751132
0.0750002
0.0748643
0.0747142
0.0745653
0.0744403
0.0743669
0.0626655
0.0626282
0.0625528
0.0624383
0.0622844
0.0620933
0.0618731
0.0616429
0.0614383
0.0613111
0.0518537
0.0518071
0.0517118
0.0515644
0.0513608
0.051098
0.0507794
0.0504234
0.0500791
0.0498436
0.0426485
0.0425924
0.0424765
0.042294
0.0420346
0.0416862
0.0412381
0.0406933
0.0400993
0.0396202
0.0348619
0.0347972
0.0346626
0.0344472
0.0341337
0.0336958
0.033098
0.0322965
0.0312673
0.0301641
1.45405
1.45405
1.45405
1.45405
1.45405
1.45405
1.45405
1.45405
1.45405
1.45405
1.36242
1.36242
1.36242
1.36242
1.36242
1.36242
1.36242
1.36242
1.36242
1.36242
1.27159
1.27159
1.27159
1.27159
1.27159
1.27159
1.27159
1.27159
1.27159
1.27159
1.1821
1.1821
1.1821
1.1821
1.1821
1.1821
1.1821
1.1821
1.1821
1.1821
1.09444
1.09444
1.09444
1.09444
1.09444
1.09444
1.09444
1.09444
1.09444
1.09444
1.00909
1.00909
1.00908
1.00908
1.00908
1.00908
1.00908
1.00908
1.00908
1.00908
0.926456
0.926455
0.926455
0.926455
0.926455
0.926454
0.926454
0.926455
0.926455
0.926455
0.846938
0.846938
0.846938
0.846938
0.846937
0.846937
0.846937
0.846937
0.846938
0.846938
0.770867
0.770867
0.770866
0.770866
0.770866
0.770865
0.770865
0.770865
0.770866
0.770866
0.69852
0.69852
0.698519
0.698518
0.698518
0.698518
0.698518
0.698518
0.698518
0.698518
0.630118
0.630118
0.630118
0.630117
0.630116
0.630116
0.630116
0.630116
0.630116
0.630116
0.565828
0.565828
0.565827
0.565826
0.565825
0.565825
0.565824
0.565824
0.565824
0.565824
0.505755
0.505755
0.505754
0.505753
0.505752
0.505751
0.505751
0.50575
0.50575
0.50575
0.449953
0.449952
0.449951
0.44995
0.449948
0.449947
0.449946
0.449945
0.449945
0.449945
0.39842
0.39842
0.398418
0.398416
0.398414
0.398412
0.39841
0.398409
0.398408
0.398408
0.351109
0.351108
0.351106
0.351103
0.3511
0.351097
0.351094
0.351092
0.351091
0.35109
0.307925
0.307924
0.307921
0.307917
0.307913
0.307909
0.307905
0.307901
0.307899
0.307898
0.268739
0.268737
0.268733
0.268728
0.268722
0.268715
0.268709
0.268704
0.2687
0.268698
0.233387
0.233384
0.233378
0.23337
0.233361
0.233351
0.233342
0.233334
0.233329
0.233325
0.201676
0.201672
0.201664
0.201653
0.201639
0.201625
0.201611
0.201599
0.20159
0.201585
0.173396
0.17339
0.173379
0.173363
0.173343
0.173322
0.173301
0.173283
0.17327
0.173262
0.14832
0.148311
0.148295
0.148272
0.148244
0.148213
0.148182
0.148154
0.148134
0.148122
0.12621
0.126199
0.126176
0.126143
0.126103
0.126057
0.126011
0.12597
0.125938
0.12592
0.106827
0.106811
0.10678
0.106734
0.106676
0.10661
0.106542
0.106478
0.106429
0.106401
0.089931
0.0899093
0.0898661
0.0898027
0.0897213
0.0896263
0.0895247
0.0894278
0.0893497
0.0893053
0.075286
0.0752571
0.0751993
0.0751131
0.0750001
0.0748642
0.0747142
0.0745652
0.0744403
0.0743669
0.0626654
0.0626281
0.0625527
0.0624383
0.0622844
0.0620932
0.061873
0.0616429
0.0614383
0.0613111
0.0518536
0.051807
0.0517117
0.0515643
0.0513607
0.0510979
0.0507794
0.0504234
0.0500791
0.0498436
0.0426485
0.0425923
0.0424764
0.0422939
0.0420346
0.0416861
0.0412381
0.0406933
0.0400993
0.0396202
0.0348618
0.0347971
0.0346625
0.0344472
0.0341336
0.0336958
0.0330979
0.0322965
0.0312673
0.0301641
1.45405
1.45405
1.45405
1.45405
1.45405
1.45405
1.45405
1.45405
1.45405
1.45405
1.36242
1.36242
1.36242
1.36242
1.36242
1.36242
1.36242
1.36242
1.36242
1.36242
1.27159
1.27159
1.27159
1.27159
1.27159
1.27159
1.27159
1.27159
1.27159
1.27159
1.1821
1.1821
1.1821
1.1821
1.1821
1.1821
1.1821
1.1821
1.1821
1.1821
1.09444
1.09444
1.09444
1.09444
1.09444
1.09444
1.09444
1.09444
1.09444
1.09444
1.00909
1.00909
1.00908
1.00908
1.00908
1.00908
1.00908
1.00908
1.00908
1.00908
0.926455
0.926455
0.926455
0.926455
0.926454
0.926454
0.926454
0.926455
0.926455
0.926455
0.846938
0.846938
0.846938
0.846937
0.846937
0.846937
0.846937
0.846937
0.846938
0.846938
0.770867
0.770867
0.770866
0.770866
0.770865
0.770865
0.770865
0.770865
0.770866
0.770866
0.698519
0.698519
0.698519
0.698518
0.698518
0.698518
0.698518
0.698518
0.698518
0.698518
0.630118
0.630118
0.630117
0.630117
0.630116
0.630116
0.630116
0.630116
0.630116
0.630116
0.565828
0.565828
0.565827
0.565826
0.565825
0.565825
0.565824
0.565824
0.565824
0.565824
0.505755
0.505755
0.505754
0.505753
0.505752
0.505751
0.50575
0.50575
0.50575
0.50575
0.449953
0.449952
0.449951
0.44995
0.449948
0.449947
0.449946
0.449945
0.449945
0.449945
0.39842
0.398419
0.398418
0.398416
0.398414
0.398412
0.39841
0.398409
0.398408
0.398408
0.351108
0.351108
0.351105
0.351103
0.3511
0.351097
0.351094
0.351092
0.351091
0.35109
0.307925
0.307924
0.307921
0.307917
0.307913
0.307909
0.307905
0.307901
0.307899
0.307898
0.268739
0.268737
0.268733
0.268728
0.268722
0.268715
0.268709
0.268704
0.2687
0.268698
0.233386
0.233384
0.233378
0.23337
0.233361
0.233351
0.233342
0.233334
0.233329
0.233325
0.201676
0.201672
0.201664
0.201653
0.201639
0.201625
0.201611
0.201599
0.20159
0.201585
0.173396
0.17339
0.173379
0.173363
0.173343
0.173322
0.173301
0.173283
0.17327
0.173262
0.14832
0.148311
0.148295
0.148272
0.148244
0.148213
0.148182
0.148154
0.148134
0.148122
0.12621
0.126199
0.126176
0.126143
0.126103
0.126057
0.126011
0.12597
0.125938
0.12592
0.106827
0.106811
0.10678
0.106734
0.106676
0.10661
0.106542
0.106478
0.106429
0.106401
0.089931
0.0899093
0.0898661
0.0898027
0.0897213
0.0896262
0.0895247
0.0894278
0.0893497
0.0893054
0.0752859
0.0752571
0.0751993
0.0751131
0.0750001
0.0748642
0.0747142
0.0745652
0.0744403
0.0743669
0.0626653
0.0626281
0.0625527
0.0624382
0.0622843
0.0620932
0.061873
0.0616429
0.0614383
0.0613111
0.0518536
0.051807
0.0517117
0.0515643
0.0513607
0.0510979
0.0507794
0.0504234
0.0500791
0.0498436
0.0426485
0.0425923
0.0424764
0.0422939
0.0420346
0.0416861
0.0412381
0.0406933
0.0400993
0.0396203
0.0348618
0.0347971
0.0346625
0.0344472
0.0341336
0.0336958
0.0330979
0.0322965
0.0312673
0.0301641
1.45405
1.45405
1.45405
1.45405
1.45405
1.45405
1.45405
1.45405
1.45405
1.45405
1.36242
1.36242
1.36242
1.36242
1.36242
1.36242
1.36242
1.36242
1.36242
1.36242
1.27159
1.27159
1.27159
1.27159
1.27159
1.27159
1.27159
1.27159
1.27159
1.27159
1.1821
1.1821
1.1821
1.1821
1.1821
1.1821
1.1821
1.1821
1.1821
1.1821
1.09444
1.09444
1.09444
1.09444
1.09444
1.09444
1.09444
1.09444
1.09444
1.09444
1.00909
1.00909
1.00908
1.00908
1.00908
1.00908
1.00908
1.00908
1.00908
1.00908
0.926455
0.926455
0.926455
0.926455
0.926454
0.926454
0.926454
0.926455
0.926455
0.926455
0.846938
0.846938
0.846938
0.846937
0.846937
0.846937
0.846937
0.846937
0.846938
0.846938
0.770867
0.770867
0.770866
0.770866
0.770865
0.770865
0.770865
0.770865
0.770866
0.770866
0.698519
0.698519
0.698519
0.698518
0.698518
0.698518
0.698518
0.698518
0.698518
0.698518
0.630118
0.630118
0.630117
0.630117
0.630116
0.630116
0.630116
0.630116
0.630116
0.630116
0.565828
0.565827
0.565827
0.565826
0.565825
0.565825
0.565824
0.565824
0.565824
0.565824
0.505755
0.505755
0.505754
0.505753
0.505752
0.505751
0.505751
0.50575
0.50575
0.50575
0.449953
0.449952
0.449951
0.44995
0.449948
0.449947
0.449946
0.449945
0.449945
0.449945
0.39842
0.398419
0.398418
0.398416
0.398414
0.398412
0.39841
0.398409
0.398409
0.398408
0.351108
0.351108
0.351105
0.351103
0.3511
0.351097
0.351094
0.351092
0.351091
0.35109
0.307925
0.307924
0.307921
0.307917
0.307913
0.307909
0.307905
0.307901
0.307899
0.307898
0.268739
0.268737
0.268733
0.268728
0.268722
0.268715
0.268709
0.268704
0.2687
0.268698
0.233387
0.233384
0.233378
0.23337
0.233361
0.233351
0.233342
0.233334
0.233329
0.233326
0.201676
0.201672
0.201664
0.201653
0.201639
0.201625
0.201611
0.201599
0.20159
0.201586
0.173396
0.17339
0.173379
0.173363
0.173343
0.173322
0.173301
0.173283
0.17327
0.173262
0.14832
0.148311
0.148295
0.148272
0.148244
0.148213
0.148182
0.148154
0.148134
0.148122
0.12621
0.126199
0.126176
0.126143
0.126103
0.126058
0.126011
0.12597
0.125938
0.12592
0.106827
0.106811
0.10678
0.106734
0.106676
0.10661
0.106542
0.106479
0.106429
0.106401
0.089931
0.0899093
0.0898661
0.0898027
0.0897214
0.0896263
0.0895248
0.0894279
0.0893498
0.0893055
0.075286
0.0752571
0.0751994
0.0751132
0.0750001
0.0748643
0.0747143
0.0745653
0.0744404
0.074367
0.0626654
0.0626281
0.0625527
0.0624383
0.0622844
0.0620933
0.0618731
0.061643
0.0614384
0.0613112
0.0518536
0.051807
0.0517117
0.0515644
0.0513607
0.051098
0.0507794
0.0504234
0.0500792
0.0498437
0.0426485
0.0425923
0.0424764
0.0422939
0.0420346
0.0416862
0.0412381
0.0406934
0.0400994
0.0396203
0.0348618
0.0347971
0.0346625
0.0344472
0.0341337
0.0336959
0.033098
0.0322965
0.0312673
0.0301641
1.45405
1.45405
1.45405
1.45405
1.45405
1.45405
1.45405
1.45405
1.45405
1.45405
1.36242
1.36242
1.36242
1.36242
1.36242
1.36242
1.36242
1.36242
1.36242
1.36242
1.27159
1.27159
1.27159
1.27159
1.27159
1.27159
1.27159
1.27159
1.27159
1.27159
1.1821
1.1821
1.1821
1.1821
1.1821
1.1821
1.1821
1.1821
1.1821
1.1821
1.09444
1.09444
1.09444
1.09444
1.09444
1.09444
1.09444
1.09444
1.09444
1.09444
1.00909
1.00909
1.00908
1.00908
1.00908
1.00908
1.00908
1.00908
1.00908
1.00908
0.926455
0.926455
0.926455
0.926455
0.926454
0.926454
0.926454
0.926455
0.926455
0.926455
0.846938
0.846938
0.846938
0.846937
0.846937
0.846937
0.846937
0.846937
0.846938
0.846938
0.770867
0.770867
0.770866
0.770866
0.770866
0.770865
0.770865
0.770866
0.770866
0.770866
0.69852
0.698519
0.698519
0.698518
0.698518
0.698518
0.698518
0.698518
0.698518
0.698518
0.630118
0.630118
0.630118
0.630117
0.630117
0.630116
0.630116
0.630116
0.630116
0.630116
0.565828
0.565828
0.565827
0.565826
0.565825
0.565825
0.565825
0.565825
0.565825
0.565825
0.505755
0.505755
0.505754
0.505753
0.505752
0.505751
0.505751
0.50575
0.50575
0.50575
0.449953
0.449952
0.449951
0.44995
0.449949
0.449947
0.449946
0.449946
0.449945
0.449945
0.39842
0.39842
0.398418
0.398416
0.398414
0.398412
0.398411
0.398409
0.398409
0.398408
0.351109
0.351108
0.351106
0.351103
0.3511
0.351097
0.351095
0.351093
0.351091
0.351091
0.307925
0.307924
0.307921
0.307917
0.307913
0.307909
0.307905
0.307902
0.307899
0.307898
0.268739
0.268737
0.268733
0.268728
0.268722
0.268715
0.268709
0.268704
0.268701
0.268699
0.233387
0.233384
0.233378
0.23337
0.233361
0.233352
0.233342
0.233335
0.233329
0.233326
0.201676
0.201672
0.201664
0.201653
0.20164
0.201625
0.201611
0.201599
0.201591
0.201586
0.173396
0.17339
0.173379
0.173363
0.173343
0.173322
0.173302
0.173283
0.17327
0.173263
0.14832
0.148311
0.148295
0.148272
0.148244
0.148213
0.148182
0.148155
0.148134
0.148123
0.12621
0.126199
0.126176
0.126143
0.126103
0.126058
0.126012
0.12597
0.125938
0.12592
0.106827
0.106811
0.10678
0.106734
0.106676
0.106611
0.106542
0.106479
0.106429
0.106401
0.0899311
0.0899094
0.0898663
0.0898029
0.0897215
0.0896265
0.089525
0.089428
0.08935
0.0893056
0.0752861
0.0752572
0.0751995
0.0751133
0.0750003
0.0748644
0.0747144
0.0745655
0.0744406
0.0743671
0.0626654
0.0626282
0.0625528
0.0624384
0.0622845
0.0620934
0.0618732
0.0616431
0.0614385
0.0613113
0.0518537
0.0518071
0.0517118
0.0515645
0.0513608
0.0510981
0.0507796
0.0504236
0.0500793
0.0498438
0.0426486
0.0425924
0.0424765
0.042294
0.0420347
0.0416863
0.0412382
0.0406935
0.0400995
0.0396204
0.0348619
0.0347972
0.0346626
0.0344473
0.0341337
0.0336959
0.0330981
0.0322966
0.0312674
0.0301642
1.45405
1.45405
1.45405
1.45405
1.45405
1.45405
1.45405
1.45405
1.45405
1.45405
1.36242
1.36242
1.36242
1.36242
1.36242
1.36242
1.36242
1.36242
1.36242
1.36242
1.27159
1.27159
1.27159
1.27159
1.27159
1.27159
1.27159
1.27159
1.27159
1.27159
1.1821
1.1821
1.1821
1.1821
1.1821
1.1821
1.1821
1.1821
1.1821
1.1821
1.09444
1.09444
1.09444
1.09444
1.09444
1.09444
1.09444
1.09444
1.09444
1.09444
1.00909
1.00909
1.00908
1.00908
1.00908
1.00908
1.00908
1.00908
1.00909
1.00909
0.926455
0.926455
0.926455
0.926455
0.926455
0.926455
0.926455
0.926455
0.926455
0.926455
0.846938
0.846938
0.846938
0.846938
0.846938
0.846937
0.846938
0.846938
0.846938
0.846938
0.770867
0.770867
0.770866
0.770866
0.770866
0.770866
0.770866
0.770866
0.770866
0.770866
0.69852
0.69852
0.698519
0.698519
0.698518
0.698518
0.698518
0.698518
0.698519
0.698519
0.630119
0.630118
0.630118
0.630117
0.630117
0.630117
0.630116
0.630116
0.630117
0.630117
0.565828
0.565828
0.565827
0.565826
0.565826
0.565825
0.565825
0.565825
0.565825
0.565825
0.505755
0.505755
0.505754
0.505753
0.505753
0.505752
0.505751
0.505751
0.505751
0.505751
0.449953
0.449953
0.449952
0.44995
0.449949
0.449948
0.449947
0.449946
0.449946
0.449945
0.39842
0.39842
0.398418
0.398417
0.398415
0.398413
0.398411
0.39841
0.398409
0.398409
0.351109
0.351108
0.351106
0.351103
0.351101
0.351098
0.351095
0.351093
0.351092
0.351091
0.307926
0.307924
0.307921
0.307918
0.307914
0.307909
0.307905
0.307902
0.3079
0.307899
0.26874
0.268738
0.268734
0.268728
0.268722
0.268716
0.26871
0.268705
0.268701
0.268699
0.233387
0.233384
0.233378
0.233371
0.233362
0.233352
0.233343
0.233335
0.233329
0.233326
0.201676
0.201672
0.201664
0.201653
0.20164
0.201626
0.201612
0.2016
0.201591
0.201586
0.173396
0.173391
0.173379
0.173363
0.173344
0.173323
0.173302
0.173284
0.17327
0.173263
0.14832
0.148312
0.148295
0.148273
0.148244
0.148214
0.148183
0.148155
0.148134
0.148123
0.12621
0.126199
0.126176
0.126144
0.126103
0.126058
0.126012
0.12597
0.125938
0.125921
0.106828
0.106812
0.10678
0.106734
0.106677
0.106611
0.106542
0.106479
0.106429
0.106402
0.0899313
0.0899096
0.0898665
0.0898031
0.0897218
0.0896267
0.0895252
0.0894283
0.0893502
0.0893059
0.0752862
0.0752574
0.0751997
0.0751135
0.0750005
0.0748647
0.0747146
0.0745657
0.0744408
0.0743674
0.0626656
0.0626283
0.062553
0.0624386
0.0622847
0.0620936
0.0618734
0.0616433
0.0614387
0.0613115
0.0518538
0.0518072
0.051712
0.0515646
0.051361
0.0510983
0.0507797
0.0504238
0.0500795
0.0498439
0.0426487
0.0425925
0.0424767
0.0422942
0.0420349
0.0416865
0.0412384
0.0406936
0.0400997
0.0396206
0.034862
0.0347973
0.0346627
0.0344474
0.0341339
0.0336961
0.0330982
0.0322968
0.0312676
0.0301643
1.45405
1.45405
1.45405
1.45405
1.45405
1.45405
1.45405
1.45405
1.45405
1.45405
1.36242
1.36242
1.36242
1.36242
1.36242
1.36242
1.36242
1.36242
1.36242
1.36242
1.27159
1.27159
1.27159
1.27159
1.27159
1.27159
1.27159
1.27159
1.27159
1.27159
1.1821
1.1821
1.1821
1.1821
1.1821
1.1821
1.1821
1.1821
1.1821
1.1821
1.09444
1.09444
1.09444
1.09444
1.09444
1.09444
1.09444
1.09444
1.09444
1.09444
1.00909
1.00909
1.00909
1.00908
1.00908
1.00908
1.00908
1.00909
1.00909
1.00909
0.926456
0.926456
0.926455
0.926455
0.926455
0.926455
0.926455
0.926455
0.926456
0.926456
0.846939
0.846939
0.846938
0.846938
0.846938
0.846938
0.846938
0.846938
0.846938
0.846938
0.770867
0.770867
0.770867
0.770866
0.770866
0.770866
0.770866
0.770866
0.770867
0.770867
0.69852
0.69852
0.698519
0.698519
0.698519
0.698519
0.698519
0.698519
0.698519
0.698519
0.630119
0.630119
0.630118
0.630118
0.630117
0.630117
0.630117
0.630117
0.630117
0.630117
0.565828
0.565828
0.565828
0.565827
0.565826
0.565826
0.565826
0.565825
0.565826
0.565825
0.505756
0.505756
0.505755
0.505754
0.505753
0.505752
0.505752
0.505751
0.505751
0.505751
0.449953
0.449953
0.449952
0.449951
0.44995
0.449948
0.449947
0.449947
0.449946
0.449946
0.398421
0.39842
0.398419
0.398417
0.398415
0.398413
0.398412
0.39841
0.39841
0.398409
0.351109
0.351108
0.351106
0.351104
0.351101
0.351098
0.351096
0.351094
0.351092
0.351091
0.307926
0.307925
0.307922
0.307918
0.307914
0.30791
0.307906
0.307903
0.3079
0.307899
0.26874
0.268738
0.268734
0.268729
0.268723
0.268716
0.26871
0.268705
0.268701
0.268699
0.233387
0.233384
0.233379
0.233371
0.233362
0.233353
0.233343
0.233335
0.23333
0.233327
0.201677
0.201673
0.201665
0.201654
0.20164
0.201626
0.201612
0.2016
0.201591
0.201587
0.173397
0.173391
0.173379
0.173364
0.173344
0.173323
0.173302
0.173284
0.173271
0.173263
0.14832
0.148312
0.148296
0.148273
0.148245
0.148214
0.148183
0.148155
0.148135
0.148123
0.126211
0.126199
0.126177
0.126144
0.126104
0.126058
0.126012
0.125971
0.125939
0.125921
0.106828
0.106812
0.10678
0.106735
0.106677
0.106611
0.106543
0.106479
0.10643
0.106402
0.0899314
0.0899098
0.0898667
0.0898034
0.0897221
0.0896271
0.0895256
0.0894286
0.0893505
0.0893061
0.0752863
0.0752576
0.0751999
0.0751138
0.0750008
0.074865
0.0747149
0.074566
0.0744411
0.0743676
0.0626657
0.0626285
0.0625532
0.0624388
0.062285
0.0620939
0.0618737
0.0616436
0.061439
0.0613117
0.051854
0.0518074
0.0517122
0.0515649
0.0513613
0.0510985
0.05078
0.050424
0.0500797
0.0498441
0.0426488
0.0425927
0.0424768
0.0422944
0.0420351
0.0416867
0.0412386
0.0406938
0.0400998
0.0396207
0.0348621
0.0347974
0.0346629
0.0344476
0.0341341
0.0336963
0.0330984
0.0322969
0.0312677
0.0301645
1.45405
1.45405
1.45405
1.45405
1.45405
1.45405
1.45405
1.45405
1.45405
1.45405
1.36242
1.36242
1.36242
1.36242
1.36242
1.36242
1.36242
1.36242
1.36242
1.36242
1.27159
1.27159
1.27159
1.27159
1.27159
1.27159
1.27159
1.27159
1.27159
1.27159
1.1821
1.1821
1.1821
1.1821
1.1821
1.1821
1.1821
1.1821
1.1821
1.1821
1.09444
1.09444
1.09444
1.09444
1.09444
1.09444
1.09444
1.09444
1.09444
1.09444
1.00909
1.00909
1.00909
1.00909
1.00908
1.00908
1.00908
1.00909
1.00909
1.00909
0.926456
0.926456
0.926455
0.926455
0.926455
0.926455
0.926455
0.926455
0.926456
0.926455
0.846938
0.846939
0.846938
0.846938
0.846938
0.846938
0.846938
0.846938
0.846938
0.846938
0.770867
0.770867
0.770867
0.770867
0.770866
0.770866
0.770866
0.770866
0.770867
0.770867
0.69852
0.69852
0.69852
0.698519
0.698519
0.698519
0.698519
0.698519
0.698519
0.698519
0.630119
0.630119
0.630118
0.630118
0.630117
0.630117
0.630117
0.630117
0.630117
0.630117
0.565828
0.565828
0.565828
0.565827
0.565826
0.565826
0.565826
0.565826
0.565826
0.565825
0.505756
0.505755
0.505755
0.505754
0.505753
0.505752
0.505752
0.505751
0.505751
0.505751
0.449953
0.449953
0.449952
0.449951
0.44995
0.449948
0.449947
0.449947
0.449946
0.449946
0.398421
0.39842
0.398419
0.398417
0.398415
0.398413
0.398412
0.398411
0.39841
0.398409
0.351109
0.351108
0.351106
0.351104
0.351101
0.351098
0.351096
0.351094
0.351092
0.351091
0.307926
0.307925
0.307922
0.307918
0.307914
0.30791
0.307906
0.307903
0.3079
0.307899
0.26874
0.268738
0.268734
0.268729
0.268723
0.268716
0.26871
0.268705
0.268702
0.268699
0.233387
0.233384
0.233379
0.233371
0.233362
0.233353
0.233343
0.233336
0.23333
0.233326
0.201677
0.201673
0.201665
0.201654
0.201641
0.201626
0.201612
0.2016
0.201591
0.201586
0.173397
0.173391
0.17338
0.173364
0.173344
0.173323
0.173303
0.173284
0.173271
0.173263
0.14832
0.148312
0.148296
0.148273
0.148245
0.148214
0.148183
0.148155
0.148135
0.148123
0.126211
0.126199
0.126177
0.126144
0.126104
0.126058
0.126012
0.125971
0.125939
0.125921
0.106828
0.106812
0.10678
0.106735
0.106677
0.106611
0.106543
0.106479
0.10643
0.106402
0.0899314
0.0899098
0.0898668
0.0898035
0.0897222
0.0896271
0.0895257
0.0894287
0.0893506
0.089306
0.0752863
0.0752576
0.0752
0.0751139
0.0750008
0.074865
0.074715
0.074566
0.0744411
0.0743675
0.0626657
0.0626285
0.0625533
0.0624389
0.0622851
0.0620939
0.0618738
0.0616436
0.061439
0.0613116
0.051854
0.0518074
0.0517122
0.0515649
0.0513613
0.0510986
0.05078
0.050424
0.0500797
0.0498441
0.0426488
0.0425927
0.0424769
0.0422944
0.0420351
0.0416867
0.0412387
0.0406939
0.0400999
0.0396207
0.0348621
0.0347974
0.0346629
0.0344477
0.0341341
0.0336963
0.0330984
0.032297
0.0312677
0.0301644
0.0283201
0.0282492
0.0281009
0.0278611
0.0275062
0.0269974
0.0262703
0.0252071
0.0235531
0.0206123
0.0228635
0.0227898
0.0226351
0.0223845
0.0220122
0.0214765
0.0207103
0.0196022
0.0179631
0.0154929
0.0183458
0.0182728
0.0181202
0.0178738
0.0175101
0.0169931
0.0162699
0.0152653
0.0138839
0.0120436
0.0146333
0.0145645
0.0144212
0.0141917
0.0138572
0.0133908
0.012757
0.0119135
0.0108216
0.00947497
0.0116049
0.0115428
0.0114142
0.0112102
0.0109173
0.0105175
0.00998953
0.00931266
0.00847526
0.00749034
0.00915242
0.00909845
0.00898737
0.0088131
0.00856679
0.00823753
0.00781404
0.00728779
0.00665837
0.00594035
0.00717991
0.00713459
0.00704191
0.00689813
0.00669804
0.00643594
0.00610699
0.00570941
0.00524714
0.00473189
0.00560381
0.00556691
0.00549196
0.00537695
0.00521942
0.00501724
0.00476979
0.0044794
0.00415249
0.00379891
0.00435225
0.00432304
0.0042641
0.0041747
0.00405424
0.003903
0.0037232
0.0035203
0.0033042
0.00308878
0.00336417
0.00334163
0.00329647
0.00322876
0.00313908
0.00302918
0.00290296
0.00276805
0.00263888
0.00254456
0.0283201
0.0282492
0.0281009
0.0278611
0.0275062
0.0269974
0.0262703
0.0252071
0.0235531
0.0206124
0.0228636
0.0227898
0.0226351
0.0223845
0.0220122
0.0214765
0.0207103
0.0196022
0.0179631
0.0154929
0.0183458
0.0182728
0.0181202
0.0178738
0.0175101
0.0169931
0.0162698
0.0152653
0.0138839
0.0120436
0.0146333
0.0145645
0.0144212
0.0141917
0.0138572
0.0133908
0.012757
0.0119135
0.0108216
0.00947497
0.0116049
0.0115428
0.0114142
0.0112102
0.0109173
0.0105175
0.00998952
0.00931266
0.00847525
0.00749034
0.00915243
0.00909845
0.00898736
0.00881309
0.00856678
0.00823752
0.00781403
0.00728779
0.00665837
0.00594035
0.00717992
0.00713458
0.00704191
0.00689812
0.00669804
0.00643594
0.00610698
0.00570941
0.00524714
0.00473188
0.00560382
0.00556691
0.00549195
0.00537695
0.00521942
0.00501724
0.00476979
0.0044794
0.00415249
0.0037989
0.00435225
0.00432303
0.00426409
0.0041747
0.00405423
0.003903
0.0037232
0.0035203
0.0033042
0.00308878
0.00336417
0.00334163
0.00329646
0.00322876
0.00313908
0.00302918
0.00290295
0.00276805
0.00263888
0.00254456
0.0283201
0.0282491
0.0281008
0.027861
0.0275061
0.0269973
0.0262702
0.0252071
0.0235531
0.0206123
0.0228635
0.0227897
0.022635
0.0223844
0.0220121
0.0214764
0.0207102
0.0196021
0.017963
0.0154929
0.0183457
0.0182728
0.0181201
0.0178737
0.01751
0.0169931
0.0162698
0.0152652
0.0138838
0.0120435
0.0146332
0.0145644
0.0144211
0.0141916
0.0138572
0.0133908
0.0127569
0.0119135
0.0108216
0.00947494
0.0116049
0.0115428