/*--------------------------------*- C++ -*----------------------------------*\
| =========                 |                                                 |
| \\      /  F ield         | OpenFOAM: The Open Source CFD Toolbox           |
|  \\    /   O peration     | Version:  v1812                                 |
|   \\  /    A nd           | Web:      www.OpenFOAM.com                      |
|    \\/     M anipulation  |                                                 |
\*---------------------------------------------------------------------------*/
FoamFile
{
    version     2.0;
    format      ascii;
    class       volScalarField;
    location    "4.7";
    object      p;
}
// * * * * * * * * * * * * * * * * * * * * * * * * * * * * * * * * * * * * * //

dimensions      [0 2 -2 0 0 0 0];


internalField   nonuniform List<scalar> 
1000
(
1.6796436
1.5585657
1.4625853
1.3989292
1.3504196
1.3079476
1.2704124
1.2382406
1.2108402
1.1870027
1.1656084
1.1458445
1.1271674
1.1092279
1.0918126
1.0747985
1.0581177
1.0417337
1.0256257
1.00978
0.99418544
0.97883092
0.96370508
0.94879607
0.93409183
0.91958037
0.90524997
0.89108949
0.8770884
0.86323692
0.84952605
0.83594754
0.82249386
0.80915813
0.79593404
0.78281578
0.76979789
0.75687518
0.74404263
0.73129529
0.71862821
0.70603639
0.69351477
0.68105815
0.6686613
0.65631892
0.64402574
0.63177655
0.61956629
0.60739008
0.59524333
0.58312177
0.57102148
0.55893893
0.54687099
0.53481494
0.52276842
0.51072946
0.49869641
0.48666791
0.47464289
0.46262048
0.4506
0.43858094
0.4265629
0.41454558
0.40252878
0.39051233
0.37849612
0.36648008
0.35446414
0.34244828
0.33043246
0.31841667
0.30640089
0.29438513
0.28236938
0.27035363
0.25833788
0.24632214
0.23430639
0.22229065
0.21027491
0.19825916
0.18624342
0.17422768
0.16221193
0.15019619
0.13818045
0.1261647
0.11414896
0.10213322
0.090117477
0.078101738
0.066085999
0.054070265
0.042054535
0.030038834
0.018023164
0.0060076227
1.5624239
1.5074949
1.4465424
1.3949747
1.3517046
1.3127363
1.2771501
1.2453774
1.2174165
1.1926387
1.1702368
1.1495355
1.1300538
1.1114658
1.0935523
1.0761676
1.0592158
1.0426345
1.026382
1.0104287
0.99475201
0.97933295
0.96415479
0.94920214
0.93446056
0.91991646
0.90555708
0.8913705
0.87734569
0.86347245
0.84974147
0.83614422
0.82267298
0.80932072
0.79608101
0.78294794
0.76991603
0.75698005
0.74413499
0.73137593
0.71869796
0.7060961
0.69356531
0.68110043
0.66869623
0.65634739
0.64404861
0.63179465
0.61958038
0.60740086
0.59525143
0.58312772
0.57102576
0.55894193
0.54687303
0.53481627
0.52276924
0.51072994
0.49869665
0.48666801
0.4746429
0.46262044
0.45059994
0.43858088
0.42656284
0.41454553
0.40252874
0.3905123
0.3784961
0.36648006
0.35446413
0.34244827
0.33043245
0.31841666
0.30640089
0.29438513
0.28236938
0.27035363
0.25833788
0.24632214
0.23430639
0.22229065
0.21027491
0.19825916
0.18624342
0.17422768
0.16221193
0.15019619
0.13818045
0.1261647
0.11414896
0.10213322
0.090117474
0.078101734
0.066085988
0.054070246
0.042054495
0.030038771
0.018023056
0.0060075369
1.5016027
1.4754276
1.4370307
1.3958979
1.3568126
1.3202218
1.2859241
1.2542066
1.2253505
1.1992494
1.1754954
1.1536054
1.1331556
1.1138148
1.0953346
1.0775336
1.0602819
1.0434864
1.0270804
1.0110155
0.9952555
0.97977228
0.96454309
0.94954858
0.93477175
0.92019733
0.90581145
0.89160146
0.87755577
0.86366381
0.84991593
0.83630335
0.82281811
0.80945299
0.79620139
0.78305727
0.77001501
0.75706932
0.74421512
0.73144745
0.71876138
0.70615192
0.69361404
0.6811426
0.66873236
0.65637804
0.64407434
0.63181599
0.61959788
0.60741504
0.59526277
0.58313668
0.57103274
0.55894729
0.5468771
0.53481931
0.52277149
0.51073157
0.49869782
0.48666883
0.47464347
0.46262083
0.4506002
0.43858105
0.42656295
0.4145456
0.40252878
0.39051232
0.37849611
0.36648007
0.35446413
0.34244827
0.33043245
0.31841666
0.30640089
0.29438513
0.28236938
0.27035363
0.25833788
0.24632214
0.23430639
0.22229065
0.21027491
0.19825916
0.18624342
0.17422768
0.16221193
0.15019619
0.13818044
0.1261647
0.11414895
0.10213321
0.090117462
0.078101716
0.066085951
0.054070185
0.042054389
0.030038618
0.018022865
0.0060074079
1.4721942
1.4566961
1.4298261
1.3959023
1.3601013
1.32515
1.291848
1.260495
1.2313643
1.2045728
1.1799853
1.1572931
1.1361413
1.1162126
1.0972544
1.0790748
1.0615291
1.0445082
1.0279297
1.011732
0.99586837
0.98030316
0.96500795
0.94995937
0.93513753
0.92052508
0.90610668
0.89186858
0.87779841
0.863885
0.85011822
0.83648892
0.8229888
0.80961034
0.7963467
0.78319161
0.77013925
0.75718415
0.74432109
0.731545
0.71885085
0.70623362
0.69368823
0.68120955
0.66879234
0.65643135
0.64412132
0.63185703
0.61963337
0.60744542
0.59528852
0.58315827
0.57105064
0.55896197
0.54688899
0.53482884
0.52277903
0.51073747
0.49870238
0.48667232
0.4746461
0.46262279
0.45060165
0.4385821
0.4265637
0.41454614
0.40252916
0.39051258
0.37849629
0.36648019
0.35446421
0.34244832
0.33043249
0.31841669
0.30640091
0.29438514
0.28236938
0.27035363
0.25833789
0.24632214
0.23430639
0.22229065
0.21027491
0.19825916
0.18624342
0.17422768
0.16221193
0.15019619
0.13818044
0.1261647
0.11414895
0.1021332
0.090117447
0.078101689
0.066085902
0.054070107
0.042054267
0.030038456
0.018022688
0.0060072975
1.4594626
1.4475093
1.4252749
1.3949873
1.3611262
1.3271306
1.294433
1.2634274
1.2343301
1.2073182
1.1823912
1.1593416
1.1378601
1.1176425
1.0984389
1.0800568
1.062348
1.0451976
1.028517
1.0122381
0.99630953
0.98069157
0.96535289
0.95026795
0.93541525
0.92077628
0.90633484
0.89207656
0.87798861
0.86405946
0.85027873
0.836637
0.82312578
0.80973736
0.79646473
0.78330146
0.77024159
0.7572795
0.74440987
0.73162751
0.71892732
0.70630422
0.69375309
0.68126878
0.66884607
0.65647971
0.64416448
0.6318952
0.61966681
0.60747441
0.59531338
0.58317936
0.57106833
0.55897663
0.54690101
0.53483857
0.52278681
0.51074361
0.49870718
0.48667601
0.47464891
0.46262491
0.45060322
0.43858325
0.42656454
0.41454673
0.40252958
0.39051288
0.37849649
0.36648033
0.35446431
0.34244838
0.33043253
0.31841671
0.30640092
0.29438515
0.28236939
0.27035364
0.25833789
0.24632214
0.23430639
0.22229065
0.21027491
0.19825916
0.18624342
0.17422767
0.16221193
0.15019619
0.13818044
0.1261647
0.11414895
0.1021332
0.090117435
0.078101671
0.066085869
0.054070055
0.04205419
0.030038359
0.018022588
0.0060072378
1.4594626
1.4475093
1.4252749
1.3949873
1.3611262
1.3271306
1.294433
1.2634274
1.2343301
1.2073182
1.1823912
1.1593416
1.1378601
1.1176425
1.0984389
1.0800568
1.062348
1.0451976
1.028517
1.0122381
0.99630953
0.98069157
0.96535289
0.95026795
0.93541525
0.92077629
0.90633485
0.89207656
0.87798861
0.86405947
0.85027874
0.83663701
0.82312578
0.80973736
0.79646473
0.78330146
0.77024159
0.7572795
0.74440987
0.73162751
0.71892732
0.70630421
0.69375309
0.68126877
0.66884606
0.65647971
0.64416448
0.6318952
0.6196668
0.60747441
0.59531338
0.58317936
0.57106833
0.55897663
0.54690101
0.53483856
0.52278681
0.51074361
0.49870718
0.48667601
0.47464891
0.46262491
0.45060322
0.43858325
0.42656454
0.41454673
0.40252958
0.39051288
0.37849649
0.36648033
0.35446431
0.34244839
0.33043253
0.31841671
0.30640092
0.29438515
0.28236939
0.27035364
0.25833789
0.24632214
0.2343064
0.22229065
0.21027491
0.19825916
0.18624342
0.17422767
0.16221193
0.15019619
0.13818044
0.1261647
0.11414894
0.1021332
0.090117435
0.078101671
0.066085869
0.054070055
0.042054191
0.03003836
0.018022589
0.0060072383
1.4721942
1.4566961
1.4298261
1.3959023
1.3601013
1.32515
1.291848
1.260495
1.2313643
1.2045728
1.1799853
1.1572931
1.1361413
1.1162126
1.0972544
1.0790747
1.0615291
1.0445082
1.0279297
1.011732
0.99586838
0.98030316
0.96500796
0.94995938
0.93513754
0.9205251
0.9061067
0.8918686
0.87779843
0.86388502
0.85011824
0.83648894
0.82298881
0.80961035
0.79634671
0.78319161
0.77013924
0.75718414
0.74432108
0.73154499
0.71885084
0.7062336
0.69368822
0.68120953
0.66879232
0.65643134
0.64412131
0.63185701
0.61963336
0.60744542
0.59528851
0.58315826
0.57105063
0.55896196
0.54688898
0.53482883
0.52277903
0.51073746
0.49870238
0.48667232
0.4746461
0.46262279
0.45060165
0.4385821
0.4265637
0.41454614
0.40252916
0.39051259
0.37849629
0.36648019
0.35446422
0.34244833
0.33043249
0.31841669
0.30640091
0.29438514
0.28236939
0.27035363
0.25833789
0.24632214
0.23430639
0.22229065
0.21027491
0.19825916
0.18624342
0.17422767
0.16221193
0.15019619
0.13818044
0.1261647
0.11414895
0.1021332
0.090117447
0.07810169
0.066085903
0.054070107
0.042054268
0.030038459
0.01802269
0.0060072986
1.5016027
1.4754276
1.4370307
1.3958979
1.3568126
1.3202218
1.2859241
1.2542066
1.2253505
1.1992494
1.1754954
1.1536054
1.1331556
1.1138147
1.0953346
1.0775336
1.0602818
1.0434864
1.0270804
1.0110155
0.9952555
0.97977229
0.9645431
0.94954859
0.93477177
0.92019735
0.90581148
0.89160149
0.8775558
0.86366384
0.84991595
0.83630337
0.82281813
0.809453
0.79620139
0.78305727
0.77001501
0.75706931
0.74421511
0.73144744
0.71876136
0.7061519
0.69361402
0.68114258
0.66873234
0.65637802
0.64407432
0.63181598
0.61959786
0.60741502
0.59526276
0.58313667
0.57103273
0.55894729
0.54687709
0.5348193
0.52277148
0.51073156
0.49869781
0.48666883
0.47464347
0.46262083
0.4506002
0.43858105
0.42656295
0.4145456
0.40252878
0.39051233
0.37849612
0.36648007
0.35446414
0.34244827
0.33043246
0.31841667
0.30640089
0.29438513
0.28236938
0.27035363
0.25833788
0.24632214
0.23430639
0.22229065
0.21027491
0.19825916
0.18624342
0.17422767
0.16221193
0.15019619
0.13818044
0.1261647
0.11414895
0.10213321
0.090117463
0.078101717
0.066085952
0.054070186
0.04205439
0.030038621
0.018022868
0.0060074092
1.5624239
1.5074949
1.4465424
1.3949747
1.3517046
1.3127363
1.2771501
1.2453774
1.2174165
1.1926387
1.1702368
1.1495355
1.1300538
1.1114658
1.0935523
1.0761676
1.0592158
1.0426345
1.026382
1.0104287
0.99475202
0.97933296
0.96415481
0.94920216
0.93446058
0.91991648
0.9055571
0.89137053
0.87734572
0.86347248
0.84974149
0.83614424
0.822673
0.80932073
0.79608101
0.78294794
0.76991602
0.75698004
0.74413498
0.73137592
0.71869794
0.70609608
0.69356529
0.68110041
0.66869621
0.65634737
0.64404859
0.63179463
0.61958036
0.60740084
0.59525141
0.58312771
0.57102575
0.55894192
0.54687302
0.53481626
0.52276924
0.51072993
0.49869665
0.48666801
0.4746429
0.46262044
0.45059994
0.43858088
0.42656284
0.41454553
0.40252874
0.3905123
0.3784961
0.36648006
0.35446413
0.34244827
0.33043245
0.31841667
0.3064009
0.29438513
0.28236938
0.27035363
0.25833788
0.24632214
0.23430639
0.22229065
0.21027491
0.19825916
0.18624342
0.17422767
0.16221193
0.15019619
0.13818044
0.1261647
0.11414896
0.10213322
0.090117475
0.078101736
0.066085989
0.054070247
0.042054497
0.030038775
0.018023059
0.0060075383
1.6796436
1.5585657
1.4625853
1.3989292
1.3504196
1.3079476
1.2704124
1.2382406
1.2108402
1.1870027
1.1656084
1.1458445
1.1271674
1.1092279
1.0918126
1.0747985
1.0581177
1.0417337
1.0256257
1.00978
0.99418545
0.97883094
0.96370509
0.94879609
0.93409186
0.91958039
0.90525
0.89108951
0.87708842
0.86323694
0.84952607
0.83594756
0.82249387
0.80915813
0.79593405
0.78281578
0.76979789
0.75687517
0.74404262
0.73129527
0.71862819
0.70603637
0.69351474
0.68105813
0.66866127
0.6563189
0.64402572
0.63177653
0.61956627
0.60739006
0.59524332
0.58312176
0.57102147
0.55893892
0.54687099
0.53481493
0.52276842
0.51072946
0.49869641
0.48666791
0.47464289
0.46262048
0.4506
0.43858094
0.4265629
0.41454559
0.40252878
0.39051233
0.37849613
0.36648008
0.35446415
0.34244828
0.33043246
0.31841667
0.3064009
0.29438514
0.28236938
0.27035363
0.25833789
0.24632214
0.23430639
0.22229065
0.21027491
0.19825916
0.18624342
0.17422767
0.16221193
0.15019619
0.13818044
0.1261647
0.11414896
0.10213322
0.090117478
0.078101739
0.066085999
0.054070266
0.042054538
0.030038839
0.018023168
0.006007624
)
;

boundaryField
{
    top
    {
        type            zeroGradient;
    }
    inlet
    {
        type            zeroGradient;
    }
    outlet
    {
        type            fixedValue;
        value           uniform 0;
    }
    bottom
    {
        type            zeroGradient;
    }
    back
    {
        type            empty;
    }
    front
    {
        type            empty;
    }
}


// ************************************************************************* //
