/*--------------------------------*- C++ -*----------------------------------*\
| =========                 |                                                 |
| \\      /  F ield         | OpenFOAM: The Open Source CFD Toolbox           |
|  \\    /   O peration     | Version:  v1812                                 |
|   \\  /    A nd           | Web:      www.OpenFOAM.com                      |
|    \\/     M anipulation  |                                                 |
\*---------------------------------------------------------------------------*/
FoamFile
{
    version     2.0;
    format      ascii;
    class       volScalarField;
    location    "7.85";
    object      p;
}
// * * * * * * * * * * * * * * * * * * * * * * * * * * * * * * * * * * * * * //

dimensions      [0 2 -2 0 0 0 0];


internalField   nonuniform List<scalar> 
1000
(
1.675399
1.5543211
1.4583406
1.3946845
1.346175
1.303703
1.2661677
1.233996
1.2065956
1.182758
1.1613637
1.1415999
1.1229228
1.1049832
1.0875679
1.0705537
1.0538728
1.0374886
1.0213804
1.0055345
0.98993953
0.97458442
0.95945772
0.94454749
0.92984151
0.91532753
0.90099358
0.88682807
0.87282001
0.858959
0.84523526
0.83163969
0.81816378
0.80479961
0.79153979
0.77837745
0.76530617
0.75231999
0.73941333
0.726581
0.71381818
0.70112033
0.68848326
0.67590302
0.66337593
0.65089855
0.63846766
0.62608022
0.61373343
0.60142463
0.58915137
0.57691136
0.56470247
0.55252269
0.54037017
0.52824319
0.51614011
0.50405943
0.49199974
0.47995972
0.46793816
0.45593393
0.44394599
0.43197337
0.42001516
0.40807051
0.39613861
0.38421869
0.37231002
0.36041191
0.34852371
0.33664482
0.32477463
0.31291259
0.30105814
0.28921072
0.27736978
0.26553475
0.25370512
0.24188041
0.23006015
0.21824397
0.20643147
0.19462231
0.18281612
0.17101252
0.15921114
0.14741163
0.13561371
0.12381714
0.11202174
0.10022738
0.088433945
0.076641316
0.064849348
0.053057893
0.041266816
0.029476023
0.017685451
0.0058950652
1.5581793
1.5032502
1.4422977
1.39073
1.34746
1.3084917
1.2729054
1.2411328
1.2131719
1.188394
1.1659922
1.1452908
1.1258092
1.1072211
1.0893076
1.0719228
1.054971
1.0383896
1.0221369
1.0061834
0.99050635
0.9750868
0.95990795
0.9449543
0.93021126
0.91566506
0.90130266
0.8871118
0.87308096
0.85919936
0.84545698
0.83184445
0.81835308
0.80497479
0.79170205
0.77852786
0.76544572
0.75244954
0.73953367
0.72669286
0.71392219
0.7012171
0.68857332
0.67598687
0.66345402
0.6509713
0.63853544
0.6261434
0.61379231
0.60147953
0.58920256
0.57695909
0.56474696
0.55256416
0.54040881
0.52827918
0.51617362
0.5040906
0.49202872
0.47998663
0.46796312
0.45595704
0.44396735
0.43199306
0.42003327
0.40808713
0.3961538
0.38423254
0.37232261
0.3604233
0.34853397
0.33665401
0.32478282
0.31291985
0.30106454
0.28921633
0.27737466
0.26553899
0.25370878
0.24188354
0.23006281
0.2182462
0.20643333
0.19462383
0.18281735
0.17101352
0.15921195
0.1474123
0.13561426
0.12381758
0.11202209
0.10022764
0.088434131
0.076641439
0.064849426
0.053057948
0.041266859
0.029476056
0.017685478
0.0058950627
1.4973581
1.471183
1.4327861
1.3916532
1.3525679
1.3159772
1.2816795
1.2499619
1.2211059
1.1950048
1.1712508
1.1493608
1.1289109
1.1095701
1.0910899
1.0732889
1.056037
1.0392415
1.0228354
1.0067702
0.99100985
0.97552615
0.96029628
0.94530079
0.93052254
0.91594607
0.90155726
0.88734309
0.87329155
0.85939147
0.84563253
0.83200513
0.81850037
0.80511001
0.79182636
0.7786423
0.76555119
0.75254687
0.73962359
0.72677601
0.71399916
0.70128839
0.68863941
0.67604817
0.66351092
0.65102414
0.63858454
0.62618904
0.61383477
0.60151904
0.58923933
0.57699332
0.56477883
0.55259384
0.54043645
0.52830492
0.51619758
0.50411292
0.49204949
0.48000596
0.46798109
0.45597374
0.44398285
0.43200742
0.42004656
0.4080994
0.39616512
0.38424295
0.37233215
0.36043203
0.34854193
0.33666123
0.32478935
0.31292572
0.30106979
0.28922101
0.27737882
0.26554267
0.25371203
0.24188639
0.23006529
0.21824833
0.20643514
0.19462535
0.18281861
0.17101456
0.15921282
0.14741304
0.13561489
0.12381812
0.11202253
0.10022799
0.088434392
0.076641622
0.064849548
0.053058033
0.041266921
0.029476104
0.017685503
0.0058950657
1.4679495
1.4524515
1.4255815
1.3916576
1.3558566
1.3209053
1.2876034
1.2562504
1.2271197
1.2003282
1.1757406
1.1530484
1.1318966
1.1119679
1.0930097
1.07483
1.0572842
1.0402632
1.0236846
1.0074866
0.9916226
0.97605684
0.96076087
0.9457112
0.93088778
0.91627307
0.90185145
0.88760882
0.87353237
0.85961035
0.84583196
0.83218724
0.818667
0.80526274
0.79196658
0.77877124
0.76566992
0.75265634
0.73972465
0.7268694
0.71408554
0.70136837
0.68871351
0.67611687
0.66357466
0.65108331
0.63863951
0.62624013
0.61388228
0.60156324
0.58928047
0.57703163
0.56481452
0.55262709
0.54046745
0.52833382
0.51622455
0.50413809
0.49207299
0.48002791
0.46800161
0.45599292
0.44400077
0.43202419
0.42006223
0.40811404
0.39617879
0.38425571
0.37234405
0.36044311
0.34855223
0.33667078
0.32479818
0.31293385
0.30107726
0.28922785
0.27738506
0.26554836
0.25371718
0.24189104
0.23006947
0.21825205
0.20643842
0.19462822
0.18282111
0.17101672
0.15921469
0.14741466
0.13561629
0.12381933
0.11202357
0.10022886
0.088435095
0.076642181
0.064849984
0.053058377
0.041267189
0.029476319
0.017685647
0.005895166
1.455218
1.4432646
1.4210303
1.3907427
1.3568815
1.322886
1.2901884
1.2591828
1.2300854
1.2030736
1.1781465
1.1550969
1.1336154
1.1133978
1.0941942
1.075812
1.0581031
1.0409526
1.0242718
1.0079926
0.99206363
0.97644506
0.96110554
0.94601938
0.93116494
0.91652348
0.90207852
0.88781534
0.87372065
0.85978235
0.84598936
0.83233151
0.81879942
0.80538444
0.79207858
0.77887441
0.76576507
0.75274418
0.73980582
0.72694447
0.71415502
0.70143273
0.68877316
0.6761722
0.663626
0.65113098
0.63868379
0.62628129
0.61392055
0.60159885
0.58931362
0.5770625
0.56484328
0.5526539
0.54049245
0.52835714
0.51624632
0.50415842
0.492092
0.48004569
0.46801825
0.45600851
0.44401539
0.43203789
0.42007508
0.40812609
0.3961901
0.38426632
0.372354
0.36045243
0.34856095
0.33667892
0.32480576
0.31294089
0.30108378
0.28923387
0.27739061
0.26555345
0.25372184
0.24189528
0.2300733
0.21825549
0.20644149
0.19463094
0.1828235
0.17101881
0.15921652
0.14741625
0.13561768
0.12382052
0.11202459
0.10022972
0.088435805
0.076642759
0.064850447
0.053058749
0.041267481
0.029476558
0.017685812
0.0058952903
1.455218
1.4432646
1.4210303
1.3907427
1.3568815
1.322886
1.2901884
1.2591828
1.2300854
1.2030736
1.1781465
1.1550969
1.1336154
1.1133978
1.0941942
1.075812
1.0581031
1.0409526
1.0242718
1.0079926
0.99206363
0.97644506
0.96110554
0.94601938
0.93116494
0.91652348
0.90207852
0.88781534
0.87372065
0.85978235
0.84598936
0.83233151
0.81879942
0.80538444
0.79207857
0.77887441
0.76576507
0.75274418
0.73980582
0.72694447
0.71415503
0.70143273
0.68877316
0.67617219
0.66362599
0.65113098
0.63868378
0.62628129
0.61392056
0.60159885
0.58931363
0.57706251
0.56484328
0.5526539
0.54049245
0.52835714
0.51624632
0.50415842
0.492092
0.48004569
0.46801825
0.45600851
0.44401539
0.43203789
0.42007508
0.4081261
0.39619011
0.38426632
0.372354
0.36045243
0.34856094
0.33667891
0.32480574
0.31294088
0.30108377
0.28923387
0.27739062
0.26555345
0.25372185
0.24189528
0.2300733
0.21825549
0.20644148
0.19463092
0.18282349
0.17101881
0.15921652
0.14741626
0.13561769
0.12382053
0.11202459
0.10022972
0.088435803
0.076642755
0.064850442
0.053058745
0.041267479
0.029476557
0.017685811
0.0058952897
1.4679495
1.4524514
1.4255815
1.3916576
1.3558566
1.3209053
1.2876034
1.2562504
1.2271197
1.2003282
1.1757406
1.1530484
1.1318966
1.1119679
1.0930097
1.07483
1.0572842
1.0402632
1.0236846
1.0074866
0.99162259
0.97605683
0.96076086
0.94571119
0.93088777
0.91627307
0.90185145
0.88760883
0.87353238
0.85961036
0.84583196
0.83218723
0.81866699
0.80526272
0.79196657
0.77877123
0.76566992
0.75265635
0.73972466
0.72686941
0.71408555
0.70136838
0.68871351
0.67611687
0.66357465
0.6510833
0.6386395
0.62624013
0.61388228
0.60156324
0.58928048
0.57703164
0.56481453
0.5526271
0.54046746
0.52833383
0.51622455
0.50413809
0.49207299
0.48002792
0.46800161
0.45599292
0.44400077
0.43202419
0.42006223
0.40811405
0.3961788
0.38425572
0.37234406
0.36044311
0.34855222
0.33667076
0.32479814
0.31293382
0.30107724
0.28922784
0.27738507
0.26554838
0.25371721
0.24189105
0.23006946
0.21825203
0.20643838
0.19462818
0.18282108
0.17101671
0.1592147
0.14741468
0.13561632
0.12381936
0.11202358
0.10022886
0.088435088
0.076642167
0.064849969
0.053058364
0.04126718
0.029476316
0.017685646
0.0058951655
1.4973581
1.471183
1.4327861
1.3916532
1.3525679
1.3159772
1.2816795
1.2499619
1.2211059
1.1950048
1.1712508
1.1493608
1.1289109
1.1095701
1.0910899
1.0732889
1.056037
1.0392415
1.0228354
1.0067702
0.99100984
0.97552614
0.96029627
0.94530078
0.93052254
0.91594607
0.90155727
0.88734311
0.87329156
0.85939148
0.84563253
0.83200512
0.81850036
0.80510999
0.79182634
0.77864229
0.76555119
0.75254688
0.7396236
0.72677603
0.71399917
0.7012884
0.68863941
0.67604816
0.6635109
0.65102412
0.63858453
0.62618904
0.61383478
0.60151905
0.58923935
0.57699334
0.56477885
0.55259385
0.54043646
0.52830492
0.51619759
0.50411293
0.49204949
0.48000596
0.46798109
0.45597374
0.44398284
0.43200743
0.42004657
0.40809941
0.39616514
0.38424297
0.37233217
0.36043203
0.34854191
0.33666119
0.3247893
0.31292567
0.30106976
0.28922101
0.27737884
0.26554271
0.25371206
0.2418864
0.23006528
0.21824829
0.20643507
0.19462528
0.18281856
0.17101454
0.15921284
0.14741308
0.13561494
0.12381816
0.11202255
0.10022799
0.088434376
0.076641598
0.064849524
0.053058015
0.041266911
0.029476101
0.017685504
0.0058950666
1.5581793
1.5032502
1.4422977
1.39073
1.34746
1.3084917
1.2729054
1.2411328
1.2131719
1.188394
1.1659922
1.1452908
1.1258092
1.1072211
1.0893076
1.0719228
1.054971
1.0383896
1.0221369
1.0061834
0.99050633
0.97508679
0.95990794
0.94495429
0.93021126
0.91566507
0.90130268
0.88711182
0.87308097
0.85919937
0.84545697
0.83184443
0.81835306
0.80497477
0.79170203
0.77852786
0.76544572
0.75244955
0.73953369
0.72669288
0.71392221
0.70121711
0.68857332
0.67598686
0.663454
0.65097128
0.63853543
0.6261434
0.61379233
0.60147955
0.58920258
0.57695911
0.56474697
0.55256417
0.54040882
0.52827919
0.51617362
0.50409061
0.49202872
0.47998663
0.46796312
0.45595704
0.44396734
0.43199307
0.42003329
0.40808715
0.39615384
0.38423257
0.37232262
0.36042329
0.34853393
0.33665394
0.32478275
0.3129198
0.30106451
0.28921634
0.2773747
0.26553904
0.25370882
0.24188355
0.23006278
0.21824614
0.20643325
0.19462376
0.18281731
0.17101351
0.15921198
0.14741235
0.13561431
0.12381762
0.1120221
0.10022764
0.088434112
0.076641416
0.064849404
0.05305793
0.041266848
0.029476053
0.017685479
0.0058950634
1.675399
1.5543211
1.4583406
1.3946845
1.346175
1.303703
1.2661677
1.233996
1.2065956
1.182758
1.1613637
1.1415999
1.1229228
1.1049832
1.0875679
1.0705537
1.0538728
1.0374887
1.0213804
1.0055345
0.98993952
0.9745844
0.95945771
0.94454749
0.92984151
0.91532754
0.90099359
0.88682809
0.87282002
0.858959
0.84523526
0.83163968
0.81816377
0.80479959
0.79153978
0.77837744
0.76530618
0.75232
0.73941334
0.72658102
0.71381819
0.70112034
0.68848325
0.67590301
0.66337592
0.65089854
0.63846765
0.62608022
0.61373343
0.60142464
0.58915139
0.57691138
0.56470248
0.5525227
0.54037019
0.5282432
0.51614012
0.50405944
0.49199974
0.47995972
0.46793815
0.45593392
0.44394599
0.43197337
0.42001518
0.40807053
0.39613864
0.38421871
0.37231002
0.36041188
0.34852366
0.33664475
0.32477457
0.31291255
0.30105814
0.28921075
0.27736982
0.26553479
0.25370514
0.24188039
0.23006011
0.2182439
0.20643141
0.19462227
0.1828161
0.17101252
0.15921116
0.14741166
0.13561374
0.12381716
0.11202175
0.10022738
0.088433947
0.076641312
0.064849335
0.053057874
0.041266796
0.029476009
0.017685444
0.0058950632
)
;

boundaryField
{
    top
    {
        type            zeroGradient;
    }
    inlet
    {
        type            zeroGradient;
    }
    outlet
    {
        type            fixedValue;
        value           uniform 0;
    }
    bottom
    {
        type            zeroGradient;
    }
    back
    {
        type            empty;
    }
    front
    {
        type            empty;
    }
}


// ************************************************************************* //
