/*--------------------------------*- C++ -*----------------------------------*\
| =========                 |                                                 |
| \\      /  F ield         | OpenFOAM: The Open Source CFD Toolbox           |
|  \\    /   O peration     | Version:  2112                                  |
|   \\  /    A nd           | Website:  www.openfoam.com                      |
|    \\/     M anipulation  |                                                 |
\*---------------------------------------------------------------------------*/
FoamFile
{
    version     2.0;
    format      ascii;
    arch        "LSB;label=32;scalar=64";
    class       volScalarField;
    location    "8";
    object      p;
}
// * * * * * * * * * * * * * * * * * * * * * * * * * * * * * * * * * * * * * //

dimensions      [0 2 -2 0 0 0 0];

internalField   nonuniform List<scalar> 
1000
(
1.526327
1.5091186
1.4925158
1.4763051
1.4603252
1.4444904
1.4287586
1.4131065
1.3975176
1.3819787
1.366479
1.351011
1.3355696
1.3201512
1.3047529
1.2893723
1.2740075
1.2586568
1.2433185
1.2279914
1.2126743
1.1973662
1.1820661
1.1667732
1.1514867
1.1362058
1.1209301
1.1056588
1.0903914
1.0751275
1.0598664
1.0446079
1.0293515
1.0140968
0.99884344
0.98359121
0.96833983
0.95308907
0.93783878
0.92258882
0.90733908
0.89208949
0.87684
0.86159056
0.84634115
0.83109176
0.81584237
0.80059298
0.7853436
0.77009421
0.75484483
0.73959544
0.72434605
0.70909666
0.69384727
0.67859787
0.66334848
0.64809909
0.6328497
0.61760031
0.60235092
0.58710153
0.57185214
0.55660275
0.54135336
0.52610397
0.51085458
0.49560519
0.4803558
0.4651064
0.44985701
0.43460762
0.41935823
0.40410884
0.38885945
0.37361006
0.35836067
0.34311127
0.32786188
0.31261249
0.2973631
0.28211371
0.26686432
0.25161493
0.23636554
0.22111615
0.20586676
0.19061736
0.17536797
0.16011858
0.14486919
0.1296198
0.11437041
0.09912102
0.083871629
0.068622238
0.053372848
0.038123459
0.022874071
0.0076246875
1.5258951
1.5086662
1.4923965
1.4764281
1.4605059
1.444641
1.4288734
1.4132009
1.3975997
1.3820495
1.3665384
1.3510604
1.335611
1.3201863
1.304783
1.2893983
1.27403
1.2586762
1.2433353
1.2280059
1.2126869
1.197377
1.1820754
1.1667811
1.1514933
1.1362114
1.1209347
1.1056625
1.0903944
1.0751298
1.0598683
1.0446093
1.0293525
1.0140975
0.99884395
0.98359156
0.96834005
0.95308921
0.93783886
0.92258886
0.9073391
0.8920895
0.87684
0.86159055
0.84634114
0.83109175
0.81584237
0.80059298
0.7853436
0.77009421
0.75484482
0.73959544
0.72434605
0.70909666
0.69384727
0.67859787
0.66334848
0.64809909
0.6328497
0.61760031
0.60235092
0.58710153
0.57185214
0.55660275
0.54135336
0.52610397
0.51085458
0.49560519
0.4803558
0.4651064
0.44985701
0.43460762
0.41935823
0.40410884
0.38885945
0.37361006
0.35836067
0.34311127
0.32786188
0.31261249
0.2973631
0.28211371
0.26686432
0.25161493
0.23636554
0.22111615
0.20586676
0.19061736
0.17536797
0.16011858
0.14486919
0.1296198
0.11437041
0.09912102
0.083871629
0.068622238
0.053372847
0.038123457
0.022874068
0.0076246848
1.525162
1.5077922
1.4919744
1.4764154
1.4606436
1.4447669
1.4289578
1.4132654
1.3976604
1.3821071
1.3665891
1.3511026
1.3356459
1.3202157
1.3048082
1.28942
1.2740487
1.2586923
1.2433492
1.228018
1.2126973
1.1973861
1.1820832
1.1667878
1.1514991
1.1362164
1.1209389
1.1056661
1.0903974
1.0751322
1.0598702
1.0446109
1.0293537
1.0140984
0.99884466
0.98359208
0.96834043
0.95308948
0.93783905
0.92258899
0.90733918
0.89208955
0.87684003
0.86159057
0.84634115
0.83109176
0.81584237
0.80059298
0.7853436
0.77009421
0.75484482
0.73959544
0.72434605
0.70909666
0.69384727
0.67859787
0.66334848
0.64809909
0.6328497
0.61760031
0.60235092
0.58710153
0.57185214
0.55660275
0.54135336
0.52610397
0.51085458
0.49560519
0.4803558
0.4651064
0.44985701
0.43460762
0.41935823
0.40410884
0.38885945
0.37361006
0.35836067
0.34311127
0.32786188
0.31261249
0.2973631
0.28211371
0.26686432
0.25161493
0.23636554
0.22111615
0.20586676
0.19061736
0.17536797
0.16011858
0.14486919
0.1296198
0.11437041
0.099121019
0.083871628
0.068622236
0.053372844
0.038123454
0.022874063
0.0076246812
1.5244759
1.5069054
1.4914707
1.4763297
1.460747
1.4448817
1.4290361
1.4133248
1.3977189
1.3821663
1.3666435
1.3511488
1.3356844
1.3202483
1.3048363
1.2894444
1.2740698
1.2587106
1.2433652
1.2280319
1.2127096
1.1973968
1.1820926
1.1667961
1.1515064
1.1362227
1.1209444
1.1056709
1.0904015
1.0751358
1.0598732
1.0446134
1.0293558
1.0141001
0.99884599
0.98359312
0.96834122
0.95309007
0.93783948
0.9225893
0.9073394
0.8920897
0.87684012
0.86159063
0.84634119
0.83109178
0.81584238
0.80059299
0.7853436
0.77009421
0.75484482
0.73959544
0.72434605
0.70909666
0.69384727
0.67859787
0.66334848
0.64809909
0.6328497
0.61760031
0.60235092
0.58710153
0.57185214
0.55660275
0.54135336
0.52610397
0.51085458
0.49560519
0.4803558
0.4651064
0.44985701
0.43460762
0.41935823
0.40410884
0.38885945
0.37361006
0.35836067
0.34311127
0.32786188
0.31261249
0.2973631
0.28211371
0.26686432
0.25161493
0.23636554
0.22111615
0.20586676
0.19061736
0.17536797
0.16011858
0.14486919
0.1296198
0.11437041
0.099121018
0.083871626
0.068622234
0.053372841
0.03812345
0.022874058
0.0076246782
1.5240807
1.5063725
1.4911467
1.4762592
1.4608035
1.4449527
1.4290859
1.4133625
1.3977567
1.3822058
1.3666808
1.3511813
1.3357118
1.3202718
1.3048568
1.2894624
1.2740856
1.2587244
1.2433773
1.2280426
1.212719
1.1974052
1.1821001
1.1668027
1.1515122
1.1362279
1.1209489
1.1056748
1.090405
1.0751388
1.0598758
1.0446155
1.0293576
1.0141016
0.99884719
0.98359407
0.96834196
0.95309063
0.93783989
0.9225896
0.90733961
0.89208984
0.87684022
0.86159069
0.84634123
0.8310918
0.81584239
0.80059299
0.7853436
0.77009421
0.75484482
0.73959544
0.72434605
0.70909666
0.69384726
0.67859787
0.66334848
0.64809909
0.6328497
0.61760031
0.60235092
0.58710153
0.57185214
0.55660275
0.54135336
0.52610397
0.51085458
0.49560519
0.4803558
0.4651064
0.44985701
0.43460762
0.41935823
0.40410884
0.38885945
0.37361006
0.35836067
0.34311127
0.32786188
0.31261249
0.2973631
0.28211371
0.26686432
0.25161493
0.23636554
0.22111615
0.20586676
0.19061736
0.17536797
0.16011858
0.14486919
0.1296198
0.11437041
0.099121018
0.083871625
0.068622233
0.053372839
0.038123447
0.022874055
0.0076246764
1.5240807
1.5063725
1.4911467
1.4762593
1.4608035
1.4449527
1.4290859
1.4133625
1.3977567
1.3822058
1.3666808
1.3511813
1.3357118
1.3202718
1.3048568
1.2894624
1.2740856
1.2587244
1.2433773
1.2280426
1.212719
1.1974052
1.1821001
1.1668027
1.1515122
1.1362279
1.1209489
1.1056748
1.090405
1.0751388
1.0598758
1.0446155
1.0293576
1.0141016
0.99884719
0.98359407
0.96834196
0.95309063
0.93783989
0.9225896
0.90733961
0.89208984
0.87684022
0.86159069
0.84634123
0.8310918
0.81584239
0.800593
0.7853436
0.77009421
0.75484482
0.73959544
0.72434605
0.70909666
0.69384727
0.67859787
0.66334848
0.64809909
0.6328497
0.61760031
0.60235092
0.58710153
0.57185214
0.55660275
0.54135336
0.52610397
0.51085458
0.49560519
0.4803558
0.4651064
0.44985701
0.43460762
0.41935823
0.40410884
0.38885945
0.37361006
0.35836067
0.34311127
0.32786188
0.31261249
0.2973631
0.28211371
0.26686432
0.25161493
0.23636554
0.22111615
0.20586676
0.19061736
0.17536797
0.16011858
0.14486919
0.1296198
0.11437041
0.099121017
0.083871625
0.068622233
0.053372839
0.038123447
0.022874055
0.007624676
1.5244759
1.5069054
1.4914707
1.4763297
1.460747
1.4448817
1.4290361
1.4133248
1.3977189
1.3821663
1.3666435
1.3511488
1.3356844
1.3202483
1.3048363
1.2894444
1.2740698
1.2587106
1.2433652
1.2280319
1.2127096
1.1973968
1.1820926
1.1667961
1.1515064
1.1362227
1.1209444
1.1056709
1.0904015
1.0751358
1.0598732
1.0446134
1.0293558
1.0141001
0.99884599
0.98359312
0.96834122
0.95309007
0.93783948
0.9225893
0.9073394
0.8920897
0.87684012
0.86159063
0.84634119
0.83109178
0.81584238
0.80059299
0.7853436
0.77009421
0.75484483
0.73959544
0.72434605
0.70909666
0.69384727
0.67859787
0.66334848
0.64809909
0.6328497
0.61760031
0.60235092
0.58710153
0.57185214
0.55660275
0.54135336
0.52610397
0.51085458
0.49560519
0.4803558
0.4651064
0.44985701
0.43460762
0.41935823
0.40410884
0.38885945
0.37361006
0.35836067
0.34311127
0.32786188
0.31261249
0.2973631
0.28211371
0.26686432
0.25161493
0.23636554
0.22111615
0.20586676
0.19061736
0.17536797
0.16011858
0.14486919
0.1296198
0.11437041
0.099121017
0.083871626
0.068622233
0.053372841
0.038123449
0.022874057
0.0076246774
1.525162
1.5077922
1.4919745
1.4764155
1.4606436
1.4447669
1.4289578
1.4132654
1.3976604
1.3821071
1.3665891
1.3511026
1.3356459
1.3202157
1.3048082
1.28942
1.2740487
1.2586923
1.2433492
1.228018
1.2126973
1.1973861
1.1820832
1.1667878
1.1514991
1.1362164
1.1209389
1.1056661
1.0903973
1.0751322
1.0598702
1.0446108
1.0293537
1.0140984
0.99884466
0.98359208
0.96834043
0.95308948
0.93783905
0.92258899
0.90733918
0.89208955
0.87684003
0.86159057
0.84634116
0.83109176
0.81584237
0.80059299
0.7853436
0.77009421
0.75484483
0.73959544
0.72434605
0.70909666
0.69384727
0.67859788
0.66334848
0.64809909
0.6328497
0.61760031
0.60235092
0.58710153
0.57185214
0.55660275
0.54135336
0.52610397
0.51085458
0.49560519
0.4803558
0.4651064
0.44985701
0.43460762
0.41935823
0.40410884
0.38885945
0.37361006
0.35836067
0.34311127
0.32786188
0.31261249
0.2973631
0.28211371
0.26686432
0.25161493
0.23636554
0.22111615
0.20586676
0.19061736
0.17536797
0.16011858
0.14486919
0.1296198
0.11437041
0.099121018
0.083871626
0.068622235
0.053372844
0.038123453
0.022874062
0.0076246803
1.5258951
1.5086662
1.4923965
1.4764281
1.4605059
1.444641
1.4288734
1.4132009
1.3975997
1.3820495
1.3665384
1.3510604
1.335611
1.3201863
1.304783
1.2893983
1.27403
1.2586762
1.2433353
1.2280059
1.2126869
1.197377
1.1820754
1.1667811
1.1514933
1.1362114
1.1209347
1.1056625
1.0903944
1.0751298
1.0598683
1.0446093
1.0293525
1.0140975
0.99884395
0.98359156
0.96834005
0.95308921
0.93783886
0.92258886
0.9073391
0.8920895
0.87684
0.86159056
0.84634115
0.83109176
0.81584237
0.80059299
0.7853436
0.77009421
0.75484483
0.73959544
0.72434605
0.70909666
0.69384727
0.67859788
0.66334848
0.64809909
0.6328497
0.61760031
0.60235092
0.58710153
0.57185214
0.55660275
0.54135336
0.52610397
0.51085458
0.49560519
0.4803558
0.4651064
0.44985701
0.43460762
0.41935823
0.40410884
0.38885945
0.37361006
0.35836067
0.34311127
0.32786188
0.31261249
0.2973631
0.28211371
0.26686432
0.25161493
0.23636554
0.22111615
0.20586676
0.19061736
0.17536797
0.16011858
0.14486919
0.1296198
0.11437041
0.099121018
0.083871627
0.068622237
0.053372846
0.038123457
0.022874067
0.0076246841
1.5263269
1.5091186
1.4925158
1.4763051
1.4603252
1.4444904
1.4287586
1.4131065
1.3975176
1.3819787
1.366479
1.351011
1.3355696
1.3201511
1.3047529
1.2893723
1.2740075
1.2586568
1.2433185
1.2279914
1.2126743
1.1973662
1.1820661
1.1667732
1.1514867
1.1362058
1.1209301
1.1056588
1.0903914
1.0751275
1.0598664
1.0446079
1.0293515
1.0140968
0.99884344
0.98359121
0.96833983
0.95308907
0.93783878
0.92258882
0.90733909
0.8920895
0.87684
0.86159056
0.84634115
0.83109176
0.81584237
0.80059299
0.7853436
0.77009421
0.75484483
0.73959544
0.72434605
0.70909666
0.69384727
0.67859788
0.66334848
0.64809909
0.6328497
0.61760031
0.60235092
0.58710153
0.57185214
0.55660275
0.54135336
0.52610397
0.51085458
0.49560519
0.4803558
0.4651064
0.44985701
0.43460762
0.41935823
0.40410884
0.38885945
0.37361006
0.35836067
0.34311127
0.32786188
0.31261249
0.2973631
0.28211371
0.26686432
0.25161493
0.23636554
0.22111615
0.20586676
0.19061736
0.17536797
0.16011858
0.14486919
0.1296198
0.11437041
0.099121019
0.083871628
0.068622237
0.053372847
0.038123459
0.022874071
0.0076246872
)
;

boundaryField
{
    top
    {
        type            zeroGradient;
    }
    inlet
    {
        type            fixedValue;
        value           uniform 1.5352;
    }
    outlet
    {
        type            fixedValue;
        value           uniform 0;
    }
    bottom
    {
        type            zeroGradient;
    }
    back
    {
        type            empty;
    }
    front
    {
        type            empty;
    }
}


// ************************************************************************* //
