/*--------------------------------*- C++ -*----------------------------------*\
| =========                 |                                                 |
| \\      /  F ield         | OpenFOAM: The Open Source CFD Toolbox           |
|  \\    /   O peration     | Version:  2112                                  |
|   \\  /    A nd           | Website:  www.openfoam.com                      |
|    \\/     M anipulation  |                                                 |
\*---------------------------------------------------------------------------*/
FoamFile
{
    version     2.0;
    format      ascii;
    arch        "LSB;label=32;scalar=64";
    class       surfaceScalarField;
    location    "8";
    object      phi;
}
// * * * * * * * * * * * * * * * * * * * * * * * * * * * * * * * * * * * * * //

dimensions      [0 3 -1 0 0 0 0];

oriented        oriented;

internalField   nonuniform List<scalar> 
1890
(
0.0024850063
4.1101395e-06
0.0024721011
1.2906152e-05
0.0024573607
1.474039e-05
0.0024449383
1.2422124e-05
0.0024355587
9.3793212e-06
0.0024283966
7.1619482e-06
0.0024226302
5.7662962e-06
0.002417835
4.7951315e-06
0.0024138241
4.0108347e-06
0.002410469
3.3550919e-06
0.0024076426
2.8264478e-06
0.0024052308
2.4118833e-06
0.0024031475
2.0834459e-06
0.0024013334
1.8142101e-06
0.002399747
1.5865573e-06
0.0023983563
1.3907869e-06
0.0023971354
1.221051e-06
0.0023960627
1.0728514e-06
0.0023951205
9.4244362e-07
0.0023942938
8.2685655e-07
0.0023935701
7.2386308e-07
0.0023929384
6.3175923e-07
0.0023923894
5.4918914e-07
0.0023919146
4.7502523e-07
0.0023915064
4.0834495e-07
0.0023911581
3.4840012e-07
0.0023908637
2.9460926e-07
0.0023906173
2.4652223e-07
0.0023904137
2.0379856e-07
0.0023902476
1.6616743e-07
0.0023901144
1.3339658e-07
0.0023900093
1.0525506e-07
0.0023899279
8.1485045e-08
0.0023898662
6.1783802e-08
0.0023898205
4.5794219e-08
0.0023897875
3.3113793e-08
0.0023897643
2.3303041e-08
0.0023897485
1.591466e-08
0.002389738
1.0509442e-08
0.0023897314
6.6790767e-09
0.0023897274
4.054815e-09
0.0023897251
2.3256868e-09
0.0023897239
1.2334199e-09
0.0023897233
5.7977593e-10
0.0023897232
2.1079731e-10
0.0023897232
2.3743648e-11
0.0023897232
-4.8324583e-11
0.0023897233
-7.2928674e-11
0.0023897234
-7.0082507e-11
0.0023897234
-5.4752393e-11
0.0023897235
-3.8851113e-11
0.0023897235
-2.3874726e-11
0.0023897235
-1.3710292e-11
0.0023897235
-5.8663954e-12
0.0023897235
-1.9260216e-12
0.0023897235
8.8398617e-13
0.0023897235
1.2436437e-12
0.0023897235
1.9428065e-12
0.0023897235
9.4114861e-13
0.0023897235
8.2683511e-13
0.0023897235
-3.7040498e-13
0.0023897235
-5.0818514e-13
0.0023897235
-1.6673236e-12
0.0023897235
-1.4957723e-12
0.0023897235
-2.3784315e-12
0.0023897235
-1.8556402e-12
0.0023897235
-2.4640869e-12
0.0023897235
-1.6819498e-12
0.0023897235
-1.9962864e-12
0.0023897235
-1.007105e-12
0.0023897235
-1.1261557e-12
0.0023897235
-1.7534042e-13
0.0023897235
-5.7771625e-14
0.0023897235
9.6427111e-13
0.0023897235
8.6228248e-13
0.0023897235
1.8899541e-12
0.0023897235
1.6723528e-12
0.0023897235
2.6236636e-12
0.0023897235
2.2086222e-12
0.0023897235
2.9822234e-12
0.0023897235
2.4168601e-12
0.0023897235
3.0512157e-12
0.0023897235
2.3040512e-12
0.0023897235
2.7500325e-12
0.0023897235
1.9359375e-12
0.0023897235
2.2714129e-12
0.0023897235
1.4575289e-12
0.0023897235
1.673947e-12
0.0023897235
1.1259893e-12
0.0023897235
1.3700656e-12
0.0023897235
1.4343863e-12
0.0023897235
2.0081011e-12
0.0023897235
3.606255e-12
0.0023897235
5.9051138e-12
0.0023897235
1.2633168e-11
0.0023897235
2.1348463e-11
0.0023897234
4.1710604e-11
0.0023897233
6.5527888e-11
0.0023897232
1.3286237e-10
1.7901643e-10
0.0058910309
4.4913799e-06
0.0058859853
1.7953114e-05
0.0058770416
2.3684326e-05
0.0058669907
2.2472725e-05
0.0058574503
1.891949e-05
0.0058487707
1.5841525e-05
0.005840887
1.3650003e-05
0.0058337561
1.1925882e-05
0.0058273896
1.037722e-05
0.0058217744
8.9702869e-06
0.0058168482
7.7526341e-06
0.0058125257
6.734395e-06
0.0058087257
5.8835813e-06
0.0058053802
5.1597241e-06
0.0058024334
4.5334887e-06
0.0057998371
3.9871244e-06
0.0057975498
3.5085074e-06
0.0057955352
3.0874648e-06
0.0057937627
2.7150902e-06
0.0057922056
2.3840581e-06
0.0057908409
2.0885926e-06
0.0057896487
1.8241225e-06
0.0057886111
1.5868979e-06
0.0057877124
1.3737921e-06
0.0057869386
1.1822002e-06
0.0057862771
1.0099998e-06
0.0057857164
8.5549301e-07
0.0057852457
7.1735159e-07
0.005784855
5.9454109e-07
0.0057845351
4.8623979e-07
0.0057842768
3.9174631e-07
0.0057840718
3.1038477e-07
0.005783912
2.4142752e-07
0.0057837898
1.8403269e-07
0.0057836985
1.3722496e-07
0.0057836318
9.9894079e-08
0.0057835843
7.0838297e-08
0.0057835515
4.8805757e-08
0.0057835295
3.2565357e-08
0.0057835153
2.095106e-08
0.0057835065
1.2917061e-08
0.0057835013
7.5576106e-09
0.0057834984
4.1289116e-09
0.005783497
2.0384097e-09
0.0057834964
8.3991532e-10
0.0057834962
2.061198e-10
0.0057834963
-8.1850751e-11
0.0057834964
-1.8704314e-10
0.0057834965
-1.9445938e-10
0.0057834967
-1.6234078e-10
0.0057834967
-1.1836023e-10
0.0057834968
-7.8969557e-11
0.0057834968
-4.7127527e-11
0.0057834969
-2.5638228e-11
0.0057834969
-1.1062723e-11
0.0057834969
-3.3582217e-12
0.0057834969
1.272971e-12
0.0057834969
2.366307e-12
0.0057834969
2.8844842e-12
0.0057834969
1.6952016e-12
0.0057834969
1.0283587e-12
0.0057834969
-4.4737264e-13
0.0057834969
-1.089118e-12
0.0057834969
-2.3859808e-12
0.0057834969
-2.4944502e-12
0.0057834969
-3.327753e-12
0.0057834969
-3.0041013e-12
0.0057834969
-3.4203768e-12
0.0057834969
-2.6519133e-12
0.0057834969
-2.6538685e-12
0.0057834969
-1.6719986e-12
0.0057834969
-1.4122527e-12
0.0057834969
-3.1758684e-13
0.0057834969
1.9002129e-13
0.0057834969
1.2470249e-12
0.0057834969
1.5329047e-12
0.0057834969
2.6951724e-12
0.0057834969
2.8134654e-12
0.0057834969
3.7882697e-12
0.0057834969
3.6404949e-12
0.0057834969
4.4574823e-12
0.0057834969
4.0972475e-12
0.0057834969
4.6411746e-12
0.0057834969
4.004995e-12
0.0057834969
4.4387261e-12
0.0057834969
3.6511766e-12
0.0057834969
4.0326035e-12
0.0057834969
3.1245319e-12
0.0057834969
3.9037494e-12
0.0057834969
3.1611245e-12
0.0057834969
5.0258857e-12
0.0057834969
4.9417444e-12
0.0057834969
9.9604555e-12
0.0057834968
1.3418995e-11
0.0057834968
2.7095854e-11
0.0057834968
4.0825231e-11
0.0057834968
7.3636744e-11
0.0057834967
1.1129484e-10
0.0057834967
1.7849259e-10
2.3535698e-10
0.0080773029
3.149719e-06
0.0080805498
1.4707585e-05
0.0080830788
2.1155432e-05
0.0080840677
2.1483551e-05
0.008083927
1.9060228e-05
0.0080830689
1.669976e-05
0.0080817273
1.4991517e-05
0.0080800613
1.3591747e-05
0.008078218
1.2220342e-05
0.0080763185
1.0869712e-05
0.0080744439
9.6272736e-06
0.0080726414
8.5368907e-06
0.0080709382
7.586891e-06
0.0080693497
6.748187e-06
0.0080678839
5.9993182e-06
0.0080665425
5.328578e-06
0.008065323
4.7280672e-06
0.0080642205
4.1901147e-06
0.0080632285
3.7071498e-06
0.0080623401
3.2724912e-06
0.0080615481
2.8806408e-06
0.0080608453
2.527038e-06
0.0080602245
2.2077759e-06
0.0080596789
1.9194371e-06
0.0080592021
1.6590679e-06
0.008058788
1.424159e-06
0.0080584309
1.212635e-06
0.0080581256
1.022808e-06
0.0080578669
8.5333135e-07
0.0080576501
7.0311843e-07
0.0080574707
5.7125342e-07
0.0080573242
4.5688236e-07
0.0080572066
3.5911297e-07
0.0080571138
2.7693329e-07
0.008057042
2.0916205e-07
0.0080569875
1.5444204e-07
0.0080569471
1.1126588e-07
0.008056918
7.8037052e-08
0.0080568974
5.313792e-08
0.0080568834
3.5010271e-08
0.0080568742
2.2214205e-08
0.0080568683
1.3483425e-08
0.0080568647
7.7455404e-09
0.0080568626
4.1337906e-09
0.0080568615
1.9726698e-09
0.008056861
7.6169444e-10
0.0080568608
1.4267742e-10
0.0080568607
-1.3256238e-10
0.0080568608
-2.1754729e-10
0.0080568608
-2.1079295e-10
0.0080568609
-1.6931199e-10
0.0080568609
-1.2039624e-10
0.008056861
-7.8402558e-11
0.008056861
-4.6150261e-11
0.008056861
-2.4565026e-11
0.008056861
-1.0751207e-11
0.008056861
-3.2772126e-12
0.008056861
6.7281851e-13
0.008056861
1.6608032e-12
0.008056861
1.8344773e-12
0.008056861
9.2158034e-13
0.008056861
-4.8557042e-15
0.008056861
-1.0353398e-12
0.008056861
-1.660206e-12
0.008056861
-2.4909419e-12
0.008056861
-2.611117e-12
0.008056861
-3.0322796e-12
0.008056861
-2.6972708e-12
0.008056861
-2.7246563e-12
0.008056861
-2.0922519e-12
0.008056861
-1.8170068e-12
0.008056861
-1.006683e-12
0.008056861
-3.915228e-13
0.008056861
3.4134652e-13
0.008056861
9.5047936e-13
0.008056861
1.8330028e-12
0.008056861
2.2550535e-12
0.008056861
3.1022486e-12
0.008056861
3.3226635e-12
0.008056861
4.0383496e-12
0.008056861
4.0646582e-12
0.008056861
4.5592001e-12
0.008056861
4.3727981e-12
0.008056861
4.6672793e-12
0.008056861
4.3786822e-12
0.008056861
4.4777509e-12
0.008056861
4.2460381e-12
0.008056861
4.2956079e-12
0.008056861
4.5237515e-12
0.008056861
4.7668632e-12
0.008056861
6.2035738e-12
0.008056861
7.4773544e-12
0.008056861
1.2691717e-11
0.008056861
1.830418e-11
0.008056861
3.1540196e-11
0.008056861
4.6624426e-11
0.008056861
7.4161336e-11
0.008056861
1.0905564e-10
0.008056861
1.5774881e-10
2.0312619e-10
0.0093545461
1.5487245e-06
0.0093613612
7.8938532e-06
0.0093706149
1.1901905e-05
0.0093795685
1.252976e-05
0.0093872305
1.1398278e-05
0.0093937383
1.019201e-05
0.0093993921
9.3376015e-06
0.0094043408
8.6429006e-06
0.009408637
7.924039e-06
0.009412333
7.1736519e-06
0.0094155053
6.454912e-06
0.0094182367
5.8055335e-06
0.0094205984
5.2252079e-06
0.0094226466
4.7000873e-06
0.0094244258
4.2201709e-06
0.0094259731
3.7813102e-06
0.00942732
3.3811964e-06
0.0094284931
3.0170475e-06
0.0094295148
2.6855593e-06
0.0094304037
2.3836351e-06
0.0094311758
2.1086211e-06
0.0094318446
1.8582674e-06
0.009432422
1.6305312e-06
0.0094329179
1.423559e-06
0.0094333414
1.2356554e-06
0.0094337003
1.0653421e-06
0.0094340017
9.1133462e-07
0.009434252
7.7256852e-07
0.0094344573
6.4815733e-07
0.0094346231
5.3738252e-07
0.0094347548
4.3962743e-07
0.0094348575
3.5432865e-07
0.0094349357
2.8090273e-07
0.0094349941
2.1869252e-07
0.0094350364
1.6692895e-07
0.0094350662
1.2471301e-07
0.0094350865
9.1034868e-08
0.0094350998
6.4796676e-08
0.0094351081
4.4873202e-08
0.009435113
3.0149609e-08
0.0094351157
1.9586366e-08
0.009435117
1.2240649e-08
0.0094351175
7.3092493e-09
0.0094351175
4.1207187e-09
0.0094351174
2.1512657e-09
0.0094351171
9.952375e-10
0.0094351169
3.6468624e-10
0.0094351168
4.8305077e-11
0.0094351167
-8.2457661e-11
0.0094351166
-1.194126e-10
0.0094351165
-1.0939979e-10
0.0094351165
-8.622548e-11
0.0094351165
-5.8918709e-11
0.0094351165
-3.8406607e-11
0.0094351165
-2.137197e-11
0.0094351165
-1.204132e-11
0.0094351165
-4.8188675e-12
0.0094351165
-2.4057683e-12
0.0094351165
-1.243012e-13
0.0094351165
-4.8098497e-13
0.0094351165
-3.9244874e-14
0.0094351165
-1.2531062e-12
0.0094351165
-7.3118943e-13
0.0094351165
-2.0656118e-12
0.0094351165
-1.2652159e-12
0.0094351165
-2.3764479e-12
0.0094351165
-1.2423008e-12
0.0094351165
-2.0721797e-12
0.0094351165
-8.2447894e-13
0.0094351165
-1.4031206e-12
0.0094351165
-1.6639686e-13
0.0094351165
-4.0260278e-13
0.0094351165
8.6565576e-13
0.0094351165
4.8200676e-13
0.0094351165
1.9112088e-12
0.0094351165
1.3471726e-12
0.0094351165
2.8073548e-12
0.0094351165
2.0562847e-12
0.0094351165
3.519393e-12
0.0094351165
2.6044291e-12
0.0094351165
3.9323793e-12
0.0094351165
2.845878e-12
0.0094351165
4.1123888e-12
0.0094351165
2.9081995e-12
0.0094351165
4.087772e-12
0.0094351165
2.8221486e-12
0.0094351165
4.1588195e-12
0.0094351165
2.9606955e-12
0.0094351165
4.6807701e-12
0.0094351165
3.7319728e-12
0.0094351165
6.519596e-12
0.0094351165
6.8003656e-12
0.0094351165
1.2600319e-11
0.0094351165
1.62341e-11
0.0094351165
2.7000513e-11
0.0094351165
3.5199714e-11
0.0094351165
5.2664572e-11
0.0094351165
7.0877583e-11
0.0094351166
9.7295717e-11
1.2359635e-10
0.0099387573
4.4217755e-11
0.0099466526
1.1383386e-10
0.0099585546
-1.1490289e-11
0.0099710843
-1.630416e-10
0.0099824827
-1.8041749e-10
0.009992675
-1.3779082e-10
0.010002013
-1.3550062e-10
0.010010656
-1.720035e-10
0.01001858
-1.9491494e-10
0.010025753
-1.9237156e-10
0.010032209
-1.6803545e-10
0.010038014
-1.5269847e-10
0.01004324
-1.3505433e-10
0.01004794
-1.2135391e-10
0.01005216
-9.7322632e-11
0.010055942
-7.5158487e-11
0.010059323
-4.8723459e-11
0.01006234
-2.9858683e-11
0.010065026
-1.1097299e-11
0.010067409
-4.132948e-14
0.010069518
1.0297653e-11
0.010071376
1.3313587e-11
0.010073007
1.6312617e-11
0.010074431
1.4964166e-11
0.010075666
1.6391968e-11
0.010076732
1.7329341e-11
0.010077643
2.3228983e-11
0.010078416
3.1730764e-11
0.010079064
4.5639616e-11
0.010079602
6.2553878e-11
0.010080041
8.2599337e-11
0.010080396
1.0410147e-10
0.010080676
1.2546339e-10
0.010080895
1.4619112e-10
0.010081062
1.6354399e-10
0.010081187
1.7848919e-10
0.010081277
1.880214e-10
0.010081342
1.9438841e-10
0.010081387
1.9414606e-10
0.010081417
1.9071597e-10
0.010081436
1.8118654e-10
0.010081448
1.6961034e-10
0.010081456
1.5301205e-10
0.01008146
1.3594589e-10
0.010081462
1.159245e-10
0.010081463
9.77489e-11
0.010081463
7.8488742e-11
0.010081463
6.2672092e-11
0.010081463
4.6411014e-11
0.010081463
3.4688526e-11
0.010081463
2.3459649e-11
0.010081462
1.630346e-11
0.010081462
9.2369053e-12
0.010081462
5.7755751e-12
0.010081462
1.8542529e-12
0.010081462
6.130466e-13
0.010081462
-1.5427633e-12
0.010081462
-1.4618503e-12
0.010081462
-2.7406075e-12
0.010081462
-1.9387582e-12
0.010081462
-2.9325733e-12
0.010081462
-1.7881754e-12
0.010081462
-2.3941055e-12
0.010081462
-1.2005077e-12
0.010081462
-1.7129305e-12
0.010081462
-4.2622346e-13
0.010081462
-7.6358965e-13
0.010081462
4.1513929e-13
0.010081462
-6.156629e-14
0.010081462
1.1446782e-12
0.010081462
6.456348e-13
0.010081462
1.8293926e-12
0.010081462
1.1173692e-12
0.010081462
2.252351e-12
0.010081462
1.5396318e-12
0.010081462
2.52577e-12
0.010081462
1.6466755e-12
0.010081462
2.5747053e-12
0.010081462
1.7570908e-12
0.010081462
2.5377915e-12
0.010081462
1.5873843e-12
0.010081462
2.3380311e-12
0.010081462
1.4766262e-12
0.010081462
2.1770937e-12
0.010081462
1.2369809e-12
0.010081462
2.100909e-12
0.010081462
1.4183921e-12
0.010081462
2.4687589e-12
0.010081462
1.9595456e-12
0.010081462
3.4125076e-12
0.010081462
3.5740195e-12
0.010081462
6.2005166e-12
0.010081462
7.5064894e-12
0.010081462
1.1374679e-11
0.010081462
1.3183727e-11
0.010081462
1.5107206e-11
0.010081462
1.6641356e-11
0.010081462
1.5850335e-11
0.010081463
1.7304888e-11
2.0803623e-11
0.0099387564
-1.5487777e-06
0.0099466517
-7.8940859e-06
0.0099585538
-1.1902009e-05
0.0099710834
-1.2529841e-05
0.0099824818
-1.1398519e-05
0.0099926741
-1.0192372e-05
0.010002012
-9.3379719e-06
0.010010655
-8.6432497e-06
0.010018579
-7.9243752e-06
0.010025753
-7.1739888e-06
0.010032208
-6.4552356e-06
0.010038013
-5.8058372e-06
0.010043239
-5.2254769e-06
0.010047939
-4.7003205e-06
0.010052159
-4.2203592e-06
0.010055941
-3.7814564e-06
0.010059322
-3.3812977e-06
0.010062339
-3.0171124e-06
0.010065025
-2.6855908e-06
0.010067409
-2.3836443e-06
0.010069517
-2.1086129e-06
0.010071376
-1.8582523e-06
0.010073006
-1.6305118e-06
0.01007443
-1.4235405e-06
0.010075666
-1.2356349e-06
0.010076731
-1.0653185e-06
0.010077643
-9.1129984e-07
0.010078415
-7.725167e-07
0.010079064
-6.4807932e-07
0.010079601
-5.3727249e-07
0.010080041
-4.3947973e-07
0.010080395
-3.5414116e-07
0.010080676
-2.8067533e-07
0.010080895
-2.1842745e-07
0.010081061
-1.6663173e-07
0.010081186
-1.2438945e-07
0.010081277
-9.0693637e-08
0.010081342
-6.4445434e-08
0.010081387
-4.4522459e-08
0.010081417
-2.9806826e-08
0.010081436
-1.9260695e-08
0.010081448
-1.1937977e-08
0.010081456
-7.0368377e-09
0.01008146
-3.88086e-09
0.010081462
-1.9472611e-09
0.010081463
-8.2566732e-10
0.010081463
-2.2876708e-10
0.010081463
5.9437125e-11
0.010081463
1.6145014e-10
0.010081463
1.7700031e-10
0.010081463
1.4814262e-10
0.010081463
1.1182325e-10
0.010081462
7.332854e-11
0.010081462
4.6227447e-11
0.010081462
2.3427618e-11
0.010081462
1.1357401e-11
0.010081462
1.615193e-12
0.010081462
-1.3936549e-12
0.010081462
-5.1092576e-12
0.010081462
-3.7732235e-12
0.010081462
-5.2113194e-12
0.010081462
-2.6318228e-12
0.010081462
-3.3226862e-12
0.010081462
-8.8305076e-13
0.010081462
-1.3166595e-12
0.010081462
9.5391092e-13
0.010081462
4.0023961e-13
0.010081462
2.2621743e-12
0.010081462
1.2339153e-12
0.010081462
3.1519183e-12
0.010081462
1.7486593e-12
0.010081462
3.3960444e-12
0.010081462
1.7560297e-12
0.010081462
3.3289293e-12
0.010081462
1.5310603e-12
0.010081462
2.8353104e-12
0.010081462
9.8365984e-13
0.010081462
2.23794e-12
0.010081462
4.6536667e-13
0.010081462
1.4262049e-12
0.010081462
-1.5269031e-13
0.010081462
8.5941028e-13
0.010081462
-6.3188713e-13
0.010081462
3.8443984e-13
0.010081462
-1.009698e-12
0.010081462
3.8492752e-13
0.010081462
-8.4654759e-13
0.010081462
8.2440503e-13
0.010081462
-2.4484749e-13
0.010081462
2.0041024e-12
0.010081462
8.5899592e-13
0.010081462
3.8684765e-12
0.010081462
1.7762754e-12
0.010081462
3.5243131e-12
0.010081462
-2.7636726e-12
0.010081463
-7.8691433e-12
0.010081463
-2.231754e-11
0.010081463
-4.2023108e-11
0.010081463
-6.5323985e-11
-8.7048793e-11
0.0093545448
-3.1496625e-06
0.0093613597
-1.4707468e-05
0.0093706134
-2.1155531e-05
0.009379567
-2.1483777e-05
0.0093872288
-1.9060448e-05
0.0093937365
-1.6699944e-05
0.0093993902
-1.4991736e-05
0.0094043388
-1.3591994e-05
0.0094086349
-1.2220619e-05
0.0094123309
-1.0869978e-05
0.0094155032
-9.6275361e-06
0.0094182345
-8.537126e-06
0.0094205962
-7.5871132e-06
0.0094226443
-6.7483742e-06
0.0094244235
-5.9994828e-06
0.0094259708
-5.3287033e-06
0.0094273177
-4.7281691e-06
0.0094284909
-4.1901825e-06
0.0094295126
-3.707201e-06
0.0094304016
-3.2725195e-06
0.0094311737
-2.8806634e-06
0.0094318426
-2.5270495e-06
0.00943242
-2.2077891e-06
0.009432916
-1.9194446e-06
0.0094333395
-1.6590761e-06
0.0094336985
-1.4241576e-06
0.0094339999
-1.2126242e-06
0.0094342503
-1.0227775e-06
0.0094344556
-8.5327877e-07
0.0094346215
-7.0303686e-07
0.0094347533
-5.7114125e-07
0.009434856
-4.5673865e-07
0.0094349344
-3.5893819e-07
0.0094349928
-2.7673236e-07
0.0094350353
-2.0893693e-07
0.0094350652
-1.5420175e-07
0.0094350856
-1.1101315e-07
0.009435099
-7.7783008e-08
0.0094351075
-5.2884262e-08
0.0094351125
-3.4768017e-08
0.0094351153
-2.198442e-08
0.0094351167
-1.3275982e-08
0.0094351173
-7.5587161e-09
0.0094351174
-3.9753176e-09
0.0094351174
-1.8380397e-09
0.0094351172
-6.5480491e-10
0.0094351171
-5.4788008e-11
0.0094351169
1.9495326e-10
0.0094351169
2.650624e-10
0.0094351168
2.4080308e-10
0.0094351168
1.9065931e-10
0.0094351167
1.3035142e-10
0.0094351167
8.4984947e-11
0.0094351167
4.601508e-11
0.0094351168
2.4038609e-11
0.0094351167
6.5650105e-12
0.0094351168
3.6016251e-13
0.0094351168
-6.3230111e-12
0.0094351168
-4.9743247e-12
0.0094351168
-7.4169061e-12
0.0094351168
-3.7350826e-12
0.0094351168
-4.7990702e-12
0.0094351168
-1.1737214e-12
0.0094351167
-1.9831167e-12
0.0094351168
1.4283722e-12
0.0094351167
4.6301538e-13
0.0094351168
3.3233086e-12
0.0094351167
1.5822334e-12
0.0094351168
4.342498e-12
0.0094351167
2.1733032e-12
0.0094351168
4.5246889e-12
0.0094351167
1.9752225e-12
0.0094351168
4.1094187e-12
0.0094351168
1.4486176e-12
0.0094351168
3.1954718e-12
0.0094351168
5.331933e-13
0.0094351168
2.0793852e-12
0.0094351168
-3.9146434e-13
0.0094351168
9.5378424e-13
0.0094351168
-1.6147782e-12
0.0094351168
-7.0807714e-14
0.0094351168
-2.3617612e-12
0.0094351168
-6.6713082e-13
0.0094351168
-2.9699524e-12
0.0094351168
-8.8206473e-13
0.0094351168
-2.8449883e-12
0.0094351168
-6.8486612e-13
0.0094351168
-2.2542842e-12
0.0094351168
-1.3581531e-13
0.0094351168
-1.0077287e-12
0.0094351168
6.3215353e-13
0.0094351168
-3.3724887e-13
0.0094351168
-8.9951603e-13
0.0094351168
-5.5937446e-12
0.0094351168
-1.3307183e-11
0.0094351168
-2.7314828e-11
0.0094351168
-5.2215961e-11
0.0094351169
-8.727535e-11
0.0094351169
-1.3504889e-10
-1.8005921e-10
0.0080773013
-4.4914042e-06
0.008080548
-1.7953133e-05
0.008083077
-2.3684375e-05
0.0080840659
-2.2472843e-05
0.008083925
-1.8919654e-05
0.0080830667
-1.5841683e-05
0.0080817251
-1.3650154e-05
0.008080059
-1.1926028e-05
0.0080782156
-1.0377375e-05
0.008076316
-8.9704396e-06
0.0080744413
-7.7527798e-06
0.0080726387
-6.7345209e-06
0.0080709354
-5.8836915e-06
0.0080693469
-5.1598155e-06
0.0080678811
-4.5335683e-06
0.0080665397
-3.9871883e-06
0.0080653202
-3.5085596e-06
0.0080642177
-3.0875019e-06
0.0080632257
-2.7151181e-06
0.0080623374
-2.3840762e-06
0.0080615455
-2.0886073e-06
0.0080608427
-1.8241329e-06
0.008060222
-1.5869078e-06
0.0080596764
-1.373799e-06
0.0080591997
-1.1822045e-06
0.0080587857
-1.0099972e-06
0.0080584287
-8.5548144e-07
0.0080581234
-7.173265e-07
0.0080578648
-5.9450035e-07
0.0080576481
-4.8618121e-07
0.0080574688
-3.9166923e-07
0.0080573225
-3.1029008e-07
0.0080572051
-2.4131651e-07
0.0080571124
-1.839091e-07
0.0080570407
-1.3709093e-07
0.0080569864
-9.9754777e-08
0.0080569462
-7.0695926e-08
0.0080569172
-4.866589e-08
0.0080568968
-3.242979e-08
0.008056883
-2.0824423e-08
0.0080568738
-1.2800136e-08
0.0080568681
-7.4545395e-09
0.0080568646
-4.0396567e-09
0.0080568627
-1.964621e-09
0.0080568616
-7.7939811e-10
0.0080568612
-1.5794489e-10
0.008056861
1.1626916e-10
0.008056861
2.1080567e-10
0.0080568611
2.1089373e-10
0.0080568612
1.7126505e-10
0.0080568613
1.2321065e-10
0.0080568613
7.9629207e-11
0.0080568614
4.6472166e-11
0.0080568614
2.272063e-11
0.0080568614
8.1797612e-12
0.0080568614
-4.3662035e-13
0.0080568614
-4.4292922e-12
0.0080568614
-6.249374e-12
0.0080568614
-5.9273646e-12
0.0080568614
-5.1490152e-12
0.0080568614
-3.5262871e-12
0.0080568614
-2.4819068e-12
0.0080568614
-8.9206424e-13
0.0080568614
4.4236834e-14
0.0080568614
1.4986052e-12
0.0080568614
1.9595062e-12
0.0080568614
2.7168589e-12
0.0080568614
2.9260552e-12
0.0080568614
3.4012251e-12
0.0080568614
3.0690565e-12
0.0080568614
3.0794191e-12
0.0080568614
2.6404493e-12
0.0080568614
2.5194039e-12
0.0080568614
1.6914785e-12
0.0080568614
1.3359965e-12
0.0080568614
5.938992e-13
0.0080568614
2.948309e-13
0.0080568614
-6.1788739e-13
0.0080568614
-9.3680079e-13
0.0080568614
-1.6444994e-12
0.0080568614
-1.7306749e-12
0.0080568614
-2.3439016e-12
0.0080568614
-2.3618514e-12
0.0080568614
-2.5939907e-12
0.0080568614
-2.313774e-12
0.0080568614
-2.40261e-12
0.0080568614
-2.0560543e-12
0.0080568614
-1.6582345e-12
0.0080568614
-1.2151216e-12
0.0080568614
-6.5554741e-13
0.0080568614
-9.2009881e-13
0.0080568614
-8.4361043e-13
0.0080568614
-4.0822318e-12
0.0080568614
-7.7455109e-12
0.0080568614
-1.8779329e-11
0.0080568614
-3.0359494e-11
0.0080568614
-6.3677315e-11
0.0080568614
-1.0001396e-10
0.0080568614
-1.6946764e-10
-2.2875942e-10
0.0058910294
-4.1100234e-06
0.0058859835
-1.2906057e-05
0.0058770399
-1.4740339e-05
0.005866989
-1.2422162e-05
0.0058574487
-9.3794718e-06
0.005848769
-7.1621621e-06
0.0058408852
-5.7664579e-06
0.0058337542
-4.7952266e-06
0.0058273877
-4.0108761e-06
0.0058217723
-3.3551243e-06
0.0058168461
-2.8264631e-06
0.0058125236
-2.4118884e-06
0.0058087235
-2.0834258e-06
0.005805378
-1.8141834e-06
0.0058024311
-1.5865187e-06
0.0057998349
-1.3907506e-06
0.0057975475
-1.2210058e-06
0.005795533
-1.0728067e-06
0.0057937605
-9.4239044e-07
0.0057922034
-8.2680485e-07
0.0057908388
-7.2380582e-07
0.0057896466
-6.3170485e-07
0.0057886091
-5.4913143e-07
0.0057877105
-4.7497064e-07
0.0057869368
-4.0828786e-07
0.0057862753
-3.483447e-07
0.0057857146
-2.9455108e-07
0.005785244
-2.4646364e-07
0.0057848535
-2.0373698e-07
0.0057845336
-1.6610369e-07
0.0057842755
-1.3333052e-07
0.0057840706
-1.0518646e-07
0.0057839109
-8.1416257e-08
0.0057837889
-6.1713361e-08
0.0057836977
-4.5726239e-08
0.0057836311
-3.3045658e-08
0.0057835838
-2.3240128e-08
0.0057835511
-1.5853428e-08
0.0057835292
-1.0455316e-08
0.0057835151
-6.6281189e-09
0.0057835064
-4.0122955e-09
0.0057835013
-2.2873131e-09
0.0057834985
-1.2034785e-09
0.0057834971
-5.5358117e-10
0.0057834966
-1.9112575e-10
0.0057834965
-1.0933742e-11
0.0057834966
5.8390349e-11
0.0057834967
8.1405119e-11
0.0057834969
7.2984044e-11
0.005783497
5.8256797e-11
0.0057834971
3.8210364e-11
0.0057834971
2.4871054e-11
0.0057834972
1.1598865e-11
0.0057834972
5.5919919e-12
0.0057834972
-5.8679616e-13
0.0057834972
-1.2712713e-12
0.0057834972
-4.112555e-12
0.0057834972
-2.4204096e-12
0.0057834972
-3.7967158e-12
0.0057834972
-1.3276565e-12
0.0057834972
-2.3093165e-12
0.0057834972
-2.6783299e-14
0.0057834972
-8.1218324e-13
0.0057834972
1.4514235e-12
0.0057834972
3.4920287e-13
0.0057834972
2.3059007e-12
0.0057834972
9.2116126e-13
0.0057834972
2.8143636e-12
0.0057834972
1.0846978e-12
0.0057834972
2.6932255e-12
0.0057834972
8.5672746e-13
0.0057834972
2.3515332e-12
0.0057834972
3.9092105e-13
0.0057834972
1.6092531e-12
0.0057834972
-2.7262239e-13
0.0057834972
9.6665566e-13
0.0057834972
-1.0321779e-12
0.0057834972
1.5579886e-13
0.0057834972
-1.6789535e-12
0.0057834972
-3.306572e-13
0.0057834972
-2.1777803e-12
0.0057834972
-6.913211e-13
0.0057834972
-2.4088913e-12
0.0057834972
-6.9559493e-13
0.0057834972
-2.3655571e-12
0.0057834972
-5.6051186e-13
0.0057834972
-2.0287334e-12
0.0057834972
-1.0113134e-13
0.0057834972
-1.5120583e-12
0.0057834972
4.7584714e-13
0.0057834972
-1.4516092e-12
0.0057834972
-9.7386205e-14
0.0057834972
-4.4795359e-12
0.0057834972
-4.6810266e-12
0.0057834972
-1.2835912e-11
0.0057834972
-1.9744796e-11
0.0057834971
-4.207919e-11
0.0057834971
-6.3977371e-11
0.005783497
-1.3407905e-10
-1.8197865e-10
0.0024850062
0.0024721005
0.0024573601
0.0024449378
0.0024355583
0.0024283961
0.0024226295
0.0024178343
0.0024138234
0.0024104683
0.0024076419
0.0024052301
0.0024031467
0.0024013327
0.0023997462
0.0023983556
0.0023971347
0.002396062
0.0023951198
0.0023942931
0.0023935694
0.0023929378
0.0023923888
0.002391914
0.0023915058
0.0023911576
0.0023908632
0.0023906168
0.0023904132
0.0023902472
0.002390114
0.0023900089
0.0023899276
0.002389866
0.0023898204
0.0023897874
0.0023897642
0.0023897484
0.002389738
0.0023897314
0.0023897274
0.0023897252
0.002389724
0.0023897235
0.0023897233
0.0023897233
0.0023897234
0.0023897234
0.0023897235
0.0023897236
0.0023897236
0.0023897237
0.0023897237
0.0023897237
0.0023897237
0.0023897237
0.0023897237
0.0023897237
0.0023897237
0.0023897237
0.0023897237
0.0023897237
0.0023897237
0.0023897237
0.0023897237
0.0023897237
0.0023897237
0.0023897237
0.0023897237
0.0023897237
0.0023897237
0.0023897237
0.0023897237
0.0023897237
0.0023897237
0.0023897237
0.0023897237
0.0023897237
0.0023897237
0.0023897237
0.0023897237
0.0023897237
0.0023897237
0.0023897237
0.0023897237
0.0023897237
0.0023897237
0.0023897237
0.0023897237
0.0023897237
0.0023897237
0.0023897237
0.0023897237
0.0023897237
0.0023897236
0.0023897236
0.0023897236
0.0023897235
0.0023897234
)
;

boundaryField
{
    top
    {
        type            calculated;
        value           uniform 0;
    }
    inlet
    {
        type            calculated;
        value           nonuniform List<scalar> 10(-0.0024891149 -0.0058914109 -0.0080759594 -0.0093529435 -0.0099372069 -0.0099372057 -0.0093529426 -0.008075958 -0.0058914096 -0.0024891154);
    }
    outlet
    {
        type            calculated;
        value           nonuniform List<scalar> 10(0.002389723 0.0057834966 0.008056861 0.0094351167 0.010081463 0.010081463 0.009435117 0.0080568615 0.005783497 0.0023897232);
    }
    bottom
    {
        type            calculated;
        value           uniform 0;
    }
    back
    {
        type            empty;
        value           nonuniform List<scalar> 0();
    }
    front
    {
        type            empty;
        value           nonuniform List<scalar> 0();
    }
}


// ************************************************************************* //
