/*--------------------------------*- C++ -*----------------------------------*\
| =========                 |                                                 |
| \\      /  F ield         | OpenFOAM: The Open Source CFD Toolbox           |
|  \\    /   O peration     | Version:  2112                                  |
|   \\  /    A nd           | Website:  www.openfoam.com                      |
|    \\/     M anipulation  |                                                 |
\*---------------------------------------------------------------------------*/
FoamFile
{
    version     2.0;
    format      ascii;
    arch        "LSB;label=32;scalar=64";
    class       volVectorField;
    location    "8";
    object      U;
}
// * * * * * * * * * * * * * * * * * * * * * * * * * * * * * * * * * * * * * //

dimensions      [0 1 -1 0 0 0 0];

internalField   nonuniform List<vector> 
1000
(
(0.24881279 0.00032984447 0)
(0.2480924 0.00089906854 0)
(0.24654702 0.00093225639 0)
(0.24508943 0.00067725234 0)
(0.24398448 0.00043104247 0)
(0.2431694 0.00028719355 0)
(0.24253314 0.000214835 0)
(0.24200952 0.00017084767 0)
(0.24157109 0.00013673517 0)
(0.24120434 0.00010984139 0)
(0.24089697 9.027162e-05 0)
(0.24063664 7.6519514e-05 0)
(0.24041314 6.6358383e-05 0)
(0.24021919 5.8167616e-05 0)
(0.24004986 5.1176898e-05 0)
(0.23990156 4.5096659e-05 0)
(0.23977144 3.9779154e-05 0)
(0.23965714 3.5092478e-05 0)
(0.23955672 3.0921205e-05 0)
(0.23946854 2.7180485e-05 0)
(0.23939126 2.3813582e-05 0)
(0.2393237 2.0778526e-05 0)
(0.23926485 1.8040709e-05 0)
(0.23921381 1.5569753e-05 0)
(0.23916981 1.3340604e-05 0)
(0.23913212 1.1333015e-05 0)
(0.23910011 9.5315744e-06 0)
(0.23907319 7.9242578e-06 0)
(0.2390508 6.5017532e-06 0)
(0.23903242 5.2560126e-06 0)
(0.23901755 4.1793298e-06 0)
(0.23900572 3.2631917e-06 0)
(0.23899648 2.497564e-06 0)
(0.2389894 1.8705588e-06 0)
(0.2389841 1.3683908e-06 0)
(0.23898022 9.7593205e-07 0)
(0.23897746 6.7713549e-07 0)
(0.23897554 4.5596218e-07 0)
(0.23897426 2.9686889e-07 0)
(0.23897342 1.8600558e-07 0)
(0.23897291 1.1128214e-07 0)
(0.23897261 6.2894103e-08 0)
(0.23897244 3.2857581e-08 0)
(0.23897236 1.530904e-08 0)
(0.23897232 5.6090665e-09 0)
(0.23897231 6.6422227e-10 0)
(0.23897232 -1.832907e-09 0)
(0.23897233 -2.3687924e-09 0)
(0.23897233 -2.1280977e-09 0)
(0.23897234 -1.5566098e-09 0)
(0.23897235 -1.0422094e-09 0)
(0.23897235 -5.710868e-10 0)
(0.23897235 -2.8662055e-10 0)
(0.23897235 -5.5336357e-11 0)
(0.23897235 1.9222459e-11 0)
(0.23897235 1.0198254e-10 0)
(0.23897235 7.8183058e-11 0)
(0.23897235 8.9742593e-11 0)
(0.23897235 2.2266546e-11 0)
(0.23897235 1.5231215e-11 0)
(0.23897235 -5.6443171e-11 0)
(0.23897235 -5.4895602e-11 0)
(0.23897235 -1.134745e-10 0)
(0.23897235 -1.0044334e-10 0)
(0.23897235 -1.4001962e-10 0)
(0.23897235 -1.0903235e-10 0)
(0.23897235 -1.3386492e-10 0)
(0.23897235 -8.8645142e-11 0)
(0.23897235 -9.810567e-11 0)
(0.23897235 -3.9567042e-11 0)
(0.23897235 -4.3659009e-11 0)
(0.23897235 2.0718252e-11 0)
(0.23897235 1.3927267e-11 0)
(0.23897235 7.6897091e-11 0)
(0.23897235 6.9739826e-11 0)
(0.23897235 1.2345518e-10 0)
(0.23897235 1.1171615e-10 0)
(0.23897235 1.5738248e-10 0)
(0.23897235 1.3468476e-10 0)
(0.23897235 1.6892238e-10 0)
(0.23897235 1.3882433e-10 0)
(0.23897235 1.6457709e-10 0)
(0.23897235 1.237099e-10 0)
(0.23897235 1.4002444e-10 0)
(0.23897235 9.5119537e-11 0)
(0.23897235 1.0787853e-10 0)
(0.23897235 5.9898175e-11 0)
(0.23897235 7.2104438e-11 0)
(0.23897235 3.5360071e-11 0)
(0.23897235 5.9613898e-11 0)
(0.23897235 5.347737e-11 0)
(0.23897235 1.0809716e-10 0)
(0.23897235 1.990302e-10 0)
(0.23897235 3.7923696e-10 0)
(0.23897235 8.1477985e-10 0)
(0.23897235 1.4528337e-09 0)
(0.23897234 2.7906216e-09 0)
(0.23897234 4.4941914e-09 0)
(0.23897233 8.6710169e-09 0)
(0.23897231 1.1227539e-08 0)
(0.58889396 0.00041716044 0)
(0.58952659 0.0016655671 0)
(0.58850709 0.0021864319 0)
(0.58722218 0.0020174193 0)
(0.5861601 0.0016194876 0)
(0.5852797 0.0012810104 0)
(0.58447826 0.0010503991 0)
(0.58372931 0.00088319794 0)
(0.58304761 0.00074440644 0)
(0.5824447 0.00062548822 0)
(0.5819179 0.00052762142 0)
(0.58145726 0.0004497439 0)
(0.58105275 0.00038757658 0)
(0.58069661 0.00033655405 0)
(0.58038289 0.00029352799 0)
(0.58010656 0.0002566779 0)
(0.57986316 0.00022485503 0)
(0.57964877 0.00019716736 0)
(0.57946002 0.00017287669 0)
(0.57929406 0.00015140222 0)
(0.57914843 0.00013230784 0)
(0.57902098 0.0001152621 0)
(0.57890985 0.00010000235 0)
(0.57881336 8.6313997e-05 0)
(0.57873003 7.4022717e-05 0)
(0.57865854 6.2989487e-05 0)
(0.57859767 5.3106396e-05 0)
(0.57854632 4.4290779e-05 0)
(0.57850347 3.647938e-05 0)
(0.57846814 2.9621402e-05 0)
(0.57843942 2.3671894e-05 0)
(0.57841644 1.8585161e-05 0)
(0.57839836 1.4309826e-05 0)
(0.57838441 1.0785604e-05 0)
(0.57837387 7.9426428e-06 0)
(0.57836609 5.7028279e-06 0)
(0.57836048 3.982813e-06 0)
(0.57835655 2.6977922e-06 0)
(0.57835388 1.7656006e-06 0)
(0.57835212 1.1105714e-06 0)
(0.57835101 6.6610902e-07 0)
(0.57835034 3.7615865e-07 0)
(0.57834995 1.9537766e-07 0)
(0.57834975 8.8781984e-08 0)
(0.57834966 3.0195695e-08 0)
(0.57834963 9.6233742e-10 0)
(0.57834962 -1.1547931e-08 0)
(0.57834963 -1.4516227e-08 0)
(0.57834965 -1.3027368e-08 0)
(0.57834966 -9.9633561e-09 0)
(0.57834967 -6.8560322e-09 0)
(0.57834968 -4.2558685e-09 0)
(0.57834968 -2.3741629e-09 0)
(0.57834969 -1.0966889e-09 0)
(0.57834969 -3.5073385e-10 0)
(0.57834969 7.2878174e-11 0)
(0.57834969 2.3798581e-10 0)
(0.57834969 2.856474e-10 0)
(0.57834969 2.1679584e-10 0)
(0.57834969 1.3802449e-10 0)
(0.57834969 2.156932e-11 0)
(0.57834969 -6.4039177e-11 0)
(0.57834969 -1.6412783e-10 0)
(0.57834969 -2.2001948e-10 0)
(0.57834969 -2.7935975e-10 0)
(0.57834969 -2.8869589e-10 0)
(0.57834969 -3.0898076e-10 0)
(0.57834969 -2.8178928e-10 0)
(0.57834969 -2.6240261e-10 0)
(0.57834969 -1.991595e-10 0)
(0.57834969 -1.5704204e-10 0)
(0.57834969 -7.719824e-11 0)
(0.57834969 -1.9009066e-11 0)
(0.57834969 6.3818466e-11 0)
(0.57834969 1.1827441e-10 0)
(0.57834969 1.949404e-10 0)
(0.57834969 2.4101383e-10 0)
(0.57834969 3.0629936e-10 0)
(0.57834969 3.3002733e-10 0)
(0.57834969 3.6998827e-10 0)
(0.57834969 3.7503783e-10 0)
(0.57834969 3.9573789e-10 0)
(0.57834969 3.7616478e-10 0)
(0.57834969 3.7094832e-10 0)
(0.57834969 3.3913372e-10 0)
(0.57834969 3.2120487e-10 0)
(0.57834969 2.8398711e-10 0)
(0.57834969 2.5556399e-10 0)
(0.57834969 2.47355e-10 0)
(0.57834969 2.3580391e-10 0)
(0.57834969 3.132727e-10 0)
(0.57834969 3.5744581e-10 0)
(0.57834969 6.8525176e-10 0)
(0.57834969 9.9148811e-10 0)
(0.57834968 2.0598607e-09 0)
(0.57834968 3.2258147e-09 0)
(0.57834968 6.1191783e-09 0)
(0.57834968 9.2608851e-09 0)
(0.57834965 1.6400168e-08 0)
(0.57834967 2.2893072e-08 0)
(0.80712972 0.00033085951 0)
(0.80893865 0.0015782024 0)
(0.80880626 0.0023260216 0)
(0.80839692 0.0024042705 0)
(0.80827425 0.0021522447 0)
(0.80829531 0.0018695122 0)
(0.80826009 0.0016500881 0)
(0.80812402 0.0014729775 0)
(0.80793245 0.0013084789 0)
(0.80773087 0.0011512607 0)
(0.80753738 0.0010082443 0)
(0.80735366 0.00088393598 0)
(0.8071788 0.0007773054 0)
(0.80701376 0.00068498974 0)
(0.80686033 0.00060409396 0)
(0.80671952 0.00053278602 0)
(0.80659135 0.00046981548 0)
(0.80647529 0.00041409823 0)
(0.80637063 0.00036463024 0)
(0.80627669 0.00032054113 0)
(0.80619276 0.00028111971 0)
(0.80611813 0.00024578948 0)
(0.80605206 0.00021407131 0)
(0.80599386 0.00018555986 0)
(0.80594285 0.00015991345 0)
(0.80589842 0.0001368494 0)
(0.80585997 0.00011613921 0)
(0.80582695 9.7602151e-05 0)
(0.80579884 8.1097132e-05 0)
(0.80577515 6.6512642e-05 0)
(0.80575543 5.3755295e-05 0)
(0.80573921 4.2737518e-05 0)
(0.80572609 3.3366696e-05 0)
(0.80571563 2.5536648e-05 0)
(0.80570746 1.9123511e-05 0)
(0.80570121 1.3985458e-05 0)
(0.80569652 9.9666975e-06 0)
(0.80569309 6.9037989e-06 0)
(0.80569064 4.6337156e-06 0)
(0.80568895 3.0010669e-06 0)
(0.80568781 1.864655e-06 0)
(0.80568707 1.101617e-06 0)
(0.80568662 6.0972525e-07 0)
(0.80568635 3.0728379e-07 0)
(0.80568619 1.3187811e-07 0)
(0.80568612 3.777612e-08 0)
(0.80568608 -6.8698839e-09 0)
(0.80568607 -2.370266e-08 0)
(0.80568608 -2.6227505e-08 0)
(0.80568608 -2.2466046e-08 0)
(0.80568609 -1.6784184e-08 0)
(0.80568609 -1.1376766e-08 0)
(0.8056861 -7.0259047e-09 0)
(0.8056861 -3.9336201e-09 0)
(0.8056861 -1.8914247e-09 0)
(0.8056861 -6.9354187e-10 0)
(0.8056861 -3.874857e-11 0)
(0.8056861 2.3108512e-10 0)
(0.8056861 3.0281331e-10 0)
(0.8056861 2.3940381e-10 0)
(0.8056861 1.4406899e-10 0)
(0.8056861 1.3632111e-11 0)
(0.8056861 -9.0838591e-11 0)
(0.8056861 -1.9794048e-10 0)
(0.8056861 -2.5558863e-10 0)
(0.8056861 -3.1159316e-10 0)
(0.8056861 -3.2264152e-10 0)
(0.8056861 -3.3329137e-10 0)
(0.8056861 -2.9893174e-10 0)
(0.8056861 -2.6897103e-10 0)
(0.8056861 -2.0670394e-10 0)
(0.8056861 -1.5187426e-10 0)
(0.8056861 -6.3622471e-11 0)
(0.8056861 5.2721429e-12 0)
(0.8056861 9.4536135e-11 0)
(0.8056861 1.5886359e-10 0)
(0.8056861 2.4504e-10 0)
(0.8056861 2.9919269e-10 0)
(0.8056861 3.6697085e-10 0)
(0.8056861 3.9868008e-10 0)
(0.8056861 4.482623e-10 0)
(0.8056861 4.5742087e-10 0)
(0.8056861 4.824075e-10 0)
(0.8056861 4.6420224e-10 0)
(0.8056861 4.7708563e-10 0)
(0.8056861 4.3998136e-10 0)
(0.8056861 4.5300586e-10 0)
(0.8056861 4.0237513e-10 0)
(0.8056861 4.5887944e-10 0)
(0.8056861 4.2212119e-10 0)
(0.8056861 5.9755121e-10 0)
(0.8056861 6.3938032e-10 0)
(0.8056861 1.1501832e-09 0)
(0.8056861 1.5806542e-09 0)
(0.8056861 2.9265958e-09 0)
(0.8056861 4.3522523e-09 0)
(0.80568609 7.3711999e-09 0)
(0.80568611 1.1100211e-08 0)
(0.80568608 1.7083875e-08 0)
(0.80568612 2.3185668e-08 0)
(0.93464057 0.00020203851 0)
(0.93712961 0.001060239 0)
(0.93746492 0.0016541619 0)
(0.93757055 0.0017953178 0)
(0.93813123 0.0016755898 0)
(0.93893618 0.0015081589 0)
(0.93967401 0.0013744281 0)
(0.94024405 0.0012651647 0)
(0.94068881 0.0011578829 0)
(0.94106636 0.0010478072 0)
(0.94140162 0.00094138696 0)
(0.94169718 0.00084419602 0)
(0.9419528 0.00075722054 0)
(0.94217236 0.00067900005 0)
(0.94236189 0.00060803936 0)
(0.94252666 0.00054350569 0)
(0.94267037 0.00048491659 0)
(0.94279569 0.00043180801 0)
(0.94290485 0.00038366597 0)
(0.94299984 0.00033999337 0)
(0.94308242 0.00030035538 0)
(0.94315406 0.00026438029 0)
(0.94321603 0.00023173985 0)
(0.94326941 0.0002021393 0)
(0.94331513 0.00017531458 0)
(0.94335402 0.00015103542 0)
(0.94338684 0.00012910548 0)
(0.94341424 0.00010936238 0)
(0.94343684 9.1673966e-05 0)
(0.94345523 7.5933576e-05 0)
(0.94346995 6.20518e-05 0)
(0.94348152 4.9947257e-05 0)
(0.94349042 3.9536497e-05 0)
(0.94349712 3.0725412e-05 0)
(0.94350203 2.340357e-05 0)
(0.94350553 1.7441952e-05 0)
(0.94350794 1.2695033e-05 0)
(0.94350954 9.0053529e-06 0)
(0.94351056 6.2109633e-06 0)
(0.94351117 4.1524993e-06 0)
(0.94351151 2.680869e-06 0)
(0.94351168 1.6621223e-06 0)
(0.94351175 9.8162751e-07 0)
(0.94351177 5.4470017e-07 0)
(0.94351175 2.7696941e-07 0)
(0.94351173 1.2185804e-07 0)
(0.94351171 3.8716274e-08 0)
(0.94351169 -1.23749e-09 0)
(0.94351167 -1.6785658e-08 0)
(0.94351166 -1.9915947e-08 0)
(0.94351165 -1.7362635e-08 0)
(0.94351165 -1.314144e-08 0)
(0.94351165 -8.8999833e-09 0)
(0.94351165 -5.5774016e-09 0)
(0.94351165 -3.1081744e-09 0)
(0.94351165 -1.5884982e-09 0)
(0.94351165 -6.0514723e-10 0)
(0.94351165 -1.7621156e-10 0)
(0.94351165 8.4737972e-11 0)
(0.94351165 7.5014084e-11 0)
(0.94351165 9.1728668e-11 0)
(0.94351165 -3.0884497e-11 0)
(0.94351165 -5.5064112e-11 0)
(0.94351165 -1.7514243e-10 0)
(0.94351165 -1.7011269e-10 0)
(0.94351165 -2.5416209e-10 0)
(0.94351165 -2.0915524e-10 0)
(0.94351165 -2.5618403e-10 0)
(0.94351165 -1.7907952e-10 0)
(0.94351165 -1.988286e-10 0)
(0.94351165 -9.7912225e-11 0)
(0.94351165 -9.8393484e-11 0)
(0.94351165 1.0729263e-11 0)
(0.94351165 1.9718722e-11 0)
(0.94351165 1.3386287e-10 0)
(0.94351165 1.4132531e-10 0)
(0.94351165 2.5119344e-10 0)
(0.94351165 2.4814431e-10 0)
(0.94351165 3.4743002e-10 0)
(0.94351165 3.3062066e-10 0)
(0.94351165 4.1463389e-10 0)
(0.94351165 3.7787076e-10 0)
(0.94351165 4.4658709e-10 0)
(0.94351165 3.9224749e-10 0)
(0.94351165 4.5213328e-10 0)
(0.94351165 3.8296315e-10 0)
(0.94351165 4.5280728e-10 0)
(0.94351165 3.8231454e-10 0)
(0.94351165 4.9491149e-10 0)
(0.94351165 4.4528983e-10 0)
(0.94351165 6.6772029e-10 0)
(0.94351165 7.228625e-10 0)
(0.94351165 1.264052e-09 0)
(0.94351165 1.7082782e-09 0)
(0.94351165 2.8985684e-09 0)
(0.94351165 4.0920784e-09 0)
(0.94351164 6.3142239e-09 0)
(0.94351166 9.078491e-09 0)
(0.94351163 1.2949621e-08 0)
(0.94351168 1.7032945e-08 0)
(0.99296427 6.709494e-05 0)
(0.99576061 0.00036769855 0)
(0.99626945 0.00058789318 0)
(0.99656466 0.00065073389 0)
(0.99741932 0.00061649058 0)
(0.99860211 0.00056154497 0)
(0.99974106 0.0005176964 0)
(1.0006985 0.00048249999 0)
(1.0015106 0.00044731944 0)
(1.0022394 0.00040994863 0)
(1.002911 0.00037276151 0)
(1.0035252 0.00033805971 0)
(1.0040789 0.00030643092 0)
(1.0045747 0.00027746956 0)
(1.0050187 0.0002507176 0)
(1.0054169 0.00022596174 0)
(1.0057738 0.00020312038 0)
(1.0060928 0.00018210844 0)
(1.0063771 0.00016280675 0)
(1.0066298 0.00014508751 0)
(1.0068537 0.00012883475 0)
(1.0070513 0.00011394641 0)
(1.0072252 0.0001003285 0)
(1.0073773 8.7892143e-05 0)
(1.0075098 7.6553774e-05 0)
(1.0076244 6.6237278e-05 0)
(1.0077228 5.6875271e-05 0)
(1.0078066 4.8410078e-05 0)
(1.0078773 4.079331e-05 0)
(1.0079362 3.398498e-05 0)
(1.0079847 2.7951045e-05 0)
(1.0080241 2.266047e-05 0)
(1.0080555 1.8081455e-05 0)
(1.0080802 1.4178185e-05 0)
(1.0080992 1.0908223e-05 0)
(1.0081135 8.221421e-06 0)
(1.008124 6.060217e-06 0)
(1.0081316 4.3613199e-06 0)
(1.0081369 3.0583757e-06 0)
(1.0081405 2.0850496e-06 0)
(1.0081429 1.3781092e-06 0)
(1.0081444 8.7982294e-07 0)
(1.0081453 5.3981042e-07 0)
(1.0081458 3.1585696e-07 0)
(1.0081461 1.7411466e-07 0)
(1.0081462 8.8408126e-08 0)
(1.0081463 3.9458206e-08 0)
(1.0081463 1.3472011e-08 0)
(1.0081463 1.0544161e-09 0)
(1.0081463 -3.876071e-09 0)
(1.0081463 -4.9807167e-09 0)
(1.0081463 -4.4299355e-09 0)
(1.0081462 -3.3426708e-09 0)
(1.0081462 -2.2827508e-09 0)
(1.0081462 -1.4245305e-09 0)
(1.0081462 -8.4335392e-10 0)
(1.0081462 -4.6290081e-10 0)
(1.0081462 -2.7591487e-10 0)
(1.0081462 -1.6373639e-10 0)
(1.0081462 -1.4157536e-10 0)
(1.0081462 -1.2726021e-10 0)
(1.0081462 -1.4821903e-10 0)
(1.0081462 -1.4272096e-10 0)
(1.0081462 -1.5736853e-10 0)
(1.0081462 -1.423901e-10 0)
(1.0081462 -1.3948311e-10 0)
(1.0081462 -1.0087399e-10 0)
(1.0081462 -8.33186e-11 0)
(1.0081462 -4.2264411e-11 0)
(1.0081462 -1.8901732e-11 0)
(1.0081462 3.4909353e-11 0)
(1.0081462 5.8366536e-11 0)
(1.0081462 1.0361084e-10 0)
(1.0081462 1.2472491e-10 0)
(1.0081462 1.7039385e-10 0)
(1.0081462 1.8969658e-10 0)
(1.0081462 2.2259746e-10 0)
(1.0081462 2.3237124e-10 0)
(1.0081462 2.6215861e-10 0)
(1.0081462 2.6229536e-10 0)
(1.0081462 2.7844392e-10 0)
(1.0081462 2.6900252e-10 0)
(1.0081462 2.832394e-10 0)
(1.0081462 2.6760708e-10 0)
(1.0081462 2.7560132e-10 0)
(1.0081462 2.5928972e-10 0)
(1.0081462 2.8515232e-10 0)
(1.0081462 2.8449584e-10 0)
(1.0081462 3.3997065e-10 0)
(1.0081462 3.7457331e-10 0)
(1.0081462 5.0773674e-10 0)
(1.0081462 6.5602658e-10 0)
(1.0081462 9.98548e-10 0)
(1.0081462 1.3727301e-09 0)
(1.0081462 2.0095487e-09 0)
(1.0081462 2.5573544e-09 0)
(1.0081462 3.4991794e-09 0)
(1.0081463 4.436396e-09 0)
(1.0081462 5.8288118e-09 0)
(1.0081463 7.4866334e-09 0)
(0.99296415 -6.7092115e-05 0)
(0.99576055 -0.00036769029 0)
(0.99626939 -0.00058789588 0)
(0.99656456 -0.00065075605 0)
(0.99741923 -0.00061652165 0)
(0.99860203 -0.00056157705 0)
(0.99974098 -0.00051772821 0)
(1.0006984 -0.0004825351 0)
(1.0015105 -0.00044735664 0)
(1.0022393 -0.00040998605 0)
(1.0029109 -0.00037279606 0)
(1.0035252 -0.00033809136 0)
(1.0040789 -0.00030645876 0)
(1.0045746 -0.00027749396 0)
(1.0050186 -0.00025073725 0)
(1.0054169 -0.00022597687 0)
(1.0057737 -0.00020313042 0)
(1.0060927 -0.0001821145 0)
(1.0063771 -0.00016280905 0)
(1.0066297 -0.00014508744 0)
(1.0068536 -0.0001288327 0)
(1.0070512 -0.00011394361 0)
(1.0072251 -0.0001003252 0)
(1.0073773 -8.7889028e-05 0)
(1.0075097 -7.6550517e-05 0)
(1.0076243 -6.6233816e-05 0)
(1.0077227 -5.6870765e-05 0)
(1.0078065 -4.8403904e-05 0)
(1.0078772 -4.0784477e-05 0)
(1.0079361 -3.3972805e-05 0)
(1.0079846 -2.7934915e-05 0)
(1.008024 -2.2640055e-05 0)
(1.0080554 -1.8056746e-05 0)
(1.0080801 -1.4149315e-05 0)
(1.0080991 -1.0875788e-05 0)
(1.0081135 -8.1859592e-06 0)
(1.008124 -6.0227274e-06 0)
(1.0081316 -4.3225281e-06 0)
(1.0081369 -3.0194876e-06 0)
(1.0081405 -2.0468154e-06 0)
(1.0081429 -1.3416337e-06 0)
(1.0081444 -8.4565765e-07 0)
(1.0081453 -5.0889835e-07 0)
(1.0081458 -2.8841953e-07 0)
(1.0081461 -1.5064828e-07 0)
(1.0081462 -6.8651755e-08 0)
(1.0081463 -2.3517177e-08 0)
(1.0081463 -8.8280274e-10 0)
(1.0081463 8.3693128e-09 0)
(1.0081463 1.0872073e-08 0)
(1.0081463 9.7709708e-09 0)
(1.0081463 7.7168331e-09 0)
(1.0081463 5.2610892e-09 0)
(1.0081462 3.4411306e-09 0)
(1.0081462 1.8266455e-09 0)
(1.0081462 9.6202476e-10 0)
(1.0081462 1.7145005e-10 0)
(1.0081462 -3.5186059e-11 0)
(1.0081462 -3.5207579e-10 0)
(1.0081462 -2.7068228e-10 0)
(1.0081462 -4.1706286e-10 0)
(1.0081462 -2.2593818e-10 0)
(1.0081462 -3.1254304e-10 0)
(1.0081462 -9.5604441e-11 0)
(1.0081462 -1.7971756e-10 0)
(1.0081462 4.2951982e-11 0)
(1.0081462 -4.6825651e-11 0)
(1.0081462 1.4972522e-10 0)
(1.0081462 4.2135803e-11 0)
(1.0081462 2.2905874e-10 0)
(1.0081462 1.1120963e-10 0)
(1.0081462 2.7682476e-10 0)
(1.0081462 1.3840005e-10 0)
(1.0081462 2.9522007e-10 0)
(1.0081462 1.4844886e-10 0)
(1.0081462 2.891358e-10 0)
(1.0081462 1.2329999e-10 0)
(1.0081462 2.6221889e-10 0)
(1.0081462 9.205863e-11 0)
(1.0081462 2.1946727e-10 0)
(1.0081462 3.800393e-11 0)
(1.0081462 1.7581735e-10 0)
(1.0081462 9.9470431e-12 0)
(1.0081462 1.4877665e-10 0)
(1.0081462 -1.5712006e-11 0)
(1.0081462 1.4498679e-10 0)
(1.0081462 -3.2623815e-12 0)
(1.0081462 1.7845623e-10 0)
(1.0081462 3.9955075e-11 0)
(1.0081462 2.7326019e-10 0)
(1.0081462 1.8313012e-10 0)
(1.0081462 5.0358743e-10 0)
(1.0081462 4.4416996e-10 0)
(1.0081462 7.6153328e-10 0)
(1.0081462 5.2410683e-10 0)
(1.0081463 3.7605432e-10 0)
(1.0081462 -2.0814588e-10 0)
(1.0081463 -1.2727672e-09 0)
(1.0081462 -2.428703e-09 0)
(1.0081463 -3.4209106e-09 0)
(0.93464048 -0.00020203708 0)
(0.93712947 -0.0010602439 0)
(0.93746477 -0.0016541771 0)
(0.93757039 -0.0017953399 0)
(0.93813108 -0.0016756148 0)
(0.93893601 -0.0015081843 0)
(0.93967383 -0.0013744559 0)
(0.94024385 -0.001265195 0)
(0.94068861 -0.0011579152 0)
(0.94106615 -0.0010478388 0)
(0.94140141 -0.00094141731 0)
(0.94169696 -0.00084422399 0)
(0.94195258 -0.00075724629 0)
(0.94217213 -0.00067902251 0)
(0.94236166 -0.00060805841 0)
(0.94252643 -0.00054352055 0)
(0.94267015 -0.00048492779 0)
(0.94279546 -0.00043181557 0)
(0.94290463 -0.00038367086 0)
(0.94299962 -0.00033999593 0)
(0.94308221 -0.00030035665 0)
(0.94315386 -0.00026438065 0)
(0.94321584 -0.00023174001 0)
(0.94326921 -0.00020213925 0)
(0.94331494 -0.00017531444 0)
(0.94335384 -0.00015103466 0)
(0.94338666 -0.00012910365 0)
(0.94341406 -0.00010935867 0)
(0.94343668 -9.1667727e-05 0)
(0.94345507 -7.5924173e-05 0)
(0.9434698 -6.2038811e-05 0)
(0.94348137 -4.993053e-05 0)
(0.94349029 -3.9516023e-05 0)
(0.94349699 -3.0701556e-05 0)
(0.94350191 -2.3376717e-05 0)
(0.94350542 -1.7412858e-05 0)
(0.94350784 -1.2664303e-05 0)
(0.94350946 -8.9739389e-06 0)
(0.94351049 -6.1795368e-06 0)
(0.94351112 -4.1220352e-06 0)
(0.94351147 -2.6519266e-06 0)
(0.94351165 -1.6354925e-06 0)
(0.94351173 -9.5759068e-07 0)
(0.94351175 -5.2377961e-07 0)
(0.94351175 -2.590808e-07 0)
(0.94351173 -1.0718732e-07 0)
(0.94351171 -2.7086129e-08 0)
(0.9435117 1.0023122e-08 0)
(0.94351169 2.3345637e-08 0)
(0.94351168 2.4456897e-08 0)
(0.94351168 2.0461803e-08 0)
(0.94351168 1.4966875e-08 0)
(0.94351167 9.9633333e-09 0)
(0.94351168 5.9457957e-09 0)
(0.94351167 3.1729244e-09 0)
(0.94351168 1.2916362e-09 0)
(0.94351167 2.6169216e-10 0)
(0.94351168 -3.2461249e-10 0)
(0.94351167 -5.1023158e-10 0)
(0.94351168 -5.9877198e-10 0)
(0.94351167 -4.8818137e-10 0)
(0.94351168 -4.1468475e-10 0)
(0.94351167 -2.3714852e-10 0)
(0.94351168 -1.6190422e-10 0)
(0.94351167 -5.4462589e-13 0)
(0.94351168 5.6121873e-11 0)
(0.94351167 1.776376e-10 0)
(0.94351168 1.9038533e-10 0)
(0.94351167 2.8242708e-10 0)
(0.94351168 2.7209815e-10 0)
(0.94351167 3.285497e-10 0)
(0.94351168 2.7575841e-10 0)
(0.94351167 3.0727757e-10 0)
(0.94351168 2.4053635e-10 0)
(0.94351167 2.5148563e-10 0)
(0.94351168 1.5599018e-10 0)
(0.94351168 1.5889839e-10 0)
(0.94351168 7.1302665e-11 0)
(0.94351168 7.3156661e-11 0)
(0.94351168 -1.8890084e-11 0)
(0.94351168 -1.0928605e-11 0)
(0.94351168 -8.1759271e-11 0)
(0.94351168 -6.8137805e-11 0)
(0.94351168 -1.3167657e-10 0)
(0.94351168 -1.0305544e-10 0)
(0.94351168 -1.2767452e-10 0)
(0.94351168 -8.4478554e-11 0)
(0.94351168 -8.5210682e-11 0)
(0.94351168 -3.3656648e-11 0)
(0.94351168 1.8926242e-11 0)
(0.94351168 6.3538314e-11 0)
(0.94351168 1.2850391e-10 0)
(0.94351168 3.2747601e-11 0)
(0.94351168 -1.0511592e-10 0)
(0.94351168 -8.1520662e-10 0)
(0.94351169 -1.7497205e-09 0)
(0.94351167 -3.6716088e-09 0)
(0.9435117 -6.4975567e-09 0)
(0.94351166 -1.0154464e-08 0)
(0.94351172 -1.3918425e-08 0)
(0.80712956 -0.00033085901 0)
(0.80893851 -0.0015781985 0)
(0.80880608 -0.002326027 0)
(0.80839672 -0.002404286 0)
(0.80827405 -0.002152265 0)
(0.80829511 -0.0018695313 0)
(0.80825988 -0.001650107 0)
(0.8081238 -0.0014729965 0)
(0.80793221 -0.0013084995 0)
(0.80773063 -0.0011512813 0)
(0.80753712 -0.0010082647 0)
(0.8073534 -0.0008839545 0)
(0.80717853 -0.00077732251 0)
(0.80701349 -0.00068500433 0)
(0.80686005 -0.00060410672 0)
(0.80671924 -0.00053279614 0)
(0.80659107 -0.0004698238 0)
(0.80647501 -0.00041410426 0)
(0.80637035 -0.00036463496 0)
(0.80627642 -0.00032054436 0)
(0.8061925 -0.00028112248 0)
(0.80611787 -0.00024579161 0)
(0.8060518 -0.00021407349 0)
(0.80599361 -0.00018556167 0)
(0.80594261 -0.00015991509 0)
(0.80589818 -0.00013685018 0)
(0.80585974 -0.00011613892 0)
(0.80582673 -9.7600072e-05 0)
(0.80579863 -8.1092961e-05 0)
(0.80577495 -6.6505967e-05 0)
(0.80575524 -5.3745986e-05 0)
(0.80573903 -4.2725625e-05 0)
(0.80572592 -3.3352331e-05 0)
(0.80571548 -2.5520279e-05 0)
(0.80570733 -1.9105424e-05 0)
(0.80570109 -1.3966353e-05 0)
(0.80569641 -9.9468902e-06 0)
(0.805693 -6.8841005e-06 0)
(0.80569057 -4.6143746e-06 0)
(0.80568889 -2.9828598e-06 0)
(0.80568777 -1.8477287e-06 0)
(0.80568705 -1.0866107e-06 0)
(0.8056866 -5.965225e-07 0)
(0.80568634 -2.9628438e-07 0)
(0.8056862 -1.2277582e-07 0)
(0.80568613 -3.0908992e-08 0)
(0.80568611 1.2265379e-08 0)
(0.8056861 2.7541695e-08 0)
(0.80568611 2.8984823e-08 0)
(0.80568611 2.4068154e-08 0)
(0.80568612 1.778343e-08 0)
(0.80568613 1.1665894e-08 0)
(0.80568613 7.1179846e-09 0)
(0.80568614 3.6258552e-09 0)
(0.80568614 1.6140874e-09 0)
(0.80568614 1.7454116e-10 0)
(0.80568614 -3.1402637e-10 0)
(0.80568614 -7.4494845e-10 0)
(0.80568614 -6.3688818e-10 0)
(0.80568614 -7.1406957e-10 0)
(0.80568614 -4.0739043e-10 0)
(0.80568614 -4.0957887e-10 0)
(0.80568614 -9.4241742e-11 0)
(0.80568614 -1.1908218e-10 0)
(0.80568614 1.7163134e-10 0)
(0.80568614 1.0029437e-10 0)
(0.80568614 3.3408537e-10 0)
(0.80568614 2.2449208e-10 0)
(0.80568614 4.2342516e-10 0)
(0.80568614 2.7414576e-10 0)
(0.80568614 4.2084964e-10 0)
(0.80568614 2.3388299e-10 0)
(0.80568614 3.6553381e-10 0)
(0.80568614 1.5521148e-10 0)
(0.80568614 2.566864e-10 0)
(0.80568614 2.7500302e-11 0)
(0.80568614 1.3722848e-10 0)
(0.80568614 -8.9260858e-11 0)
(0.80568614 1.7517913e-11 0)
(0.80568614 -1.9905801e-10 0)
(0.80568614 -6.5259104e-11 0)
(0.80568614 -2.6675663e-10 0)
(0.80568614 -1.3815151e-10 0)
(0.80568614 -3.1829298e-10 0)
(0.80568614 -1.5696793e-10 0)
(0.80568614 -3.0194519e-10 0)
(0.80568614 -1.3156021e-10 0)
(0.80568614 -2.4084529e-10 0)
(0.80568614 -5.2495719e-11 0)
(0.80568614 -1.2354604e-10 0)
(0.80568614 -2.7522536e-12 0)
(0.80568614 -1.1329213e-10 0)
(0.80568614 -2.4364404e-10 0)
(0.80568614 -6.8064661e-10 0)
(0.80568614 -1.6294019e-09 0)
(0.80568615 -2.8748153e-09 0)
(0.80568614 -5.7968257e-09 0)
(0.80568615 -9.457553e-09 0)
(0.80568612 -1.5434435e-08 0)
(0.80568616 -2.1669703e-08 0)
(0.58889382 -0.00041715668 0)
(0.58952646 -0.0016655644 0)
(0.58850691 -0.0021864318 0)
(0.58722199 -0.0020174254 0)
(0.58615993 -0.0016195021 0)
(0.58527954 -0.0012810307 0)
(0.58447809 -0.001050418 0)
(0.58372913 -0.00088321249 0)
(0.58304742 -0.00074441678 0)
(0.58244451 -0.00062549681 0)
(0.5819177 -0.00052762826 0)
(0.58145705 -0.0004497491 0)
(0.58105253 -0.00038757931 0)
(0.58069639 -0.0003365552 0)
(0.58038266 -0.00029352769 0)
(0.58010634 -0.00025667704 0)
(0.57986294 -0.00022485328 0)
(0.57964855 -0.00019716513 0)
(0.5794598 -0.0001728737 0)
(0.57929384 -0.00015139898 0)
(0.57914821 -0.00013230423 0)
(0.57902078 -0.00011525851 0)
(0.57890965 -9.9998584e-05 0)
(0.57881316 -8.6310252e-05 0)
(0.57872984 -7.4018708e-05 0)
(0.57865835 -6.2985197e-05 0)
(0.57859749 -5.3101536e-05 0)
(0.57854615 -4.4285253e-05 0)
(0.57850331 -3.6473024e-05 0)
(0.57846799 -2.9614165e-05 0)
(0.57843928 -2.3663818e-05 0)
(0.57841631 -1.8576287e-05 0)
(0.57839825 -1.4300386e-05 0)
(0.57838431 -1.0775715e-05 0)
(0.57837379 -7.9326376e-06 0)
(0.57836601 -5.6928057e-06 0)
(0.57836042 -3.9731342e-06 0)
(0.5783565 -2.6885233e-06 0)
(0.57835384 -1.7570962e-06 0)
(0.57835209 -1.1028104e-06 0)
(0.57835099 -6.5936874e-07 0)
(0.57835033 -3.7030897e-07 0)
(0.57834996 -1.9062714e-07 0)
(0.57834976 -8.4848427e-08 0)
(0.57834968 -2.7270362e-08 0)
(0.57834965 1.350455e-09 0)
(0.57834965 1.3122682e-08 0)
(0.57834966 1.5589151e-08 0)
(0.57834968 1.3547574e-08 0)
(0.57834969 1.0246809e-08 0)
(0.5783497 6.8160064e-09 0)
(0.57834971 4.1789182e-09 0)
(0.57834972 2.1200921e-09 0)
(0.57834972 9.0126218e-10 0)
(0.57834972 2.7840608e-11 0)
(0.57834972 -2.8758093e-10 0)
(0.57834972 -5.4732235e-10 0)
(0.57834972 -4.9147844e-10 0)
(0.57834972 -5.2109248e-10 0)
(0.57834972 -3.2304156e-10 0)
(0.57834972 -2.9285227e-10 0)
(0.57834972 -8.9590488e-11 0)
(0.57834972 -8.064554e-11 0)
(0.57834972 1.1308731e-10 0)
(0.57834972 9.8017595e-11 0)
(0.57834972 2.4584283e-10 0)
(0.57834972 1.9667811e-10 0)
(0.57834972 3.1872562e-10 0)
(0.57834972 2.4003135e-10 0)
(0.57834972 3.1664195e-10 0)
(0.57834972 2.0421219e-10 0)
(0.57834972 2.7017324e-10 0)
(0.57834972 1.3991523e-10 0)
(0.57834972 1.7847065e-10 0)
(0.57834972 3.2351401e-11 0)
(0.57834972 8.2943832e-11 0)
(0.57834972 -5.8447708e-11 0)
(0.57834972 -1.685252e-11 0)
(0.57834972 -1.6079126e-10 0)
(0.57834972 -9.9825547e-11 0)
(0.57834972 -2.2587489e-10 0)
(0.57834972 -1.6396294e-10 0)
(0.57834972 -2.7532994e-10 0)
(0.57834972 -1.7915825e-10 0)
(0.57834972 -2.654513e-10 0)
(0.57834972 -1.5728195e-10 0)
(0.57834972 -2.3444431e-10 0)
(0.57834972 -8.4904432e-11 0)
(0.57834972 -1.5737509e-10 0)
(0.57834972 -7.4273689e-15 0)
(0.57834972 -1.3802852e-10 0)
(0.57834972 -3.4654512e-11 0)
(0.57834972 -4.6048928e-10 0)
(0.57834972 -6.9881343e-10 0)
(0.57834972 -1.7379774e-09 0)
(0.57834972 -2.7156153e-09 0)
(0.57834971 -5.7597713e-09 0)
(0.57834972 -8.7433242e-09 0)
(0.57834969 -1.6120699e-08 0)
(0.57834971 -2.2911044e-08 0)
(0.24881283 -0.00032983673 0)
(0.24809238 -0.00089906203 0)
(0.24654696 -0.0009322513 0)
(0.24508937 -0.00067725291 0)
(0.24398444 -0.00043105154 0)
(0.24316935 -0.00028720785 0)
(0.24253308 -0.00021484586 0)
(0.24200945 -0.00017085305 0)
(0.24157102 -0.00013673611 0)
(0.24120427 -0.00010984136 0)
(0.2408969 -9.0270519e-05 0)
(0.24063657 -7.6517749e-05 0)
(0.24041306 -6.6355044e-05 0)
(0.24021912 -5.8163896e-05 0)
(0.24004978 -5.1172644e-05 0)
(0.23990148 -4.509274e-05 0)
(0.23977137 -3.9774896e-05 0)
(0.23965707 -3.5088362e-05 0)
(0.23955665 -3.0916693e-05 0)
(0.23946847 -2.7176125e-05 0)
(0.23939119 -2.3808965e-05 0)
(0.23932363 -2.0774107e-05 0)
(0.23926479 -1.8036143e-05 0)
(0.23921375 -1.5565399e-05 0)
(0.23916975 -1.3336184e-05 0)
(0.23913207 -1.1328773e-05 0)
(0.23910006 -9.5273158e-06 0)
(0.23907314 -7.9201322e-06 0)
(0.23905075 -6.4976682e-06 0)
(0.23903238 -5.2520214e-06 0)
(0.23901751 -4.1754425e-06 0)
(0.23900569 -3.2593937e-06 0)
(0.23899645 -2.4939684e-06 0)
(0.23898938 -1.8670867e-06 0)
(0.23898408 -1.3652066e-06 0)
(0.2389802 -9.7290046e-07 0)
(0.23897744 -6.7447585e-07 0)
(0.23897553 -4.5349347e-07 0)
(0.23897425 -2.9480813e-07 0)
(0.23897342 -1.8409936e-07 0)
(0.23897291 -1.0976198e-07 0)
(0.23897261 -6.1506424e-08 0)
(0.23897245 -3.1845942e-08 0)
(0.23897237 -1.4372283e-08 0)
(0.23897233 -4.9916902e-09 0)
(0.23897233 1.0274534e-10 0)
(0.23897233 2.1217338e-09 0)
(0.23897234 2.6216159e-09 0)
(0.23897235 2.1460865e-09 0)
(0.23897236 1.6415861e-09 0)
(0.23897236 9.6532171e-10 0)
(0.23897236 6.1130702e-10 0)
(0.23897237 1.7785207e-10 0)
(0.23897237 7.6275587e-11 0)
(0.23897237 -1.4845675e-10 0)
(0.23897237 -9.2729281e-11 0)
(0.23897237 -2.1751774e-10 0)
(0.23897237 -1.0165366e-10 0)
(0.23897237 -1.7323983e-10 0)
(0.23897237 -2.4166506e-11 0)
(0.23897237 -9.7572008e-11 0)
(0.23897237 4.754495e-11 0)
(0.23897237 -3.0635315e-11 0)
(0.23897237 1.061486e-10 0)
(0.23897237 1.178601e-11 0)
(0.23897237 1.3619665e-10 0)
(0.23897237 4.3765333e-11 0)
(0.23897237 1.5979605e-10 0)
(0.23897237 4.5748062e-11 0)
(0.23897237 1.4338758e-10 0)
(0.23897237 2.7998703e-11 0)
(0.23897237 1.2452668e-10 0)
(0.23897237 -8.9941887e-12 0)
(0.23897237 7.8769017e-11 0)
(0.23897237 -4.694392e-11 0)
(0.23897237 5.0874983e-11 0)
(0.23897237 -8.0089607e-11 0)
(0.23897237 1.347393e-11 0)
(0.23897237 -1.073478e-10 0)
(0.23897237 -5.2327149e-12 0)
(0.23897237 -1.3076628e-10 0)
(0.23897237 -3.1603219e-11 0)
(0.23897237 -1.3847918e-10 0)
(0.23897237 -2.3424004e-11 0)
(0.23897237 -1.3246582e-10 0)
(0.23897237 -1.5822478e-11 0)
(0.23897237 -1.1060999e-10 0)
(0.23897237 2.3719678e-11 0)
(0.23897237 -8.254727e-11 0)
(0.23897237 4.2247654e-11 0)
(0.23897237 -9.1899532e-11 0)
(0.23897237 -2.0062991e-11 0)
(0.23897237 -3.191665e-10 0)
(0.23897237 -3.9319598e-10 0)
(0.23897236 -9.0679712e-10 0)
(0.23897236 -1.4717906e-09 0)
(0.23897236 -2.9253249e-09 0)
(0.23897235 -4.5338195e-09 0)
(0.23897234 -8.8940261e-09 0)
(0.23897233 -1.1563706e-08 0)
)
;

boundaryField
{
    top
    {