/*--------------------------------*- C++ -*----------------------------------*\
| =========                 |                                                 |
| \\      /  F ield         | OpenFOAM: The Open Source CFD Toolbox           |
|  \\    /   O peration     | Version:  v1812                                 |
|   \\  /    A nd           | Web:      www.OpenFOAM.com                      |
|    \\/     M anipulation  |                                                 |
\*---------------------------------------------------------------------------*/
FoamFile
{
    version     2.0;
    format      ascii;
    class       volScalarField;
    location    "10.05";
    object      p;
}
// * * * * * * * * * * * * * * * * * * * * * * * * * * * * * * * * * * * * * //

dimensions      [0 2 -2 0 0 0 0];


internalField   nonuniform List<scalar> 
1000
(
1.6755773
1.5544994
1.4585189
1.3948628
1.3463533
1.3038813
1.266346
1.2341743
1.2067739
1.1829364
1.161542
1.1417782
1.1231011
1.1051615
1.0877462
1.070732
1.0540511
1.0376669
1.0215588
1.0057128
0.99011786
0.97476275
0.95963604
0.94472579
0.93001979
0.9155058
0.90117184
0.88700635
0.8729983
0.85913731
0.84541359
0.83181804
0.81834213
0.80497794
0.7917181
0.77855574
0.76548444
0.75249825
0.7395916
0.72675929
0.71399649
0.70129867
0.68866162
0.67608138
0.66355429
0.65107689
0.63864596
0.62625849
0.61391166
0.60160282
0.58932951
0.5770894
0.56488035
0.55270034
0.54054749
0.52842004
0.51631634
0.50423485
0.4921741
0.48013275
0.46810951
0.45610321
0.44411272
0.43213704
0.42017521
0.40822632
0.39628955
0.38436409
0.37244921
0.36054418
0.34864836
0.33676114
0.32488196
0.31301031
0.30114572
0.28928774
0.27743596
0.26558996
0.25374936
0.24191377
0.23008288
0.21825637
0.20643399
0.1946155
0.18280067
0.17098928
0.1591811
0.14737593
0.13557355
0.12377378
0.11197645
0.10018144
0.088388597
0.076597814
0.064808937
0.053021856
0.041236457
0.029452604
0.017670336
0.0058891666
1.5583576
1.5034285
1.442476
1.3909083
1.3476383
1.30867
1.2730837
1.2413111
1.2133502
1.1885724
1.1661705
1.1454691
1.1259875
1.1073994
1.0894858
1.0721011
1.0551493
1.0385679
1.0223152
1.0063617
0.99068468
0.97526513
0.96008628
0.9451326
0.93038955
0.91584333
0.90148093
0.88729007
0.87325924
0.85937767
0.84563531
0.83202279
0.81853143
0.80515313
0.79188036
0.77870615
0.76562398
0.75262779
0.73971194
0.72687114
0.71410051
0.70139544
0.68875168
0.67616524
0.66363238
0.65114964
0.63871375
0.62632168
0.61397057
0.60165775
0.58938074
0.57713719
0.56492493
0.55274193
0.5405863
0.52845625
0.51635013
0.50426638
0.49220354
0.48016023
0.46813518
0.45612717
0.4441351
0.43215793
0.4201947
0.40824452
0.39630653
0.38437995
0.37246401
0.36055802
0.34866129
0.33677322
0.32489323
0.31302082
0.30115552
0.28929687
0.27744447
0.26559789
0.25375675
0.24192068
0.23008932
0.21826237
0.20643955
0.19462064
0.18280542
0.17099366
0.15918515
0.14737967
0.13557701
0.12377697
0.11197937
0.1001841
0.088391001
0.076599983
0.064810894
0.05302361
0.041238038
0.029453927
0.017671493
0.00588969
1.4975364
1.4713613
1.4329644
1.3918315
1.3527462
1.3161554
1.2818578
1.2501403
1.2212842
1.1951831
1.1714291
1.1495391
1.1290893
1.1097484
1.0912682
1.0734672
1.0562153
1.0394197
1.0230137
1.0069486
0.99118819
0.97570449
0.96047461
0.9454791
0.93070083
0.91612434
0.90173552
0.88752136
0.87346983
0.85956978
0.84581086
0.83218348
0.81867873
0.80528835
0.79200468
0.77882059
0.76572946
0.75272512
0.73980185
0.72695429
0.71417746
0.70146673
0.68881777
0.67622654
0.66368928
0.65120248
0.63876285
0.62636732
0.61401302
0.60169726
0.58941752
0.57717144
0.56495683
0.55277165
0.54061398
0.52848205
0.51637417
0.50428879
0.49222443
0.48017972
0.46815337
0.45614415
0.44415095
0.43217272
0.42020849
0.40825737
0.39631852
0.38439113
0.37247445
0.36056776
0.3486704
0.33678174
0.32490119
0.31302825
0.30116243
0.28930331
0.27745045
0.26560347
0.25376196
0.24192555
0.23009387
0.21826663
0.20644353
0.19462433
0.18280882
0.1709968
0.15918805
0.14738236
0.13557951
0.1237793
0.11198154
0.1001861
0.088392815
0.076601627
0.064812362
0.053024932
0.041239181
0.029454889
0.017672081
0.0058900437
1.4681278
1.4526298
1.4257598
1.3918359
1.3560349
1.3210836
1.2877817
1.2564287
1.227298
1.2005065
1.175919
1.1532268
1.1320749
1.1121462
1.0931879
1.0750083
1.0574625
1.0404415
1.0238629
1.0076649
0.99180094
0.97623518
0.9609392
0.94588951
0.93106607
0.91645133
0.9020297
0.88778708
0.87371065
0.85978865
0.84601028
0.83236559
0.81884536
0.80544109
0.79214492
0.77894954
0.76584819
0.7528346
0.7399029
0.72704767
0.71426384
0.7015467
0.68889187
0.67629525
0.66375303
0.65126166
0.63881782
0.62641841
0.61406052
0.60174144
0.58945863
0.57720971
0.56499248
0.55280485
0.54064491
0.52851086
0.51640102
0.50431381
0.49224776
0.48020148
0.46817366
0.45616308
0.44416862
0.43218921
0.42022388
0.40827172
0.3963319
0.3844036
0.37248609
0.36057863
0.34868055
0.33679123
0.32491007
0.31303654
0.30117017
0.28931052
0.27745717
0.26560973
0.2537678
0.24193101
0.230099
0.21827144
0.20644803
0.19462855
0.18281275
0.17100046
0.15919144
0.14738552
0.13558246
0.12378208
0.11198414
0.10018855
0.088395078
0.076603732
0.064814251
0.053026688
0.04124066
0.029456281
0.017672987
0.0058909717
1.4553963
1.4434429
1.4212086
1.390921
1.3570598
1.3230643
1.2903667
1.2593611
1.2302638
1.2032519
1.1783248
1.1552753
1.1337937
1.1135761
1.0943725
1.0759903
1.0582814
1.0411309
1.0244501
1.008171
0.99224197
0.97662341
0.96128388
0.94619771
0.93134323
0.91670175
0.90225677
0.88799359
0.87389892
0.85996064
0.84616768
0.83250986
0.81897778
0.8055628
0.79225692
0.77905272
0.76594335
0.75292243
0.73998406
0.72712273
0.71433332
0.70161106
0.68895152
0.67635058
0.66380438
0.65130933
0.6388621
0.62645956
0.61409878
0.60177703
0.58949174
0.57724054
0.56502118
0.55283159
0.54066982
0.52853406
0.51642264
0.50433396
0.49226654
0.48021899
0.46818999
0.45617832
0.44418284
0.43220248
0.42023626
0.40828327
0.39634267
0.38441365
0.37249545
0.36058737
0.34868872
0.33679886
0.3249172
0.31304321
0.3011764
0.28931633
0.27746258
0.26561477
0.25377251
0.24193542
0.23010313
0.21827531
0.20645168
0.19463196
0.18281595
0.17100343
0.15919422
0.14738811
0.13558488
0.12378436
0.11198628
0.10019057
0.088396965
0.076605508
0.064815855
0.053028198
0.041241937
0.029457527
0.017673862
0.005891909
1.4553963
1.4434429
1.4212086
1.390921
1.3570598
1.3230643
1.2903667
1.2593611
1.2302638
1.2032519
1.1783248
1.1552753
1.1337937
1.1135761
1.0943725
1.0759903
1.0582814
1.0411309
1.0244501
1.008171
0.99224198
0.97662341
0.96128388
0.9461977
0.93134323
0.91670174
0.90225677
0.88799359
0.87389892
0.85996064
0.84616769
0.83250986
0.81897779
0.8055628
0.79225691
0.77905271
0.76594334
0.75292243
0.73998406
0.72712273
0.71433332
0.70161106
0.68895153
0.67635058
0.66380438
0.65130933
0.6388621
0.62645956
0.61409878
0.60177703
0.58949175
0.57724054
0.56502119
0.55283159
0.54066982
0.52853406
0.51642263
0.50433395
0.49226654
0.48021899
0.46818999
0.45617833
0.44418284
0.43220248
0.42023626
0.40828326
0.39634266
0.38441364
0.37249545
0.36058738
0.34868873
0.33679887
0.3249172
0.31304321
0.30117639
0.28931631
0.27746256
0.26561475
0.25377249
0.2419354
0.23010312
0.21827531
0.20645167
0.19463195
0.18281593
0.17100341
0.15919419
0.14738808
0.13558486
0.12378434
0.11198627
0.10019057
0.088396961
0.076605501
0.064815845
0.053028184
0.041241923
0.02945751
0.017673844
0.0058919011
1.4681278
1.4526297
1.4257598
1.3918359
1.3560349
1.3210836
1.2877817
1.2564287
1.227298
1.2005065
1.175919
1.1532268
1.1320749
1.1121461
1.0931879
1.0750082
1.0574625
1.0404415
1.0238629
1.0076649
0.99180095
0.97623519
0.9609392
0.94588951
0.93106606
0.91645132
0.90202969
0.88778708
0.87371065
0.85978866
0.84601029
0.8323656
0.81884536
0.80544109
0.79214491
0.77894953
0.76584818
0.75283459
0.7399029
0.72704767
0.71426385
0.70154672
0.68889188
0.67629525
0.66375303
0.65126165
0.63881781
0.6264184
0.61406052
0.60174144
0.58945864
0.57720973
0.56499249
0.55280485
0.54064491
0.52851085
0.51640101
0.5043138
0.49224776
0.48020149
0.46817368
0.4561631
0.44416863
0.43218921
0.42022387
0.4082717
0.39633187
0.38440359
0.37248608
0.36057864
0.34868057
0.33679125
0.32491007
0.31303652
0.30117013
0.28931046
0.2774571
0.26560967
0.25376775
0.24193098
0.23009898
0.21827142
0.20644801
0.19462851
0.18281269
0.17100037
0.15919135
0.14738545
0.1355824
0.12378204
0.11198412
0.10018853
0.088395062
0.07660371
0.064814223
0.053026655
0.041240626
0.029456247
0.017672952
0.0058909566
1.4975364
1.4713613
1.4329644
1.3918315
1.3527462
1.3161554
1.2818578
1.2501403
1.2212842
1.1951831
1.1714291
1.1495391
1.1290892
1.1097483
1.0912682
1.0734672
1.0562153
1.0394198
1.0230137
1.0069486
0.9911882
0.97570449
0.96047461
0.94547909
0.93070081
0.91612432
0.90173551
0.88752136
0.87346984
0.85956979
0.84581087
0.83218349
0.81867873
0.80528835
0.79200467
0.77882058
0.76572945
0.75272512
0.73980185
0.7269543
0.71417748
0.70146675
0.68881778
0.67622654
0.66368927
0.65120246
0.63876284
0.62636732
0.61401303
0.60169727
0.58941753
0.57717146
0.56495684
0.55277165
0.54061397
0.52848203
0.51637415
0.50428879
0.49222445
0.48017975
0.4681534
0.45614417
0.44415096
0.4321727
0.42020846
0.40825734
0.39631849
0.38439112
0.37247446
0.36056779
0.34867043
0.33678175
0.32490118
0.3130282
0.30116235
0.28930321
0.27745036
0.2656034
0.25376191
0.24192552
0.23009385
0.21826659
0.20644346
0.19462424
0.18280871
0.17099668
0.15918793
0.14738227
0.13557944
0.12377926
0.1119815
0.10018606
0.088392779
0.076601589
0.064812325
0.053024899
0.041239151
0.029454864
0.017672058
0.0058900338
1.5583576
1.5034285
1.442476
1.3909083
1.3476383
1.30867
1.2730837
1.2413111
1.2133502
1.1885724
1.1661705
1.1454691
1.1259875
1.1073994
1.0894858
1.0721011
1.0551493
1.0385679
1.0223152
1.0063617
0.99068469
0.97526513
0.96008626
0.94513259
0.93038953
0.91584332
0.90148093
0.88729008
0.87325926
0.85937769
0.84563532
0.8320228
0.81853142
0.80515311
0.79188035
0.77870614
0.76562398
0.7526278
0.73971195
0.72687116
0.71410052
0.70139545
0.68875168
0.67616522
0.66363236
0.65114962
0.63871374
0.62632168
0.61397058
0.60165778
0.58938076
0.5771372
0.56492493
0.55274192
0.54058627
0.52845623
0.51635012
0.50426639
0.49220357
0.48016027
0.46813521
0.45612718
0.44413509
0.4321579
0.42019466
0.40824448
0.39630652
0.38437996
0.37246405
0.36055805
0.34866131
0.3367732
0.32489318
0.31302073
0.30115541
0.28929677
0.27744439
0.26559784
0.25375672
0.24192065
0.23008927
0.21826229
0.20643944
0.19462051
0.18280528
0.17099353
0.15918504
0.14737959
0.13557694
0.12377691
0.11197931
0.10018404
0.08839095
0.076599941
0.064810863
0.053023588
0.041238028
0.029453921
0.017671488
0.0058896861
1.6755773
1.5544994
1.4585189
1.3948628
1.3463533
1.3038813
1.266346
1.2341743
1.2067739
1.1829364
1.161542
1.1417782
1.1231011
1.1051615
1.0877462
1.070732
1.0540511
1.037667
1.0215588
1.0057129
0.99011786
0.97476274
0.95963603
0.94472578
0.93001978
0.9155058
0.90117185
0.88700636
0.87299832
0.85913732
0.8454136
0.83181803
0.81834212
0.80497793
0.79171809
0.77855573
0.76548444
0.75249826
0.73959161
0.72675931
0.7139965
0.70129867
0.68866161
0.67608137
0.66355427
0.65107687
0.63864596
0.6262585
0.61391168
0.60160284
0.58932952
0.5770894
0.56488034
0.55270032
0.54054747
0.52842003
0.51631635
0.50423487
0.49217414
0.48013278
0.46810953
0.45610321
0.4441127
0.43213701
0.42017517
0.4082263
0.39628955
0.38436412
0.37244924
0.36054421
0.34864836
0.3367611
0.32488188
0.31301021
0.30114562
0.28928766
0.2774359
0.26558992
0.25374931
0.24191372
0.2300828
0.21825626
0.20643386
0.19461536
0.18280053
0.17098915
0.159181
0.14737584
0.13557347
0.1237737
0.11197638
0.10018137
0.088388542
0.076597771
0.064808907
0.053021842
0.041236455
0.029452607
0.01767033
0.0058891603
)
;

boundaryField
{
    top
    {
        type            zeroGradient;
    }
    inlet
    {
        type            zeroGradient;
    }
    outlet
    {
        type            fixedValue;
        value           uniform 0;
    }
    bottom
    {
        type            zeroGradient;
    }
    back
    {
        type            empty;
    }
    front
    {
        type            empty;
    }
}


// ************************************************************************* //
