/*--------------------------------*- C++ -*----------------------------------*\
| =========                 |                                                 |
| \\      /  F ield         | OpenFOAM: The Open Source CFD Toolbox           |
|  \\    /   O peration     | Version:  v1812                                 |
|   \\  /    A nd           | Web:      www.OpenFOAM.com                      |
|    \\/     M anipulation  |                                                 |
\*---------------------------------------------------------------------------*/
FoamFile
{
    version     2.0;
    format      ascii;
    class       surfaceScalarField;
    location    "18";
    object      phi;
}
// * * * * * * * * * * * * * * * * * * * * * * * * * * * * * * * * * * * * * //

dimensions      [0 3 -1 0 0 0 0];
oriented        oriented;


internalField   nonuniform List<scalar> 
1890
(
0.0033109155
1.4993579e-06
0.0033057527
5.1637919e-06
0.0032992277
6.5253672e-06
0.0032931874
6.0401349e-06
0.0032882941
4.892899e-06
0.00328442
3.8737415e-06
0.0032812372
3.1824303e-06
0.0032785061
2.7308784e-06
0.0032761088
2.3969429e-06
0.0032739941
2.1144758e-06
0.0032721264
1.8674814e-06
0.003270468
1.6581853e-06
0.0032689812
1.4865728e-06
0.0032676345
1.3465291e-06
0.0032664048
1.2296295e-06
0.0032652757
1.1289323e-06
0.0032642354
1.0401534e-06
0.0032632744
9.6097754e-07
0.0032623843
8.8999346e-07
0.0032615581
8.2606243e-07
0.0032607899
7.6815457e-07
0.0032600745
7.1538604e-07
0.0032594073
6.6705617e-07
0.0032587847
6.2262484e-07
0.003258203
5.8166559e-07
0.0032576591
5.4382118e-07
0.0032571503
5.0878353e-07
0.0032566739
4.7628144e-07
0.0032562278
4.4607984e-07
0.0032558098
4.1797198e-07
0.003255418
3.9177865e-07
0.0032550507
3.6733958e-07
0.0032547061
3.4451431e-07
0.0032543829
3.2317506e-07
0.0032540797
3.0320946e-07
0.0032537952
2.8451397e-07
0.0032535282
2.6699755e-07
0.0032532776
2.5057519e-07
0.0032530424
2.3517217e-07
0.0032528217
2.2071765e-07
0.0032526145
2.0714949e-07
0.0032524201
1.9440801e-07
0.0032522376
1.8244101e-07
0.0032520664
1.7119757e-07
0.0032519058
1.6063344e-07
0.0032517551
1.5070481e-07
0.0032516137
1.4137386e-07
0.0032514811
1.3260253e-07
0.0032513567
1.2435824e-07
0.0032512401
1.1660775e-07
0.0032511308
1.0932288e-07
0.0032510283
1.0247435e-07
0.0032509323
9.6037644e-08
0.0032508423
8.9986906e-08
0.003250758
8.4300804e-08
0.0032506791
7.8956344e-08
0.0032506051
7.3934888e-08
0.0032505359
6.9215995e-08
0.0032504711
6.4783399e-08
0.0032504105
6.0618823e-08
0.0032503538
5.6708033e-08
0.0032503008
5.3034709e-08
0.0032502512
4.9586434e-08
0.0032502048
4.6348543e-08
0.0032501615
4.3310177e-08
0.0032501211
4.0458185e-08
0.0032500833
3.7783119e-08
0.003250048
3.5273097e-08
0.0032500151
3.2919878e-08
0.0032499844
3.071275e-08
0.0032499557
2.8644591e-08
0.003249929
2.6705645e-08
0.0032499041
2.4889766e-08
0.003249881
2.3188072e-08
0.0032498594
2.1595367e-08
0.0032498393
2.0103429e-08
0.0032498206
1.8707952e-08
0.0032498032
1.7401249e-08
0.003249787
1.6180006e-08
0.0032497719
1.503674e-08
0.003249758
1.3969274e-08
0.003249745
1.2969989e-08
0.003249733
1.2038269e-08
0.0032497218
1.1165634e-08
0.0032497115
1.0353731e-08
0.0032497019
9.5921835e-09
0.003249693
8.886244e-09
0.0032496848
8.2217791e-09
0.0032496772
7.6098006e-09
0.0032496701
7.0296437e-09
0.0032496636
6.5015062e-09
0.0032496576
5.994075e-09
0.0032496521
5.541238e-09
0.003249647
5.0964195e-09
0.0032496423
4.7107426e-09
0.003249638
4.3225345e-09
0.003249634
3.9957837e-09
0.0032496303
3.6801294e-09
0.0032496269
3.4244152e-09
3.4194949e-09
0.0083635135
1.607402e-06
0.0083615588
7.1197257e-06
0.0083578825
1.0202208e-05
0.0083534739
1.0448586e-05
0.008349097
9.26943e-06
0.0083449893
7.9811162e-06
0.0083411363
7.0352018e-06
0.0083374986
6.3683112e-06
0.008334077
5.8183951e-06
0.0083308912
5.3000634e-06
0.0083279504
4.8079935e-06
0.0083252451
4.363371e-06
0.0083227542
3.9773243e-06
0.0083204551
3.6454305e-06
0.0083183283
3.3563189e-06
0.0083163575
3.0996648e-06
0.0083145286
2.8688989e-06
0.0083128293
2.6602836e-06
0.0083112479
2.4712495e-06
0.0083097744
2.2994811e-06
0.0083083998
2.142771e-06
0.0083071159
1.9991686e-06
0.0083059159
1.8670691e-06
0.0083047933
1.7451875e-06
0.0083037424
1.632468e-06
0.0083027582
1.5280135e-06
0.0083018359
1.4310396e-06
0.0083009713
1.3408597e-06
0.0083001605
1.2568701e-06
0.0082993999
1.1785435e-06
0.0082986862
1.1054127e-06
0.0082980165
1.0370651e-06
0.0082973878
9.7312969e-07
0.0082967977
9.1327553e-07
0.0082962437
8.5720166e-07
0.0082957236
8.046385e-07
0.0082952352
7.5533853e-07
0.0082947767
7.0907917e-07
0.0082943462
6.6565412e-07
0.008293942
6.2487715e-07
0.0082935626
5.8657413e-07
0.0082932064
5.5058766e-07
0.0082928721
5.1676937e-07
0.0082925583
4.8498488e-07
0.0082922638
4.5510653e-07
0.0082919875
4.2701883e-07
0.0082917283
4.006112e-07
0.0082914851
3.7578357e-07
0.008291257
3.5243947e-07
0.0082910431
3.3049185e-07
0.0082908426
3.0985615e-07
0.0082906546
2.904562e-07
0.0082904784
2.7221749e-07
0.0082903133
2.5507325e-07
0.0082901587
2.3895769e-07
0.0082900138
2.23812e-07
0.0082898782
2.0957784e-07
0.0082897512
1.9620347e-07
0.0082896323
1.8363712e-07
0.0082895211
1.7183308e-07
0.0082894171
1.6074528e-07
0.0082893198
1.503334e-07
0.0082892288
1.4055646e-07
0.0082891438
1.313788e-07
0.0082890643
1.2276383e-07
0.0082889901
1.1468009e-07
0.0082889208
1.0709499e-07
0.0082888561
9.9980645e-08
0.0082887957
9.3307905e-08
0.0082887394
8.7052164e-08
0.0082886868
8.1187459e-08
0.0082886378
7.5691902e-08
0.0082885922
7.0542324e-08
0.0082885496
6.5719301e-08
0.00828851
6.1202358e-08
0.0082884732
5.6973964e-08
0.0082884389
5.3016182e-08
0.008288407
4.9312995e-08
0.0082883773
4.5849233e-08
0.0082883497
4.2609532e-08
0.0082883241
3.9581887e-08
0.0082883003
3.6750579e-08
0.0082882783
3.4107971e-08
0.0082882578
3.1635926e-08
0.0082882388
2.9333299e-08
0.0082882212
2.7176295e-08
0.0082882049
2.5174556e-08
0.0082881899
2.329249e-08
0.0082881759
2.1558213e-08
0.008288163
1.9913706e-08
0.0082881511
1.8419871e-08
0.0082881401
1.697682e-08
0.00828813
1.5704021e-08
0.0082881206
1.4424503e-08
0.008288112
1.3365024e-08
0.0082881041
1.2207244e-08
0.0082880967
1.1382295e-08
0.0082880901
1.0308725e-08
0.0082880837
9.8250585e-09
8.7580638e-09
0.011984226
1.1682459e-06
0.011985425
5.92257e-06
0.0119865
9.1269904e-06
0.011987043
9.9055892e-06
0.011987163
9.1485964e-06
0.011987016
8.1282146e-06
0.011986658
7.392585e-06
0.011986124
6.9022791e-06
0.011985452
6.490042e-06
0.01198469
6.0625556e-06
0.011983876
5.6218816e-06
0.011983037
5.2015197e-06
0.011982192
4.8225424e-06
0.011981351
4.486188e-06
0.011980524
4.1839026e-06
0.011979716
3.9073168e-06
0.011978933
3.6517457e-06
0.011978178
3.4151614e-06
0.011977453
3.1963142e-06
0.011976758
2.9937923e-06
0.011976095
2.8059911e-06
0.011975463
2.631381e-06
0.011974861
2.4686743e-06
0.01197429
2.3168246e-06
0.011973747
2.1749532e-06
0.011973233
2.0422833e-06
0.011972746
1.9181111e-06
0.011972285
1.8017962e-06
0.011971849
1.6927617e-06
0.011971437
1.5904866e-06
0.011971048
1.494501e-06
0.01197068
1.4043755e-06
0.011970334
1.319719e-06
0.011970007
1.2401705e-06
0.011969699
1.1653997e-06
0.011969408
1.0951003e-06
0.011969135
1.028991e-06
0.011968877
9.6680971e-07
0.011968634
9.083151e-07
0.011968406
8.5328089e-07
0.011968191
8.0149853e-07
0.011967989
7.5277154e-07
0.011967798
7.0691858e-07
0.01196762
6.6376807e-07
0.011967452
6.2316163e-07
0.011967294
5.8494876e-07
0.011967145
5.4899051e-07
0.011967006
5.1515433e-07
0.011966875
4.8331794e-07
0.011966752
4.5336427e-07
0.011966637
4.2518538e-07
0.011966529
3.9867755e-07
0.011966427
3.7374539e-07
0.011966332
3.5029682e-07
0.011966243
3.2824735e-07
0.011966159
3.0751512e-07
0.01196608
2.8802524e-07
0.011966007
2.6970488e-07
0.011965938
2.5248759e-07
0.011965874
2.3630847e-07
0.011965813
2.2110858e-07
0.011965757
2.0683009e-07
0.011965704
1.9342068e-07
0.011965654
1.8082873e-07
0.011965608
1.6900784e-07
0.011965565
1.5791198e-07
0.011965524
1.4749996e-07
0.011965487
1.3773063e-07
0.011965451
1.2856751e-07
0.011965419
1.1997381e-07
0.011965388
1.1191726e-07
0.011965359
1.043648e-07
0.011965332
9.7288062e-08
0.011965307
9.0657251e-08
0.011965284
8.4447583e-08
0.011965263
7.8631867e-08
0.011965242
7.3188947e-08
0.011965224
6.8093501e-08
0.011965206
6.3328239e-08
0.01196519
5.8868513e-08
0.011965175
5.4701873e-08
0.011965161
5.0802481e-08
0.011965148
4.7164689e-08
0.011965136
4.3758036e-08
0.011965124
4.0587889e-08
0.011965114
3.7612945e-08
0.011965104
3.4857699e-08
0.011965095
3.2258175e-08
0.011965087
2.9873925e-08
0.011965079
2.7596003e-08
0.011965072
2.5549451e-08
0.011965066
2.3537942e-08
0.011965059
2.1809837e-08
0.011965054
2.0002081e-08
0.011965049
1.8596397e-08
0.011965044
1.6917886e-08
0.011965039
1.5880332e-08
0.011965035
1.4241663e-08
0.011965032
1.3673404e-08
1.2031961e-08
0.014310803
5.9671621e-07
0.014313487
3.2392765e-06
0.014317429
5.1848314e-06
0.01432153
5.8046301e-06
0.014325211
5.4668357e-06
0.014328429
4.9096914e-06
0.014331303
4.5190876e-06
0.014333925
4.2799813e-06
0.014336329
4.0854496e-06
0.014338522
3.8696019e-06
0.014340511
3.6327789e-06
0.014342314
3.3989074e-06
0.014343952
3.1841201e-06
0.014345447
2.9908738e-06
0.014346816
2.81452e-06
0.014348073
2.6502556e-06
0.014349229
2.4957009e-06
0.014350294
2.350214e-06
0.014351277
2.2135818e-06
0.014352185
2.0853699e-06
0.014353026
1.9649221e-06
0.014353806
1.8515644e-06
0.01435453
1.744733e-06
0.014355203
1.643985e-06
0.014355829
1.5489497e-06
0.014356412
1.4592938e-06
0.014356955
1.3747006e-06
0.014357462
1.2948754e-06
0.014357935
1.2195399e-06
0.014358377
1.1484415e-06
0.01435879
1.0813405e-06
0.014359177
1.0180175e-06
0.014359538
9.5826081e-07
0.014359876
9.018765e-07
0.014360193
8.4867586e-07
0.01436049
7.9848681e-07
0.014360767
7.5114075e-07
0.014361028
7.0648466e-07
0.014361272
6.6436748e-07
0.0143615
6.2465297e-07
0.014361715
5.8720556e-07
0.014361915
5.5190376e-07
0.014362104
5.1862579e-07
0.01436228
4.872634e-07
0.014362446
4.5770714e-07
0.014362601
4.298605e-07
0.014362746
4.0362501e-07
0.014362882
3.7891473e-07
0.01436301
3.5564112e-07
0.01436313
3.337276e-07
0.014363242
3.1309445e-07
0.014363347
2.9367361e-07
0.014363445
2.7539334e-07
0.014363537
2.5819311e-07
0.014363623
2.420083e-07
0.014363704
2.2678524e-07
0.01436378
2.1246576e-07
0.01436385
1.9900223e-07
0.014363917
1.8634225e-07
0.014363978
1.7444371e-07
0.014364036
1.6325945e-07
0.01436409
1.5275218e-07
0.014364141
1.4287938e-07
0.014364188
1.3360821e-07
0.014364232
1.2490036e-07
0.014364273
1.1672685e-07
0.014364312
1.090531e-07
0.014364348
1.0185367e-07
0.014364381
9.5097401e-08
0.014364412
8.8761862e-08
0.014364442
8.281895e-08
0.014364469
7.7248987e-08
0.014364494
7.2026731e-08
0.014364517
6.7134735e-08
0.014364539
6.2550434e-08
0.01436456
5.8258258e-08
0.014364579
5.4238405e-08
0.014364596
5.0476437e-08
0.014364613
4.6955594e-08
0.014364628
4.3661694e-08
0.014364642
4.058195e-08
0.014364655
3.770063e-08
0.014364667
3.5010798e-08
0.014364679
3.2492157e-08
0.014364689
3.0147625e-08
0.014364699
2.7946373e-08
0.014364708
2.5908899e-08
0.014364716
2.3982781e-08
0.014364724
2.2221256e-08
0.014364731
2.052916e-08
0.014364737
1.9020979e-08
0.014364743
1.7519545e-08
0.014364749
1.6253424e-08
0.014364754
1.4893189e-08
0.014364759
1.3876189e-08
0.014364763
1.2598817e-08
0.014364767
1.18647e-08
0.014364771
1.0594848e-08
0.014364774
1.0203645e-08
8.9773414e-09
0.015446611
3.3937631e-11
0.015449852
1.0468681e-10
0.015455036
4.6898683e-11
0.015460841
-6.5580169e-12
0.015466307
-6.4133951e-12
0.015471216
5.084294e-11
0.015475735
1.1902632e-10
0.015480014
1.6142156e-10
0.015484099
1.7322806e-10
0.015487969
1.751584e-10
0.015491601
1.7726777e-10
0.015495
1.8181876e-10
0.015498184
1.8264884e-10
0.015501174
1.7933318e-10
0.015503988
1.7087614e-10
0.015506638
1.5982459e-10
0.015509134
1.4665787e-10
0.015511484
1.3245236e-10
0.015513697
1.1745274e-10
0.015515782
1.0188176e-10
0.015517747
8.6449702e-11
0.015519599
7.0982976e-11
0.015521343
5.6539141e-11
0.015522987
4.2461572e-11
0.015524536
2.9911665e-11
0.015525995
1.7833703e-11
0.01552737
7.6700877e-12
0.015528665
-1.8289693e-12
0.015529884
-1.0259599e-11
0.015531033
-1.7860907e-11
0.015532114
-2.3570164e-11
0.015533132
-2.9227274e-11
0.01553409
-3.304181e-11
0.015534992
-3.7168117e-11
0.015535841
-3.9605719e-11
0.01553664
-4.2554008e-11
0.015537391
-4.3899776e-11
0.015538097
-4.6063022e-11
0.015538762
-4.6733121e-11
0.015539386
-4.8273867e-11
0.015539974
-4.8313635e-11
0.015540526
-4.9407239e-11
0.015541044
-4.9040551e-11
0.015541531
-4.9686611e-11
0.015541989
-4.8825823e-11
0.015542419
-4.9121866e-11
0.015542823
-4.7960039e-11
0.015543202
-4.7905146e-11
0.015543557
-4.6379405e-11
0.015543891
-4.6113955e-11
0.015544204
-4.446747e-11
0.015544498
-4.4037354e-11
0.015544774
-4.2231087e-11
0.015545032
-4.1787063e-11
0.015545274
-4.005122e-11
0.015545501
-3.9606461e-11
0.015545713
-3.784338e-11
0.015545912
-3.7474525e-11
0.015546099
-3.5831921e-11
0.015546273
-3.546677e-11
0.015546436
-3.3763089e-11
0.015546589
-3.3400545e-11
0.015546732
-3.1720374e-11
0.015546866
-3.1245013e-11
0.015546991
-2.9384926e-11
0.015547107
-2.8791138e-11
0.015547216
-2.684971e-11
0.015547318
-2.6058315e-11
0.015547413
-2.3885807e-11
0.015547502
-2.2952288e-11
0.015547585
-2.0712024e-11
0.015547662
-1.9629566e-11
0.015547734
-1.7244652e-11
0.015547802
-1.6130794e-11
0.015547864
-1.3814392e-11
0.015547922
-1.2706392e-11
0.015547977
-1.0415669e-11
0.015548027
-9.4439188e-12
0.015548074
-7.3897822e-12
0.015548118
-6.5834198e-12
0.015548158
-4.7108657e-12
0.015548196
-4.1679577e-12
0.015548231
-2.6468885e-12
0.015548264
-2.3691921e-12
0.015548294
-1.122125e-12
0.015548322
-1.1548501e-12
0.015548348
-2.7564331e-13
0.015548372
-6.293936e-13
0.015548394
-1.7691533e-14
0.015548414
-7.5609199e-13
0.015548433
-6.3441075e-13
0.015548451
-2.0166886e-12
0.015548467
-2.5307061e-12
0.015548482
-4.4558774e-12
0.015548496
-5.0759437e-12
0.015548508
-6.0297694e-12
0.01554852
-6.8658807e-12
0.015548531
-7.1476646e-12
0.015548541
-1.1091051e-11
-1.3956304e-11
0.01544661
-5.9677369e-07
0.015449851
-3.2396031e-06
0.015455036
-5.1851663e-06
0.01546084
-5.8048134e-06
0.015466306
-5.4668516e-06
0.015471216
-4.9096121e-06
0.015475734
-4.5189411e-06
0.015480014
-4.2797806e-06
0.015484099
-4.0852106e-06
0.015487969
-3.8693315e-06
0.015491601
-3.6324861e-06
0.015495
-3.3985987e-06
0.015498184
-3.1838062e-06
0.015501174
-2.9905627e-06
0.015503988
-2.8142201e-06
0.015506638
-2.6499723e-06
0.015509134
-2.495439e-06
0.015511484
-2.3499764e-06
0.015513697
-2.2133707e-06
0.015515783
-2.0851866e-06
0.015517747
-1.9647666e-06
0.015519599
-1.8514367e-06
0.015521343
-1.7446317e-06
0.015522987
-1.6439092e-06
0.015524536
-1.548897e-06
0.015525995
-1.4592629e-06
0.01552737
-1.3746887e-06
0.015528665
-1.2948809e-06
0.015529885
-1.2195605e-06
0.015531033
-1.1484758e-06
0.015532114
-1.0813856e-06
0.015533132
-1.0180723e-06
0.015534091
-9.5832301e-07
0.015534992
-9.0194564e-07
0.015535841
-8.4874978e-07
0.01553664
-7.9856543e-07
0.015537391
-7.5122226e-07
0.015538097
-7.0656942e-07
0.015538762
-6.6445382e-07
0.015539386
-6.2474139e-07
0.015539974
-5.8729454e-07
0.015540526
-5.5199402e-07
0.015541044
-5.1871579e-07
0.015541532
-4.8735385e-07
0.015541989
-4.5779657e-07
0.015542419
-4.2994975e-07
0.015542823
-4.037126e-07
0.015543202
-3.790015e-07
0.015543557
-3.5572569e-07
0.015543891
-3.33811e-07
0.015544204
-3.1317533e-07
0.015544498
-2.9375301e-07
0.015544773
-2.7547006e-07
0.015545032
-2.5826836e-07
0.015545274
-2.4208089e-07
0.015545501
-2.2685635e-07
0.015545713
-2.1253429e-07
0.015545912
-1.9906945e-07
0.015546098
-1.8640701e-07
0.015546273
-1.7450717e-07
0.015546436
-1.6332045e-07
0.015546589
-1.5281191e-07
0.015546732
-1.4293658e-07
0.015546866
-1.3366392e-07
0.01554699
-1.2495333e-07
0.015547107
-1.1677814e-07
0.015547216
-1.0910138e-07
0.015547318
-1.0189989e-07
0.015547413
-9.5140285e-08
0.015547502
-8.8802458e-08
0.015547585
-8.2855977e-08
0.015547662
-7.7283443e-08
0.015547734
-7.2057452e-08
0.015547801
-6.7162867e-08
0.015547864
-6.257485e-08
0.015547922
-5.8280094e-08
0.015547976
-5.4256672e-08
0.015548027
-5.0492424e-08
0.015548074
-4.6968343e-08
0.015548118
-4.3672472e-08
0.015548158
-4.0589914e-08
0.015548196
-3.7707166e-08
0.015548231
-3.5015064e-08
0.015548263
-3.2495483e-08
0.015548294
-3.0149243e-08
0.015548321
-2.794768e-08
0.015548347
-2.5909105e-08
0.015548371
-2.3983237e-08
0.015548394
-2.2221218e-08
0.015548414
-2.0530087e-08
0.015548433
-1.9022225e-08
0.015548451
-1.7522732e-08
0.015548467
-1.6258118e-08
0.015548482
-1.4900831e-08
0.015548496
-1.3885162e-08
0.015548508
-1.2609605e-08
0.01554852
-1.1876483e-08
0.015548531
-1.0606525e-08
0.015548541
-1.0221232e-08
-8.9986437e-09
0.014310803
-1.1682371e-06
0.014313487
-5.9224918e-06
0.014317429
-9.1269427e-06
0.01432153
-9.9056194e-06
0.014325211
-9.1486393e-06
0.014328429
-8.128238e-06
0.014331303
-7.3925565e-06
0.014333925
-6.9022037e-06
0.014336329
-6.489919e-06
0.014338522
-6.062399e-06
0.014340511
-5.6216944e-06
0.014342314
-5.2013142e-06
0.014343952
-4.822323e-06
0.014345447
-4.4859652e-06
0.014346817
-4.1836814e-06
0.014348074
-3.907105e-06
0.01434923
-3.6515471e-06
0.014350295
-3.4149802e-06
0.014351277
-3.1961526e-06
0.014352186
-2.9936513e-06
0.014353027
-2.8058721e-06
0.014353806
-2.6312828e-06
0.01435453
-2.4685975e-06
0.014355203
-2.3167666e-06
0.014355829
-2.1749145e-06
0.014356412
-2.0422602e-06
0.014356955
-1.9181042e-06
0.014357462
-1.8018014e-06
0.014357936
-1.6927801e-06
0.014358378
-1.5905137e-06
0.014358791
-1.494538e-06
0.014359177
-1.404418e-06
0.014359538
-1.3197688e-06
0.014359877
-1.2402233e-06
0.014360193
-1.1654579e-06
0.01436049
-1.0951596e-06
0.014360768
-1.0290544e-06
0.014361028
-9.6687305e-07
0.014361272
-9.0838148e-07
0.014361501
-8.5334628e-07
0.014361715
-8.0156638e-07
0.014361916
-7.5283774e-07
0.014362104
-7.0698662e-07
0.01436228
-6.6383385e-07
0.014362446
-6.2322886e-07
0.014362601
-5.8501326e-07
0.014362746
-5.4905593e-07
0.014362882
-5.1521656e-07
0.01436301
-4.8338085e-07
0.01436313
-4.5342372e-07
0.014363242
-4.2524521e-07
0.014363347
-3.9873373e-07
0.014363445
-3.7380195e-07
0.014363537
-3.5034974e-07
0.014363623
-3.283006e-07
0.014363704
-3.0756477e-07
0.01436378
-2.8807541e-07
0.01436385
-2.6975159e-07
0.014363916
-2.5253482e-07
0.014363978
-2.3635228e-07
0.014364036
-2.2115303e-07
0.01436409
-2.0687116e-07
0.014364141
-1.9346223e-07
0.014364188
-1.8086677e-07
0.014364232
-1.690463e-07
0.014364273
-1.5794678e-07
0.014364312
-1.4753486e-07
0.014364347
-1.3776161e-07
0.014364381
-1.2859844e-07
0.014364412
-1.2000064e-07
0.014364441
-1.1194374e-07
0.014364468
-1.0438702e-07
0.014364494
-9.7309907e-08
0.014364517
-9.0674821e-08
0.014364539
-8.4464692e-08
0.014364559
-7.864476e-08
0.014364578
-7.3201601e-08
0.014364596
-6.8102182e-08
0.014364612
-6.3336846e-08
0.014364627
-5.8873439e-08
0.014364642
-5.470716e-08
0.014364655
-5.0804514e-08
0.014364667
-4.7167411e-08
0.014364678
-4.3757915e-08
0.014364689
-4.0589001e-08
0.014364698
-3.7611693e-08
0.014364707
-3.4858082e-08
0.014364715
-3.22566e-08
0.014364723
-2.9874588e-08
0.01436473
-2.7595226e-08
0.014364737
-2.5551428e-08
0.014364743
-2.3538813e-08
0.014364748
-2.1814246e-08
0.014364753
-2.0005762e-08
0.014364758
-1.8603742e-08
0.014364762
-1.6924632e-08
0.014364766
-1.5888179e-08
0.01436477
-1.4247877e-08
0.014364774
-1.3678871e-08
-1.2038208e-08
0.011984226
-1.6073753e-06
0.011985425
-7.1195587e-06
0.0119865
-1.0201992e-05
0.011987043
-1.0448476e-05
0.011987163
-9.2694899e-06
0.011987016
-7.9812869e-06
0.011986658
-7.035388e-06
0.011986124
-6.3684474e-06
0.011985453
-5.8184609e-06
0.01198469
-5.3000694e-06
0.011983876
-4.8079555e-06
0.011983038
-4.3633028e-06
0.011982193
-3.9772334e-06
0.011981352
-3.6453239e-06
0.011980524
-3.3562033e-06
0.011979716
-3.0995472e-06
0.011978933
-2.8687851e-06
0.011978179
-2.6601776e-06
0.011977453
-2.4711542e-06
0.011976759
-2.2993977e-06
0.011976096
-2.1427007e-06
0.011975464
-1.9991109e-06
0.011974862
-1.8670245e-06
0.01197429
-1.7451547e-06
0.011973748
-1.6324468e-06
0.011973233
-1.528002e-06
0.011972746
-1.4310376e-06
0.011972285
-1.3408652e-06
0.011971849
-1.256883e-06
0.011971437
-1.1785616e-06
0.011971048
-1.105436e-06
0.011970681
-1.0370918e-06
0.011970334
-9.7316e-07
0.011970007
-9.1330754e-07
0.011969699
-8.5723592e-07
0.011969409
-8.0467348e-07
0.011969135
-7.5537503e-07
0.011968877
-7.0911559e-07
0.011968634
-6.6569141e-07
0.011968406
-6.2491401e-07
0.011968191
-5.8661164e-07
0.011967989
-5.5062434e-07
0.011967799
-5.1680633e-07
0.01196762
-4.8502086e-07
0.011967452
-4.5514269e-07
0.011967294
-4.2705369e-07
0.011967145
-4.0064592e-07
0.011967006
-3.7581689e-07
0.011966875
-3.524726e-07
0.011966752
-3.3052334e-07
0.011966637
-3.0988723e-07
0.011966528
-2.9048568e-07
0.011966427
-2.7224665e-07
0.011966332
-2.5510072e-07
0.011966242
-2.3898478e-07
0.011966159
-2.2383757e-07
0.01196608
-2.0960323e-07
0.011966007
-1.9622733e-07
0.011965938
-1.8366077e-07
0.011965873
-1.7185537e-07
0.011965813
-1.607675e-07
0.011965756
-1.5035419e-07
0.011965703
-1.4057706e-07
0.011965654
-1.3139801e-07
0.011965608
-1.2278287e-07
0.011965564
-1.1469755e-07
0.011965524
-1.0711203e-07
0.011965486
-9.9996052e-08
0.011965451
-9.3322863e-08
0.011965418
-8.7065274e-08
0.011965387
-8.1199888e-08
0.011965359
-7.5702486e-08
0.011965332
-7.0552277e-08
0.011965307
-6.5727299e-08
0.011965284
-6.1209629e-08
0.011965262
-5.6979436e-08
0.011965242
-5.3021135e-08
0.011965223
-4.9316201e-08
0.011965206
-4.5851986e-08
0.011965189
-4.2610836e-08
0.011965174
-3.9583079e-08
0.01196516
-3.6750486e-08
0.011965147
-3.4107924e-08
0.011965135
-3.1634956e-08
0.011965124
-2.9332766e-08
0.011965113
-2.7175023e-08
0.011965104
-2.5173912e-08
0.011965095
-2.3291461e-08
0.011965086
-2.1558225e-08
0.011965079
-1.9913496e-08
0.011965072
-1.8420827e-08
0.011965065
-1.6977572e-08
0.011965059
-1.5705902e-08
0.011965053
-1.4425854e-08
0.011965048
-1.3367997e-08
0.011965043
-1.2210974e-08
0.011965039
-1.1385146e-08
0.011965035
-1.031026e-08
0.011965031
-9.8198586e-09
-8.750616e-09
0.008363514
-1.4992764e-06
0.0083615592
-5.1636566e-06
0.008357883
-6.5252559e-06
0.0083534746
-6.040111e-06
0.0083490977
-4.8930278e-06
0.0083449899
-3.8739896e-06
0.0083411368
-3.1827186e-06
0.0083374991
-2.7311242e-06
0.0083340774
-2.3971205e-06
0.0083308915
-2.1145893e-06
0.0083279508
-1.8675536e-06
0.0083252454
-1.6582289e-06
0.0083227545
-1.4865976e-06
0.0083204555
-1.3465377e-06
0.0083183287
-1.2296272e-06
0.0083163579
-1.1289229e-06
0.0083145291
-1.0401412e-06
0.0083128297
-9.6096551e-07
0.0083112484
-8.8998294e-07
0.008309775
-8.2605486e-07
0.0083084003
-7.6814953e-07
0.0083071165
-7.1538478e-07
0.0083059165
-6.6705743e-07
0.0083047938
-6.2262986e-07
0.008303743
-5.8167244e-07
0.0083027588
-5.4383128e-07
0.0083018365
-5.0879464e-07
0.0083009718
-4.7629521e-07
0.008300161
-4.4609372e-07
0.0082994004
-4.1798792e-07
0.0082986867
-3.9179401e-07
0.0082980169
-3.6735651e-07
0.0082973883
-3.4452999e-07
0.0082967981
-3.2319192e-07
0.0082962441
-3.0322472e-07
0.0082957239
-2.8453026e-07
0.0082952355
-2.6701197e-07
0.008294777
-2.5059058e-07
0.0082943465
-2.3518565e-07
0.0082939423
-2.2073215e-07
0.0082935628
-2.0716202e-07
0.0082932066
-1.9442157e-07
0.0082928722
-1.8245263e-07
0.0082925584
-1.712103e-07
0.0082922639
-1.6064415e-07
0.0082919876
-1.5071659e-07
0.0082917283
-1.4138365e-07
0.0082914851
-1.326134e-07
0.008291257
-1.2436703e-07
0.0082910431
-1.1661759e-07
0.0082908425
-1.0933068e-07
0.0082906545
-1.0248324e-07
0.0082904783
-9.6044471e-08
0.0082903132
-8.9994859e-08
0.0082901585
-8.4306808e-08
0.0082900136
-7.8963579e-08
0.008289878
-7.3940205e-08
0.008289751
-6.9222593e-08
0.0082896321
-6.4788206e-08
0.0082895209
-6.0624997e-08
0.0082894168
-5.6712415e-08
0.0082893195
-5.3040451e-08
0.0082892285
-4.9590446e-08
0.0082891435
-4.6353922e-08
0.008289064
-4.3313748e-08
0.0082889898
-4.0463043e-08
0.0082889204
-3.7786168e-08
0.0082888557
-3.5277388e-08
0.0082887953
-3.2922249e-08
0.008288739
-3.0716267e-08
0.0082886864
-2.8646193e-08
0.0082886374
-2.6708375e-08
0.0082885918
-2.4890513e-08
0.0082885492
-2.3189911e-08
0.0082885096
-2.1595296e-08
0.0082884728
-2.0104507e-08
0.0082884385
-1.8707133e-08
0.0082884065
-1.7401621e-08
0.0082883769
-1.6178625e-08
0.0082883493
-1.5036672e-08
0.0082883237
-1.3967519e-08
0.0082882999
-1.2969628e-08
0.0082882778
-1.2036391e-08
0.0082882574
-1.1165282e-08
0.0082882384
-1.035193e-08
0.0082882208
-9.5919814e-09
0.0082882045
-8.8847494e-09
0.0082881895
-8.2219959e-09
0.0082881755
-7.6087931e-09
0.0082881626
-7.0303674e-09
0.0082881507
-6.5009482e-09
0.0082881397
-5.9949481e-09
0.0082881296
-5.5401512e-09
0.0082881202
-5.0966055e-09
0.0082881116
-4.7098416e-09
0.0082881037
-4.3223676e-09
0.0082880963
-3.9950602e-09
0.0082880897
-3.6800082e-09
0.0082880833
-3.4189205e-09
-3.410612e-09
0.0033109165
0.0033057533
0.0032992281
0.0032931878
0.0032882945
0.0032844203
0.0032812373
0.003278506
0.0032761087
0.0032739939
0.0032721262
0.0032704678
0.0032689811
0.0032676344
0.0032664047
0.0032652757
0.0032642355
0.0032632744
0.0032623844
0.0032615583
0.0032607901
0.0032600746
0.0032594075
0.0032587849
0.0032582032
0.0032576593
0.0032571505
0.0032566741
0.003256228
0.00325581
0.0032554182
0.0032550508
0.0032547063
0.0032543831
0.0032540798
0.0032537953
0.0032535283
0.0032532777
0.0032530425
0.0032528217
0.0032526146
0.0032524201
0.0032522377
0.0032520665
0.0032519058
0.0032517551
0.0032516137
0.0032514811
0.0032513567
0.0032512401
0.0032511308
0.0032510283
0.0032509322
0.0032508423
0.0032507579
0.003250679
0.003250605
0.0032505358
0.003250471
0.0032504104
0.0032503537
0.0032503007
0.0032502511
0.0032502047
0.0032501614
0.0032501209
0.0032500832
0.0032500479
0.003250015
0.0032499842
0.0032499556
0.0032499289
0.003249904
0.0032498808
0.0032498592
0.0032498391
0.0032498204
0.003249803
0.0032497868
0.0032497718
0.0032497578
0.0032497449
0.0032497328
0.0032497217
0.0032497113
0.0032497017
0.0032496928
0.0032496846
0.003249677
0.00324967
0.0032496635
0.0032496575
0.003249652
0.0032496469
0.0032496422
0.0032496378
0.0032496338
0.0032496302
0.0032496267
)
;

boundaryField
{
    top
    {
        type            calculated;
        value           uniform 0;
    }
    inlet
    {
        type            calculated;
        value           nonuniform List<scalar> 10(-0.0033124138 -0.0083636206 -0.011983786 -0.01431023 -0.015446014 -0.015446012 -0.014310231 -0.011983786 -0.0083636211 -0.0033124151);
    }
    outlet
    {
        type            calculated;
        value           nonuniform List<scalar> 10(0.0032496235 0.0082880784 0.011965028 0.014364777 0.01554855 0.01554855 0.014364777 0.011965028 0.008288078 0.0032496233);
    }
    bottom
    {
        type            calculated;
        value           uniform 0;
    }
    back
    {
        type            empty;
        value           nonuniform 0();
    }
    front
    {
        type            empty;
        value           nonuniform 0();
    }
}


// ************************************************************************* //
