/*--------------------------------*- C++ -*----------------------------------*\
| =========                 |                                                 |
| \\      /  F ield         | OpenFOAM: The Open Source CFD Toolbox           |
|  \\    /   O peration     | Version:  v1812                                 |
|   \\  /    A nd           | Web:      www.OpenFOAM.com                      |
|    \\/     M anipulation  |                                                 |
\*---------------------------------------------------------------------------*/
FoamFile
{
    version     2.0;
    format      ascii;
    class       volScalarField;
    location    "60";
    object      T;
}
// * * * * * * * * * * * * * * * * * * * * * * * * * * * * * * * * * * * * * //

dimensions      [0 0 0 1 0 0 0];


internalField   nonuniform List<scalar> 
10000
(
1.44528
1.44528
1.44528
1.44528
1.44528
1.44528
1.44528
1.44528
1.44528
1.44528
1.3363
1.3363
1.3363
1.3363
1.3363
1.3363
1.3363
1.3363
1.3363
1.3363
1.22868
1.22868
1.22868
1.22868
1.22868
1.22868
1.22868
1.22868
1.22868
1.22868
1.12329
1.12329
1.12329
1.12329
1.12329
1.12329
1.12329
1.12329
1.12329
1.12329
1.02096
1.02096
1.02096
1.02096
1.02096
1.02096
1.02096
1.02096
1.02096
1.02096
0.922411
0.922411
0.922411
0.92241
0.92241
0.92241
0.92241
0.92241
0.92241
0.92241
0.828306
0.828306
0.828305
0.828305
0.828305
0.828305
0.828305
0.828305
0.828305
0.828305
0.739191
0.739191
0.739191
0.73919
0.73919
0.73919
0.73919
0.73919
0.739191
0.739191
0.655505
0.655506
0.655505
0.655505
0.655504
0.655504
0.655504
0.655505
0.655505
0.655505
0.577572
0.577572
0.577572
0.577571
0.577571
0.577571
0.577571
0.577571
0.577572
0.577572
0.505599
0.5056
0.505599
0.505599
0.505598
0.505598
0.505598
0.505599
0.505599
0.505599
0.439683
0.439684
0.439683
0.439683
0.439682
0.439682
0.439682
0.439683
0.439683
0.439683
0.379816
0.379816
0.379815
0.379815
0.379815
0.379814
0.379815
0.379815
0.379815
0.379815
0.325891
0.325892
0.325891
0.32589
0.32589
0.32589
0.32589
0.32589
0.325891
0.325891
0.277723
0.277723
0.277722
0.277722
0.277721
0.277721
0.277721
0.277721
0.277721
0.277721
0.23505
0.23505
0.23505
0.235049
0.235049
0.235049
0.235048
0.235048
0.235049
0.235048
0.197559
0.197559
0.197559
0.197558
0.197557
0.197557
0.197556
0.197556
0.197556
0.197556
0.164891
0.164891
0.16489
0.164889
0.164889
0.164888
0.164887
0.164887
0.164887
0.164886
0.13666
0.136659
0.136658
0.136657
0.136656
0.136655
0.136654
0.136653
0.136652
0.136652
0.112462
0.112461
0.11246
0.112458
0.112456
0.112454
0.112452
0.112451
0.11245
0.112449
0.0918908
0.09189
0.0918881
0.0918856
0.0918827
0.0918795
0.0918763
0.0918736
0.0918716
0.0918704
0.0745453
0.0745442
0.0745415
0.0745378
0.0745332
0.0745282
0.0745231
0.0745185
0.0745151
0.0745131
0.0600384
0.0600366
0.0600327
0.0600272
0.0600204
0.0600125
0.0600044
0.0599968
0.0599909
0.0599876
0.0480034
0.0480008
0.0479953
0.0479872
0.0479769
0.0479647
0.0479517
0.0479393
0.0479294
0.0479237
0.0380995
0.0380958
0.038088
0.0380764
0.038061
0.0380425
0.0380219
0.0380016
0.0379848
0.037975
0.0300148
0.0300096
0.0299988
0.0299824
0.02996
0.0299321
0.0298999
0.0298666
0.0298377
0.0298202
0.0234679
0.023461
0.0234465
0.0234239
0.0233922
0.0233509
0.0233011
0.0232465
0.0231959
0.0231633
0.018209
0.0182001
0.0181813
0.0181512
0.0181078
0.0180487
0.0179732
0.017884
0.0177935
0.0177289
0.0140188
0.0140079
0.0139846
0.0139465
0.0138897
0.0138088
0.0136982
0.0135554
0.0133905
0.0132507
0.0107078
0.010695
0.0106677
0.0106221
0.0105522
0.0104483
0.0102966
0.010079
0.00978049
0.00944097
1.44528
1.44528
1.44528
1.44528
1.44528
1.44528
1.44528
1.44528
1.44528
1.44528
1.3363
1.3363
1.3363
1.3363
1.3363
1.3363
1.3363
1.3363
1.3363
1.3363
1.22868
1.22868
1.22868
1.22868
1.22868
1.22868
1.22868
1.22868
1.22868
1.22868
1.12329
1.12329
1.12329
1.12329
1.12329
1.12329
1.12329
1.12329
1.12329
1.12329
1.02096
1.02096
1.02096
1.02096
1.02096
1.02096
1.02096
1.02096
1.02096
1.02096
0.922411
0.922411
0.922411
0.92241
0.92241
0.92241
0.92241
0.92241
0.92241
0.92241
0.828306
0.828306
0.828305
0.828305
0.828305
0.828305
0.828305
0.828305
0.828305
0.828305
0.739191
0.739191
0.739191
0.73919
0.73919
0.73919
0.73919
0.73919
0.739191
0.739191
0.655506
0.655506
0.655505
0.655505
0.655504
0.655504
0.655504
0.655505
0.655505
0.655505
0.577572
0.577572
0.577572
0.577571
0.577571
0.577571
0.577571
0.577571
0.577572
0.577572
0.5056
0.5056
0.505599
0.505599
0.505598
0.505598
0.505598
0.505599
0.505599
0.505599
0.439684
0.439684
0.439683
0.439683
0.439682
0.439682
0.439682
0.439683
0.439683
0.439683
0.379816
0.379816
0.379815
0.379815
0.379814
0.379814
0.379814
0.379815
0.379815
0.379815
0.325892
0.325891
0.325891
0.32589
0.32589
0.32589
0.32589
0.32589
0.325891
0.325891
0.277723
0.277723
0.277722
0.277721
0.277721
0.277721
0.277721
0.277721
0.277722
0.277721
0.235051
0.23505
0.23505
0.235049
0.235049
0.235048
0.235048
0.235048
0.235049
0.235049
0.197559
0.197559
0.197558
0.197558
0.197557
0.197557
0.197556
0.197556
0.197556
0.197556
0.164891
0.164891
0.16489
0.164889
0.164889
0.164888
0.164887
0.164887
0.164887
0.164886
0.13666
0.136659
0.136658
0.136657
0.136656
0.136655
0.136654
0.136653
0.136652
0.136652
0.112462
0.112461
0.11246
0.112458
0.112456
0.112454
0.112452
0.112451
0.11245
0.112449
0.0918908
0.09189
0.0918881
0.0918856
0.0918826
0.0918794
0.0918763
0.0918736
0.0918717
0.0918705
0.0745454
0.0745441
0.0745414
0.0745377
0.0745332
0.0745282
0.0745231
0.0745186
0.0745152
0.0745131
0.0600384
0.0600366
0.0600327
0.0600272
0.0600203
0.0600125
0.0600043
0.0599968
0.059991
0.0599876
0.0480034
0.0480007
0.0479952
0.0479872
0.0479768
0.0479647
0.0479517
0.0479394
0.0479295
0.0479238
0.0380996
0.0380958
0.038088
0.0380763
0.038061
0.0380424
0.0380219
0.0380017
0.0379849
0.037975
0.0300148
0.0300096
0.0299988
0.0299824
0.02996
0.0299321
0.0298999
0.0298666
0.0298378
0.0298203
0.023468
0.023461
0.0234465
0.0234238
0.0233921
0.0233509
0.0233011
0.0232465
0.0231959
0.0231633
0.018209
0.0182
0.0181813
0.0181512
0.0181077
0.0180487
0.0179731
0.017884
0.0177935
0.0177289
0.0140189
0.0140079
0.0139846
0.0139465
0.0138896
0.0138087
0.0136982
0.0135554
0.0133905
0.0132507
0.0107078
0.010695
0.0106677
0.0106221
0.0105522
0.0104483
0.0102966
0.010079
0.00978051
0.00944099
1.44528
1.44528
1.44528
1.44528
1.44528
1.44528
1.44528
1.44528
1.44528
1.44528
1.3363
1.3363
1.3363
1.3363
1.3363
1.3363
1.3363
1.3363
1.3363
1.3363
1.22868
1.22868
1.22868
1.22868
1.22868
1.22868
1.22868
1.22868
1.22868
1.22868
1.12329
1.12329
1.12329
1.12329
1.12329
1.12329
1.12329
1.12329
1.12329
1.12329
1.02096
1.02096
1.02096
1.02096
1.02096
1.02096
1.02096
1.02096
1.02096
1.02096
0.922411
0.922411
0.92241
0.92241
0.922409
0.922409
0.922409
0.92241
0.92241
0.92241
0.828305
0.828305
0.828305
0.828304
0.828304
0.828304
0.828304
0.828305
0.828305
0.828305
0.739191
0.739191
0.73919
0.73919
0.739189
0.739189
0.73919
0.73919
0.73919
0.73919
0.655505
0.655505
0.655504
0.655504
0.655504
0.655504
0.655504
0.655504
0.655505
0.655505
0.577572
0.577572
0.577571
0.577571
0.57757
0.57757
0.577571
0.577571
0.577572
0.577572
0.505599
0.505599
0.505598
0.505598
0.505598
0.505598
0.505598
0.505598
0.505599
0.505599
0.439683
0.439683
0.439682
0.439682
0.439682
0.439682
0.439682
0.439682
0.439683
0.439683
0.379815
0.379815
0.379814
0.379814
0.379814
0.379814
0.379814
0.379814
0.379815
0.379815
0.325891
0.325891
0.32589
0.32589
0.325889
0.325889
0.32589
0.32589
0.32589
0.325891
0.277722
0.277722
0.277721
0.277721
0.277721
0.27772
0.277721
0.277721
0.277721
0.277721
0.23505
0.23505
0.235049
0.235049
0.235048
0.235048
0.235048
0.235048
0.235048
0.235048
0.197559
0.197559
0.197558
0.197557
0.197557
0.197556
0.197556
0.197556
0.197556
0.197556
0.164891
0.164891
0.16489
0.164889
0.164888
0.164887
0.164887
0.164887
0.164887
0.164886
0.136659
0.136659
0.136658
0.136657
0.136655
0.136654
0.136653
0.136652
0.136652
0.136652
0.112462
0.112461
0.11246
0.112458
0.112456
0.112454
0.112452
0.112451
0.11245
0.112449
0.0918906
0.0918897
0.0918878
0.0918853
0.0918823
0.0918791
0.0918761
0.0918734
0.0918716
0.0918704
0.0745452
0.0745439
0.0745412
0.0745374
0.0745329
0.0745279
0.0745229
0.0745184
0.0745151
0.0745131
0.0600382
0.0600363
0.0600325
0.060027
0.0600201
0.0600123
0.0600041
0.0599967
0.0599909
0.0599876
0.0480033
0.0480006
0.047995
0.047987
0.0479766
0.0479645
0.0479516
0.0479392
0.0479294
0.0479238
0.0380994
0.0380956
0.0380878
0.0380762
0.0380608
0.0380423
0.0380218
0.0380015
0.0379848
0.037975
0.0300147
0.0300095
0.0299987
0.0299822
0.0299599
0.029932
0.0298998
0.0298666
0.0298377
0.0298202
0.0234679
0.0234609
0.0234464
0.0234237
0.023392
0.0233508
0.023301
0.0232464
0.0231959
0.0231633
0.0182089
0.0182
0.0181812
0.0181511
0.0181077
0.0180486
0.0179731
0.017884
0.0177935
0.0177289
0.0140188
0.0140078
0.0139845
0.0139464
0.0138896
0.0138087
0.0136982
0.0135553
0.0133905
0.0132507
0.0107077
0.0106949
0.0106676
0.0106221
0.0105521
0.0104482
0.0102966
0.010079
0.00978049
0.00944098
1.44528
1.44528
1.44528
1.44528
1.44528
1.44528
1.44528
1.44528
1.44528
1.44528
1.3363
1.3363
1.3363
1.3363
1.3363
1.3363
1.3363
1.3363
1.3363
1.3363
1.22868
1.22868
1.22868
1.22868
1.22868
1.22868
1.22868
1.22868
1.22868
1.22868
1.12329
1.12329
1.12329
1.12329
1.12329
1.12329
1.12329
1.12329
1.12329
1.12329
1.02096
1.02096
1.02096
1.02096
1.02096
1.02096
1.02096
1.02096
1.02096
1.02096
0.92241
0.92241
0.92241
0.922409
0.922409
0.922409
0.922409
0.922409
0.92241
0.92241
0.828305
0.828305
0.828304
0.828304
0.828304
0.828304
0.828304
0.828304
0.828305
0.828305
0.73919
0.73919
0.73919
0.739189
0.739189
0.739189
0.739189
0.73919
0.73919
0.73919
0.655505
0.655505
0.655504
0.655504
0.655503
0.655503
0.655504
0.655504
0.655505
0.655505
0.577571
0.577571
0.577571
0.57757
0.57757
0.57757
0.57757
0.577571
0.577571
0.577571
0.505599
0.505599
0.505598
0.505597
0.505597
0.505597
0.505597
0.505598
0.505599
0.505599
0.439683
0.439683
0.439682
0.439682
0.439681
0.439681
0.439682
0.439682
0.439683
0.439683
0.379815
0.379815
0.379814
0.379814
0.379813
0.379813
0.379814
0.379814
0.379815
0.379815
0.325891
0.325891
0.32589
0.325889
0.325889
0.325889
0.325889
0.32589
0.32589
0.32589
0.277722
0.277722
0.277721
0.277721
0.27772
0.27772
0.27772
0.277721
0.277721
0.277721
0.23505
0.23505
0.235049
0.235048
0.235048
0.235048
0.235048
0.235048
0.235048
0.235048
0.197559
0.197558
0.197558
0.197557
0.197556
0.197556
0.197556
0.197556
0.197556
0.197556
0.164891
0.16489
0.16489
0.164889
0.164888
0.164887
0.164887
0.164886
0.164886
0.164886
0.136659
0.136659
0.136658
0.136656
0.136655
0.136654
0.136653
0.136652
0.136652
0.136652
0.112461
0.112461
0.112459
0.112458
0.112456
0.112454
0.112452
0.112451
0.11245
0.112449
0.0918904
0.0918895
0.0918876
0.0918851
0.0918822
0.091879
0.0918759
0.0918733
0.0918715
0.0918704
0.074545
0.0745437
0.074541
0.0745373
0.0745328
0.0745278
0.0745228
0.0745183
0.074515
0.0745131
0.0600381
0.0600362
0.0600323
0.0600269
0.06002
0.0600122
0.0600041
0.0599966
0.0599909
0.0599876
0.0480032
0.0480005
0.0479949
0.0479869
0.0479766
0.0479644
0.0479515
0.0479392
0.0479294
0.0479238
0.0380994
0.0380955
0.0380877
0.0380761
0.0380608
0.0380422
0.0380217
0.0380015
0.0379848
0.037975
0.0300146
0.0300094
0.0299986
0.0299822
0.0299598
0.0299319
0.0298997
0.0298665
0.0298377
0.0298202
0.0234678
0.0234608
0.0234463
0.0234237
0.023392
0.0233508
0.023301
0.0232464
0.0231959
0.0231633
0.0182089
0.0181999
0.0181811
0.0181511
0.0181076
0.0180486
0.017973
0.017884
0.0177935
0.0177289
0.0140188
0.0140078
0.0139845
0.0139464
0.0138895
0.0138087
0.0136981
0.0135553
0.0133905
0.0132507
0.0107077
0.0106949
0.0106676
0.010622
0.0105521
0.0104482
0.0102966
0.010079
0.00978049
0.00944098
1.44528
1.44528
1.44528
1.44528
1.44528
1.44528
1.44528
1.44528
1.44528
1.44528
1.3363
1.3363
1.3363
1.3363
1.3363
1.3363
1.3363
1.3363
1.3363
1.3363
1.22868
1.22868
1.22868
1.22868
1.22868
1.22868
1.22868
1.22868
1.22868
1.22868
1.12329
1.12329
1.12329
1.12329
1.12329
1.12329
1.12329
1.12329
1.12329
1.12329
1.02096
1.02096
1.02096
1.02096
1.02096
1.02096
1.02096
1.02096
1.02096
1.02096
0.92241
0.92241
0.922409
0.922409
0.922409
0.922409
0.922409
0.922409
0.92241
0.92241
0.828305
0.828305
0.828304
0.828304
0.828304
0.828304
0.828304
0.828304
0.828305
0.828305
0.73919
0.73919
0.739189
0.739189
0.739189
0.739189
0.739189
0.73919
0.73919
0.73919
0.655504
0.655504
0.655504
0.655503
0.655503
0.655503
0.655503
0.655504
0.655505
0.655505
0.577571
0.577571
0.57757
0.57757
0.57757
0.57757
0.57757
0.577571
0.577571
0.577571
0.505598
0.505598
0.505598
0.505597
0.505597
0.505597
0.505597
0.505598
0.505599
0.505599
0.439683
0.439682
0.439682
0.439681
0.439681
0.439681
0.439681
0.439682
0.439683
0.439683
0.379815
0.379815
0.379814
0.379813
0.379813
0.379813
0.379814
0.379814
0.379815
0.379815
0.32589
0.32589
0.32589
0.325889
0.325889
0.325889
0.325889
0.32589
0.32589
0.325891
0.277722
0.277722
0.277721
0.27772
0.27772
0.27772
0.27772
0.277721
0.277721
0.277721
0.23505
0.235049
0.235049
0.235048
0.235048
0.235048
0.235048
0.235048
0.235048
0.235048
0.197559
0.197558
0.197558
0.197557
0.197556
0.197556
0.197556
0.197556
0.197556
0.197556
0.164891
0.16489
0.164889
0.164889
0.164888
0.164887
0.164887
0.164886
0.164886
0.164886
0.136659
0.136659
0.136658
0.136656
0.136655
0.136654
0.136653
0.136652
0.136652
0.136652
0.112461
0.112461
0.112459
0.112458
0.112456
0.112454
0.112452
0.112451
0.11245
0.112449
0.0918904
0.0918895
0.0918875
0.0918851
0.0918821
0.091879
0.0918759
0.0918734
0.0918716
0.0918705
0.074545
0.0745437
0.074541
0.0745373
0.0745328
0.0745278
0.0745228
0.0745183
0.0745151
0.0745132
0.0600381
0.0600362
0.0600323
0.0600268
0.06002
0.0600122
0.0600041
0.0599966
0.0599909
0.0599877
0.0480031
0.0480004
0.0479949
0.0479869
0.0479766
0.0479645
0.0479515
0.0479392
0.0479295
0.0479238
0.0380993
0.0380955
0.0380877
0.0380761
0.0380608
0.0380422
0.0380218
0.0380015
0.0379848
0.0379751
0.0300146
0.0300094
0.0299986
0.0299822
0.0299598
0.0299319
0.0298998
0.0298666
0.0298377
0.0298203
0.0234678
0.0234608
0.0234463
0.0234237
0.023392
0.0233508
0.023301
0.0232464
0.0231959
0.0231634
0.0182089
0.0181999
0.0181811
0.0181511
0.0181076
0.0180486
0.0179731
0.017884
0.0177935
0.017729
0.0140187
0.0140078
0.0139845
0.0139464
0.0138895
0.0138087
0.0136982
0.0135554
0.0133905
0.0132507
0.0107077
0.0106949
0.0106676
0.0106221
0.0105521
0.0104482
0.0102966
0.010079
0.00978051
0.009441
1.44528
1.44528
1.44528
1.44528
1.44528
1.44528
1.44528
1.44528
1.44528
1.44528
1.3363
1.3363
1.3363
1.3363
1.3363
1.3363
1.3363
1.3363
1.3363
1.3363
1.22868
1.22868
1.22868
1.22868
1.22868
1.22868
1.22868
1.22868
1.22868
1.22868
1.12329
1.12329
1.12329
1.12329
1.12329
1.12329
1.12329
1.12329
1.12329
1.12329
1.02096
1.02096
1.02096
1.02096
1.02096
1.02096
1.02096
1.02096
1.02096
1.02096
0.92241
0.92241
0.922409
0.922409
0.922409
0.922409
0.922409
0.922409
0.92241
0.92241
0.828305
0.828305
0.828304
0.828304
0.828304
0.828304
0.828304
0.828304
0.828305
0.828305
0.73919
0.73919
0.739189
0.739189
0.739189
0.739189
0.739189
0.73919
0.73919
0.73919
0.655504
0.655504
0.655504
0.655503
0.655503
0.655503
0.655503
0.655504
0.655505
0.655505
0.577571
0.577571
0.57757
0.57757
0.57757
0.57757
0.57757
0.577571
0.577571
0.577572
0.505598
0.505598
0.505598
0.505597
0.505597
0.505597
0.505597
0.505598
0.505599
0.505599
0.439683
0.439682
0.439682
0.439681
0.439681
0.439681
0.439682
0.439682
0.439683
0.439683
0.379815
0.379815
0.379814
0.379814
0.379813
0.379813
0.379814
0.379814
0.379815
0.379815
0.325891
0.32589
0.32589
0.325889
0.325889
0.325889
0.325889
0.32589
0.325891
0.325891
0.277722
0.277722
0.277721
0.277721
0.27772
0.27772
0.27772
0.277721
0.277721
0.277722
0.23505
0.235049
0.235049
0.235048
0.235048
0.235048
0.235048
0.235048
0.235049
0.235049
0.197559
0.197558
0.197558
0.197557
0.197557
0.197556
0.197556
0.197556
0.197556
0.197556
0.164891
0.16489
0.16489
0.164889
0.164888
0.164887
0.164887
0.164887
0.164887
0.164887
0.136659
0.136659
0.136658
0.136657
0.136655
0.136654
0.136653
0.136652
0.136652
0.136652
0.112461
0.112461
0.112459
0.112458
0.112456
0.112454
0.112452
0.112451
0.11245
0.112449
0.0918904
0.0918895
0.0918876
0.0918851
0.0918822
0.0918791
0.0918761
0.0918735
0.0918717
0.0918706
0.074545
0.0745437
0.074541
0.0745374
0.0745329
0.0745279
0.0745229
0.0745185
0.0745152
0.0745133
0.0600381
0.0600362
0.0600324
0.0600269
0.0600201
0.0600123
0.0600042
0.0599968
0.0599911
0.0599878
0.0480032
0.0480005
0.047995
0.0479869
0.0479766
0.0479645
0.0479516
0.0479393
0.0479296
0.047924
0.0380994
0.0380956
0.0380878
0.0380762
0.0380608
0.0380423
0.0380218
0.0380016
0.0379849
0.0379752
0.0300147
0.0300094
0.0299987
0.0299822
0.0299599
0.029932
0.0298998
0.0298666
0.0298378
0.0298204
0.0234678
0.0234608
0.0234464
0.0234237
0.023392
0.0233508
0.023301
0.0232465
0.023196
0.0231635
0.0182089
0.0181999
0.0181812
0.0181511
0.0181077
0.0180487
0.0179731
0.017884
0.0177936
0.017729
0.0140188
0.0140078
0.0139845
0.0139464
0.0138896
0.0138087
0.0136982
0.0135554
0.0133906
0.0132508
0.0107077
0.0106949
0.0106676
0.0106221
0.0105521
0.0104483
0.0102966
0.010079
0.00978055
0.00944104
1.44528
1.44528
1.44528
1.44528
1.44528
1.44528
1.44528
1.44528
1.44528
1.44528
1.3363
1.3363
1.3363
1.3363
1.3363
1.3363
1.3363
1.3363
1.3363
1.3363
1.22868
1.22868
1.22868
1.22868
1.22868
1.22868
1.22868
1.22868
1.22868
1.22868
1.12329
1.12329
1.12329
1.12329
1.12329
1.12329
1.12329
1.12329
1.12329
1.12329
1.02096
1.02096
1.02096
1.02096
1.02096
1.02096
1.02096
1.02096
1.02096
1.02096
0.92241
0.92241
0.922409
0.922409
0.922409
0.922409
0.922409
0.92241
0.92241
0.92241
0.828305
0.828305
0.828304
0.828304
0.828304
0.828304
0.828304
0.828304
0.828305
0.828305
0.73919
0.73919
0.73919
0.739189
0.739189
0.739189
0.739189
0.73919
0.739191
0.739191
0.655505
0.655504
0.655504
0.655504
0.655503
0.655503
0.655504
0.655504
0.655505
0.655505
0.577571
0.577571
0.577571
0.57757
0.57757
0.57757
0.577571
0.577571
0.577572
0.577572
0.505599
0.505599
0.505598
0.505598
0.505597
0.505598
0.505598
0.505598
0.505599
0.505599
0.439683
0.439683
0.439682
0.439682
0.439682
0.439682
0.439682
0.439683
0.439683
0.439683
0.379815
0.379815
0.379814
0.379814
0.379814
0.379814
0.379814
0.379815
0.379815
0.379816
0.325891
0.325891
0.32589
0.32589
0.325889
0.32589
0.32589
0.32589
0.325891
0.325891
0.277722
0.277722
0.277721
0.277721
0.277721
0.277721
0.277721
0.277721
0.277722
0.277722
0.23505
0.23505
0.235049
0.235049
0.235048
0.235048
0.235048
0.235048
0.235049
0.235049
0.197559
0.197559
0.197558
0.197557
0.197557
0.197556
0.197556
0.197556
0.197557
0.197557
0.164891
0.164891
0.16489
0.164889
0.164888
0.164888
0.164887
0.164887
0.164887
0.164887
0.136659
0.136659
0.136658
0.136657
0.136656
0.136654
0.136653
0.136653
0.136653
0.136652
0.112462
0.112461
0.11246
0.112458
0.112456
0.112454
0.112452
0.112451
0.11245
0.11245
0.0918906
0.0918897
0.0918878
0.0918854
0.0918825
0.0918794
0.0918763
0.0918738
0.091872
0.0918709
0.0745452
0.0745439
0.0745412
0.0745376
0.0745331
0.0745281
0.0745232
0.0745187
0.0745155
0.0745135
0.0600382
0.0600364
0.0600325
0.0600271
0.0600203
0.0600125
0.0600044
0.059997
0.0599913
0.059988
0.0480033
0.0480006
0.0479951
0.0479871
0.0479768
0.0479647
0.0479518
0.0479395
0.0479297
0.0479241
0.0380995
0.0380957
0.0380879
0.0380763
0.038061
0.0380425
0.038022
0.0380018
0.0379851
0.0379753
0.0300148
0.0300095
0.0299988
0.0299823
0.02996
0.0299321
0.0299
0.0298668
0.029838
0.0298205
0.0234679
0.0234609
0.0234464
0.0234238
0.0233922
0.023351
0.0233012
0.0232466
0.0231961
0.0231636
0.018209
0.0182
0.0181812
0.0181512
0.0181078
0.0180488
0.0179732
0.0178841
0.0177936
0.0177291
0.0140188
0.0140078
0.0139846
0.0139465
0.0138897
0.0138088
0.0136983
0.0135555
0.0133906
0.0132508
0.0107078
0.010695
0.0106677
0.0106221
0.0105522
0.0104483
0.0102967
0.0100791
0.00978061
0.0094411
1.44528
1.44528
1.44528
1.44528
1.44528
1.44528
1.44528
1.44528
1.44528
1.44528
1.3363
1.3363
1.3363
1.3363
1.3363
1.3363
1.3363
1.3363
1.3363
1.3363
1.22868
1.22868
1.22868
1.22868
1.22868
1.22868
1.22868
1.22868
1.22868
1.22868
1.12329
1.12329
1.12329
1.12329
1.12329
1.12329
1.12329
1.12329
1.12329
1.12329
1.02096
1.02096
1.02096
1.02096
1.02096
1.02096
1.02096
1.02096
1.02096
1.02096
0.92241
0.92241
0.92241
0.922409
0.922409
0.922409
0.92241
0.92241
0.92241
0.922411
0.828305
0.828305
0.828305
0.828304
0.828304
0.828304
0.828304
0.828305
0.828305
0.828306
0.73919
0.73919
0.73919
0.73919
0.73919
0.73919
0.73919
0.73919
0.739191
0.739191
0.655505
0.655505
0.655504
0.655504
0.655504
0.655504
0.655504
0.655505
0.655505
0.655506
0.577572
0.577572
0.577571
0.577571
0.577571
0.577571
0.577571
0.577572
0.577572
0.577572
0.505599
0.505599
0.505598
0.505598
0.505598
0.505598
0.505598
0.505599
0.5056
0.5056
0.439683
0.439683
0.439682
0.439682
0.439682
0.439682
0.439683
0.439683
0.439684
0.439684
0.379815
0.379815
0.379815
0.379814
0.379814
0.379814
0.379815
0.379815
0.379816
0.379816
0.325891
0.325891
0.32589
0.32589
0.32589
0.32589
0.32589
0.325891
0.325892
0.325892
0.277722
0.277722
0.277722
0.277721
0.277721
0.277721
0.277721
0.277722
0.277722
0.277722
0.23505
0.23505
0.23505
0.235049
0.235049
0.235049
0.235049
0.235049
0.23505
0.23505
0.197559
0.197559
0.197558
0.197558
0.197557
0.197557
0.197557
0.197557
0.197557
0.197557
0.164891
0.164891
0.16489
0.164889
0.164889
0.164888
0.164888
0.164887
0.164887
0.164887
0.13666
0.136659
0.136658
0.136657
0.136656
0.136655
0.136654
0.136653
0.136653
0.136653
0.112462
0.112461
0.11246
0.112458
0.112457
0.112455
0.112453
0.112451
0.112451
0.11245
0.0918908
0.09189
0.0918881
0.0918857
0.0918828
0.0918797
0.0918767
0.0918741
0.0918724
0.0918712
0.0745454
0.0745441
0.0745415
0.0745379
0.0745334
0.0745285
0.0745235
0.0745191
0.0745158
0.0745139
0.0600384
0.0600366
0.0600328
0.0600274
0.0600206
0.0600128
0.0600047
0.0599973
0.0599916
0.0599883
0.0480035
0.0480008
0.0479953
0.0479873
0.0479771
0.047965
0.0479521
0.0479398
0.04793
0.0479244
0.0380996
0.0380958
0.0380881
0.0380765
0.0380612
0.0380427
0.0380222
0.038002
0.0379853
0.0379755
0.0300149
0.0300097
0.0299989
0.0299825
0.0299602
0.0299323
0.0299002
0.029867
0.0298382
0.0298207
0.023468
0.023461
0.0234466
0.023424
0.0233923
0.0233511
0.0233013
0.0232468
0.0231963
0.0231637
0.0182091
0.0182001
0.0181814
0.0181513
0.0181079
0.0180489
0.0179734
0.0178843
0.0177938
0.0177292
0.0140189
0.0140079
0.0139847
0.0139466
0.0138898
0.0138089
0.0136984
0.0135556
0.0133907
0.0132509
0.0107078
0.0106951
0.0106678
0.0106222
0.0105523
0.0104484
0.0102968
0.0100792
0.0097807
0.00944118
1.44528
1.44528
1.44528
1.44528
1.44528
1.44528
1.44528
1.44528
1.44528
1.44528
1.3363
1.3363
1.3363
1.3363
1.3363
1.3363
1.3363
1.3363
1.3363
1.3363
1.22868
1.22868
1.22868
1.22868
1.22868
1.22868
1.22868
1.22868
1.22868
1.22868
1.12329
1.12329
1.12329
1.12329
1.12329
1.12329
1.12329
1.12329
1.12329
1.12329
1.02096
1.02096
1.02096
1.02096
1.02096
1.02096
1.02096
1.02096
1.02096
1.02096
0.92241
0.92241
0.92241
0.92241
0.92241
0.92241
0.92241
0.92241
0.922411
0.922411
0.828305
0.828305
0.828305
0.828305
0.828305
0.828305
0.828305
0.828305
0.828306
0.828306
0.739191
0.739191
0.73919
0.73919
0.73919
0.73919
0.739191
0.739191
0.739192
0.739192
0.655505
0.655505
0.655505
0.655505
0.655505
0.655505
0.655505
0.655505
0.655506
0.655506
0.577572
0.577572
0.577572
0.577571
0.577571
0.577571
0.577572
0.577572
0.577573
0.577573
0.505599
0.505599
0.505599
0.505599
0.505599
0.505599
0.505599
0.5056
0.5056
0.5056
0.439683
0.439683
0.439683
0.439683
0.439683
0.439683
0.439683
0.439684
0.439685
0.439685
0.379816
0.379816
0.379815
0.379815
0.379815
0.379815
0.379815
0.379816
0.379817
0.379817
0.325891
0.325891
0.325891
0.325891
0.325891
0.325891
0.325891
0.325892
0.325892
0.325892
0.277723
0.277723
0.277722
0.277722
0.277722
0.277722
0.277722
0.277722
0.277723
0.277723
0.23505
0.235051
0.23505
0.23505
0.23505
0.235049
0.235049
0.23505
0.23505
0.23505
0.197559
0.197559
0.197559
0.197558
0.197558
0.197558
0.197558
0.197558
0.197558
0.197558
0.164891
0.164891
0.164891
0.16489
0.164889
0.164889
0.164888
0.164888
0.164888
0.164888
0.13666
0.13666
0.136659
0.136658
0.136657
0.136656
0.136655
0.136654
0.136654
0.136653
0.112462
0.112462
0.11246
0.112459
0.112457
0.112455
0.112453
0.112452
0.112451
0.11245
0.091891
0.0918903
0.0918885
0.0918862
0.0918833
0.0918802
0.0918772
0.0918746
0.0918728
0.0918716
0.0745456
0.0745444
0.0745419
0.0745383
0.0745339
0.0745289
0.0745239
0.0745195
0.0745162
0.0745142
0.0600386
0.0600369
0.0600331
0.0600277
0.0600209
0.0600132
0.0600051
0.0599976
0.0599919
0.0599886
0.0480036
0.048001
0.0479956
0.0479877
0.0479774
0.0479653
0.0479524
0.0479401
0.0479303
0.0479246
0.0380998
0.038096
0.0380883
0.0380768
0.0380615
0.038043
0.0380225
0.0380023
0.0379856
0.0379758
0.030015
0.0300098
0.0299991
0.0299828
0.0299605
0.0299326
0.0299004
0.0298672
0.0298384
0.0298209
0.0234681
0.0234612
0.0234468
0.0234242
0.0233925
0.0233513
0.0233015
0.023247
0.0231964
0.0231639
0.0182092
0.0182003
0.0181815
0.0181515
0.0181081
0.0180491
0.0179735
0.0178844
0.0177939
0.0177294
0.014019
0.014008
0.0139848
0.0139468
0.0138899
0.0138091
0.0136985
0.0135557
0.0133909
0.0132511
0.0107079
0.0106952
0.0106679
0.0106224
0.0105524
0.0104485
0.0102969
0.0100793
0.0097808
0.00944127
1.44528
1.44528
1.44528
1.44528
1.44528
1.44528
1.44528
1.44528
1.44528
1.44528
1.3363
1.3363
1.3363
1.3363
1.3363
1.3363
1.3363
1.3363
1.3363
1.3363
1.22868
1.22868
1.22868
1.22868
1.22868
1.22868
1.22868
1.22868
1.22868
1.22868
1.12329
1.12329
1.12329
1.12329
1.12329
1.12329
1.12329
1.12329
1.12329
1.12329
1.02096
1.02096
1.02096
1.02096
1.02096
1.02096
1.02096
1.02096
1.02096
1.02096
0.92241
0.92241
0.92241
0.92241
0.92241
0.92241
0.92241
0.922411
0.922411
0.922411
0.828305
0.828305
0.828305
0.828305
0.828305
0.828305
0.828305
0.828306
0.828306
0.828306
0.739191
0.739191
0.73919
0.73919
0.73919
0.73919
0.739191
0.739191
0.739192
0.739191
0.655505
0.655505
0.655505
0.655505
0.655505
0.655505
0.655505
0.655506
0.655506
0.655506
0.577572
0.577572
0.577572
0.577572
0.577572
0.577572
0.577572
0.577572
0.577573
0.577573
0.505599
0.505599
0.505599
0.505599
0.505599
0.505599
0.505599
0.5056
0.5056
0.5056
0.439683
0.439683
0.439683
0.439683
0.439683
0.439683
0.439684
0.439684
0.439685
0.439684
0.379815
0.379816
0.379815
0.379815
0.379815
0.379815
0.379816
0.379816
0.379817
0.379816
0.325891
0.325891
0.325891
0.325891
0.325891
0.325891
0.325891
0.325892
0.325892
0.325892
0.277723
0.277723
0.277722
0.277722
0.277722
0.277722
0.277722
0.277723
0.277723
0.277723
0.23505
0.23505
0.23505
0.23505
0.23505
0.23505
0.23505
0.23505
0.23505
0.23505
0.197559
0.197559
0.197559
0.197559
0.197558
0.197558
0.197558
0.197558
0.197558
0.197558
0.164891
0.164891
0.164891
0.16489
0.164889
0.164889
0.164888
0.164888
0.164888
0.164888
0.13666
0.13666
0.136659
0.136658
0.136657
0.136656
0.136655
0.136654
0.136654
0.136653
0.112462
0.112462
0.11246
0.112459
0.112457
0.112455
0.112453
0.112452
0.112451
0.11245
0.091891
0.0918903
0.0918886
0.0918863
0.0918834
0.0918804
0.0918773
0.0918747
0.0918728
0.0918715
0.0745456
0.0745444
0.0745419
0.0745384
0.074534
0.074529
0.074524
0.0745196
0.0745162
0.0745141
0.0600386
0.0600369
0.0600332
0.0600278
0.060021
0.0600133
0.0600052
0.0599977
0.059992
0.0599885
0.0480037
0.048001
0.0479957
0.0479877
0.0479775
0.0479654
0.0479525
0.0479402
0.0479303
0.0479245
0.0380998
0.0380961
0.0380884
0.0380769
0.0380616
0.0380431
0.0380226
0.0380024
0.0379856
0.0379757
0.030015
0.0300099
0.0299992
0.0299828
0.0299605
0.0299326
0.0299005
0.0298673
0.0298384
0.0298208
0.0234681
0.0234612
0.0234468
0.0234242
0.0233926
0.0233514
0.0233016
0.0232471
0.0231965
0.0231638
0.0182092
0.0182003
0.0181815
0.0181515
0.0181081
0.0180491
0.0179736
0.0178845
0.017794
0.0177293
0.014019
0.0140081
0.0139848
0.0139468
0.01389
0.0138091
0.0136986
0.0135558
0.0133909
0.013251
0.0107079
0.0106952
0.0106679
0.0106224
0.0105525
0.0104486
0.0102969
0.0100793
0.00978082
0.00944124
0.00811339
0.0080994
0.00806924
0.00801841
0.00793889
0.00781732
0.0076309
0.00733726
0.00684421
0.0059018
0.00609817
0.00608372
0.00605258
0.00599996
0.00591743
0.00579107
0.00559787
0.00529892
0.00482742
0.00407673
0.00454662
0.00453258
0.00450242
0.00445175
0.00437304
0.0042545
0.0040783
0.00381865
0.00344193
0.00291832
0.00336274
0.00334984
0.0033223
0.0032765
0.00320654
0.0031037
0.00295617
0.00274944
0.00246961
0.00211294
0.00246749
0.00245621
0.00243232
0.00239311
0.00233433
0.00225018
0.00213356
0.00197718
0.00177632
0.00153398
0.00179652
0.00178709
0.00176726
0.00173517
0.00168799
0.00162214
0.00153371
0.00141939
0.00127823
0.00111393
0.00129804
0.00129045
0.00127462
0.00124935
0.0012129
0.00116323
0.00109838
0.00101716
0.000920004
0.000809878
0.000930876
0.00092497
0.000912762
0.000893528
0.000866295
0.000830034
0.00078398
0.000728058
0.000663328
0.000592116
0.000662693
0.00065824
0.000649109
0.000634914
0.000615185
0.000589536
0.000557925
0.000520987
0.00048039
0.00043888
0.000468397
0.000465133
0.000458493
0.000448308
0.000434418
0.000416816
0.00039587
0.000372659
0.000349573
0.000331765
0.00811341
0.00809939
0.00806923
0.0080184
0.00793888
0.00781731
0.00763089
0.00733725
0.00684422
0.00590181
0.00609817
0.00608372
0.00605257
0.00599995
0.00591742
0.00579106
0.00559786
0.00529892
0.00482742
0.00407674
0.00454662
0.00453258
0.00450242
0.00445174
0.00437303
0.00425449
0.0040783
0.00381864
0.00344193
0.00291832
0.00336274
0.00334984
0.00332229
0.0032765
0.00320653
0.0031037
0.00295616
0.00274944
0.0024696
0.00211294
0.00246749
0.00245621
0.00243232
0.0023931
0.00233432
0.00225017
0.00213356
0.00197718
0.00177632
0.00153398
0.00179652
0.00178708
0.00176726
0.00173516
0.00168798
0.00162214
0.00153371
0.00141939
0.00127823
0.00111392
0.00129804
0.00129044
0.00127462
0.00124935
0.0012129
0.00116323
0.00109838
0.00101716
0.000920003
0.000809878
0.000930877
0.000924969
0.00091276
0.000893527
0.000866293
0.000830033
0.000783979
0.000728057
0.000663327
0.000592116
0.000662693
0.000658238
0.000649107
0.000634913
0.000615183
0.000589534
0.000557924
0.000520987
0.000480389
0.000438879