/*--------------------------------*- C++ -*----------------------------------*\
| =========                 |                                                 |
| \\      /  F ield         | OpenFOAM: The Open Source CFD Toolbox           |
|  \\    /   O peration     | Version:  v1812                                 |
|   \\  /    A nd           | Web:      www.OpenFOAM.com                      |
|    \\/     M anipulation  |                                                 |
\*---------------------------------------------------------------------------*/
FoamFile
{
    version     2.0;
    format      ascii;
    class       volScalarField;
    location    "1";
    object      p;
}
// * * * * * * * * * * * * * * * * * * * * * * * * * * * * * * * * * * * * * //

dimensions      [0 2 -2 0 0 0 0];


internalField   nonuniform List<scalar> 
1000
(
2.0364935
1.9154794
1.8195789
1.7556488
1.7067865
1.664905
1.6294438
1.6005548
1.5771063
1.5573557
1.5397531
1.5231857
1.5069434
1.490643
1.4741426
1.4574226
1.4405201
1.4234827
1.4063535
1.3891662
1.3719444
1.3547035
1.3374527
1.320197
1.3029393
1.2856809
1.2684224
1.251164
1.2339058
1.2166477
1.1993897
1.1821317
1.1648739
1.147616
1.1303582
1.1131003
1.0958425
1.0785847
1.0613269
1.044069
1.0268112
1.0095534
0.99229556
0.97503773
0.95777991
0.94052208
0.92326425
0.90600642
0.88874859
0.87149077
0.85423294
0.83697511
0.81971728
0.80245945
0.78520162
0.76794379
0.75068597
0.73342814
0.71617031
0.69891248
0.68165465
0.66439682
0.64713899
0.62988117
0.61262334
0.59536551
0.57810768
0.56084985
0.54359202
0.5263342
0.50907637
0.49181854
0.47456071
0.45730288
0.44004506
0.42278723
0.4055294
0.38827159
0.37101373
0.35375595
0.33649802
0.31924038
0.30198218
0.28472499
0.2674661
0.25021
0.23294972
0.21569529
0.19843358
0.18117946
0.16391986
0.14665979
0.12941048
0.11214054
0.09489822
0.077634979
0.060375566
0.043139334
0.025882129
0.0086290075
1.9193166
1.8645887
1.8040893
1.752363
1.7081859
1.6693849
1.6359426
1.6073581
1.5827472
1.5614223
1.5425239
1.525003
1.5080363
1.4912262
1.4744207
1.4575417
1.4405594
1.423486
1.4063429
1.3891526
1.3719325
1.3546946
1.3374466
1.3201931
1.3029369
1.2856795
1.2684216
1.2511636
1.2339055
1.2166475
1.1993896
1.1821317
1.1648738
1.147616
1.1303582
1.1131003
1.0958425
1.0785847
1.0613269
1.044069
1.0268112
1.0095534
0.99229556
0.97503774
0.95777991
0.94052208
0.92326425
0.90600642
0.88874859
0.87149077
0.85423294
0.83697511
0.81971728
0.80245945
0.78520162
0.76794379
0.75068597
0.73342814
0.71617031
0.69891248
0.68165465
0.66439682
0.64713899
0.62988117
0.61262334
0.59536551
0.57810768
0.56084985
0.54359202
0.5263342
0.50907637
0.49181854
0.47456071
0.45730288
0.44004506
0.42278723
0.4055294
0.3882716
0.37101371
0.35375599
0.33649794
0.31924052
0.30198193
0.2847254
0.26746544
0.25021097
0.23294834
0.21569696
0.1984317
0.18118095
0.16391926
0.14665886
0.12941425
0.11213289
0.094906073
0.077624662
0.060379026
0.043148479
0.025865691
0.0086209349
1.8586629
1.8328011
1.7951804
1.7539653
1.7135373
1.6769326
1.645184
1.6167389
1.5905557
1.5670819
1.5464074
1.5276145
1.5097124
1.4922203
1.4749582
1.4578077
1.4406774
1.4235367
1.4063582
1.3891517
1.371926
1.3546875
1.3374406
1.3201887
1.3029339
1.2856776
1.2684204
1.2511628
1.2339051
1.2166473
1.1993895
1.1821316
1.1648738
1.147616
1.1303582
1.1131003
1.0958425
1.0785847
1.0613269
1.044069
1.0268112
1.0095534
0.99229557
0.97503774
0.95777991
0.94052208
0.92326425
0.90600642
0.88874859
0.87149077
0.85423294
0.83697511
0.81971728
0.80245945
0.78520162
0.76794379
0.75068597
0.73342814
0.71617031
0.69891248
0.68165465
0.66439682
0.64713899
0.62988117
0.61262334
0.59536551
0.57810768
0.56084985
0.54359202
0.5263342
0.50907637
0.49181854
0.47456071
0.45730289
0.44004505
0.42278724
0.40552939
0.38827161
0.37101369
0.35375604
0.33649785
0.31924067
0.30198166
0.28472583
0.26746474
0.25021194
0.23294693
0.21569859
0.19842972
0.18118234
0.16391813
0.14665709
0.12941734
0.11212543
0.094915403
0.077619392
0.060390904
0.043161808
0.025847959
0.0086179531
1.8294409
1.8143187
1.7883665
1.7543421
1.7169855
1.6819782
1.6514449
1.6233606
1.5964283
1.5716576
1.5497692
1.5300219
1.5113608
1.493268
1.4755744
1.4581516
1.4408691
1.4236221
1.4063919
1.389161
1.3719249
1.354683
1.3374358
1.3201847
1.302931
1.2856756
1.2684191
1.251162
1.2339046
1.216647
1.1993893
1.1821316
1.1648738
1.147616
1.1303582
1.1131003
1.0958425
1.0785847
1.0613269
1.044069
1.0268112
1.0095534
0.99229557
0.97503774
0.95777991
0.94052208
0.92326425
0.90600642
0.8887486
0.87149077
0.85423294
0.83697511
0.81971728
0.80245945
0.78520162
0.76794379
0.75068597
0.73342814
0.71617031
0.69891248
0.68165465
0.66439682
0.64713899
0.62988117
0.61262334
0.59536551
0.57810768
0.56084985
0.54359202
0.5263342
0.50907637
0.49181854
0.47456071
0.45730289
0.44004505
0.42278724
0.40552938
0.38827162
0.37101367
0.35375607
0.33649779
0.31924077
0.30198148
0.28472608
0.26746431
0.25021249
0.23294608
0.21569947
0.19842856
0.181183
0.16391789
0.14665566
0.12941996
0.11212097
0.094922481
0.0776195
0.06038984
0.043170675
0.025837796
0.0086123838
1.8168231
1.8052567
1.7839397
1.7535294
1.7180556
1.6839849
1.6541039
1.6263426
1.5992398
1.5739678
1.5515332
1.5313215
1.5122743
1.4938652
1.4759389
1.4583626
1.4409806
1.4236822
1.4064186
1.3891706
1.3719269
1.3546818
1.3374338
1.3201828
1.3029295
1.2856745
1.2684184
1.2511616
1.2339044
1.2166469
1.1993892
1.1821315
1.1648738
1.147616
1.1303582
1.1131003
1.0958425
1.0785847
1.0613269
1.0440691
1.0268112
1.0095534
0.99229557
0.97503774
0.95777991
0.94052208
0.92326425
0.90600643
0.8887486
0.87149077
0.85423294
0.83697511
0.81971728
0.80245945
0.78520162
0.7679438
0.75068597
0.73342814
0.71617031
0.69891248
0.68165465
0.66439682
0.64713899
0.62988117
0.61262334
0.59536551
0.57810768
0.56084985
0.54359202
0.5263342
0.50907637
0.49181854
0.47456071
0.45730289
0.44004505
0.42278724
0.40552938
0.38827162
0.37101366
0.35375609
0.33649776
0.31924081
0.3019814
0.28472619
0.26746412
0.25021272
0.23294572
0.21569979
0.19842811
0.18118308
0.16391781
0.14665472
0.12942152
0.11211943
0.094925249
0.077618821
0.060387791
0.043174416
0.025834158
0.0086086699
1.8168232
1.8052568
1.7839398
1.7535295
1.7180557
1.683985
1.654104
1.6263427
1.5992398
1.5739679
1.5515333
1.5313215
1.5122744
1.4938652
1.475939
1.4583626
1.4409807
1.4236823
1.4064186
1.3891707
1.3719269
1.3546819
1.3374338
1.3201828
1.3029295
1.2856745
1.2684184
1.2511616
1.2339044
1.2166469
1.1993893
1.1821315
1.1648738
1.147616
1.1303582
1.1131003
1.0958425
1.0785847
1.0613269
1.0440691
1.0268112
1.0095534
0.99229557
0.97503774
0.95777991
0.94052208
0.92326426
0.90600643
0.8887486
0.87149077
0.85423294
0.83697511
0.81971728
0.80245945
0.78520162
0.76794379
0.75068597
0.73342814
0.71617031
0.69891248
0.68165465
0.66439682
0.64713899
0.62988117
0.61262334
0.59536551
0.57810768
0.56084985
0.54359202
0.52633419
0.50907637
0.49181854
0.47456071
0.45730289
0.44004505
0.42278724
0.40552938
0.38827162
0.37101366
0.35375609
0.33649776
0.3192408
0.3019814
0.28472618
0.26746411
0.25021272
0.23294572
0.21569979
0.19842811
0.18118308
0.1639178
0.14665472
0.12942151
0.11211942
0.094925245
0.077618815
0.060387785
0.043174412
0.025834157
0.0086086694
1.8294413
1.8143191
1.7883668
1.7543424
1.7169857
1.6819784
1.651445
1.6233607
1.5964284
1.5716578
1.5497694
1.530022
1.511361
1.4932682
1.4755746
1.4581517
1.4408692
1.4236222
1.406392
1.3891611
1.371925
1.354683
1.3374358
1.3201848
1.302931
1.2856756
1.2684192
1.2511621
1.2339047
1.2166471
1.1993894
1.1821316
1.1648738
1.147616
1.1303582
1.1131004
1.0958425
1.0785847
1.0613269
1.0440691
1.0268112
1.0095534
0.99229557
0.97503774
0.95777991
0.94052208
0.92326426
0.90600643
0.8887486
0.87149077
0.85423294
0.83697511
0.81971728
0.80245945
0.78520162
0.76794379
0.75068597
0.73342814
0.71617031
0.69891248
0.68165465
0.66439682
0.647139
0.62988117
0.61262334
0.59536551
0.57810768
0.56084985
0.54359202
0.52633419
0.50907637
0.49181854
0.47456071
0.45730288
0.44004505
0.42278724
0.40552939
0.38827162
0.37101367
0.35375607
0.33649779
0.31924076
0.30198147
0.28472607
0.2674643
0.25021249
0.23294608
0.21569947
0.19842856
0.18118298
0.16391788
0.14665565
0.12941995
0.11212095
0.094922465
0.077619484
0.060389825
0.043170665
0.025837792
0.0086123829
1.8586637
1.8328018
1.795181
1.7539658
1.7135376
1.6769328
1.6451841
1.616739
1.5905559
1.567082
1.5464076
1.5276147
1.5097127
1.4922205
1.4749584
1.4578079
1.4406776
1.4235368
1.4063583
1.3891518
1.3719261
1.3546876
1.3374407
1.3201888
1.302934
1.2856776
1.2684205
1.2511629
1.2339052
1.2166474
1.1993895
1.1821317
1.1648738
1.147616
1.1303582
1.1131004
1.0958425
1.0785847
1.0613269
1.0440691
1.0268112
1.0095534
0.99229557
0.97503774
0.95777991
0.94052209
0.92326426
0.90600643
0.8887486
0.87149077
0.85423294
0.83697511
0.81971728
0.80245945
0.78520162
0.7679438
0.75068597
0.73342814
0.71617031
0.69891248
0.68165465
0.66439682
0.64713899
0.62988117
0.61262334
0.59536551
0.57810768
0.56084985
0.54359202
0.52633419
0.50907636
0.49181854
0.47456071
0.45730288
0.44004505
0.42278724
0.40552939
0.38827161
0.37101369
0.35375604
0.33649784
0.31924066
0.30198164
0.28472581
0.26746472
0.25021193
0.23294692
0.21569859
0.19842971
0.18118232
0.1639181
0.14665706
0.12941732
0.1121254
0.094915377
0.077619366
0.060390884
0.043161795
0.025847955
0.0086179529
1.9193176
1.8645896
1.80409
1.7523636
1.7081863
1.6693852
1.6359428
1.6073582
1.5827473
1.5614226
1.5425242
1.5250033
1.5080366
1.4912265
1.474421
1.4575419
1.4405596
1.4234862
1.406343
1.3891527
1.3719326
1.3546947
1.3374467
1.3201932
1.302937
1.2856796
1.2684217
1.2511636
1.2339056
1.2166476
1.1993897
1.1821318
1.1648739
1.147616
1.1303582
1.1131004
1.0958425
1.0785847
1.0613269
1.0440691
1.0268112
1.0095534
0.99229557
0.97503774
0.95777991
0.94052209
0.92326426
0.90600643
0.8887486
0.87149077
0.85423294
0.83697511
0.81971728
0.80245945
0.78520162
0.7679438
0.75068597
0.73342814
0.71617031
0.69891248
0.68165465
0.66439682
0.64713899
0.62988117
0.61262334
0.59536551
0.57810768
0.56084985
0.54359202
0.52633419
0.50907636
0.49181854
0.47456071
0.45730288
0.44004506
0.42278724
0.4055294
0.3882716
0.37101371
0.35375599
0.33649793
0.3192405
0.30198191
0.28472538
0.26746542
0.25021096
0.23294834
0.21569696
0.19843169
0.18118093
0.16391923
0.14665882
0.12941422
0.11213286
0.094906043
0.077624633
0.060379002
0.043148465
0.025865687
0.008620935
2.0364944
1.9154802
1.8195796
1.7556494
1.706787
1.6649054
1.6294441
1.600555
1.5771065
1.5573559
1.5397533
1.523186
1.5069438
1.4906434
1.4741429
1.4574229
1.4405203
1.4234828
1.4063536
1.3891663
1.3719445
1.3547036
1.3374528
1.3201972
1.3029395
1.2856811
1.2684225
1.2511641
1.2339058
1.2166477
1.1993897
1.1821318
1.1648739
1.147616
1.1303582
1.1131004
1.0958425
1.0785847
1.0613269
1.0440691
1.0268112
1.0095534
0.99229557
0.97503774
0.95777991
0.94052209
0.92326426
0.90600643
0.8887486
0.87149077
0.85423294
0.83697511
0.81971728
0.80245945
0.78520162
0.7679438
0.75068597
0.73342814
0.71617031
0.69891248
0.68165465
0.66439682
0.64713899
0.62988117
0.61262334
0.59536551
0.57810768
0.56084985
0.54359202
0.52633419
0.50907637
0.49181854
0.47456071
0.45730288
0.44004506
0.42278724
0.4055294
0.38827159
0.37101373
0.35375595
0.336498
0.31924036
0.30198216
0.28472497
0.26746609
0.25021
0.23294972
0.21569529
0.19843357
0.18117943
0.16391982
0.14665976
0.12941046
0.11214052
0.094898193
0.077634948
0.06037554
0.043139319
0.025882124
0.0086290064
)
;

boundaryField
{
    top
    {
        type            zeroGradient;
    }
    inlet
    {
        type            zeroGradient;
    }
    outlet
    {
        type            fixedValue;
        value           uniform 0;
    }
    bottom
    {
        type            zeroGradient;
    }
    back
    {
        type            empty;
    }
    front
    {
        type            empty;
    }
}


// ************************************************************************* //
