/*--------------------------------*- C++ -*----------------------------------*\
| =========                 |                                                 |
| \\      /  F ield         | OpenFOAM: The Open Source CFD Toolbox           |
|  \\    /   O peration     | Version:  v1812                                 |
|   \\  /    A nd           | Web:      www.OpenFOAM.com                      |
|    \\/     M anipulation  |                                                 |
\*---------------------------------------------------------------------------*/
FoamFile
{
    version     2.0;
    format      ascii;
    class       volScalarField;
    location    "4.6";
    object      p;
}
// * * * * * * * * * * * * * * * * * * * * * * * * * * * * * * * * * * * * * //

dimensions      [0 2 -2 0 0 0 0];


internalField   nonuniform List<scalar> 
1000
(
1.6802276
1.5591497
1.4631692
1.3995131
1.3510036
1.3085315
1.2709963
1.2388246
1.2114242
1.1875866
1.1661923
1.1464285
1.1277514
1.1098119
1.0923966
1.0753825
1.0587018
1.0423178
1.0262099
1.0103644
0.99476999
0.97941576
0.96429032
0.9493819
0.93467848
0.92016816
0.90583935
0.89168103
0.87768284
0.86383519
0.85012925
0.83655699
0.82311103
0.80978464
0.79657161
0.78346613
0.77046267
0.75755589
0.74474053
0.73201129
0.71936284
0.70678973
0.69428638
0.68184715
0.66946631
0.65713816
0.64485706
0.63261752
0.62041427
0.60824235
0.59609713
0.5839744
0.57187037
0.55978168
0.54770542
0.53563908
0.52358057
0.51152815
0.4994804
0.4874362
0.47539464
0.46335503
0.45131683
0.43927965
0.42724318
0.41520721
0.40317159
0.3911362
0.37910096
0.36706583
0.35503076
0.34299574
0.33096074
0.31892575
0.30689078
0.29485582
0.28282085
0.27078589
0.25875093
0.24671597
0.23468102
0.22264606
0.2106111
0.19857614
0.18654119
0.17450623
0.16247127
0.15043632
0.13840136
0.1263664
0.11433145
0.10229649
0.090261534
0.078226582
0.066191629
0.054156682
0.042121739
0.030086827
0.018051949
0.00601721
1.5630079
1.5080788
1.4471263
1.3955586
1.3522886
1.3133203
1.277734
1.2459614
1.2180005
1.1932226
1.1708208
1.1501194
1.1306378
1.1120498
1.0941362
1.0767516
1.0597998
1.0432186
1.0269661
1.011013
0.99533644
0.97991762
0.9647398
0.94978764
0.93504675
0.92050363
0.90614563
0.89196096
0.87793873
0.86406894
0.85034245
0.83675097
0.82328695
0.80994351
0.79671434
0.78359357
0.77057566
0.75765528
0.74482717
0.7320861
0.71942674
0.70684369
0.6943314
0.68188422
0.66949642
0.65716225
0.64487603
0.63263221
0.62042545
0.60825068
0.59610322
0.58397874
0.57187337
0.55978369
0.5477067
0.53563985
0.52358099
0.51152835
0.49948047
0.48743618
0.47539458
0.46335495
0.45131676
0.43927958
0.42724313
0.41520717
0.40317156
0.39113617
0.37910095
0.36706582
0.35503075
0.34299573
0.33096073
0.31892575
0.30689078
0.29485581
0.28282085
0.27078589
0.25875093
0.24671597
0.23468102
0.22264606
0.2106111
0.19857614
0.18654119
0.17450623
0.16247127
0.15043632
0.13840136
0.1263664
0.11433144
0.10229649
0.090261531
0.078226577
0.066191617
0.054156662
0.042121696
0.030086759
0.018051833
0.0060171174
1.5021866
1.4760115
1.4376147
1.3964818
1.3573965
1.3208057
1.2865081
1.2547905
1.2259344
1.1998334
1.1760794
1.1541894
1.1337396
1.1143987
1.0959186
1.0781176
1.0608659
1.0440705
1.0276646
1.0115998
0.99583994
0.98035694
0.96512808
0.95013405
0.9353579
0.92078445
0.90639991
0.89219177
0.87814859
0.86425997
0.85051645
0.83690946
0.82343122
0.81007467
0.79683333
0.7837012
0.77067264
0.75774224
0.7449047
0.73215476
0.7194871
0.7068963
0.69437685
0.68192309
0.66952931
0.65718979
0.64489882
0.63265084
0.62044049
0.60826267
0.59611264
0.58398605
0.57187897
0.55978791
0.54770984
0.53564215
0.52358266
0.51152953
0.49948129
0.48743675
0.47539497
0.46335521
0.45131692
0.43927969
0.42724319
0.41520721
0.40317158
0.39113619
0.37910095
0.36706582
0.35503076
0.34299573
0.33096073
0.31892575
0.30689078
0.29485581
0.28282085
0.27078589
0.25875093
0.24671597
0.23468102
0.22264606
0.2106111
0.19857614
0.18654119
0.17450623
0.16247127
0.15043632
0.13840136
0.1263664
0.11433144
0.10229648
0.090261519
0.078226558
0.066191577
0.054156596
0.042121581
0.030086595
0.018051627
0.0060169786
1.4727781
1.45728
1.4304101
1.3964862
1.3606852
1.3257339
1.292432
1.2610789
1.2319482
1.2051568
1.1805692
1.157877
1.1367252
1.1167965
1.0978384
1.0796588
1.0621131
1.0450923
1.0285139
1.0123163
0.99645288
0.98088792
0.96559308
0.95054503
0.93572393
0.92111254
0.90669557
0.89245942
0.87839187
0.86448192
0.85071961
0.83709597
0.82360288
0.81023296
0.79697949
0.78383622
0.77079732
0.7578572
0.74501043
0.73225165
0.71957549
0.70697649
0.69444912
0.68198775
0.66958671
0.65724028
0.64494282
0.63268882
0.62047292
0.60829008
0.59613555
0.58400499
0.57189444
0.5598004
0.54771981
0.53565001
0.52358878
0.51153424
0.49948487
0.48743944
0.47539696
0.46335667
0.45131798
0.43928044
0.42724372
0.41520758
0.40317184
0.39113636
0.37910107
0.3670659
0.35503081
0.34299576
0.33096075
0.31892577
0.30689079
0.29485582
0.28282086
0.27078589
0.25875093
0.24671598
0.23468102
0.22264606
0.2106111
0.19857614
0.18654119
0.17450623
0.16247127
0.15043631
0.13840135
0.1263664
0.11433143
0.10229647
0.090261502
0.078226529
0.066191524
0.054156511
0.04212145
0.03008642
0.018051436
0.0060168598
1.4600466
1.4480932
1.4258588
1.3955713
1.3617101
1.3277145
1.295017
1.2640114
1.234914
1.2079022
1.1829751
1.1599256
1.138444
1.1182265
1.0990229
1.0806408
1.0629321
1.0457818
1.0291012
1.0128225
0.99689411
0.98127642
0.96593815
0.95085378
0.9360019
0.92136407
0.90692416
0.89266794
0.87858274
0.86465719
0.85088105
0.83724509
0.82374098
0.81036115
0.79709868
0.78394716
0.77090061
0.75795329
0.74509968
0.73233432
0.71965175
0.70704649
0.69451299
0.68204562
0.66963872
0.65728663
0.64498375
0.63272459
0.62050386
0.60831655
0.59615795
0.58402371
0.57190991
0.55981303
0.54772998
0.53565812
0.52359515
0.51153919
0.49948866
0.48744231
0.4753991
0.46335825
0.45131913
0.43928127
0.42724431
0.41520799
0.40317212
0.39113656
0.3791012
0.36706598
0.35503086
0.3429958
0.33096078
0.31892578
0.3068908
0.29485583
0.28282086
0.2707859
0.25875094
0.24671598
0.23468102
0.22264606
0.2106111
0.19857614
0.18654119
0.17450623
0.16247127
0.15043631
0.13840135
0.12636639
0.11433143
0.10229647
0.090261489
0.078226509
0.066191489
0.054156456
0.042121368
0.030086316
0.018051329
0.0060167959
1.4600466
1.4480932
1.4258588
1.3955713
1.3617101
1.3277145
1.295017
1.2640114
1.234914
1.2079022
1.1829751
1.1599256
1.138444
1.1182265
1.0990229
1.0806408
1.0629321
1.0457818
1.0291012
1.0128225
0.99689411
0.98127643
0.96593815
0.95085379
0.93600191
0.92136407
0.90692417
0.89266795
0.87858275
0.86465719
0.85088105
0.8372451
0.82374098
0.81036115
0.79709868
0.78394716
0.77090061
0.75795329
0.74509968
0.73233431
0.71965175
0.70704649
0.69451298
0.68204561
0.66963871
0.65728663
0.64498374
0.63272458
0.62050386
0.60831655
0.59615794
0.58402371
0.5719099
0.55981302
0.54772998
0.53565811
0.52359515
0.51153919
0.49948866
0.48744231
0.4753991
0.46335825
0.45131913
0.43928127
0.42724431
0.41520799
0.40317212
0.39113656
0.3791012
0.36706599
0.35503086
0.3429958
0.33096078
0.31892578
0.3068908
0.29485583
0.28282086
0.2707859
0.25875094
0.24671598
0.23468102
0.22264606
0.2106111
0.19857614
0.18654119
0.17450623
0.16247127
0.15043631
0.13840135
0.12636639
0.11433143
0.10229647
0.09026149
0.078226509
0.066191489
0.054156456
0.042121368
0.030086317
0.01805133
0.0060167964
1.4727781
1.45728
1.4304101
1.3964862
1.3606852
1.3257339
1.292432
1.2610789
1.2319482
1.2051568
1.1805692
1.157877
1.1367252
1.1167965
1.0978384
1.0796588
1.0621131
1.0450923
1.0285139
1.0123163
0.99645289
0.98088793
0.96559309
0.95054504
0.93572395
0.92111255
0.90669559
0.89245944
0.87839189
0.86448194
0.85071963
0.83709598
0.82360289
0.81023297
0.79697949
0.78383622
0.77079732
0.75785719
0.74501042
0.73225164
0.71957548
0.70697648
0.69444911
0.68198774
0.66958669
0.65724026
0.64494281
0.63268881
0.62047291
0.60829007
0.59613555
0.58400498
0.57189443
0.5598004
0.5477198
0.53565001
0.52358877
0.51153424
0.49948487
0.48743943
0.47539695
0.46335667
0.45131798
0.43928044
0.42724372
0.41520758
0.40317184
0.39113636
0.37910107
0.3670659
0.35503081
0.34299577
0.33096076
0.31892577
0.30689079
0.29485582
0.28282086
0.2707859
0.25875094
0.24671598
0.23468102
0.22264606
0.2106111
0.19857614
0.18654119
0.17450623
0.16247127
0.15043631
0.13840135
0.1263664
0.11433143
0.10229647
0.090261502
0.07822653
0.066191525
0.054156512
0.042121451
0.030086423
0.018051439
0.006016861
1.5021866
1.4760115
1.4376147
1.3964818
1.3573965
1.3208057
1.2865081
1.2547905
1.2259344
1.1998334
1.1760794
1.1541894
1.1337396
1.1143987
1.0959186
1.0781176
1.0608659
1.0440705
1.0276646
1.0115998
0.99583994
0.98035695
0.9651281
0.95013407
0.93535793
0.92078447
0.90639994
0.89219179
0.87814861
0.86425999
0.85051647
0.83690948
0.82343123
0.81007468
0.79683333
0.7837012
0.77067263
0.75774223
0.74490469
0.73215474
0.71948708
0.70689628
0.69437683
0.68192307
0.6695293
0.65718977
0.6448988
0.63265083
0.62044047
0.60826266
0.59611263
0.58398604
0.57187896
0.5597879
0.54770983
0.53564215
0.52358265
0.51152953
0.49948129
0.48743675
0.47539496
0.46335521
0.45131692
0.43927969
0.42724319
0.41520721
0.40317158
0.39113619
0.37910096
0.36706582
0.35503076
0.34299573
0.33096074
0.31892575
0.30689078
0.29485582
0.28282085
0.27078589
0.25875093
0.24671598
0.23468102
0.22264606
0.2106111
0.19857614
0.18654119
0.17450623
0.16247127
0.15043631
0.13840135
0.1263664
0.11433144
0.10229648
0.090261519
0.078226559
0.066191578
0.054156596
0.042121583
0.030086598
0.01805163
0.0060169799
1.5630079
1.5080788
1.4471263
1.3955586
1.3522886
1.3133203
1.277734
1.2459614
1.2180005
1.1932226
1.1708208
1.1501194
1.1306378
1.1120498
1.0941362
1.0767516
1.0597998
1.0432186
1.0269662
1.011013
0.99533645
0.97991763
0.96473982
0.94978766
0.93504678
0.92050366
0.90614565
0.89196098
0.87793875
0.86406896
0.85034247
0.83675099
0.82328696
0.80994351
0.79671434
0.78359357
0.77057566
0.75765527
0.74482716
0.73208608
0.71942672
0.70684367
0.69433138
0.6818842
0.6694964
0.65716223
0.64487602
0.6326322
0.62042543
0.60825067
0.5961032
0.58397873
0.57187336
0.55978368
0.54770669
0.53563984
0.52358099
0.51152835
0.49948046
0.48743618
0.47539458
0.46335495
0.45131676
0.43927958
0.42724313
0.41520717
0.40317156
0.39113618
0.37910095
0.36706582
0.35503076
0.34299573
0.33096074
0.31892575
0.30689078
0.29485582
0.28282085
0.27078589
0.25875093
0.24671598
0.23468102
0.22264606
0.2106111
0.19857614
0.18654119
0.17450623
0.16247127
0.15043631
0.13840136
0.1263664
0.11433144
0.10229649
0.090261532
0.07822658
0.066191618
0.054156663
0.042121698
0.030086763
0.018051836
0.0060171189
1.6802276
1.5591497
1.4631692
1.3995131
1.3510036
1.3085315
1.2709963
1.2388246
1.2114242
1.1875866
1.1661923
1.1464285
1.1277514
1.1098119
1.0923966
1.0753825
1.0587018
1.0423178
1.0262099
1.0103644
0.99477001
0.97941578
0.96429034
0.94938192
0.9346785
0.92016818
0.90583938
0.89168106
0.87768286
0.86383521
0.85012927
0.836557
0.82311103
0.80978464
0.79657161
0.78346612
0.77046266
0.75755588
0.74474051
0.73201127
0.71936282
0.70678971
0.69428636
0.68184713
0.66946629
0.65713814
0.64485704
0.6326175
0.62041425
0.60824233
0.59609712
0.58397439
0.57187036
0.55978168
0.54770541
0.53563907
0.52358056
0.51152814
0.4994804
0.4874362
0.47539464
0.46335503
0.45131683
0.43927965
0.42724318
0.41520722
0.40317159
0.3911362
0.37910097
0.36706583
0.35503077
0.34299574
0.33096074
0.31892576
0.30689078
0.29485582
0.28282086
0.27078589
0.25875093
0.24671598
0.23468102
0.22264606
0.2106111
0.19857614
0.18654119
0.17450623
0.16247127
0.15043631
0.13840136
0.1263664
0.11433144
0.10229649
0.090261536
0.078226583
0.066191629
0.054156682
0.042121743
0.030086833
0.018051954
0.0060172114
)
;

boundaryField
{
    top
    {
        type            zeroGradient;
    }
    inlet
    {
        type            zeroGradient;
    }
    outlet
    {
        type            fixedValue;
        value           uniform 0;
    }
    bottom
    {
        type            zeroGradient;
    }
    back
    {
        type            empty;
    }
    front
    {
        type            empty;
    }
}


// ************************************************************************* //
