/*--------------------------------*- C++ -*----------------------------------*\
| =========                 |                                                 |
| \\      /  F ield         | OpenFOAM: The Open Source CFD Toolbox           |
|  \\    /   O peration     | Version:  v1812                                 |
|   \\  /    A nd           | Web:      www.OpenFOAM.com                      |
|    \\/     M anipulation  |                                                 |
\*---------------------------------------------------------------------------*/
FoamFile
{
    version     2.0;
    format      ascii;
    class       volVectorField;
    location    "4.6";
    object      U;
}
// * * * * * * * * * * * * * * * * * * * * * * * * * * * * * * * * * * * * * //

dimensions      [0 1 -1 0 0 0 0];


internalField   nonuniform List<vector> 
1000
(
(0.91890839 0.035821913 0)
(0.86271384 0.062195638 0)
(0.7870597 0.062510091 0)
(0.69536033 0.054550395 0)
(0.61089745 0.044531651 0)
(0.54411592 0.03401597 0)
(0.49343012 0.024187536 0)
(0.45479414 0.016144223 0)
(0.42544583 0.010265774 0)
(0.40347315 0.0063041264 0)
(0.3871577 0.0037976037 0)
(0.37496225 0.0023103042 0)
(0.36566201 0.001492966 0)
(0.35836286 0.0010850444 0)
(0.35244288 0.00090596626 0)
(0.3474823 0.00084090977 0)
(0.3432039 0.00082354128 0)
(0.33942786 0.00081907497 0)
(0.33603877 0.00081154446 0)
(0.33296232 0.00079539829 0)
(0.33014944 0.00077028901 0)
(0.32756617 0.0007380371 0)
(0.3251875 0.00070101886 0)
(0.3229937 0.00066142192 0)
(0.3209684 0.00062097567 0)
(0.31909741 0.00058090938 0)
(0.31736821 0.00054200834 0)
(0.31576962 0.00050470646 0)
(0.3142917 0.00046918526 0)
(0.3129256 0.00043546061 0)
(0.31166355 0.00040344946 0)
(0.31049877 0.00037301851 0)
(0.30942536 0.00034401816 0)
(0.30843817 0.00031630794 0)
(0.30753273 0.00028977138 0)
(0.30670506 0.00026432648 0)
(0.30595157 0.00023992708 0)
(0.30526887 0.0002165639 0)
(0.30465371 0.00019425823 0)
(0.30410281 0.00017305753 0)
(0.30361282 0.0001530249 0)
(0.30318024 0.00013423202 0)
(0.30280141 0.00011674812 0)
(0.30247248 0.00010063332 0)
(0.30218946 8.5930445e-05 0)
(0.30194826 7.2661014e-05 0)
(0.30174472 6.0821661e-05 0)
(0.30157474 5.0383595e-05 0)
(0.30143429 4.1293757e-05 0)
(0.30131949 3.3477212e-05 0)
(0.30122672 2.6841679e-05 0)
(0.3011526 2.1281167e-05 0)
(0.30109407 1.6681515e-05 0)
(0.3010484 1.2925183e-05 0)
(0.30101318 9.8975813e-06 0)
(0.30098635 7.4889715e-06 0)
(0.30096617 5.5984155e-06 0)
(0.30095117 4.1339504e-06 0)
(0.30094017 3.0150418e-06 0)
(0.30093219 2.1714235e-06 0)
(0.30092649 1.5442612e-06 0)
(0.30092246 1.0841276e-06 0)
(0.30091965 7.514197e-07 0)
(0.30091772 5.1394502e-07 0)
(0.30091641 3.4703763e-07 0)
(0.30091553 2.3113641e-07 0)
(0.30091495 1.5202358e-07 0)
(0.30091457 9.8565399e-08 0)
(0.30091433 6.3195488e-08 0)
(0.30091418 3.9891645e-08 0)
(0.30091408 2.4996528e-08 0)
(0.30091402 1.5381478e-08 0)
(0.30091398 9.5075213e-09 0)
(0.30091396 5.7174608e-09 0)
(0.30091395 3.5647988e-09 0)
(0.30091394 2.0980506e-09 0)
(0.30091394 1.4094572e-09 0)
(0.30091393 7.9822903e-10 0)
(0.30091393 6.5213623e-10 0)
(0.30091393 3.2832891e-10 0)
(0.30091393 4.0758957e-10 0)
(0.30091393 1.5121907e-10 0)
(0.30091393 3.4494306e-10 0)
(0.30091393 7.2886364e-11 0)
(0.30091393 4.0795559e-10 0)
(0.30091393 9.4655928e-11 0)
(0.30091392 6.7599958e-10 0)
(0.30091393 4.0889589e-10 0)
(0.30091392 1.559068e-09 0)
(0.30091393 1.574744e-09 0)
(0.30091391 3.9118622e-09 0)
(0.30091392 4.846074e-09 0)
(0.30091389 1.0230261e-08 0)
(0.3009139 1.5229047e-08 0)
(0.30091384 3.1858392e-08 0)
(0.30091383 5.5656289e-08 0)
(0.30091368 1.0967499e-07 0)
(0.30091357 1.8952695e-07 0)
(0.30091303 3.2813531e-07 0)
(0.30091257 4.4901747e-07 0)
(1.0016583 0.05381943 0)
(1.0359761 0.10128444 0)
(1.0597199 0.11073663 0)
(1.0628947 0.10592202 0)
(1.0515569 0.096228728 0)
(1.0340529 0.08393406 0)
(1.0142795 0.070327059 0)
(0.99360703 0.056981326 0)
(0.97292577 0.045107466 0)
(0.95310741 0.035236729 0)
(0.93479541 0.027401619 0)
(0.91829017 0.021387182 0)
(0.90362388 0.016884432 0)
(0.89068084 0.013569609 0)
(0.87928203 0.011147601 0)
(0.86923288 0.0093734396 0)
(0.86034498 0.0080566024 0)
(0.85244784 0.0070566472 0)
(0.8453942 0.006274535 0)
(0.83906063 0.005642795 0)
(0.83334531 0.0051165672 0)
(0.82816484 0.004666439 0)
(0.82345094 0.0042731796 0)
(0.8191475 0.0039240872 0)
(0.81520812 0.0036105652 0)
(0.8115941 0.0033265675 0)
(0.80827292 0.0030676164 0)
(0.805217 0.0028301936 0)
(0.80240289 0.0026113803 0)
(0.79981051 0.0024086683 0)
(0.79742267 0.0022198734 0)
(0.79522463 0.0020431007 0)
(0.79320368 0.0018767326 0)
(0.79134889 0.0017194316 0)
(0.78965072 0.0015701447 0)
(0.78810076 0.001428104 0)
(0.78669144 0.0012928132 0)
(0.78541575 0.0011640226 0)
(0.78426704 0.0010416911 0)
(0.78323874 0.00092594093 0)
(0.78232426 0.00081700487 0)
(0.78151684 0.000715173 0)
(0.78080951 0.00062073913 0)
(0.78019502 0.00053395462 0)
(0.77966592 0.0004549893 0)
(0.7792146 0.00038390404 0)
(0.77883339 0.00032063406 0)
(0.77851468 0.00026498409 0)
(0.77825102 0.0002166342 0)
(0.77803527 0.00017515392 0)
(0.77786069 0.00014002368 0)
(0.77772104 0.00011065866 0)
(0.77761063 8.6435667e-05 0)
(0.77752436 6.6718769e-05 0)
(0.77745777 5.0884195e-05 0)
(0.77740699 3.8338134e-05 0)
(0.77736875 2.8532178e-05 0)
(0.77734031 2.0971684e-05 0)
(0.77731943 1.5222134e-05 0)
(0.77730429 1.0909378e-05 0)
(0.77729345 7.719004e-06 0)
(0.7772858 5.3912662e-06 0)
(0.77728046 3.7166682e-06 0)
(0.7772768 2.5285206e-06 0)
(0.77727431 1.6975852e-06 0)
(0.77727264 1.1244145e-06 0)
(0.77727154 7.3496993e-07 0)
(0.77727083 4.73856e-07 0)
(0.77727036 3.0165882e-07 0)
(0.77727007 1.894035e-07 0)
(0.77726989 1.1766774e-07 0)
(0.77726978 7.2115308e-08 0)
(0.77726971 4.4018053e-08 0)
(0.77726967 2.6497536e-08 0)
(0.77726965 1.6185733e-08 0)
(0.77726963 9.6852648e-09 0)
(0.77726962 6.2096571e-09 0)
(0.77726962 3.7381717e-09 0)
(0.77726961 2.769892e-09 0)
(0.77726961 1.6378739e-09 0)
(0.77726961 1.627946e-09 0)
(0.77726961 8.4569656e-10 0)
(0.77726961 1.3083949e-09 0)
(0.77726961 5.0270563e-10 0)
(0.7772696 1.4052775e-09 0)
(0.77726961 4.4255886e-10 0)
(0.7772696 2.009407e-09 0)
(0.77726961 9.6826729e-10 0)
(0.77726959 3.8510656e-09 0)
(0.77726962 3.2476941e-09 0)
(0.77726958 8.8355897e-09 0)
(0.77726962 1.0323962e-08 0)
(0.77726954 2.2211767e-08 0)
(0.77726962 3.2507173e-08 0)
(0.77726947 6.3850583e-08 0)
(0.77726961 1.1002693e-07 0)
(0.77726926 2.0062784e-07 0)
(0.77726951 3.4931069e-07 0)
(0.77726859 5.5217142e-07 0)
(0.77726926 8.3695125e-07 0)
(1.0014244 0.026824855 0)
(1.0291272 0.062791353 0)
(1.0654292 0.077736553 0)
(1.098962 0.080597201 0)
(1.1253149 0.078285171 0)
(1.145053 0.073153899 0)
(1.1594858 0.066111275 0)
(1.1694287 0.058162056 0)
(1.1755354 0.050296741 0)
(1.1785738 0.043150686 0)
(1.179357 0.036972789 0)
(1.1785949 0.031771576 0)
(1.1768303 0.027451752 0)
(1.1744518 0.023886632 0)
(1.1717287 0.02094741 0)
(1.1688444 0.018515459 0)
(1.1659195 0.016487594 0)
(1.1630318 0.014778763 0)
(1.1602298 0.01332189 0)
(1.1575419 0.012065521 0)
(1.1549835 0.010970629 0)
(1.1525614 0.010007581 0)
(1.1502768 0.0091536807 0)
(1.148128 0.0083912971 0)
(1.146111 0.007706492 0)
(1.144221 0.007088034 0)
(1.1424524 0.0065266952 0)
(1.1407996 0.0060147359 0)
(1.1392565 0.0055455333 0)
(1.1378175 0.0051133384 0)
(1.1364771 0.004713132 0)
(1.13523 0.0043405425 0)
(1.1340714 0.0039917983 0)
(1.1329967 0.0036637055 0)
(1.1320018 0.0033536425 0)
(1.1310829 0.0030595574 0)
(1.1302366 0.0027799559 0)
(1.1294598 0.0025138698 0)
(1.1287495 0.0022608048 0)
(1.1281031 0.0020206703 0)
(1.127518 0.001793691 0)
(1.1269914 0.0015803072 0)
(1.1265208 0.0013810697 0)
(1.1261033 0.0011965375 0)
(1.1257358 0.0010271853 0)
(1.1254151 0.00087332748 0)
(1.1251379 0.00073506197 0)
(1.1249006 0.00061223747 0)
(1.1246995 0.00050444369 0)
(1.124531 0.00041102271 0)
(1.1243912 0.00033109861 0)
(1.1242767 0.00026361995 0)
(1.1241839 0.00020741108 0)
(1.1241097 0.00016122497 0)
(1.124051 0.00012379472 0)
(1.1240052 9.3879589e-05 0)
(1.1239699 7.0303103e-05 0)
(1.123943 5.1981796e-05 0)
(1.1239228 3.7943923e-05 0)
(1.1239078 2.7339475e-05 0)
(1.1238968 1.9441782e-05 0)
(1.1238889 1.3643351e-05 0)
(1.1238832 9.4468087e-06 0)
(1.1238793 6.4530115e-06 0)
(1.1238765 4.3481239e-06 0)
(1.1238746 2.8895021e-06 0)
(1.1238733 1.8937537e-06 0)
(1.1238725 1.2237533e-06 0)
(1.1238719 7.7999822e-07 0)
(1.1238716 4.9017395e-07 0)
(1.1238714 3.0414939e-07 0)
(1.1238712 1.8619587e-07 0)
(1.1238711 1.1296231e-07 0)
(1.1238711 6.7755358e-08 0)
(1.123871 4.0736485e-08 0)
(1.123871 2.4278548e-08 0)
(1.123871 1.5006732e-08 0)
(1.123871 9.093822e-09 0)
(1.123871 6.2749021e-09 0)
(1.123871 3.9007352e-09 0)
(1.123871 3.4098154e-09 0)
(1.123871 2.0524313e-09 0)
(1.123871 2.5358399e-09 0)
(1.123871 1.3405151e-09 0)
(1.123871 2.4867145e-09 0)
(1.123871 1.202016e-09 0)
(1.123871 3.1483681e-09 0)
(1.123871 1.9456347e-09 0)
(1.123871 5.2063362e-09 0)
(1.123871 5.0532134e-09 0)
(1.1238709 1.0753847e-08 0)
(1.123871 1.4614969e-08 0)
(1.1238709 2.6026972e-08 0)
(1.1238711 4.3949268e-08 0)
(1.1238708 7.3888799e-08 0)
(1.1238712 1.3726658e-07 0)
(1.1238707 2.2020057e-07 0)
(1.1238713 3.8815577e-07 0)
(1.1238702 5.4999769e-07 0)
(1.1238717 8.0685212e-07 0)
(1.0007347 0.011814722 0)
(1.0178472 0.030860927 0)
(1.0462163 0.041434442 0)
(1.0799018 0.045193571 0)
(1.1132664 0.045502352 0)
(1.143782 0.044080308 0)
(1.1708941 0.041439981 0)
(1.1945687 0.037973674 0)
(1.2148582 0.034195722 0)
(1.2319651 0.030536872 0)
(1.2462682 0.027222019 0)
(1.2582338 0.024313877 0)
(1.2683134 0.021797817 0)
(1.2768873 0.019633543 0)
(1.2842551 0.017773639 0)
(1.2906474 0.016169357 0)
(1.2962423 0.014775135 0)
(1.3011781 0.013551611 0)
(1.305563 0.012466848 0)
(1.3094818 0.011495981 0)
(1.3130012 0.010619996 0)
(1.316175 0.0098243603 0)
(1.3190466 0.0090978491 0)
(1.3216524 0.0084316302 0)
(1.3240225 0.0078185781 0)
(1.3261829 0.0072527858 0)
(1.3281554 0.0067292228 0)
(1.329959 0.0062434879 0)
(1.3316098 0.005791632 0)
(1.3331216 0.0053700506 0)
(1.3345063 0.0049754352 0)
(1.335774 0.0046047632 0)
(1.3369332 0.0042553039 0)
(1.3379915 0.0039246368 0)
(1.3389551 0.0036106798 0)
(1.3398295 0.00331172 0)
(1.3406197 0.0030264362 0)
(1.3413301 0.0027539057 0)
(1.341965 0.0024935936 0)
(1.3425285 0.0022453218 0)
(1.343025 0.0020092206 0)
(1.3434586 0.0017856604 0)
(1.343834 0.0015751737 0)
(1.3441557 0.0013783669 0)
(1.3444286 0.0011958344 0)
(1.3446574 0.0010280778 0)
(1.3448471 0.00087543803 0)
(1.3450025 0.00073804352 0)
(1.3451281 0.00061577992 0)
(1.3452284 0.00050827921 0)
(1.3453073 0.00041492989 0)
(1.3453685 0.00033490358 0)
(1.3454153 0.00026719507 0)
(1.3454505 0.00021067077 0)
(1.3454767 0.00016412 0)
(1.3454957 0.00012630617 0)
(1.3455094 9.601187e-05 0)
(1.345519 7.2077899e-05 0)
(1.3455256 5.3431688e-05 0)
(1.3455301 3.910788e-05 0)
(1.3455331 2.8258381e-05 0)
(1.345535 2.0155851e-05 0)
(1.3455362 1.4189914e-05 0)
(1.345537 9.8590536e-06 0)
(1.3455374 6.7597887e-06 0)
(1.3455376 4.5731773e-06 0)
(1.3455377 3.0527749e-06 0)
(1.3455378 2.0104496e-06 0)
(1.3455378 1.3065465e-06 0)
(1.3455378 8.3772305e-07 0)
(1.3455378 5.3040388e-07 0)
(1.3455378 3.3153849e-07 0)
(1.3455378 2.0510134e-07 0)
(1.3455378 1.2549695e-07 0)
(1.3455377 7.6516167e-08 0)
(1.3455377 4.6297495e-08 0)
(1.3455377 2.8479022e-08 0)
(1.3455377 1.7365679e-08 0)
(1.3455377 1.1393176e-08 0)
(1.3455377 7.1684421e-09 0)
(1.3455377 5.5262936e-09 0)
(1.3455377 3.5882989e-09 0)
(1.3455377 3.5763866e-09 0)
(1.3455377 2.3353071e-09 0)
(1.3455377 3.101203e-09 0)
(1.3455377 2.0930601e-09 0)
(1.3455377 3.4729104e-09 0)
(1.3455378 2.8982118e-09 0)
(1.3455377 5.0272197e-09 0)
(1.3455378 5.9386154e-09 0)
(1.3455376 9.3021642e-09 0)
(1.3455378 1.4466863e-08 0)
(1.3455376 2.1223105e-08 0)
(1.3455379 3.9166272e-08 0)
(1.3455375 5.920915e-08 0)
(1.3455381 1.1307627e-07 0)
(1.3455375 1.6980778e-07 0)
(1.3455384 2.9280464e-07 0)
(1.3455372 3.9432654e-07 0)
(1.3455391 5.5526704e-07 0)
(1.0005903 0.003462916 0)
(1.0136865 0.0093660202 0)
(1.0370283 0.013046807 0)
(1.0674202 0.014563262 0)
(1.1000315 0.014854526 0)
(1.1316428 0.014564993 0)
(1.1610745 0.01388834 0)
(1.1880674 0.012919247 0)
(1.2125204 0.011806508 0)
(1.2343939 0.010696427 0)
(1.2538076 0.0096727392 0)
(1.2710338 0.008762814 0)
(1.2864008 0.0079659564 0)
(1.3002109 0.0072721812 0)
(1.3127097 0.0066687485 0)
(1.3240897 0.0061418235 0)
(1.3345026 0.005677907 0)
(1.3440701 0.0052650625 0)
(1.3528904 0.0048935436 0)
(1.361043 0.0045558146 0)
(1.3685927 0.0042462135 0)
(1.3755933 0.0039605206 0)
(1.3820909 0.0036955731 0)
(1.3881255 0.0034489578 0)
(1.3937322 0.0032187771 0)
(1.3989428 0.0030034826 0)
(1.4037856 0.0028017594 0)
(1.4082863 0.0026124454 0)
(1.4124679 0.0024344734 0)
(1.4163512 0.0022668387 0)
(1.4199549 0.0021085877 0)
(1.4232955 0.0019588206 0)
(1.426388 0.0018167 0)
(1.4292456 0.0016814623 0)
(1.43188 0.0015524342 0)
(1.434302 0.0014290487 0)
(1.4365209 0.0013108608 0)
(1.4385459 0.0011975551 0)
(1.4403854 0.0010889495 0)
(1.4420476 0.0009849886 0)
(1.4435408 0.00088573319 0)
(1.4448735 0.00079133821 0)
(1.4460546 0.00070202831 0)
(1.4470933 0.00061806597 0)
(1.4479993 0.00053972068 0)
(1.4487826 0.00046723633 0)
(1.4494536 0.00040080364 0)
(1.4500229 0.00034053662 0)
(1.450501 0.00028645651 0)
(1.4508984 0.00023848331 0)
(1.4512251 0.00019643498 0)
(1.4514907 0.00016003469 0)
(1.4517042 0.00012892295 0)
(1.4518739 0.00010267597 0)
(1.4520071 8.0824237e-05 0)
(1.4521104 6.2874614e-05 0)
(1.4521897 4.8328396e-05 0)
(1.4522496 3.6700401e-05 0)
(1.4522944 2.7531423e-05 0)
(1.4523275 2.040059e-05 0)
(1.4523517 1.4930437e-05 0)
(1.452369 1.079204e-05 0)
(1.4523813 7.7038162e-06 0)
(1.45239 5.431107e-06 0)
(1.452396 3.7812549e-06 0)
(1.4524 2.6001366e-06 0)
(1.4524028 1.7659836e-06 0)
(1.4524046 1.1850387e-06 0)
(1.4524058 7.8580097e-07 0)
(1.4524066 5.1526497e-07 0)
(1.4524071 3.3426197e-07 0)
(1.4524074 2.1488157e-07 0)
(1.4524076 1.3701083e-07 0)
(1.4524077 8.6961977e-08 0)
(1.4524078 5.5059363e-08 0)
(1.4524078 3.5002712e-08 0)
(1.4524078 2.2471907e-08 0)
(1.4524079 1.4657826e-08 0)
(1.4524079 9.9122526e-09 0)
(1.4524079 6.8586183e-09 0)
(1.4524079 5.1464744e-09 0)
(1.4524079 3.8741656e-09 0)
(1.4524079 3.3669148e-09 0)
(1.4524079 2.782528e-09 0)
(1.4524078 2.8250181e-09 0)
(1.4524079 2.5766668e-09 0)
(1.4524078 2.982664e-09 0)
(1.4524079 3.1383079e-09 0)
(1.4524078 3.8890603e-09 0)
(1.452408 4.8673914e-09 0)
(1.4524078 6.0151728e-09 0)
(1.452408 8.7075897e-09 0)
(1.4524077 1.0808475e-08 0)
(1.4524081 1.8272837e-08 0)
(1.4524077 2.5199137e-08 0)
(1.4524083 4.5799117e-08 0)
(1.4524077 6.5824594e-08 0)
(1.4524087 1.0955119e-07 0)
(1.4524075 1.4337786e-07 0)
(1.4524096 1.9664949e-07 0)
(1.0005903 -0.0034629157 0)
(1.0136865 -0.0093660192 0)
(1.0370283 -0.013046805 0)
(1.0674202 -0.01456326 0)
(1.1000315 -0.014854522 0)
(1.1316428 -0.014564987 0)
(1.1610745 -0.013888332 0)
(1.1880674 -0.012919237 0)
(1.2125204 -0.011806494 0)
(1.2343939 -0.01069641 0)
(1.2538076 -0.0096727176 0)
(1.2710338 -0.0087627874 0)
(1.2864008 -0.007965924 0)
(1.3002109 -0.0072721423 0)
(1.3127097 -0.0066687027 0)
(1.3240897 -0.0061417707 0)
(1.3345026 -0.0056778476 0)
(1.3440701 -0.0052649976 0)
(1.3528905 -0.0048934752 0)
(1.361043 -0.0045557455 0)
(1.3685927 -0.0042461468 0)
(1.3755934 -0.0039604604 0)
(1.382091 -0.0036955237 0)
(1.3881255 -0.0034489234 0)
(1.3937323 -0.0032187616 0)
(1.3989428 -0.003003489 0)
(1.4037857 -0.0028017899 0)
(1.4082864 -0.0026125012 0)
(1.412468 -0.0024345542 0)
(1.4163512 -0.0022669429 0)
(1.4199549 -0.0021087123 0)
(1.4232955 -0.0019589616 0)
(1.426388 -0.0018168524 0)
(1.4292455 -0.0016816206 0)
(1.43188 -0.001552593 0)
(1.4343019 -0.0014292025 0)
(1.4365208 -0.001311005 0)
(1.4385458 -0.0011976856 0)
(1.4403852 -0.0010890635 0)
(1.4420474 -0.00098508428 0)
(1.4435406 -0.00088581009 0)
(1.4448734 -0.00079139653 0)
(1.4460545 -0.00070206958 0)
(1.4470932 -0.00061809207 0)
(1.4479992 -0.00053973424 0)
(1.4487825 -0.00046723987 0)
(1.4494535 -0.00040079987 0)
(1.4500228 -0.00034052778 0)
(1.4505009 -0.00028644439 0)
(1.4508983 -0.00023846923 0)
(1.451225 -0.00019641961 0)
(1.4514906 -0.00016001837 0)
(1.4517041 -0.00012890549 0)
(1.4518738 -0.00010265705 0)
(1.452007 -8.08033e-05 0)
(1.4521104 -6.2851224e-05 0)
(1.4521896 -4.8302154e-05 0)
(1.4522495 -3.6671139e-05 0)
(1.4522944 -2.749919e-05 0)
(1.4523275 -2.0365629e-05 0)
(1.4523516 -1.489327e-05 0)
(1.4523689 -1.0753223e-05 0)
(1.4523813 -7.6641488e-06 0)
(1.4523899 -5.391251e-06 0)
(1.4523959 -3.7420656e-06 0)
(1.4524 -2.5621634e-06 0)
(1.4524027 -1.7299233e-06 0)
(1.4524046 -1.1512089e-06 0)
(1.4524058 -7.5467524e-07 0)
(1.4524066 -4.8688951e-07 0)
(1.4524071 -3.0885973e-07 0)
(1.4524074 -1.9227426e-07 0)
(1.4524076 -1.1725566e-07 0)
(1.4524077 -6.9722883e-08 0)
(1.4524077 -4.0270554e-08 0)
(1.4524078 -2.2254677e-08 0)
(1.4524078 -1.1671399e-08 0)
(1.4524078 -5.3699137e-09 0)
(1.4524078 -2.0392719e-09 0)
(1.4524079 1.2962669e-11 0)
(1.4524078 7.7645849e-10 0)
(1.4524079 1.4881914e-09 0)
(1.4524078 1.4716446e-09 0)
(1.4524079 1.8917147e-09 0)
(1.4524078 1.6806029e-09 0)
(1.4524079 2.1196286e-09 0)
(1.4524078 1.9178683e-09 0)
(1.4524079 2.363469e-09 0)
(1.4524078 2.2186749e-09 0)
(1.452408 2.1769994e-09 0)
(1.4524078 1.7488694e-09 0)
(1.452408 -3.3195552e-10 0)
(1.4524077 -2.3381176e-09 0)
(1.4524081 -9.940598e-09 0)
(1.4524077 -1.7141055e-08 0)
(1.4524083 -3.7851234e-08 0)
(1.4524077 -5.799514e-08 0)
(1.4524087 -1.0259547e-07 0)
(1.4524075 -1.3785908e-07 0)
(1.4524096 -1.9237986e-07 0)
(1.0007347 -0.011814721 0)
(1.0178472 -0.030860926 0)
(1.0462163 -0.04143444 0)
(1.0799018 -0.045193568 0)
(1.1132664 -0.045502348 0)
(1.143782 -0.044080302 0)
(1.1708941 -0.041439974 0)
(1.1945687 -0.037973665 0)
(1.2148582 -0.034195709 0)
(1.2319651 -0.030536856 0)
(1.2462682 -0.027221999 0)
(1.2582338 -0.024313853 0)
(1.2683134 -0.021797788 0)
(1.2768873 -0.019633509 0)
(1.2842551 -0.017773599 0)
(1.2906475 -0.016169312 0)
(1.2962424 -0.014775085 0)
(1.3011782 -0.013551556 0)
(1.3055631 -0.012466791 0)
(1.3094818 -0.011495924 0)
(1.3130013 -0.010619942 0)
(1.3161751 -0.0098243126 0)
(1.3190468 -0.0090978107 0)
(1.3216525 -0.0084316039 0)
(1.3240227 -0.007818567 0)
(1.326183 -0.007252792 0)
(1.3281555 -0.0067292478 0)
(1.3299591 -0.0062435319 0)
(1.3316099 -0.0057916944 0)
(1.3331217 -0.0053701295 0)
(1.3345063 -0.0049755283 0)
(1.3357739 -0.004604867 0)
(1.3369332 -0.0042554151 0)
(1.3379914 -0.0039247515 0)
(1.338955 -0.0036107945 0)
(1.3398293 -0.0033118312 0)
(1.3406195 -0.0030265411 0)
(1.3413298 -0.0027540019 0)
(1.3419647 -0.0024936796 0)
(1.3425282 -0.0022453965 0)
(1.3430246 -0.0020092835 0)
(1.3434583 -0.0017857117 0)
(1.3438337 -0.001575214 0)
(1.3441554 -0.0013783971 0)
(1.3444282 -0.0011958558 0)
(1.3446571 -0.0010280917 0)
(1.3448468 -0.00087544545 0)
(1.3450022 -0.00073804572 0)
(1.3451279 -0.00061577776 0)
(1.3452281 -0.00050827351 0)
(1.345307 -0.000414921 0)
(1.3453682 -0.00033489188 0)
(1.345415 -0.00026718054 0)
(1.3454503 -0.00021065357 0)
(1.3454764 -0.00016409995 0)
(1.3454955 -0.0001262835 0)
(1.3455092 -9.5986466e-05 0)
(1.3455188 -7.2050219e-05 0)
(1.3455254 -5.3401805e-05 0)
(1.3455299 -3.9076504e-05 0)
(1.3455329 -2.8225747e-05 0)
(1.3455349 -2.0122821e-05 0)
(1.3455361 -1.4156754e-05 0)
(1.3455368 -9.8266452e-06 0)
(1.3455372 -6.7283171e-06 0)
(1.3455375 -4.543411e-06 0)
(1.3455376 -3.0247161e-06 0)
(1.3455377 -1.9847031e-06 0)
(1.3455377 -1.2829224e-06 0)
(1.3455377 -8.1664431e-07 0)
(1.3455377 -5.1149774e-07 0)
(1.3455377 -3.1509604e-07 0)
(1.3455377 -1.9063221e-07 0)
(1.3455377 -1.1319678e-07 0)
(1.3455377 -6.5814467e-08 0)
(1.3455377 -3.7362595e-08 0)
(1.3455377 -2.0721659e-08 0)
(1.3455377 -1.0945539e-08 0)
(1.3455377 -5.7242453e-09 0)
(1.3455377 -2.4429323e-09 0)
(1.3455377 -1.1963205e-09 0)
(1.3455377 1.3753969e-10 0)
(1.3455377 8.6966058e-11 0)
(1.3455377 1.0251297e-09 0)
(1.3455377 4.6658881e-10 0)
(1.3455377 1.4345534e-09 0)
(1.3455377 5.5530648e-10 0)
(1.3455378 1.372716e-09 0)
(1.3455377 5.0673407e-11 0)
(1.3455378 -4.113571e-10 0)
(1.3455376 -2.9485389e-09 0)
(1.3455378 -7.9662457e-09 0)
(1.3455376 -1.4538081e-08 0)
(1.3455379 -3.2976347e-08 0)
(1.3455376 -5.3209038e-08 0)
(1.3455381 -1.073256e-07 0)
(1.3455375 -1.6398344e-07 0)
(1.3455384 -2.8756677e-07 0)
(1.3455373 -3.898774e-07 0)
(1.3455391 -5.5159076e-07 0)
(1.0014244 -0.026824854 0)
(1.0291272 -0.062791352 0)
(1.0654292 -0.077736552 0)
(1.098962 -0.080597198 0)
(1.1253149 -0.078285168 0)
(1.145053 -0.073153894 0)
(1.1594858 -0.066111269 0)
(1.1694287 -0.058162049 0)
(1.1755354 -0.050296732 0)
(1.1785738 -0.043150674 0)
(1.1793571 -0.036972775 0)
(1.1785949 -0.031771558 0)
(1.1768304 -0.027451731 0)
(1.1744518 -0.023886608 0)
(1.1717287 -0.020947383 0)
(1.1688444 -0.018515429 0)
(1.1659196 -0.016487561 0)
(1.1630319 -0.014778729 0)
(1.1602299 -0.013321855 0)
(1.1575421 -0.012065487 0)
(1.1549837 -0.010970598 0)
(1.1525616 -0.010007554 0)
(1.150277 -0.0091536599 0)
(1.1481281 -0.0083912839 0)
(1.1461112 -0.0077064877 0)
(1.1442212 -0.0070880392 0)
(1.1424526 -0.0065267103 0)
(1.1407997 -0.0060147604 0)
(1.1392566 -0.0055455665 0)
(1.1378176 -0.0051133791 0)
(1.1364771 -0.004713179 0)
(1.13523 -0.0043405943 0)
(1.1340714 -0.0039918533 0)
(1.1329966 -0.0036637626 0)
(1.1320017 -0.0033537 0)
(1.1310827 -0.0030596147 0)
(1.1302363 -0.0027800117 0)
(1.1294595 -0.0025139237 0)
(1.1287492 -0.0022608556 0)
(1.1281028 -0.0020207179 0)
(1.1275176 -0.0017937343 0)
(1.1269911 -0.0015803464 0)
(1.1265204 -0.0013811039 0)
(1.1261029 -0.0011965669 0)
(1.1257354 -0.0010272096 0)
(1.1254147 -0.00087334677 0)
(1.1251375 -0.0007350763 0)
(1.1249002 -0.00061224701 0)
(1.1246992 -0.00050444886 0)
(1.1245306 -0.00041102363 0)
(1.1243909 -0.00033109589 0)
(1.1242764 -0.00026361365 0)
(1.1241836 -0.00020740188 0)
(1.1241094 -0.00016121292 0)
(1.1240507 -0.00012378053 0)
(1.1240049 -9.386332e-05 0)
(1.1239696 -7.0285446e-05 0)
(1.1239427 -5.196285e-05 0)
(1.1239225 -3.7924338e-05 0)
(1.1239076 -2.7319384e-05 0)
(1.1238966 -1.9421759e-05 0)
(1.1238887 -1.3623522e-05 0)
(1.1238831 -9.4276521e-06 0)
(1.1238791 -6.4346193e-06 0)
(1.1238764 -4.3308509e-06 0)
(1.1238745 -2.8733656e-06 0)
(1.1238733 -1.8789995e-06 0)
(1.1238724 -1.2103243e-06 0)
(1.1238719 -7.6802813e-07 0)
(1.1238715 -4.7952848e-07 0)
(1.1238713 -2.9489163e-07 0)
(1.1238712 -1.7814172e-07 0)
(1.1238711 -1.0611238e-07 0)
(1.123871 -6.1888261e-08 0)
(1.123871 -3.5836977e-08 0)
(1.123871 -2.0116097e-08 0)
(1.123871 -1.1555354e-08 0)
(1.123871 -6.1248859e-09 0)
(1.123871 -3.7767199e-09 0)
(1.123871 -1.6619492e-09 0)
(1.123871 -1.4236937e-09 0)
(1.123871 -1.1979534e-10 0)
(1.123871 -6.9896997e-10 0)
(1.123871 5.8268309e-10 0)
(1.123871 -5.1240504e-10 0)
(1.123871 1.012546e-09 0)
(1.123871 -7.3776227e-10 0)
(1.123871 8.4058835e-10 0)
(1.123871 -2.1023422e-09 0)
(1.123871 -1.5124312e-09 0)
(1.1238709 -6.9520295e-09 0)
(1.1238711 -1.0631792e-08 0)
(1.1238709 -2.2167649e-08 0)
(1.1238711 -4.0492843e-08 0)
(1.1238708 -7.0761329e-08 0)
(1.1238712 -1.3416571e-07 0)
(1.1238707 -2.1694747e-07 0)
(1.1238713 -3.8528672e-07 0)
(1.1238703 -5.4785196e-07 0)
(1.1238717 -8.051648e-07 0)
(1.0016583 -0.05381943 0)
(1.0359761 -0.10128444 0)
(1.0597199 -0.11073663 0)
(1.0628947 -0.10592201 0)
(1.0515569 -0.096228726 0)
(1.0340529 -0.083934057 0)
(1.0142795 -0.070327056 0)
(0.99360703 -0.056981322 0)
(0.97292578 -0.045107461 0)
(0.95310743 -0.035236723 0)
(0.93479544 -0.027401612 0)
(0.9182902 -0.021387174 0)
(0.90362392 -0.016884423 0)
(0.89068089 -0.013569599 0)
(0.87928209 -0.01114759 0)
(0.86923296 -0.009373428 0)
(0.86034507 -0.0080565903 0)
(0.85244794 -0.0070566348 0)
(0.84539432 -0.0062745227 0)
(0.83906077 -0.0056427832 0)
(0.83334546 -0.0051165563 0)
(0.82816499 -0.0046664294 0)
(0.8234511 -0.0042731715 0)
(0.81914765 -0.003924081 0)
(0.81520827 -0.0036105611 0)
(0.81159424 -0.0033265656 0)
(0.80827304 -0.0030676169 0)
(0.80521711 -0.0028301965 0)
(0.80240297 -0.0026113855 0)
(0.79981056 -0.0024086757 0)
(0.7974227 -0.002219883 0)
(0.79522462 -0.0020431122 0)
(0.79320364 -0.001876746 0)
(0.79134881 -0.0017194466 0)
(0.78965061 -0.0015701612 0)
(0.78810061 -0.0014281216 0)
(0.78669125 -0.0012928318 0)
(0.78541554 -0.0011640417 0)
(0.78426679 -0.0010417105 0)
(0.78323846 -0.00092596002 0)
(0.78232396 -0.00081702338 0)
(0.78151652 -0.00071519036 0)
(0.78080917 -0.00062075508 0)
(0.78019467 -0.00053396876 0)
(0.77966556 -0.00045500147 0)
(0.77921424 -0.00038391412 0)
(0.77883303 -0.00032064202 0)
(0.77851432 -0.00026499006 0)
(0.77825067 -0.00021663823 0)
(0.77803494 -0.0001751563 0)
(0.77786037 -0.0001400245 0)
(0.77772074 -0.00011065828 0)
(0.77761034 -8.6434111e-05 0)
(0.7775241 -6.6716372e-05 0)
(0.77745752 -5.0880961e-05 0)
(0.77740677 -3.8334352e-05 0)
(0.77736854 -2.8527818e-05 0)
(0.77734012 -2.0967003e-05 0)
(0.77731926 -1.5217118e-05 0)
(0.77730414 -1.0904245e-05 0)
(0.77729332 -7.7137344e-06 0)
(0.77728568 -5.3860614e-06 0)
(0.77728036 -3.7115303e-06 0)
(0.77727671 -2.5236088e-06 0)
(0.77727423 -1.6928798e-06 0)
(0.77727258 -1.1200538e-06 0)
(0.77727149 -7.3093393e-07 0)
(0.77727078 -4.7023275e-07 0)
(0.77727033 -2.9839242e-07 0)
(0.77727005 -1.8656197e-07 0)
(0.77726987 -1.1518906e-07 0)
(0.77726976 -7.0027583e-08 0)
(0.7772697 -4.2226594e-08 0)
(0.77726966 -2.5026188e-08 0)
(0.77726964 -1.4949387e-08 0)
(0.77726963 -8.6840302e-09 0)
(0.77726962 -5.3458063e-09 0)
(0.77726962 -3.022145e-09 0)
(0.77726962 -2.1207614e-09 0)
(0.77726962 -1.0594576e-09 0)
(0.77726961 -1.0260304e-09 0)
(0.77726962 -2.5322069e-10 0)
(0.77726961 -6.5603041e-10 0)
(0.77726962 1.9028163e-10 0)
(0.77726961 -5.7243312e-10 0)
(0.77726962 4.9634684e-10 0)
(0.77726961 -9.1985865e-10 0)
(0.77726963 2.1055934e-10 0)
(0.7772696 -2.6403582e-09 0)
(0.77726963 -2.121954e-09 0)
(0.77726959 -7.8680065e-09 0)
(0.77726964 -9.4478408e-09 0)
(0.77726956 -2.1271316e-08 0)
(0.77726964 -3.1293438e-08 0)
(0.77726948 -6.1923637e-08 0)
(0.77726962 -1.0758987e-07 0)
(0.77726928 -1.9888317e-07 0)
(0.77726953 -3.4938691e-07 0)
(0.77726861 -5.5329512e-07 0)
(0.77726928 -8.3798438e-07 0)
(0.91890839 -0.035821913 0)
(0.86271384 -0.062195638 0)
(0.7870597 -0.06251009 0)
(0.69536033 -0.054550395 0)
(0.61089745 -0.04453165 0)
(0.54411592 -0.034015969 0)
(0.49343013 -0.024187535 0)
(0.45479415 -0.016144221 0)
(0.42544584 -0.010265772 0)
(0.40347317 -0.006304125 0)
(0.38715772 -0.0037976024 0)
(0.37496227 -0.0023103029 0)
(0.36566203 -0.0014929647 0)
(0.35836288 -0.0010850432 0)
(0.35244291 -0.00090596504 0)
(0.34748234 -0.00084090847 0)
(0.34320394 -0.00082353978 0)
(0.3394279 -0.00081907321 0)
(0.33603882 -0.00081154238 0)
(0.33296237 -0.00079539592 0)
(0.33014949 -0.0007702862 0)
(0.32756623 -0.00073803391 0)
(0.32518755 -0.0007010153 0)
(0.32299376 -0.00066141824 0)
(0.32096845 -0.00062097189 0)
(0.31909746 -0.00058090575 0)
(0.31736826 -0.0005420049 0)
(0.31576967 -0.00050470344 0)
(0.31429173 -0.00046918274 0)
(0.31292562 -0.00043545858 0)
(0.31166357 -0.00040344807 0)
(0.31049878 -0.00037301756 0)
(0.30942535 -0.00034401798 0)
(0.30843814 -0.00031630803 0)
(0.30753269 -0.00028977223 0)
(0.30670501 -0.00026432741 0)
(0.3059515 -0.00023992873 0)
(0.30526879 -0.0002165655 0)
(0.30465361 -0.00019426039 0)
(0.3041027 -0.00017305948 0)
(0.3036127 -0.00015302722 0)
(0.30318012 -0.00013423411 0)
(0.30280128 -0.00011675039 0)
(0.30247234 -0.00010063537 0)
(0.30218932 -8.593249e-05 0)
(0.30194811 -7.2662953e-05 0)
(0.30174458 -6.0823507e-05 0)
(0.3015746 -5.0385453e-05 0)
(0.30143415 -4.1295441e-05 0)
(0.30131937 -3.347901e-05 0)
(0.3012266 -2.6843273e-05 0)
(0.30115249 -2.1282922e-05 0)
(0.30109397 -1.6682988e-05 0)
(0.3010483 -1.2926784e-05 0)
(0.30101309 -9.8988386e-06 0)
(0.30098628 -7.4902938e-06 0)
(0.3009661 -5.5993388e-06 0)
(0.30095111 -4.1348971e-06 0)
(0.30094011 -3.0155947e-06 0)
(0.30093214 -2.1719783e-06 0)
(0.30092645 -1.544448e-06 0)
(0.30092242 -1.0843457e-06 0)
(0.30091962 -7.5133924e-07 0)
(0.30091769 -5.1392607e-07 0)
(0.30091639 -3.4677503e-07 0)
(0.30091551 -2.3099043e-07 0)
(0.30091494 -1.5169942e-07 0)
(0.30091456 -9.8382793e-08 0)
(0.30091432 -6.2862317e-08 0)
(0.30091417 -3.9732509e-08 0)
(0.30091408 -2.4716897e-08 0)
(0.30091402 -1.5274017e-08 0)
(0.30091398 -9.2752605e-09 0)
(0.30091396 -5.6661051e-09 0)
(0.30091395 -3.3947377e-09 0)
(0.30091394 -2.0876768e-09 0)
(0.30091394 -1.2625902e-09 0)
(0.30091394 -8.0911601e-10 0)
(0.30091393 -5.2327541e-10 0)
(0.30091393 -3.3668474e-10 0)
(0.30091393 -2.5259221e-10 0)
(0.30091393 -1.425662e-10 0)
(0.30091393 -1.5616634e-10 0)
(0.30091393 -2.9623004e-12 0)
(0.30091393 -1.3220058e-10 0)
(0.30091393 5.6877764e-11 0)
(0.30091393 -3.6883449e-10 0)
(0.30091393 -3.2917695e-10 0)
(0.30091393 -1.4998574e-09 0)
(0.30091393 -1.9348214e-09 0)
(0.30091392 -4.2983145e-09 0)
(0.30091392 -5.3467031e-09 0)
(0.3009139 -1.0197358e-08 0)
(0.3009139 -1.4311583e-08 0)
(0.30091385 -2.9871483e-08 0)
(0.30091384 -5.3978277e-08 0)
(0.30091368 -1.097823e-07 0)
(0.30091358 -1.9131337e-07 0)
(0.30091304 -3.3008414e-07 0)
(0.30091259 -4.5025033e-07 0)
)
;

boundaryField
{
    top
    {
        type            fixedValue;
        value           uniform (0 0 0);
    }
    inlet
    {
        type            fixedValue;
        value           uniform (1 0 0);
    }
    outlet
    {
        type            zeroGradient;
    }
    bottom
    {
        type            fixedValue;
        value           uniform (0 0 0);
    }
    back
    {
        type            empty;
    }
    front
    {
        type            empty;
    }
}


// ************************************************************************* //
