# Field minima and maxima
# Time          	field           	min             	location(min)   	max             	location(max)   
0.05            	U               	(8.38393014e-01 1.09705916e-02 0.00000000e+00)	(5.00000000e-02 -4.50000000e-01 5.00000000e-02)	(8.38393014e-01 1.09705916e-02 0.00000000e+00)	(5.00000000e-02 -4.50000000e-01 5.00000000e-02)
0.05            	p               	0.00000000e+00	(1.00000000e+01 -4.50000000e-01 5.00000000e-02)	2.40051248e+02	(5.00000000e-02 4.50000000e-01 5.00000000e-02)
0.1             	U               	(8.20236021e-01 2.65012410e-02 0.00000000e+00)	(5.00000000e-02 -4.50000000e-01 5.00000000e-02)	(8.20236021e-01 2.65012410e-02 0.00000000e+00)	(5.00000000e-02 -4.50000000e-01 5.00000000e-02)
0.1             	p               	-4.02965382e+01	(2.50000000e-01 -5.00000000e-02 5.00000000e-02)	0.00000000e+00	(1.00000000e+01 -4.50000000e-01 5.00000000e-02)
0.15            	U               	(8.59466018e-01 3.16111205e-02 0.00000000e+00)	(5.00000000e-02 -4.50000000e-01 5.00000000e-02)	(8.59466018e-01 3.16111205e-02 0.00000000e+00)	(5.00000000e-02 -4.50000000e-01 5.00000000e-02)
0.15            	p               	0.00000000e+00	(1.00000000e+01 -4.50000000e-01 5.00000000e-02)	1.13211641e+01	(5.00000000e-02 -4.50000000e-01 5.00000000e-02)
0.2             	U               	(8.88331265e-01 3.44505878e-02 0.00000000e+00)	(5.00000000e-02 -4.50000000e-01 5.00000000e-02)	(8.88331265e-01 3.44505878e-02 0.00000000e+00)	(5.00000000e-02 -4.50000000e-01 5.00000000e-02)
0.2             	p               	0.00000000e+00	(1.00000000e+01 -4.50000000e-01 5.00000000e-02)	1.86900045e+00	(5.00000000e-02 4.50000000e-01 5.00000000e-02)
0.25            	U               	(9.04531744e-01 3.59628310e-02 0.00000000e+00)	(5.00000000e-02 -4.50000000e-01 5.00000000e-02)	(9.04531744e-01 3.59628310e-02 0.00000000e+00)	(5.00000000e-02 -4.50000000e-01 5.00000000e-02)
0.25            	p               	0.00000000e+00	(1.00000000e+01 -4.50000000e-01 5.00000000e-02)	3.34648379e+00	(5.00000000e-02 -4.50000000e-01 5.00000000e-02)
0.3             	U               	(9.13454686e-01 3.66544531e-02 0.00000000e+00)	(5.00000000e-02 -4.50000000e-01 5.00000000e-02)	(9.13454686e-01 3.66544531e-02 0.00000000e+00)	(5.00000000e-02 -4.50000000e-01 5.00000000e-02)
0.3             	p               	0.00000000e+00	(1.00000000e+01 -4.50000000e-01 5.00000000e-02)	2.89534993e+00	(5.00000000e-02 4.50000000e-01 5.00000000e-02)
0.35            	U               	(9.18201916e-01 3.68793182e-02 0.00000000e+00)	(5.00000000e-02 -4.50000000e-01 5.00000000e-02)	(9.18201916e-01 3.68793182e-02 0.00000000e+00)	(5.00000000e-02 -4.50000000e-01 5.00000000e-02)
0.35            	p               	0.00000000e+00	(1.00000000e+01 -4.50000000e-01 5.00000000e-02)	2.81975490e+00	(5.00000000e-02 -4.50000000e-01 5.00000000e-02)
0.4             	U               	(9.20477537e-01 3.68628099e-02 0.00000000e+00)	(5.00000000e-02 -4.50000000e-01 5.00000000e-02)	(9.20477537e-01 3.68628099e-02 0.00000000e+00)	(5.00000000e-02 -4.50000000e-01 5.00000000e-02)
0.4             	p               	0.00000000e+00	(1.00000000e+01 -4.50000000e-01 5.00000000e-02)	2.69745255e+00	(5.00000000e-02 4.50000000e-01 5.00000000e-02)
0.45            	U               	(9.21339974e-01 3.67330473e-02 0.00000000e+00)	(5.00000000e-02 -4.50000000e-01 5.00000000e-02)	(9.21339974e-01 3.67330473e-02 0.00000000e+00)	(5.00000000e-02 -4.50000000e-01 5.00000000e-02)
0.45            	p               	0.00000000e+00	(1.00000000e+01 -4.50000000e-01 5.00000000e-02)	2.60108351e+00	(5.00000000e-02 4.50000000e-01 5.00000000e-02)
0.5             	U               	(9.21443866e-01 3.65615965e-02 0.00000000e+00)	(5.00000000e-02 -4.50000000e-01 5.00000000e-02)	(9.21443866e-01 3.65615965e-02 0.00000000e+00)	(5.00000000e-02 -4.50000000e-01 5.00000000e-02)
0.5             	p               	0.00000000e+00	(1.00000000e+01 -4.50000000e-01 5.00000000e-02)	2.51481863e+00	(5.00000000e-02 4.50000000e-01 5.00000000e-02)
0.55            	U               	(9.21179952e-01 3.63874175e-02 0.00000000e+00)	(5.00000000e-02 -4.50000000e-01 5.00000000e-02)	(9.21179952e-01 3.63874175e-02 0.00000000e+00)	(5.00000000e-02 -4.50000000e-01 5.00000000e-02)
0.55            	p               	0.00000000e+00	(1.00000000e+01 -4.50000000e-01 5.00000000e-02)	2.43917221e+00	(5.00000000e-02 4.50000000e-01 5.00000000e-02)
0.6             	U               	(9.20773441e-01 3.62300186e-02 0.00000000e+00)	(5.00000000e-02 -4.50000000e-01 5.00000000e-02)	(9.20773441e-01 3.62300186e-02 0.00000000e+00)	(5.00000000e-02 -4.50000000e-01 5.00000000e-02)
0.6             	p               	0.00000000e+00	(1.00000000e+01 -4.50000000e-01 5.00000000e-02)	2.37218884e+00	(5.00000000e-02 4.50000000e-01 5.00000000e-02)
0.65            	U               	(9.20347179e-01 3.60975991e-02 0.00000000e+00)	(5.00000000e-02 -4.50000000e-01 5.00000000e-02)	(9.20347179e-01 3.60975991e-02 0.00000000e+00)	(5.00000000e-02 -4.50000000e-01 5.00000000e-02)
0.65            	p               	0.00000000e+00	(1.00000000e+01 -4.50000000e-01 5.00000000e-02)	2.31269140e+00	(5.00000000e-02 4.50000000e-01 5.00000000e-02)
0.7             	U               	(9.19961816e-01 3.59920459e-02 0.00000000e+00)	(5.00000000e-02 -4.50000000e-01 5.00000000e-02)	(9.19961816e-01 3.59920459e-02 0.00000000e+00)	(5.00000000e-02 -4.50000000e-01 5.00000000e-02)
0.7             	p               	0.00000000e+00	(1.00000000e+01 -4.50000000e-01 5.00000000e-02)	2.25962902e+00	(5.00000000e-02 4.50000000e-01 5.00000000e-02)
0.75            	U               	(9.19641591e-01 3.59118962e-02 0.00000000e+00)	(5.00000000e-02 -4.50000000e-01 5.00000000e-02)	(9.19641591e-01 3.59118962e-02 0.00000000e+00)	(5.00000000e-02 -4.50000000e-01 5.00000000e-02)
0.75            	p               	0.00000000e+00	(1.00000000e+01 -4.50000000e-01 5.00000000e-02)	2.21213945e+00	(5.00000000e-02 4.50000000e-01 5.00000000e-02)
0.8             	U               	(9.19390637e-01 3.58540632e-02 0.00000000e+00)	(5.00000000e-02 -4.50000000e-01 5.00000000e-02)	(9.19390637e-01 3.58540632e-02 0.00000000e+00)	(5.00000000e-02 -4.50000000e-01 5.00000000e-02)
0.8             	p               	0.00000000e+00	(1.00000000e+01 -4.50000000e-01 5.00000000e-02)	2.16949723e+00	(5.00000000e-02 4.50000000e-01 5.00000000e-02)
0.85            	U               	(9.19203019e-01 3.58148301e-02 0.00000000e+00)	(5.00000000e-02 -4.50000000e-01 5.00000000e-02)	(9.19203019e-01 3.58148301e-02 0.00000000e+00)	(5.00000000e-02 -4.50000000e-01 5.00000000e-02)
0.85            	p               	0.00000000e+00	(1.00000000e+01 -4.50000000e-01 5.00000000e-02)	2.13109258e+00	(5.00000000e-02 4.50000000e-01 5.00000000e-02)
0.9             	U               	(9.19068650e-01 3.57904414e-02 0.00000000e+00)	(5.00000000e-02 -4.50000000e-01 5.00000000e-02)	(9.19068650e-01 3.57904414e-02 0.00000000e+00)	(5.00000000e-02 -4.50000000e-01 5.00000000e-02)
0.9             	p               	0.00000000e+00	(1.00000000e+01 -4.50000000e-01 5.00000000e-02)	2.09640509e+00	(5.00000000e-02 4.50000000e-01 5.00000000e-02)
0.95            	U               	(9.18976603e-01 3.57774071e-02 0.00000000e+00)	(5.00000000e-02 -4.50000000e-01 5.00000000e-02)	(9.18976603e-01 3.57774071e-02 0.00000000e+00)	(5.00000000e-02 -4.50000000e-01 5.00000000e-02)
0.95            	p               	0.00000000e+00	(1.00000000e+01 -4.50000000e-01 5.00000000e-02)	2.06499164e+00	(5.00000000e-02 4.50000000e-01 5.00000000e-02)
1               	U               	(9.18916880e-01 3.57726488e-02 0.00000000e+00)	(5.00000000e-02 -4.50000000e-01 5.00000000e-02)	(9.18916880e-01 3.57726488e-02 0.00000000e+00)	(5.00000000e-02 -4.50000000e-01 5.00000000e-02)
1               	p               	0.00000000e+00	(1.00000000e+01 -4.50000000e-01 5.00000000e-02)	2.03649436e+00	(5.00000000e-02 4.50000000e-01 5.00000000e-02)
1.05            	U               	(9.18880665e-01 3.57735890e-02 0.00000000e+00)	(5.00000000e-02 -4.50000000e-01 5.00000000e-02)	(9.18880665e-01 3.57735890e-02 0.00000000e+00)	(5.00000000e-02 -4.50000000e-01 5.00000000e-02)
1.05            	p               	0.00000000e+00	(1.00000000e+01 -4.50000000e-01 5.00000000e-02)	2.01051527e+00	(5.00000000e-02 -4.50000000e-01 5.00000000e-02)
1.1             	U               	(9.18861320e-01 3.57781139e-02 0.00000000e+00)	(5.00000000e-02 -4.50000000e-01 5.00000000e-02)	(9.18861320e-01 3.57781139e-02 0.00000000e+00)	(5.00000000e-02 -4.50000000e-01 5.00000000e-02)
1.1             	p               	0.00000000e+00	(1.00000000e+01 -4.50000000e-01 5.00000000e-02)	1.98685337e+00	(5.00000000e-02 4.50000000e-01 5.00000000e-02)
1.15            	U               	(9.18853510e-01 3.57845905e-02 0.00000000e+00)	(5.00000000e-02 -4.50000000e-01 5.00000000e-02)	(9.18853510e-01 3.57845905e-02 0.00000000e+00)	(5.00000000e-02 -4.50000000e-01 5.00000000e-02)
1.15            	p               	0.00000000e+00	(1.00000000e+01 -4.50000000e-01 5.00000000e-02)	1.96522589e+00	(5.00000000e-02 4.50000000e-01 5.00000000e-02)
1.2             	U               	(9.18853230e-01 3.57918052e-02 0.00000000e+00)	(5.00000000e-02 -4.50000000e-01 5.00000000e-02)	(9.18853230e-01 3.57918052e-02 0.00000000e+00)	(5.00000000e-02 -4.50000000e-01 5.00000000e-02)
1.2             	p               	0.00000000e+00	(1.00000000e+01 -4.50000000e-01 5.00000000e-02)	1.94542516e+00	(5.00000000e-02 4.50000000e-01 5.00000000e-02)
1.25            	U               	(9.18857548e-01 3.57989091e-02 0.00000000e+00)	(5.00000000e-02 -4.50000000e-01 5.00000000e-02)	(9.18857548e-01 3.57989091e-02 0.00000000e+00)	(5.00000000e-02 -4.50000000e-01 5.00000000e-02)
1.25            	p               	0.00000000e+00	(1.00000000e+01 -4.50000000e-01 5.00000000e-02)	1.92726214e+00	(5.00000000e-02 4.50000000e-01 5.00000000e-02)
1.3             	U               	(9.18864364e-01 3.58053582e-02 0.00000000e+00)	(5.00000000e-02 -4.50000000e-01 5.00000000e-02)	(9.18864364e-01 3.58053582e-02 0.00000000e+00)	(5.00000000e-02 -4.50000000e-01 5.00000000e-02)
1.3             	p               	0.00000000e+00	(1.00000000e+01 -4.50000000e-01 5.00000000e-02)	1.91057208e+00	(5.00000000e-02 4.50000000e-01 5.00000000e-02)
1.35            	U               	(9.18872212e-01 3.58108507e-02 0.00000000e+00)	(5.00000000e-02 -4.50000000e-01 5.00000000e-02)	(9.18872212e-01 3.58108507e-02 0.00000000e+00)	(5.00000000e-02 -4.50000000e-01 5.00000000e-02)
1.35            	p               	0.00000000e+00	(1.00000000e+01 -4.50000000e-01 5.00000000e-02)	1.89520935e+00	(5.00000000e-02 4.50000000e-01 5.00000000e-02)
1.4             	U               	(9.18880105e-01 3.58152678e-02 0.00000000e+00)	(5.00000000e-02 -4.50000000e-01 5.00000000e-02)	(9.18880105e-01 3.58152678e-02 0.00000000e+00)	(5.00000000e-02 -4.50000000e-01 5.00000000e-02)
1.4             	p               	0.00000000e+00	(1.00000000e+01 -4.50000000e-01 5.00000000e-02)	1.88104517e+00	(5.00000000e-02 4.50000000e-01 5.00000000e-02)
1.45            	U               	(9.18887416e-01 3.58186206e-02 0.00000000e+00)	(5.00000000e-02 -4.50000000e-01 5.00000000e-02)	(9.18887416e-01 3.58186206e-02 0.00000000e+00)	(5.00000000e-02 -4.50000000e-01 5.00000000e-02)
1.45            	p               	0.00000000e+00	(1.00000000e+01 -4.50000000e-01 5.00000000e-02)	1.86796549e+00	(5.00000000e-02 4.50000000e-01 5.00000000e-02)
1.5             	U               	(9.18893785e-01 3.58210048e-02 0.00000000e+00)	(5.00000000e-02 -4.50000000e-01 5.00000000e-02)	(9.18893785e-01 3.58210048e-02 0.00000000e+00)	(5.00000000e-02 -4.50000000e-01 5.00000000e-02)
1.5             	p               	0.00000000e+00	(1.00000000e+01 -4.50000000e-01 5.00000000e-02)	1.85586906e+00	(5.00000000e-02 4.50000000e-01 5.00000000e-02)
1.55            	U               	(9.18899048e-01 3.58225638e-02 0.00000000e+00)	(5.00000000e-02 -4.50000000e-01 5.00000000e-02)	(9.18899048e-01 3.58225638e-02 0.00000000e+00)	(5.00000000e-02 -4.50000000e-01 5.00000000e-02)
1.55            	p               	0.00000000e+00	(1.00000000e+01 -4.50000000e-01 5.00000000e-02)	1.84466554e+00	(5.00000000e-02 4.50000000e-01 5.00000000e-02)
1.6             	U               	(9.18903180e-01 3.58234606e-02 0.00000000e+00)	(5.00000000e-02 -4.50000000e-01 5.00000000e-02)	(9.18903180e-01 3.58234606e-02 0.00000000e+00)	(5.00000000e-02 -4.50000000e-01 5.00000000e-02)
1.6             	p               	0.00000000e+00	(1.00000000e+01 -4.50000000e-01 5.00000000e-02)	1.83427479e+00	(5.00000000e-02 4.50000000e-01 5.00000000e-02)
1.65            	U               	(9.18906292e-01 3.58238502e-02 0.00000000e+00)	(5.00000000e-02 -4.50000000e-01 5.00000000e-02)	(9.18906292e-01 3.58238502e-02 0.00000000e+00)	(5.00000000e-02 -4.50000000e-01 5.00000000e-02)
1.65            	p               	0.00000000e+00	(1.00000000e+01 -4.50000000e-01 5.00000000e-02)	1.82463269e+00	(5.00000000e-02 4.50000000e-01 5.00000000e-02)
1.7             	U               	(9.18908384e-01 3.58238975e-02 0.00000000e+00)	(5.00000000e-02 -4.50000000e-01 5.00000000e-02)	(9.18908384e-01 3.58238975e-02 0.00000000e+00)	(5.00000000e-02 -4.50000000e-01 5.00000000e-02)
1.7             	p               	0.00000000e+00	(1.00000000e+01 -4.50000000e-01 5.00000000e-02)	1.81564957e+00	(5.00000000e-02 4.50000000e-01 5.00000000e-02)
1.75            	U               	(9.18909725e-01 3.58237158e-02 0.00000000e+00)	(5.00000000e-02 -4.50000000e-01 5.00000000e-02)	(9.18909725e-01 3.58237158e-02 0.00000000e+00)	(5.00000000e-02 -4.50000000e-01 5.00000000e-02)
1.75            	p               	0.00000000e+00	(1.00000000e+01 -4.50000000e-01 5.00000000e-02)	1.80729723e+00	(5.00000000e-02 4.50000000e-01 5.00000000e-02)
1.8             	U               	(9.18910459e-01 3.58234085e-02 0.00000000e+00)	(5.00000000e-02 -4.50000000e-01 5.00000000e-02)	(9.18910459e-01 3.58234085e-02 0.00000000e+00)	(5.00000000e-02 -4.50000000e-01 5.00000000e-02)
1.8             	p               	0.00000000e+00	(1.00000000e+01 -4.50000000e-01 5.00000000e-02)	1.79950952e+00	(5.00000000e-02 4.50000000e-01 5.00000000e-02)
1.85            	U               	(9.18910742e-01 3.58230517e-02 0.00000000e+00)	(5.00000000e-02 -4.50000000e-01 5.00000000e-02)	(9.18910742e-01 3.58230517e-02 0.00000000e+00)	(5.00000000e-02 -4.50000000e-01 5.00000000e-02)
1.85            	p               	0.00000000e+00	(1.00000000e+01 -4.50000000e-01 5.00000000e-02)	1.79224293e+00	(5.00000000e-02 4.50000000e-01 5.00000000e-02)
1.9             	U               	(9.18910713e-01 3.58226982e-02 0.00000000e+00)	(5.00000000e-02 -4.50000000e-01 5.00000000e-02)	(9.18910713e-01 3.58226982e-02 0.00000000e+00)	(5.00000000e-02 -4.50000000e-01 5.00000000e-02)
1.9             	p               	0.00000000e+00	(1.00000000e+01 -4.50000000e-01 5.00000000e-02)	1.78545500e+00	(5.00000000e-02 4.50000000e-01 5.00000000e-02)
1.95            	U               	(9.18910488e-01 3.58223814e-02 0.00000000e+00)	(5.00000000e-02 -4.50000000e-01 5.00000000e-02)	(9.18910488e-01 3.58223814e-02 0.00000000e+00)	(5.00000000e-02 -4.50000000e-01 5.00000000e-02)
1.95            	p               	0.00000000e+00	(1.00000000e+01 -4.50000000e-01 5.00000000e-02)	1.77910785e+00	(5.00000000e-02 4.50000000e-01 5.00000000e-02)
2               	U               	(9.18910160e-01 3.58221191e-02 0.00000000e+00)	(5.00000000e-02 -4.50000000e-01 5.00000000e-02)	(9.18910160e-01 3.58221191e-02 0.00000000e+00)	(5.00000000e-02 -4.50000000e-01 5.00000000e-02)
2               	p               	0.00000000e+00	(1.00000000e+01 -4.50000000e-01 5.00000000e-02)	1.77316730e+00	(5.00000000e-02 4.50000000e-01 5.00000000e-02)
2.05            	U               	(9.18909797e-01 3.58219176e-02 0.00000000e+00)	(5.00000000e-02 -4.50000000e-01 5.00000000e-02)	(9.18909797e-01 3.58219176e-02 0.00000000e+00)	(5.00000000e-02 -4.50000000e-01 5.00000000e-02)
2.05            	p               	0.00000000e+00	(1.00000000e+01 -4.50000000e-01 5.00000000e-02)	1.76760230e+00	(5.00000000e-02 -4.50000000e-01 5.00000000e-02)
2.1             	U               	(9.18909446e-01 3.58217752e-02 0.00000000e+00)	(5.00000000e-02 -4.50000000e-01 5.00000000e-02)	(9.18909446e-01 3.58217752e-02 0.00000000e+00)	(5.00000000e-02 -4.50000000e-01 5.00000000e-02)
2.1             	p               	0.00000000e+00	(1.00000000e+01 -4.50000000e-01 5.00000000e-02)	1.76238469e+00	(5.00000000e-02 -4.50000000e-01 5.00000000e-02)
2.15            	U               	(9.18909134e-01 3.58216850e-02 0.00000000e+00)	(5.00000000e-02 -4.50000000e-01 5.00000000e-02)	(9.18909134e-01 3.58216850e-02 0.00000000e+00)	(5.00000000e-02 -4.50000000e-01 5.00000000e-02)
2.15            	p               	0.00000000e+00	(1.00000000e+01 -4.50000000e-01 5.00000000e-02)	1.75748887e+00	(5.00000000e-02 -4.50000000e-01 5.00000000e-02)
2.2             	U               	(9.18908876e-01 3.58216380e-02 0.00000000e+00)	(5.00000000e-02 -4.50000000e-01 5.00000000e-02)	(9.18908876e-01 3.58216380e-02 0.00000000e+00)	(5.00000000e-02 -4.50000000e-01 5.00000000e-02)
2.2             	p               	0.00000000e+00	(1.00000000e+01 -4.50000000e-01 5.00000000e-02)	1.75289150e+00	(5.00000000e-02 -4.50000000e-01 5.00000000e-02)
2.25            	U               	(9.18908675e-01 3.58216242e-02 0.00000000e+00)	(5.00000000e-02 -4.50000000e-01 5.00000000e-02)	(9.18908675e-01 3.58216242e-02 0.00000000e+00)	(5.00000000e-02 -4.50000000e-01 5.00000000e-02)
2.25            	p               	0.00000000e+00	(1.00000000e+01 -4.50000000e-01 5.00000000e-02)	1.74857134e+00	(5.00000000e-02 -4.50000000e-01 5.00000000e-02)
2.3             	U               	(9.18908529e-01 3.58216340e-02 0.00000000e+00)	(5.00000000e-02 -4.50000000e-01 5.00000000e-02)	(9.18908529e-01 3.58216340e-02 0.00000000e+00)	(5.00000000e-02 -4.50000000e-01 5.00000000e-02)
2.3             	p               	0.00000000e+00	(1.00000000e+01 -4.50000000e-01 5.00000000e-02)	1.74450890e+00	(5.00000000e-02 -4.50000000e-01 5.00000000e-02)
2.35            	U               	(9.18908429e-01 3.58216591e-02 0.00000000e+00)	(5.00000000e-02 -4.50000000e-01 5.00000000e-02)	(9.18908429e-01 3.58216591e-02 0.00000000e+00)	(5.00000000e-02 -4.50000000e-01 5.00000000e-02)
2.35            	p               	0.00000000e+00	(1.00000000e+01 -4.50000000e-01 5.00000000e-02)	1.74068643e+00	(5.00000000e-02 -4.50000000e-01 5.00000000e-02)
2.4             	U               	(9.18908368e-01 3.58216926e-02 0.00000000e+00)	(5.00000000e-02 -4.50000000e-01 5.00000000e-02)	(9.18908368e-01 3.58216926e-02 0.00000000e+00)	(5.00000000e-02 -4.50000000e-01 5.00000000e-02)
2.4             	p               	0.00000000e+00	(1.00000000e+01 -4.50000000e-01 5.00000000e-02)	1.73708758e+00	(5.00000000e-02 -4.50000000e-01 5.00000000e-02)
2.45            	U               	(9.18908335e-01 3.58217294e-02 0.00000000e+00)	(5.00000000e-02 -4.50000000e-01 5.00000000e-02)	(9.18908335e-01 3.58217294e-02 0.00000000e+00)	(5.00000000e-02 -4.50000000e-01 5.00000000e-02)
2.45            	p               	0.00000000e+00	(1.00000000e+01 -4.50000000e-01 5.00000000e-02)	1.73369740e+00	(5.00000000e-02 -4.50000000e-01 5.00000000e-02)
2.5             	U               	(9.18908323e-01 3.58217657e-02 0.00000000e+00)	(5.00000000e-02 -4.50000000e-01 5.00000000e-02)	(9.18908323e-01 3.58217657e-02 0.00000000e+00)	(5.00000000e-02 -4.50000000e-01 5.00000000e-02)
2.5             	p               	0.00000000e+00	(1.00000000e+01 -4.50000000e-01 5.00000000e-02)	1.73050208e+00	(5.00000000e-02 -4.50000000e-01 5.00000000e-02)
2.55            	U               	(9.18908323e-01 3.58217991e-02 0.00000000e+00)	(5.00000000e-02 -4.50000000e-01 5.00000000e-02)	(9.18908323e-01 3.58217991e-02 0.00000000e+00)	(5.00000000e-02 -4.50000000e-01 5.00000000e-02)
2.55            	p               	0.00000000e+00	(1.00000000e+01 -4.50000000e-01 5.00000000e-02)	1.72748897e+00	(5.00000000e-02 -4.50000000e-01 5.00000000e-02)
2.6             	U               	(9.18908332e-01 3.58218282e-02 0.00000000e+00)	(5.00000000e-02 -4.50000000e-01 5.00000000e-02)	(9.18908332e-01 3.58218282e-02 0.00000000e+00)	(5.00000000e-02 -4.50000000e-01 5.00000000e-02)
2.6             	p               	0.00000000e+00	(1.00000000e+01 -4.50000000e-01 5.00000000e-02)	1.72464634e+00	(5.00000000e-02 -4.50000000e-01 5.00000000e-02)
2.65            	U               	(9.18908344e-01 3.58218525e-02 0.00000000e+00)	(5.00000000e-02 -4.50000000e-01 5.00000000e-02)	(9.18908344e-01 3.58218525e-02 0.00000000e+00)	(5.00000000e-02 -4.50000000e-01 5.00000000e-02)
2.65            	p               	0.00000000e+00	(1.00000000e+01 -4.50000000e-01 5.00000000e-02)	1.72196339e+00	(5.00000000e-02 -4.50000000e-01 5.00000000e-02)
2.7             	U               	(9.18908356e-01 3.58218720e-02 0.00000000e+00)	(5.00000000e-02 -4.50000000e-01 5.00000000e-02)	(9.18908356e-01 3.58218720e-02 0.00000000e+00)	(5.00000000e-02 -4.50000000e-01 5.00000000e-02)
2.7             	p               	0.00000000e+00	(1.00000000e+01 -4.50000000e-01 5.00000000e-02)	1.71943014e+00	(5.00000000e-02 -4.50000000e-01 5.00000000e-02)
2.75            	U               	(9.18908368e-01 3.58218870e-02 0.00000000e+00)	(5.00000000e-02 -4.50000000e-01 5.00000000e-02)	(9.18908368e-01 3.58218870e-02 0.00000000e+00)	(5.00000000e-02 -4.50000000e-01 5.00000000e-02)
2.75            	p               	0.00000000e+00	(1.00000000e+01 -4.50000000e-01 5.00000000e-02)	1.71703733e+00	(5.00000000e-02 -4.50000000e-01 5.00000000e-02)
2.8             	U               	(9.18908373e-01 3.58219017e-02 0.00000000e+00)	(5.00000000e-02 -4.50000000e-01 5.00000000e-02)	(9.18908373e-01 3.58219017e-02 0.00000000e+00)	(5.00000000e-02 -4.50000000e-01 5.00000000e-02)
2.8             	p               	0.00000000e+00	(1.00000000e+01 -4.50000000e-01 5.00000000e-02)	1.71478871e+00	(5.00000000e-02 -4.50000000e-01 5.00000000e-02)
2.85            	U               	(9.18908385e-01 3.58219082e-02 0.00000000e+00)	(5.00000000e-02 -4.50000000e-01 5.00000000e-02)	(9.18908385e-01 3.58219082e-02 0.00000000e+00)	(5.00000000e-02 -4.50000000e-01 5.00000000e-02)
2.85            	p               	0.00000000e+00	(1.00000000e+01 -4.50000000e-01 5.00000000e-02)	1.71263676e+00	(5.00000000e-02 -4.50000000e-01 5.00000000e-02)
2.9             	U               	(9.18908391e-01 3.58219130e-02 0.00000000e+00)	(5.00000000e-02 -4.50000000e-01 5.00000000e-02)	(9.18908391e-01 3.58219130e-02 0.00000000e+00)	(5.00000000e-02 -4.50000000e-01 5.00000000e-02)
2.9             	p               	0.00000000e+00	(1.00000000e+01 -4.50000000e-01 5.00000000e-02)	1.71061878e+00	(5.00000000e-02 -4.50000000e-01 5.00000000e-02)
2.95            	U               	(9.18908396e-01 3.58219160e-02 0.00000000e+00)	(5.00000000e-02 -4.50000000e-01 5.00000000e-02)	(9.18908396e-01 3.58219160e-02 0.00000000e+00)	(5.00000000e-02 -4.50000000e-01 5.00000000e-02)
2.95            	p               	0.00000000e+00	(1.00000000e+01 -4.50000000e-01 5.00000000e-02)	1.70870746e+00	(5.00000000e-02 -4.50000000e-01 5.00000000e-02)
3               	U               	(9.18908398e-01 3.58219176e-02 0.00000000e+00)	(5.00000000e-02 -4.50000000e-01 5.00000000e-02)	(9.18908398e-01 3.58219176e-02 0.00000000e+00)	(5.00000000e-02 -4.50000000e-01 5.00000000e-02)
3               	p               	0.00000000e+00	(1.00000000e+01 -4.50000000e-01 5.00000000e-02)	1.70689983e+00	(5.00000000e-02 -4.50000000e-01 5.00000000e-02)
3.05            	U               	(9.18908400e-01 3.58219182e-02 0.00000000e+00)	(5.00000000e-02 -4.50000000e-01 5.00000000e-02)	(9.18908400e-01 3.58219182e-02 0.00000000e+00)	(5.00000000e-02 -4.50000000e-01 5.00000000e-02)
3.05            	p               	0.00000000e+00	(1.00000000e+01 -4.50000000e-01 5.00000000e-02)	1.70518933e+00	(5.00000000e-02 -4.50000000e-01 5.00000000e-02)
3.1             	U               	(9.18908400e-01 3.58219182e-02 0.00000000e+00)	(5.00000000e-02 -4.50000000e-01 5.00000000e-02)	(9.18908400e-01 3.58219182e-02 0.00000000e+00)	(5.00000000e-02 -4.50000000e-01 5.00000000e-02)
3.1             	p               	0.00000000e+00	(1.00000000e+01 -4.50000000e-01 5.00000000e-02)	1.70357050e+00	(5.00000000e-02 -4.50000000e-01 5.00000000e-02)
3.15            	U               	(9.18908400e-01 3.58219177e-02 0.00000000e+00)	(5.00000000e-02 -4.50000000e-01 5.00000000e-02)	(9.18908400e-01 3.58219177e-02 0.00000000e+00)	(5.00000000e-02 -4.50000000e-01 5.00000000e-02)
3.15            	p               	0.00000000e+00	(1.00000000e+01 -4.50000000e-01 5.00000000e-02)	1.70203810e+00	(5.00000000e-02 -4.50000000e-01 5.00000000e-02)
3.2             	U               	(9.18908399e-01 3.58219171e-02 0.00000000e+00)	(5.00000000e-02 -4.50000000e-01 5.00000000e-02)	(9.18908399e-01 3.58219171e-02 0.00000000e+00)	(5.00000000e-02 -4.50000000e-01 5.00000000e-02)
3.2             	p               	0.00000000e+00	(1.00000000e+01 -4.50000000e-01 5.00000000e-02)	1.70058726e+00	(5.00000000e-02 -4.50000000e-01 5.00000000e-02)
3.25            	U               	(9.18908398e-01 3.58219164e-02 0.00000000e+00)	(5.00000000e-02 -4.50000000e-01 5.00000000e-02)	(9.18908398e-01 3.58219164e-02 0.00000000e+00)	(5.00000000e-02 -4.50000000e-01 5.00000000e-02)
3.25            	p               	0.00000000e+00	(1.00000000e+01 -4.50000000e-01 5.00000000e-02)	1.69921343e+00	(5.00000000e-02 -4.50000000e-01 5.00000000e-02)
3.3             	U               	(9.18908397e-01 3.58219157e-02 0.00000000e+00)	(5.00000000e-02 -4.50000000e-01 5.00000000e-02)	(9.18908397e-01 3.58219157e-02 0.00000000e+00)	(5.00000000e-02 -4.50000000e-01 5.00000000e-02)
3.3             	p               	0.00000000e+00	(1.00000000e+01 -4.50000000e-01 5.00000000e-02)	1.69791232e+00	(5.00000000e-02 -4.50000000e-01 5.00000000e-02)
3.35            	U               	(9.18908396e-01 3.58219151e-02 0.00000000e+00)	(5.00000000e-02 -4.50000000e-01 5.00000000e-02)	(9.18908396e-01 3.58219151e-02 0.00000000e+00)	(5.00000000e-02 -4.50000000e-01 5.00000000e-02)
3.35            	p               	0.00000000e+00	(1.00000000e+01 -4.50000000e-01 5.00000000e-02)	1.69667993e+00	(5.00000000e-02 -4.50000000e-01 5.00000000e-02)
3.4             	U               	(9.18908396e-01 3.58219145e-02 0.00000000e+00)	(5.00000000e-02 -4.50000000e-01 5.00000000e-02)	(9.18908396e-01 3.58219145e-02 0.00000000e+00)	(5.00000000e-02 -4.50000000e-01 5.00000000e-02)
3.4             	p               	0.00000000e+00	(1.00000000e+01 -4.50000000e-01 5.00000000e-02)	1.69551251e+00	(5.00000000e-02 -4.50000000e-01 5.00000000e-02)
3.45            	U               	(9.18908395e-01 3.58219140e-02 0.00000000e+00)	(5.00000000e-02 -4.50000000e-01 5.00000000e-02)	(9.18908395e-01 3.58219140e-02 0.00000000e+00)	(5.00000000e-02 -4.50000000e-01 5.00000000e-02)
3.45            	p               	0.00000000e+00	(1.00000000e+01 -4.50000000e-01 5.00000000e-02)	1.69440652e+00	(5.00000000e-02 -4.50000000e-01 5.00000000e-02)
3.5             	U               	(9.18908394e-01 3.58219136e-02 0.00000000e+00)	(5.00000000e-02 -4.50000000e-01 5.00000000e-02)	(9.18908394e-01 3.58219136e-02 0.00000000e+00)	(5.00000000e-02 -4.50000000e-01 5.00000000e-02)
3.5             	p               	0.00000000e+00	(1.00000000e+01 -4.50000000e-01 5.00000000e-02)	1.69335865e+00	(5.00000000e-02 -4.50000000e-01 5.00000000e-02)
3.55            	U               	(9.18908394e-01 3.58219133e-02 0.00000000e+00)	(5.00000000e-02 -4.50000000e-01 5.00000000e-02)	(9.18908394e-01 3.58219133e-02 0.00000000e+00)	(5.00000000e-02 -4.50000000e-01 5.00000000e-02)
3.55            	p               	0.00000000e+00	(1.00000000e+01 -4.50000000e-01 5.00000000e-02)	1.69236578e+00	(5.00000000e-02 -4.50000000e-01 5.00000000e-02)
3.6             	U               	(9.18908393e-01 3.58219131e-02 0.00000000e+00)	(5.00000000e-02 -4.50000000e-01 5.00000000e-02)	(9.18908393e-01 3.58219131e-02 0.00000000e+00)	(5.00000000e-02 -4.50000000e-01 5.00000000e-02)
3.6             	p               	0.00000000e+00	(1.00000000e+01 -4.50000000e-01 5.00000000e-02)	1.69142498e+00	(5.00000000e-02 -4.50000000e-01 5.00000000e-02)
3.65            	U               	(9.18908393e-01 3.58219129e-02 0.00000000e+00)	(5.00000000e-02 -4.50000000e-01 5.00000000e-02)	(9.18908393e-01 3.58219129e-02 0.00000000e+00)	(5.00000000e-02 -4.50000000e-01 5.00000000e-02)
3.65            	p               	0.00000000e+00	(1.00000000e+01 -4.50000000e-01 5.00000000e-02)	1.69053348e+00	(5.00000000e-02 -4.50000000e-01 5.00000000e-02)
3.7             	U               	(9.18908393e-01 3.58219128e-02 0.00000000e+00)	(5.00000000e-02 -4.50000000e-01 5.00000000e-02)	(9.18908393e-01 3.58219128e-02 0.00000000e+00)	(5.00000000e-02 -4.50000000e-01 5.00000000e-02)
3.7             	p               	0.00000000e+00	(1.00000000e+01 -4.50000000e-01 5.00000000e-02)	1.68968868e+00	(5.00000000e-02 -4.50000000e-01 5.00000000e-02)
3.75            	U               	(9.18908392e-01 3.58219127e-02 0.00000000e+00)	(5.00000000e-02 -4.50000000e-01 5.00000000e-02)	(9.18908392e-01 3.58219127e-02 0.00000000e+00)	(5.00000000e-02 -4.50000000e-01 5.00000000e-02)
3.75            	p               	0.00000000e+00	(1.00000000e+01 -4.50000000e-01 5.00000000e-02)	1.68888813e+00	(5.00000000e-02 -4.50000000e-01 5.00000000e-02)
3.8             	U               	(9.18908392e-01 3.58219127e-02 0.00000000e+00)	(5.00000000e-02 -4.50000000e-01 5.00000000e-02)	(9.18908392e-01 3.58219127e-02 0.00000000e+00)	(5.00000000e-02 -4.50000000e-01 5.00000000e-02)
3.8             	p               	0.00000000e+00	(1.00000000e+01 -4.50000000e-01 5.00000000e-02)	1.68812951e+00	(5.00000000e-02 -4.50000000e-01 5.00000000e-02)
3.85            	U               	(9.18908392e-01 3.58219126e-02 0.00000000e+00)	(5.00000000e-02 -4.50000000e-01 5.00000000e-02)	(9.18908392e-01 3.58219126e-02 0.00000000e+00)	(5.00000000e-02 -4.50000000e-01 5.00000000e-02)
3.85            	p               	0.00000000e+00	(1.00000000e+01 -4.50000000e-01 5.00000000e-02)	1.68741064e+00	(5.00000000e-02 -4.50000000e-01 5.00000000e-02)
3.9             	U               	(9.18908392e-01 3.58219126e-02 0.00000000e+00)	(5.00000000e-02 -4.50000000e-01 5.00000000e-02)	(9.18908392e-01 3.58219126e-02 0.00000000e+00)	(5.00000000e-02 -4.50000000e-01 5.00000000e-02)