/*--------------------------------*- C++ -*----------------------------------*\
| =========                 |                                                 |
| \\      /  F ield         | OpenFOAM: The Open Source CFD Toolbox           |
|  \\    /   O peration     | Version:  v1812                                 |
|   \\  /    A nd           | Web:      www.OpenFOAM.com                      |
|    \\/     M anipulation  |                                                 |
\*---------------------------------------------------------------------------*/
FoamFile
{
    version     2.0;
    format      ascii;
    class       volVectorField;
    location    "9.9";
    object      U;
}
// * * * * * * * * * * * * * * * * * * * * * * * * * * * * * * * * * * * * * //

dimensions      [0 1 -1 0 0 0 0];


internalField   nonuniform List<vector> 
1000
(
(0.91890839 0.035821913 0)
(0.86271384 0.062195638 0)
(0.7870597 0.06251009 0)
(0.69536033 0.054550395 0)
(0.61089745 0.044531651 0)
(0.54411592 0.034015971 0)
(0.49343012 0.024187539 0)
(0.45479413 0.016144229 0)
(0.42544582 0.010265785 0)
(0.40347313 0.0063041449 0)
(0.38715767 0.0037976293 0)
(0.3749622 0.0023103383 0)
(0.36566193 0.0014930152 0)
(0.35836272 0.0010851187 0)
(0.35244267 0.00090607273 0)
(0.347482 0.000841052 0)
(0.34320348 0.00082372416 0)
(0.33942726 0.00081931016 0)
(0.33603793 0.00081185154 0)
(0.33296114 0.00079580073 0)
(0.33014778 0.00077081111 0)
(0.32756384 0.00073870941 0)
(0.3251842 0.00070188956 0)
(0.32298902 0.00066256618 0)
(0.32096172 0.0006225002 0)
(0.31908785 0.00058295801 0)
(0.31735449 0.00054477189 0)
(0.31574995 0.00050843412 0)
(0.3142636 0.00047419123 0)
(0.31288574 0.00044212401 0)
(0.31160755 0.00041220884 0)
(0.31042101 0.00038436119 0)
(0.30931883 0.00035846485 0)
(0.30829438 0.00033439056 0)
(0.30734165 0.00031200722 0)
(0.30645515 0.00029118826 0)
(0.30562991 0.00027181483 0)
(0.30486136 0.00025377708 0)
(0.30414535 0.0002369743 0)
(0.30347806 0.00022131449 0)
(0.30285601 0.00020671366 0)
(0.30227596 0.00019309502 0)
(0.30173496 0.00018038825 0)
(0.30123029 0.00016852884 0)
(0.30075942 0.00015745746 0)
(0.30032001 0.00014711951 0)
(0.29990992 0.00013746469 0)
(0.29952714 0.00012844658 0)
(0.29916982 0.00012002228 0)
(0.29883623 0.0001121521 0)
(0.29852478 0.00010479917 0)
(0.29823396 9.7929124e-05 0)
(0.29796241 9.1509935e-05 0)
(0.29770882 8.5511628e-05 0)
(0.297472 7.9906234e-05 0)
(0.29725083 7.4667672e-05 0)
(0.29704427 6.9771722e-05 0)
(0.29685136 6.5195951e-05 0)
(0.29667118 6.0919569e-05 0)
(0.29650289 5.6923291e-05 0)
(0.2963457 5.3189086e-05 0)
(0.29619888 4.9699975e-05 0)
(0.29606173 4.6439898e-05 0)
(0.29593363 4.3393571e-05 0)
(0.29581396 4.0546594e-05 0)
(0.29570218 3.7885479e-05 0)
(0.29559777 3.5397774e-05 0)
(0.29550024 3.307213e-05 0)
(0.29540915 3.0898131e-05 0)
(0.29532406 2.8866208e-05 0)
(0.29524459 2.6967263e-05 0)
(0.29517035 2.5192458e-05 0)
(0.29510102 2.3533103e-05 0)
(0.29503627 2.1980624e-05 0)
(0.29497581 2.0526867e-05 0)
(0.29491937 1.9164295e-05 0)
(0.29486668 1.7886275e-05 0)
(0.29481753 1.6687035e-05 0)
(0.29477168 1.5561681e-05 0)
(0.29472893 1.4505383e-05 0)
(0.29468909 1.351394e-05 0)
(0.29465199 1.2581926e-05 0)
(0.29461745 1.1705356e-05 0)
(0.29458534 1.0877983e-05 0)
(0.2945555 1.009756e-05 0)
(0.29452782 9.3577819e-06 0)
(0.29450218 8.6604766e-06 0)
(0.29447847 7.9981972e-06 0)
(0.29445656 7.378186e-06 0)
(0.29443638 6.7875878e-06 0)
(0.29441779 6.2406162e-06 0)
(0.29440075 5.713875e-06 0)
(0.2943851 5.2334469e-06 0)
(0.29437085 4.7626765e-06 0)
(0.29435783 4.3458945e-06 0)
(0.29434598 3.9376458e-06 0)
(0.29433535 3.5917649e-06 0)
(0.29432534 3.2907765e-06 0)
(0.29431722 3.0503902e-06 0)
(0.29430664 3.1155138e-06 0)
(1.0016583 0.05381943 0)
(1.0359761 0.10128444 0)
(1.0597199 0.11073663 0)
(1.0628947 0.10592202 0)
(1.0515569 0.096228728 0)
(1.0340529 0.083934061 0)
(1.0142795 0.070327062 0)
(0.99360703 0.056981333 0)
(0.97292577 0.045107478 0)
(0.9531074 0.035236749 0)
(0.93479538 0.02740165 0)
(0.91829012 0.021387227 0)
(0.90362379 0.016884499 0)
(0.89068067 0.01356971 0)
(0.87928174 0.01114775 0)
(0.86923242 0.0093736596 0)
(0.86034423 0.0080569285 0)
(0.85244667 0.0070571272 0)
(0.84539241 0.0062752376 0)
(0.83905793 0.0056438275 0)
(0.83334126 0.0051180899 0)
(0.82815884 0.0046686716 0)
(0.82344212 0.0042764172 0)
(0.81913467 0.0039287392 0)
(0.81518962 0.0036172045 0)
(0.81156765 0.0033359715 0)
(0.80823544 0.0030808048 0)
(0.8051644 0.0028484692 0)
(0.80232979 0.0026363687 0)
(0.79970999 0.0024423373 0)
(0.79728597 0.0022645173 0)
(0.79504086 0.0021012887 0)
(0.79295963 0.0019512248 0)
(0.79102881 0.0018130635 0)
(0.78923627 0.0016856849 0)
(0.7875711 0.0015680945 0)
(0.78602338 0.0014594076 0)
(0.78458411 0.0013588371 0)
(0.78324511 0.0012656808 0)
(0.78199888 0.0011793111 0)
(0.7808386 0.0010991658 0)
(0.77975798 0.0010247398 0)
(0.77875127 0.00095557769 0)
(0.77781318 0.00089126813 0)
(0.77693881 0.00083143814 0)
(0.77612367 0.00077574888 0)
(0.77536362 0.00072389172 0)
(0.7746548 0.00067558498 0)
(0.77399366 0.00063057093 0)
(0.77337692 0.00058861327 0)
(0.77280152 0.00054949476 0)
(0.77226463 0.00051301526 0)
(0.77176362 0.00047898995 0)
(0.77129605 0.00044724792 0)
(0.77085966 0.00041763094 0)
(0.77045232 0.00038999252 0)
(0.77007209 0.00036419704 0)
(0.76971714 0.00034011901 0)
(0.76938577 0.00031764221 0)
(0.76907641 0.00029665892 0)
(0.76878756 0.00027706902 0)
(0.76851787 0.00025877913 0)
(0.76826606 0.00024170191 0)
(0.76803092 0.00022575552 0)
(0.76781135 0.00021086334 0)
(0.76760631 0.0001969538 0)
(0.76741485 0.00018396035 0)
(0.76723605 0.00017182134 0)
(0.76706908 0.00016047964 0)
(0.76691317 0.00014988211 0)
(0.76676759 0.00013997893 0)
(0.76663165 0.00013072281 0)
(0.76650473 0.00012206877 0)
(0.76638624 0.00011397363 0)
(0.76627562 0.0001063968 0)
(0.76617238 9.9299911e-05 0)
(0.76607604 9.2648397e-05 0)
(0.76598618 8.6409824e-05 0)
(0.76590238 8.0556268e-05 0)
(0.76582428 7.5059702e-05 0)
(0.76575153 6.9897167e-05 0)
(0.7656838 6.504147e-05 0)
(0.76562078 6.0473918e-05 0)
(0.76556221 5.6166079e-05 0)
(0.76550781 5.210731e-05 0)
(0.76545737 4.8267083e-05 0)
(0.76541062 4.4650208e-05 0)
(0.76536744 4.1218653e-05 0)
(0.76532751 3.8001123e-05 0)
(0.76529079 3.4936301e-05 0)
(0.76525693 3.2090084e-05 0)
(0.76522597 2.9351303e-05 0)
(0.76519751 2.6854088e-05 0)
(0.76517161 2.4398541e-05 0)
(0.76514801 2.2249814e-05 0)
(0.76512634 2.0047225e-05 0)
(0.76510749 1.8301432e-05 0)
(0.76508851 1.6338033e-05 0)
(0.76507579 1.5179572e-05 0)
(0.76505509 1.3558799e-05 0)
(1.0014244 0.026824855 0)
(1.0291272 0.062791352 0)
(1.0654292 0.077736553 0)
(1.098962 0.0805972 0)
(1.1253149 0.078285171 0)
(1.145053 0.0731539 0)
(1.1594858 0.066111278 0)
(1.1694287 0.058162063 0)
(1.1755354 0.050296753 0)
(1.1785738 0.043150707 0)
(1.1793571 0.036972825 0)
(1.1785949 0.031771632 0)
(1.1768304 0.02745184 0)
(1.1744518 0.023886769 0)
(1.1717287 0.020947621 0)
(1.1688444 0.018515781 0)
(1.1659195 0.016488085 0)
(1.1630317 0.014779502 0)
(1.1602295 0.013322984 0)
(1.1575415 0.012067131 0)
(1.1549828 0.010972999 0)
(1.1525601 0.010011061 0)
(1.1502747 0.0091587467 0)
(1.1481246 0.0083986049 0)
(1.1461059 0.0077169518 0)
(1.1442134 0.0071028896 0)
(1.1424414 0.0065475931 0)
(1.1407838 0.0060437959 0)
(1.1392344 0.0055854259 0)
(1.1377869 0.0051673437 0)
(1.1364353 0.0047851558 0)
(1.1351738 0.0044350751 0)
(1.1339968 0.0041138164 0)
(1.1328987 0.0038185135 0)
(1.1318746 0.0035466547 0)
(1.1309195 0.0032960296 0)
(1.1300289 0.0030646857 0)
(1.1291985 0.0028508926 0)
(1.1284242 0.0026531112 0)
(1.1277022 0.0024699683 0)
(1.1270291 0.0023002344 0)
(1.1264014 0.0021428057 0)
(1.1258161 0.0019966874 0)
(1.1252702 0.0018609813 0)
(1.1247612 0.0017348734 0)
(1.1242865 0.0016176246 0)
(1.1238437 0.0015085622 0)
(1.1234307 0.0014070725 0)
(1.1230455 0.001312595 0)
(1.1226861 0.0012246159 0)
(1.1223509 0.0011426641 0)
(1.1220381 0.0010663065 0)
(1.1217462 0.00099514412 0)
(1.1214739 0.00092880896 0)
(1.1212198 0.00086696115 0)
(1.1209827 0.00080928651 0)
(1.1207614 0.00075549453 0)
(1.1205548 0.00070531638 0)
(1.120362 0.00065850335 0)
(1.1201821 0.00061482501 0)
(1.1200142 0.00057406765 0)
(1.1198574 0.00053603272 0)
(1.119711 0.0005005353 0)
(1.1195744 0.00046740296 0)
(1.1194469 0.00043647475 0)
(1.1193278 0.00040760049 0)
(1.1192167 0.00038064036 0)
(1.1191129 0.00035546414 0)
(1.119016 0.00033195093 0)
(1.1189255 0.00030998808 0)
(1.118841 0.00028947049 0)
(1.1187622 0.00027029933 0)
(1.1186886 0.00025238162 0)
(1.1186198 0.00023562899 0)
(1.1185557 0.00021995875 0)
(1.1184958 0.00020529199 0)
(1.1184399 0.00019155698 0)
(1.1183878 0.00017868477 0)
(1.1183391 0.00016661552 0)
(1.1182937 0.00015528872 0)
(1.1182514 0.00014465586 0)
(1.118212 0.0001346602 0)
(1.1181753 0.00012526494 0)
(1.1181411 0.00011641133 0)
(1.1181093 0.00010808049 0)
(1.1180797 0.00010020448 0)
(1.1180522 9.2797161e-05 0)
(1.1180268 8.5765172e-05 0)
(1.1180031 7.918161e-05 0)
(1.1179814 7.2887837e-05 0)
(1.1179611 6.7067704e-05 0)
(1.1179427 6.1412981e-05 0)
(1.1179254 5.6332061e-05 0)
(1.1179099 5.1199237e-05 0)
(1.1178954 4.6897418e-05 0)
(1.1178823 4.2136214e-05 0)
(1.1178706 3.8788305e-05 0)
(1.1178587 3.4184043e-05 0)
(1.1178512 3.218993e-05 0)
(1.1178379 2.7474293e-05 0)
(1.0007347 0.011814722 0)
(1.0178472 0.030860927 0)
(1.0462163 0.041434442 0)
(1.0799018 0.04519357 0)
(1.1132664 0.045502351 0)
(1.143782 0.044080308 0)
(1.1708941 0.041439982 0)
(1.1945687 0.037973677 0)
(1.2148582 0.034195729 0)
(1.2319652 0.030536886 0)
(1.2462683 0.027222044 0)
(1.2582339 0.02431392 0)
(1.2683135 0.021797888 0)
(1.2768875 0.01963366 0)
(1.2842554 0.017773827 0)
(1.2906479 0.016169652 0)
(1.296243 0.01477559 0)
(1.3011791 0.013552297 0)
(1.3055645 0.012467863 0)
(1.3094838 0.011497465 0)
(1.3130042 0.010622161 0)
(1.3161792 0.0098275127 0)
(1.3190526 0.0091024111 0)
(1.3216607 0.0084381775 0)
(1.3240343 0.0078279051 0)
(1.3261995 0.0072659758 0)
(1.3281786 0.0067477099 0)
(1.3299913 0.0062691174 0)
(1.3316544 0.0058267275 0)
(1.3331829 0.0054174728 0)
(1.3345896 0.0050386115 0)
(1.3358862 0.004687673 0)
(1.3370827 0.0043624193 0)
(1.3381882 0.0040608153 0)
(1.3392108 0.0037810059 0)
(1.3401576 0.0035212973 0)
(1.3410349 0.0032801409 0)
(1.3418486 0.0030561196 0)
(1.3426038 0.0028479353 0)
(1.3433051 0.002654398 0)
(1.3439569 0.0024744158 0)
(1.3445629 0.0023069859 0)
(1.3451267 0.0021511862 0)
(1.3456513 0.0020061683 0)
(1.3461398 0.0018711508 0)
(1.3465947 0.0017454135 0)
(1.3470185 0.0016282921 0)
(1.3474135 0.0015191734 0)
(1.3477816 0.001417491 0)
(1.3481249 0.0013227216 0)
(1.3484449 0.0012343808 0)
(1.3487435 0.0011520202 0)
(1.349022 0.0010752243 0)
(1.3492818 0.0010036079 0)
(1.3495242 0.00093681335 0)
(1.3497505 0.0008745087 0)
(1.3499616 0.00081638582 0)
(1.3501587 0.00076215864 0)
(1.3503427 0.00071156158 0)
(1.3505145 0.00066434799 0)
(1.3506748 0.00062028865 0)
(1.3508245 0.00057917024 0)
(1.3509643 0.000540794 0)
(1.3510948 0.00050497449 0)
(1.3512167 0.00047153855 0)
(1.3513305 0.00044032463 0)
(1.3514368 0.00041118206 0)
(1.3515361 0.00038397044 0)
(1.3516287 0.00035855916 0)
(1.3517153 0.00033482633 0)
(1.3517961 0.00031265851 0)
(1.3518716 0.00029194887 0)
(1.3519421 0.00027259746 0)
(1.3520079 0.00025450945 0)
(1.3520693 0.0002375963 0)
(1.3521266 0.00022177346 0)
(1.3521801 0.00020696403 0)
(1.35223 0.00019309325 0)
(1.3522765 0.00018009681 0)
(1.3523198 0.0001679078 0)
(1.3523602 0.00015647482 0)
(1.3523978 0.00014573386 0)
(1.3524327 0.00013564857 0)
(1.3524652 0.00012615004 0)
(1.3524953 0.00011722588 0)
(1.3525233 0.00010878948 0)
(1.352549 0.00010087385 0)
(1.352573 9.3346882e-05 0)
(1.3525948 8.6329515e-05 0)
(1.3526154 7.9581999e-05 0)
(1.3526335 7.3398886e-05 0)
(1.3526511 6.7303357e-05 0)
(1.3526659 6.194121e-05 0)
(1.3526811 5.6345235e-05 0)
(1.3526926 5.1867177e-05 0)
(1.3527061 4.6573601e-05 0)
(1.3527142 4.3173229e-05 0)
(1.3527269 3.7920834e-05 0)
(1.3527313 3.5957532e-05 0)
(1.3527447 3.0415809e-05 0)
(1.0005903 0.0034629161 0)
(1.0136865 0.00936602 0)
(1.0370283 0.013046806 0)
(1.0674202 0.014563262 0)
(1.1000315 0.014854525 0)
(1.1316428 0.014564991 0)
(1.1610745 0.013888338 0)
(1.1880674 0.012919245 0)
(1.2125205 0.011806506 0)
(1.2343939 0.010696426 0)
(1.2538077 0.0096727418 0)
(1.2710339 0.0087628221 0)
(1.286401 0.007965974 0)
(1.3002112 0.0072722152 0)
(1.3127102 0.0066688092 0)
(1.3240903 0.0061419257 0)
(1.3345036 0.0056780723 0)
(1.3440716 0.0052653207 0)
(1.3528927 0.0048939346 0)
(1.3610463 0.0045563952 0)
(1.3685975 0.0042470693 0)
(1.3756004 0.0039617758 0)
(1.3821012 0.0036973979 0)
(1.3881402 0.0034515833 0)
(1.3937533 0.0032225195 0)
(1.3989728 0.0030087708 0)
(1.403828 0.0028091587 0)
(1.4083456 0.0026226795 0)
(1.4125503 0.0024484496 0)
(1.4164646 0.0022856704 0)
(1.4201094 0.0021336071 0)
(1.423504 0.0019915759 0)
(1.426666 0.0018589365 0)
(1.4296121 0.0017350868 0)
(1.4323573 0.0016194602 0)
(1.4349159 0.0015115235 0)
(1.4373007 0.0014107751 0)
(1.4395241 0.0013167439 0)
(1.441597 0.0012289876 0)
(1.4435301 0.0011470916 0)
(1.4453328 0.0010706672 0)
(1.4470143 0.00099935076 0)
(1.4485827 0.00093280179 0)
(1.4500459 0.00087070193 0)
(1.451411 0.00081275357 0)
(1.4526846 0.00075867866 0)
(1.4538731 0.00070821757 0)
(1.4549822 0.00066112802 0)
(1.4560172 0.00061718391 0)
(1.4569831 0.00057617436 0)
(1.4578847 0.00053790265 0)
(1.4587262 0.00050218517 0)
(1.4595117 0.00046885063 0)
(1.460245 0.00043773912 0)
(1.4609295 0.00040870141 0)
(1.4615685 0.0003815983 0)
(1.4621651 0.00035629994 0)
(1.4627221 0.00033268538 0)
(1.4632422 0.00031064195 0)
(1.4637278 0.00029006465 0)
(1.4641812 0.00027085564 0)
(1.4646045 0.00025292353 0)
(1.4649998 0.00023618297 0)
(1.4653689 0.00022055412 0)
(1.4657136 0.00020596228 0)
(1.4660355 0.00019233765 0)
(1.4663361 0.00017961513 0)
(1.4666168 0.00016773405 0)
(1.4668789 0.000156638 0)
(1.4671237 0.00014627427 0)
(1.4673523 0.00013659366 0)
(1.4675657 0.00012754985 0)
(1.467765 0.00011909948 0)
(1.4679511 0.00011120111 0)
(1.4681248 0.00010381636 0)
(1.468287 9.6908321e-05 0)
(1.4684383 9.044381e-05 0)
(1.4685796 8.4390172e-05 0)
(1.4687113 7.8719961e-05 0)
(1.4688341 7.3403583e-05 0)
(1.4689486 6.8419598e-05 0)
(1.4690553 6.3738806e-05 0)
(1.4691546 5.9346984e-05 0)
(1.469247 5.5211379e-05 0)
(1.4693328 5.1330029e-05 0)
(1.4694127 4.7659704e-05 0)
(1.4694865 4.4222274e-05 0)
(1.4695553 4.0948785e-05 0)
(1.4696183 3.7907657e-05 0)
(1.4696773 3.4971144e-05 0)
(1.4697306 3.2299202e-05 0)
(1.4697812 2.9639263e-05 0)
(1.4698254 2.7332586e-05 0)
(1.4698692 2.4877215e-05 0)
(1.4699044 2.2965411e-05 0)
(1.4699433 2.0625153e-05 0)
(1.4699691 1.9189768e-05 0)
(1.4700059 1.685219e-05 0)
(1.4700206 1.6032057e-05 0)
(1.4700602 1.3549571e-05 0)
(1.0005903 -0.0034629156 0)
(1.0136865 -0.0093660193 0)
(1.0370283 -0.013046806 0)
(1.0674202 -0.014563261 0)
(1.1000315 -0.014854524 0)
(1.1316428 -0.014564991 0)
(1.1610745 -0.013888338 0)
(1.1880674 -0.012919246 0)
(1.2125205 -0.011806506 0)
(1.2343939 -0.010696427 0)
(1.2538077 -0.009672742 0)
(1.2710339 -0.0087628218 0)
(1.286401 -0.0079659733 0)
(1.3002112 -0.0072722144 0)
(1.3127102 -0.0066688085 0)
(1.3240903 -0.0061419253 0)
(1.3345036 -0.0056780724 0)
(1.3440716 -0.0052653212 0)
(1.3528927 -0.0048939352 0)
(1.3610463 -0.0045563958 0)
(1.3685975 -0.0042470697 0)
(1.3756004 -0.0039617756 0)
(1.3821012 -0.0036973973 0)
(1.3881402 -0.0034515822 0)
(1.3937533 -0.0032225182 0)
(1.3989728 -0.0030087696 0)
(1.403828 -0.0028091578 0)
(1.4083456 -0.002622679 0)
(1.4125503 -0.0024484494 0)
(1.4164646 -0.0022856702 0)
(1.4201094 -0.0021336067 0)
(1.423504 -0.0019915752 0)
(1.426666 -0.0018589352 0)
(1.4296121 -0.0017350849 0)
(1.4323573 -0.0016194578 0)
(1.4349159 -0.0015115208 0)
(1.4373007 -0.0014107723 0)
(1.4395241 -0.0013167413 0)
(1.441597 -0.0012289852 0)
(1.4435301 -0.0011470891 0)
(1.4453328 -0.0010706646 0)
(1.4470143 -0.00099934768 0)
(1.4485827 -0.00093279804 0)
(1.4500459 -0.00087069743 0)
(1.451411 -0.00081274838 0)
(1.4526846 -0.00075867302 0)
(1.4538731 -0.00070821174 0)
(1.4549822 -0.00066112218 0)
(1.4560172 -0.00061717815 0)
(1.4569831 -0.00057616855 0)
(1.4578847 -0.00053789656 0)
(1.4587262 -0.00050217856 0)
(1.4595117 -0.00046884332 0)
(1.460245 -0.00043773115 0)
(1.4609295 -0.00040869296 0)
(1.4615685 -0.00038158974 0)
(1.4621651 -0.00035629167 0)
(1.4627222 -0.00033267765 0)
(1.4632422 -0.00031063482 0)
(1.4637278 -0.00029005786 0)
(1.4641812 -0.00027084884 0)
(1.4646045 -0.00025291636 0)
(1.4649998 -0.00023617528 0)
(1.465369 -0.00022054615 0)
(1.4657137 -0.00020595454 0)
(1.4660355 -0.00019233099 0)
(1.4663361 -0.0001796103 0)
(1.4666168 -0.00016773152 0)
(1.466879 -0.00015663783 0)
(1.4671237 -0.00014627598 0)
(1.4673523 -0.00013659682 0)
(1.4675658 -0.00012755392 0)
(1.4677651 -0.00011910425 0)
(1.4679511 -0.00011120703 0)
(1.4681249 -0.00010382413 0)
(1.468287 -9.6918941e-05 0)
(1.4684384 -9.0458079e-05 0)
(1.4685796 -8.4408447e-05 0)
(1.4687113 -7.8742118e-05 0)
(1.4688341 -7.3428917e-05 0)
(1.4689486 -6.8447179e-05 0)
(1.4690553 -6.3767808e-05 0)
(1.4691546 -5.9376799e-05 0)
(1.469247 -5.5241882e-05 0)
(1.4693328 -5.1361181e-05 0)
(1.4694127 -4.7691496e-05 0)
(1.4694865 -4.4254423e-05 0)
(1.4695553 -4.0980577e-05 0)
(1.4696183 -3.7938209e-05 0)
(1.4696773 -3.4999465e-05 0)
(1.4697305 -3.2324664e-05 0)
(1.4697812 -2.966132e-05 0)
(1.4698253 -2.7351256e-05 0)
(1.4698691 -2.4891957e-05 0)
(1.4699044 -2.2975645e-05 0)
(1.4699432 -2.062791e-05 0)
(1.4699691 -1.9185059e-05 0)
(1.4700059 -1.6833469e-05 0)
(1.4700205 -1.6003864e-05 0)
(1.4700602 -1.3523248e-05 0)
(1.0007347 -0.011814721 0)
(1.0178472 -0.030860926 0)
(1.0462163 -0.041434441 0)
(1.0799018 -0.04519357 0)
(1.1132664 -0.045502351 0)
(1.143782 -0.044080308 0)
(1.1708941 -0.041439982 0)
(1.1945687 -0.037973678 0)
(1.2148582 -0.034195729 0)
(1.2319652 -0.030536886 0)
(1.2462683 -0.027222044 0)
(1.2582339 -0.02431392 0)
(1.2683135 -0.021797888 0)
(1.2768875 -0.01963366 0)
(1.2842554 -0.017773827 0)
(1.2906479 -0.016169652 0)
(1.296243 -0.01477559 0)
(1.3011791 -0.013552298 0)
(1.3055645 -0.012467863 0)
(1.3094838 -0.011497465 0)
(1.3130042 -0.010622161 0)
(1.3161792 -0.0098275123 0)
(1.3190526 -0.0091024104 0)
(1.3216607 -0.0084381765 0)
(1.3240343 -0.0078279041 0)
(1.3261995 -0.0072659751 0)
(1.3281786 -0.0067477094 0)
(1.3299913 -0.0062691171 0)
(1.3316544 -0.0058267273 0)
(1.3331829 -0.0054174725 0)
(1.3345896 -0.0050386109 0)
(1.3358862 -0.0046876721 0)
(1.3370827 -0.004362418 0)
(1.3381882 -0.0040608135 0)
(1.3392108 -0.0037810039 0)
(1.3401576 -0.0035212952 0)
(1.3410349 -0.0032801389 0)
(1.3418486 -0.0030561176 0)
(1.3426038 -0.0028479333 0)
(1.3433051 -0.0026543958 0)
(1.3439569 -0.0024744133 0)
(1.3445629 -0.0023069829 0)
(1.3451267 -0.0021511827 0)
(1.3456513 -0.0020061642 0)
(1.3461398 -0.0018711464 0)
(1.3465947 -0.0017454089 0)
(1.3470185 -0.0016282874 0)
(1.3474135 -0.0015191687 0)
(1.3477816 -0.0014174863 0)
(1.3481249 -0.0013227166 0)
(1.3484449 -0.0012343754 0)
(1.3487435 -0.0011520143 0)
(1.349022 -0.001075218 0)
(1.3492818 -0.0010036012 0)
(1.3495242 -0.00093680648 0)
(1.3497505 -0.00087450198 0)
(1.3499617 -0.00081637943 0)
(1.3501588 -0.00076215267 0)
(1.3503427 -0.00071155588 0)
(1.3505145 -0.00066434235 0)
(1.3506748 -0.00062028282 0)
(1.3508246 -0.00057916407 0)
(1.3509643 -0.00054078763 0)
(1.3510949 -0.00050496824 0)
(1.3512168 -0.00047153305 0)
(1.3513306 -0.00044032041 0)
(1.3514369 -0.00041117951 0)
(1.3515361 -0.00038396968 0)
(1.3516288 -0.00035855999 0)
(1.3517153 -0.00033482846 0)
(1.3517962 -0.00031266151 0)
(1.3518716 -0.00029195257 0)
(1.3519421 -0.0002726022 0)
(1.3520079 -0.00025451559 0)
(1.3520693 -0.00023760464 0)
(1.3521266 -0.00022178455 0)
(1.3521801 -0.00020697824 0)
(1.35223 -0.00019311052 0)
(1.3522765 -0.0001801167 0)
(1.3523198 -0.00016792964 0)
(1.3523602 -0.00015649812 0)
(1.3523978 -0.00014575806 0)
(1.3524327 -0.00013567363 0)
(1.3524652 -0.00012617578 0)
(1.3524953 -0.00011725237 0)
(1.3525233 -0.00010881644 0)
(1.352549 -0.00010090082 0)
(1.352573 -9.3373156e-05 0)
(1.3525948 -8.6354349e-05 0)
(1.3526153 -7.960471e-05 0)
(1.3526335 -7.3419136e-05 0)
(1.352651 -6.7320879e-05 0)
(1.3526658 -6.1956022e-05 0)
(1.352681 -5.6356399e-05 0)
(1.3526925 -5.1874547e-05 0)
(1.352706 -4.6574996e-05 0)
(1.3527141 -4.3169035e-05 0)
(1.3527268 -3.7909959e-05 0)
(1.3527312 -3.5943708e-05 0)
(1.3527446 -3.0399228e-05 0)
(1.0014244 -0.026824854 0)
(1.0291272 -0.062791352 0)
(1.0654292 -0.077736552 0)
(1.098962 -0.0805972 0)
(1.1253149 -0.078285171 0)
(1.145053 -0.0731539 0)
(1.1594858 -0.066111278 0)
(1.1694287 -0.058162063 0)
(1.1755354 -0.050296753 0)
(1.1785738 -0.043150707 0)
(1.1793571 -0.036972824 0)
(1.1785949 -0.031771632 0)
(1.1768304 -0.02745184 0)
(1.1744518 -0.023886769 0)
(1.1717287 -0.020947621 0)
(1.1688444 -0.018515781 0)
(1.1659195 -0.016488086 0)
(1.1630317 -0.014779503 0)
(1.1602295 -0.013322984 0)
(1.1575415 -0.012067131 0)
(1.1549828 -0.010972999 0)
(1.1525601 -0.01001106 0)
(1.1502747 -0.0091587462 0)
(1.1481246 -0.0083986045 0)
(1.1461059 -0.0077169516 0)
(1.1442134 -0.0071028896 0)
(1.1424414 -0.0065475931 0)
(1.1407838 -0.0060437959 0)
(1.1392344 -0.0055854256 0)
(1.1377869 -0.0051673431 0)
(1.1364353 -0.0047851548 0)
(1.1351738 -0.004435074 0)
(1.1339968 -0.0041138151 0)
(1.1328987 -0.0038185123 0)
(1.1318746 -0.0035466536 0)
(1.1309195 -0.0032960286 0)
(1.1300289 -0.0030646848 0)
(1.1291985 -0.0028508916 0)
(1.1284242 -0.00265311 0)
(1.1277022 -0.0024699666 0)
(1.1270291 -0.0023002322 0)
(1.1264014 -0.002142803 0)
(1.1258161 -0.0019966845 0)
(1.1252702 -0.0018609783 0)
(1.1247612 -0.0017348706 0)
(1.1242865 -0.0016176219 0)
(1.1238437 -0.0015085597 0)
(1.1234308 -0.00140707 0)
(1.1230455 -0.0013125921 0)
(1.1226861 -0.0012246125 0)
(1.1223509 -0.0011426601 0)
(1.1220381 -0.0010663021 0)
(1.1217462 -0.00099513946 0)
(1.1214739 -0.0009288044 0)
(1.1212198 -0.00086695701 0)
(1.1209827 -0.0008092829 0)
(1.1207614 -0.00075549135 0)
(1.1205549 -0.0007053134 0)
(1.1203621 -0.00065850018 0)
(1.1201822 -0.00061482144 0)
(1.1200142 -0.00057406359 0)
(1.1198574 -0.0005360284 0)
(1.1197111 -0.00050053119 0)
(1.1195745 -0.00046739958 0)
(1.1194469 -0.00043647262 0)
(1.1193279 -0.00040759981 0)
(1.1192167 -0.00038064098 0)
(1.1191129 -0.00035546572 0)
(1.119016 -0.00033195292 0)
(1.1189256 -0.00030999019 0)
(1.1188411 -0.0002894726 0)
(1.1187622 -0.00027030183 0)
(1.1186886 -0.00025238519 0)
(1.1186199 -0.00023563439 0)
(1.1185557 -0.0002199665 0)
(1.1184958 -0.00020530229 0)
(1.1184399 -0.00019156935 0)
(1.1183878 -0.00017869863 0)
(1.1183391 -0.00016662988 0)
(1.1182937 -0.00015530317 0)
(1.1182514 -0.00014467007 0)
(1.118212 -0.00013467461 0)
(1.1181752 -0.00012527992 0)
(1.118141 -0.00011642752 0)
(1.1181092 -0.00010809777 0)
(1.1180797 -0.0001002227 0)
(1.1180521 -9.2815199e-05 0)
(1.1180267 -8.5782394e-05 0)
(1.118003 -7.9196938e-05 0)
(1.1179813 -7.2901175e-05 0)
(1.117961 -6.7078754e-05 0)
(1.1179426 -6.1422174e-05 0)
(1.1179253 -5.6339124e-05 0)
(1.1179098 -5.1204176e-05 0)
(1.1178952 -4.6900155e-05 0)
(1.1178821 -4.2137201e-05 0)
(1.1178705 -3.8787878e-05 0)
(1.1178586 -3.4183532e-05 0)
(1.1178511 -3.219108e-05 0)
(1.1178378 -2.7468683e-05 0)
(1.0016583 -0.05381943 0)
(1.0359761 -0.10128444 0)
(1.0597199 -0.11073663 0)
(1.0628947 -0.10592202 0)
(1.0515569 -0.096228729 0)
(1.0340529 -0.083934061 0)
(1.0142795 -0.070327062 0)
(0.99360703 -0.056981333 0)
(0.97292577 -0.045107478 0)
(0.9531074 -0.035236749 0)
(0.93479538 -0.02740165 0)
(0.91829012 -0.021387228 0)
(0.90362379 -0.0168845 0)
(0.89068067 -0.01356971 0)
(0.87928174 -0.01114775 0)
(0.86923242 -0.0093736599 0)
(0.86034423 -0.0080569285 0)
(0.85244667 -0.0070571269 0)
(0.84539241 -0.006275237 0)
(0.83905793 -0.0056438268 0)
(0.83334126 -0.0051180893 0)
(0.82815884 -0.0046686712 0)
(0.82344212 -0.0042764172 0)
(0.81913467 -0.0039287396 0)
(0.81518962 -0.003617205 0)
(0.81156765 -0.003335972 0)
(0.80823544 -0.0030808051 0)
(0.8051644 -0.0028484689 0)
(0.80232979 -0.002636368 0)
(0.79970999 -0.0024423363 0)
(0.79728597 -0.0022645162 0)
(0.79504087 -0.0021012877 0)
(0.79295963 -0.0019512242 0)
(0.79102881 -0.0018130634 0)
(0.78923628 -0.0016856852 0)
(0.7875711 -0.0015680948 0)
(0.78602338 -0.0014594078 0)
(0.78458412 -0.0013588368 0)
(0.78324511 -0.0012656798 0)
(0.78199889 -0.0011793095 0)
(0.78083861 -0.0010991639 0)
(0.77975799 -0.0010247378 0)
(0.77875129 -0.00095557613 0)
(0.77781319 -0.00089126716 0)
(0.77693882 -0.00083143775 0)
(0.77612369 -0.00077574882 0)
(0.77536363 -0.00072389159 0)
(0.77465481 -0.00067558433 0)
(0.77399368 -0.00063056951 0)
(0.77337694 -0.00058861103 0)
(0.77280154 -0.00054949199 0)
(0.77226465 -0.00051301246 0)
(0.77176365 -0.00047898765 0)
(0.77129608 -0.00044724651 0)
(0.77085969 -0.00041763045 0)
(0.77045236 -0.00038999265 0)
(0.77007213 -0.00036419723 0)
(0.76971718 -0.0003401186 0)
(0.76938581 -0.00031764082 0)
(0.76907644 -0.00029665654 0)
(0.7687876 -0.00027706609 0)
(0.76851792 -0.00025877644 0)
(0.7682661 -0.00024170023 0)
(0.76803097 -0.00022575544 0)
(0.7678114 -0.00021086483 0)
(0.76760636 -0.00019695634 0)
(0.76741489 -0.00018396305 0)
(0.76723609 -0.00017182321 0)
(0.76706912 -0.00016048016 0)
(0.76691321 -0.00014988135 0)
(0.76676763 -0.00013997764 0)
(0.76663169 -0.0001307222 0)
(0.76650477 -0.00012206992 0)
(0.76638627 -0.00011397721 0)
(0.76627564 -0.0001064026 0)
(0.76617239 -9.9306963e-05 0)
(0.76607604 -9.265538e-05 0)
(0.76598617 -8.6415385e-05 0)
(0.76590236 -8.0559871e-05 0)
(0.76582425 -7.5061534e-05 0)
(0.76575149 -6.9898317e-05 0)
(0.76568375 -6.504333e-05 0)
(0.76562072 -6.0477613e-05 0)
(0.76556214 -5.6171938e-05 0)
(0.76550773 -5.2114802e-05 0)
(0.76545728 -4.827482e-05 0)
(0.76541051 -4.4656914e-05 0)
(0.76536731 -4.1223221e-05 0)
(0.76532737 -3.8003543e-05 0)
(0.76529065 -3.4937073e-05 0)
(0.76525679 -3.2090279e-05 0)
(0.76522583 -2.9351533e-05 0)
(0.76519736 -2.6854779e-05 0)
(0.76517146 -2.4399407e-05 0)
(0.76514785 -2.2251367e-05 0)
(0.76512619 -2.0049149e-05 0)
(0.76510733 -1.8303783e-05 0)
(0.76508837 -1.6340451e-05 0)
(0.76507565 -1.5183811e-05 0)
(0.76505495 -1.3559484e-05 0)
(0.91890839 -0.035821913 0)
(0.86271384 -0.062195638 0)
(0.7870597 -0.06251009 0)
(0.69536033 -0.054550396 0)
(0.61089744 -0.044531652 0)
(0.54411592 -0.034015972 0)
(0.49343012 -0.024187539 0)
(0.45479413 -0.016144229 0)
(0.42544582 -0.010265785 0)
(0.40347314 -0.0063041446 0)
(0.38715767 -0.0037976293 0)
(0.3749622 -0.0023103385 0)
(0.36566192 -0.0014930156 0)
(0.35836272 -0.0010851191 0)
(0.35244267 -0.0009060731 0)
(0.347482 -0.00084105216 0)
(0.34320348 -0.00082372404 0)
(0.33942726 -0.00081930978 0)
(0.33603793 -0.00081185103 0)
(0.33296114 -0.00079580025 0)
(0.33014779 -0.00077081082 0)
(0.32756385 -0.00073870941 0)
(0.3251842 -0.00070188985 0)
(0.32298902 -0.00066256667 0)
(0.32096172 -0.00062250072 0)
(0.31908784 -0.00058295837 0)
(0.31735449 -0.00054477196 0)
(0.31574995 -0.00050843383 0)
(0.3142636 -0.00047419066 0)
(0.31288575 -0.00044212333 0)
(0.31160756 -0.00041220826 0)
(0.31042102 -0.00038436088 0)
(0.30931883 -0.00035846491 0)
(0.30829438 -0.00033439096 0)
(0.30734165 -0.00031200779 0)
(0.30645515 -0.00029118879 0)
(0.30562991 -0.00027181508 0)
(0.30486136 -0.00025377691 0)
(0.30414535 -0.00023697372 0)
(0.30347807 -0.00022131363 0)
(0.30285601 -0.00020671277 0)
(0.30227597 -0.00019309438 0)
(0.30173497 -0.00018038804 0)
(0.3012303 -0.00016852911 0)
(0.30075942 -0.00015745806 0)
(0.30032002 -0.00014712018 0)
(0.29990993 -0.0001374651 0)
(0.29952715 -0.00012844649 0)
(0.29916983 -0.00012002164 0)
(0.29883624 -0.00011215103 0)
(0.29852479 -0.000104798 0)
(0.29823398 -9.7928259e-05 0)
(0.29796242 -9.1509662e-05 0)
(0.29770883 -8.5512058e-05 0)
(0.29747201 -7.9907179e-05 0)
(0.29725084 -7.4668747e-05 0)
(0.29704429 -6.9772454e-05 0)
(0.29685137 -6.5195955e-05 0)
(0.29667119 -6.0918765e-05 0)
(0.29650291 -5.6921894e-05 0)
(0.29634572 -5.3187618e-05 0)
(0.2961989 -4.9699041e-05 0)
(0.29606175 -4.643993e-05 0)
(0.29593364 -4.3394688e-05 0)
(0.29581398 -4.0548442e-05 0)
(0.2957022 -3.788739e-05 0)
(0.29559778 -3.5399013e-05 0)
(0.29550026 -3.3072124e-05 0)
(0.29540916 -3.0896874e-05 0)
(0.29532408 -2.8864107e-05 0)
(0.2952446 -2.6965192e-05 0)
(0.29517037 -2.5191252e-05 0)
(0.29510103 -2.3533315e-05 0)
(0.29503628 -2.1982196e-05 0)
(0.29497581 -2.0529223e-05 0)
(0.29491936 -1.9166375e-05 0)
(0.29486667 -1.7887262e-05 0)
(0.29481751 -1.6686272e-05 0)
(0.29477166 -1.5559485e-05 0)
(0.29472892 -1.4502329e-05 0)
(0.29468908 -1.3511222e-05 0)
(0.29465197 -1.2580297e-05 0)
(0.29461742 -1.1705324e-05 0)
(0.2945853 -1.0879083e-05 0)
(0.29455545 -1.0099141e-05 0)
(0.29452777 -9.3586602e-06 0)
(0.29450213 -8.6602416e-06 0)
(0.29447841 -7.9965438e-06 0)
(0.2944565 -7.375915e-06 0)
(0.29443632 -6.7853022e-06 0)
(0.29441773 -6.2392659e-06 0)
(0.29440069 -5.7133989e-06 0)
(0.29438504 -5.2338362e-06 0)
(0.29437078 -4.763054e-06 0)
(0.29435777 -4.3464043e-06 0)
(0.29434592 -3.9379499e-06 0)
(0.29433529 -3.5927655e-06 0)
(0.29432528 -3.2928873e-06 0)
(0.29431715 -3.0529197e-06 0)
(0.29430657 -3.1168251e-06 0)
)
;

boundaryField
{
    top
    {
        type            fixedValue;
        value           uniform (0 0 0);
    }
    inlet
    {
        type            fixedValue;
        value           uniform (1 0 0);
    }
    outlet
    {
        type            zeroGradient;
    }
    bottom
    {
        type            fixedValue;
        value           uniform (0 0 0);
    }
    back
    {
        type            empty;
    }
    front
    {
        type            empty;
    }
}


// ************************************************************************* //
