/*--------------------------------*- C++ -*----------------------------------*\
| =========                 |                                                 |
| \\      /  F ield         | OpenFOAM: The Open Source CFD Toolbox           |
|  \\    /   O peration     | Version:  v1812                                 |
|   \\  /    A nd           | Web:      www.OpenFOAM.com                      |
|    \\/     M anipulation  |                                                 |
\*---------------------------------------------------------------------------*/
FoamFile
{
    version     2.0;
    format      ascii;
    class       surfaceScalarField;
    location    "15";
    object      phi;
}
// * * * * * * * * * * * * * * * * * * * * * * * * * * * * * * * * * * * * * //

dimensions      [0 3 -1 0 0 0 0];
oriented        oriented;


internalField   nonuniform List<scalar> 
1890
(
0.0031426004
2.0150589e-06
0.003135767
6.8344078e-06
0.0031272776
8.4895894e-06
0.0031195439
7.7333862e-06
0.0031133574
6.1860051e-06
0.0031084929
4.8640175e-06
0.0031045077
3.9847585e-06
0.0031010992
3.4080269e-06
0.0030981255
2.9733879e-06
0.0030955217
2.603498e-06
0.0030932378
2.2836109e-06
0.0030912207
2.0167701e-06
0.0030894202
1.8002841e-06
0.003087796
1.624007e-06
0.0030863195
1.4763962e-06
0.0030849705
1.3488914e-06
0.0030837338
1.2365382e-06
0.0030825971
1.1366293e-06
0.0030815496
1.0473472e-06
0.0030805824
9.6713521e-07
0.0030796877
8.9461772e-07
0.003078859
8.2866342e-07
0.0030780906
7.6839977e-07
0.0030773774
7.1315119e-07
0.0030767149
6.6237323e-07
0.0030760993
6.1560116e-07
0.0030755268
5.7243369e-07
0.0030749943
5.3251923e-07
0.0030744987
4.9555513e-07
0.0030740374
4.6127529e-07
0.003073608
4.2944891e-07
0.0030732081
3.9986899e-07
0.0030728357
3.7235397e-07
0.003072489
3.4673865e-07
0.0030721661
3.2287763e-07
0.0030718654
3.0063696e-07
0.0030715855
2.7989848e-07
0.003071325
2.6055198e-07
0.0030710825
2.4250001e-07
0.0030708568
2.2565054e-07
0.0030706469
2.0992218e-07
0.0030704517
1.9523724e-07
0.0030702702
1.8152704e-07
0.0030701014
1.6872525e-07
0.0030699447
1.567734e-07
0.0030697991
1.4561439e-07
0.0030696639
1.3519809e-07
0.0030695384
1.2547496e-07
0.003069422
1.1640173e-07
0.0030693141
1.0793522e-07
0.0030692141
1.000379e-07
0.0030691214
9.2671937e-08
0.0030690356
8.5804664e-08
0.0030689562
7.9402822e-08
0.0030688828
7.3437958e-08
0.0030688149
6.7880728e-08
0.0030687522
6.2706284e-08
0.0030686943
5.7888735e-08
0.0030686409
5.34064e-08
0.0030685917
4.9236362e-08
0.0030685464
4.5359678e-08
0.0030685046
4.1756089e-08
0.0030684662
3.8409074e-08
0.0030684309
3.5300663e-08
0.0030683985
3.2416434e-08
0.0030683688
2.9740467e-08
0.0030683415
2.7260208e-08
0.0030683166
2.4961503e-08
0.0030682937
2.2833412e-08
0.0030682729
2.0863373e-08
0.0030682538
1.9041898e-08
0.0030682365
1.7357793e-08
0.0030682207
1.5802825e-08
0.0030682063
1.4367056e-08
0.0030681933
1.3043401e-08
0.0030681815
1.1823005e-08
0.0030681708
1.0699784e-08
0.0030681611
9.665893e-09
0.0030681524
8.7161766e-09
0.0030681446
7.8436536e-09
0.0030681375
7.0439782e-09
0.0030681312
6.3109689e-09
0.0030681256
5.6410341e-09
0.0030681206
5.0286345e-09
0.0030681161
4.4708441e-09
0.0030681121
3.9626503e-09
0.0030681086
3.5018085e-09
0.0030681056
3.0835575e-09
0.0030681029
2.7064201e-09
0.0030681005
2.3655037e-09
0.0030680984
2.0605057e-09
0.0030680966
1.7855515e-09
0.0030680951
1.5424191e-09
0.0030680938
1.3225795e-09
0.0030680927
1.1315846e-09
0.0030680917
9.5554456e-10
0.0030680909
8.0718112e-10
0.0030680902
6.6326341e-10
0.0030680897
5.4432533e-10
4.3465464e-10
0.0078526757
2.1632284e-06
0.0078500837
9.4276429e-06
0.0078452452
1.3328491e-05
0.0078395034
1.3474937e-05
0.0078338442
1.1844703e-05
0.0078285569
1.0150894e-05
0.0078236178
8.9234906e-06
0.0078189818
8.0437827e-06
0.0078146532
7.3017123e-06
0.007810655
6.6013928e-06
0.0078069918
5.9465144e-06
0.007803644
5.364406e-06
0.0078005799
4.8641627e-06
0.0077977682
4.4355588e-06
0.0077951822
4.0622432e-06
0.0077927998
3.7311438e-06
0.0077906019
3.4343778e-06
0.0077885712
3.1672665e-06
0.0077866922
2.9262349e-06
0.0077849513
2.7079641e-06
0.0077833365
2.5094026e-06
0.0077818371
2.3279669e-06
0.0077804439
2.1615779e-06
0.0077791484
2.0085671e-06
0.0077779432
1.8675443e-06
0.0077768215
1.7373177e-06
0.007775777
1.6168454e-06
0.0077748043
1.5052215e-06
0.0077738982
1.401652e-06
0.007773054
1.3054445e-06
0.0077722674
1.2159849e-06
0.0077715346
1.1327299e-06
0.0077708517
1.0551903e-06
0.0077702155
9.8292999e-07
0.0077696228
9.1555218e-07
0.0077690708
8.5270083e-07
0.0077685566
7.9404926e-07
0.0077680779
7.3930274e-07
0.0077676322
6.8818851e-07
0.0077672174
6.4045931e-07
0.0077668314
5.9588465e-07
0.0077664724
5.5425508e-07
0.0077661385
5.1537401e-07
0.0077658282
4.7906233e-07
0.0077655398
4.4515095e-07
0.007765272
4.1348572e-07
0.0077650232
3.8392029e-07
0.0077647924
3.5632112e-07
0.0077645782
3.3056079e-07
0.0077643797
3.0652319e-07
0.0077641956
2.84097e-07
0.0077640251
2.6318079e-07
0.0077638672
2.436769e-07
0.0077637212
2.2549663e-07
0.007763586
2.0855418e-07
0.0077634612
1.9277172e-07
0.0077633458
1.7807369e-07
0.0077632393
1.6439183e-07
0.0077631411
1.5165958e-07
0.0077630505
1.3981696e-07
0.007762967
1.2880525e-07
0.0077628902
1.185718e-07
0.0077628196
1.0906484e-07
0.0077627546
1.0023812e-07
0.007762695
9.2045888e-08
0.0077626403
8.4447592e-08
0.0077625902
7.7402882e-08
0.0077625443
7.0876134e-08
0.0077625023
6.483169e-08
0.0077624639
5.9238371e-08
0.0077624289
5.4064729e-08
0.007762397
4.928342e-08
0.0077623679
4.4866665e-08
0.0077623415
4.0790622e-08
0.0077623175
3.7030844e-08
0.0077622958
3.3566518e-08
0.0077622761
3.0376114e-08
0.0077622583
2.744162e-08
0.0077622423
2.4744181e-08
0.0077622279
2.2268192e-08
0.0077622149
1.9997139e-08
0.0077622033
1.7917616e-08
0.007762193
1.6015276e-08
0.0077621837
1.4278485e-08
0.0077621755
1.2694831e-08
0.0077621682
1.1254096e-08
0.0077621618
9.9458707e-09
0.0077621561
8.7605355e-09
0.0077621511
7.6900722e-09
0.0077621468
6.7241418e-09
0.007762143
5.8587e-09
0.0077621397
5.0795453e-09
0.0077621368
4.3906089e-09
0.0077621344
3.7665612e-09
0.0077621323
3.230096e-09
0.0077621305
2.7276962e-09
0.007762129
2.3286567e-09
0.0077621277
1.9076245e-09
0.0077621266
1.6569178e-09
1.2553631e-09
0.011168708
1.5589613e-06
0.011170325
7.8119591e-06
0.011171742
1.1910803e-05
0.011172435
1.2781432e-05
0.011172564
1.1715937e-05
0.011172326
1.0387745e-05
0.01117181
9.4391367e-06
0.011171066
8.7875806e-06
0.011170153
8.2153573e-06
0.011169132
7.6211898e-06
0.011168058
7.0211799e-06
0.011166962
6.4596102e-06
0.011165868
5.9584105e-06
0.011164789
5.5143882e-06
0.011163736
5.1148931e-06
0.011162717
4.7496695e-06
0.011161738
4.4134737e-06
0.011160802
4.1038497e-06
0.011159909
3.8188316e-06
0.011159061
3.5561547e-06
0.011158257
3.3134621e-06
0.011157496
3.0886516e-06
0.011156777
2.8799996e-06
0.0111561
2.6860887e-06
0.011155462
2.5057012e-06
0.011154861
2.3377457e-06
0.011154297
2.1812369e-06
0.011153767
2.0352848e-06
0.011153269
1.899092e-06
0.011152803
1.7719392e-06
0.011152366
1.6531772e-06
0.011151956
1.5422124e-06
0.011151573
1.4385041e-06
0.011151214
1.3415542e-06
0.011150879
1.2509072e-06
0.011150565
1.1661411e-06
0.011150272
1.0868689e-06
0.011149999
1.0127301e-06
0.011149744
9.4339277e-07
0.011149506
8.7854655e-07
0.011149284
8.1790511e-07
0.011149077
7.6119957e-07
0.011148884
7.0818152e-07
0.011148704
6.5861687e-07
0.011148537
6.1228922e-07
0.011148382
5.6899399e-07
0.011148237
5.2854193e-07
0.011148103
4.9075365e-07
0.011147978
4.5546325e-07
0.011147862
4.2251309e-07
0.011147754
3.9175737e-07
0.011147654
3.6305726e-07
0.011147562
3.3628451e-07
0.011147476
3.1131672e-07
0.011147396
2.8804093e-07
0.011147323
2.663491e-07
0.011147255
2.4614175e-07
0.011147192
2.2732349e-07
0.011147134
2.0980664e-07
0.01114708
1.9350696e-07
0.01114703
1.7834723e-07
0.011146985
1.6425307e-07
0.011146943
1.5115645e-07
0.011146904
1.3899168e-07
0.011146868
1.276989e-07
0.011146836
1.1722014e-07
0.011146805
1.075027e-07
0.011146778
9.8495404e-08
0.011146752
9.0151945e-08
0.011146729
8.2427205e-08
0.011146708
7.5280478e-08
0.011146689
6.8671977e-08
0.011146671
6.2566023e-08
0.011146655
5.6927598e-08
0.01114664
5.1725451e-08
0.011146627
4.6928789e-08
0.011146615
4.2510362e-08
0.011146604
3.8443181e-08
0.011146594
3.4703536e-08
0.011146585
3.1267797e-08
0.011146577
2.811548e-08
0.011146569
2.5225923e-08
0.011146563
2.2581537e-08
0.011146557
2.0164104e-08
0.011146552
1.7958826e-08
0.011146547
1.5949247e-08
0.011146543
1.4123536e-08
0.011146539
1.2465663e-08
0.011146536
1.0967981e-08
0.011146533
9.6120991e-09
0.01114653
8.3981111e-09
0.011146528
7.2985867e-09
0.011146526
6.330797e-09
0.011146525
5.4423668e-09
0.011146523
4.6924669e-09
0.011146522
3.9660344e-09
0.011146521
3.4222934e-09
0.01114652
2.7969318e-09
0.011146519
2.4830849e-09
1.895953e-09
0.013268676
7.9021151e-07
0.013272233
4.2557982e-06
0.013277392
6.7519146e-06
0.013282692
7.4799664e-06
0.013287413
6.9952674e-06
0.013291521
6.2790457e-06
0.013295177
5.7823323e-06
0.013298498
5.4670752e-06
0.01330152
5.1927527e-06
0.013304254
4.8873842e-06
0.013306714
4.5610668e-06
0.013308927
4.2457787e-06
0.013310926
3.9590798e-06
0.01331274
3.7010691e-06
0.01331439
3.4647882e-06
0.013315895
3.2445768e-06
0.01331727
3.0380569e-06
0.013318529
2.8446169e-06
0.013319684
2.6638067e-06
0.013320745
2.4948148e-06
0.013321722
2.3366338e-06
0.013322622
2.1883373e-06
0.013323453
2.0491726e-06
0.013324221
1.9185353e-06
0.01332493
1.7958912e-06
0.013325587
1.68075e-06
0.013326196
1.5726447e-06
0.01332676
1.4711453e-06
0.013327283
1.3758476e-06
0.013327769
1.2863836e-06
0.01332822
1.2024037e-06
0.013328638
1.1235872e-06
0.013329027
1.0496255e-06
0.013329388
9.8023541e-07
0.013329724
9.1514337e-07
0.013330036
8.5409934e-07
0.013330326
7.9686029e-07
0.013330596
7.4320479e-07
0.013330846
6.929166e-07
0.013331079
6.4579949e-07
0.013331295
6.0166092e-07
0.013331496
5.6032689e-07
0.013331683
5.2162586e-07
0.013331856
4.8540367e-07
0.013332017
4.5150753e-07
0.013332166
4.1980077e-07
0.013332304
3.9014726e-07
0.013332432
3.6242602e-07
0.013332551
3.365158e-07
0.013332662
3.1230947e-07
0.013332764
2.8969902e-07
0.013332858
2.6858976e-07
0.013332946
2.4888555e-07
0.013333026
2.3050268e-07
0.013333101
2.1335556e-07
0.01333317
1.9737035e-07
0.013333234
1.8247092e-07
0.013333292
1.6859216e-07
0.013333347
1.5566632e-07
0.013333397
1.4363614e-07
0.013333442
1.3244142e-07
0.013333485
1.2203177e-07
0.013333523
1.1235365e-07
0.013333559
1.0336294e-07
0.013333592
9.5012034e-08
0.013333622
8.7262196e-08
0.013333649
8.0071143e-08
0.013333674
7.3405019e-08
0.013333697
6.7226295e-08
0.013333718
6.1505357e-08
0.013333737
5.6208845e-08
0.013333755
5.1311004e-08
0.01333377
4.6782222e-08
0.013333785
4.2600095e-08
0.013333798
3.8738318e-08
0.013333809
3.5177552e-08
0.01333382
3.1894488e-08
0.01333383
2.8872443e-08
0.013333838
2.6090763e-08
0.013333846
2.35352e-08
0.013333853
2.1187536e-08
0.013333859
1.903556e-08
0.013333865
1.7063267e-08
0.01333387
1.5260177e-08
0.013333874
1.3612494e-08
0.013333878
1.2110768e-08
0.013333881
1.0743721e-08
0.013333884
9.5017883e-09
0.013333887
8.3775486e-09
0.013333889
7.3584936e-09
0.013333891
6.4447534e-09
0.013333893
5.61431e-09
0.013333894
4.8843441e-09
0.013333895
4.2083486e-09
0.013333896
3.6434679e-09
0.013333897
3.0845025e-09
0.013333898
2.6793041e-09
0.013333899
2.1897313e-09
0.013333899
1.9627457e-09
1.5091476e-09
0.014284073
3.2440353e-11
0.01428833
9.9853487e-11
0.014295082
4.4222424e-11
0.014302561
3.7450994e-12
0.014309555
2.8927848e-11
0.014315834
1.1299995e-10
0.014321616
1.9142281e-10
0.014327082
2.3206197e-10
0.014332275
2.4084133e-10
0.014337161
2.4198854e-10
0.014341722
2.4400419e-10
0.014345967
2.4467936e-10
0.014349926
2.3904192e-10
0.014353627
2.2675634e-10
0.014357091
2.0975585e-10
0.014360336
1.8978949e-10
0.014363373
1.6863086e-10
0.014366218
1.4591892e-10
0.014368881
1.2325112e-10
0.014371376
9.9865071e-11
0.014373712
7.7759434e-11
0.014375901
5.5727403e-11
0.01437795
3.5804593e-11
0.014379868
1.6629436e-11
0.014381664
5.8565935e-13
0.014383345
-1.6849542e-11
0.014384917
-3.0281019e-11
0.014386389
-4.3212299e-11
0.014387765
-5.3348282e-11
0.014389051
-6.3190311e-11
0.014390253
-7.0335289e-11
0.014391377
-7.7392022e-11
0.014392427
-8.1919408e-11
0.014393407
-8.6760544e-11
0.014394322
-8.9329226e-11
0.014395176
-9.2364325e-11
0.014395973
-9.3266563e-11
0.014396717
-9.4920536e-11
0.01439741
-9.4615714e-11
0.014398056
-9.5055781e-11
0.014398657
-9.3568074e-11
0.014399218
-9.2959332e-11
0.01439974
-9.0523183e-11
0.014400225
-8.8872634e-11
0.014400677
-8.5406825e-11
0.014401096
-8.2839045e-11
0.014401487
-7.8586043e-11
0.014401849
-7.5180097e-11
0.014402186
-7.0166782e-11
0.014402498
-6.6166822e-11
0.014402788
-6.0751947e-11
0.014403057
-5.6351476e-11
0.014403306
-5.0655119e-11
0.014403536
-4.6151264e-11
0.01440375
-4.0545794e-11
0.014403947
-3.6119331e-11
0.014404129
-3.0683897e-11
0.014404298
-2.6552113e-11
0.014404454
-2.1556768e-11
0.014404597
-1.7788552e-11
0.01440473
-1.3211685e-11
0.014404852
-9.9114183e-12
0.014404964
-5.9330044e-12
0.014405068
-3.0587231e-12
0.014405163
5.2836188e-13
0.01440525
2.9086517e-12
0.01440533
5.9877728e-12
0.014405403
7.9016993e-12
0.014405471
1.0602604e-11
0.014405532
1.2088877e-11
0.014405588
1.4341091e-11
0.01440564
1.5477172e-11
0.014405686
1.7415515e-11
0.014405729
1.8192752e-11
0.014405768
1.9737e-11
0.014405803
2.0212208e-11
0.014405835
2.1479932e-11
0.014405864
2.162602e-11
0.01440589
2.2524782e-11
0.014405913
2.238518e-11
0.014405934
2.3019174e-11
0.014405953
2.2557609e-11
0.01440597
2.2830403e-11
0.014405986
2.2084734e-11
0.014405999
2.2099189e-11
0.014406011
2.1031385e-11
0.014406022
2.0704085e-11
0.014406032
1.9349122e-11
0.01440604
1.8793348e-11
0.014406047
1.7108928e-11
0.014406054
1.6190544e-11
0.014406059
1.3986906e-11
0.014406064
1.2696555e-11
0.014406068
1.0087258e-11
0.014406072
8.821971e-12
0.014406075
6.7638494e-12
0.014406078
5.3398247e-12
0.01440608
3.637699e-12
0.014406082
1.8043077e-13
-3.4673955e-12
0.014284072
-7.9028407e-07
0.014288329
-4.2561844e-06
0.014295081
-6.7522708e-06
0.01430256
-7.4801035e-06
0.014309555
-6.995194e-06
0.014315833
-6.2788666e-06
0.014321615
-5.7820759e-06
0.014327082
-5.4667571e-06
0.014332274
-5.1923887e-06
0.014337161
-4.886986e-06
0.014341722
-4.5606491e-06
0.014345967
-4.2453547e-06
0.014349926
-3.9586632e-06
0.014353627
-3.7006703e-06
0.014357091
-3.4644156e-06
0.014360336
-3.2442366e-06
0.014363373
-3.0377535e-06
0.014366218
-2.8443536e-06
0.014368881
-2.6635847e-06
0.014371376
-2.4946347e-06
0.014373713
-2.3364943e-06
0.014375901
-2.1882376e-06
0.01437795
-2.0491097e-06
0.014379868
-1.9185071e-06
0.014381664
-1.7958942e-06
0.014383345
-1.680783e-06
0.014384918
-1.572703e-06
0.014386389
-1.4712268e-06
0.014387765
-1.3759481e-06
0.014389051
-1.2865015e-06
0.014390254
-1.202535e-06
0.014391377
-1.1237306e-06
0.014392427
-1.0497776e-06
0.014393407
-9.803955e-07
0.014394322
-9.1530847e-07
0.014395177
-8.5426904e-07
0.014395974
-7.9703205e-07
0.014396717
-7.4337863e-07
0.01439741
-6.9309017e-07
0.014398056
-6.459729e-07
0.014398657
-6.0183202e-07
0.014399218
-5.6049596e-07
0.014399739
-5.2179078e-07
0.014400225
-4.8556468e-07
0.014400677
-4.5166263e-07
0.014401096
-4.1995035e-07
0.014401487
-3.902894e-07
0.014401849
-3.6256113e-07
0.014402186
-3.366422e-07
0.014402498
-3.1242784e-07
0.014402788
-2.8980787e-07
0.014403056
-2.686899e-07
0.014403305
-2.4897579e-07
0.014403536
-2.305841e-07
0.014403749
-2.1342717e-07
0.014403947
-1.9743333e-07
0.014404129
-1.8252454e-07
0.014404298
-1.6863778e-07
0.014404454
-1.5570332e-07
0.014404597
-1.4366587e-07
0.01440473
-1.3246338e-07
0.014404852
-1.2204741e-07
0.014404964
-1.1236249e-07
0.014405067
-1.0336626e-07
0.014405162
-9.5009411e-08
0.01440525
-8.7254999e-08
0.01440533
-8.0058897e-08
0.014405403
-7.3388983e-08
0.01440547
-6.7205987e-08
0.014405532
-6.1482046e-08
0.014405588
-5.618199e-08
0.014405639
-5.1281758e-08
0.014405686
-4.6750066e-08
0.014405729
-4.2566204e-08
0.014405767
-3.8702132e-08
0.014405803
-3.5140154e-08
0.014405835
-3.1855355e-08
0.014405863
-2.8832701e-08
0.014405889
-2.6049863e-08
0.014405913
-2.349419e-08
0.014405934
-2.1145912e-08
0.014405953
-1.8994424e-08
0.01440597
-1.7022093e-08
0.014405985
-1.5219997e-08
0.014405999
-1.357282e-08
0.014406011
-1.2072689e-08
0.014406022
-1.0706704e-08
0.014406031
-9.4668738e-09
0.01440604
-8.3442025e-09
0.014406047
-7.3278619e-09
0.014406054
-6.4162977e-09
0.014406059
-5.589346e-09
0.014406064
-4.862293e-09
0.014406068
-4.1905346e-09
0.014406072
-3.6282488e-09
0.014406075
-3.0729351e-09
0.014406078
-2.6697635e-09
0.01440608
-2.1825559e-09
0.014406082
-1.9612646e-09
-1.5125832e-09
0.013268676
-1.5589429e-06
0.013272232
-7.8118539e-06
0.013277391
-1.1910746e-05
0.013282692
-1.2781461e-05
0.013287412
-1.1715963e-05
0.013291521
-1.0387723e-05
0.013295177
-9.4390403e-06
0.013298498
-8.7874229e-06
0.01330152
-8.2151474e-06
0.013304254
-7.6209434e-06
0.013306714
-7.0209049e-06
0.013308927
-6.4593193e-06
0.013310927
-5.9581134e-06
0.01331274
-5.514096e-06
0.01331439
-5.114615e-06
0.013315895
-4.7494121e-06
0.01331727
-4.4132432e-06
0.01331853
-4.1036479e-06
0.013319685
-3.8186622e-06
0.013320746
-3.5560162e-06
0.013321723
-3.3133567e-06
0.013322623
-3.0885755e-06
0.013323454
-2.879954e-06
0.013324221
-2.6860685e-06
0.013324931
-2.5057074e-06
0.013325588
-2.3377727e-06
0.013326196
-2.1812856e-06
0.013326761
-2.0353488e-06
0.013327284
-1.8991728e-06
0.013327769
-1.7720306e-06
0.01332822
-1.6532808e-06
0.013328639
-1.5423223e-06
0.013329027
-1.4386226e-06
0.013329389
-1.3416757e-06
0.013329724
-1.2510343e-06
0.013330036
-1.1662686e-06
0.013330326
-1.0869998e-06
0.013330596
-1.0128594e-06
0.013330846
-9.4352365e-07
0.013331079
-8.786742e-07
0.013331295
-8.1803294e-07
0.013331496
-7.6132282e-07
0.013331682
-7.0830349e-07
0.013331856
-6.5873297e-07
0.013332016
-6.1240287e-07
0.013332166
-5.6910067e-07
0.013332304
-5.2864496e-07
0.013332432
-4.9084874e-07
0.013332551
-4.5555389e-07
0.013332661
-4.2259515e-07
0.013332763
-3.9183432e-07
0.013332858
-3.6312528e-07
0.013332945
-3.3634728e-07
0.013333026
-3.1137062e-07
0.013333101
-2.8808962e-07
0.01333317
-2.6638925e-07
0.013333233
-2.4617715e-07
0.013333292
-2.2735095e-07
0.013333346
-2.0982987e-07
0.013333396
-1.9352296e-07
0.013333442
-1.7835974e-07
0.013333484
-1.6425916e-07
0.013333523
-1.5115969e-07
0.013333558
-1.3898925e-07
0.013333591
-1.2769436e-07
0.013333621
-1.1721066e-07
0.013333649
-1.0749166e-07
0.013333674
-9.8480053e-08
0.013333697
-9.0135639e-08
0.013333718
-8.2407176e-08
0.013333737
-7.5259885e-08
0.013333754
-6.8648129e-08
0.01333377
-6.2542077e-08
0.013333784
-5.6900856e-08
0.013333797
-5.1698913e-08
0.013333809
-4.6899845e-08
0.01333382
-4.248204e-08
0.013333829
-3.8412878e-08
0.013333838
-3.4674152e-08
0.013333845
-3.1236824e-08
0.013333852
-2.8085859e-08
0.013333859
-2.5195158e-08
0.013333864
-2.2552452e-08
0.013333869
-2.013429e-08
0.013333873
-1.7931153e-08
0.013333877
-1.59213e-08
0.013333881
-1.4098083e-08
0.013333884
-1.2440336e-08
0.013333886
-1.0945614e-08
0.013333889
-9.5903118e-09
0.01333389
-8.3796704e-09
0.013333892
-7.2810225e-09
0.013333894
-6.3170936e-09
0.013333895
-5.4298101e-09
0.013333896
-4.6837305e-09
0.013333897
-3.9584472e-09
0.013333898
-3.4163699e-09
0.013333898
-2.7913226e-09
0.013333899
-2.4770674e-09
-1.8924539e-09
0.011168707
-2.1631937e-06
0.011170324
-9.4274517e-06
0.011171742
-1.3328269e-05
0.011172435
-1.3474865e-05
0.011172563
-1.184482e-05
0.011172326
-1.0151103e-05
0.01117181
-8.9236779e-06
0.011171067
-8.0438921e-06
0.011170153
-7.3017376e-06
0.011169133
-6.6013531e-06
0.011168058
-5.946429e-06
0.011166963
-5.3642881e-06
0.011165868
-4.8640224e-06
0.011164789
-4.4354059e-06
0.011163737
-4.0620883e-06
0.011162718
-3.7309951e-06
0.011161739
-3.4342421e-06
0.011160802
-3.1671467e-06
0.01115991
-2.9261339e-06
0.011159061
-2.7078819e-06
0.011158257
-2.5093403e-06
0.011157497
-2.3279229e-06
0.011156778
-2.1615522e-06
0.011156101
-2.0085573e-06
0.011155462
-1.86755e-06
0.011154862
-1.737336e-06
0.011154297
-1.6168759e-06
0.011153767
-1.5052613e-06
0.01115327
-1.4017007e-06
0.011152803
-1.3054994e-06
0.011152366
-1.2160458e-06
0.011151956
-1.1327943e-06
0.011151573
-1.0552586e-06
0.011151214
-9.8299973e-07
0.011150879
-9.1562384e-07
0.011150565
-8.5277252e-07
0.011150273
-7.9412171e-07
0.011149999
-7.3937403e-07
0.011149744
-6.8825949e-07
0.011149506
-6.4052842e-07
0.011149284
-5.9595283e-07
0.011149077
-5.5432063e-07
0.011148884
-5.1543788e-07
0.011148704
-4.7912307e-07
0.011148537
-4.4520951e-07
0.011148381
-4.1354052e-07
0.011148237
-3.8397228e-07
0.011148102
-3.5636899e-07
0.011147977
-3.3060556e-07
0.011147861
-3.0656346e-07
0.011147754
-2.8413383e-07
0.011147654
-2.6321309e-07
0.011147561
-2.4370584e-07
0.011147475
-2.2552105e-07
0.011147396
-2.085753e-07
0.011147322
-1.9278868e-07
0.011147254
-1.7808776e-07
0.011147191
-1.6440206e-07
0.011147133
-1.5166726e-07
0.011147079
-1.3982136e-07
0.01114703
-1.2880763e-07
0.011146984
-1.1857131e-07
0.011146942
-1.090627e-07
0.011146903
-1.0023362e-07
0.011146868
-9.2040201e-08
0.011146835
-8.443986e-08
0.011146805
-7.7394224e-08
0.011146777
-7.0865826e-08
0.011146752
-6.4820804e-08
0.011146729
-5.9226024e-08
0.011146707
-5.4051934e-08
0.011146688
-4.9269438e-08
0.01114667
-4.4852488e-08
0.011146654
-4.0775378e-08
0.01114664
-3.7015493e-08
0.011146626
-3.3550347e-08
0.011146614
-3.0360084e-08
0.011146603
-2.7424905e-08
0.011146593
-2.4727726e-08
0.011146584
-2.2251332e-08
0.011146576
-1.9980826e-08
0.011146569
-1.7901076e-08
0.011146562
-1.5999446e-08
0.011146556
-1.4262742e-08
0.011146551
-1.2680113e-08
0.011146546
-1.1239661e-08
0.011146542
-9.9326422e-09
0.011146539
-8.7478961e-09
0.011146535
-7.6789541e-09
0.011146532
-6.7137773e-09
0.01114653
-5.8499693e-09
0.011146528
-5.0715995e-09
0.011146526
-4.3842811e-09
0.011146524
-3.7607856e-09
0.011146523
-3.2262551e-09
0.011146521
-2.7249679e-09
0.01114652
-2.3261173e-09
0.011146519
-1.9042988e-09
0.011146519
-1.6480862e-09
-1.2467049e-09
0.0078526759
-2.0149557e-06
0.0078500839
-6.8342626e-06
0.0078452456
-8.489504e-06
0.0078395039
-7.7334339e-06
0.0078338447
-6.186233e-06
0.0078285573
-4.8643588e-06
0.0078236182
-3.9851077e-06
0.0078189821
-3.408302e-06
0.0078146534
-2.9735734e-06
0.0078106552
-2.6036111e-06
0.0078069921
-2.2836776e-06
0.0078036443
-2.0168054e-06
0.0078005802
-1.8002965e-06
0.0077977686
-1.6240027e-06
0.0077951826
-1.4763813e-06
0.0077928003
-1.3488729e-06
0.0077906024
-1.2365191e-06
0.0077885717
-1.1366139e-06
0.0077866928
-1.0473348e-06
0.0077849519
-9.6712841e-07
0.0077833371
-8.9461451e-07
0.0077818377
-8.2866603e-07
0.0077804445
-7.6840551e-07
0.0077791491
-7.1316215e-07
0.0077779438
-6.6238617e-07
0.0077768221
-6.1561836e-07
0.0077757776
-5.7245182e-07
0.0077748048
-5.3254067e-07
0.0077738987
-4.9557635e-07
0.0077730544
-4.612989e-07
0.0077722678
-4.2947148e-07
0.0077715349
-3.9989329e-07
0.007770852
-3.7237652e-07
0.0077702158
-3.467624e-07
0.007769623
-3.2289925e-07
0.0077690709
-3.0065951e-07
0.0077685567
-2.7991862e-07
0.0077680779
-2.6057285e-07
0.0077676322
-2.4251842e-07
0.0077672173
-2.2566963e-07
0.0077668313
-2.0993873e-07
0.0077664722
-1.9525437e-07
0.0077661383
-1.8154164e-07
0.007765828
-1.6874037e-07
0.0077655396
-1.5678587e-07
0.0077652716
-1.4562724e-07
0.0077650229
-1.3520827e-07
0.007764792
-1.2548544e-07
0.0077645778
-1.1640945e-07
0.0077643792
-1.0794313e-07
0.0077641951
-1.0004312e-07
0.0077640246
-9.2677361e-08
0.0077638667
-8.5807432e-08
0.0077637206
-7.9405838e-08
0.0077635855
-7.3438518e-08
0.0077634606
-6.7881687e-08
0.0077633452
-6.2704948e-08
0.0077632387
-5.7887934e-08
0.0077631405
-5.3403566e-08
0.0077630499
-4.9234246e-08
0.0077629665
-4.5355699e-08
0.0077628897
-4.1752941e-08
0.007762819
-3.8404273e-08
0.0077627541
-3.529681e-08
0.0077626945
-3.2411013e-08
0.0077626398
-2.973603e-08
0.0077625896
-2.7254332e-08
0.0077625437
-2.4956656e-08
0.0077625018
-2.2827143e-08
0.0077624634
-2.085812e-08
0.0077624284
-1.9035301e-08
0.0077623965
-1.7352233e-08
0.0077623674
-1.5795927e-08
0.007762341
-1.4361194e-08
0.0077623171
-1.3036296e-08
0.0077622953
-1.1816992e-08
0.0077622757
-1.069257e-08
0.0077622579
-9.6598163e-09
0.0077622419
-8.7090323e-09
0.0077622275
-7.8377475e-09
0.0077622146
-7.0370771e-09
0.007762203
-6.3053823e-09
0.0077621926
-5.6346007e-09
0.0077621834
-5.0236259e-09
0.0077621752
-4.4650564e-09
0.0077621679
-3.9583589e-09
0.0077621615
-3.4968642e-09
0.0077621558
-3.0801991e-09
0.0077621508
-2.7024593e-09
0.0077621465
-2.3631528e-09
0.0077621427
-2.0575156e-09
0.0077621394
-1.7839675e-09
0.0077621366
-1.5397218e-09
0.0077621341
-1.3211874e-09
0.007762132
-1.1296878e-09
0.0077621303
-9.5441287e-10
0.0077621288
-8.0606258e-10
0.0077621275
-6.6198816e-10
0.0077621264
-5.3888398e-10
-4.2796881e-10
0.0031426013
0.0031357675
0.003127278
0.0031195443
0.0031133577
0.003108493
0.0031045076
0.003101099
0.0030981252
0.0030955214
0.0030932375
0.0030912205
0.0030894201
0.0030877959
0.0030863195
0.0030849705
0.0030837339
0.0030825972
0.0030815498
0.0030805826
0.0030796879
0.0030788592
0.0030780908
0.0030773776
0.0030767152
0.0030760995
0.0030755271
0.0030749945
0.0030744989
0.0030740376
0.0030736081
0.0030732082
0.0030728358
0.0030724891
0.0030721662
0.0030718655
0.0030715856
0.003071325
0.0030710825
0.0030708568
0.0030706469
0.0030704516
0.0030702701
0.0030701014
0.0030699446
0.0030697989
0.0030696637
0.0030695383
0.0030694219
0.0030693139
0.0030692139
0.0030691212
0.0030690354
0.003068956
0.0030688826
0.0030688147
0.003068752
0.0030686941
0.0030686407
0.0030685915
0.0030685462
0.0030685044
0.003068466
0.0030684307
0.0030683983
0.0030683686
0.0030683413
0.0030683164
0.0030682936
0.0030682727
0.0030682537
0.0030682363
0.0030682205
0.0030682062
0.0030681931
0.0030681813
0.0030681706
0.003068161
0.0030681523
0.0030681445
0.0030681374
0.0030681311
0.0030681255
0.0030681205
0.003068116
0.003068112
0.0030681086
0.0030681055
0.0030681028
0.0030681004
0.0030680984
0.0030680966
0.003068095
0.0030680937
0.0030680926
0.0030680916
0.0030680908
0.0030680902
0.0030680896
)
;

boundaryField
{
    top
    {
        type            calculated;
        value           uniform 0;
    }
    inlet
    {
        type            calculated;
        value           nonuniform List<scalar> 10(-0.0031446143 -0.0078528229 -0.011168102 -0.013267906 -0.014283282 -0.01428328 -0.013267906 -0.011168102 -0.0078528231 -0.0031446156);
    }
    outlet
    {
        type            calculated;
        value           nonuniform List<scalar> 10(0.0030680893 0.0077621258 0.011146518 0.013333899 0.014406083 0.014406083 0.013333899 0.011146518 0.0077621256 0.0030680892);
    }
    bottom
    {
        type            calculated;
        value           uniform 0;
    }
    back
    {
        type            empty;
        value           nonuniform 0();
    }
    front
    {
        type            empty;
        value           nonuniform 0();
    }
}


// ************************************************************************* //
