/*--------------------------------*- C++ -*----------------------------------*\
| =========                 |                                                 |
| \\      /  F ield         | OpenFOAM: The Open Source CFD Toolbox           |
|  \\    /   O peration     | Version:  v1812                                 |
|   \\  /    A nd           | Web:      www.OpenFOAM.com                      |
|    \\/     M anipulation  |                                                 |
\*---------------------------------------------------------------------------*/
FoamFile
{
    version     2.0;
    format      ascii;
    class       volVectorField;
    location    "15";
    object      U;
}
// * * * * * * * * * * * * * * * * * * * * * * * * * * * * * * * * * * * * * //

dimensions      [0 1 -1 0 0 0 0];


internalField   nonuniform List<vector> 
1000
(
(0.3144131 0.00017377955 0)
(0.31404091 0.00051861495 0)
(0.31319952 0.00058164976 0)
(0.31233497 0.00045482956 0)
(0.31162569 0.00030288334 0)
(0.31107656 0.00020250249 0)
(0.31063941 0.00015156896 0)
(0.31027286 0.00012499381 0)
(0.30995507 0.00010605401 0)
(0.30967683 8.9775619e-05 0)
(0.30943306 7.6389462e-05 0)
(0.3092187 6.6370421e-05 0)
(0.30902849 5.9159077e-05 0)
(0.30885781 5.3728294e-05 0)
(0.30870318 4.9254121e-05 0)
(0.30856222 4.5315141e-05 0)
(0.30843319 4.1767669e-05 0)
(0.30831473 3.856981e-05 0)
(0.3082057 3.5686546e-05 0)
(0.30810513 3.3072252e-05 0)
(0.30801217 3.0683305e-05 0)
(0.30792611 2.8487367e-05 0)
(0.30784636 2.6463114e-05 0)
(0.30777236 2.4595059e-05 0)
(0.30770366 2.2869923e-05 0)
(0.30763984 2.1275e-05 0)
(0.3075805 1.9798571e-05 0)
(0.30752531 1.842996e-05 0)
(0.30747395 1.7159911e-05 0)
(0.30742616 1.5980102e-05 0)
(0.30738167 1.4883249e-05 0)
(0.30734024 1.3862634e-05 0)
(0.30730167 1.2912351e-05 0)
(0.30726575 1.2026909e-05 0)
(0.3072323 1.1201512e-05 0)
(0.30720116 1.043165e-05 0)
(0.30717216 9.7133917e-06 0)
(0.30714516 9.0429921e-06 0)
(0.30712003 8.4171905e-06 0)
(0.30709665 7.8328315e-06 0)
(0.30707489 7.2871823e-06 0)
(0.30705465 6.7775631e-06 0)
(0.30703583 6.3016636e-06 0)
(0.30701834 5.8571814e-06 0)
(0.30700208 5.4421456e-06 0)
(0.30698698 5.0545663e-06 0)
(0.30697295 4.6927519e-06 0)
(0.30695993 4.3549659e-06 0)
(0.30694785 4.0397466e-06 0)
(0.30693665 3.7455746e-06 0)
(0.30692626 3.4711832e-06 0)
(0.30691663 3.2152326e-06 0)
(0.30690772 2.9766207e-06 0)
(0.30689947 2.7541669e-06 0)
(0.30689184 2.5469125e-06 0)
(0.30688478 2.3538107e-06 0)
(0.30687826 2.174026e-06 0)
(0.30687224 2.0066333e-06 0)
(0.30686668 1.8509061e-06 0)
(0.30686155 1.7060219e-06 0)
(0.30685683 1.5713482e-06 0)
(0.30685248 1.4461569e-06 0)
(0.30684848 1.3298994e-06 0)
(0.3068448 1.2219264e-06 0)
(0.30684142 1.1217611e-06 0)
(0.30683831 1.0288275e-06 0)
(0.30683547 9.4271297e-07 0)
(0.30683286 8.6290187e-07 0)
(0.30683047 7.8903651e-07 0)
(0.30682829 7.2065832e-07 0)
(0.3068263 6.5745922e-07 0)
(0.30682448 5.9902739e-07 0)
(0.30682283 5.4509741e-07 0)
(0.30682132 4.9530286e-07 0)
(0.30681996 4.4941772e-07 0)
(0.30681872 4.0711278e-07 0)
(0.30681759 3.6819613e-07 0)
(0.30681658 3.3237566e-07 0)
(0.30681566 2.9949147e-07 0)
(0.30681483 2.692813e-07 0)
(0.30681409 2.4161273e-07 0)
(0.30681342 2.1625332e-07 0)
(0.30681283 1.9309641e-07 0)
(0.3068123 1.7193158e-07 0)
(0.30681182 1.5267429e-07 0)
(0.3068114 1.3513424e-07 0)
(0.30681103 1.1924951e-07 0)
(0.3068107 1.0483829e-07 0)
(0.30681041 9.1862957e-08 0)
(0.30681016 8.0139905e-08 0)
(0.30680994 6.9667176e-08 0)
(0.30680975 6.0231931e-08 0)
(0.30680958 5.1886565e-08 0)
(0.30680944 4.4350279e-08 0)
(0.30680932 3.7742431e-08 0)
(0.30680921 3.1697033e-08 0)
(0.30680913 2.6377083e-08 0)
(0.30680905 2.1495592e-08 0)
(0.306809 1.6621543e-08 0)
(0.30680894 1.3738275e-08 0)
(0.78514509 0.00019350698 0)
(0.78548238 0.00086569454 0)
(0.7849825 0.0012376688 0)
(0.78427229 0.0012355996 0)
(0.7836377 0.001051796 0)
(0.78309825 0.00085838638 0)
(0.78260512 0.00071781462 0)
(0.78213254 0.00062180785 0)
(0.78168167 0.0005473045 0)
(0.78126144 0.00048188592 0)
(0.78087652 0.00042375408 0)
(0.78052596 0.00037431886 0)
(0.78020603 0.0003337348 0)
(0.77991286 0.00030049583 0)
(0.77964338 0.00027263417 0)
(0.77939526 0.00024862394 0)
(0.77916652 0.00022755103 0)
(0.77895537 0.00020889259 0)
(0.77876017 0.00019228403 0)
(0.77857944 0.00017741274 0)
(0.77841188 0.00016400524 0)
(0.77825637 0.0001518387 0)
(0.77811191 0.00014074147 0)
(0.77797764 0.00013058147 0)
(0.77785275 0.00012125275 0)
(0.77773654 0.00011266623 0)
(0.77762835 0.00010474548 0)
(0.7775276 9.7424534e-05 0)
(0.77743376 9.0646575e-05 0)
(0.77734634 8.4362321e-05 0)
(0.77726489 7.8528765e-05 0)
(0.777189 7.3107885e-05 0)
(0.77711829 6.8065971e-05 0)
(0.7770524 6.3372845e-05 0)
(0.77699102 5.9001526e-05 0)
(0.77693385 5.4927644e-05 0)
(0.77688059 5.1129251e-05 0)
(0.776831 4.7586348e-05 0)
(0.77678482 4.4280806e-05 0)
(0.77674184 4.1195967e-05 0)
(0.77670185 3.8316652e-05 0)
(0.77666464 3.562883e-05 0)
(0.77663003 3.3119658e-05 0)
(0.77659785 3.0777192e-05 0)
(0.77656795 2.859046e-05 0)
(0.77654017 2.6549212e-05 0)
(0.77651437 2.4644012e-05 0)
(0.77649041 2.2865995e-05 0)
(0.77646819 2.1206987e-05 0)
(0.77644758 1.9659287e-05 0)
(0.77642847 1.8215787e-05 0)
(0.77641076 1.6869759e-05 0)
(0.77639436 1.5614993e-05 0)
(0.77637918 1.4445602e-05 0)
(0.77636514 1.3356149e-05 0)
(0.77635215 1.2341464e-05 0)
(0.77634015 1.1396777e-05 0)
(0.77632907 1.0517545e-05 0)
(0.77631885 9.6995839e-06 0)
(0.77630942 8.9388943e-06 0)
(0.77630073 8.2317973e-06 0)
(0.77629273 7.574775e-06 0)
(0.77628537 6.9645981e-06 0)
(0.77627859 6.3981658e-06 0)
(0.77627238 5.8726376e-06 0)
(0.77626667 5.3852847e-06 0)
(0.77626143 4.9336145e-06 0)
(0.77625664 4.5152203e-06 0)
(0.77625225 4.1279096e-06 0)
(0.77624824 3.7695647e-06 0)
(0.77624457 3.4382636e-06 0)
(0.77624123 3.1321392e-06 0)
(0.77623819 2.8495037e-06 0)
(0.77623542 2.5887178e-06 0)
(0.7762329 2.3483077e-06 0)
(0.77623062 2.126833e-06 0)
(0.77622855 1.9230058e-06 0)
(0.77622668 1.7355685e-06 0)
(0.776225 1.5634055e-06 0)
(0.77622348 1.4054176e-06 0)
(0.77622211 1.2606379e-06 0)
(0.77622089 1.1281113e-06 0)
(0.77621979 1.0070091e-06 0)
(0.77621881 8.9649364e-07 0)
(0.77621794 7.9585597e-07 0)
(0.77621717 7.0435378e-07 0)
(0.77621648 6.2139863e-07 0)
(0.77621588 5.4629869e-07 0)
(0.77621535 4.7859623e-07 0)
(0.77621488 4.1758489e-07 0)
(0.77621447 3.6300391e-07 0)
(0.77621412 3.1399136e-07 0)
(0.77621382 2.7063632e-07 0)
(0.77621355 2.316285e-07 0)
(0.77621333 1.9779739e-07 0)
(0.77621313 1.6675022e-07 0)
(0.77621297 1.4108035e-07 0)
(0.77621282 1.1570255e-07 0)
(0.77621274 9.7980679e-08 0)
(0.77621259 7.5241533e-08 0)
(1.1165375 0.00015338474 0)
(1.1174929 0.00080089073 0)
(1.1174999 0.0012717362 0)
(1.1172836 0.0014070433 0)
(1.117183 0.0013225187 0)
(1.117189 0.0011783478 0)
(1.1172003 0.0010575248 0)
(1.117163 0.00096907217 0)
(1.1170799 0.00089531625 0)
(1.1169738 0.00082381436 0)
(1.1168622 0.00075326529 0)
(1.1167514 0.00068717728 0)
(1.116642 0.0006280899 0)
(1.1165337 0.00057612478 0)
(1.116427 0.000530086 0)
(1.116323 0.00048872519 0)
(1.1162226 0.00045123137 0)
(1.1161266 0.0004171419 0)
(1.116035 0.00038612292 0)
(1.1159479 0.00035785259 0)
(1.1158653 0.00033201237 0)
(1.115787 0.00030831471 0)
(1.115713 0.0002865184 0)
(1.1156432 0.0002664251 0)
(1.1155775 0.00024786782 0)
(1.1155155 0.00023070164 0)
(1.1154573 0.00021479872 0)
(1.1154026 0.00020004619 0)
(1.1153513 0.00018634442 0)
(1.1153031 0.00017360552 0)
(1.1152579 0.00016175133 0)
(1.1152156 0.00015071209 0)
(1.115176 0.00014042506 0)
(1.1151389 0.00013083368 0)
(1.1151042 0.00012188668 0)
(1.1150718 0.00011353759 0)
(1.1150415 0.00010574394 0)
(1.1150132 9.8467045e-05 0)
(1.1149868 9.1671315e-05 0)
(1.1149622 8.5324125e-05 0)
(1.1149392 7.9395335e-05 0)
(1.1149178 7.3857185e-05 0)
(1.1148978 6.8683915e-05 0)
(1.1148792 6.3851713e-05 0)
(1.1148619 5.9338397e-05 0)
(1.1148457 5.5123408e-05 0)
(1.1148307 5.1187534e-05 0)
(1.1148168 4.7512926e-05 0)
(1.1148039 4.4082857e-05 0)
(1.1147918 4.0881769e-05 0)
(1.1147807 3.7895047e-05 0)
(1.1147703 3.5109082e-05 0)
(1.1147607 3.2511063e-05 0)
(1.1147518 3.0089058e-05 0)
(1.1147435 2.7831821e-05 0)
(1.1147359 2.5728867e-05 0)
(1.1147288 2.3770305e-05 0)
(1.1147222 2.1946917e-05 0)
(1.1147162 2.0249998e-05 0)
(1.1147106 1.8671436e-05 0)
(1.1147054 1.7203561e-05 0)
(1.1147007 1.5839235e-05 0)
(1.1146963 1.4571706e-05 0)
(1.1146923 1.3394691e-05 0)
(1.1146886 1.2302235e-05 0)
(1.1146851 1.128881e-05 0)
(1.114682 1.0349175e-05 0)
(1.1146791 9.478464e-06 0)
(1.1146765 8.6720596e-06 0)
(1.1146741 7.9256846e-06 0)
(1.1146718 7.2352767e-06 0)
(1.1146698 6.5970761e-06 0)
(1.114668 6.0075085e-06 0)
(1.1146663 5.4632777e-06 0)
(1.1146647 4.9612476e-06 0)
(1.1146633 4.4985316e-06 0)
(1.1146621 4.0723815e-06 0)
(1.1146609 3.6802802e-06 0)
(1.1146599 3.319831e-06 0)
(1.1146589 2.9888425e-06 0)
(1.1146581 2.6852297e-06 0)
(1.1146573 2.4070909e-06 0)
(1.1146566 2.1526259e-06 0)
(1.114656 1.9201739e-06 0)
(1.1146554 1.7081952e-06 0)
(1.1146549 1.5152126e-06 0)
(1.1146545 1.3399557e-06 0)
(1.1146541 1.1810239e-06 0)
(1.1146537 1.0374864e-06 0)
(1.1146534 9.078113e-07 0)
(1.1146532 7.9165956e-07 0)
(1.1146529 6.8687591e-07 0)
(1.1146527 5.9439641e-07 0)
(1.1146525 5.1023879e-07 0)
(1.1146524 4.3847228e-07 0)
(1.1146522 3.7033679e-07 0)
(1.1146521 3.1773843e-07 0)
(1.114652 2.5983703e-07 0)
(1.114652 2.2805372e-07 0)
(1.1146518 1.7312993e-07 0)
(1.3263986 9.5625334e-05 0)
(1.3277415 0.00054090228 0)
(1.3280498 0.00090348684 0)
(1.3281336 0.0010444516 0)
(1.3284012 0.0010182084 0)
(1.3288405 0.00093427958 0)
(1.3293059 0.00085926862 0)
(1.3297067 0.00080553964 0)
(1.3300323 0.000761354 0)
(1.3303082 0.00071653639 0)
(1.3305566 0.00066942669 0)
(1.3307862 0.00062290723 0)
(1.3309972 0.00057960737 0)
(1.3311889 0.00054025846 0)
(1.3313621 0.00050434692 0)
(1.3315191 0.00047114989 0)
(1.3316623 0.00044021763 0)
(1.3317934 0.0004113546 0)
(1.3319137 0.00038445208 0)
(1.3320243 0.00035938777 0)
(1.3321259 0.00033601501 0)
(1.3322195 0.00031418826 0)
(1.3323059 0.00029378079 0)
(1.3323856 0.00027468683 0)
(1.3324593 0.00025681496 0)
(1.3325275 0.00024008269 0)
(1.3325906 0.00022441353 0)
(1.3326491 0.00020973686 0)
(1.3327034 0.0001959874 0)
(1.3327537 0.0001831053 0)
(1.3328005 0.00017103511 0)
(1.3328439 0.00015972561 0)
(1.3328842 0.0001491289 0)
(1.3329216 0.00013920057 0)
(1.3329564 0.00012989891 0)
(1.3329887 0.00012118525 0)
(1.3330188 0.00011302313 0)
(1.3330467 0.00010537873 0)
(1.3330727 9.8220093e-05 0)
(1.3330968 9.1517548e-05 0)
(1.3331192 8.5242997e-05 0)
(1.33314 7.9370349e-05 0)
(1.3331594 7.3874847e-05 0)
(1.3331773 6.8733517e-05 0)
(1.333194 6.3924514e-05 0)
(1.3332095 5.9427577e-05 0)
(1.3332238 5.5223407e-05 0)
(1.3332371 5.129412e-05 0)
(1.3332495 4.762265e-05 0)
(1.3332609 4.4193202e-05 0)
(1.3332715 4.0990675e-05 0)
(1.3332813 3.8001114e-05 0)
(1.3332904 3.521115e-05 0)
(1.3332988 3.2608455e-05 0)
(1.3333066 3.0181193e-05 0)
(1.3333137 2.7918471e-05 0)
(1.3333204 2.5809813e-05 0)
(1.3333265 2.3845602e-05 0)
(1.3333321 2.2016562e-05 0)
(1.3333373 2.0314205e-05 0)
(1.3333421 1.8730327e-05 0)
(1.3333465 1.7257441e-05 0)
(1.3333505 1.5888289e-05 0)
(1.3333542 1.4616272e-05 0)
(1.3333576 1.3434978e-05 0)
(1.3333608 1.2338595e-05 0)
(1.3333636 1.132145e-05 0)
(1.3333662 1.0378429e-05 0)
(1.3333686 9.5045264e-06 0)
(1.3333708 8.6952455e-06 0)
(1.3333728 7.9461653e-06 0)
(1.3333746 7.2533389e-06 0)
(1.3333763 6.6128674e-06 0)
(1.3333778 6.0212917e-06 0)
(1.3333792 5.4751769e-06 0)
(1.3333804 4.971499e-06 0)
(1.3333815 4.5072391e-06 0)
(1.3333825 4.0797618e-06 0)
(1.3333834 3.6864201e-06 0)
(1.3333842 3.3249243e-06 0)
(1.333385 2.9929642e-06 0)
(1.3333856 2.6885519e-06 0)
(1.3333862 2.4096854e-06 0)
(1.3333867 2.1546255e-06 0)
(1.3333872 1.9216703e-06 0)
(1.3333876 1.709248e-06 0)
(1.333388 1.5159938e-06 0)
(1.3333883 1.3403453e-06 0)
(1.3333885 1.1814364e-06 0)
(1.3333888 1.037363e-06 0)
(1.333389 9.0822329e-07 0)
(1.3333892 7.9093928e-07 0)
(1.3333893 6.8777185e-07 0)
(1.3333895 5.9251903e-07 0)
(1.3333896 5.125568e-07 0)
(1.3333897 4.3411733e-07 0)
(1.3333898 3.7630302e-07 0)
(1.3333898 3.0813473e-07 0)
(1.3333899 2.7442635e-07 0)
(1.3333899 2.087391e-07 0)
(1.4278691 3.2264418e-05 0)
(1.4293995 0.00018890481 0)
(1.4298417 0.00032240592 0)
(1.4300526 0.00037958317 0)
(1.4304838 0.00037510685 0)
(1.4311299 0.00034745663 0)
(1.4318247 0.00032191684 0)
(1.4324562 0.0003040665 0)
(1.4330047 0.00028981834 0)
(1.4334959 0.00027519012 0)
(1.4339543 0.00025936209 0)
(1.4343892 0.00024337251 0)
(1.4348001 0.00022827107 0)
(1.4351848 0.00021440504 0)
(1.4355435 0.00020162293 0)
(1.4358783 0.00018967162 0)
(1.4361915 0.0001783962 0)
(1.4364849 0.00016774121 0)
(1.4367599 0.00015768696 0)
(1.4370175 0.0001482083 0)
(1.4372588 0.00013926884 0)
(1.4374848 0.00013083021 0)
(1.4376963 0.00012285937 0)
(1.4378945 0.00011532964 0)
(1.4380799 0.0001082184 0)
(1.4382536 0.00010150499 0)
(1.438416 9.5169621e-05 0)
(1.438568 8.9193338e-05 0)
(1.4387102 8.3558117e-05 0)
(1.4388432 7.824686e-05 0)
(1.4389675 7.3243259e-05 0)
(1.4390836 6.8531718e-05 0)
(1.4391922 6.4097236e-05 0)
(1.4392935 5.9925424e-05 0)
(1.4393882 5.6002456e-05 0)
(1.4394766 5.2315108e-05 0)
(1.439559 4.8850692e-05 0)
(1.4396359 4.5597096e-05 0)
(1.4397077 4.2542726e-05 0)
(1.4397745 3.9676542e-05 0)
(1.4398368 3.6987996e-05 0)
(1.4398949 3.4467063e-05 0)
(1.4399489 3.2104182e-05 0)
(1.4399992 2.9890297e-05 0)
(1.440046 2.7816777e-05 0)
(1.4400895 2.5875456e-05 0)
(1.4401299 2.4058566e-05 0)
(1.4401675 2.2358778e-05 0)
(1.4402024 2.0769122e-05 0)
(1.4402348 1.9283024e-05 0)
(1.4402649 1.7894247e-05 0)
(1.4402928 1.6596918e-05 0)
(1.4403186 1.5385467e-05 0)
(1.4403426 1.4254653e-05 0)
(1.4403647 1.3199509e-05 0)
(1.4403852 1.2215373e-05 0)
(1.4404042 1.1297829e-05 0)
(1.4404217 1.0442731e-05 0)
(1.4404379 9.6461521e-06 0)
(1.4404529 8.9044206e-06 0)
(1.4404667 8.2140552e-06 0)
(1.4404794 7.5717977e-06 0)
(1.4404911 6.9745645e-06 0)
(1.4405018 6.4194763e-06 0)
(1.4405117 5.9038023e-06 0)
(1.4405208 5.4249967e-06 0)
(1.4405292 4.9806478e-06 0)
(1.4405368 4.5685111e-06 0)
(1.4405439 4.1864553e-06 0)
(1.4405503 3.8324983e-06 0)
(1.4405562 3.5047586e-06 0)
(1.4405615 3.2014945e-06 0)
(1.4405664 2.9210487e-06 0)
(1.4405709 2.6618864e-06 0)
(1.4405749 2.4225484e-06 0)
(1.4405786 2.201692e-06 0)
(1.440582 1.9980371e-06 0)
(1.440585 1.8104051e-06 0)
(1.4405877 1.6376755e-06 0)
(1.4405902 1.478822e-06 0)
(1.4405924 1.332871e-06 0)
(1.4405944 1.1989215e-06 0)
(1.4405962 1.0761348e-06 0)
(1.4405979 9.6371676e-07 0)
(1.4405993 8.6096745e-07 0)
(1.4406006 7.6714923e-07 0)
(1.4406017 6.8172871e-07 0)
(1.4406027 6.0394482e-07 0)
(1.4406036 5.3353155e-07 0)
(1.4406044 4.6950177e-07 0)
(1.4406051 4.1212098e-07 0)
(1.4406057 3.597231e-07 0)
(1.4406062 3.1375909e-07 0)
(1.4406066 2.7088111e-07 0)
(1.440607 2.3523368e-07 0)
(1.4406074 1.9960631e-07 0)
(1.4406076 1.7393161e-07 0)
(1.4406079 1.4265269e-07 0)
(1.4406081 1.2762891e-07 0)
(1.4406083 9.7132935e-08 0)
(1.4278689 -3.226387e-05 0)
(1.4293994 -0.00018890287 0)
(1.4298416 -0.00032240715 0)
(1.4300526 -0.00037958451 0)
(1.4304838 -0.00037510007 0)
(1.4311298 -0.00034743515 0)
(1.4318247 -0.00032188186 0)
(1.4324561 -0.00030402291 0)
(1.4330047 -0.00028977098 0)
(1.4334959 -0.00027514115 0)
(1.4339543 -0.00025931246 0)
(1.4343892 -0.00024332296 0)
(1.4348001 -0.00022822273 0)
(1.4351848 -0.00021435908 0)
(1.4355436 -0.00020158026 0)
(1.4358783 -0.00018963289 0)
(1.4361915 -0.00017836172 0)
(1.4364849 -0.00016771128 0)
(1.4367599 -0.00015766161 0)
(1.4370175 -0.00014818764 0)
(1.4372588 -0.00013925266 0)
(1.4374848 -0.00013081845 0)
(1.4376964 -0.00012285168 0)
(1.4378945 -0.00011532587 0)
(1.43808 -0.00010821812 0)
(1.4382536 -0.00010150796 0)
(1.4384161 -9.5175331e-05 0)
(1.4385681 -8.9201625e-05 0)
(1.4387102 -8.3568503e-05 0)
(1.4388432 -7.8259207e-05 0)
(1.4389675 -7.3257112e-05 0)
(1.4390836 -6.8546975e-05 0)
(1.4391922 -6.4113482e-05 0)
(1.4392936 -5.9942619e-05 0)
(1.4393882 -5.6020238e-05 0)
(1.4394766 -5.2333473e-05 0)
(1.439559 -4.8869315e-05 0)
(1.4396359 -4.5616018e-05 0)
(1.4397077 -4.2561652e-05 0)
(1.4397745 -3.9695525e-05 0)
(1.4398368 -3.7006753e-05 0)
(1.4398949 -3.4485662e-05 0)
(1.4399489 -3.2122355e-05 0)
(1.4399992 -2.9908108e-05 0)
(1.440046 -2.7833961e-05 0)
(1.4400895 -2.589209e-05 0)
(1.4401299 -2.4074405e-05 0)
(1.4401675 -2.2373901e-05 0)
(1.4402024 -2.0783299e-05 0)
(1.4402348 -1.9296363e-05 0)
(1.4402649 -1.7906546e-05 0)
(1.4402928 -1.6608299e-05 0)
(1.4403186 -1.5395754e-05 0)
(1.4403426 -1.4263995e-05 0)
(1.4403647 -1.3207762e-05 0)
(1.4403852 -1.22227e-05 0)
(1.4404042 -1.1304102e-05 0)
(1.4404217 -1.0448133e-05 0)
(1.4404379 -9.6505781e-06 0)
(1.4404529 -8.9080536e-06 0)
(1.4404666 -8.2167965e-06 0)
(1.4404793 -7.5738398e-06 0)
(1.440491 -6.9758174e-06 0)
(1.4405018 -6.420124e-06 0)
(1.4405117 -5.9037602e-06 0)
(1.4405208 -5.4244519e-06 0)
(1.4405292 -4.9795141e-06 0)
(1.4405368 -4.5669597e-06 0)
(1.4405438 -4.1843972e-06 0)
(1.4405503 -3.8301045e-06 0)
(1.4405561 -3.5019424e-06 0)
(1.4405615 -3.1984151e-06 0)
(1.4405664 -2.9176155e-06 0)
(1.4405709 -2.6582593e-06 0)
(1.4405749 -2.4186402e-06 0)
(1.4405786 -2.1976528e-06 0)
(1.4405819 -1.9937772e-06 0)
(1.440585 -1.8060775e-06 0)
(1.4405877 -1.6331943e-06 0)
(1.4405902 -1.4743329e-06 0)
(1.4405924 -1.3282861e-06 0)
(1.4405944 -1.1943907e-06 0)
(1.4405962 -1.0715741e-06 0)
(1.4405978 -9.5927023e-07 0)
(1.4405993 -8.5654733e-07 0)
(1.4406006 -7.6290618e-07 0)
(1.4406017 -6.7757467e-07 0)
(1.4406027 -6.000286e-07 0)
(1.4406036 -5.2975562e-07 0)
(1.4406044 -4.6602838e-07 0)
(1.4406051 -4.0884989e-07 0)
(1.4406057 -3.5684657e-07 0)
(1.4406062 -3.111682e-07 0)
(1.4406066 -2.6877157e-07 0)
(1.440607 -2.3342543e-07 0)
(1.4406074 -1.981777e-07 0)
(1.4406076 -1.7277882e-07 0)
(1.4406079 -1.4175291e-07 0)
(1.4406081 -1.2747526e-07 0)
(1.4406083 -9.7717461e-08 0)
(1.3263986 -9.5625837e-05 0)
(1.3277415 -0.0005409134 0)
(1.3280497 -0.00090350652 0)
(1.3281335 -0.001044471 0)
(1.3284012 -0.0010182187 0)
(1.3288404 -0.00093427704 0)
(1.3293059 -0.00085925413 0)
(1.3297067 -0.00080551661 0)
(1.3300323 -0.00076132523 0)
(1.3303082 -0.00071650378 0)
(1.3305566 -0.00066939139 0)
(1.3307862 -0.00062287047 0)
(1.3309972 -0.00057957043 0)
(1.3311889 -0.00054022256 0)
(1.3313621 -0.00050431306 0)
(1.3315192 -0.00047111873 0)
(1.3316623 -0.00044018973 0)
(1.3317934 -0.0004113302 0)
(1.3319138 -0.00038443146 0)
(1.3320243 -0.0003593709 0)
(1.332126 -0.00033600195 0)
(1.3322196 -0.00031417879 0)
(1.3323059 -0.00029377481 0)
(1.3323856 -0.000274684 0)
(1.3324593 -0.0002568151 0)
(1.3325275 -0.00024008546 0)
(1.3325907 -0.00022441876 0)
(1.3326492 -0.00020974414 0)
(1.3327034 -0.00019599657 0)
(1.3327538 -0.00018311597 0)
(1.3328005 -0.00017104713 0)
(1.3328439 -0.00015973864 0)
(1.3328842 -0.00014914285 0)
(1.3329216 -0.00013921513 0)
(1.3329564 -0.00012991404 0)
(1.3329888 -0.00012120067 0)
(1.3330188 -0.00011303884 0)
(1.3330467 -0.00010539449 0)
(1.3330727 -9.8235933e-05 0)
(1.3330968 -9.1533238e-05 0)
(1.3331192 -8.5258574e-05 0)
(1.33314 -7.9385604e-05 0)
(1.3331594 -7.388982e-05 0)
(1.3331773 -6.8748001e-05 0)
(1.333194 -6.3938557e-05 0)
(1.3332094 -5.9440988e-05 0)
(1.3332238 -5.5236236e-05 0)
(1.3332371 -5.1306186e-05 0)
(1.3332495 -4.7634021e-05 0)
(1.3332609 -4.4203723e-05 0)
(1.3332715 -4.1000426e-05 0)
(1.3332813 -3.8009957e-05 0)
(1.3332904 -3.5219191e-05 0)
(1.3332988 -3.2615584e-05 0)
(1.3333065 -3.0187527e-05 0)
(1.3333137 -2.7923918e-05 0)
(1.3333203 -2.5814509e-05 0)
(1.3333264 -2.3849473e-05 0)
(1.333332 -2.2019748e-05 0)
(1.3333372 -2.0316641e-05 0)
(1.333342 -1.873216e-05 0)
(1.3333464 -1.7258615e-05 0)
(1.3333505 -1.5888949e-05 0)
(1.3333542 -1.4616359e-05 0)
(1.3333576 -1.3434632e-05 0)
(1.3333607 -1.2337758e-05 0)
(1.3333636 -1.1320257e-05 0)
(1.3333662 -1.0376821e-05 0)
(1.3333686 -9.5026339e-06 0)
(1.3333708 -8.6930104e-06 0)
(1.3333728 -7.943709e-06 0)
(1.3333746 -7.2505968e-06 0)
(1.3333762 -6.6099593e-06 0)
(1.3333777 -6.018156e-06 0)
(1.3333791 -5.4719259e-06 0)
(1.3333803 -4.9680674e-06 0)
(1.3333815 -4.5037401e-06 0)
(1.3333825 -4.0761348e-06 0)
(1.3333834 -3.6827732e-06 0)
(1.3333842 -3.3211945e-06 0)
(1.3333849 -2.9892621e-06 0)
(1.3333856 -2.6848201e-06 0)
(1.3333862 -2.4060304e-06 0)
(1.3333867 -2.1509877e-06 0)
(1.3333871 -1.9181589e-06 0)
(1.3333876 -1.7058081e-06 0)
(1.3333879 -1.5127302e-06 0)
(1.3333882 -1.3372001e-06 0)
(1.3333885 -1.178516e-06 0)
(1.3333888 -1.034615e-06 0)
(1.333389 -9.0575436e-07 0)
(1.3333891 -7.8870204e-07 0)
(1.3333893 -6.8587219e-07 0)
(1.3333894 -5.9091789e-07 0)
(1.3333895 -5.1127397e-07 0)
(1.3333896 -4.3311542e-07 0)
(1.3333897 -3.7549824e-07 0)
(1.3333898 -3.0749971e-07 0)
(1.3333898 -2.7407486e-07 0)
(1.3333899 -2.0874727e-07 0)
(1.1165375 -0.00015338404 0)
(1.1174929 -0.00080088031 0)
(1.1174999 -0.0012717218 0)
(1.1172835 -0.0014070345 0)
(1.1171829 -0.001322517 0)
(1.117189 -0.0011783501 0)
(1.1172003 -0.0010575257 0)
(1.117163 -0.00096906853 0)
(1.1170799 -0.00089530691 0)
(1.1169739 -0.00082380019 0)
(1.1168622 -0.00075324748 0)
(1.1167514 -0.00068715711 0)
(1.1166421 -0.00062806837 0)
(1.1165338 -0.00057610281 0)
(1.116427 -0.00053006453 0)
(1.116323 -0.00048870493 0)
(1.1162227 -0.00045121299 0)
(1.1161267 -0.00041712571 0)
(1.1160351 -0.00038610926 0)
(1.115948 -0.00035784142 0)
(1.1158654 -0.00033200385 0)
(1.1157871 -0.00030830861 0)
(1.1157131 -0.00028651476 0)
(1.1156433 -0.00026642358 0)
(1.1155775 -0.0002478684 0)
(1.1155156 -0.00023070395 0)
(1.1154574 -0.00021480274 0)
(1.1154027 -0.0002000515 0)
(1.1153513 -0.00018635103 0)
(1.1153031 -0.000173613 0)
(1.115258 -0.00016175971 0)
(1.1152157 -0.000150721 0)
(1.115176 -0.00014043456 0)
(1.1151389 -0.00013084343 0)
(1.1151043 -0.00012189678 0)
(1.1150718 -0.00011354771 0)
(1.1150415 -0.00010575424 0)
(1.1150132 -9.8477212e-05 0)
(1.1149868 -9.1681505e-05 0)
(1.1149622 -8.5334062e-05 0)
(1.1149392 -7.9405188e-05 0)
(1.1149177 -7.3866685e-05 0)
(1.1148978 -6.8693223e-05 0)
(1.1148792 -6.3860571e-05 0)
(1.1148618 -5.9346977e-05 0)
(1.1148457 -5.5131459e-05 0)
(1.1148307 -5.119522e-05 0)
(1.1148168 -4.7520011e-05 0)
(1.1148038 -4.4089523e-05 0)
(1.1147918 -4.0887791e-05 0)
(1.1147806 -3.7900607e-05 0)
(1.1147702 -3.5113976e-05 0)
(1.1147606 -3.2515494e-05 0)
(1.1147517 -3.0092837e-05 0)
(1.1147434 -2.7835147e-05 0)
(1.1147358 -2.5731572e-05 0)
(1.1147287 -2.3772604e-05 0)
(1.1147222 -2.1948651e-05 0)
(1.1147161 -2.0251375e-05 0)
(1.1147105 -1.8672307e-05 0)
(1.1147054 -1.7204142e-05 0)
(1.1147006 -1.583938e-05 0)
(1.1146962 -1.4571616e-05 0)
(1.1146922 -1.3394221e-05 0)
(1.1146885 -1.2301589e-05 0)
(1.1146851 -1.1287845e-05 0)
(1.1146819 -1.0348079e-05 0)
(1.114679 -9.4770962e-06 0)
(1.1146764 -8.6706077e-06 0)
(1.114674 -7.9240038e-06 0)
(1.1146718 -7.2335396e-06 0)
(1.1146697 -6.5951407e-06 0)
(1.1146679 -6.0055505e-06 0)
(1.1146662 -5.4611534e-06 0)
(1.1146647 -4.9591208e-06 0)
(1.1146633 -4.4962635e-06 0)
(1.114662 -4.0701416e-06 0)
(1.1146608 -3.67793e-06 0)
(1.1146598 -3.3175304e-06 0)
(1.1146589 -2.9864589e-06 0)
(1.114658 -2.6829299e-06 0)
(1.1146572 -2.4047428e-06 0)
(1.1146565 -2.1503876e-06 0)
(1.1146559 -1.9179185e-06 0)
(1.1146554 -1.7060878e-06 0)
(1.1146549 -1.5131247e-06 0)
(1.1146544 -1.3380448e-06 0)
(1.114654 -1.1791631e-06 0)
(1.1146537 -1.0358417e-06 0)
(1.1146534 -9.0625114e-07 0)
(1.1146531 -7.9034769e-07 0)
(1.1146529 -6.8566528e-07 0)
(1.1146527 -5.9345749e-07 0)
(1.1146525 -5.0940899e-07 0)
(1.1146523 -4.3789169e-07 0)
(1.1146522 -3.6991163e-07 0)
(1.1146521 -3.1739746e-07 0)
(1.114652 -2.5956588e-07 0)
(1.1146519 -2.2756036e-07 0)
(1.1146518 -1.7252393e-07 0)
(0.78514511 -0.00019350131 0)
(0.78548242 -0.00086567528 0)
(0.78498253 -0.0012376478 0)
(0.78427232 -0.0012355914 0)
(0.78363774 -0.0010518081 0)
(0.78309829 -0.00085841438 0)
(0.78260517 -0.00071784789 0)
(0.78213257 -0.00062183664 0)
(0.7816817 -0.00054732466 0)
(0.78126146 -0.00048189776 0)
(0.78087655 -0.00042375973 0)
(0.78052598 -0.00037432013 0)
(0.78020606 -0.00033373292 0)
(0.77991289 -0.00030049177 0)
(0.77964342 -0.00027262883 0)
(0.77939531 -0.00024861824 0)
(0.77916657 -0.00022754556 0)
(0.77895543 -0.00020888784 0)
(0.77876023 -0.00019228015 0)
(0.7785795 -0.00017740991 0)
(0.77841194 -0.00016400341 0)
(0.77825643 -0.00015183793 0)
(0.77811198 -0.00014074159 0)
(0.77797771 -0.00013058252 0)
(0.77785282 -0.0001212545 0)
(0.7777366 -0.0001126687 0)
(0.77762841 -0.00010474844 0)
(0.77752766 -9.7428004e-05 0)
(0.77743382 -9.0650325e-05 0)
(0.77734639 -8.4366388e-05 0)
(0.77726493 -7.8532939e-05 0)
(0.77718904 -7.3112236e-05 0)
(0.77711832 -6.8070307e-05 0)
(0.77705243 -6.3377244e-05 0)
(0.77699105 -5.9005814e-05 0)
(0.77693386 -5.4931929e-05 0)
(0.7768806 -5.1133373e-05 0)
(0.776831 -4.7590417e-05 0)
(0.77678482 -4.4284671e-05 0)
(0.77674184 -4.1199755e-05 0)
(0.77670184 -3.8320219e-05 0)
(0.77666462 -3.563229e-05 0)
(0.77663001 -3.3122871e-05 0)
(0.77659783 -3.0780281e-05 0)
(0.77656792 -2.8593287e-05 0)
(0.77654014 -2.6551889e-05 0)
(0.77651433 -2.4646401e-05 0)
(0.77649038 -2.2868219e-05 0)
(0.77646815 -2.1208918e-05 0)
(0.77644753 -1.9661038e-05 0)
(0.77642842 -1.8217236e-05 0)
(0.77641071 -1.6871034e-05 0)
(0.77639431 -1.5615982e-05 0)
(0.77637913 -1.4446424e-05 0)
(0.77636508 -1.3356701e-05 0)
(0.7763521 -1.2341879e-05 0)
(0.7763401 -1.1396957e-05 0)
(0.77632902 -1.0517614e-05 0)
(0.77631879 -9.6994473e-06 0)
(0.77630936 -8.9386815e-06 0)
(0.77630067 -8.2314174e-06 0)
(0.77629267 -7.5743439e-06 0)
(0.77628531 -6.9640238e-06 0)
(0.77627854 -6.3975678e-06 0)
(0.77627232 -5.8719244e-06 0)
(0.77626661 -5.3845622e-06 0)
(0.77626138 -4.9327893e-06 0)
(0.77625658 -4.5144011e-06 0)
(0.77625219 -4.1270033e-06 0)
(0.77624818 -3.7686681e-06 0)
(0.77624452 -3.4372835e-06 0)
(0.77624118 -3.1311776e-06 0)
(0.77623814 -2.8484701e-06 0)
(0.77623537 -2.5877051e-06 0)
(0.77623285 -2.3472272e-06 0)
(0.77623057 -2.1257848e-06 0)
(0.77622851 -1.921905e-06 0)
(0.77622664 -1.7345075e-06 0)
(0.77622496 -1.5623018e-06 0)
(0.77622344 -1.4043708e-06 0)
(0.77622207 -1.2595689e-06 0)
(0.77622085 -1.1271115e-06 0)
(0.77621975 -1.0060008e-06 0)
(0.77621878 -8.9557409e-07 0)
(0.77621791 -7.9494955e-07 0)
(0.77621714 -7.0354872e-07 0)
(0.77621645 -6.2061967e-07 0)
(0.77621585 -5.4563798e-07 0)
(0.77621532 -4.7798164e-07 0)
(0.77621485 -4.1709801e-07 0)
(0.77621445 -3.6256633e-07 0)
(0.7762141 -3.136698e-07 0)
(0.77621379 -2.7033949e-07 0)
(0.77621353 -2.3139899e-07 0)
(0.7762133 -1.9763235e-07 0)
(0.77621311 -1.6665036e-07 0)
(0.77621295 -1.4097653e-07 0)
(0.7762128 -1.1560351e-07 0)
(0.77621271 -9.7373611e-08 0)
(0.77621257 -7.4371494e-08 0)
(0.31441322 -0.00017377178 0)
(0.31404099 -0.00051860271 0)
(0.31319956 -0.0005816439 0)
(0.312335 -0.00045483627 0)
(0.31162572 -0.00030290404 0)
(0.31107658 -0.00020253086 0)
(0.31063941 -0.00015159671 0)
(0.31027285 -0.00012501507 0)
(0.30995504 -0.00010606798 0)
(0.30967681 -8.9784107e-05 0)
(0.30943303 -7.6394749e-05 0)
(0.30921868 -6.6373788e-05 0)
(0.30902847 -5.9161144e-05 0)
(0.30885779 -5.372945e-05 0)
(0.30870318 -4.9254711e-05 0)
(0.30856222 -4.5315558e-05 0)
(0.30843319 -4.1768059e-05 0)
(0.30831474 -3.8570359e-05 0)
(0.30820571 -3.5687177e-05 0)
(0.30810514 -3.3073075e-05 0)
(0.30801218 -3.0684177e-05 0)
(0.30792613 -2.8488406e-05 0)
(0.30784638 -2.6464159e-05 0)
(0.30777239 -2.4596239e-05 0)
(0.30770369 -2.2871051e-05 0)
(0.30763986 -2.1276216e-05 0)
(0.30758052 -1.9799693e-05 0)
(0.30752533 -1.8431145e-05 0)
(0.30747397 -1.7160966e-05 0)
(0.30742618 -1.5981193e-05 0)
(0.30738168 -1.4884193e-05 0)
(0.30734026 -1.3863607e-05 0)
(0.30730168 -1.291316e-05 0)
(0.30726576 -1.2027736e-05 0)
(0.30723231 -1.1202175e-05 0)
(0.30720116 -1.0432338e-05 0)
(0.30717216 -9.7139181e-06 0)
(0.30714516 -9.0435443e-06 0)
(0.30712003 -8.4175927e-06 0)
(0.30709665 -7.8332725e-06 0)
(0.30707489 -7.2874791e-06 0)
(0.30705465 -6.7778993e-06 0)
(0.30703583 -6.3018654e-06 0)
(0.30701833 -5.85743e-06 0)
(0.30700207 -5.4422602e-06 0)
(0.30698697 -5.0547222e-06 0)
(0.30697294 -4.6927788e-06 0)
(0.30695992 -4.3550373e-06 0)
(0.30694784 -4.0396883e-06 0)
(0.30693663 -3.7455558e-06 0)
(0.30692624 -3.4710421e-06 0)
(0.30691662 -3.2151379e-06 0)
(0.3069077 -2.9764084e-06 0)
(0.30689945 -2.7540017e-06 0)
(0.30689182 -2.5466425e-06 0)
(0.30688476 -2.3535994e-06 0)
(0.30687824 -2.1737184e-06 0)
(0.30687222 -2.0063875e-06 0)
(0.30686666 -1.8505772e-06 0)
(0.30686153 -1.705765e-06 0)
(0.30685681 -1.5710141e-06 0)
(0.30685246 -1.4458944e-06 0)
(0.30684846 -1.3295679e-06 0)
(0.30684478 -1.221671e-06 0)
(0.3068414 -1.1214368e-06 0)
(0.30683829 -1.0285737e-06 0)
(0.30683545 -9.4239324e-07 0)
(0.30683284 -8.6265325e-07 0)
(0.30683046 -7.8871905e-07 0)
(0.30682828 -7.2040499e-07 0)
(0.30682629 -6.5713926e-07 0)
(0.30682447 -5.9877274e-07 0)
(0.30682281 -5.4477461e-07 0)
(0.30682131 -4.9504113e-07 0)
(0.30681994 -4.4909289e-07 0)
(0.3068187 -4.0685368e-07 0)
(0.30681758 -3.6787591e-07 0)
(0.30681656 -3.3212062e-07 0)
(0.30681565 -2.9918328e-07 0)
(0.30681482 -2.6904556e-07 0)
(0.30681408 -2.4132774e-07 0)
(0.30681341 -2.1604157e-07 0)
(0.30681282 -1.9284354e-07 0)
(0.30681229 -1.7175875e-07 0)
(0.30681181 -1.5246319e-07 0)
(0.30681139 -1.3500264e-07 0)
(0.30681102 -1.1908555e-07 0)
(0.30681069 -1.0475839e-07 0)
(0.30681041 -9.1752346e-08 0)
(0.30681015 -8.0109509e-08 0)
(0.30680993 -6.9600008e-08 0)
(0.30680974 -6.0228098e-08 0)
(0.30680958 -5.1810826e-08 0)
(0.30680943 -4.4324799e-08 0)
(0.30680931 -3.769061e-08 0)
(0.30680921 -3.1659706e-08 0)
(0.30680912 -2.6331392e-08 0)
(0.30680905 -2.1389641e-08 0)
(0.30680899 -1.6215711e-08 0)
(0.30680893 -1.3274506e-08 0)
)
;

boundaryField
{
    top
    {
        type            fixedValue;
        value           uniform (0 0 0);
    }
    inlet
    {
        type            pressureNormalInletOutletVelocity;
        phi             phi;
        rho             rho;