/*--------------------------------*- C++ -*----------------------------------*\
| =========                 |                                                 |
| \\      /  F ield         | OpenFOAM: The Open Source CFD Toolbox           |
|  \\    /   O peration     | Version:  v1812                                 |
|   \\  /    A nd           | Web:      www.OpenFOAM.com                      |
|    \\/     M anipulation  |                                                 |
\*---------------------------------------------------------------------------*/
FoamFile
{
    version     2.0;
    format      ascii;
    class       volVectorField;
    location    "12";
    object      U;
}
// * * * * * * * * * * * * * * * * * * * * * * * * * * * * * * * * * * * * * //

dimensions      [0 1 -1 0 0 0 0];


internalField   nonuniform List<vector> 
1000
(
(0.91890839 0.035821913 0)
(0.86271384 0.062195638 0)
(0.7870597 0.06251009 0)
(0.69536033 0.054550394 0)
(0.61089745 0.04453165 0)
(0.54411592 0.034015971 0)
(0.49343012 0.02418754 0)
(0.45479413 0.016144231 0)
(0.42544582 0.010265786 0)
(0.40347313 0.0063041455 0)
(0.38715766 0.0037976291 0)
(0.3749622 0.0023103376 0)
(0.36566193 0.0014930144 0)
(0.35836272 0.001085118 0)
(0.35244268 0.00090607242 0)
(0.34748201 0.00084105207 0)
(0.34320348 0.00082372449 0)
(0.33942726 0.00081931056 0)
(0.33603793 0.00081185187 0)
(0.33296114 0.00079580087 0)
(0.33014778 0.00077081107 0)
(0.32756384 0.00073870919 0)
(0.3251842 0.00070188926 0)
(0.32298902 0.00066256588 0)
(0.32096172 0.0006225 0)
(0.31908785 0.00058295795 0)
(0.31735449 0.00054477199 0)
(0.31574995 0.00050843433 0)
(0.3142636 0.00047419147 0)
(0.31288574 0.00044212419 0)
(0.31160755 0.00041220889 0)
(0.31042101 0.00038436105 0)
(0.30931883 0.00035846456 0)
(0.30829438 0.00033439019 0)
(0.30734165 0.00031200688 0)
(0.30645516 0.00029118809 0)
(0.30562991 0.00027181486 0)
(0.30486136 0.00025377733 0)
(0.30414535 0.00023697468 0)
(0.30347806 0.00022131485 0)
(0.302856 0.00020671385 0)
(0.30227596 0.0001930949 0)
(0.30173496 0.00018038783 0)
(0.30123029 0.00016852819 0)
(0.30075942 0.00015745679 0)
(0.30032002 0.00014711906 0)
(0.29990993 0.00013746458 0)
(0.29952715 0.00012844688 0)
(0.29916983 0.00012002285 0)
(0.29883623 0.00011215269 0)
(0.29852478 0.0001047995 0)
(0.29823396 9.7928932e-05 0)
(0.29796241 9.1509139e-05 0)
(0.29770883 8.5510291e-05 0)
(0.29747201 7.990462e-05 0)
(0.29725085 7.466617e-05 0)
(0.29704429 6.9770576e-05 0)
(0.29685138 6.5195292e-05 0)
(0.29667119 6.0919116e-05 0)
(0.2965029 5.6922523e-05 0)
(0.29634571 5.3187373e-05 0)
(0.29619889 4.969675e-05 0)
(0.29606176 4.6435028e-05 0)
(0.29593366 4.3387305e-05 0)
(0.29581401 4.0539625e-05 0)
(0.29570225 3.7878698e-05 0)
(0.29559784 3.5391865e-05 0)
(0.29550031 3.3067508e-05 0)
(0.29540921 3.0894789e-05 0)
(0.29532412 2.8863895e-05 0)
(0.29524463 2.696608e-05 0)
(0.29517038 2.5192929e-05 0)
(0.29510103 2.3536962e-05 0)
(0.29503625 2.1990379e-05 0)
(0.29497573 2.0546028e-05 0)
(0.2949192 1.9196493e-05 0)
(0.29486638 1.7935231e-05 0)
(0.29481704 1.6755545e-05 0)
(0.29477095 1.5652803e-05 0)
(0.29472791 1.4621067e-05 0)
(0.2946877 1.3658112e-05 0)
(0.29465014 1.2757811e-05 0)
(0.29461506 1.1919647e-05 0)
(0.2945823 1.1135579e-05 0)
(0.29455168 1.0406608e-05 0)
(0.29452308 9.7215171e-06 0)
(0.29449635 9.0853415e-06 0)
(0.2944714 8.4829131e-06 0)
(0.29444806 7.9273971e-06 0)
(0.29442631 7.3974354e-06 0)
(0.29440595 6.9167806e-06 0)
(0.29438698 6.4539251e-06 0)
(0.29436923 6.0434057e-06 0)
(0.29435265 5.6440415e-06 0)
(0.29433719 5.295394e-06 0)
(0.29432255 4.9694063e-06 0)
(0.29430925 4.6783197e-06 0)
(0.29429583 4.5120528e-06 0)
(0.29428517 4.3707503e-06 0)
(0.29426908 4.9811403e-06 0)
(1.0016583 0.05381943 0)
(1.0359761 0.10128444 0)
(1.0597199 0.11073663 0)
(1.0628947 0.10592201 0)
(1.0515569 0.096228726 0)
(1.0340529 0.08393406 0)
(1.0142795 0.070327063 0)
(0.99360703 0.056981335 0)
(0.97292577 0.045107482 0)
(0.9531074 0.035236753 0)
(0.93479538 0.027401652 0)
(0.91829012 0.021387228 0)
(0.90362379 0.016884498 0)
(0.89068067 0.013569707 0)
(0.87928174 0.011147747 0)
(0.86923242 0.0093736575 0)
(0.86034423 0.0080569275 0)
(0.85244667 0.0070571275 0)
(0.84539241 0.0062752389 0)
(0.83905793 0.0056438293 0)
(0.83334126 0.0051180917 0)
(0.82815884 0.0046686727 0)
(0.82344212 0.0042764174 0)
(0.81913467 0.0039287384 0)
(0.81518961 0.0036172028 0)
(0.81156765 0.0033359696 0)
(0.80823544 0.0030808032 0)
(0.8051644 0.0028484683 0)
(0.80232979 0.0026363689 0)
(0.79970999 0.0024423383 0)
(0.79728597 0.0022645188 0)
(0.79504086 0.00210129 0)
(0.79295963 0.0019512256 0)
(0.79102881 0.0018130633 0)
(0.78923627 0.0016856837 0)
(0.7875711 0.0015680926 0)
(0.78602338 0.0014594057 0)
(0.78458411 0.0013588357 0)
(0.78324511 0.0012656803 0)
(0.78199889 0.0011793117 0)
(0.7808386 0.0010991672 0)
(0.77975799 0.0010247413 0)
(0.77875128 0.00095557865 0)
(0.77781318 0.00089126792 0)
(0.77693881 0.00083143658 0)
(0.77612368 0.00077574632 0)
(0.77536362 0.00072388884 0)
(0.77465481 0.00067558265 0)
(0.77399367 0.0006305698 0)
(0.77337693 0.00058861358 0)
(0.77280153 0.0005494962 0)
(0.77226464 0.00051301696 0)
(0.77176363 0.00047899085 0)
(0.77129606 0.00044724703 0)
(0.77085967 0.00041762778 0)
(0.77045234 0.00038998741 0)
(0.77007211 0.00036419087 0)
(0.76971717 0.00034011311 0)
(0.7693858 0.00031763759 0)
(0.76907644 0.00029665597 0)
(0.7687876 0.00027706722 0)
(0.76851791 0.00025877714 0)
(0.76826609 0.00024169834 0)
(0.76803096 0.0002257495 0)
(0.76781139 0.00021085535 0)
(0.76760635 0.00019694598 0)
(0.76741488 0.00018395624 0)
(0.76723607 0.00017182535 0)
(0.76706908 0.00016049641 0)
(0.76691314 0.00014991591 0)
(0.7667675 0.00014003436 0)
(0.76663149 0.00013080445 0)
(0.76650446 0.00012218348 0)
(0.76638582 0.00011413005 0)
(0.76627501 0.00010660787 0)
(0.76617152 9.9580685e-05 0)
(0.76607485 9.3018093e-05 0)
(0.76598456 8.6887082e-05 0)
(0.76590023 8.1162973e-05 0)
(0.76582148 7.5813558e-05 0)
(0.76574792 7.0820807e-05 0)
(0.76567923 6.6151332e-05 0)
(0.76561504 6.1796318e-05 0)
(0.76555512 5.7718368e-05 0)
(0.7654991 5.3921579e-05 0)
(0.76544684 5.0357993e-05 0)
(0.76539794 4.7051296e-05 0)
(0.76535237 4.3932428e-05 0)
(0.76530969 4.1057136e-05 0)
(0.76526997 3.8319824e-05 0)
(0.76523273 3.5828279e-05 0)
(0.7651981 3.3416871e-05 0)
(0.76516565 3.1274793e-05 0)
(0.76513531 2.9143223e-05 0)
(0.76510727 2.7332544e-05 0)
(0.76508021 2.5454231e-05 0)
(0.76505688 2.3990782e-05 0)
(0.765031 2.2427581e-05 0)
(0.76501489 2.1461722e-05 0)
(0.7649842 2.076534e-05 0)
(1.0014244 0.026824854 0)
(1.0291272 0.062791352 0)
(1.0654292 0.077736552 0)
(1.098962 0.080597198 0)
(1.1253149 0.078285168 0)
(1.145053 0.073153897 0)
(1.1594858 0.066111277 0)
(1.1694287 0.058162065 0)
(1.1755354 0.050296758 0)
(1.1785738 0.043150713 0)
(1.1793571 0.03697283 0)
(1.1785949 0.031771635 0)
(1.1768304 0.02745184 0)
(1.1744518 0.023886765 0)
(1.1717287 0.020947615 0)
(1.1688444 0.018515775 0)
(1.1659195 0.01648808 0)
(1.1630317 0.0147795 0)
(1.1602295 0.013322986 0)
(1.1575415 0.012067136 0)
(1.1549828 0.010973005 0)
(1.1525601 0.010011066 0)
(1.1502747 0.0091587498 0)
(1.1481246 0.0083986048 0)
(1.1461059 0.0077169484 0)
(1.1442134 0.0071028841 0)
(1.1424414 0.0065475871 0)
(1.1407838 0.0060437914 0)
(1.1392344 0.0055854241 0)
(1.1377869 0.0051673452 0)
(1.1364353 0.00478516 0)
(1.1351738 0.0044350806 0)
(1.1339968 0.0041138211 0)
(1.1328987 0.0038185158 0)
(1.1318746 0.0035466536 0)
(1.1309195 0.0032960252 0)
(1.1300289 0.0030646793 0)
(1.1291985 0.0028508861 0)
(1.1284242 0.0026531066 0)
(1.1277022 0.0024699671 0)
(1.1270291 0.0023002369 0)
(1.1264014 0.0021428108 0)
(1.1258161 0.0019966932 0)
(1.1252702 0.0018609852 0)
(1.1247612 0.0017348735 0)
(1.1242865 0.0016176203 0)
(1.1238437 0.0015085543 0)
(1.1234307 0.0014070633 0)
(1.1230455 0.0013125871 0)
(1.1226861 0.0012246118 0)
(1.1223509 0.001142665 0)
(1.1220381 0.0010663115 0)
(1.1217462 0.00099515087 0)
(1.1214739 0.00092881395 0)
(1.1212198 0.00086696116 0)
(1.1209827 0.00080927976 0)
(1.1207614 0.00075548151 0)
(1.1205548 0.0007052999 0)
(1.1203621 0.00065848743 0)
(1.1201821 0.00061481359 0)
(1.1200142 0.00057406301 0)
(1.1198574 0.00053603435 0)
(1.1197111 0.00050054022 0)
(1.1195745 0.00046740674 0)
(1.1194469 0.00043647407 0)
(1.1193278 0.00040759496 0)
(1.1192167 0.00038063425 0)
(1.1191129 0.00035546604 0)
(1.119016 0.00033197275 0)
(1.1189255 0.00031004257 0)
(1.118841 0.00028957033 0)
(1.1187621 0.00027045469 0)
(1.1186884 0.00025260278 0)
(1.1186197 0.00023592589 0)
(1.1185554 0.00022034755 0)
(1.1184954 0.00020579332 0)
(1.1184394 0.0001922033 0)
(1.1183871 0.00017951184 0)
(1.1183382 0.0001676702 0)
(1.1182926 0.00015661152 0)
(1.11825 0.00014629611 0)
(1.1182103 0.00013664979 0)
(1.1181731 0.0001276514 0)
(1.1181384 0.00011921786 0)
(1.1181059 0.00011136332 0)
(1.1180757 0.00010398338 0)
(1.1180473 9.7145388e-05 0)
(1.1180211 9.0689686e-05 0)
(1.1179962 8.4766223e-05 0)
(1.1179734 7.9101858e-05 0)
(1.1179517 7.3996883e-05 0)
(1.1179319 6.8973147e-05 0)
(1.1179128 6.4618168e-05 0)
(1.1178956 6.0081721e-05 0)
(1.1178791 5.6485906e-05 0)
(1.1178636 5.2287517e-05 0)
(1.1178501 4.9584788e-05 0)
(1.1178351 4.5580176e-05 0)
(1.1178263 4.4086029e-05 0)
(1.1178086 4.0236479e-05 0)
(1.0007347 0.011814721 0)
(1.0178472 0.030860926 0)
(1.0462163 0.04143444 0)
(1.0799018 0.045193568 0)
(1.1132664 0.045502348 0)
(1.143782 0.044080305 0)
(1.1708941 0.041439981 0)
(1.1945687 0.03797368 0)
(1.2148582 0.034195734 0)
(1.2319652 0.030536893 0)
(1.2462683 0.027222051 0)
(1.2582339 0.024313924 0)
(1.2683135 0.021797888 0)
(1.2768875 0.019633656 0)
(1.2842554 0.017773819 0)
(1.2906479 0.016169644 0)
(1.296243 0.014775584 0)
(1.3011791 0.013552295 0)
(1.3055645 0.012467865 0)
(1.3094838 0.011497471 0)
(1.3130042 0.010622169 0)
(1.3161792 0.0098275201 0)
(1.3190526 0.0091024152 0)
(1.3216607 0.0084381768 0)
(1.3240343 0.0078278999 0)
(1.3261995 0.0072659678 0)
(1.3281786 0.0067477015 0)
(1.3299913 0.0062691112 0)
(1.3316544 0.0058267254 0)
(1.3331829 0.0054174754 0)
(1.3345896 0.0050386177 0)
(1.3358862 0.0046876808 0)
(1.3370827 0.004362426 0)
(1.3381882 0.0040608184 0)
(1.3392108 0.0037810041 0)
(1.3401576 0.003521291 0)
(1.3410349 0.0032801318 0)
(1.3418486 0.0030561104 0)
(1.3426038 0.0028479287 0)
(1.3433051 0.0026543963 0)
(1.3439569 0.0024744192 0)
(1.3445629 0.0023069931 0)
(1.3451267 0.0021511942 0)
(1.3456513 0.0020061739 0)
(1.3461398 0.0018711512 0)
(1.3465947 0.0017454077 0)
(1.3470185 0.0016282812 0)
(1.3474135 0.0015191604 0)
(1.3477816 0.0014174798 0)
(1.3481249 0.0013227156 0)
(1.3484449 0.0012343816 0)
(1.3487435 0.0011520269 0)
(1.349022 0.0010752338 0)
(1.3492818 0.0010036155 0)
(1.3495242 0.00093681458 0)
(1.3497505 0.00087450098 0)
(1.3499616 0.00081636966 0)
(1.3501587 0.00076213769 0)
(1.3503427 0.00071154132 0)
(1.3505145 0.00066433419 0)
(1.3506748 0.00062028447 0)
(1.3508245 0.00057917541 0)
(1.3509643 0.00054080442 0)
(1.3510948 0.00050498378 0)
(1.3512167 0.0004715411 0)
(1.3513305 0.00044031814 0)
(1.3514368 0.00041117022 0)
(1.3515361 0.0003839625 0)
(1.3516288 0.00035856872 0)
(1.3517153 0.00033486813 0)
(1.3517962 0.00031274577 0)
(1.3518717 0.00029209051 0)
(1.3519422 0.00027280054 0)
(1.3520081 0.00025477864 0)
(1.3520696 0.00023794249 0)
(1.3521271 0.00022221193 0)
(1.3521807 0.00020752503 0)
(1.3522309 0.00019381102 0)
(1.3522777 0.00018102023 0)
(1.3523215 0.00016907743 0)
(1.3523623 0.00015794221 0)
(1.3524005 0.00014752636 0)
(1.352436 0.00013781311 0)
(1.3524694 0.00012869934 0)
(1.3525004 0.00012021811 0)
(1.3525296 0.00011223373 0)
(1.3525565 0.00010485747 0)
(1.3525822 9.7868331e-05 0)
(1.3526054 9.1500568e-05 0)
(1.3526282 8.5357922e-05 0)
(1.352648 7.9901088e-05 0)
(1.3526683 7.4418316e-05 0)
(1.3526849 6.9803469e-05 0)
(1.3527036 6.4784658e-05 0)
(1.3527169 6.104003e-05 0)
(1.3527347 5.6301643e-05 0)
(1.3527445 5.3585117e-05 0)
(1.3527626 4.8928679e-05 0)
(1.3527681 4.7493436e-05 0)
(1.3527884 4.2670726e-05 0)
(1.0005903 0.0034629154 0)
(1.0136865 0.0093660186 0)
(1.0370283 0.013046804 0)
(1.0674202 0.014563259 0)
(1.1000315 0.014854523 0)
(1.1316428 0.01456499 0)
(1.1610745 0.013888339 0)
(1.1880674 0.012919249 0)
(1.2125205 0.011806511 0)
(1.2343939 0.010696432 0)
(1.2538077 0.0096727453 0)
(1.2710339 0.0087628222 0)
(1.286401 0.0079659704 0)
(1.3002112 0.0072722088 0)
(1.3127102 0.0066688019 0)
(1.3240904 0.0061419198 0)
(1.3345036 0.0056780697 0)
(1.3440716 0.0052653222 0)
(1.3528927 0.0048939395 0)
(1.3610463 0.004556402 0)
(1.3685975 0.0042470758 0)
(1.3756004 0.0039617797 0)
(1.3821012 0.0036973981 0)
(1.3881402 0.0034515797 0)
(1.3937533 0.0032225133 0)
(1.3989728 0.0030087639 0)
(1.403828 0.0028091532 0)
(1.4083456 0.0026226772 0)
(1.4125503 0.0024484509 0)
(1.4164646 0.0022856748 0)
(1.4201094 0.002133613 0)
(1.423504 0.0019915813 0)
(1.426666 0.0018589394 0)
(1.4296121 0.001735086 0)
(1.4323573 0.0016194558 0)
(1.4349159 0.0015115166 0)
(1.4373007 0.0014107677 0)
(1.4395241 0.0013167382 0)
(1.441597 0.0012289852 0)
(1.4435301 0.0011470929 0)
(1.4453328 0.0010706715 0)
(1.4470143 0.00099935609 0)
(1.4485827 0.00093280571 0)
(1.4500459 0.00087070239 0)
(1.451411 0.00081274969 0)
(1.4526846 0.00075867088 0)
(1.4538731 0.00070820785 0)
(1.4549822 0.00066111892 0)
(1.4560172 0.00061717807 0)
(1.4569831 0.00057617306 0)
(1.4578847 0.00053790567 0)
(1.4587262 0.00050219055 0)
(1.4595117 0.0004688553 0)
(1.460245 0.00043774008 0)
(1.4609295 0.00040869677 0)
(1.4615685 0.00038158797 0)
(1.4621651 0.00035628606 0)
(1.4627221 0.0003326714 0)
(1.4632422 0.00031063187 0)
(1.4637278 0.00029006091 0)
(1.4641811 0.00027085855 0)
(1.4646045 0.00025293066 0)
(1.4649998 0.00023618999 0)
(1.4653689 0.00022055658 0)
(1.4657136 0.00020595754 0)
(1.4660355 0.00019232614 0)
(1.4663361 0.00017960105 0)
(1.4666168 0.00016772415 0)
(1.466879 0.00015664054 0)
(1.4671238 0.00014629561 0)
(1.4673524 0.00013663774 0)
(1.4675659 0.00012761696 0)
(1.4677653 0.00011918847 0)
(1.4679516 0.00011131076 0)
(1.4681255 0.00010395022 0)
(1.468288 9.7073823e-05 0)
(1.4684398 9.0656765e-05 0)
(1.4685815 8.4667899e-05 0)
(1.4687138 7.9085722e-05 0)
(1.4688375 7.3873549e-05 0)
(1.4689529 6.9013192e-05 0)
(1.4690608 6.4462055e-05 0)
(1.4691614 6.0215828e-05 0)
(1.4692557 5.6225766e-05 0)
(1.4693433 5.2515858e-05 0)
(1.4694257 4.9019919e-05 0)
(1.4695019 4.5801357e-05 0)
(1.4695742 4.2746417e-05 0)
(1.4696402 3.9978754e-05 0)
(1.4697038 3.7291423e-05 0)
(1.4697606 3.4923695e-05 0)
(1.4698171 3.2509999e-05 0)
(1.4698652 3.0509668e-05 0)
(1.4699165 2.8282547e-05 0)
(1.4699559 2.6671337e-05 0)
(1.4700042 2.4559542e-05 0)
(1.4700338 2.341052e-05 0)
(1.4700826 2.1329687e-05 0)
(1.4700996 2.0730311e-05 0)
(1.4701548 1.8543595e-05 0)
(1.0005903 -0.0034629164 0)
(1.0136865 -0.0093660212 0)
(1.0370283 -0.013046808 0)
(1.0674202 -0.014563262 0)
(1.1000315 -0.014854524 0)
(1.1316428 -0.014564988 0)
(1.1610745 -0.013888333 0)
(1.1880674 -0.01291924 0)
(1.2125204 -0.011806503 0)
(1.2343939 -0.010696427 0)
(1.2538077 -0.0096727457 0)
(1.2710339 -0.0087628284 0)
(1.286401 -0.0079659805 0)
(1.3002112 -0.0072722199 0)
(1.3127102 -0.0066688105 0)
(1.3240904 -0.0061419233 0)
(1.3345036 -0.0056780671 0)
(1.3440716 -0.0052653145 0)
(1.3528927 -0.0048939295 0)
(1.3610463 -0.0045563929 0)
(1.3685975 -0.0042470705 0)
(1.3756004 -0.0039617798 0)
(1.3821012 -0.0036974034 0)
(1.3881402 -0.0034515881 0)
(1.3937533 -0.0032225222 0)
(1.3989728 -0.0030087703 0)
(1.403828 -0.0028091551 0)
(1.4083456 -0.0026226739 0)
(1.4125503 -0.0024484437 0)
(1.4164646 -0.002285666 0)
(1.4201094 -0.0021336056 0)
(1.423504 -0.0019915776 0)
(1.426666 -0.0018589406 0)
(1.4296121 -0.0017350916 0)
(1.4323573 -0.0016194637 0)
(1.4349159 -0.0015115242 0)
(1.4373007 -0.0014107723 0)
(1.4395241 -0.001316738 0)
(1.441597 -0.00122898 0)
(1.4435301 -0.0011470845 0)
(1.4453328 -0.0010706625 0)
(1.4470143 -0.00099934965 0)
(1.4485827 -0.00093280405 0)
(1.4500459 -0.00087070609 0)
(1.451411 -0.00081275721 0)
(1.4526846 -0.00075867944 0)
(1.4538731 -0.00070821399 0)
(1.4549822 -0.00066112001 0)
(1.4560172 -0.00061717284 0)
(1.4569831 -0.00057616299 0)
(1.4578847 -0.00053789363 0)
(1.4587262 -0.0005021807 0)
(1.4595117 -0.00046885103 0)
(1.460245 -0.00043774285 0)
(1.4609295 -0.00040870538 0)
(1.4615685 -0.00038159893 0)
(1.4621651 -0.00035629464 0)
(1.4627222 -0.00033267348 0)
(1.4632422 -0.00031062499 0)
(1.4637278 -0.00029004655 0)
(1.4641811 -0.00027084058 0)
(1.4646045 -0.00025291518 0)
(1.4649998 -0.00023618245 0)
(1.4653689 -0.00022055974 0)
(1.4657136 -0.00020597017 0)
(1.4660355 -0.00019234331 0)
(1.4663361 -0.00017961592 0)
(1.4666168 -0.00016773029 0)
(1.466879 -0.00015663379 0)
(1.4671238 -0.00014627719 0)
(1.4673524 -0.00013661302 0)
(1.4675659 -0.00012759413 0)
(1.4677653 -0.00011917542 0)
(1.4679516 -0.00011131185 0)
(1.4681256 -0.00010396446 0)
(1.4682881 -9.7095029e-05 0)
(1.4684398 -9.067608e-05 0)
(1.4685815 -8.4677133e-05 0)
(1.4687138 -7.9080295e-05 0)
(1.4688375 -7.3855458e-05 0)
(1.4689529 -6.8989403e-05 0)
(1.4690608 -6.4442241e-05 0)
(1.4691614 -6.0208393e-05 0)
(1.4692557 -5.6234963e-05 0)
(1.4693433 -5.2538855e-05 0)
(1.4694257 -4.9048981e-05 0)
(1.469502 -4.5825876e-05 0)
(1.4695742 -4.275802e-05 0)
(1.4696402 -3.9974686e-05 0)
(1.4697038 -3.7275971e-05 0)
(1.4697606 -3.4906372e-05 0)
(1.4698171 -3.2501419e-05 0)
(1.4698652 -3.0517504e-05 0)
(1.4699165 -2.8308475e-05 0)
(1.4699559 -2.6709816e-05 0)
(1.4700042 -2.4601398e-05 0)
(1.4700338 -2.3447575e-05 0)
(1.4700826 -2.1350712e-05 0)
(1.4700996 -2.0740459e-05 0)
(1.4701548 -1.8550565e-05 0)
(1.0007347 -0.011814722 0)
(1.0178472 -0.030860928 0)
(1.0462163 -0.041434443 0)
(1.0799018 -0.045193569 0)
(1.1132664 -0.045502347 0)
(1.143782 -0.044080302 0)
(1.1708941 -0.041439977 0)
(1.1945687 -0.037973675 0)
(1.2148582 -0.034195731 0)
(1.2319652 -0.030536893 0)
(1.2462683 -0.027222054 0)
(1.2582339 -0.024313929 0)
(1.2683135 -0.021797893 0)
(1.2768875 -0.019633659 0)
(1.2842554 -0.017773821 0)
(1.2906479 -0.016169643 0)
(1.296243 -0.014775581 0)
(1.3011791 -0.013552291 0)
(1.3055645 -0.012467862 0)
(1.3094838 -0.01149747 0)
(1.3130042 -0.010622169 0)
(1.3161792 -0.0098275218 0)
(1.3190526 -0.0091024178 0)
(1.3216607 -0.0084381795 0)
(1.3240343 -0.0078279017 0)
(1.3261995 -0.0072659681 0)
(1.3281786 -0.0067477003 0)
(1.3299913 -0.006269109 0)
(1.3316544 -0.0058267229 0)
(1.3331829 -0.0054174734 0)
(1.3345896 -0.005038617 0)
(1.3358862 -0.0046876814 0)
(1.3370827 -0.0043624276 0)
(1.3381883 -0.0040608205 0)
(1.3392108 -0.0037810059 0)
(1.3401576 -0.0035212916 0)
(1.3410349 -0.003280131 0)
(1.3418486 -0.0030561083 0)
(1.3426038 -0.0028479262 0)
(1.3433051 -0.0026543939 0)
(1.3439569 -0.002474418 0)
(1.3445629 -0.0023069932 0)
(1.3451267 -0.0021511956 0)
(1.3456513 -0.0020061757 0)
(1.3461398 -0.0018711526 0)
(1.3465947 -0.0017454079 0)
(1.3470185 -0.0016282798 0)
(1.3474135 -0.0015191575 0)
(1.3477816 -0.0014174762 0)
(1.3481249 -0.0013227122 0)
(1.3484449 -0.0012343794 0)
(1.3487435 -0.0011520266 0)
(1.349022 -0.0010752351 0)
(1.3492818 -0.0010036175 0)
(1.3495242 -0.00093681607 0)
(1.3497505 -0.00087450081 0)
(1.3499616 -0.00081636715 0)
(1.3501587 -0.00076213287 0)
(1.3503427 -0.00071153546 0)
(1.3505145 -0.00066432849 0)
(1.3506748 -0.00062028077 0)
(1.3508245 -0.00057917443 0)
(1.3509643 -0.00054080604 0)
(1.3510948 -0.00050498693 0)
(1.3512167 -0.00047154412 0)
(1.3513305 -0.00044031938 0)
(1.3514368 -0.00041116843 0)
(1.3515361 -0.00038395744 0)
(1.3516288 -0.00035856179 0)
(1.3517153 -0.00033486082 0)
(1.3517962 -0.00031274018 0)
(1.3518717 -0.00029208794 0)
(1.3519422 -0.00027280109 0)
(1.3520081 -0.00025478131 0)
(1.3520696 -0.00023794554 0)
(1.3521271 -0.00022221361 0)
(1.3521808 -0.00020752408 0)
(1.3522309 -0.00019380741 0)
(1.3522777 -0.00018101546 0)
(1.3523215 -0.00016907308 0)
(1.3523623 -0.00015794029 0)
(1.3524005 -0.00014752787 0)
(1.3524361 -0.00013781808 0)
(1.3524695 -0.00012870622 0)
(1.3525004 -0.00012022524 0)
(1.3525297 -0.00011223908 0)
(1.3525565 -0.00010486047 0)
(1.3525822 -9.7869354e-05 0)
(1.3526054 -9.1501499e-05 0)
(1.3526281 -8.5360518e-05 0)
(1.352648 -7.9907392e-05 0)
(1.3526683 -7.4429002e-05 0)
(1.3526849 -6.9818607e-05 0)
(1.3527036 -6.4802376e-05 0)
(1.352717 -6.1059046e-05 0)
(1.3527347 -5.6319068e-05 0)
(1.3527445 -5.3601556e-05 0)
(1.3527626 -4.8942089e-05 0)
(1.3527681 -4.7508254e-05 0)
(1.3527884 -4.2684738e-05 0)
(1.0014244 -0.026824855 0)
(1.0291272 -0.062791353 0)
(1.0654292 -0.077736552 0)
(1.098962 -0.080597197 0)
(1.1253149 -0.078285166 0)
(1.145053 -0.073153895 0)
(1.1594858 -0.066111277 0)
(1.1694287 -0.058162067 0)
(1.1755354 -0.050296762 0)
(1.1785738 -0.043150717 0)
(1.1793571 -0.036972832 0)
(1.178595 -0.031771635 0)
(1.1768304 -0.027451837 0)
(1.1744518 -0.023886761 0)
(1.1717287 -0.020947611 0)
(1.1688444 -0.018515773 0)
(1.1659195 -0.016488081 0)
(1.1630317 -0.014779504 0)
(1.1602295 -0.01332299 0)
(1.1575415 -0.01206714 0)
(1.1549828 -0.010973008 0)
(1.1525601 -0.010011066 0)
(1.1502747 -0.0091587472 0)
(1.1481246 -0.0083986002 0)
(1.1461059 -0.0077169435 0)
(1.1442134 -0.0071028804 0)
(1.1424414 -0.0065475858 0)
(1.1407838 -0.0060437931 0)
(1.1392344 -0.0055854282 0)
(1.1377869 -0.0051673503 0)
(1.1364353 -0.0047851643 0)
(1.1351738 -0.0044350827 0)
(1.1339968 -0.0041138202 0)
(1.1328987 -0.0038185121 0)
(1.1318746 -0.0035466482 0)
(1.1309195 -0.0032960198 0)
(1.1300289 -0.0030646758 0)
(1.1291985 -0.0028508857 0)
(1.1284242 -0.0026531096 0)
(1.1277022 -0.0024699724 0)
(1.1270291 -0.0023002427 0)
(1.1264014 -0.0021428149 0)
(1.1258161 -0.0019966938 0)
(1.1252702 -0.0018609819 0)
(1.1247612 -0.0017348672 0)
(1.1242865 -0.0016176129 0)
(1.1238437 -0.0015085483 0)
(1.1234307 -0.0014070609 0)
(1.1230455 -0.0013125892 0)
(1.1226861 -0.0012246178 0)
(1.1223509 -0.0011426725 0)
(1.1220381 -0.0010663176 0)
(1.1217462 -0.00099515284 0)
(1.1214739 -0.00092881042 0)
(1.1212198 -0.00086695269 0)
(1.1209827 -0.00080926893 0)
(1.1207614 -0.00075547184 0)
(1.1205548 -0.00070529483 0)
(1.1203621 -0.00065848901 0)
(1.1201821 -0.00061482129 0)
(1.1200142 -0.0005740739 0)
(1.1198574 -0.00053604388 0)
(1.1197111 -0.0005005442 0)
(1.1195745 -0.00046740291 0)
(1.1194469 -0.00043646297 0)
(1.1193278 -0.00040758013 0)
(1.1192167 -0.00038062063 0)
(1.1191129 -0.00035545853 0)
(1.119016 -0.00033197436 0)
(1.1189255 -0.00031005273 0)
(1.118841 -0.00028958503 0)
(1.1187621 -0.00027046777 0)
(1.1186885 -0.00025260861 0)
(1.1186197 -0.0002359215 0)
(1.1185554 -0.00022033388 0)
(1.1184955 -0.00020577535 0)
(1.1184394 -0.00019218784 0)
(1.1183871 -0.00017950515 0)
(1.1183383 -0.00016767532 0)
(1.1182927 -0.00015662657 0)
(1.11825 -0.00014631548 0)
(1.1182103 -0.00013666599 0)
(1.1181731 -0.00012765822 0)
(1.1181384 -0.00011921284 0)
(1.1181059 -0.00011134887 0)
(1.1180757 -0.00010396622 0)
(1.1180473 -9.7133686e-05 0)
(1.1180211 -9.0689416e-05 0)
(1.1179962 -8.4779138e-05 0)
(1.1179734 -7.91244e-05 0)
(1.1179517 -7.402195e-05 0)
(1.1179319 -6.8993158e-05 0)
(1.1179128 -6.4628099e-05 0)
(1.1178955 -6.0081009e-05 0)
(1.117879 -5.6478713e-05 0)
(1.1178636 -5.2280729e-05 0)
(1.1178501 -4.9584056e-05 0)
(1.117835 -4.5589462e-05 0)
(1.1178263 -4.4105636e-05 0)
(1.1178086 -4.0256264e-05 0)
(1.0016583 -0.05381943 0)
(1.0359761 -0.10128444 0)
(1.0597199 -0.11073663 0)
(1.0628947 -0.10592201 0)
(1.0515569 -0.096228724 0)
(1.0340529 -0.08393406 0)
(1.0142795 -0.070327067 0)
(0.99360703 -0.056981341 0)
(0.97292577 -0.045107487 0)
(0.95310739 -0.035236755 0)
(0.93479538 -0.02740165 0)
(0.91829011 -0.021387223 0)
(0.90362379 -0.016884491 0)
(0.89068067 -0.013569701 0)
(0.87928175 -0.011147744 0)
(0.86923242 -0.0093736582 0)
(0.86034423 -0.0080569317 0)
(0.85244667 -0.0070571338 0)
(0.84539241 -0.0062752451 0)
(0.83905792 -0.0056438334 0)
(0.83334126 -0.0051180923 0)
(0.82815883 -0.0046686696 0)
(0.82344212 -0.0042764116 0)
(0.81913467 -0.003928732 0)
(0.81518962 -0.0036171979 0)
(0.81156765 -0.0033359678 0)
(0.80823544 -0.0030808051 0)
(0.8051644 -0.0028484732 0)
(0.80232979 -0.0026363752 0)
(0.79970999 -0.0024423439 0)
(0.79728597 -0.0022645218 0)
(0.79504086 -0.0021012894 0)
(0.79295963 -0.0019512215 0)
(0.7910288 -0.001813057 0)
(0.78923628 -0.0016856774 0)
(0.7875711 -0.0015680884 0)
(0.78602338 -0.0014594051 0)
(0.78458412 -0.001358839 0)
(0.78324511 -0.0012656865 0)
(0.78199889 -0.0011793186 0)
(0.7808386 -0.0010991722 0)
(0.77975798 -0.0010247426 0)
(0.77875127 -0.00095557552 0)
(0.77781318 -0.00089126126 0)
(0.77693881 -0.00083142866 0)
(0.77612368 -0.00077573986 0)
(0.77536363 -0.0007238863 0)
(0.77465481 -0.00067558509 0)
(0.77399368 -0.00063057656 0)
(0.77337693 -0.00058862232 0)
(0.77280153 -0.00054950359 0)
(0.77226464 -0.00051302003 0)
(0.77176363 -0.00047898796 0)
(0.77129606 -0.00044723873 0)
(0.77085967 -0.00041761678 0)
(0.77045235 -0.00038997753 0)
(0.77007213 -0.00036418596 0)
(0.76971718 -0.00034011526 0)
(0.76938581 -0.00031764642 0)
(0.76907644 -0.00029666843 0)
(0.7687876 -0.00027707853 0)
(0.76851791 -0.00025878275 0)
(0.76826609 -0.00024169549 0)
(0.76803096 -0.00022573858 0)
(0.7678114 -0.00021083995 0)
(0.76760637 -0.00019693146 0)
(0.7674149 -0.00018394818 0)
(0.7672361 -0.00017182699 0)
(0.76706911 -0.00016050762 0)
(0.76691316 -0.0001499328 0)
(0.76676752 -0.00014005042 0)
(0.7666315 -0.00013081339 0)
(0.76650446 -0.00012218132 0)
(0.76638583 -0.00011411716 0)
(0.76627502 -0.00010658898 0)
(0.76617154 -9.9562991e-05 0)
(0.76607488 -9.3008872e-05 0)
(0.7659846 -8.6890263e-05 0)
(0.76590026 -8.1177628e-05 0)
(0.76582151 -7.5834188e-05 0)
(0.76574793 -7.083917e-05 0)
(0.76567923 -6.6160288e-05 0)
(0.76561504 -6.179226e-05 0)
(0.76555512 -5.7703011e-05 0)
(0.76549911 -5.3901459e-05 0)
(0.76544685 -5.0341595e-05 0)
(0.76539797 -4.7045845e-05 0)
(0.76535239 -4.3940864e-05 0)
(0.76530971 -4.107659e-05 0)
(0.76526998 -3.8343449e-05 0)
(0.76523272 -3.584728e-05 0)
(0.76519808 -3.3425101e-05 0)
(0.76516562 -3.1270253e-05 0)
(0.76513529 -2.912954e-05 0)
(0.76510725 -2.7316746e-05 0)
(0.7650802 -2.5443718e-05 0)
(0.76505687 -2.3990157e-05 0)
(0.76503098 -2.2437942e-05 0)
(0.76501486 -2.1479887e-05 0)
(0.76498415 -2.0781659e-05 0)
(0.91890839 -0.035821913 0)
(0.86271384 -0.062195638 0)
(0.7870597 -0.062510089 0)
(0.69536034 -0.054550393 0)
(0.61089745 -0.04453165 0)
(0.54411592 -0.034015973 0)
(0.49343012 -0.024187543 0)
(0.45479413 -0.016144233 0)
(0.42544582 -0.010265788 0)
(0.40347313 -0.0063041448 0)
(0.38715766 -0.0037976269 0)
(0.3749622 -0.0023103345 0)
(0.36566193 -0.0014930116 0)
(0.35836273 -0.0010851164 0)
(0.35244268 -0.00090607255 0)
(0.34748201 -0.0008410538 0)
(0.34320348 -0.00082372719 0)
(0.33942726 -0.00081931332 0)
(0.33603792 -0.00081185375 0)
(0.33296113 -0.00079580129 0)
(0.33014778 -0.00077080988 0)
(0.32756384 -0.00073870687 0)
(0.3251842 -0.00070188659 0)
(0.32298902 -0.00066256376 0)
(0.32096172 -0.00062249912 0)
(0.31908785 -0.00058295857 0)
(0.31735449 -0.00054477389 0)
(0.31574995 -0.00050843685 0)
(0.3142636 -0.00047419376 0)
(0.31288574 -0.0004421255 0)
(0.31160755 -0.00041220875 0)
(0.31042101 -0.00038435953 0)
(0.30931883 -0.00035846214 0)
(0.30829438 -0.00033438768 0)
(0.30734165 -0.00031200516 0)
(0.30645516 -0.00029118775 0)
(0.30562991 -0.00027181609 0)
(0.30486136 -0.00025377971 0)
(0.30414535 -0.00023697739 0)
(0.30347806 -0.00022131692 0)
(0.302856 -0.00020671447 0)
(0.30227595 -0.00019309382 0)
(0.30173496 -0.00018038535 0)
(0.30123029 -0.00016852518 0)
(0.30075942 -0.00015745433 0)
(0.30032002 -0.00014711804 0)
(0.29990993 -0.0001374655 0)
(0.29952715 -0.00012844944 0)
(0.29916983 -0.00012002621 0)
(0.29883623 -0.00011215563 0)
(0.29852477 -0.00010480081 0)
(0.29823396 -9.7928024e-05 0)
(0.29796241 -9.1506144e-05 0)
(0.29770883 -8.550622e-05 0)
(0.29747202 -7.9900964e-05 0)
(0.29725085 -7.4664311e-05 0)
(0.2970443 -6.9771424e-05 0)
(0.29685138 -6.519863e-05 0)
(0.2966712 -6.092386e-05 0)
(0.2965029 -5.6926929e-05 0)
(0.29634571 -5.3189666e-05 0)
(0.29619889 -4.9695965e-05 0)
(0.29606176 -4.6431195e-05 0)
(0.29593367 -4.3381729e-05 0)
(0.29581402 -4.0534319e-05 0)
(0.29570225 -3.7875612e-05 0)
(0.29559785 -3.5392369e-05 0)
(0.29550032 -3.3071514e-05 0)
(0.29540922 -3.0900978e-05 0)
(0.29532412 -2.887003e-05 0)
(0.29524463 -2.6969724e-05 0)
(0.29517038 -2.5192655e-05 0)
(0.29510103 -2.353267e-05 0)
(0.29503625 -2.1983637e-05 0)
(0.29497574 -2.0539518e-05 0)
(0.29491921 -1.9192723e-05 0)
(0.2948664 -1.7935949e-05 0)
(0.29481706 -1.6760495e-05 0)
(0.29477097 -1.5660112e-05 0)
(0.29472791 -1.4627901e-05 0)
(0.2946877 -1.3661649e-05 0)
(0.29465014 -1.2756728e-05 0)
(0.29461506 -1.1914326e-05 0)
(0.2945823 -1.1128142e-05 0)
(0.29455168 -1.0400172e-05 0)
(0.29452309 -9.718609e-06 0)
(0.29449636 -9.0873528e-06 0)
(0.29447141 -8.4891256e-06 0)
(0.29444807 -7.9354563e-06 0)
(0.2944263 -7.4043516e-06 0)
(0.29440594 -6.9199541e-06 0)
(0.29438697 -6.4524119e-06 0)
(0.29436921 -6.0382203e-06 0)
(0.29435263 -5.6373572e-06 0)
(0.29433718 -5.2903886e-06 0)
(0.29432255 -4.9674068e-06 0)
(0.29430925 -4.6806018e-06 0)
(0.29429582 -4.5175173e-06 0)
(0.29428515 -4.3774684e-06 0)
(0.29426905 -4.9865336e-06 0)
)
;

boundaryField
{
    top
    {
        type            fixedValue;
        value           uniform (0 0 0);
    }
    inlet
    {
        type            fixedValue;
        value           uniform (1 0 0);
    }
    outlet
    {
        type            zeroGradient;
    }
    bottom
    {
        type            fixedValue;
        value           uniform (0 0 0);
    }
    back
    {
        type            empty;
    }
    front
    {
        type            empty;
    }
}


// ************************************************************************* //
