# Region type : patch outlet
# Faces         : 10
# Area          : 1.00000000e-01
# Scale factor  : 1.00000000e+00
# Time          	max(U)	max(p)
0.05            	(7.38495131e-03 1.27250138e-06 0.00000000e+00)	0.00000000e+00
0.1             	(1.50862057e-02 6.80726458e-07 0.00000000e+00)	0.00000000e+00
0.15            	(2.27506520e-02 9.87607435e-07 0.00000000e+00)	0.00000000e+00
0.2             	(3.04144852e-02 1.14607747e-06 0.00000000e+00)	0.00000000e+00
0.25            	(3.80773339e-02 1.25509636e-06 0.00000000e+00)	0.00000000e+00
0.3             	(4.57403170e-02 1.31946534e-06 0.00000000e+00)	0.00000000e+00
0.35            	(5.34032319e-02 1.34802621e-06 0.00000000e+00)	0.00000000e+00
0.4             	(6.10660583e-02 1.34943102e-06 0.00000000e+00)	0.00000000e+00
0.45            	(6.87284617e-02 1.33010586e-06 0.00000000e+00)	0.00000000e+00
0.5             	(7.63902082e-02 1.29470940e-06 0.00000000e+00)	0.00000000e+00
0.55            	(8.40509900e-02 1.24751270e-06 0.00000000e+00)	0.00000000e+00
0.6             	(9.17104239e-02 1.19191985e-06 0.00000000e+00)	0.00000000e+00
0.65            	(9.93680779e-02 1.13052095e-06 0.00000000e+00)	0.00000000e+00
0.7             	(1.07023488e-01 1.06532144e-06 0.00000000e+00)	0.00000000e+00
0.75            	(1.14676196e-01 9.97905979e-07 0.00000000e+00)	0.00000000e+00
0.8             	(1.22325723e-01 9.29515793e-07 0.00000000e+00)	0.00000000e+00
0.85            	(1.29971565e-01 8.61133292e-07 0.00000000e+00)	0.00000000e+00
0.9             	(1.37613077e-01 7.93643465e-07 0.00000000e+00)	0.00000000e+00
0.95            	(1.45249904e-01 7.27292896e-07 0.00000000e+00)	0.00000000e+00
1               	(1.52881342e-01 6.63012748e-07 0.00000000e+00)	0.00000000e+00
1.05            	(1.60506879e-01 6.00878633e-07 0.00000000e+00)	0.00000000e+00
1.1             	(1.68125687e-01 5.41660835e-07 0.00000000e+00)	0.00000000e+00
1.15            	(1.75737381e-01 4.84841431e-07 0.00000000e+00)	0.00000000e+00
1.2             	(1.83341271e-01 4.31075157e-07 0.00000000e+00)	0.00000000e+00
1.25            	(1.90936488e-01 3.87298249e-07 0.00000000e+00)	0.00000000e+00
1.3             	(1.98522688e-01 3.46043778e-07 0.00000000e+00)	0.00000000e+00
1.35            	(2.06099176e-01 3.06094363e-07 0.00000000e+00)	0.00000000e+00
1.4             	(2.13665047e-01 2.68257258e-07 0.00000000e+00)	0.00000000e+00
1.45            	(2.21219960e-01 2.32022315e-07 0.00000000e+00)	0.00000000e+00
1.5             	(2.28763212e-01 1.98049407e-07 0.00000000e+00)	0.00000000e+00
1.55            	(2.36293915e-01 1.66713951e-07 0.00000000e+00)	0.00000000e+00
1.6             	(2.43811753e-01 1.37225428e-07 0.00000000e+00)	0.00000000e+00
1.65            	(2.51316043e-01 1.10244315e-07 0.00000000e+00)	0.00000000e+00
1.7             	(2.58805914e-01 8.60499135e-08 0.00000000e+00)	0.00000000e+00
1.75            	(2.66281085e-01 6.36230689e-08 0.00000000e+00)	0.00000000e+00
1.8             	(2.73740895e-01 4.36499450e-08 0.00000000e+00)	0.00000000e+00
1.85            	(2.81184514e-01 2.63650406e-08 0.00000000e+00)	0.00000000e+00
1.9             	(2.88611699e-01 1.23989916e-08 0.00000000e+00)	0.00000000e+00
1.95            	(2.96021824e-01 6.52911923e-09 0.00000000e+00)	0.00000000e+00
2               	(3.03414104e-01 1.46625049e-08 0.00000000e+00)	0.00000000e+00
2.05            	(3.10788341e-01 2.41649944e-08 0.00000000e+00)	0.00000000e+00
2.1             	(3.18143946e-01 3.25254778e-08 0.00000000e+00)	0.00000000e+00
2.15            	(3.25480186e-01 3.86691885e-08 0.00000000e+00)	0.00000000e+00
2.2             	(3.32796910e-01 4.41524687e-08 0.00000000e+00)	0.00000000e+00
2.25            	(3.40093572e-01 4.81933649e-08 0.00000000e+00)	0.00000000e+00
2.3             	(3.47369618e-01 5.07493897e-08 0.00000000e+00)	0.00000000e+00
2.35            	(3.54624657e-01 5.23118681e-08 0.00000000e+00)	0.00000000e+00
2.4             	(3.61858298e-01 5.29974541e-08 0.00000000e+00)	0.00000000e+00
2.45            	(3.69070148e-01 5.28791075e-08 0.00000000e+00)	0.00000000e+00
2.5             	(3.76259829e-01 5.20499862e-08 0.00000000e+00)	0.00000000e+00
2.55            	(3.83426975e-01 5.06040924e-08 0.00000000e+00)	0.00000000e+00
2.6             	(3.90571234e-01 4.86415395e-08 0.00000000e+00)	0.00000000e+00
2.65            	(3.97692274e-01 4.62577518e-08 0.00000000e+00)	0.00000000e+00
2.7             	(4.04789776e-01 4.35363393e-08 0.00000000e+00)	0.00000000e+00
2.75            	(4.11863438e-01 4.05526379e-08 0.00000000e+00)	0.00000000e+00
2.8             	(4.18912969e-01 3.73745930e-08 0.00000000e+00)	0.00000000e+00
2.85            	(4.25938095e-01 3.40650052e-08 0.00000000e+00)	0.00000000e+00
2.9             	(4.32938556e-01 3.06798747e-08 0.00000000e+00)	0.00000000e+00
2.95            	(4.39914103e-01 2.72683486e-08 0.00000000e+00)	0.00000000e+00
3               	(4.46864503e-01 2.38784740e-08 0.00000000e+00)	0.00000000e+00
3.05            	(4.53789535e-01 2.05425410e-08 0.00000000e+00)	0.00000000e+00
3.1             	(4.60688991e-01 1.72497395e-08 0.00000000e+00)	0.00000000e+00
3.15            	(4.67562674e-01 1.42204354e-08 0.00000000e+00)	0.00000000e+00
3.2             	(4.74410401e-01 1.17800034e-08 0.00000000e+00)	0.00000000e+00
3.25            	(4.81231998e-01 9.43366643e-09 0.00000000e+00)	0.00000000e+00
3.3             	(4.88027305e-01 7.20770372e-09 0.00000000e+00)	0.00000000e+00
3.35            	(4.94796171e-01 5.10696970e-09 0.00000000e+00)	0.00000000e+00
3.4             	(5.01538457e-01 6.34137447e-09 0.00000000e+00)	0.00000000e+00
3.45            	(5.08254032e-01 8.14590864e-09 0.00000000e+00)	0.00000000e+00
3.5             	(5.14942778e-01 9.83769591e-09 0.00000000e+00)	0.00000000e+00
3.55            	(5.21604583e-01 1.14180128e-08 0.00000000e+00)	0.00000000e+00
3.6             	(5.28239349e-01 1.29230486e-08 0.00000000e+00)	0.00000000e+00
3.65            	(5.34846983e-01 1.43242065e-08 0.00000000e+00)	0.00000000e+00
3.7             	(5.41427401e-01 1.56220514e-08 0.00000000e+00)	0.00000000e+00
3.75            	(5.47980528e-01 1.68231969e-08 0.00000000e+00)	0.00000000e+00
3.8             	(5.54506299e-01 1.79314938e-08 0.00000000e+00)	0.00000000e+00
3.85            	(5.61004653e-01 1.89522691e-08 0.00000000e+00)	0.00000000e+00
3.9             	(5.67475539e-01 1.98918337e-08 0.00000000e+00)	0.00000000e+00
3.95            	(5.73918913e-01 2.07588459e-08 0.00000000e+00)	0.00000000e+00
4               	(5.80334738e-01 2.15538714e-08 0.00000000e+00)	0.00000000e+00
4.05            	(5.86722982e-01 2.22430997e-08 0.00000000e+00)	0.00000000e+00
4.1             	(5.93083621e-01 2.28695641e-08 0.00000000e+00)	0.00000000e+00
4.15            	(5.99416637e-01 2.34423683e-08 0.00000000e+00)	0.00000000e+00
4.2             	(6.05722018e-01 2.39695065e-08 0.00000000e+00)	0.00000000e+00
4.25            	(6.11999758e-01 2.44442144e-08 0.00000000e+00)	0.00000000e+00
4.3             	(6.18249854e-01 2.49140596e-08 0.00000000e+00)	0.00000000e+00
4.35            	(6.24472311e-01 2.53365162e-08 0.00000000e+00)	0.00000000e+00
4.4             	(6.30667138e-01 2.57300717e-08 0.00000000e+00)	0.00000000e+00
4.45            	(6.36834349e-01 2.60908424e-08 0.00000000e+00)	0.00000000e+00
4.5             	(6.42973963e-01 2.64263421e-08 0.00000000e+00)	0.00000000e+00
4.55            	(6.49086002e-01 2.67367302e-08 0.00000000e+00)	0.00000000e+00
4.6             	(6.55170495e-01 2.70269459e-08 0.00000000e+00)	0.00000000e+00
4.65            	(6.61227472e-01 2.72971573e-08 0.00000000e+00)	0.00000000e+00
4.7             	(6.67256969e-01 2.75477102e-08 0.00000000e+00)	0.00000000e+00
4.75            	(6.73259024e-01 2.77816581e-08 0.00000000e+00)	0.00000000e+00
4.8             	(6.79233680e-01 2.79978640e-08 0.00000000e+00)	0.00000000e+00
4.85            	(6.85180983e-01 2.81976933e-08 0.00000000e+00)	0.00000000e+00
4.9             	(6.91100983e-01 2.83801208e-08 0.00000000e+00)	0.00000000e+00
4.95            	(6.96993731e-01 2.85482911e-08 0.00000000e+00)	0.00000000e+00
5               	(7.02859283e-01 2.87028987e-08 0.00000000e+00)	0.00000000e+00
5.05            	(7.08697697e-01 2.87770235e-08 0.00000000e+00)	0.00000000e+00
5.1             	(7.14509035e-01 2.88483407e-08 0.00000000e+00)	0.00000000e+00
5.15            	(7.20293358e-01 2.89199781e-08 0.00000000e+00)	0.00000000e+00
5.2             	(7.26050735e-01 2.89942143e-08 0.00000000e+00)	0.00000000e+00
5.25            	(7.31781231e-01 2.90674040e-08 0.00000000e+00)	0.00000000e+00
5.3             	(7.37484919e-01 2.91386101e-08 0.00000000e+00)	0.00000000e+00
5.35            	(7.43161870e-01 2.92030582e-08 0.00000000e+00)	0.00000000e+00
5.4             	(7.48812161e-01 2.92633306e-08 0.00000000e+00)	0.00000000e+00
5.45            	(7.54435866e-01 2.93164413e-08 0.00000000e+00)	0.00000000e+00
5.5             	(7.60033064e-01 2.93608553e-08 0.00000000e+00)	0.00000000e+00
5.55            	(7.65603837e-01 2.93989205e-08 0.00000000e+00)	0.00000000e+00
5.6             	(7.71148265e-01 2.94287128e-08 0.00000000e+00)	0.00000000e+00
5.65            	(7.76666433e-01 2.94386638e-08 0.00000000e+00)	0.00000000e+00
5.7             	(7.82158423e-01 2.94838666e-08 0.00000000e+00)	0.00000000e+00
5.75            	(7.87624323e-01 2.94923427e-08 0.00000000e+00)	0.00000000e+00
5.8             	(7.93064219e-01 2.95077199e-08 0.00000000e+00)	0.00000000e+00
5.85            	(7.98478203e-01 2.94765081e-08 0.00000000e+00)	0.00000000e+00
5.9             	(8.03866364e-01 2.94560842e-08 0.00000000e+00)	0.00000000e+00
5.95            	(8.09228792e-01 2.94148039e-08 0.00000000e+00)	0.00000000e+00
6               	(8.14565580e-01 2.93739750e-08 0.00000000e+00)	0.00000000e+00
6.05            	(8.19876820e-01 2.93166298e-08 0.00000000e+00)	0.00000000e+00
6.1             	(8.25162608e-01 2.92569157e-08 0.00000000e+00)	0.00000000e+00
6.15            	(8.30423038e-01 2.91864476e-08 0.00000000e+00)	0.00000000e+00
6.2             	(8.35658207e-01 2.90991175e-08 0.00000000e+00)	0.00000000e+00
6.25            	(8.40868209e-01 2.90461135e-08 0.00000000e+00)	0.00000000e+00
6.3             	(8.46053141e-01 2.89705793e-08 0.00000000e+00)	0.00000000e+00
6.35            	(8.51213103e-01 2.88922033e-08 0.00000000e+00)	0.00000000e+00
6.4             	(8.56348193e-01 2.87955891e-08 0.00000000e+00)	0.00000000e+00
6.45            	(8.61458510e-01 2.86929381e-08 0.00000000e+00)	0.00000000e+00
6.5             	(8.66544154e-01 2.85768238e-08 0.00000000e+00)	0.00000000e+00
6.55            	(8.71605224e-01 2.84532143e-08 0.00000000e+00)	0.00000000e+00
6.6             	(8.76641822e-01 2.83198569e-08 0.00000000e+00)	0.00000000e+00
6.65            	(8.81654049e-01 2.81835838e-08 0.00000000e+00)	0.00000000e+00
6.7             	(8.86642005e-01 2.80387101e-08 0.00000000e+00)	0.00000000e+00
6.75            	(8.91605792e-01 2.78898580e-08 0.00000000e+00)	0.00000000e+00
6.8             	(8.96545512e-01 2.77349792e-08 0.00000000e+00)	0.00000000e+00
6.85            	(9.01461267e-01 2.75758799e-08 0.00000000e+00)	0.00000000e+00
6.9             	(9.06353161e-01 2.74122128e-08 0.00000000e+00)	0.00000000e+00
6.95            	(9.11221296e-01 2.72344863e-08 0.00000000e+00)	0.00000000e+00
7               	(9.16065773e-01 2.70825221e-08 0.00000000e+00)	0.00000000e+00
7.05            	(9.20886696e-01 2.69291400e-08 0.00000000e+00)	0.00000000e+00
7.1             	(9.25684168e-01 2.67693557e-08 0.00000000e+00)	0.00000000e+00
7.15            	(9.30458293e-01 2.66011770e-08 0.00000000e+00)	0.00000000e+00
7.2             	(9.35209173e-01 2.64253421e-08 0.00000000e+00)	0.00000000e+00
7.25            	(9.39936912e-01 2.62393539e-08 0.00000000e+00)	0.00000000e+00
7.3             	(9.44641614e-01 2.60438300e-08 0.00000000e+00)	0.00000000e+00
7.35            	(9.49323382e-01 2.58293840e-08 0.00000000e+00)	0.00000000e+00
7.4             	(9.53982320e-01 2.56265719e-08 0.00000000e+00)	0.00000000e+00
7.45            	(9.58618530e-01 2.54210532e-08 0.00000000e+00)	0.00000000e+00
7.5             	(9.63232116e-01 2.52252449e-08 0.00000000e+00)	0.00000000e+00
7.55            	(9.67823181e-01 2.50302056e-08 0.00000000e+00)	0.00000000e+00
7.6             	(9.72391828e-01 2.48325993e-08 0.00000000e+00)	0.00000000e+00
7.65            	(9.76938160e-01 2.46327506e-08 0.00000000e+00)	0.00000000e+00
7.7             	(9.81462280e-01 2.44307719e-08 0.00000000e+00)	0.00000000e+00
7.75            	(9.85964291e-01 2.42266561e-08 0.00000000e+00)	0.00000000e+00
7.8             	(9.90444296e-01 2.40207964e-08 0.00000000e+00)	0.00000000e+00
7.85            	(9.94902396e-01 2.38133991e-08 0.00000000e+00)	0.00000000e+00
7.9             	(9.99338694e-01 2.36047832e-08 0.00000000e+00)	0.00000000e+00
7.95            	(1.00375329e+00 2.33953634e-08 0.00000000e+00)	0.00000000e+00
8               	(1.00814629e+00 2.31856685e-08 0.00000000e+00)	0.00000000e+00
8.05            	(1.01251780e+00 2.29558094e-08 0.00000000e+00)	0.00000000e+00
8.1             	(1.01686791e+00 2.27838706e-08 0.00000000e+00)	0.00000000e+00
8.15            	(1.02119673e+00 2.26317194e-08 0.00000000e+00)	0.00000000e+00
8.2             	(1.02550435e+00 2.24689204e-08 0.00000000e+00)	0.00000000e+00
8.25            	(1.02979088e+00 2.22525011e-08 0.00000000e+00)	0.00000000e+00
8.3             	(1.03405642e+00 2.20098689e-08 0.00000000e+00)	0.00000000e+00
8.35            	(1.03830107e+00 2.17802558e-08 0.00000000e+00)	0.00000000e+00
8.4             	(1.04252493e+00 2.15923079e-08 0.00000000e+00)	0.00000000e+00
8.45            	(1.04672810e+00 2.13318075e-08 0.00000000e+00)	0.00000000e+00
8.5             	(1.05091067e+00 2.10617682e-08 0.00000000e+00)	0.00000000e+00
8.55            	(1.05507275e+00 2.07795843e-08 0.00000000e+00)	0.00000000e+00
8.6             	(1.05921444e+00 2.04839539e-08 0.00000000e+00)	0.00000000e+00
8.65            	(1.06333584e+00 2.01807461e-08 0.00000000e+00)	0.00000000e+00
8.7             	(1.06743703e+00 1.99285940e-08 0.00000000e+00)	0.00000000e+00
8.75            	(1.07151813e+00 1.96842867e-08 0.00000000e+00)	0.00000000e+00
8.8             	(1.07557922e+00 1.94336209e-08 0.00000000e+00)	0.00000000e+00
8.85            	(1.07962041e+00 1.91779510e-08 0.00000000e+00)	0.00000000e+00
8.9             	(1.08364179e+00 1.89186029e-08 0.00000000e+00)	0.00000000e+00
8.95            	(1.08764346e+00 1.86567259e-08 0.00000000e+00)	0.00000000e+00
9               	(1.09162552e+00 1.83931042e-08 0.00000000e+00)	0.00000000e+00
9.05            	(1.09558805e+00 1.81281887e-08 0.00000000e+00)	0.00000000e+00
9.1             	(1.09953116e+00 1.78621855e-08 0.00000000e+00)	0.00000000e+00
9.15            	(1.10345495e+00 1.75951992e-08 0.00000000e+00)	0.00000000e+00
9.2             	(1.10735949e+00 1.73272656e-08 0.00000000e+00)	0.00000000e+00
9.25            	(1.11124490e+00 1.70583997e-08 0.00000000e+00)	0.00000000e+00
9.3             	(1.11511126e+00 1.67885928e-08 0.00000000e+00)	0.00000000e+00
9.35            	(1.11895867e+00 1.65178356e-08 0.00000000e+00)	0.00000000e+00
9.4             	(1.12278723e+00 1.62061847e-08 0.00000000e+00)	0.00000000e+00
9.45            	(1.12659702e+00 1.59689402e-08 0.00000000e+00)	0.00000000e+00
9.5             	(1.13038813e+00 1.57511453e-08 0.00000000e+00)	0.00000000e+00
9.55            	(1.13416066e+00 1.55084333e-08 0.00000000e+00)	0.00000000e+00
9.6             	(1.13791470e+00 1.52486347e-08 0.00000000e+00)	0.00000000e+00
9.65            	(1.14165034e+00 1.49836740e-08 0.00000000e+00)	0.00000000e+00
9.7             	(1.14536768e+00 1.46585416e-08 0.00000000e+00)	0.00000000e+00
9.75            	(1.14906680e+00 1.43605924e-08 0.00000000e+00)	0.00000000e+00
9.8             	(1.15274780e+00 1.40984630e-08 0.00000000e+00)	0.00000000e+00
9.85            	(1.15641076e+00 1.38431815e-08 0.00000000e+00)	0.00000000e+00
9.9             	(1.16005577e+00 1.35725085e-08 0.00000000e+00)	0.00000000e+00
9.95            	(1.16368292e+00 1.32887318e-08 0.00000000e+00)	0.00000000e+00
10              	(1.16729231e+00 1.30053776e-08 0.00000000e+00)	0.00000000e+00
10.05           	(1.17088401e+00 1.28694854e-08 0.00000000e+00)	0.00000000e+00
10.1            	(1.17445813e+00 1.27274823e-08 0.00000000e+00)	0.00000000e+00
10.15           	(1.17801473e+00 1.25454349e-08 0.00000000e+00)	0.00000000e+00
10.2            	(1.18155393e+00 1.23284762e-08 0.00000000e+00)	0.00000000e+00
10.25           	(1.18507578e+00 1.20863855e-08 0.00000000e+00)	0.00000000e+00
10.3            	(1.18858040e+00 1.18256003e-08 0.00000000e+00)	0.00000000e+00
10.35           	(1.19206785e+00 1.15517418e-08 0.00000000e+00)	0.00000000e+00
10.4            	(1.19553824e+00 1.12692823e-08 0.00000000e+00)	0.00000000e+00
10.45           	(1.19899163e+00 1.09815924e-08 0.00000000e+00)	0.00000000e+00
10.5            	(1.20242812e+00 1.06909986e-08 0.00000000e+00)	0.00000000e+00
10.55           	(1.20584780e+00 1.03990517e-08 0.00000000e+00)	0.00000000e+00
10.6            	(1.20925074e+00 1.01067593e-08 0.00000000e+00)	0.00000000e+00
10.65           	(1.21263702e+00 9.81474454e-09 0.00000000e+00)	0.00000000e+00
10.7            	(1.21600674e+00 9.52336050e-09 0.00000000e+00)	0.00000000e+00
10.75           	(1.21935998e+00 9.23277086e-09 0.00000000e+00)	0.00000000e+00
10.8            	(1.22269681e+00 8.94309078e-09 0.00000000e+00)	0.00000000e+00
10.85           	(1.22601732e+00 8.65448916e-09 0.00000000e+00)	0.00000000e+00
10.9            	(1.22932159e+00 8.36705771e-09 0.00000000e+00)	0.00000000e+00
10.95           	(1.23260971e+00 8.08084058e-09 0.00000000e+00)	0.00000000e+00
11              	(1.23588174e+00 7.79596626e-09 0.00000000e+00)	0.00000000e+00
11.05           	(1.23913779e+00 7.43278575e-09 0.00000000e+00)	0.00000000e+00
11.1            	(1.24237792e+00 7.19263941e-09 0.00000000e+00)	0.00000000e+00
11.15           	(1.24560221e+00 6.96227900e-09 0.00000000e+00)	0.00000000e+00
11.2            	(1.24881074e+00 6.75791350e-09 0.00000000e+00)	0.00000000e+00
11.25           	(1.25200359e+00 6.56778936e-09 0.00000000e+00)	0.00000000e+00
11.3            	(1.25518084e+00 6.38026996e-09 0.00000000e+00)	0.00000000e+00
11.35           	(1.25834257e+00 5.97770608e-09 0.00000000e+00)	0.00000000e+00
11.4            	(1.26148887e+00 5.60587234e-09 0.00000000e+00)	0.00000000e+00
11.45           	(1.26461980e+00 5.33934693e-09 0.00000000e+00)	0.00000000e+00
11.5            	(1.26773543e+00 5.12573496e-09 0.00000000e+00)	0.00000000e+00
11.55           	(1.27083586e+00 4.89386197e-09 0.00000000e+00)	0.00000000e+00
11.6            	(1.27392114e+00 4.62840147e-09 0.00000000e+00)	0.00000000e+00
11.65           	(1.27699137e+00 4.34779676e-09 0.00000000e+00)	0.00000000e+00
11.7            	(1.28004662e+00 4.07196805e-09 0.00000000e+00)	0.00000000e+00
11.75           	(1.28308695e+00 3.80667486e-09 0.00000000e+00)	0.00000000e+00
11.8            	(1.28611246e+00 3.54760787e-09 0.00000000e+00)	0.00000000e+00
11.85           	(1.28912320e+00 3.28945806e-09 0.00000000e+00)	0.00000000e+00
11.9            	(1.29211926e+00 3.03040299e-09 0.00000000e+00)	0.00000000e+00
11.95           	(1.29510070e+00 2.77148008e-09 0.00000000e+00)	0.00000000e+00
12              	(1.29806761e+00 2.51427872e-09 0.00000000e+00)	0.00000000e+00
12.05           	(1.30102005e+00 2.25960121e-09 0.00000000e+00)	0.00000000e+00
12.1            	(1.30395810e+00 2.00747214e-09 0.00000000e+00)	0.00000000e+00
12.15           	(1.30688182e+00 1.75767808e-09 0.00000000e+00)	0.00000000e+00
12.2            	(1.30979130e+00 1.50988544e-09 0.00000000e+00)	0.00000000e+00
12.25           	(1.31268660e+00 1.26428325e-09 0.00000000e+00)	0.00000000e+00
12.3            	(1.31556780e+00 1.02086017e-09 0.00000000e+00)	0.00000000e+00
12.35           	(1.31843496e+00 7.79258905e-10 0.00000000e+00)	0.00000000e+00
12.4            	(1.32128815e+00 5.40085687e-10 0.00000000e+00)	0.00000000e+00
12.45           	(1.32412746e+00 5.10851547e-10 0.00000000e+00)	0.00000000e+00
12.5            	(1.32695293e+00 7.23865256e-10 0.00000000e+00)	0.00000000e+00
12.55           	(1.32976465e+00 9.30506126e-10 0.00000000e+00)	0.00000000e+00
12.6            	(1.33256269e+00 1.13009208e-09 0.00000000e+00)	0.00000000e+00
12.65           	(1.33534710e+00 1.32141667e-09 0.00000000e+00)	0.00000000e+00
12.7            	(1.33811797e+00 1.50305851e-09 0.00000000e+00)	0.00000000e+00
12.75           	(1.34087536e+00 1.67344132e-09 0.00000000e+00)	0.00000000e+00
12.8            	(1.34361933e+00 1.83109118e-09 0.00000000e+00)	0.00000000e+00
12.85           	(1.34634996e+00 1.97370744e-09 0.00000000e+00)	0.00000000e+00
12.9            	(1.34906730e+00 2.09844047e-09 0.00000000e+00)	0.00000000e+00
12.95           	(1.35177144e+00 2.20340886e-09 0.00000000e+00)	0.00000000e+00
13              	(1.35446243e+00 2.28609153e-09 0.00000000e+00)	0.00000000e+00
13.05           	(1.35714033e+00 2.34278537e-09 0.00000000e+00)	0.00000000e+00
13.1            	(1.35980523e+00 2.37098685e-09 0.00000000e+00)	0.00000000e+00
13.15           	(1.36245717e+00 2.36622986e-09 0.00000000e+00)	0.00000000e+00
13.2            	(1.36509623e+00 2.42364179e-09 0.00000000e+00)	0.00000000e+00
13.25           	(1.36772247e+00 3.23606368e-09 0.00000000e+00)	0.00000000e+00
13.3            	(1.37033595e+00 4.19358888e-09 0.00000000e+00)	0.00000000e+00
13.35           	(1.37293674e+00 5.31203244e-09 0.00000000e+00)	0.00000000e+00
13.4            	(1.37552490e+00 6.60852901e-09 0.00000000e+00)	0.00000000e+00
13.45           	(1.37810050e+00 8.09992160e-09 0.00000000e+00)	0.00000000e+00
13.5            	(1.38066360e+00 9.80318915e-09 0.00000000e+00)	0.00000000e+00
13.55           	(1.38321425e+00 1.17367107e-08 0.00000000e+00)	0.00000000e+00
13.6            	(1.38575253e+00 1.39203702e-08 0.00000000e+00)	0.00000000e+00
13.65           	(1.38827849e+00 1.63741502e-08 0.00000000e+00)	0.00000000e+00
13.7            	(1.39079221e+00 1.91175813e-08 0.00000000e+00)	0.00000000e+00
13.75           	(1.39329372e+00 2.21679704e-08 0.00000000e+00)	0.00000000e+00
13.8            	(1.39578311e+00 2.55461301e-08 0.00000000e+00)	0.00000000e+00
13.85           	(1.39826043e+00 2.92717455e-08 0.00000000e+00)	0.00000000e+00
13.9            	(1.40072573e+00 3.33642157e-08 0.00000000e+00)	0.00000000e+00
13.95           	(1.40317909e+00 3.78422074e-08 0.00000000e+00)	0.00000000e+00
14              	(1.40562056e+00 4.27237621e-08 0.00000000e+00)	0.00000000e+00
14.05           	(1.40805019e+00 4.80258974e-08 0.00000000e+00)	0.00000000e+00
14.1            	(1.41046805e+00 5.37647017e-08 0.00000000e+00)	0.00000000e+00
14.15           	(1.41287421e+00 5.99550865e-08 0.00000000e+00)	0.00000000e+00
14.2            	(1.41526870e+00 6.66108041e-08 0.00000000e+00)	0.00000000e+00
14.25           	(1.41765160e+00 7.37440286e-08 0.00000000e+00)	0.00000000e+00
14.3            	(1.42002296e+00 8.13655188e-08 0.00000000e+00)	0.00000000e+00
14.35           	(1.42238284e+00 8.94842511e-08 0.00000000e+00)	0.00000000e+00
14.4            	(1.42473130e+00 9.81076055e-08 0.00000000e+00)	0.00000000e+00
14.45           	(1.42706839e+00 1.07241167e-07 0.00000000e+00)	0.00000000e+00
14.5            	(1.42939417e+00 1.16888662e-07 0.00000000e+00)	0.00000000e+00
14.55           	(1.43170870e+00 1.27051942e-07 0.00000000e+00)	0.00000000e+00
14.6            	(1.43401203e+00 1.37730976e-07 0.00000000e+00)	0.00000000e+00
14.65           	(1.43630423e+00 1.48923867e-07 0.00000000e+00)	0.00000000e+00
14.7            	(1.43858533e+00 1.60626884e-07 0.00000000e+00)	0.00000000e+00
14.75           	(1.44085540e+00 1.72834278e-07 0.00000000e+00)	0.00000000e+00
14.8            	(1.44311450e+00 1.85538378e-07 0.00000000e+00)	0.00000000e+00
14.85           	(1.44536268e+00 1.98730225e-07 0.00000000e+00)	0.00000000e+00
14.9            	(1.44760000e+00 2.12399349e-07 0.00000000e+00)	0.00000000e+00
14.95           	(1.44982650e+00 2.26533651e-07 0.00000000e+00)	0.00000000e+00
15              	(1.45204224e+00 2.41119652e-07 0.00000000e+00)	0.00000000e+00
15.05           	(1.45424728e+00 2.56142506e-07 0.00000000e+00)	0.00000000e+00
15.1            	(1.45644167e+00 2.71586237e-07 0.00000000e+00)	0.00000000e+00
15.15           	(1.45862546e+00 2.87434074e-07 0.00000000e+00)	0.00000000e+00
15.2            	(1.46079870e+00 3.03668247e-07 0.00000000e+00)	0.00000000e+00
15.25           	(1.46296146e+00 3.20270190e-07 0.00000000e+00)	0.00000000e+00
15.3            	(1.46511377e+00 3.37220780e-07 0.00000000e+00)	0.00000000e+00
15.35           	(1.46725569e+00 3.54500402e-07 0.00000000e+00)	0.00000000e+00
15.4            	(1.46938728e+00 3.72089114e-07 0.00000000e+00)	0.00000000e+00
15.45           	(1.47150859e+00 3.89966771e-07 0.00000000e+00)	0.00000000e+00
15.5            	(1.47361966e+00 4.08113148e-07 0.00000000e+00)	0.00000000e+00
15.55           	(1.47572055e+00 4.26508060e-07 0.00000000e+00)	0.00000000e+00
15.6            	(1.47781130e+00 4.45131468e-07 0.00000000e+00)	0.00000000e+00
15.65           	(1.47989198e+00 4.63963578e-07 0.00000000e+00)	0.00000000e+00
15.7            	(1.48196262e+00 4.82984934e-07 0.00000000e+00)	0.00000000e+00
15.75           	(1.48402329e+00 5.02176421e-07 0.00000000e+00)	0.00000000e+00
15.8            	(1.48607402e+00 5.21519390e-07 0.00000000e+00)	0.00000000e+00
15.85           	(1.48811487e+00 5.40995902e-07 0.00000000e+00)	0.00000000e+00
15.9            	(1.49014589e+00 5.60588588e-07 0.00000000e+00)	0.00000000e+00
15.95           	(1.49216713e+00 5.80280707e-07 0.00000000e+00)	0.00000000e+00
16              	(1.49417863e+00 6.00056201e-07 0.00000000e+00)	0.00000000e+00
16.05           	(1.49618044e+00 6.19899716e-07 0.00000000e+00)	0.00000000e+00
16.1            	(1.49817262e+00 6.39796618e-07 0.00000000e+00)	0.00000000e+00
16.15           	(1.50015520e+00 6.59732849e-07 0.00000000e+00)	0.00000000e+00
16.2            	(1.50212825e+00 6.79695093e-07 0.00000000e+00)	0.00000000e+00
16.25           	(1.50409180e+00 6.99671162e-07 0.00000000e+00)	0.00000000e+00
16.3            	(1.50604590e+00 7.19649475e-07 0.00000000e+00)	0.00000000e+00
16.35           	(1.50799060e+00 7.39619053e-07 0.00000000e+00)	0.00000000e+00
16.4            	(1.50992594e+00 7.59569624e-07 0.00000000e+00)	0.00000000e+00
16.45           	(1.51185199e+00 7.79491576e-07 0.00000000e+00)	0.00000000e+00
16.5            	(1.51376876e+00 7.99375944e-07 0.00000000e+00)	0.00000000e+00
16.55           	(1.51567633e+00 8.19214380e-07 0.00000000e+00)	0.00000000e+00
16.6            	(1.51757472e+00 8.38999134e-07 0.00000000e+00)	0.00000000e+00
16.65           	(1.51946400e+00 8.58723006e-07 0.00000000e+00)	0.00000000e+00
16.7            	(1.52134419e+00 8.78379289e-07 0.00000000e+00)	0.00000000e+00
16.75           	(1.52321535e+00 8.97961822e-07 0.00000000e+00)	0.00000000e+00
16.8            	(1.52507752e+00 9.17464946e-07 0.00000000e+00)	0.00000000e+00
16.85           	(1.52693075e+00 9.36883322e-07 0.00000000e+00)	0.00000000e+00
16.9            	(1.52877508e+00 9.56212150e-07 0.00000000e+00)	0.00000000e+00
16.95           	(1.53061056e+00 9.75447124e-07 0.00000000e+00)	0.00000000e+00
17              	(1.53243722e+00 9.94583861e-07 0.00000000e+00)	0.00000000e+00
17.05           	(1.53425512e+00 1.01361876e-06 0.00000000e+00)	0.00000000e+00
17.1            	(1.53606429e+00 1.03254829e-06 0.00000000e+00)	0.00000000e+00
17.15           	(1.53786479e+00 1.05136919e-06 0.00000000e+00)	0.00000000e+00
17.2            	(1.53965664e+00 1.07007847e-06 0.00000000e+00)	0.00000000e+00
17.25           	(1.54143990e+00 1.08867346e-06 0.00000000e+00)	0.00000000e+00
17.3            	(1.54321461e+00 1.10715155e-06 0.00000000e+00)	0.00000000e+00
17.35           	(1.54498081e+00 1.12551038e-06 0.00000000e+00)	0.00000000e+00
17.4            	(1.54673854e+00 1.14374776e-06 0.00000000e+00)	0.00000000e+00
17.45           	(1.54848785e+00 1.16186165e-06 0.00000000e+00)	0.00000000e+00
17.5            	(1.55022878e+00 1.17985008e-06 0.00000000e+00)	0.00000000e+00
17.55           	(1.55196136e+00 1.19771128e-06 0.00000000e+00)	0.00000000e+00
17.6            	(1.55368564e+00 1.21544358e-06 0.00000000e+00)	0.00000000e+00
17.65           	(1.55540166e+00 1.23304540e-06 0.00000000e+00)	0.00000000e+00
17.7            	(1.55710946e+00 1.25051533e-06 0.00000000e+00)	0.00000000e+00
17.75           	(1.55880908e+00 1.26785196e-06 0.00000000e+00)	0.00000000e+00
17.8            	(1.56050057e+00 1.28505399e-06 0.00000000e+00)	0.00000000e+00
17.85           	(1.56218396e+00 1.30212019e-06 0.00000000e+00)	0.00000000e+00
17.9            	(1.56385929e+00 1.31904937e-06 0.00000000e+00)	0.00000000e+00
17.95           	(1.56552660e+00 1.33584044e-06 0.00000000e+00)	0.00000000e+00
18              	(1.56718594e+00 1.35249243e-06 0.00000000e+00)	0.00000000e+00
18.05           	(1.56883733e+00 1.36900433e-06 0.00000000e+00)	0.00000000e+00
18.1            	(1.57048083e+00 1.38537519e-06 0.00000000e+00)	0.00000000e+00
18.15           	(1.57211646e+00 1.40160414e-06 0.00000000e+00)	0.00000000e+00
18.2            	(1.57374428e+00 1.41769039e-06 0.00000000e+00)	0.00000000e+00
18.25           	(1.57536431e+00 1.43363314e-06 0.00000000e+00)	0.00000000e+00
18.3            	(1.57697660e+00 1.44943166e-06 0.00000000e+00)	0.00000000e+00
18.35           	(1.57858118e+00 1.46508527e-06 0.00000000e+00)	0.00000000e+00
18.4            	(1.58017809e+00 1.48059330e-06 0.00000000e+00)	0.00000000e+00
18.45           	(1.58176737e+00 1.49595515e-06 0.00000000e+00)	0.00000000e+00
18.5            	(1.58334906e+00 1.51117027e-06 0.00000000e+00)	0.00000000e+00
18.55           	(1.58492320e+00 1.52623810e-06 0.00000000e+00)	0.00000000e+00
18.6            	(1.58648981e+00 1.54115817e-06 0.00000000e+00)	0.00000000e+00
18.65           	(1.58804894e+00 1.55593002e-06 0.00000000e+00)	0.00000000e+00
18.7            	(1.58960063e+00 1.57055323e-06 0.00000000e+00)	0.00000000e+00
18.75           	(1.59114492e+00 1.58502742e-06 0.00000000e+00)	0.00000000e+00
18.8            	(1.59268183e+00 1.59935225e-06 0.00000000e+00)	0.00000000e+00
18.85           	(1.59421140e+00 1.61352739e-06 0.00000000e+00)	0.00000000e+00