/*--------------------------------*- C++ -*----------------------------------*\
| =========                 |                                                 |
| \\      /  F ield         | OpenFOAM: The Open Source CFD Toolbox           |
|  \\    /   O peration     | Version:  2112                                  |
|   \\  /    A nd           | Website:  www.openfoam.com                      |
|    \\/     M anipulation  |                                                 |
\*---------------------------------------------------------------------------*/
FoamFile
{
    version     2.0;
    format      ascii;
    arch        "LSB;label=32;scalar=64";
    class       volScalarField;
    location    "16";
    object      p;
}
// * * * * * * * * * * * * * * * * * * * * * * * * * * * * * * * * * * * * * //

dimensions      [0 2 -2 0 0 0 0];

internalField   nonuniform List<scalar> 
1000
(
1.5268038
1.5102554
1.4940007
1.4779639
1.4620747
1.4462858
1.4305687
1.4149068
1.3992903
1.3837117
1.3681648
1.3526443
1.3371463
1.321668
1.306207
1.2907619
1.2753312
1.2599136
1.244508
1.2291136
1.2137294
1.1983547
1.1829888
1.1676311
1.152281
1.136938
1.1216016
1.1062714
1.0909469
1.0756278
1.0603137
1.0450044
1.0296994
1.0143985
0.99910145
0.98380802
0.96851796
0.95323105
0.9379471
0.92266592
0.90738733
0.89211117
0.87683728
0.86156552
0.84629575
0.83102785
0.8157617
0.80049718
0.78523418
0.76997262
0.7547124
0.73945343
0.72419563
0.70893892
0.69368323
0.6784285
0.66317465
0.64792164
0.63266941
0.6174179
0.60216707
0.58691686
0.57166724
0.55641817
0.54116961
0.52592153
0.51067388
0.49542665
0.48017979
0.46493329
0.44968712
0.43444126
0.41919568
0.40395036
0.38870528
0.37346043
0.35821579
0.34297135
0.32772708
0.31248298
0.29723903
0.28199522
0.26675154
0.25150798
0.23626453
0.22102118
0.20577793
0.19053476
0.17529167
0.16004865
0.1448057
0.1295628
0.11431997
0.099077178
0.083834435
0.068591734
0.053349071
0.03810644
0.022863842
0.0076212651
1.52654
1.5099581
1.4938926
1.47802
1.4621886
1.4463898
1.4306479
1.4149697
1.3993455
1.3837621
1.3682101
1.3526841
1.337181
1.3216983
1.3062341
1.2907863
1.2753533
1.2599338
1.2445265
1.2291305
1.213745
1.1983691
1.1830022
1.1676435
1.1522925
1.1369487
1.1216116
1.1062807
1.0909555
1.0756359
1.0603212
1.0450114
1.0297059
1.0144046
0.99910713
0.98381332
0.9685229
0.95323567
0.93795141
0.92266994
0.90739108
0.89211466
0.87684054
0.86156856
0.84629859
0.83103049
0.81576416
0.80049947
0.78523632
0.76997461
0.75471425
0.73945515
0.72419722
0.7089404
0.69368461
0.67842978
0.66317584
0.64792275
0.63267043
0.61741885
0.60216794
0.58691767
0.571668
0.55641887
0.54117026
0.52592212
0.51067443
0.49542715
0.48018026
0.46493372
0.44968752
0.43444162
0.41919601
0.40395066
0.38870556
0.37346069
0.35821603
0.34297156
0.32772728
0.31248316
0.29723919
0.28199537
0.26675167
0.2515081
0.23626464
0.22102128
0.20577802
0.19053484
0.17529174
0.16004871
0.14480575
0.12956286
0.11432001
0.099077219
0.083834472
0.068591767
0.0533491
0.038106465
0.022863864
0.0076212755
1.5260661
1.5093589
1.4935487
1.4779621
1.4622741
1.4464928
1.4307208
1.4150173
1.3993841
1.3838002
1.3682475
1.3527181
1.3372103
1.3217233
1.3062558
1.2908057
1.2753708
1.2599496
1.2445409
1.2291436
1.213757
1.1983801
1.1830122
1.1676528
1.1523011
1.1369566
1.1216189
1.1062875
1.0909619
1.0756417
1.0603267
1.0450164
1.0297106
1.014409
0.99911123
0.98381714
0.96852646
0.95323899
0.9379545
0.92267283
0.90739377
0.89211718
0.87684288
0.86157074
0.84630062
0.83103239
0.81576593
0.80050112
0.78523785
0.76997604
0.75471558
0.73945639
0.72419838
0.70894148
0.69368561
0.67843071
0.66317671
0.64792355
0.63267118
0.61741954
0.60216859
0.58691827
0.57166855
0.55641938
0.54117073
0.52592256
0.51067484
0.49542753
0.48018061
0.46493404
0.44968781
0.43444189
0.41919626
0.4039509
0.38870578
0.37346089
0.35821621
0.34297173
0.32772743
0.31248329
0.29723932
0.28199548
0.26675178
0.2515082
0.23626473
0.22102136
0.20577809
0.1905349
0.1752918
0.16004877
0.1448058
0.1295629
0.11432005
0.099077254
0.083834503
0.068591795
0.053349124
0.038106486
0.022863879
0.0076212841
1.5255962
1.508716
1.4931212
1.4778339
1.4623262
1.4465876
1.4307927
1.4150628
1.3994201
1.3838374
1.3682865
1.3527553
1.337243
1.3217514
1.3062802
1.2908273
1.2753903
1.2599672
1.2445568
1.229158
1.21377
1.198392
1.1830232
1.1676628
1.1523104
1.1369652
1.1216268
1.1062948
1.0909687
1.075648
1.0603326
1.0450219
1.0297157
1.0144137
0.99911566
0.98382128
0.96853032
0.95324259
0.93795787
0.92267597
0.90739671
0.89211992
0.87684545
0.86157314
0.84630286
0.83103448
0.81576788
0.80050294
0.78523956
0.76997763
0.75471707
0.73945777
0.72419967
0.70894268
0.69368673
0.67843176
0.66317769
0.64792446
0.63267203
0.61742033
0.60216932
0.58691896
0.57166919
0.55641998
0.54117128
0.52592307
0.51067531
0.49542797
0.48018101
0.46493442
0.44968816
0.43444222
0.41919656
0.40395117
0.38870603
0.37346113
0.35821643
0.34297193
0.32772761
0.31248347
0.29723948
0.28199563
0.26675191
0.25150832
0.23626484
0.22102147
0.20577818
0.19053499
0.17529188
0.16004884
0.14480587
0.12956296
0.11432011
0.099077304
0.083834548
0.068591836
0.05334916
0.038106519
0.022863902
0.0076213048
1.5253139
1.5083151
1.4928372
1.4777345
1.4623489
1.4466457
1.4308392
1.4150922
1.3994431
1.3838616
1.3683126
1.3527809
1.3372661
1.3217715
1.3062978
1.290843
1.2754046
1.2599802
1.2445686
1.2291688
1.2137799
1.198401
1.1830315
1.1676705
1.1523175
1.1369718
1.1216329
1.1063005
1.0909739
1.0756529
1.0603371
1.0450261
1.0297197
1.0144174
0.99911912
0.9838245
0.96853334
0.95324541
0.93796051
0.92267843
0.90739901
0.89212208
0.87684746
0.86157503
0.84630463
0.83103613
0.81576942
0.80050438
0.78524091
0.76997889
0.75471824
0.73945888
0.7242007
0.70894364
0.69368763
0.67843259
0.66317847
0.64792519
0.63267271
0.61742097
0.60216991
0.58691951
0.5716697
0.55642045
0.54117173
0.52592349
0.5106757
0.49542833
0.48018135
0.46493473
0.44968845
0.43444249
0.41919681
0.4039514
0.38870625
0.37346132
0.35821661
0.3429721
0.32772777
0.31248361
0.29723961
0.28199575
0.26675203
0.25150842
0.23626494
0.22102155
0.20577827
0.19053507
0.17529195
0.1600489
0.14480593
0.12956301
0.11432015
0.099077348
0.083834587
0.068591872
0.053349191
0.038106548
0.022863924
0.0076213253
1.5253138
1.508315
1.4928372
1.4777345
1.4623489
1.4466456
1.4308392
1.4150922
1.3994431
1.3838616
1.3683126
1.3527809
1.3372661
1.3217715
1.3062978
1.290843
1.2754046
1.2599802
1.2445687
1.2291688
1.2137799
1.198401
1.1830315
1.1676705
1.1523175
1.1369718
1.1216329
1.1063005
1.0909739
1.0756529
1.0603371
1.0450262
1.0297197
1.0144174
0.99911912
0.9838245
0.96853334
0.95324541
0.93796051
0.92267843
0.90739901
0.89212208
0.87684746
0.86157503
0.84630463
0.83103613
0.81576942
0.80050438
0.78524091
0.76997889
0.75471824
0.73945888
0.7242007
0.70894364
0.69368763
0.67843259
0.66317847
0.64792519
0.63267271
0.61742097
0.60216991
0.58691951
0.5716697
0.55642045
0.54117173
0.52592349
0.5106757
0.49542833
0.48018135
0.46493473
0.44968845
0.43444248
0.41919681
0.4039514
0.38870625
0.37346132
0.35821661
0.3429721
0.32772777
0.31248361
0.29723961
0.28199575
0.26675203
0.25150842
0.23626494
0.22102155
0.20577827
0.19053507
0.17529195
0.1600489
0.14480593
0.12956301
0.11432015
0.099077348
0.083834587
0.068591873
0.053349191
0.038106549
0.022863925
0.0076213258
1.5255962
1.508716
1.4931212
1.4778339
1.4623261
1.4465876
1.4307927
1.4150627
1.3994201
1.3838374
1.3682865
1.3527553
1.337243
1.3217514
1.3062802
1.2908273
1.2753903
1.2599672
1.2445568
1.229158
1.21377
1.198392
1.1830232
1.1676628
1.1523104
1.1369652
1.1216268
1.1062948
1.0909687
1.0756481
1.0603326
1.0450219
1.0297157
1.0144137
0.99911566
0.98382128
0.96853032
0.95324259
0.93795787
0.92267597
0.90739671
0.89211992
0.87684545
0.86157314
0.84630286
0.83103448
0.81576788
0.80050294
0.78523956
0.76997763
0.75471707
0.73945777
0.72419967
0.70894268
0.69368673
0.67843176
0.66317768
0.64792446
0.63267203
0.61742033
0.60216932
0.58691896
0.57166919
0.55641997
0.54117128
0.52592307
0.51067531
0.49542797
0.48018101
0.46493442
0.44968816
0.43444222
0.41919656
0.40395117
0.38870603
0.37346112
0.35821643
0.34297193
0.32772761
0.31248347
0.29723948
0.28199563
0.26675191
0.25150832
0.23626484
0.22102147
0.20577819
0.19053499
0.17529188
0.16004884
0.14480587
0.12956296
0.11432011
0.099077305
0.083834549
0.068591837
0.05334916
0.038106519
0.022863904
0.0076213058
1.5260661
1.5093589
1.4935487
1.4779621
1.4622741
1.4464927
1.4307207
1.4150172
1.3993841
1.3838002
1.3682475
1.3527181
1.3372103
1.3217233
1.3062559
1.2908057
1.2753708
1.2599497
1.2445409
1.2291436
1.213757
1.1983801
1.1830122
1.1676528
1.1523011
1.1369566
1.1216189
1.1062875
1.0909619
1.0756417
1.0603267
1.0450164
1.0297106
1.014409
0.99911123
0.98381714
0.96852647
0.95323899
0.9379545
0.92267283
0.90739377
0.89211718
0.87684288
0.86157074
0.84630062
0.83103239
0.81576593
0.80050112
0.78523785
0.76997604
0.75471558
0.73945639
0.72419838
0.70894147
0.69368561
0.6784307
0.6631767
0.64792355
0.63267118
0.61741954
0.60216859
0.58691827
0.57166855
0.55641938
0.54117073
0.52592256
0.51067483
0.49542753
0.4801806
0.46493404
0.44968781
0.43444189
0.41919626
0.40395089
0.38870578
0.37346089
0.35821621
0.34297173
0.32772743
0.31248329
0.29723932
0.28199548
0.26675178
0.2515082
0.23626473
0.22102136
0.20577809
0.19053491
0.1752918
0.16004877
0.1448058
0.1295629
0.11432005
0.099077255
0.083834504
0.068591795
0.053349125
0.038106486
0.022863881
0.0076212851
1.52654
1.5099581
1.4938926
1.47802
1.4621886
1.4463898
1.4306479
1.4149697
1.3993455
1.3837621
1.3682101
1.3526841
1.3371809
1.3216983
1.3062341
1.2907863
1.2753533
1.2599338
1.2445265
1.2291306
1.213745
1.1983691
1.1830022
1.1676435
1.1522925
1.1369487
1.1216116
1.1062807
1.0909556
1.0756359
1.0603212
1.0450114
1.0297059
1.0144046
0.99910714
0.98381332
0.96852291
0.95323567
0.93795141
0.92266994
0.90739108
0.89211466
0.87684054
0.86156856
0.84629859
0.83103049
0.81576416
0.80049947
0.78523632
0.76997461
0.75471425
0.73945514
0.72419722
0.7089404
0.69368461
0.67842977
0.66317584
0.64792274
0.63267043
0.61741885
0.60216794
0.58691767
0.571668
0.55641887
0.54117026
0.52592212
0.51067443
0.49542715
0.48018026
0.46493372
0.44968752
0.43444162
0.41919601
0.40395066
0.38870556
0.37346069
0.35821603
0.34297156
0.32772728
0.31248316
0.29723919
0.28199537
0.26675167
0.2515081
0.23626464
0.22102128
0.20577802
0.19053484
0.17529174
0.16004872
0.14480576
0.12956286
0.11432001
0.09907722
0.083834473
0.068591767
0.0533491
0.038106465
0.022863865
0.0076212761
1.5268038
1.5102554
1.4940007
1.4779639
1.4620747
1.4462858
1.4305686
1.4149068
1.3992903
1.3837117
1.3681648
1.3526443
1.3371463
1.321668
1.306207
1.2907619
1.2753312
1.2599136
1.244508
1.2291136
1.2137294
1.1983547
1.1829888
1.1676311
1.152281
1.136938
1.1216016
1.1062714
1.0909469
1.0756278
1.0603137
1.0450044
1.0296994
1.0143985
0.99910146
0.98380802
0.96851796
0.95323105
0.9379471
0.92266592
0.90738733
0.89211117
0.87683728
0.86156552
0.84629575
0.83102785
0.8157617
0.80049717
0.78523418
0.76997262
0.7547124
0.73945343
0.72419562
0.70893891
0.69368323
0.67842849
0.66317465
0.64792164
0.63266941
0.6174179
0.60216706
0.58691686
0.57166724
0.55641817
0.54116961
0.52592153
0.51067388
0.49542665
0.48017979
0.46493329
0.44968712
0.43444126
0.41919568
0.40395036
0.38870528
0.37346043
0.35821579
0.34297135
0.32772708
0.31248298
0.29723903
0.28199522
0.26675154
0.25150798
0.23626453
0.22102118
0.20577793
0.19053476
0.17529167
0.16004865
0.1448057
0.1295628
0.11431997
0.099077179
0.083834436
0.068591735
0.053349071
0.038106441
0.022863843
0.0076212655
)
;

boundaryField
{
    top
    {
        type            zeroGradient;
    }
    inlet
    {
        type            fixedValue;
        value           uniform 1.5352;
    }
    outlet
    {
        type            fixedValue;
        value           uniform 0;
    }
    bottom
    {
        type            zeroGradient;
    }
    back
    {
        type            empty;
    }
    front
    {
        type            empty;
    }
}


// ************************************************************************* //
