/*--------------------------------*- C++ -*----------------------------------*\
| =========                 |                                                 |
| \\      /  F ield         | OpenFOAM: The Open Source CFD Toolbox           |
|  \\    /   O peration     | Version:  2112                                  |
|   \\  /    A nd           | Website:  www.openfoam.com                      |
|    \\/     M anipulation  |                                                 |
\*---------------------------------------------------------------------------*/
FoamFile
{
    version     2.0;
    format      ascii;
    arch        "LSB;label=32;scalar=64";
    class       surfaceScalarField;
    location    "16";
    object      phi;
}
// * * * * * * * * * * * * * * * * * * * * * * * * * * * * * * * * * * * * * //

dimensions      [0 3 -1 0 0 0 0];

oriented        oriented;

internalField   nonuniform List<scalar> 
1890
(
0.0032304518
1.8382125e-06
0.0032241713
6.2815055e-06
0.0032163066
7.8650306e-06
0.0032090874
7.2189609e-06
0.0032032788
5.8081233e-06
0.003198698
4.5803065e-06
0.0031949414
3.7562328e-06
0.003191724
3.2170394e-06
0.0031889093
2.8143597e-06
0.0031864364
2.4725517e-06
0.0031842608
2.1753703e-06
0.0031823348
1.9256841e-06
0.0031806124
1.7222006e-06
0.0031790558
1.5564316e-06
0.0031776378
1.4178745e-06
0.0031763393
1.2983558e-06
0.0031751462
1.1930108e-06
0.0031740468
1.0992078e-06
0.0031730315
1.0152613e-06
0.0031720916
9.3976212e-07
0.0031712201
8.7144788e-07
0.0031704108
8.0926001e-07
0.0031696584
7.5237308e-07
0.0031689582
7.0015062e-07
0.003168306
6.5208502e-07
0.0031676982
6.077464e-07
0.0031671314
5.6676349e-07
0.0031666026
5.2881011e-07
0.003166109
4.9360476e-07
0.003165648
4.6089996e-07
0.0031652175
4.3048122e-07
0.0031648154
4.0215637e-07
0.0031644396
3.7575696e-07
0.0031640884
3.5112974e-07
0.0031637603
3.281399e-07
0.0031634536
3.0666325e-07
0.003163167
2.8659041e-07
0.0031628992
2.6781935e-07
0.0031626489
2.5026008e-07
0.0031624151
2.3382748e-07
0.0031621966
2.1844656e-07
0.0031619926
2.0404552e-07
0.003161802
1.9056121e-07
0.0031616241
1.7793237e-07
0.003161458
1.6610531e-07
0.003161303
1.5502731e-07
0.0031611583
1.446524e-07
0.0031610234
1.3493481e-07
0.0031608976
1.2583488e-07
0.0031607802
1.1731264e-07
0.0031606709
1.0933376e-07
0.0031605691
1.018631e-07
0.0031604742
9.4870764e-08
0.0031603859
8.8325819e-08
0.0031603037
8.2202188e-08
0.0031602272
7.6472485e-08
0.0031601561
7.1113913e-08
0.00316009
6.610222e-08
0.0031600286
6.1417492e-08
0.0031599716
5.703816e-08
0.0031599186
5.2946798e-08
0.0031598695
4.9124245e-08
0.0031598239
4.5555285e-08
0.0031597817
4.2222821e-08
0.0031597426
3.9113543e-08
0.0031597064
3.6212224e-08
0.0031596729
3.350726e-08
0.0031596419
3.0985018e-08
0.0031596133
2.8635364e-08
0.0031595868
2.6446117e-08
0.0031595624
2.4408475e-08
0.0031595399
2.2511487e-08
0.0031595192
2.0747496e-08
0.0031595001
1.9106685e-08
0.0031594825
1.7582447e-08
0.0031594664
1.616592e-08
0.0031594515
1.4851411e-08
0.0031594379
1.3630932e-08
0.0031594254
1.2499671e-08
0.0031594139
1.1450325e-08
0.0031594035
1.0478903e-08
0.0031593939
9.5786658e-09
0.0031593852
8.7465279e-09
0.0031593772
7.9760086e-09
0.0031593699
7.2650895e-09
0.0031593633
6.6071552e-09
0.0031593573
6.0017572e-09
0.0031593519
5.4412942e-09
0.0031593469
4.9278234e-09
0.0031593425
4.4513464e-09
0.0031593385
4.018287e-09
0.0031593349
3.6136407e-09
0.0031593316
3.2513479e-09
0.0031593287
2.907191e-09
0.0031593261
2.607163e-09
0.0031593238
2.3128366e-09
0.0031593217
2.0674173e-09
0.0031593199
1.8178392e-09
0.0031593183
1.6227786e-09
1.4867214e-09
0.0081044552
1.9695245e-06
0.0081020856
8.6524264e-06
0.0080976389
1.2312184e-05
0.0080923333
1.2524405e-05
0.0080870847
1.1056282e-05
0.0080821699
9.4946853e-06
0.0080775694
8.3564092e-06
0.008073239
7.5471681e-06
0.0080691813
6.8717507e-06
0.0080654192
6.2344339e-06
0.0080619602
5.6341231e-06
0.0080587892
5.0964535e-06
0.0080558789
4.6322929e-06
0.0080532011
4.2340789e-06
0.0080507316
3.8872618e-06
0.0080484503
3.5795285e-06
0.0080463399
3.3032881e-06
0.0080443849
3.0541457e-06
0.0080425712
2.8289022e-06
0.0080408863
2.6246153e-06
0.0080393191
2.4385295e-06
0.00803786
2.2682663e-06
0.0080365005
2.1118951e-06
0.0080352327
1.9678704e-06
0.0080340498
1.8349131e-06
0.0080329456
1.7119307e-06
0.0080319144
1.5979675e-06
0.008030951
1.4921898e-06
0.0080300507
1.3938662e-06
0.0080292092
1.3023587e-06
0.0080284226
1.2171017e-06
0.0080276871
1.1375953e-06
0.0080269995
1.0633897e-06
0.0080263565
9.9408379e-07
0.0080257553
9.2931283e-07
0.0080251932
8.6874978e-07
0.0080246677
8.1209454e-07
0.0080241764
7.5907676e-07
0.0080237172
7.0944611e-07
0.0080232881
6.6297607e-07
0.0080228871
6.1945523e-07
0.0080225124
5.786919e-07
0.0080221625
5.4050584e-07
0.0080218357
5.0473325e-07
0.0080215306
4.7121904e-07
0.0080212458
4.398223e-07
0.00802098
4.1040875e-07
0.0080207321
3.8285625e-07
0.0080205009
3.5704776e-07
0.0080202853
3.3287702e-07
0.0080200844
3.1024159e-07
0.0080198972
2.8904854e-07
0.0080197229
2.692078e-07
0.0080195606
2.5063795e-07
0.0080194095
2.3325966e-07
0.008019269
2.1700132e-07
0.0080191383
2.0179283e-07
0.0080190169
1.8757125e-07
0.008018904
1.742746e-07
0.0080187992
1.6184742e-07
0.0080187019
1.5023475e-07
0.0080186117
1.3938781e-07
0.008018528
1.2925792e-07
0.0080184504
1.1980206e-07
0.0080183785
1.10977e-07
0.008018312
1.0274489e-07
0.0080182504
9.5067425e-08
0.0080181935
8.7911193e-08
0.0080181409
8.1242135e-08
0.0080180923
7.50309e-08
0.0080180475
6.9247264e-08
0.0080180061
6.3865342e-08
0.008017968
5.8858237e-08
0.0080179329
5.4203225e-08
0.0080179006
4.9876451e-08
0.008017871
4.5857871e-08
0.0080178437
4.2126294e-08
0.0080178187
3.8664107e-08
0.0080177957
3.5452647e-08
0.0080177747
3.2476231e-08
0.0080177555
2.9718554e-08
0.0080177379
2.71655e-08
0.0080177218
2.4803337e-08
0.0080177072
2.261866e-08
0.0080176938
2.0600808e-08
0.0080176817
1.8735895e-08
0.0080176707
1.701785e-08
0.0080176607
1.5429689e-08
0.0080176517
1.3973052e-08
0.0080176435
1.2622975e-08
0.0080176361
1.1395643e-08
0.0080176295
1.0247952e-08
0.0080176235
9.2245071e-09
0.0080176182
8.2433776e-09
0.0080176134
7.4073302e-09
0.0080176091
6.5531846e-09
0.0080176053
5.9072411e-09
0.008017602
5.1331232e-09
0.0080175989
4.7338038e-09
3.9550618e-09
0.011558377
1.4233804e-06
0.011559854
7.1763978e-06
0.011561166
1.0999887e-05
0.011561822
1.1868496e-05
0.01156196
1.0917496e-05
0.011561766
9.6883192e-06
0.011561316
8.8066203e-06
0.011560653
8.2099626e-06
0.011559828
7.696423e-06
0.011558899
7.1631855e-06
0.011557913
6.6193984e-06
0.011556904
6.1059605e-06
0.01155589
5.6456768e-06
0.011554887
5.2376496e-06
0.011553903
4.8707415e-06
0.011552947
4.5351356e-06
0.011552025
4.225616e-06
0.011551139
3.9398582e-06
0.011550292
3.6762083e-06
0.011549483
3.4327571e-06
0.011548714
3.2074344e-06
0.011547984
2.9983391e-06
0.011547292
2.8038976e-06
0.011546637
2.6228251e-06
0.011546018
2.45403e-06
0.011545434
2.2965385e-06
0.011544882
2.1494695e-06
0.011544362
2.0120244e-06
0.011543872
1.8834862e-06
0.011543412
1.7632078e-06
0.011542978
1.6506056e-06
0.011542571
1.5451459e-06
0.011542188
1.4463426e-06
0.011541828
1.3537475e-06
0.01154149
1.2669506e-06
0.011541173
1.1855719e-06
0.011540876
1.1092628e-06
0.011540598
1.0376982e-06
0.011540336
9.7057907e-07
0.011540092
9.0762528e-07
0.011539863
8.485785e-07
0.011539648
7.9319578e-07
0.011539447
7.4125274e-07
0.01153926
6.9253751e-07
0.011539084
6.4685434e-07
0.01153892
6.0401773e-07
0.011538766
5.6385618e-07
0.011538623
5.2620665e-07
0.011538489
4.909185e-07
0.011538364
4.5784807e-07
0.011538248
4.2686264e-07
0.011538139
3.9783532e-07
0.011538037
3.7064905e-07
0.011537943
3.4519156e-07
0.011537855
3.2135945e-07
0.011537773
2.9905325e-07
0.011537696
2.7818157e-07
0.011537625
2.5865626e-07
0.011537559
2.4039648e-07
0.011537498
2.2332402e-07
0.01153744
2.0736742e-07
0.011537387
1.9245732e-07
0.011537338
1.7853049e-07
0.011537292
1.6552536e-07
0.01153725
1.5338608e-07
0.011537211
1.4205801e-07
0.011537174
1.3149177e-07
0.01153714
1.2163886e-07
0.011537109
1.1245567e-07
0.01153708
1.0389919e-07
0.011537054
9.593088e-08
0.011537029
8.8512541e-08
0.011537006
8.1610221e-08
0.011536985
7.5189998e-08
0.011536966
6.9221957e-08
0.011536948
6.3675926e-08
0.011536932
5.8525691e-08
0.011536917
5.3744349e-08
0.011536903
4.9309066e-08
0.01153689
4.5195608e-08
0.011536878
4.1384511e-08
0.011536868
3.7853495e-08
0.011536858
3.458674e-08
0.011536849
3.1562647e-08
0.011536841
2.8770227e-08
0.011536833
2.6186261e-08
0.011536827
2.3807371e-08
0.01153682
2.1603911e-08
0.011536815
1.9586627e-08
0.01153681
1.7709437e-08
0.011536805
1.601135e-08
0.011536801
1.4408527e-08
0.011536797
1.2998494e-08
0.011536794
1.1615088e-08
0.011536791
1.0479254e-08
0.011536788
9.251271e-09
0.011536786
8.4067616e-09
0.011536783
7.2525391e-09
0.011536781
6.7707948e-09
5.625376e-09
0.013757492
7.235155e-07
0.013760755
3.9145353e-06
0.013765516
6.2386347e-06
0.013770437
6.9468406e-06
0.013774836
6.5182209e-06
0.013778672
5.8518906e-06
0.013782091
5.3873345e-06
0.013785203
5.0977862e-06
0.013788046
4.8535746e-06
0.013790627
4.5818995e-06
0.013792958
4.2879504e-06
0.013795063
4.0010734e-06
0.013796969
3.7390833e-06
0.013798703
3.5033975e-06
0.013800286
3.2879103e-06
0.013801734
3.0870936e-06
0.013803061
2.8984396e-06
0.01380428
2.7213056e-06
0.0138054
2.5553629e-06
0.013806433
2.3999696e-06
0.013807386
2.2542567e-06
0.013808267
2.1173873e-06
0.013809082
1.9886746e-06
0.013809837
1.867575e-06
0.013810538
1.7536198e-06
0.013811188
1.6463824e-06
0.013811792
1.545455e-06
0.013812353
1.4504618e-06
0.013812876
1.3610483e-06
0.013813362
1.2768923e-06
0.013813815
1.1976876e-06
0.013814237
1.1231538e-06
0.01381463
1.0530204e-06
0.013814997
9.8703949e-07
0.013815339
9.2497066e-07
0.013815658
8.6659436e-07
0.013815956
8.1169635e-07
0.013816233
7.6008177e-07
0.013816492
7.1155933e-07
0.013816734
6.6595586e-07
0.013816959
6.2310036e-07
0.01381717
5.8283883e-07
0.013817366
5.4501829e-07
0.013817549
5.0950187e-07
0.01381772
4.7615271e-07
0.013817879
4.4484911e-07
0.013818027
4.1546855e-07
0.013818166
3.8790294e-07
0.013818294
3.6204266e-07
0.013818414
3.3779166e-07
0.013818526
3.1505181e-07
0.01381863
2.9373795e-07
0.013818727
2.7376224e-07
0.013818817
2.5504914e-07
0.013818901
2.3752003e-07
0.013818979
2.2110808e-07
0.013819052
2.0574295e-07
0.013819119
1.9136548e-07
0.013819181
1.7791272e-07
0.013819239
1.6533249e-07
0.013819293
1.5356848e-07
0.013819343
1.4257463e-07
0.013819389
1.3230054e-07
0.013819432
1.2270569e-07
0.013819472
1.1374502e-07
0.013819508
1.0538287e-07
0.013819542
9.7578875e-08
0.013819574
9.0301786e-08
0.013819603
8.3515494e-08
0.013819629
7.7192583e-08
0.013819654
7.1300681e-08
0.013819677
6.5815912e-08
0.013819698
6.0709272e-08
0.013819717
5.5959832e-08
0.013819735
5.1541649e-08
0.013819751
4.7436523e-08
0.013819766
4.3621299e-08
0.013819779
4.008002e-08
0.013819792
3.6792102e-08
0.013819803
3.3743492e-08
0.013819814
3.0916228e-08
0.013819823
2.8297428e-08
0.013819832
2.5872081e-08
0.01381984
2.3627467e-08
0.013819847
2.1552701e-08
0.013819854
1.9632947e-08
0.01381986
1.7864189e-08
0.013819865
1.6225014e-08
0.01381987
1.4724605e-08
0.013819874
1.3325254e-08
0.013819878
1.2062938e-08
0.013819882
1.0863469e-08
0.013819885
9.8181013e-09
0.013819888
8.7757345e-09
0.01381989
7.9403319e-09
0.013819893
7.0051124e-09
0.013819895
6.3948831e-09
0.013819896
5.5018809e-09
0.013819898
5.1649153e-09
4.3027361e-09
0.014824618
3.4239033e-11
0.014828534
1.0550493e-10
0.014834772
4.6974504e-11
0.014841719
-8.0401892e-13
0.014848236
1.4368483e-11
0.014854087
8.998868e-11
0.014859474
1.6724668e-10
0.014864572
2.1056902e-10
0.014869425
2.2112736e-10
0.014874006
2.2276989e-10
0.014878294
2.2522909e-10
0.014882294
2.2817656e-10
0.014886033
2.257501e-10
0.014889536
2.174755e-10
0.014892824
2.040297e-10
0.014895911
1.8765774e-10
0.014898809
1.6962905e-10
0.01490153
1.5022608e-10
0.014904085
1.3046402e-10
0.014906485
1.0998983e-10
0.014908739
9.030356e-11
0.014910856
7.0596327e-11
0.014912845
5.2592125e-11
0.014914712
3.5028176e-11
0.014916466
1.9685295e-11
0.014918112
5.3375998e-12
0.014919658
-7.7541453e-12
0.014921108
-1.9852469e-11
0.014922469
-2.9347603e-11
0.014923746
-3.8624736e-11
0.014924944
-4.5514919e-11
0.014926067
-5.2353934e-11
0.01492712
-5.6925653e-11
0.014928107
-6.1878843e-11
0.014929032
-6.4800842e-11
0.014929899
-6.8290363e-11
0.01493071
-6.9871035e-11
0.014931471
-7.2328163e-11
0.014932182
-7.3028181e-11
0.014932848
-7.4626444e-11
0.014933471
-7.44734e-11
0.014934054
-7.5378346e-11
0.014934599
-7.4592341e-11
0.014935109
-7.4778724e-11
0.014935585
-7.3239282e-11
0.01493603
-7.2779243e-11
0.014936446
-7.0668831e-11
0.014936834
-6.9553855e-11
0.014937196
-6.6799835e-11
0.014937534
-6.5177209e-11
0.014937849
-6.2040201e-11
0.014938143
-5.9986669e-11
0.014938416
-5.646433e-11
0.014938671
-5.4174112e-11
0.014938909
-5.0547083e-11
0.01493913
-4.8096826e-11
0.014939336
-4.4337406e-11
0.014939527
-4.1869104e-11
0.014939705
-3.8188579e-11
0.014939871
-3.570749e-11
0.014940024
-3.2006829e-11
0.014940167
-2.9579715e-11
0.014940299
-2.6003006e-11
0.014940422
-2.3589425e-11
0.014940536
-2.0015937e-11
0.014940641
-1.7665689e-11
0.014940739
-1.4239872e-11
0.014940829
-1.1932777e-11
0.014940913
-8.58693e-12
0.01494099
-6.3989465e-12
0.014941061
-3.3561066e-12
0.014941127
-1.3274935e-12
0.014941188
1.6161625e-12
0.014941244
3.3059775e-12
0.014941295
5.8574206e-12
0.014941343
7.1807953e-12
0.014941386
9.4039626e-12
0.014941426
1.0287769e-11
0.014941463
1.2027107e-11
0.014941497
1.2493772e-11
0.014941528
1.386035e-11
0.014941556
1.3876194e-11
0.014941582
1.4772708e-11
0.014941605
1.4411682e-11
0.014941627
1.5000116e-11
0.014941647
1.4262303e-11
0.014941664
1.4481237e-11
0.014941681
1.3450971e-11
0.014941695
1.3469631e-11
0.014941709
1.2126131e-11
0.014941721
1.1777449e-11
0.014941732
9.906802e-12
0.014941741
9.1364837e-12
0.01494175
6.9000396e-12
0.014941758
6.1228418e-12
0.014941765
4.7174163e-12
0.014941772
3.6958149e-12
0.014941777
2.8999138e-12
0.014941782
-3.6379259e-13
-3.8361113e-12
0.014824617
-7.2358365e-07
0.014828533
-3.9149084e-06
0.014834772
-6.2389954e-06
0.014841718
-6.947005e-06
0.014848235
-6.5181853e-06
0.014854087
-5.8517486e-06
0.014859474
-5.3871163e-06
0.014864571
-5.0975072e-06
0.014869425
-4.8532511e-06
0.014874006
-4.5815413e-06
0.014878294
-4.2875697e-06
0.014882294
-4.0006809e-06
0.014886033
-3.7386919e-06
0.014889536
-3.5030171e-06
0.014892824
-3.2875497e-06
0.014895911
-3.0867587e-06
0.014898809
-2.8981353e-06
0.01490153
-2.7210352e-06
0.014904085
-2.5551281e-06
0.014906485
-2.3997714e-06
0.014908739
-2.2540945e-06
0.014910856
-2.1172606e-06
0.014912845
-1.9885811e-06
0.014914712
-1.8675131e-06
0.014916466
-1.7535864e-06
0.014918112
-1.6463756e-06
0.014919658
-1.5454719e-06
0.014921108
-1.4505003e-06
0.014922469
-1.3611048e-06
0.014923746
-1.2769652e-06
0.014924944
-1.1977734e-06
0.014926067
-1.1232514e-06
0.01492712
-1.0531268e-06
0.014928107
-9.871542e-07
0.014929032
-9.2509107e-07
0.014929899
-8.6672029e-07
0.014930711
-8.1182564e-07
0.014931471
-7.602147e-07
0.014932182
-7.1169389e-07
0.014932848
-6.6609246e-07
0.014933471
-6.2323717e-07
0.014934054
-5.8297645e-07
0.014934599
-5.4515486e-07
0.014935109
-5.0963793e-07
0.014935585
-4.7628648e-07
0.01493603
-4.4498122e-07
0.014936446
-4.1559721e-07
0.014936834
-3.8802876e-07
0.014937196
-3.6216398e-07
0.014937534
-3.3790926e-07
0.014937849
-3.1516411e-07
0.014938142
-2.9384574e-07
0.014938416
-2.7386414e-07
0.014938671
-2.5514616e-07
0.014938909
-2.3761088e-07
0.01493913
-2.2119377e-07
0.014939336
-2.0582235e-07
0.014939527
-1.9143976e-07
0.014939705
-1.7798077e-07
0.014939871
-1.6539541e-07
0.014940024
-1.5362525e-07
0.014940167
-1.4262643e-07
0.014940299
-1.3234632e-07
0.014940422
-1.2274654e-07
0.014940536
-1.1377997e-07
0.014940641
-1.0541306e-07
0.014940739
-9.7603332e-08
0.014940829
-9.0321592e-08
0.014940912
-8.3529779e-08
0.01494099
-7.7202534e-08
0.014941061
-7.1305476e-08
0.014941127
-6.5816647e-08
0.014941187
-6.070524e-08
0.014941243
-5.5952359e-08
0.014941295
-5.1530062e-08
0.014941342
-4.7422116e-08
0.014941386
-4.3603486e-08
0.014941426
-4.0060205e-08
0.014941463
-3.6769686e-08
0.014941497
-3.3719812e-08
0.014941527
-3.0890726e-08
0.014941556
-2.8271499e-08
0.014941582
-2.5845098e-08
0.014941605
-2.3600717e-08
0.014941627
-2.152555e-08
0.014941646
-1.9606719e-08
0.014941664
-1.7838146e-08
0.01494168
-1.6200389e-08
0.014941695
-1.470063e-08
0.014941709
-1.3303271e-08
0.014941721
-1.204219e-08
0.014941731
-1.0845471e-08
0.014941741
-9.8021424e-09
0.01494175
-8.7632503e-09
0.014941758
-7.9295224e-09
0.014941765
-6.9968303e-09
0.014941771
-6.3877639e-09
0.014941777
-5.4954664e-09
0.014941782
-5.1639524e-09
-4.3060175e-09
0.013757492
-1.4233656e-06
0.013760755
-7.1763007e-06
0.013765516
-1.0999831e-05
0.013770437
-1.1868526e-05
0.013774836
-1.091753e-05
0.013778672
-9.6883168e-06
0.013782091
-8.8065505e-06
0.013785203
-8.209835e-06
0.013788046
-7.6962428e-06
0.013790627
-7.1629683e-06
0.013792958
-6.6191502e-06
0.013795063
-6.1056942e-06
0.013796969
-5.6454e-06
0.013798704
-5.2373734e-06
0.013800286
-4.8704737e-06
0.013801734
-4.5348837e-06
0.013803061
-4.2253853e-06
0.01380428
-3.9396518e-06
0.013805401
-3.6760292e-06
0.013806434
-3.4326051e-06
0.013807387
-3.2073113e-06
0.013808268
-2.9982423e-06
0.013809083
-2.8038281e-06
0.013809838
-2.6227788e-06
0.013810538
-2.4540077e-06
0.013811188
-2.2965352e-06
0.013811792
-2.1494862e-06
0.013812354
-2.0120557e-06
0.013812876
-1.8835333e-06
0.013813363
-1.7632652e-06
0.013813816
-1.6506747e-06
0.013814237
-1.5452214e-06
0.013814631
-1.4464268e-06
0.013814997
-1.3538353e-06
0.013815339
-1.2670446e-06
0.013815658
-1.1856672e-06
0.013815956
-1.1093626e-06
0.013816233
-1.0377978e-06
0.013816492
-9.7068182e-07
0.013816734
-9.0772662e-07
0.013816959
-8.4868208e-07
0.01381717
-7.9329702e-07
0.013817366
-7.4135522e-07
0.013817549
-6.9263673e-07
0.01381772
-6.4695402e-07
0.013817879
-6.0411333e-07
0.013818027
-5.639513e-07
0.013818165
-5.2629687e-07
0.013818294
-4.9100758e-07
0.013818414
-4.5793163e-07
0.013818526
-4.2694438e-07
0.01381863
-3.9791104e-07
0.013818727
-3.7072263e-07
0.013818817
-3.4525891e-07
0.013818901
-3.2142437e-07
0.013818979
-2.9911184e-07
0.013819051
-2.7823777e-07
0.013819119
-2.5870624e-07
0.013819181
-2.4044404e-07
0.013819239
-2.2336547e-07
0.013819293
-2.0740664e-07
0.013819343
-1.9249062e-07
0.013819389
-1.7856158e-07
0.013819432
-1.6555066e-07
0.013819471
-1.5340935e-07
0.013819508
-1.4207568e-07
0.013819542
-1.3150745e-07
0.013819573
-1.2164908e-07
0.013819602
-1.1246414e-07
0.013819629
-1.0390246e-07
0.013819653
-9.5932544e-08
0.013819676
-8.8509309e-08
0.013819697
-8.1605776e-08
0.013819716
-7.5181116e-08
0.013819734
-6.921224e-08
0.01381975
-6.3662283e-08
0.013819765
-5.8511818e-08
0.013819779
-5.3727173e-08
0.013819791
-4.9292155e-08
0.013819803
-4.5175983e-08
0.013819813
-4.13658e-08
0.013819823
-3.7832688e-08
0.013819832
-3.4567308e-08
0.013819839
-3.1541631e-08
0.013819847
-2.8751137e-08
0.013819853
-2.6166073e-08
0.013819859
-2.3789452e-08
0.013819865
-2.1585244e-08
0.013819869
-1.9570669e-08
0.013819874
-1.7693122e-08
0.013819878
-1.599808e-08
0.013819881
-1.4395098e-08
0.013819885
-1.2988639e-08
0.013819887
-1.1605298e-08
0.01381989
-1.0472982e-08
0.013819892
-9.2450509e-09
0.013819894
-8.4015937e-09
0.013819896
-7.2464118e-09
0.013819898
-6.7637564e-09
-5.6197553e-09
0.011558376
-1.9694924e-06
0.011559854
-8.652239e-06
0.011561166
-1.2311956e-05
0.011561822
-1.2524313e-05
0.01156196
-1.1056377e-05
0.011561766
-9.4948852e-06
0.011561316
-8.3566038e-06
0.011560653
-7.547294e-06
0.011559828
-6.8717947e-06
0.011558899
-6.2344123e-06
0.011557914
-5.6340548e-06
0.011556904
-5.0963524e-06
0.011555891
-4.632168e-06
0.011554887
-4.233939e-06
0.011553903
-3.8871162e-06
0.011552948
-3.5793852e-06
0.011552025
-3.3031539e-06
0.01155114
-3.054024e-06
0.011550292
-2.8287961e-06
0.011549484
-2.6245255e-06
0.011548715
-2.438457e-06
0.011547985
-2.2682101e-06
0.011547293
-2.1118555e-06
0.011546638
-1.9678454e-06
0.011546019
-1.8349024e-06
0.011545434
-1.7119317e-06
0.011544883
-1.5979798e-06
0.011544363
-1.4922111e-06
0.011543873
-1.3938962e-06
0.011543412
-1.3023948e-06
0.011542979
-1.2171437e-06
0.011542571
-1.1376411e-06
0.011542188
-1.0634396e-06
0.011541828
-9.9413556e-07
0.011541491
-9.2936705e-07
0.011541174
-8.688047e-07
0.011540877
-8.1215099e-07
0.011540598
-7.5913295e-07
0.011540337
-7.0950301e-07
0.011540092
-6.6303222e-07
0.011539863
-6.1951171e-07
0.011539648
-5.7874709e-07
0.011539447
-5.4056082e-07
0.01153926
-5.0478661e-07
0.011539084
-4.7127189e-07
0.01153892
-4.3987303e-07
0.011538766
-4.1045843e-07
0.011538623
-3.8290352e-07
0.011538489
-3.5709372e-07
0.011538364
-3.3292013e-07
0.011538247
-3.10283e-07
0.011538138
-2.8908698e-07
0.011538037
-2.6924446e-07
0.011537942
-2.5067145e-07
0.011537854
-2.3329122e-07
0.011537772
-2.1702984e-07
0.011537696
-2.0181956e-07
0.011537625
-1.8759495e-07
0.011537558
-1.7429651e-07
0.011537497
-1.6186651e-07
0.01153744
-1.5025228e-07
0.011537387
-1.3940258e-07
0.011537337
-1.2927115e-07
0.011537292
-1.1981272e-07
0.011537249
-1.109863e-07
0.01153721
-1.0275164e-07
0.011537174
-9.507279e-08
0.01153714
-8.791419e-08
0.011537109
-8.1243933e-08
0.01153708
-7.5030374e-08
0.011537053
-6.9245573e-08
0.011537028
-6.3861573e-08
0.011537006
-5.8853572e-08
0.011536985
-5.4196633e-08
0.011536965
-4.9869127e-08
0.011536948
-4.5848995e-08
0.011536931
-4.2117082e-08
0.011536916
-3.8653596e-08
0.011536902
-3.5442035e-08
0.01153689
-3.246474e-08
0.011536878
-2.9707383e-08
0.011536867
-2.7153702e-08
0.011536857
-2.4792074e-08
0.011536848
-2.2607139e-08
0.01153684
-2.0590178e-08
0.011536833
-1.8725181e-08
0.011536826
-1.7008173e-08
0.01153682
-1.5420206e-08
0.011536814
-1.39649e-08
0.011536809
-1.2615109e-08
0.011536805
-1.1389151e-08
0.011536801
-1.0241693e-08
0.011536797
-9.2195392e-09
0.011536793
-8.2383022e-09
0.01153679
-7.4039206e-09
0.011536788
-6.5505209e-09
0.011536785
-5.9041071e-09
0.011536783
-5.1286617e-09
0.011536781
-4.7229341e-09
-3.9430009e-09
0.0081044555
-1.8381156e-06
0.0081020859
-6.2813585e-06
0.0080976393
-7.8649292e-06
0.0080923338
-7.2189769e-06
0.0080870852
-5.8083144e-06
0.0080821704
-4.5806188e-06
0.0080775698
-3.7565684e-06
0.0080732393
-3.2173122e-06
0.0080691816
-2.8145488e-06
0.0080654195
-2.4726689e-06
0.0080619605
-2.1754417e-06
0.0080587895
-1.9257242e-06
0.0080558793
-1.7222187e-06
0.0080532015
-1.5564325e-06
0.008050732
-1.4178639e-06
0.0080484508
-1.2983398e-06
0.0080463404
-1.1929932e-06
0.0080443854
-1.0991923e-06
0.0080425718
-1.0152484e-06
0.0080408869
-9.397537e-07
0.0080393197
-8.7144272e-07
0.0080378607
-8.0925994e-07
0.0080365011
-7.5237599e-07
0.0080352334
-7.0015829e-07
0.0080340505
-6.5209471e-07
0.0080329462
-6.0776005e-07
0.008031915
-5.6677814e-07
0.0080309516
-5.2882795e-07
0.0080300512
-4.9362258e-07
0.0080292097
-4.6092016e-07
0.0080284231
-4.3050057e-07
0.0080276876
-4.0217749e-07
0.0080269999
-3.7577656e-07
0.0080263569
-3.5115066e-07
0.0080257556
-3.2815893e-07
0.0080251935
-3.0668339e-07
0.0080246679
-2.8660841e-07
0.0080241766
-2.6783835e-07
0.0080237174
-2.5027691e-07
0.0080232882
-2.3384533e-07
0.0080228872
-2.1846218e-07
0.0080225125
-2.0406212e-07
0.0080221625
-1.9057562e-07
0.0080218356
-1.7794777e-07
0.0080215305
-1.6611842e-07
0.0080212457
-1.5504131e-07
0.0080209799
-1.4466411e-07
0.0080207319
-1.3494734e-07
0.0080205007
-1.2584499e-07
0.0080202851
-1.1732348e-07
0.0080200841
-1.0934219e-07
0.0080198969
-1.0187225e-07
0.0080197226
-9.4877481e-08
0.0080195602
-8.8333233e-08
0.0080194092
-8.2207291e-08
0.0080192686
-7.647837e-08
0.0080191379
-7.1117545e-08
0.0080190164
-6.6106684e-08
0.0080189036
-6.1419867e-08
0.0080187987
-5.7041467e-08
0.0080187014
-5.2948071e-08
0.0080186112
-4.9126472e-08
0.0080185275
-4.5555595e-08
0.0080184499
-4.2224128e-08
0.008018378
-3.9112928e-08
0.0080183115
-3.6212572e-08
0.0080182499
-3.350575e-08
0.008018193
-3.0984474e-08
0.0080181404
-2.863293e-08
0.0080180918
-2.6444615e-08
0.008018047
-2.4405156e-08
0.0080180056
-2.2509135e-08
0.0080179675
-2.0743337e-08
0.0080179324
-1.9103517e-08
0.0080179002
-1.7577612e-08
0.0080178705
-1.6162184e-08
0.0080178432
-1.4846086e-08
0.0080178182
-1.3626794e-08
0.0080177953
-1.2494128e-08
0.0080177742
-1.1446113e-08
0.008017755
-1.0473383e-08
0.0080177374
-9.5745744e-09
0.0080177214
-8.7413023e-09
0.0080177068
-7.9723345e-09
0.0080176934
-7.2603454e-09
0.0080176813
-6.6040228e-09
0.0080176703
-5.9976812e-09
0.0080176603
-5.4389091e-09
0.0080176513
-4.9245312e-09
0.0080176431
-4.4497403e-09
0.0080176358
-4.0157049e-09
0.0080176291
-3.6124667e-09
0.0080176232
-3.2486088e-09
0.0080176178
-2.9057106e-09
0.008017613
-2.6048682e-09
0.0080176088
-2.3112334e-09
0.008017605
-2.0655441e-09
0.0080176017
-1.8160499e-09
0.0080175986
-1.616103e-09
-1.4776094e-09
0.0032304528
0.0032241719
0.003216307
0.0032090878
0.0032032791
0.0031986982
0.0031949414
0.0031917238
0.003188909
0.0031864362
0.0031842605
0.0031823346
0.0031806123
0.0031790557
0.0031776377
0.0031763393
0.0031751462
0.0031740469
0.0031730316
0.0031720918
0.0031712203
0.003170411
0.0031696586
0.0031689584
0.0031683063
0.0031676985
0.0031671317
0.0031666028
0.0031661092
0.0031656482
0.0031652177
0.0031648155
0.0031644397
0.0031640886
0.0031637604
0.0031634537
0.0031631671
0.0031628993
0.003162649
0.0031624151
0.0031621967
0.0031619926
0.003161802
0.0031616241
0.003161458
0.0031613029
0.0031611583
0.0031610233
0.0031608975
0.0031607801
0.0031606708
0.0031605689
0.0031604741
0.0031603857
0.0031603035
0.0031602271
0.0031601559
0.0031600898
0.0031600284
0.0031599714
0.0031599184
0.0031598693
0.0031598238
0.0031597815
0.0031597424
0.0031597062
0.0031596727
0.0031596417
0.0031596131
0.0031595867
0.0031595623
0.0031595398
0.003159519
0.0031594999
0.0031594824
0.0031594662
0.0031594514
0.0031594377
0.0031594252
0.0031594138
0.0031594033
0.0031593938
0.003159385
0.003159377
0.0031593698
0.0031593632
0.0031593572
0.0031593518
0.0031593468
0.0031593424
0.0031593384
0.0031593348
0.0031593315
0.0031593286
0.003159326
0.0031593237
0.0031593216
0.0031593198
0.0031593182
)
;

boundaryField
{
    top
    {
        type            calculated;
        value           uniform 0;
    }
    inlet
    {
        type            calculated;
        value           nonuniform List<scalar> 10(-0.0032322888 -0.0081045855 -0.011557829 -0.013756791 -0.014823894 -0.014823892 -0.013756791 -0.011557829 -0.0081045859 -0.0032322902);
    }
    outlet
    {
        type            calculated;
        value           nonuniform List<scalar> 10(0.0031593168 0.0080175964 0.01153678 0.013819899 0.014941786 0.014941786 0.013819899 0.011536779 0.0080175961 0.0031593167);
    }
    bottom
    {
        type            calculated;
        value           uniform 0;
    }
    back
    {
        type            empty;
        value           nonuniform List<scalar> 0();
    }
    front
    {
        type            empty;
        value           nonuniform List<scalar> 0();
    }
}


// ************************************************************************* //
