/*--------------------------------*- C++ -*----------------------------------*\
| =========                 |                                                 |
| \\      /  F ield         | OpenFOAM: The Open Source CFD Toolbox           |
|  \\    /   O peration     | Version:  2112                                  |
|   \\  /    A nd           | Website:  www.openfoam.com                      |
|    \\/     M anipulation  |                                                 |
\*---------------------------------------------------------------------------*/
FoamFile
{
    version     2.0;
    format      ascii;
    arch        "LSB;label=32;scalar=64";
    class       volVectorField;
    location    "16";
    object      U;
}
// * * * * * * * * * * * * * * * * * * * * * * * * * * * * * * * * * * * * * //

dimensions      [0 1 -1 0 0 0 0];

internalField   nonuniform List<vector> 
1000
(
(0.32318469 0.00015947946 0)
(0.32284371 0.00048087762 0)
(0.32206824 0.00054393146 0)
(0.32126483 0.00042870752 0)
(0.32060072 0.00028689072 0)
(0.32008409 0.00019175232 0)
(0.31967209 0.00014319307 0)
(0.31932634 0.00011821617 0)
(0.319026 0.00010072859 0)
(0.31876221 8.563209e-05 0)
(0.31853032 7.304274e-05 0)
(0.31832585 6.3518989e-05 0)
(0.31814404 5.6656141e-05 0)
(0.3179806 5.1529185e-05 0)
(0.31783226 4.7342561e-05 0)
(0.31769673 4.3666892e-05 0)
(0.31757238 4.0349465e-05 0)
(0.31745795 3.7349795e-05 0)
(0.31735238 3.4640121e-05 0)
(0.31725477 3.2181307e-05 0)
(0.31716433 2.9932959e-05 0)
(0.31708039 2.7863851e-05 0)
(0.3170024 2.595333e-05 0)
(0.31692985 2.418699e-05 0)
(0.31686231 2.2552897e-05 0)
(0.31679938 2.1039656e-05 0)
(0.31674071 1.9636589e-05 0)
(0.31668599 1.833385e-05 0)
(0.31663492 1.7122854e-05 0)
(0.31658723 1.5995892e-05 0)
(0.3165427 1.4946226e-05 0)
(0.31650111 1.3967645e-05 0)
(0.31646225 1.3054681e-05 0)
(0.31642594 1.2202245e-05 0)
(0.316392 1.1405891e-05 0)
(0.31636029 1.0661435e-05 0)
(0.31633065 9.9652427e-06 0)
(0.31630295 9.3138425e-06 0)
(0.31627707 8.7042259e-06 0)
(0.31625289 8.1334714e-06 0)
(0.3162303 7.5990628e-06 0)
(0.31620919 7.0985209e-06 0)
(0.31618948 6.6297239e-06 0)
(0.31617107 6.1905416e-06 0)
(0.31615388 5.7791677e-06 0)
(0.31613784 5.3937606e-06 0)
(0.31612287 5.0327729e-06 0)
(0.3161089 4.694595e-06 0)
(0.31609587 4.3778914e-06 0)
(0.31608373 4.0812515e-06 0)
(0.31607241 3.803519e-06 0)
(0.31606186 3.543446e-06 0)
(0.31605203 3.3000271e-06 0)
(0.31604288 3.0721592e-06 0)
(0.31603436 2.858968e-06 0)
(0.31602644 2.659471e-06 0)
(0.31601906 2.4729062e-06 0)
(0.31601221 2.2984015e-06 0)
(0.31600584 2.1352946e-06 0)
(0.31599993 1.9828055e-06 0)
(0.31599443 1.8403574e-06 0)
(0.31598933 1.7072563e-06 0)
(0.31598461 1.5830022e-06 0)
(0.31598022 1.4669715e-06 0)
(0.31597616 1.3587298e-06 0)
(0.3159724 1.2577204e-06 0)
(0.31596892 1.1635679e-06 0)
(0.31596569 1.0757697e-06 0)
(0.31596272 9.9400018e-07 0)
(0.31595997 9.1780918e-07 0)
(0.31595743 8.4691671e-07 0)
(0.31595508 7.8091398e-07 0)
(0.31595292 7.1955974e-07 0)
(0.31595093 6.6248637e-07 0)
(0.3159491 6.0948876e-07 0)
(0.31594742 5.6023116e-07 0)
(0.31594587 5.1453959e-07 0)
(0.31594445 4.7211063e-07 0)
(0.31594314 4.328009e-07 0)
(0.31594195 3.9632977e-07 0)
(0.31594085 3.6258222e-07 0)
(0.31593985 3.3129911e-07 0)
(0.31593894 3.0239751e-07 0)
(0.3159381 2.7562578e-07 0)
(0.31593734 2.5093871e-07 0)
(0.31593665 2.2808106e-07 0)
(0.31593602 2.0706339e-07 0)
(0.31593545 1.875945e-07 0)
(0.31593493 1.697713e-07 0)
(0.31593446 1.5322381e-07 0)
(0.31593404 1.3819166e-07 0)
(0.31593366 1.2414962e-07 0)
(0.31593332 1.1155285e-07 0)
(0.31593301 9.9643066e-08 0)
(0.31593274 8.9116589e-08 0)
(0.31593249 7.905363e-08 0)
(0.31593227 7.0168958e-08 0)
(0.31593207 6.2203312e-08 0)
(0.31593192 5.4553672e-08 0)
(0.31593172 5.3403325e-08 0)
(0.81033148 0.00017533499 0)
(0.81064262 0.00079320256 0)
(0.81018776 0.0011436478 0)
(0.80953325 0.0011508304 0)
(0.80894404 0.00098566544 0)
(0.80844205 0.00080701633 0)
(0.80798332 0.00067572291 0)
(0.80754306 0.00058628843 0)
(0.8071215 0.00051756177 0)
(0.8067268 0.00045734456 0)
(0.80636382 0.00040348851 0)
(0.80603217 0.00035731258 0)
(0.80572867 0.00031920499 0)
(0.80544984 0.00028796142 0)
(0.80519285 0.00026180752 0)
(0.80495557 0.0002392924 0)
(0.80473623 0.0002195233 0)
(0.80453321 0.00020199579 0)
(0.80434502 0.00018637299 0)
(0.80417032 0.00017237115 0)
(0.80400793 0.0001597386 0)
(0.8038568 0.00014826627 0)
(0.80371603 0.00013779149 0)
(0.80358481 0.00012818945 0)
(0.80346241 0.00011936103 0)
(0.80334818 0.00011122351 0)
(0.80324152 0.00010370593 0)
(0.80314189 9.6746941e-05 0)
(0.8030488 9.0293607e-05 0)
(0.80296179 8.4300034e-05 0)
(0.80288047 7.8726225e-05 0)
(0.80280444 7.3536872e-05 0)
(0.80273335 6.8700695e-05 0)
(0.80266688 6.4189708e-05 0)
(0.80260473 5.9978903e-05 0)
(0.80254662 5.6045707e-05 0)
(0.80249229 5.2369809e-05 0)
(0.8024415 4.8932721e-05 0)
(0.80239402 4.5717695e-05 0)
(0.80234965 4.2709361e-05 0)
(0.80230818 3.989372e-05 0)
(0.80226943 3.7257841e-05 0)
(0.80223324 3.4789899e-05 0)
(0.80219943 3.2478897e-05 0)
(0.80216787 3.0314744e-05 0)
(0.8021384 2.8288006e-05 0)
(0.8021109 2.6390009e-05 0)
(0.80208524 2.4612595e-05 0)
(0.8020613 2.2948249e-05 0)
(0.80203899 2.138988e-05 0)
(0.80201819 1.9930946e-05 0)
(0.8019988 1.8565245e-05 0)
(0.80198074 1.7287056e-05 0)
(0.80196393 1.6090939e-05 0)
(0.80194827 1.497188e-05 0)
(0.80193371 1.3925088e-05 0)
(0.80192016 1.2946152e-05 0)
(0.80190757 1.2030852e-05 0)
(0.80189587 1.1175309e-05 0)
(0.801885 1.0375793e-05 0)
(0.8018749 9.628882e-06 0)
(0.80186554 8.931285e-06 0)
(0.80185685 8.2799878e-06 0)
(0.80184879 7.6720765e-06 0)
(0.80184133 7.1048892e-06 0)
(0.80183442 6.5758503e-06 0)
(0.80182802 6.082615e-06 0)
(0.8018221 5.6228997e-06 0)
(0.80181663 5.1946318e-06 0)
(0.80181158 4.795791e-06 0)
(0.80180691 4.424552e-06 0)
(0.80180261 4.0791207e-06 0)
(0.80179864 3.7578835e-06 0)
(0.80179499 3.4592517e-06 0)
(0.80179162 3.1818078e-06 0)
(0.80178853 2.9241379e-06 0)
(0.80178568 2.6849934e-06 0)
(0.80178307 2.4631186e-06 0)
(0.80178068 2.2574268e-06 0)
(0.80177848 2.0667904e-06 0)
(0.80177647 1.8902712e-06 0)
(0.80177463 1.726846e-06 0)
(0.80177295 1.5757388e-06 0)
(0.80177142 1.4359818e-06 0)
(0.80177003 1.3069837e-06 0)
(0.80176875 1.187766e-06 0)
(0.8017676 1.0780032e-06 0)
(0.80176655 9.7656857e-07 0)
(0.8017656 8.8355303e-07 0)
(0.80176474 7.9744362e-07 0)
(0.80176397 7.1906442e-07 0)
(0.80176327 6.460599e-07 0)
(0.80176264 5.8056682e-07 0)
(0.80176207 5.1855084e-07 0)
(0.80176157 4.6458972e-07 0)
(0.80176111 4.1141707e-07 0)
(0.80176073 3.6843887e-07 0)
(0.80176033 3.2196465e-07 0)
(0.80176009 2.9211273e-07 0)
(0.80175967 2.5200874e-07 0)
(1.1555293 0.00013911714 0)
(1.1564079 0.00073210252 0)
(1.1564222 0.0011706517 0)
(1.1562242 0.0013038593 0)
(1.1561284 0.0012317137 0)
(1.1561327 0.0011002825 0)
(1.1561457 0.00098847497 0)
(1.1561156 0.00090702065 0)
(1.1560422 0.00084016018 0)
(1.1559461 0.00077569487 0)
(1.1558436 0.00071168946 0)
(1.1557414 0.00065119728 0)
(1.1556402 0.00059677169 0)
(1.1555397 0.00054877863 0)
(1.1554403 0.00050623314 0)
(1.1553429 0.00046798461 0)
(1.1552486 0.00043325324 0)
(1.1551579 0.00040160035 0)
(1.1550711 0.00037272996 0)
(1.1549883 0.00034636434 0)
(1.1549094 0.00032222321 0)
(1.1548344 0.00030004716 0)
(1.1547633 0.00027961548 0)
(1.1546959 0.00026074646 0)
(1.1546322 0.00024328789 0)
(1.154572 0.00022710824 0)
(1.1545152 0.00021209139 0)
(1.1544617 0.00019813447 0)
(1.1544112 0.00018514648 0)
(1.1543637 0.000173047 0)
(1.154319 0.00016176456 0)
(1.154277 0.00015123535 0)
(1.1542375 0.00014140198 0)
(1.1542004 0.00013221274 0)
(1.1541655 0.00012362074 0)
(1.1541328 0.00011558346 0)
(1.1541021 0.00010806209 0)
(1.1540734 0.00010102123 0)
(1.1540464 9.4428379e-05 0)
(1.1540211 8.825372e-05 0)
(1.1539974 8.2469712e-05 0)
(1.1539753 7.7051001e-05 0)
(1.1539545 7.1974052e-05 0)
(1.1539351 6.7217115e-05 0)
(1.153917 6.2759917e-05 0)
(1.1539 5.8583676e-05 0)
(1.1538841 5.4670821e-05 0)
(1.1538693 5.1005031e-05 0)
(1.1538554 4.757099e-05 0)
(1.1538425 4.4354455e-05 0)
(1.1538304 4.1342022e-05 0)
(1.1538192 3.8521209e-05 0)
(1.1538087 3.5880243e-05 0)
(1.1537989 3.3408155e-05 0)
(1.1537898 3.1094582e-05 0)
(1.1537813 2.8929864e-05 0)
(1.1537733 2.6904855e-05 0)
(1.153766 2.5011036e-05 0)
(1.1537591 2.3240332e-05 0)
(1.1537527 2.1585221e-05 0)
(1.1537468 2.003856e-05 0)
(1.1537413 1.8593706e-05 0)
(1.1537362 1.7244343e-05 0)
(1.1537315 1.5984598e-05 0)
(1.1537271 1.4808881e-05 0)
(1.153723 1.3712e-05 0)
(1.1537192 1.2689012e-05 0)
(1.1537157 1.1735325e-05 0)
(1.1537124 1.0846559e-05 0)
(1.1537094 1.0018659e-05 0)
(1.1537067 9.2477515e-06 0)
(1.1537041 8.5302493e-06 0)
(1.1537017 7.862721e-06 0)
(1.1536996 7.2419967e-06 0)
(1.1536975 6.6650456e-06 0)
(1.1536957 6.1290625e-06 0)
(1.153694 5.6313725e-06 0)
(1.1536924 5.1694893e-06 0)
(1.153691 4.7410698e-06 0)
(1.1536896 4.3438911e-06 0)
(1.1536884 3.9759261e-06 0)
(1.1536873 3.635154e-06 0)
(1.1536863 3.3198877e-06 0)
(1.1536853 3.0282031e-06 0)
(1.1536845 2.7588305e-06 0)
(1.1536837 2.5097623e-06 0)
(1.153683 2.2803619e-06 0)
(1.1536823 2.0681671e-06 0)
(1.1536818 1.8736538e-06 0)
(1.1536812 1.6931461e-06 0)
(1.1536807 1.5293051e-06 0)
(1.1536803 1.3756147e-06 0)
(1.1536799 1.2392412e-06 0)
(1.1536796 1.1073413e-06 0)
(1.1536792 9.9669707e-07 0)
(1.1536789 8.8074858e-07 0)
(1.1536787 7.9683968e-07 0)
(1.1536784 6.8929553e-07 0)
(1.1536783 6.3859114e-07 0)
(1.153678 5.3124217e-07 0)
(1.375314 8.6922634e-05 0)
(1.3765508 0.0004946258 0)
(1.3768465 0.00083135863 0)
(1.3769274 0.00096703367 0)
(1.3771705 0.00094709808 0)
(1.3775738 0.00087092766 0)
(1.3780069 0.000801379 0)
(1.378384 0.00075176257 0)
(1.378692 0.00071187534 0)
(1.3789528 0.00067186364 0)
(1.3791875 0.00062956759 0)
(1.3794049 0.00058740245 0)
(1.3796056 0.00054789843 0)
(1.3797886 0.00051191691 0)
(1.3799547 0.00047908236 0)
(1.3801056 0.00044872954 0)
(1.3802436 0.00042041186 0)
(1.3803703 0.00039393095 0)
(1.3804869 0.00036919047 0)
(1.3805943 0.00034609084 0)
(1.3806934 0.0003245079 0)
(1.3807849 0.00030431315 0)
(1.3808695 0.00028539241 0)
(1.3809478 0.00026765051 0)
(1.3810204 0.0002510062 0)
(1.3810878 0.00023538701 0)
(1.3811504 0.00022072579 0)
(1.3812086 0.00020696038 0)
(1.3812626 0.00019403319 0)
(1.381313 0.00018189138 0)
(1.3813599 0.00017048596 0)
(1.3814035 0.00015977174 0)
(1.3814442 0.00014970638 0)
(1.3814822 0.0001402506 0)
(1.3815176 0.00013136748 0)
(1.3815506 0.00012302271 0)
(1.3815813 0.00011518395 0)
(1.38161 0.00010782113 0)
(1.3816368 0.0001009058 0)
(1.3816618 9.4411547e-05 0)
(1.3816852 8.831327e-05 0)
(1.3817069 8.2587674e-05 0)
(1.3817272 7.7212589e-05 0)
(1.3817461 7.2167438e-05 0)
(1.3817638 6.7432596e-05 0)
(1.3817803 6.2989866e-05 0)
(1.3817956 5.8821849e-05 0)
(1.3818099 5.4912432e-05 0)
(1.3818233 5.1246175e-05 0)
(1.3818357 4.7808801e-05 0)
(1.3818473 4.4586594e-05 0)
(1.3818581 4.1566895e-05 0)
(1.3818681 3.8737515e-05 0)
(1.3818774 3.608723e-05 0)
(1.3818861 3.3605199e-05 0)
(1.3818942 3.128147e-05 0)
(1.3819017 2.9106404e-05 0)
(1.3819087 2.7071177e-05 0)
(1.3819152 2.5167217e-05 0)
(1.3819212 2.3386703e-05 0)
(1.3819268 2.1722014e-05 0)
(1.3819319 2.0166224e-05 0)
(1.3819367 1.8712556e-05 0)
(1.3819412 1.7354877e-05 0)
(1.3819453 1.6087165e-05 0)
(1.3819491 1.4903994e-05 0)
(1.3819526 1.380001e-05 0)
(1.3819559 1.2770418e-05 0)
(1.3819589 1.1810459e-05 0)
(1.3819617 1.0915896e-05 0)
(1.3819642 1.0082501e-05 0)
(1.3819666 9.3065336e-06 0)
(1.3819688 8.5842434e-06 0)
(1.3819708 7.912324e-06 0)
(1.3819726 7.287448e-06 0)
(1.3819743 6.7066957e-06 0)
(1.3819759 6.1671265e-06 0)
(1.3819773 5.6661532e-06 0)
(1.3819786 5.2011933e-06 0)
(1.3819798 4.7699311e-06 0)
(1.3819809 4.3701414e-06 0)
(1.3819819 3.9996954e-06 0)
(1.3819828 3.656768e-06 0)
(1.3819836 3.3392727e-06 0)
(1.3819844 3.0459286e-06 0)
(1.3819851 2.7744106e-06 0)
(1.3819857 2.5243329e-06 0)
(1.3819863 2.2925493e-06 0)
(1.3819868 2.0803706e-06 0)
(1.3819872 1.882599e-06 0)
(1.3819876 1.70398e-06 0)
(1.381988 1.5346868e-06 0)
(1.3819883 1.3865359e-06 0)
(1.3819887 1.2398346e-06 0)
(1.3819889 1.120875e-06 0)
(1.3819892 9.8989983e-07 0)
(1.3819894 9.0175736e-07 0)
(1.3819896 7.7786042e-07 0)
(1.3819897 7.2652006e-07 0)
(1.3819899 6.000562e-07 0)
(1.4819614 2.9372864e-05 0)
(1.4833723 0.00017283878 0)
(1.4837947 0.00029672467 0)
(1.4839951 0.00035146544 0)
(1.4843896 0.00034890539 0)
(1.4849833 0.00032386474 0)
(1.4856283 0.00030012812 0)
(1.4862192 0.00028356355 0)
(1.4867342 0.00027068004 0)
(1.4871952 0.00025765335 0)
(1.4876252 0.00024348757 0)
(1.4880338 0.00022903444 0)
(1.488421 0.00021529253 0)
(1.4887848 0.00020265127 0)
(1.489125 0.00019100934 0)
(1.4894432 0.00018013369 0)
(1.4897416 0.00016986729 0)
(1.4900219 0.00016014942 0)
(1.4902853 0.00015096108 0)
(1.4905328 0.00014228247 0)
(1.4907652 0.00013408308 0)
(1.4909836 0.00012632883 0)
(1.4911886 0.00011898954 0)
(1.4913812 0.00011204093 0)
(1.491562 0.00010546294 0)
(1.4917318 9.9237634e-05 0)
(1.4918912 9.3348012e-05 0)
(1.4920408 8.7777811e-05 0)
(1.4921813 8.2511516e-05 0)
(1.492313 7.7534422e-05 0)
(1.4924366 7.283254e-05 0)
(1.4925525 6.839251e-05 0)
(1.4926612 6.4201475e-05 0)
(1.4927631 6.0247085e-05 0)
(1.4928586 5.6517449e-05 0)
(1.4929481 5.3001169e-05 0)
(1.4930319 4.9687285e-05 0)
(1.4931104 4.6565309e-05 0)
(1.4931839 4.3625175e-05 0)
(1.4932527 4.0857275e-05 0)
(1.4933171 3.82524e-05 0)
(1.4933774 3.5801779e-05 0)
(1.4934337 3.3497019e-05 0)
(1.4934864 3.133015e-05 0)
(1.4935356 2.9293555e-05 0)
(1.4935816 2.7380008e-05 0)
(1.4936246 2.5582616e-05 0)
(1.4936647 2.3894858e-05 0)
(1.4937022 2.2310513e-05 0)
(1.4937371 2.0823703e-05 0)
(1.4937697 1.9428827e-05 0)
(1.4938001 1.8120608e-05 0)
(1.4938285 1.6894017e-05 0)
(1.4938549 1.5744316e-05 0)
(1.4938795 1.4666998e-05 0)
(1.4939024 1.3657828e-05 0)
(1.4939237 1.2712774e-05 0)
(1.4939436 1.1828047e-05 0)
(1.493962 1.1000046e-05 0)
(1.4939791 1.0225397e-05 0)
(1.4939951 9.5008879e-06 0)
(1.4940099 8.8235086e-06 0)
(1.4940236 8.1903966e-06 0)
(1.4940363 7.5988781e-06 0)
(1.4940481 7.0464069e-06 0)
(1.4940591 6.5306017e-06 0)
(1.4940692 6.0491972e-06 0)
(1.4940786 5.6000826e-06 0)
(1.4940873 5.1812465e-06 0)
(1.4940953 4.7908111e-06 0)
(1.4941027 4.4269904e-06 0)
(1.4941095 4.0881218e-06 0)
(1.4941159 3.7726196e-06 0)
(1.4941217 3.4790098e-06 0)
(1.4941271 3.2058907e-06 0)
(1.494132 2.9519562e-06 0)
(1.4941365 2.7159712e-06 0)
(1.4941407 2.4967682e-06 0)
(1.4941446 2.2932689e-06 0)
(1.4941481 2.1044238e-06 0)
(1.4941513 1.929317e-06 0)
(1.4941543 1.7669653e-06 0)
(1.494157 1.616642e-06 0)
(1.4941594 1.4773617e-06 0)
(1.4941617 1.3486716e-06 0)
(1.4941637 1.2294234e-06 0)
(1.4941656 1.1196329e-06 0)
(1.4941673 1.0176811e-06 0)
(1.4941688 9.2448935e-07 0)
(1.4941702 8.3730564e-07 0)
(1.4941715 7.5886824e-07 0)
(1.4941727 6.839647e-07 0)
(1.4941737 6.1899614e-07 0)
(1.4941746 5.5372512e-07 0)
(1.4941754 5.0178206e-07 0)
(1.4941762 4.431505e-07 0)
(1.4941768 4.0499157e-07 0)
(1.4941775 3.492011e-07 0)
(1.4941779 3.2698188e-07 0)
(1.4941786 2.6960062e-07 0)
(1.4819612 -2.9372074e-05 0)
(1.4833722 -0.00017283616 0)
(1.4837947 -0.00029672564 0)
(1.4839951 -0.00035146798 0)
(1.4843895 -0.00034890178 0)
(1.4849832 -0.00032384771 0)
(1.4856282 -0.00030009786 0)
(1.4862191 -0.00028352437 0)
(1.4867342 -0.00027063681 0)
(1.4871951 -0.00025760833 0)
(1.4876251 -0.0002434417 0)
(1.4880338 -0.00022898821 0)
(1.488421 -0.00021524688 0)
(1.4887848 -0.00020260724 0)
(1.489125 -0.00019096788 0)
(1.4894432 -0.00018009545 0)
(1.4897416 -0.00016983265 0)
(1.4900219 -0.00016011868 0)
(1.4902853 -0.00015093432 0)
(1.4905328 -0.00014225981 0)
(1.4907652 -0.0001340644 0)
(1.4909836 -0.00012631411 0)
(1.4911886 -0.00011897848 0)
(1.4913812 -0.00011203342 0)
(1.491562 -0.00010545859 0)
(1.4917318 -9.9236303e-05 0)
(1.4918912 -9.3349263e-05 0)
(1.4920409 -8.7781462e-05 0)
(1.4921813 -8.2517121e-05 0)
(1.492313 -7.7541869e-05 0)
(1.4924366 -7.2841424e-05 0)
(1.4925525 -6.8402753e-05 0)
(1.4926612 -6.4212705e-05 0)
(1.4927631 -6.0259286e-05 0)
(1.4928586 -5.6530297e-05 0)
(1.4929481 -5.3014691e-05 0)
(1.4930319 -4.9701192e-05 0)
(1.4931104 -4.6579674e-05 0)
(1.4931839 -4.3639738e-05 0)
(1.4932527 -4.0872125e-05 0)
(1.4933171 -3.8267287e-05 0)
(1.4933774 -3.5816808e-05 0)
(1.4934337 -3.3511949e-05 0)
(1.4934864 -3.1345082e-05 0)
(1.4935356 -2.9308246e-05 0)
(1.4935816 -2.7394568e-05 0)
(1.4936246 -2.5596811e-05 0)
(1.4936647 -2.3908794e-05 0)
(1.4937022 -2.2323961e-05 0)
(1.4937371 -2.0836784e-05 0)
(1.4937697 -1.9441331e-05 0)
(1.4938001 -1.8132662e-05 0)
(1.4938285 -1.690542e-05 0)
(1.4938549 -1.5755216e-05 0)
(1.4938795 -1.4677215e-05 0)
(1.4939024 -1.3667512e-05 0)
(1.4939237 -1.2721753e-05 0)
(1.4939435 -1.1836486e-05 0)
(1.493962 -1.1007787e-05 0)
(1.4939791 -1.0232598e-05 0)
(1.493995 -9.5073923e-06 0)
(1.4940098 -8.8294826e-06 0)
(1.4940236 -8.1956898e-06 0)
(1.4940363 -7.6036487e-06 0)
(1.4940481 -7.0505026e-06 0)
(1.494059 -6.5341867e-06 0)
(1.4940692 -6.0521272e-06 0)
(1.4940786 -5.6025162e-06 0)
(1.4940872 -5.1830409e-06 0)
(1.4940953 -4.7921356e-06 0)
(1.4941027 -4.4277131e-06 0)
(1.4941095 -4.0884118e-06 0)
(1.4941158 -3.772359e-06 0)
(1.4941217 -3.4783796e-06 0)
(1.494127 -3.2047797e-06 0)
(1.494132 -2.9505426e-06 0)
(1.4941365 -2.7141489e-06 0)
(1.4941407 -2.4947255e-06 0)
(1.4941445 -2.2909077e-06 0)
(1.4941481 -2.1019268e-06 0)
(1.4941513 -1.9265832e-06 0)
(1.4941542 -1.7641824e-06 0)
(1.4941569 -1.6137098e-06 0)
(1.4941594 -1.4744589e-06 0)
(1.4941617 -1.3456882e-06 0)
(1.4941637 -1.2265425e-06 0)
(1.4941656 -1.1167386e-06 0)
(1.4941673 -1.0149515e-06 0)
(1.4941688 -9.2179375e-07 0)
(1.4941702 -8.34835e-07 0)
(1.4941715 -7.564912e-07 0)
(1.4941726 -6.8190279e-07 0)
(1.4941736 -6.1712141e-07 0)
(1.4941746 -5.5224816e-07 0)
(1.4941754 -5.0051912e-07 0)
(1.4941762 -4.4213343e-07 0)
(1.4941768 -4.0416797e-07 0)
(1.4941775 -3.4844683e-07 0)
(1.4941778 -3.2692319e-07 0)
(1.4941786 -2.7024291e-07 0)
(1.375314 -8.6923092e-05 0)
(1.3765508 -0.00049463651 0)
(1.3768465 -0.00083137822 0)
(1.3769274 -0.00096705427 0)
(1.3771705 -0.000947111 0)
(1.3775738 -0.00087092877 0)
(1.3780069 -0.00080136852 0)
(1.378384 -0.00075174359 0)
(1.3786919 -0.00071185051 0)
(1.3789528 -0.00067183484 0)
(1.3791875 -0.00062953584 0)
(1.3794049 -0.00058736882 0)
(1.3796056 -0.00054786406 0)
(1.3797887 -0.00051188294 0)
(1.3799547 -0.00047904976 0)
(1.3801057 -0.00044869903 0)
(1.3802436 -0.00042038398 0)
(1.3803703 -0.00039390601 0)
(1.3804869 -0.00036916875 0)
(1.3805943 -0.00034607238 0)
(1.3806934 -0.00032449278 0)
(1.3807849 -0.00030430122 0)
(1.3808695 -0.00028538362 0)
(1.3809478 -0.00026764457 0)
(1.3810205 -0.000251003 0)
(1.3810879 -0.0002353862 0)
(1.3811504 -0.00022072723 0)
(1.3812086 -0.00020696372 0)
(1.3812627 -0.0001940383 0)
(1.381313 -0.00018189791 0)
(1.3813599 -0.00017049381 0)
(1.3814036 -0.00015978057 0)
(1.3814443 -0.00014971614 0)
(1.3814822 -0.00014026102 0)
(1.3815176 -0.00013137853 0)
(1.3815506 -0.00012303415 0)
(1.3815814 -0.00011519579 0)
(1.3816101 -0.00010783318 0)
(1.3816369 -0.00010091811 0)
(1.3816618 -9.4423908e-05 0)
(1.3816852 -8.8325756e-05 0)
(1.3817069 -8.2600102e-05 0)
(1.3817272 -7.7225026e-05 0)
(1.3817461 -7.2179699e-05 0)
(1.3817638 -6.7444756e-05 0)
(1.3817803 -6.3001747e-05 0)
(1.3817956 -5.8833522e-05 0)
(1.3818099 -5.4923721e-05 0)
(1.3818233 -5.1257161e-05 0)
(1.3818357 -4.7819323e-05 0)
(1.3818473 -4.4596738e-05 0)
(1.381858 -4.1576506e-05 0)
(1.3818681 -3.8746697e-05 0)
(1.3818774 -3.6095845e-05 0)
(1.3818861 -3.3613357e-05 0)
(1.3818942 -3.1289041e-05 0)
(1.3819017 -2.9113508e-05 0)
(1.3819086 -2.7077699e-05 0)
(1.3819151 -2.5173277e-05 0)
(1.3819211 -2.3392186e-05 0)
(1.3819267 -2.1727046e-05 0)
(1.3819319 -2.0170697e-05 0)
(1.3819367 -1.871659e-05 0)
(1.3819411 -1.7358361e-05 0)
(1.3819452 -1.6090222e-05 0)
(1.381949 -1.490652e-05 0)
(1.3819526 -1.3802124e-05 0)
(1.3819558 -1.2772014e-05 0)
(1.3819588 -1.1811662e-05 0)
(1.3819616 -1.0916612e-05 0)
(1.3819642 -1.0082858e-05 0)
(1.3819665 -9.3064376e-06 0)
(1.3819687 -8.5838241e-06 0)
(1.3819707 -7.9115018e-06 0)
(1.3819726 -7.2863575e-06 0)
(1.3819743 -6.7052612e-06 0)
(1.3819758 -6.1654893e-06 0)
(1.3819772 -5.6642467e-06 0)
(1.3819785 -5.1991552e-06 0)
(1.3819797 -4.7676925e-06 0)
(1.3819808 -4.3678423e-06 0)
(1.3819818 -3.997271e-06 0)
(1.3819827 -3.6543505e-06 0)
(1.3819836 -3.3367905e-06 0)
(1.3819843 -3.0435129e-06 0)
(1.381985 -2.771991e-06 0)
(1.3819856 -2.5220317e-06 0)
(1.3819862 -2.290288e-06 0)
(1.3819867 -2.0782715e-06 0)
(1.3819872 -1.8805879e-06 0)
(1.3819876 -1.7021809e-06 0)
(1.381988 -1.53303e-06 0)
(1.3819883 -1.3851505e-06 0)
(1.3819886 -1.2386578e-06 0)
(1.3819889 -1.1199472e-06 0)
(1.3819891 -9.8914304e-07 0)
(1.3819893 -9.0112163e-07 0)
(1.3819895 -7.7724242e-07 0)
(1.3819897 -7.2614607e-07 0)
(1.3819899 -5.9994995e-07 0)
(1.1555293 -0.00013911667 0)
(1.1564079 -0.00073209288 0)
(1.1564221 -0.0011706376 0)
(1.1562242 -0.0013038502 0)
(1.1561283 -0.0012317115 0)
(1.1561327 -0.0011002849 0)
(1.1561457 -0.00098847694 0)
(1.1561156 -0.00090701894 0)
(1.1560422 -0.00084015315 0)
(1.1559461 -0.00077568308 0)
(1.1558436 -0.00071167386 0)
(1.1557414 -0.00065117913 0)
(1.1556403 -0.00059675189 0)
(1.1555398 -0.00054875809 0)
(1.1554403 -0.00050621268 0)
(1.155343 -0.00046796493 0)
(1.1552487 -0.00043323497 0)
(1.155158 -0.00040158385 0)
(1.1550712 -0.00037271557 0)
(1.1549884 -0.00034635211 0)
(1.1549095 -0.00032221329 0)
(1.1548345 -0.00030003939 0)
(1.1547634 -0.00027960993 0)
(1.154696 -0.00026074283 0)
(1.1546323 -0.00024328619 0)
(1.1545721 -0.00022710813 0)
(1.1545153 -0.00021209285 0)
(1.1544618 -0.00019813716 0)
(1.1544113 -0.0001851504 0)
(1.1543638 -0.00017305179 0)
(1.1543191 -0.00016177023 0)
(1.154277 -0.00015124155 0)
(1.1542375 -0.00014140881 0)
(1.1542004 -0.00013221987 0)
(1.1541656 -0.00012362828 0)
(1.1541329 -0.00011559111 0)
(1.1541022 -0.00010807001 0)
(1.1540734 -0.00010102915 0)
(1.1540464 -9.4436458e-05 0)
(1.1540211 -8.8261701e-05 0)
(1.1539975 -8.2477784e-05 0)
(1.1539753 -7.7058908e-05 0)
(1.1539545 -7.1981973e-05 0)
(1.1539351 -6.72248e-05 0)
(1.153917 -6.276756e-05 0)
(1.1539 -5.8591024e-05 0)
(1.1538841 -5.4678055e-05 0)
(1.1538693 -5.1011907e-05 0)
(1.1538554 -4.7577705e-05 0)
(1.1538425 -4.4360768e-05 0)
(1.1538304 -4.1348124e-05 0)
(1.1538191 -3.8526872e-05 0)
(1.1538086 -3.5885674e-05 0)
(1.1537988 -3.3413135e-05 0)
(1.1537897 -3.1099313e-05 0)
(1.1537812 -2.8934139e-05 0)
(1.1537733 -2.690889e-05 0)
(1.1537659 -2.5014629e-05 0)
(1.1537591 -2.3243689e-05 0)
(1.1537527 -2.1588147e-05 0)
(1.1537468 -2.004127e-05 0)
(1.1537413 -1.8596005e-05 0)
(1.1537361 -1.7246433e-05 0)
(1.1537314 -1.5986288e-05 0)
(1.153727 -1.4810379e-05 0)
(1.1537229 -1.3713116e-05 0)
(1.1537191 -1.2689941e-05 0)
(1.1537156 -1.1735883e-05 0)
(1.1537124 -1.0846952e-05 0)
(1.1537094 -1.0018705e-05 0)
(1.1537066 -9.2476439e-06 0)
(1.153704 -8.5298138e-06 0)
(1.1537017 -7.8621634e-06 0)
(1.1536995 -7.241149e-06 0)
(1.1536975 -6.6641075e-06 0)
(1.1536956 -6.1278738e-06 0)
(1.1536939 -5.6301423e-06 0)
(1.1536923 -5.1680582e-06 0)
(1.1536909 -4.7396366e-06 0)
(1.1536896 -4.3423014e-06 0)
(1.1536884 -3.9743858e-06 0)
(1.1536872 -3.6335058e-06 0)
(1.1536862 -3.318325e-06 0)
(1.1536853 -3.0265697e-06 0)
(1.1536844 -2.7573258e-06 0)
(1.1536836 -2.5082242e-06 0)
(1.1536829 -2.2789789e-06 0)
(1.1536823 -2.0667752e-06 0)
(1.1536817 -1.8724518e-06 0)
(1.1536812 -1.6919628e-06 0)
(1.1536807 -1.5283385e-06 0)
(1.1536803 -1.3746754e-06 0)
(1.1536799 -1.2385367e-06 0)
(1.1536795 -1.106669e-06 0)
(1.1536792 -9.9622647e-07 0)
(1.1536789 -8.8037062e-07 0)
(1.1536786 -7.9648065e-07 0)
(1.1536784 -6.8892318e-07 0)
(1.1536782 -6.3795489e-07 0)
(1.1536779 -5.3034068e-07 0)
(0.81033151 -0.0001753298 0)
(0.81064266 -0.00079318381 0)
(0.8101878 -0.001143626 0)
(0.80953329 -0.0011508194 0)
(0.80894409 -0.00098567366 0)
(0.80844211 -0.00080704097 0)
(0.80798337 -0.00067575443 0)
(0.80754311 -0.000586317 0)
(0.80712153 -0.00051758259 0)
(0.80672683 -0.00045735729 0)
(0.80636385 -0.00040349509 0)
(0.8060322 -0.00035731477 0)
(0.8057287 -0.00031920406 0)
(0.80544987 -0.00028795821 0)
(0.80519289 -0.00026180286 0)
(0.80495562 -0.00023928711 0)
(0.80473627 -0.00021951799 0)
(0.80453326 -0.00020199096 0)
(0.80434508 -0.00018636885 0)
(0.80417038 -0.0001723679 0)
(0.80400799 -0.00015973622 0)
(0.80385686 -0.00014826484 0)
(0.80371609 -0.00013779087 0)
(0.80358487 -0.00012818969 0)
(0.80346248 -0.00011936193 0)
(0.80334824 -0.00011122508 0)
(0.80324158 -0.00010370797 0)
(0.80314195 -9.6749484e-05 0)
(0.80304885 -9.0296445e-05 0)
(0.80296185 -8.4303199e-05 0)
(0.80288052 -7.8729518e-05 0)
(0.80280448 -7.3540362e-05 0)
(0.80273339 -6.8704201e-05 0)
(0.80266692 -6.4193312e-05 0)
(0.80260477 -5.9982439e-05 0)
(0.80254665 -5.6049286e-05 0)
(0.80249232 -5.2373278e-05 0)
(0.80244153 -4.8936195e-05 0)
(0.80239404 -4.5721029e-05 0)
(0.80234966 -4.2712687e-05 0)
(0.80230819 -3.9896898e-05 0)
(0.80226944 -3.7260995e-05 0)
(0.80223324 -3.4792887e-05 0)
(0.80219943 -3.2481852e-05 0)
(0.80216786 -3.0317524e-05 0)
(0.80213839 -2.8290732e-05 0)
(0.80211088 -2.6392537e-05 0)
(0.80208522 -2.4615057e-05 0)
(0.80206128 -2.2950505e-05 0)
(0.80203897 -2.1392048e-05 0)
(0.80201816 -1.9932892e-05 0)
(0.80199877 -1.8567103e-05 0)
(0.80198071 -1.7288696e-05 0)
(0.80196389 -1.6092486e-05 0)
(0.80194824 -1.4973209e-05 0)
(0.80193367 -1.3926336e-05 0)
(0.80192012 -1.2947201e-05 0)
(0.80190753 -1.2031829e-05 0)
(0.80189582 -1.1176094e-05 0)
(0.80188495 -1.0376523e-05 0)
(0.80187486 -9.629441e-06 0)
(0.80186549 -8.9317946e-06 0)
(0.8018568 -8.2803312e-06 0)
(0.80184874 -7.6723815e-06 0)
(0.80184128 -7.1050404e-06 0)
(0.80183437 -6.5759629e-06 0)
(0.80182797 -6.0825729e-06 0)
(0.80182205 -5.6228256e-06 0)
(0.80181658 -5.1944126e-06 0)
(0.80181153 -4.7955391e-06 0)
(0.80180686 -4.424156e-06 0)
(0.80180256 -4.0787029e-06 0)
(0.80179859 -3.7573379e-06 0)
(0.80179494 -3.4586928e-06 0)
(0.80179157 -3.1811319e-06 0)
(0.80178848 -2.9234693e-06 0)
(0.80178564 -2.6842327e-06 0)
(0.80178303 -2.4623809e-06 0)
(0.80178063 -2.2566138e-06 0)
(0.80177844 -2.0660253e-06 0)
(0.80177643 -1.8894578e-06 0)
(0.80177459 -1.7260968e-06 0)
(0.80177291 -1.5749565e-06 0)
(0.80177138 -1.435285e-06 0)
(0.80176998 -1.3062763e-06 0)
(0.80176871 -1.1871545e-06 0)
(0.80176756 -1.0773907e-06 0)
(0.80176651 -9.7606637e-07 0)
(0.80176556 -8.8306823e-07 0)
(0.80176471 -7.9707508e-07 0)
(0.80176393 -7.1871208e-07 0)
(0.80176323 -6.4580511e-07 0)
(0.8017626 -5.8029433e-07 0)
(0.80176204 -5.1831461e-07 0)
(0.80176154 -4.6438239e-07 0)
(0.80176108 -4.1125844e-07 0)
(0.80176069 -3.682257e-07 0)
(0.8017603 -3.2175682e-07 0)
(0.80176006 -2.9134e-07 0)
(0.80175964 -2.5082017e-07 0)
(0.32318482 -0.00015947211 0)
(0.3228438 -0.00048086522 0)
(0.32206828 -0.00054392417 0)
(0.32126487 -0.00042871165 0)
(0.32060076 -0.00028690865 0)
(0.32008412 -0.00019177871 0)
(0.3196721 -0.00014322001 0)
(0.31932634 -0.0001182374 0)
(0.31902598 -0.0001007428 0)
(0.31876219 -8.5640748e-05 0)
(0.3185303 -7.3048161e-05 0)
(0.31832583 -6.3522493e-05 0)
(0.31814403 -5.6658419e-05 0)
(0.31798059 -5.1530535e-05 0)
(0.31783225 -4.7343311e-05 0)
(0.31769673 -4.3667376e-05 0)
(0.31757238 -4.0349883e-05 0)
(0.31745796 -3.7350323e-05 0)
(0.3173524 -3.4640733e-05 0)
(0.31725478 -3.2182088e-05 0)
(0.31716434 -2.9933799e-05 0)
(0.31708041 -2.7864844e-05 0)
(0.31700242 -2.5954345e-05 0)
(0.31692987 -2.4188132e-05 0)
(0.31686233 -2.2554006e-05 0)
(0.31679941 -2.1040854e-05 0)
(0.31674074 -1.9637712e-05 0)
(0.31668601 -1.8335038e-05 0)
(0.31663494 -1.7123929e-05 0)
(0.31658725 -1.5997004e-05 0)
(0.31654272 -1.4947205e-05 0)
(0.31650113 -1.3968656e-05 0)
(0.31646226 -1.3055541e-05 0)
(0.31642595 -1.2203127e-05 0)
(0.31639201 -1.140662e-05 0)
(0.3163603 -1.0662196e-05 0)
(0.31633066 -9.9658508e-06 0)
(0.31630296 -9.3144841e-06 0)
(0.31627708 -8.7047255e-06 0)
(0.31625289 -8.1340194e-06 0)
(0.3162303 -7.5994734e-06 0)
(0.31620919 -7.0989819e-06 0)
(0.31618948 -6.6300567e-06 0)
(0.31617107 -6.190934e-06 0)
(0.31615388 -5.7794311e-06 0)
(0.31613783 -5.3940786e-06 0)
(0.31612286 -5.032966e-06 0)
(0.31610889 -4.694847e-06 0)
(0.31609587 -4.3780155e-06 0)
(0.31608372 -4.0814284e-06 0)
(0.3160724 -3.8035734e-06 0)
(0.31606185 -3.5435599e-06 0)
(0.31605202 -3.3000198e-06 0)
(0.31604287 -3.0722098e-06 0)
(0.31603435 -2.8589074e-06 0)
(0.31602642 -2.6594786e-06 0)
(0.31601905 -2.4728072e-06 0)
(0.3160122 -2.2983711e-06 0)
(0.31600583 -2.135168e-06 0)
(0.31599991 -1.9827564e-06 0)
(0.31599441 -1.8402146e-06 0)
(0.31598932 -1.7071879e-06 0)
(0.31598459 -1.582846e-06 0)
(0.3159802 -1.4668939e-06 0)
(0.31597614 -1.3585622e-06 0)
(0.31597238 -1.2576242e-06 0)
(0.3159689 -1.1633841e-06 0)
(0.31596568 -1.0756587e-06 0)
(0.3159627 -9.9379784e-07 0)
(0.31595995 -9.1767263e-07 0)
(0.31595741 -8.4669196e-07 0)
(0.31595507 -7.8075843e-07 0)
(0.31595291 -7.1931489e-07 0)
(0.31595092 -6.6230723e-07 0)
(0.31594909 -6.0922717e-07 0)
(0.3159474 -5.6004267e-07 0)
(0.31594585 -5.1427141e-07 0)
(0.31594443 -4.7191565e-07 0)
(0.31594313 -4.3253559e-07 0)
(0.31594193 -3.9614702e-07 0)
(0.31594084 -3.6233304e-07 0)
(0.31593984 -3.3113299e-07 0)
(0.31593892 -3.0217359e-07 0)
(0.31593809 -2.7549286e-07 0)
(0.31593733 -2.5075002e-07 0)
(0.31593664 -2.2798187e-07 0)
(0.31593601 -2.0691442e-07 0)
(0.31593544 -1.8754053e-07 0)
(0.31593492 -1.6966865e-07 0)
(0.31593445 -1.5321106e-07 0)
(0.31593403 -1.3812173e-07 0)
(0.31593365 -1.2414808e-07 0)
(0.31593331 -1.1144849e-07 0)
(0.315933 -9.9590908e-08 0)
(0.31593273 -8.9021765e-08 0)
(0.31593248 -7.8970972e-08 0)
(0.31593226 -7.0065573e-08 0)
(0.31593206 -6.2060435e-08 0)
(0.31593191 -5.4060847e-08 0)
(0.31593171 -5.2788715e-08 0)
)
;

boundaryField
{
    top
    {
        type            fixedValue;
        value           uniform (0 0 0);
    }
    inlet
    {
        type            pressureNormalInletOutletVelocity;
        phi             phi;
        rho             rho;