/*--------------------------------*- C++ -*----------------------------------*\
| =========                 |                                                 |
| \\      /  F ield         | OpenFOAM: The Open Source CFD Toolbox           |
|  \\    /   O peration     | Version:  v1812                                 |
|   \\  /    A nd           | Web:      www.OpenFOAM.com                      |
|    \\/     M anipulation  |                                                 |
\*---------------------------------------------------------------------------*/
FoamFile
{
    version     2.0;
    format      ascii;
    class       volScalarField;
    location    "9";
    object      p;
}
// * * * * * * * * * * * * * * * * * * * * * * * * * * * * * * * * * * * * * //

dimensions      [0 2 -2 0 0 0 0];


internalField   nonuniform List<scalar> 
1000
(
1.6755065
1.5544286
1.4584482
1.3947921
1.3462826
1.3038105
1.2662753
1.2341035
1.2067031
1.1828656
1.1614713
1.1417074
1.1230303
1.1050908
1.0876754
1.0706612
1.0539804
1.0375962
1.021488
1.0056421
0.99004709
0.97469199
0.9595653
0.94465506
0.92994906
0.91543506
0.90110109
0.88693558
0.87292752
0.85906652
0.84534281
0.83174727
0.81827138
0.80490721
0.79164738
0.77848501
0.7654137
0.75242749
0.73952081
0.7266885
0.7139257
0.70122789
0.68859085
0.67601064
0.66348356
0.65100616
0.63857523
0.62618774
0.61384088
0.60153202
0.58925869
0.57701859
0.56480956
0.55262958
0.54047676
0.52834932
0.51624561
0.50416409
0.49210331
0.48006194
0.46803872
0.45603246
0.44404208
0.43206653
0.42010484
0.40815613
0.39621954
0.38429432
0.37237973
0.36047512
0.34857986
0.33669338
0.32481512
0.31294457
0.30108124
0.28922467
0.27737447
0.26553024
0.25369164
0.24185834
0.23003002
0.21820636
0.20638706
0.19457182
0.18276036
0.17095241
0.15914772
0.14734608
0.13554727
0.12375108
0.11195729
0.10016569
0.088376062
0.076588205
0.064801941
0.053017141
0.041233661
0.029451366
0.0176701
0.0058895693
1.5582869
1.5033578
1.4424053
1.3908376
1.3475675
1.3085992
1.273013
1.2412404
1.2132794
1.1885016
1.1660997
1.1453984
1.1259167
1.1073287
1.0894151
1.0720303
1.0550785
1.0384971
1.0222444
1.0062909
0.9906139
0.97519437
0.96001553
0.94506187
0.93031882
0.91577259
0.90141018
0.88721931
0.87318846
0.85930688
0.84556452
0.83195202
0.81846067
0.80508239
0.79180964
0.77863543
0.76555325
0.75255704
0.73964116
0.72680035
0.71402971
0.70132465
0.68868091
0.67609449
0.66356165
0.65107892
0.63864303
0.62625093
0.61389979
0.60158695
0.58930992
0.57706637
0.56485413
0.55267117
0.54051556
0.52838553
0.51627941
0.50419563
0.49213275
0.48008942
0.46806436
0.45605639
0.4440644
0.43208736
0.42012428
0.40817426
0.39623645
0.38431007
0.3723944
0.36048876
0.34859254
0.33670515
0.32482603
0.31295468
0.30109059
0.28923331
0.27738242
0.26553754
0.25369832
0.24186442
0.23003555
0.21821137
0.20639159
0.19457591
0.18276403
0.17095569
0.15915064
0.14734865
0.13554952
0.12375304
0.11195898
0.10016715
0.088377321
0.076589291
0.064802864
0.05301791
0.041234293
0.029451848
0.017670513
0.0058897242
1.4974656
1.4712905
1.4328937
1.3917608
1.3526755
1.3160847
1.281787
1.2500695
1.2212134
1.1951123
1.1713583
1.1494683
1.1290185
1.1096776
1.0911975
1.0733964
1.0561446
1.039349
1.0229429
1.0068778
0.99111741
0.97563372
0.96040386
0.94540837
0.9306301
0.91605361
0.90166478
0.8874506
0.87339905
0.85949898
0.84574006
0.83211269
0.81860796
0.80521761
0.79193396
0.77874987
0.76565873
0.75265438
0.73973108
0.72688349
0.71410666
0.70139593
0.68874698
0.67615578
0.66361855
0.65113177
0.63869214
0.6262966
0.61394226
0.60162646
0.58934669
0.57710061
0.56488602
0.55270087
0.54054324
0.52841133
0.51630346
0.50421806
0.49215367
0.48010892
0.46808254
0.45607334
0.44408022
0.43210211
0.42013804
0.4081871
0.39624844
0.38432125
0.37240482
0.36049847
0.34860157
0.33671355
0.32483384
0.31296194
0.30109733
0.28923957
0.27738823
0.26554291
0.25370327
0.24186897
0.2300397
0.21821517
0.20639505
0.19457906
0.18276691
0.1709583
0.159153
0.14735077
0.1355514
0.12375469
0.11196043
0.10016842
0.088378424
0.076590263
0.064803706
0.053018631
0.041234866
0.029452281
0.017670765
0.0058898528
1.4680571
1.452559
1.4256891
1.3917652
1.3559642
1.3210129
1.2877109
1.2563579
1.2272272
1.2004357
1.1758482
1.153156
1.1320042
1.1120754
1.0931172
1.0749375
1.0573918
1.0403707
1.0237921
1.0075941
0.99173015
0.9761644
0.96086845
0.94581877
0.93099534
0.91638061
0.90195897
0.88771633
0.87363987
0.85971786
0.84593948
0.83229479
0.81877458
0.80537034
0.79207419
0.77887882
0.76577748
0.75276386
0.73983214
0.72697688
0.71419303
0.70147589
0.68882107
0.67622448
0.66368229
0.65119095
0.63874712
0.62634769
0.61398977
0.60167065
0.58938781
0.57713888
0.56492165
0.55273405
0.54057415
0.52844014
0.51633031
0.5042431
0.49217702
0.48013069
0.46810285
0.45609228
0.44409789
0.4321186
0.42015344
0.40820148
0.39626187
0.38433381
0.37241655
0.36050943
0.34861181
0.33672312
0.32484278
0.3129703
0.30110516
0.2892469
0.27739508
0.26554932
0.25370925
0.24187455
0.23004489
0.21821997
0.20639951
0.1945832
0.18277074
0.17096185
0.15915628
0.14735378
0.13555415
0.12375718
0.11196267
0.10017043
0.088380226
0.076591885
0.064805142
0.053019914
0.041235937
0.029453208
0.017671376
0.0058903783
1.4553255
1.4433722
1.4211378
1.3908502
1.3569891
1.3229935
1.2902959
1.2592904
1.230193
1.2031811
1.1782541
1.1552045
1.133723
1.1135053
1.0943017
1.0759195
1.0582106
1.0410602
1.0243793
1.0081002
0.99217118
0.97655263
0.96121312
0.94612696
0.93127251
0.91663103
0.90218604
0.88792285
0.87382815
0.85988985
0.84609688
0.83243906
0.818907
0.80549204
0.79218618
0.778982
0.76587263
0.75285171
0.73991331
0.72705195
0.71426251
0.70154024
0.68888072
0.6762798
0.66373363
0.65123862
0.6387914
0.62638885
0.61402804
0.60170625
0.58942093
0.5771697
0.56495035
0.55276078
0.54059905
0.52846334
0.51635194
0.50426326
0.49219581
0.48014822
0.4681192
0.45610754
0.44411211
0.43213188
0.42016584
0.40821307
0.3962727
0.38434393
0.37242602
0.36051829
0.3486201
0.33673087
0.32485005
0.3129771
0.30111154
0.28925289
0.27740071
0.26555461
0.25371421
0.24187918
0.23004922
0.21822402
0.20640329
0.19458672
0.18277402
0.17096491
0.15915912
0.14735642
0.13555657
0.1237594
0.11196468
0.10017226
0.08838187
0.076593373
0.064806468
0.053021114
0.041236954
0.029454125
0.01767202
0.0058909562
1.4553255
1.4433722
1.4211378
1.3908502
1.3569891
1.3229935
1.2902959
1.2592904
1.230193
1.2031811
1.1782541
1.1552045
1.133723
1.1135053
1.0943017
1.0759195
1.0582106
1.0410602
1.0243793
1.0081002
0.99217118
0.97655263
0.96121312
0.94612696
0.93127251
0.91663103
0.90218605
0.88792285
0.87382815
0.85988985
0.84609688
0.83243906
0.818907
0.80549204
0.79218618
0.778982
0.76587264
0.75285171
0.73991331
0.72705195
0.71426251
0.70154024
0.68888071
0.6762798
0.66373363
0.65123862
0.6387914
0.62638885
0.61402804
0.60170625
0.58942093
0.5771697
0.56495034
0.55276078
0.54059905
0.52846334
0.51635194
0.50426326
0.49219581
0.48014822
0.4681192
0.45610753
0.44411211
0.43213188
0.42016584
0.40821307
0.39627271
0.38434394
0.37242603
0.36051829
0.3486201
0.33673087
0.32485005
0.31297711
0.30111155
0.2892529
0.27740072
0.26555462
0.25371421
0.24187918
0.23004922
0.21822402
0.20640329
0.19458672
0.18277403
0.17096492
0.15915913
0.14735642
0.13555657
0.12375939
0.11196467
0.10017225
0.088381858
0.076593364
0.064806459
0.053021108
0.041236948
0.029454122
0.017672018
0.0058909553
1.4680571
1.452559
1.4256891
1.3917652
1.3559642
1.3210129
1.2877109
1.2563579
1.2272272
1.2004357
1.1758482
1.153156
1.1320042
1.1120754
1.0931172
1.0749375
1.0573918
1.0403707
1.0237921
1.0075941
0.99173014
0.9761644
0.96086845
0.94581878
0.93099535
0.91638062
0.90195897
0.88771633
0.87363987
0.85971785
0.84593948
0.83229479
0.81877458
0.80537034
0.79207419
0.77887883
0.76577748
0.75276387
0.73983214
0.72697688
0.71419303
0.70147589
0.68882107
0.67622448
0.6636823
0.65119095
0.63874712
0.6263477
0.61398978
0.60167065
0.58938781
0.57713887
0.56492164
0.55273405
0.54057416
0.52844015
0.51633032
0.50424311
0.49217702
0.48013069
0.46810285
0.45609228
0.44409789
0.43211861
0.42015345
0.4082015
0.39626189
0.38433382
0.37241656
0.36050944
0.34861182
0.33672312
0.3248428
0.31297032
0.30110519
0.28924694
0.27739512
0.26554935
0.25370927
0.24187455
0.23004488
0.21821997
0.20639951
0.19458321
0.18277076
0.17096188
0.1591563
0.14735379
0.13555414
0.12375716
0.11196264
0.1001704
0.088380192
0.076591856
0.064805119
0.053019894
0.041235923
0.029453196
0.017671367
0.0058903756
1.4974656
1.4712905
1.4328937
1.3917608
1.3526755
1.3160847
1.281787
1.2500695
1.2212134
1.1951123
1.1713583
1.1494683
1.1290185
1.1096776
1.0911975
1.0733964
1.0561446
1.039349
1.0229429
1.0068778
0.9911174
0.97563372
0.96040386
0.94540837
0.93063011
0.91605362
0.90166478
0.8874506
0.87339904
0.85949897
0.84574005
0.83211268
0.81860796
0.80521761
0.79193396
0.77874988
0.76565874
0.75265438
0.73973108
0.72688349
0.71410665
0.70139592
0.68874698
0.67615578
0.66361856
0.65113178
0.63869215
0.6262966
0.61394227
0.60162646
0.58934669
0.5771006
0.56488601
0.55270087
0.54054325
0.52841134
0.51630347
0.50421807
0.49215367
0.48010892
0.46808254
0.45607334
0.44408022
0.43210213
0.42013807
0.40818713
0.39624846
0.38432127
0.37240483
0.36049847
0.34860157
0.33671356
0.32483387
0.31296198
0.30109739
0.28923963
0.27738827
0.26554294
0.25370327
0.24186896
0.23003969
0.21821516
0.20639506
0.19457908
0.18276693
0.17095833
0.15915301
0.14735076
0.13555137
0.12375464
0.11196037
0.10016836
0.088378375
0.076590221
0.064803669
0.053018598
0.04123484
0.029452264
0.017670754
0.0058898492
1.5582869
1.5033578
1.4424053
1.3908376
1.3475675
1.3085992
1.273013
1.2412403
1.2132794
1.1885016
1.1660997
1.1453984
1.1259167
1.1073287
1.0894151
1.0720303
1.0550785
1.0384971
1.0222444
1.0062909
0.9906139
0.97519437
0.96001553
0.94506188
0.93031882
0.9157726
0.90141018
0.8872193
0.87318845
0.85930687
0.84556451
0.83195201
0.81846067
0.80508239
0.79180965
0.77863544
0.76555325
0.75255704
0.73964115
0.72680034
0.71402969
0.70132464
0.68868091
0.67609449
0.66356166
0.65107893
0.63864304
0.62625094
0.61389979
0.60158694
0.58930991
0.57706637
0.56485414
0.55267118
0.54051558
0.52838555
0.51627942
0.50419564
0.49213275
0.48008941
0.46806435
0.45605639
0.44406442
0.43208738
0.42012431
0.40817429
0.39623647
0.38431008
0.37239439
0.36048875
0.34859254
0.33670516
0.32482606
0.31295472
0.30109064
0.28923335
0.27738244
0.26553754
0.25369829
0.24186439
0.23003552
0.21821136
0.20639159
0.19457592
0.18276405
0.1709557
0.15915063
0.14734862
0.13554947
0.12375297
0.11195892
0.10016709
0.088377266
0.076589241
0.064802819
0.053017874
0.041234271
0.029451837
0.017670502
0.0058897175
1.6755065
1.5544286
1.4584482
1.3947921
1.3462826
1.3038105
1.2662753
1.2341035
1.2067031
1.1828656
1.1614713
1.1417074
1.1230303
1.1050908
1.0876754
1.0706612
1.0539804
1.0375962
1.021488
1.0056421
0.99004709
0.97469199
0.9595653
0.94465507
0.92994906
0.91543506
0.90110109
0.88693557
0.87292751
0.85906651
0.8453428
0.83174727
0.81827138
0.80490722
0.79164739
0.77848501
0.7654137
0.75242748
0.73952081
0.72668849
0.71392569
0.70122788
0.68859085
0.67601065
0.66348357
0.65100618
0.63857524
0.62618774
0.61384088
0.60153201
0.58925868
0.57701859
0.56480957
0.55262959
0.54047677
0.52834933
0.51624562
0.50416409
0.49210331
0.48006194
0.46803872
0.45603247
0.4440421
0.43206655
0.42010487
0.40815615
0.39621956
0.38429432
0.37237972
0.36047511
0.34857987
0.3366934
0.32481516
0.31294461
0.30108128
0.2892247
0.27737447
0.26553022
0.25369161
0.24185831
0.23002999
0.21820635
0.20638707
0.19457184
0.18276037
0.1709524
0.1591477
0.14734604
0.13554722
0.12375102
0.11195723
0.10016564
0.088376005
0.076588153
0.064801899
0.053017117
0.041233654
0.029451356
0.017670076
0.0058895563
)
;

boundaryField
{
    top
    {
        type            zeroGradient;
    }
    inlet
    {
        type            zeroGradient;
    }
    outlet
    {
        type            fixedValue;
        value           uniform 0;
    }
    bottom
    {
        type            zeroGradient;
    }
    back
    {
        type            empty;
    }
    front
    {
        type            empty;
    }
}


// ************************************************************************* //
