0 0 0 0.1183 1 0 9 -0.5 0
0.0053066 -1.3509e-09 0 0.1183 1 0.00099999 9 -0.499 0
0.010613 -2.7019e-09 0 0.1183 1 0.002 9 -0.498 0
0.01592 -4.0528e-09 0 0.1183 1 0.003 9 -0.497 0
0.021227 -5.4038e-09 0 0.1183 1 0.004 9 -0.496 0
0.026533 -6.7547e-09 0 0.1183 1 0.005 9 -0.495 0
0.03184 -8.1057e-09 0 0.1183 1 0.006 9 -0.494 0
0.037147 -9.4566e-09 0 0.1183 1 0.007 9 -0.493 0
0.042453 -1.0808e-08 0 0.1183 1 0.008 9 -0.492 0
0.04776 -1.2159e-08 0 0.1183 1 0.009 9 -0.491 0
0.053067 -1.3509e-08 0 0.1183 1 0.01 9 -0.49 0
0.058373 -1.486e-08 0 0.1183 1 0.011 9 -0.489 0
0.06368 -1.6211e-08 0 0.1183 1 0.012 9 -0.488 0
0.068987 -1.7562e-08 0 0.1183 1 0.013 9 -0.487 0
0.074293 -1.8913e-08 0 0.1183 1 0.014 9 -0.486 0
0.0796 -2.0264e-08 0 0.1183 1 0.015 9 -0.485 0
0.084907 -2.1615e-08 0 0.1183 1 0.016 9 -0.484 0
0.090213 -2.2966e-08 0 0.1183 1 0.017 9 -0.483 0
0.09552 -2.4317e-08 0 0.1183 1 0.018 9 -0.482 0
0.10083 -2.5668e-08 0 0.1183 1 0.019 9 -0.481 0
0.10613 -2.7019e-08 0 0.1183 1 0.02 9 -0.48 0
0.11144 -2.837e-08 0 0.1183 1 0.021 9 -0.479 0
0.11675 -2.9721e-08 0 0.1183 1 0.022 9 -0.478 0
0.12205 -3.1072e-08 0 0.1183 1 0.023 9 -0.477 0
0.12736 -3.2423e-08 0 0.1183 1 0.024 9 -0.476 0
0.13267 -3.3774e-08 0 0.1183 1 0.025 9 -0.475 0
0.13797 -3.5125e-08 0 0.1183 1 0.026 9 -0.474 0
0.14328 -3.6476e-08 0 0.1183 1 0.027 9 -0.473 0
0.14859 -3.7826e-08 0 0.1183 1 0.028 9 -0.472 0
0.15389 -3.9177e-08 0 0.1183 1 0.029 9 -0.471 0
0.1592 -4.0528e-08 0 0.1183 1 0.03 9 -0.47 0
0.16451 -4.1879e-08 0 0.1183 1 0.031 9 -0.469 0
0.16981 -4.323e-08 0 0.1183 1 0.032 9 -0.468 0
0.17512 -4.4581e-08 0 0.1183 1 0.033 9 -0.467 0
0.18043 -4.5932e-08 0 0.1183 1 0.034 9 -0.466 0
0.18573 -4.7283e-08 0 0.1183 1 0.035 9 -0.465 0
0.19104 -4.8634e-08 0 0.1183 1 0.036 9 -0.464 0
0.19635 -4.9985e-08 0 0.1183 1 0.037 9 -0.463 0
0.20165 -5.1336e-08 0 0.1183 1 0.038 9 -0.462 0
0.20696 -5.2687e-08 0 0.1183 1 0.039 9 -0.461 0
0.21227 -5.4038e-08 0 0.1183 1 0.04 9 -0.46 0
0.21757 -5.5389e-08 0 0.1183 1 0.041 9 -0.459 0
0.22288 -5.674e-08 0 0.1183 1 0.042 9 -0.458 0
0.22819 -5.8091e-08 0 0.1183 1 0.043 9 -0.457 0
0.23349 -5.9442e-08 0 0.1183 1 0.044 9 -0.456 0
0.2388 -6.0793e-08 0 0.1183 1 0.045 9 -0.455 0
0.24411 -6.2143e-08 0 0.1183 1 0.046 9 -0.454 0
0.24941 -6.3494e-08 0 0.1183 1 0.047 9 -0.453 0
0.25472 -6.4845e-08 0 0.1183 1 0.048 9 -0.452 0
0.26003 -6.6196e-08 0 0.1183 1 0.049 9 -0.451 0
0.26533 -6.7547e-08 0 0.1183 1 0.05 9 -0.45 0
0.27064 -6.8898e-08 0 0.1183 1 0.051 9 -0.449 0
0.27595 -7.0249e-08 0 0.1183 1 0.052 9 -0.448 0
0.28125 -7.16e-08 0 0.1183 1 0.053 9 -0.447 0
0.28656 -7.2951e-08 0 0.1183 1 0.054 9 -0.446 0
0.29187 -7.4302e-08 0 0.1183 1 0.055 9 -0.445 0
0.29717 -7.5653e-08 0 0.1183 1 0.056 9 -0.444 0
0.30248 -7.7004e-08 0 0.1183 1 0.057 9 -0.443 0
0.30779 -7.8355e-08 0 0.1183 1 0.058 9 -0.442 0
0.31309 -7.9706e-08 0 0.1183 1 0.059 9 -0.441 0
0.3184 -8.1057e-08 0 0.1183 1 0.06 9 -0.44 0
0.32371 -8.2408e-08 0 0.1183 1 0.061 9 -0.439 0
0.32901 -8.3759e-08 0 0.1183 1 0.062 9 -0.438 0
0.33432 -8.511e-08 0 0.1183 1 0.063 9 -0.437 0
0.33963 -8.6461e-08 0 0.1183 1 0.064 9 -0.436 0
0.34493 -8.7811e-08 0 0.1183 1 0.065 9 -0.435 0
0.35024 -8.9162e-08 0 0.1183 1 0.066 9 -0.434 0
0.35555 -9.0513e-08 0 0.1183 1 0.067 9 -0.433 0
0.36085 -9.1864e-08 0 0.1183 1 0.068 9 -0.432 0
0.36616 -9.3215e-08 0 0.1183 1 0.069 9 -0.431 0
0.37147 -9.4566e-08 0 0.1183 1 0.07 9 -0.43 0
0.37677 -9.5917e-08 0 0.1183 1 0.071 9 -0.429 0
0.38208 -9.7268e-08 0 0.1183 1 0.072 9 -0.428 0
0.38739 -9.8619e-08 0 0.1183 1 0.073 9 -0.427 0
0.39269 -9.997e-08 0 0.1183 1 0.074 9 -0.426 0
0.398 -1.0132e-07 0 0.1183 1 0.075 9 -0.425 0
0.40331 -1.0267e-07 0 0.1183 1 0.076 9 -0.424 0
0.40861 -1.0402e-07 0 0.1183 1 0.077 9 -0.423 0
0.41392 -1.0537e-07 0 0.1183 1 0.078 9 -0.422 0
0.41923 -1.0672e-07 0 0.1183 1 0.079 9 -0.421 0
0.42453 -1.0808e-07 0 0.1183 1 0.08 9 -0.42 0
0.42984 -1.0943e-07 0 0.1183 1 0.081 9 -0.419 0
0.43515 -1.1078e-07 0 0.1183 1 0.082 9 -0.418 0
0.44045 -1.1213e-07 0 0.1183 1 0.083 9 -0.417 0
0.44576 -1.1348e-07 0 0.1183 1 0.084 9 -0.416 0
0.45107 -1.1483e-07 0 0.1183 1 0.085 9 -0.415 0
0.45637 -1.1618e-07 0 0.1183 1 0.086 9 -0.414 0
0.46168 -1.1753e-07 0 0.1183 1 0.087 9 -0.413 0
0.46699 -1.1888e-07 0 0.1183 1 0.088 9 -0.412 0
0.47229 -1.2023e-07 0 0.1183 1 0.089 9 -0.411 0
0.4776 -1.2159e-07 0 0.1183 1 0.09 9 -0.41 0
0.48291 -1.2294e-07 0 0.1183 1 0.091 9 -0.409 0
0.48821 -1.2429e-07 0 0.1183 1 0.092 9 -0.408 0
0.49352 -1.2564e-07 0 0.1183 1 0.093 9 -0.407 0
0.49883 -1.2699e-07 0 0.1183 1 0.094 9 -0.406 0
0.50413 -1.2834e-07 0 0.1183 1 0.095 9 -0.405 0
0.50944 -1.2969e-07 0 0.1183 1 0.096 9 -0.404 0
0.51475 -1.3104e-07 0 0.1183 1 0.097 9 -0.403 0
0.52005 -1.3239e-07 0 0.1183 1 0.098 9 -0.402 0
0.52536 -1.3374e-07 0 0.1183 1 0.099 9 -0.401 0
0.53067 -1.3509e-07 0 0.1183 1 0.1 9 -0.4 0
0.53479 -1.3753e-07 0 0.1183 1 0.101 9 -0.399 0
0.53891 -1.3996e-07 0 0.1183 1 0.102 9 -0.398 0
0.54303 -1.424e-07 0 0.1183 1 0.103 9 -0.397 0
0.54714 -1.4483e-07 0 0.1183 1 0.104 9 -0.396 0
0.55126 -1.4727e-07 0 0.1183 1 0.105 9 -0.395 0
0.55538 -1.497e-07 0 0.1183 1 0.106 9 -0.394 0
0.5595 -1.5214e-07 0 0.1183 1 0.107 9 -0.393 0
0.56362 -1.5457e-07 0 0.1183 1 0.108 9 -0.392 0
0.56774 -1.5701e-07 0 0.1183 1 0.109 9 -0.391 0
0.57186 -1.5944e-07 0 0.1183 1 0.11 9 -0.39 0
0.57598 -1.6187e-07 0 0.1183 1 0.111 9 -0.389 0
0.5801 -1.6431e-07 0 0.1183 1 0.112 9 -0.388 0
0.58422 -1.6674e-07 0 0.1183 1 0.113 9 -0.387 0
0.58834 -1.6918e-07 0 0.1183 1 0.114 9 -0.386 0
0.59246 -1.7161e-07 0 0.1183 1 0.115 9 -0.385 0
0.59658 -1.7405e-07 0 0.1183 1 0.116 9 -0.384 0
0.6007 -1.7648e-07 0 0.1183 1 0.117 9 -0.383 0
0.60482 -1.7892e-07 0 0.1183 1 0.118 9 -0.382 0
0.60893 -1.8135e-07 0 0.1183 1 0.119 9 -0.381 0
0.61305 -1.8379e-07 0 0.1183 1 0.12 9 -0.38 0
0.61717 -1.8622e-07 0 0.1183 1 0.121 9 -0.379 0
0.62129 -1.8866e-07 0 0.1183 1 0.122 9 -0.378 0
0.62541 -1.9109e-07 0 0.1183 1 0.123 9 -0.377 0
0.62953 -1.9352e-07 0 0.1183 1 0.124 9 -0.376 0
0.63365 -1.9596e-07 0 0.1183 1 0.125 9 -0.375 0
0.63777 -1.9839e-07 0 0.1183 1 0.126 9 -0.374 0
0.64189 -2.0083e-07 0 0.1183 1 0.127 9 -0.373 0
0.64601 -2.0326e-07 0 0.1183 1 0.128 9 -0.372 0
0.65013 -2.057e-07 0 0.1183 1 0.129 9 -0.371 0
0.65425 -2.0813e-07 0 0.1183 1 0.13 9 -0.37 0
0.65837 -2.1057e-07 0 0.1183 1 0.131 9 -0.369 0
0.66249 -2.13e-07 0 0.1183 1 0.132 9 -0.368 0
0.6666 -2.1544e-07 0 0.1183 1 0.133 9 -0.367 0
0.67072 -2.1787e-07 0 0.1183 1 0.134 9 -0.366 0
0.67484 -2.203e-07 0 0.1183 1 0.135 9 -0.365 0
0.67896 -2.2274e-07 0 0.1183 1 0.136 9 -0.364 0
0.68308 -2.2517e-07 0 0.1183 1 0.137 9 -0.363 0
0.6872 -2.2761e-07 0 0.1183 1 0.138 9 -0.362 0
0.69132 -2.3004e-07 0 0.1183 1 0.139 9 -0.361 0
0.69544 -2.3248e-07 0 0.1183 1 0.14 9 -0.36 0
0.69956 -2.3491e-07 0 0.1183 1 0.141 9 -0.359 0
0.70368 -2.3735e-07 0 0.1183 1 0.142 9 -0.358 0
0.7078 -2.3978e-07 0 0.1183 1 0.143 9 -0.357 0
0.71192 -2.4222e-07 0 0.1183 1 0.144 9 -0.356 0
0.71604 -2.4465e-07 0 0.1183 1 0.145 9 -0.355 0
0.72016 -2.4708e-07 0 0.1183 1 0.146 9 -0.354 0
0.72428 -2.4952e-07 0 0.1183 1 0.147 9 -0.353 0
0.72839 -2.5195e-07 0 0.1183 1 0.148 9 -0.352 0
0.73251 -2.5439e-07 0 0.1183 1 0.149 9 -0.351 0
0.73663 -2.5682e-07 0 0.1183 1 0.15 9 -0.35 0
0.74075 -2.5926e-07 0 0.1183 1 0.151 9 -0.349 0
0.74487 -2.6169e-07 0 0.1183 1 0.152 9 -0.348 0
0.74899 -2.6413e-07 0 0.1183 1 0.153 9 -0.347 0
0.75311 -2.6656e-07 0 0.1183 1 0.154 9 -0.346 0
0.75723 -2.69e-07 0 0.1183 1 0.155 9 -0.345 0
0.76135 -2.7143e-07 0 0.1183 1 0.156 9 -0.344 0
0.76547 -2.7387e-07 0 0.1183 1 0.157 9 -0.343 0
0.76959 -2.763e-07 0 0.1183 1 0.158 9 -0.342 0
0.77371 -2.7873e-07 0 0.1183 1 0.159 9 -0.341 0
0.77783 -2.8117e-07 0 0.1183 1 0.16 9 -0.34 0
0.78195 -2.836e-07 0 0.1183 1 0.161 9 -0.339 0
0.78607 -2.8604e-07 0 0.1183 1 0.162 9 -0.338 0
0.79018 -2.8847e-07 0 0.1183 1 0.163 9 -0.337 0
0.7943 -2.9091e-07 0 0.1183 1 0.164 9 -0.336 0
0.79842 -2.9334e-07 0 0.1183 1 0.165 9 -0.335 0
0.80254 -2.9578e-07 0 0.1183 1 0.166 9 -0.334 0
0.80666 -2.9821e-07 0 0.1183 1 0.167 9 -0.333 0
0.81078 -3.0065e-07 0 0.1183 1 0.168 9 -0.332 0
0.8149 -3.0308e-07 0 0.1183 1 0.169 9 -0.331 0
0.81902 -3.0551e-07 0 0.1183 1 0.17 9 -0.33 0
0.82314 -3.0795e-07 0 0.1183 1 0.171 9 -0.329 0
0.82726 -3.1038e-07 0 0.1183 1 0.172 9 -0.328 0
0.83138 -3.1282e-07 0 0.1183 1 0.173 9 -0.327 0
0.8355 -3.1525e-07 0 0.1183 1 0.174 9 -0.326 0
0.83962 -3.1769e-07 0 0.1183 1 0.175 9 -0.325 0
0.84374 -3.2012e-07 0 0.1183 1 0.176 9 -0.324 0
0.84786 -3.2256e-07 0 0.1183 1 0.177 9 -0.323 0
0.85197 -3.2499e-07 0 0.1183 1 0.178 9 -0.322 0
0.85609 -3.2743e-07 0 0.1183 1 0.179 9 -0.321 0
0.86021 -3.2986e-07 0 0.1183 1 0.18 9 -0.32 0
0.86433 -3.3229e-07 0 0.1183 1 0.181 9 -0.319 0
0.86845 -3.3473e-07 0 0.1183 1 0.182 9 -0.318 0
0.87257 -3.3716e-07 0 0.1183 1 0.183 9 -0.317 0
0.87669 -3.396e-07 0 0.1183 1 0.184 9 -0.316 0
0.88081 -3.4203e-07 0 0.1183 1 0.185 9 -0.315 0
0.88493 -3.4447e-07 0 0.1183 1 0.186 9 -0.314 0
0.88905 -3.469e-07 0 0.1183 1 0.187 9 -0.313 0
0.89317 -3.4934e-07 0 0.1183 1 0.188 9 -0.312 0
0.89729 -3.5177e-07 0 0.1183 1 0.189 9 -0.311 0
0.90141 -3.5421e-07 0 0.1183 1 0.19 9 -0.31 0
0.90553 -3.5664e-07 0 0.1183 1 0.191 9 -0.309 0
0.90965 -3.5908e-07 0 0.1183 1 0.192 9 -0.308 0
0.91376 -3.6151e-07 0 0.1183 1 0.193 9 -0.307 0
0.91788 -3.6394e-07 0 0.1183 1 0.194 9 -0.306 0
0.922 -3.6638e-07 0 0.1183 1 0.195 9 -0.305 0
0.92612 -3.6881e-07 0 0.1183 1 0.196 9 -0.304 0
0.93024 -3.7125e-07 0 0.1183 1 0.197 9 -0.303 0
0.93436 -3.7368e-07 0 0.1183 1 0.198 9 -0.302 0
0.93848 -3.7612e-07 0 0.1183 1 0.199 9 -0.301 0
0.9426 -3.7855e-07 0 0.1183 1 0.2 9 -0.3 0
0.94553 -3.7938e-07 0 0.1183 1 0.201 9 -0.299 0
0.94846 -3.8022e-07 0 0.1183 1 0.202 9 -0.298 0
0.95139 -3.8105e-07 0 0.1183 1 0.203 9 -0.297 0
0.95431 -3.8188e-07 0 0.1183 1 0.204 9 -0.296 0
0.95724 -3.8272e-07 0 0.1183 1 0.205 9 -0.295 0
0.96017 -3.8355e-07 0 0.1183 1 0.206 9 -0.294 0
0.9631 -3.8438e-07 0 0.1183 1 0.207 9 -0.293 0
0.96603 -3.8521e-07 0 0.1183 1 0.208 9 -0.292 0
0.96896 -3.8605e-07 0 0.1183 1 0.209 9 -0.291 0
0.97188 -3.8688e-07 0 0.1183 1 0.21 9 -0.29 0
0.97481 -3.8771e-07 0 0.1183 1 0.211 9 -0.289 0
0.97774 -3.8855e-07 0 0.1183 1 0.212 9 -0.288 0
0.98067 -3.8938e-07 0 0.1183 1 0.213 9 -0.287 0
0.9836 -3.9021e-07 0 0.1183 1 0.214 9 -0.286 0
0.98653 -3.9104e-07 0 0.1183 1 0.215 9 -0.285 0
0.98945 -3.9188e-07 0 0.1183 1 0.216 9 -0.284 0
0.99238 -3.9271e-07 0 0.1183 1 0.217 9 -0.283 0
0.99531 -3.9354e-07 0 0.1183 1 0.218 9 -0.282 0
0.99824 -3.9438e-07 0 0.1183 1 0.219 9 -0.281 0
1.0012 -3.9521e-07 0 0.1183 1 0.22 9 -0.28 0
1.0041 -3.9604e-07 0 0.1183 1 0.221 9 -0.279 0
1.007 -3.9687e-07 0 0.1183 1 0.222 9 -0.278 0
1.01 -3.9771e-07 0 0.1183 1 0.223 9 -0.277 0
1.0129 -3.9854e-07 0 0.1183 1 0.224 9 -0.276 0
1.0158 -3.9937e-07 0 0.1183 1 0.225 9 -0.275 0
1.0187 -4.0021e-07 0 0.1183 1 0.226 9 -0.274 0
1.0217 -4.0104e-07 0 0.1183 1 0.227 9 -0.273 0
1.0246 -4.0187e-07 0 0.1183 1 0.228 9 -0.272 0
1.0275 -4.027e-07 0 0.1183 1 0.229 9 -0.271 0
1.0305 -4.0354e-07 0 0.1183 1 0.23 9 -0.27 0
1.0334 -4.0437e-07 0 0.1183 1 0.231 9 -0.269 0
1.0363 -4.052e-07 0 0.1183 1 0.232 9 -0.268 0
1.0392 -4.0604e-07 0 0.1183 1 0.233 9 -0.267 0
1.0422 -4.0687e-07 0 0.1183 1 0.234 9 -0.266 0
1.0451 -4.077e-07 0 0.1183 1 0.235 9 -0.265 0
1.048 -4.0853e-07 0 0.1183 1 0.236 9 -0.264 0
1.051 -4.0937e-07 0 0.1183 1 0.237 9 -0.263 0
1.0539 -4.102e-07 0 0.1183 1 0.238 9 -0.262 0
1.0568 -4.1103e-07 0 0.1183 1 0.239 9 -0.261 0
1.0597 -4.1186e-07 0 0.1183 1 0.24 9 -0.26 0
1.0627 -4.127e-07 0 0.1183 1 0.241 9 -0.259 0
1.0656 -4.1353e-07 0 0.1183 1 0.242 9 -0.258 0
1.0685 -4.1436e-07 0 0.1183 1 0.243 9 -0.257 0
1.0714 -4.152e-07 0 0.1183 1 0.244 9 -0.256 0
1.0744 -4.1603e-07 0 0.1183 1 0.245 9 -0.255 0
1.0773 -4.1686e-07 0 0.1183 1 0.246 9 -0.254 0
1.0802 -4.1769e-07 0 0.1183 1 0.247 9 -0.253 0
1.0832 -4.1853e-07 0 0.1183 1 0.248 9 -0.252 0
1.0861 -4.1936e-07 0 0.1183 1 0.249 9 -0.251 0
1.089 -4.2019e-07 0 0.1183 1 0.25 9 -0.25 0
1.0919 -4.2103e-07 0 0.1183 1 0.251 9 -0.249 0
1.0949 -4.2186e-07 0 0.1183 1 0.252 9 -0.248 0
1.0978 -4.2269e-07 0 0.1183 1 0.253 9 -0.247 0
1.1007 -4.2352e-07 0 0.1183 1 0.254 9 -0.246 0
1.1037 -4.2436e-07 0 0.1183 1 0.255 9 -0.245 0
1.1066 -4.2519e-07 0 0.1183 1 0.256 9 -0.244 0
1.1095 -4.2602e-07 0 0.1183 1 0.257 9 -0.243 0
1.1124 -4.2686e-07 0 0.1183 1 0.258 9 -0.242 0
1.1154 -4.2769e-07 0 0.1183 1 0.259 9 -0.241 0
1.1183 -4.2852e-07 0 0.1183 1 0.26 9 -0.24 0
1.1212 -4.2935e-07 0 0.1183 1 0.261 9 -0.239 0
1.1242 -4.3019e-07 0 0.1183 1 0.262 9 -0.238 0
1.1271 -4.3102e-07 0 0.1183 1 0.263 9 -0.237 0
1.13 -4.3185e-07 0 0.1183 1 0.264 9 -0.236 0
1.1329 -4.3269e-07 0 0.1183 1 0.265 9 -0.235 0
1.1359 -4.3352e-07 0 0.1183 1 0.266 9 -0.234 0
1.1388 -4.3435e-07 0 0.1183 1 0.267 9 -0.233 0
1.1417 -4.3518e-07 0 0.1183 1 0.268 9 -0.232 0
1.1447 -4.3602e-07 0 0.1183 1 0.269 9 -0.231 0
1.1476 -4.3685e-07 0 0.1183 1 0.27 9 -0.23 0
1.1505 -4.3768e-07 0 0.1183 1 0.271 9 -0.229 0
1.1534 -4.3852e-07 0 0.1183 1 0.272 9 -0.228 0
1.1564 -4.3935e-07 0 0.1183 1 0.273 9 -0.227 0
1.1593 -4.4018e-07 0 0.1183 1 0.274 9 -0.226 0
1.1622 -4.4101e-07 0 0.1183 1 0.275 9 -0.225 0
1.1652 -4.4185e-07 0 0.1183 1 0.276 9 -0.224 0
1.1681 -4.4268e-07 0 0.1183 1 0.277 9 -0.223 0
1.171 -4.4351e-07 0 0.1183 1 0.278 9 -0.222 0
1.1739 -4.4435e-07 0 0.1183 1 0.279 9 -0.221 0
1.1769 -4.4518e-07 0 0.1183 1 0.28 9 -0.22 0
1.1798 -4.4601e-07 0 0.1183 1 0.281 9 -0.219 0
1.1827 -4.4684e-07 0 0.1183 1 0.282 9 -0.218 0
1.1857 -4.4768e-07 0 0.1183 1 0.283 9 -0.217 0
1.1886 -4.4851e-07 0 0.1183 1 0.284 9 -0.216 0
1.1915 -4.4934e-07 0 0.1183 1 0.285 9 -0.215 0
1.1944 -4.5018e-07 0 0.1183 1 0.286 9 -0.214 0
1.1974 -4.5101e-07 0 0.1183 1 0.287 9 -0.213 0
1.2003 -4.5184e-07 0 0.1183 1 0.288 9 -0.212 0
1.2032 -4.5267e-07 0 0.1183 1 0.289 9 -0.211 0
1.2062 -4.5351e-07 0 0.1183 1 0.29 9 -0.21 0
1.2091 -4.5434e-07 0 0.1183 1 0.291 9 -0.209 0
1.212 -4.5517e-07 0 0.1183 1 0.292 9 -0.208 0
1.2149 -4.56e-07 0 0.1183 1 0.293 9 -0.207 0
1.2179 -4.5684e-07 0 0.1183 1 0.294 9 -0.206 0
1.2208 -4.5767e-07 0 0.1183 1 0.295 9 -0.205 0
1.2237 -4.585e-07 0 0.1183 1 0.296 9 -0.204 0
1.2267 -4.5934e-07 0 0.1183 1 0.297 9 -0.203 0
1.2296 -4.6017e-07 0 0.1183 1 0.298 9 -0.202 0
1.2325 -4.61e-07 0 0.1183 1 0.299 9 -0.201 0
1.2354 -4.6183e-07 0 0.1183 1 0.3 9 -0.2 0
1.2372 -4.6018e-07 0 0.1183 1 0.301 9 -0.199 0
1.2389 -4.5853e-07 0 0.1183 1 0.302 9 -0.198 0
1.2407 -4.5687e-07 0 0.1183 1 0.303 9 -0.197 0
1.2424 -4.5522e-07 0 0.1183 1 0.304 9 -0.196 0
1.2442 -4.5356e-07 0 0.1183 1 0.305 9 -0.195 0
1.2459 -4.5191e-07 0 0.1183 1 0.306 9 -0.194 0
1.2477 -4.5025e-07 0 0.1183 1 0.307 9 -0.193 0
1.2494 -4.486e-07 0 0.1183 1 0.308 9 -0.192 0
1.2511 -4.4694e-07 0 0.1183 1 0.309 9 -0.191 0
1.2529 -4.4529e-07 0 0.1183 1 0.31 9 -0.19 0
1.2546 -4.4364e-07 0 0.1183 1 0.311 9 -0.189 0
1.2564 -4.4198e-07 0 0.1183 1 0.312 9 -0.188 0
1.2581 -4.4033e-07 0 0.1183 1 0.313 9 -0.187 0
1.2599 -4.3867e-07 0 0.1183 1 0.314 9 -0.186 0
1.2616 -4.3702e-07 0 0.1183 1 0.315 9 -0.185 0
1.2634 -4.3536e-07 0 0.1183 1 0.316 9 -0.184 0
1.2651 -4.3371e-07 0 0.1183 1 0.317 9 -0.183 0
1.2669 -4.3205e-07 0 0.1183 1 0.318 9 -0.182 0
1.2686 -4.304e-07 0 0.1183 1 0.319 9 -0.181 0
1.2703 -4.2874e-07 0 0.1183 1 0.32 9 -0.18 0
1.2721 -4.2709e-07 0 0.1183 1 0.321 9 -0.179 0
1.2738 -4.2544e-07 0 0.1183 1 0.322 9 -0.178 0
1.2756 -4.2378e-07 0 0.1183 1 0.323 9 -0.177 0
1.2773 -4.2213e-07 0 0.1183 1 0.324 9 -0.176 0
1.2791 -4.2047e-07 0 0.1183 1 0.325 9 -0.175 0
1.2808 -4.1882e-07 0 0.1183 1 0.326 9 -0.174 0
1.2826 -4.1716e-07 0 0.1183 1 0.327 9 -0.173 0
1.2843 -4.1551e-07 0 0.1183 1 0.328 9 -0.172 0
1.286 -4.1385e-07 0 0.1183 1 0.329 9 -0.171 0
1.2878 -4.122e-07 0 0.1183 1 0.33 9 -0.17 0
1.2895 -4.1054e-07 0 0.1183 1 0.331 9 -0.169 0
1.2913 -4.0889e-07 0 0.1183 1 0.332 9 -0.168 0
1.293 -4.0724e-07 0 0.1183 1 0.333 9 -0.167 0
1.2948 -4.0558e-07 0 0.1183 1 0.334 9 -0.166 0
1.2965 -4.0393e-07 0 0.1183 1 0.335 9 -0.165 0
1.2983 -4.0227e-07 0 0.1183 1 0.336 9 -0.164 0
1.3 -4.0062e-07 0 0.1183 1 0.337 9 -0.163 0
1.3018 -3.9896e-07 0 0.1183 1 0.338 9 -0.162 0
1.3035 -3.9731e-07 0 0.1183 1 0.339 9 -0.161 0
1.3052 -3.9565e-07 0 0.1183 1 0.34 9 -0.16 0
1.307 -3.94e-07 0 0.1183 1 0.341 9 -0.159 0
1.3087 -3.9235e-07 0 0.1183 1 0.342 9 -0.158 0
1.3105 -3.9069e-07 0 0.1183 1 0.343 9 -0.157 0
1.3122 -3.8904e-07 0 0.1183 1 0.344 9 -0.156 0
1.314 -3.8738e-07 0 0.1183 1 0.345 9 -0.155 0
1.3157 -3.8573e-07 0 0.1183 1 0.346 9 -0.154 0
1.3175 -3.8407e-07 0 0.1183 1 0.347 9 -0.153 0
1.3192 -3.8242e-07 0 0.1183 1 0.348 9 -0.152 0
1.3209 -3.8076e-07 0 0.1183 1 0.349 9 -0.151 0
1.3227 -3.7911e-07 0 0.1183 1 0.35 9 -0.15 0
1.3244 -3.7745e-07 0 0.1183 1 0.351 9 -0.149 0
1.3262 -3.758e-07 0 0.1183 1 0.352 9 -0.148 0
1.3279 -3.7415e-07 0 0.1183 1 0.353 9 -0.147 0
1.3297 -3.7249e-07 0 0.1183 1 0.354 9 -0.146 0
1.3314 -3.7084e-07 0 0.1183 1 0.355 9 -0.145 0
1.3332 -3.6918e-07 0 0.1183 1 0.356 9 -0.144 0
1.3349 -3.6753e-07 0 0.1183 1 0.357 9 -0.143 0
1.3367 -3.6587e-07 0 0.1183 1 0.358 9 -0.142 0
1.3384 -3.6422e-07 0 0.1183 1 0.359 9 -0.141 0
1.3401 -3.6256e-07 0 0.1183 1 0.36 9 -0.14 0
1.3419 -3.6091e-07 0 0.1183 1 0.361 9 -0.139 0
1.3436 -3.5925e-07 0 0.1183 1 0.362 9 -0.138 0
1.3454 -3.576e-07 0 0.1183 1 0.363 9 -0.137 0
1.3471 -3.5595e-07 0 0.1183 1 0.364 9 -0.136 0
1.3489 -3.5429e-07 0 0.1183 1 0.365 9 -0.135 0
1.3506 -3.5264e-07 0 0.1183 1 0.366 9 -0.134 0
1.3524 -3.5098e-07 0 0.1183 1 0.367 9 -0.133 0
1.3541 -3.4933e-07 0 0.1183 1 0.368 9 -0.132 0
1.3559 -3.4767e-07 0 0.1183 1 0.369 9 -0.131 0
1.3576 -3.4602e-07 0 0.1183 1 0.37 9 -0.13 0
1.3593 -3.4436e-07 0 0.1183 1 0.371 9 -0.129 0
1.3611 -3.4271e-07 0 0.1183 1 0.372 9 -0.128 0
1.3628 -3.4106e-07 0 0.1183 1 0.373 9 -0.127 0
1.3646 -3.394e-07 0 0.1183 1 0.374 9 -0.126 0
1.3663 -3.3775e-07 0 0.1183 1 0.375 9 -0.125 0
1.3681 -3.3609e-07 0 0.1183 1 0.376 9 -0.124 0
1.3698 -3.3444e-07 0 0.1183 1 0.377 9 -0.123 0
1.3716 -3.3278e-07 0 0.1183 1 0.378 9 -0.122 0
1.3733 -3.3113e-07 0 0.1183 1 0.379 9 -0.121 0
1.375 -3.2947e-07 0 0.1183 1 0.38 9 -0.12 0
1.3768 -3.2782e-07 0 0.1183 1 0.381 9 -0.119 0
1.3785 -3.2616e-07 0 0.1183 1 0.382 9 -0.118 0
1.3803 -3.2451e-07 0 0.1183 1 0.383 9 -0.117 0
1.382 -3.2286e-07 0 0.1183 1 0.384 9 -0.116 0
1.3838 -3.212e-07 0 0.1183 1 0.385 9 -0.115 0
1.3855 -3.1955e-07 0 0.1183 1 0.386 9 -0.114 0
1.3873 -3.1789e-07 0 0.1183 1 0.387 9 -0.113 0
1.389 -3.1624e-07 0 0.1183 1 0.388 9 -0.112 0
1.3908 -3.1458e-07 0 0.1183 1 0.389 9 -0.111 0
1.3925 -3.1293e-07 0 0.1183 1 0.39 9 -0.11 0
1.3942 -3.1127e-07 0 0.1183 1 0.391 9 -0.109 0
1.396 -3.0962e-07 0 0.1183 1 0.392 9 -0.108 0
1.3977 -3.0797e-07 0 0.1183 1 0.393 9 -0.107 0
1.3995 -3.0631e-07 0 0.1183 1 0.394 9 -0.106 0
1.4012 -3.0466e-07 0 0.1183 1 0.395 9 -0.105 0
1.403 -3.03e-07 0 0.1183 1 0.396 9 -0.104 0
1.4047 -3.0135e-07 0 0.1183 1 0.397 9 -0.103 0
1.4065 -2.9969e-07 0 0.1183 1 0.398 9 -0.102 0
1.4082 -2.9804e-07 0 0.1183 1 0.399 9 -0.101 0
1.4099 -2.9638e-07 0 0.1183 1 0.4 9 -0.1 0
1.4105 -2.9334e-07 0 0.1183 1 0.401 9 -0.099 0
1.4111 -2.903e-07 0 0.1183 1 0.402 9 -0.098 0
1.4117 -2.8726e-07 0 0.1183 1 0.403 9 -0.097 0
1.4123 -2.8422e-07 0 0.1183 1 0.404 9 -0.096 0
1.4128 -2.8118e-07 0 0.1183 1 0.405 9 -0.095 0
1.4134 -2.7814e-07 0 0.1183 1 0.406 9 -0.094 0
1.414 -2.751e-07 0 0.1183 1 0.407 9 -0.093 0
1.4146 -2.7206e-07 0 0.1183 1 0.408 9 -0.092 0
1.4152 -2.6902e-07 0 0.1183 1 0.409 9 -0.091 0
1.4157 -2.6598e-07 0 0.1183 1 0.41 9 -0.09 0
1.4163 -2.6294e-07 0 0.1183 1 0.411 9 -0.089 0
1.4169 -2.599e-07 0 0.1183 1 0.412 9 -0.088 0
1.4175 -2.5686e-07 0 0.1183 1 0.413 9 -0.087 0
1.418 -2.5382e-07 0 0.1183 1 0.414 9 -0.086 0
1.4186 -2.5078e-07 0 0.1183 1 0.415 9 -0.085 0
1.4192 -2.4774e-07 0 0.1183 1 0.416 9 -0.084 0
1.4198 -2.447e-07 0 0.1183 1 0.417 9 -0.083 0
1.4204 -2.4166e-07 0 0.1183 1 0.418 9 -0.082 0
1.4209 -2.3862e-07 0 0.1183 1 0.419 9 -0.081 0
1.4215 -2.3557e-07 0 0.1183 1 0.42 9 -0.08 0
1.4221 -2.3253e-07 0 0.1183 1 0.421 9 -0.079 0
1.4227 -2.2949e-07 0 0.1183 1 0.422 9 -0.078 0
1.4233 -2.2645e-07 0 0.1183 1 0.423 9 -0.077 0
1.4238 -2.2341e-07 0 0.1183 1 0.424 9 -0.076 0
1.4244 -2.2037e-07 0 0.1183 1 0.425 9 -0.075 0
1.425 -2.1733e-07 0 0.1183 1 0.426 9 -0.074 0
1.4256 -2.1429e-07 0 0.1183 1 0.427 9 -0.073 0
1.4261 -2.1125e-07 0 0.1183 1 0.428 9 -0.072 0
1.4267 -2.0821e-07 0 0.1183 1 0.429 9 -0.071 0
1.4273 -2.0517e-07 0 0.1183 1 0.43 9 -0.07 0
1.4279 -2.0213e-07 0 0.1183 1 0.431 9 -0.069 0
1.4285 -1.9909e-07 0 0.1183 1 0.432 9 -0.068 0
1.429 -1.9605e-07 0 0.1183 1 0.433 9 -0.067 0
1.4296 -1.9301e-07 0 0.1183 1 0.434 9 -0.066 0
1.4302 -1.8997e-07 0 0.1183 1 0.435 9 -0.065 0
1.4308 -1.8693e-07 0 0.1183 1 0.436 9 -0.064 0
1.4314 -1.8389e-07 0 0.1183 1 0.437 9 -0.063 0
1.4319 -1.8085e-07 0 0.1183 1 0.438 9 -0.062 0
1.4325 -1.7781e-07 0 0.1183 1 0.439 9 -0.061 0
1.4331 -1.7477e-07 0 0.1183 1 0.44 9 -0.06 0
1.4337 -1.7173e-07 0 0.1183 1 0.441 9 -0.059 0
1.4342 -1.6869e-07 0 0.1183 1 0.442 9 -0.058 0
1.4348 -1.6565e-07 0 0.1183 1 0.443 9 -0.057 0
1.4354 -1.626e-07 0 0.1183 1 0.444 9 -0.056 0
1.436 -1.5956e-07 0 0.1183 1 0.445 9 -0.055 0
1.4366 -1.5652e-07 0 0.1183 1 0.446 9 -0.054 0
1.4371 -1.5348e-07 0 0.1183 1 0.447 9 -0.053 0
1.4377 -1.5044e-07 0 0.1183 1 0.448 9 -0.052 0
1.4383 -1.474e-07 0 0.1183 1 0.449 9 -0.051 0
1.4389 -1.4436e-07 0 0.1183 1 0.45 9 -0.05 0
1.4395 -1.4132e-07 0 0.1183 1 0.451 9 -0.049 0
1.44 -1.3828e-07 0 0.1183 1 0.452 9 -0.048 0
1.4406 -1.3524e-07 0 0.1183 1 0.453 9 -0.047 0
1.4412 -1.322e-07 0 0.1183 1 0.454 9 -0.046 0
1.4418 -1.2916e-07 0 0.1183 1 0.455 9 -0.045 0
1.4423 -1.2612e-07 0 0.1183 1 0.456 9 -0.044 0
1.4429 -1.2308e-07 0 0.1183 1 0.457 9 -0.043 0
1.4435 -1.2004e-07 0 0.1183 1 0.458 9 -0.042 0
1.4441 -1.17e-07 0 0.1183 1 0.459 9 -0.041 0
1.4447 -1.1396e-07 0 0.1183 1 0.46 9 -0.04 0
1.4452 -1.1092e-07 0 0.1183 1 0.461 9 -0.039 0
1.4458 -1.0788e-07 0 0.1183 1 0.462 9 -0.038 0
1.4464 -1.0484e-07 0 0.1183 1 0.463 9 -0.037 0
1.447 -1.018e-07 0 0.1183 1 0.464 9 -0.036 0
1.4476 -9.8756e-08 0 0.1183 1 0.465 9 -0.035 0
1.4481 -9.5715e-08 0 0.1183 1 0.466 9 -0.034 0
1.4487 -9.2675e-08 0 0.1183 1 0.467 9 -0.033 0
1.4493 -8.9634e-08 0 0.1183 1 0.468 9 -0.032 0
1.4499 -8.6594e-08 0 0.1183 1 0.469 9 -0.031 0
1.4504 -8.3553e-08 0 0.1183 1 0.47 9 -0.03 0
1.451 -8.0513e-08 0 0.1183 1 0.471 9 -0.029 0
1.4516 -7.7473e-08 0 0.1183 1 0.472 9 -0.028 0
1.4522 -7.4432e-08 0 0.1183 1 0.473 9 -0.027 0
1.4528 -7.1392e-08 0 0.1183 1 0.474 9 -0.026 0
1.4533 -6.8351e-08 0 0.1183 1 0.475 9 -0.025 0
1.4539 -6.5311e-08 0 0.1183 1 0.476 9 -0.024 0
1.4545 -6.227e-08 0 0.1183 1 0.477 9 -0.023 0
1.4551 -5.923e-08 0 0.1183 1 0.478 9 -0.022 0
1.4557 -5.619e-08 0 0.1183 1 0.479 9 -0.021 0
1.4562 -5.3149e-08 0 0.1183 1 0.48 9 -0.02 0
1.4568 -5.0109e-08 0 0.1183 1 0.481 9 -0.019 0
1.4574 -4.7068e-08 0 0.1183 1 0.482 9 -0.018 0
1.458 -4.4028e-08 0 0.1183 1 0.483 9 -0.017 0
1.4586 -4.0987e-08 0 0.1183 1 0.484 9 -0.016 0
1.4591 -3.7947e-08 0 0.1183 1 0.485 9 -0.015 0
1.4597 -3.4907e-08 0 0.1183 1 0.486 9 -0.014 0
1.4603 -3.1866e-08 0 0.1183 1 0.487 9 -0.013 0
1.4609 -2.8826e-08 0 0.1183 1 0.488 9 -0.012 0
1.4614 -2.5785e-08 0 0.1183 1 0.489 9 -0.011 0
1.462 -2.2745e-08 0 0.1183 1 0.49 9 -0.01 0
1.4626 -1.9704e-08 0 0.1183 1 0.491 9 -0.009 0
1.4632 -1.6664e-08 0 0.1183 1 0.492 9 -0.008 0
1.4638 -1.3624e-08 0 0.1183 1 0.493 9 -0.007 0
1.4643 -1.0583e-08 0 0.1183 1 0.494 9 -0.006 0
1.4649 -7.5428e-09 0 0.1183 1 0.495 9 -0.005 0
1.4655 -4.5024e-09 0 0.1183 1 0.496 9 -0.004 0
1.4661 -1.4619e-09 0 0.1183 1 0.497 9 -0.003 0
1.4667 1.5785e-09 0 0.1183 1 0.498 9 -0.002 0
1.4672 4.6189e-09 0 0.1183 1 0.499 9 -0.001 0
1.4678 7.6594e-09 0 0.1183 1 0.5 9 0 0
1.4672 1.0672e-08 0 0.1183 1 0.501 9 0.001 0
1.4667 1.3685e-08 0 0.1183 1 0.502 9 0.002 0
1.4661 1.6698e-08 0 0.1183 1 0.503 9 0.003 0
1.4655 1.9711e-08 0 0.1183 1 0.504 9 0.004 0
1.4649 2.2724e-08 0 0.1183 1 0.505 9 0.005 0
1.4643 2.5738e-08 0 0.1183 1 0.506 9 0.006 0
1.4638 2.8751e-08 0 0.1183 1 0.507 9 0.007 0
1.4632 3.1764e-08 0 0.1183 1 0.508 9 0.008 0
1.4626 3.4777e-08 0 0.1183 1 0.509 9 0.009 0
1.462 3.779e-08 0 0.1183 1 0.51 9 0.01 0
1.4614 4.0803e-08 0 0.1183 1 0.511 9 0.011 0
1.4609 4.3816e-08 0 0.1183 1 0.512 9 0.012 0
1.4603 4.6829e-08 0 0.1183 1 0.513 9 0.013 0
1.4597 4.9842e-08 0 0.1183 1 0.514 9 0.014 0
1.4591 5.2855e-08 0 0.1183 1 0.515 9 0.015 0
1.4586 5.5868e-08 0 0.1183 1 0.516 9 0.016 0
1.458 5.8881e-08 0 0.1183 1 0.517 9 0.017 0
1.4574 6.1894e-08 0 0.1183 1 0.518 9 0.018 0
1.4568 6.4907e-08 0 0.1183 1 0.519 9 0.019 0
1.4562 6.792e-08 0 0.1183 1 0.52 9 0.02 0
1.4557 7.0933e-08 0 0.1183 1 0.521 9 0.021 0
1.4551 7.3946e-08 0 0.1183 1 0.522 9 0.022 0
1.4545 7.6959e-08 0 0.1183 1 0.523 9 0.023 0
1.4539 7.9972e-08 0 0.1183 1 0.524 9 0.024 0
1.4533 8.2985e-08 0 0.1183 1 0.525 9 0.025 0
1.4528 8.5998e-08 0 0.1183 1 0.526 9 0.026 0
1.4522 8.9011e-08 0 0.1183 1 0.527 9 0.027 0
1.4516 9.2024e-08 0 0.1183 1 0.528 9 0.028 0
1.451 9.5037e-08 0 0.1183 1 0.529 9 0.029 0
1.4504 9.805e-08 0 0.1183 1 0.53 9 0.03 0
1.4499 1.0106e-07 0 0.1183 1 0.531 9 0.031 0
1.4493 1.0408e-07 0 0.1183 1 0.532 9 0.032 0
1.4487 1.0709e-07 0 0.1183 1 0.533 9 0.033 0
1.4481 1.101e-07 0 0.1183 1 0.534 9 0.034 0
1.4476 1.1312e-07 0 0.1183 1 0.535 9 0.035 0
1.447 1.1613e-07 0 0.1183 1 0.536 9 0.036 0
1.4464 1.1914e-07 0 0.1183 1 0.537 9 0.037 0
1.4458 1.2215e-07 0 0.1183 1 0.538 9 0.038 0
1.4452 1.2517e-07 0 0.1183 1 0.539 9 0.039 0
1.4447 1.2818e-07 0 0.1183 1 0.54 9 0.04 0
1.4441 1.3119e-07 0 0.1183 1 0.541 9 0.041 0
1.4435 1.3421e-07 0 0.1183 1 0.542 9 0.042 0
1.4429 1.3722e-07 0 0.1183 1 0.543 9 0.043 0
1.4423 1.4023e-07 0 0.1183 1 0.544 9 0.044 0
1.4418 1.4325e-07 0 0.1183 1 0.545 9 0.045 0
1.4412 1.4626e-07 0 0.1183 1 0.546 9 0.046 0
1.4406 1.4927e-07 0 0.1183 1 0.547 9 0.047 0
1.44 1.5228e-07 0 0.1183 1 0.548 9 0.048 0
1.4395 1.553e-07 0 0.1183 1 0.549 9 0.049 0
1.4389 1.5831e-07 0 0.1183 1 0.55 9 0.05 0
1.4383 1.6132e-07 0 0.1183 1 0.551 9 0.051 0
1.4377 1.6434e-07 0 0.1183 1 0.552 9 0.052 0
1.4371 1.6735e-07 0 0.1183 1 0.553 9 0.053 0
1.4366 1.7036e-07 0 0.1183 1 0.554 9 0.054 0
1.436 1.7338e-07 0 0.1183 1 0.555 9 0.055 0
1.4354 1.7639e-07 0 0.1183 1 0.556 9 0.056 0
1.4348 1.794e-07 0 0.1183 1 0.557 9 0.057 0
1.4342 1.8241e-07 0 0.1183 1 0.558 9 0.058 0
1.4337 1.8543e-07 0 0.1183 1 0.559 9 0.059 0
1.4331 1.8844e-07 0 0.1183 1 0.56 9 0.06 0
1.4325 1.9145e-07 0 0.1183 1 0.561 9 0.061 0
1.4319 1.9447e-07 0 0.1183 1 0.562 9 0.062 0
1.4314 1.9748e-07 0 0.1183 1 0.563 9 0.063 0
1.4308 2.0049e-07 0 0.1183 1 0.564 9 0.064 0
1.4302 2.0351e-07 0 0.1183 1 0.565 9 0.065 0
1.4296 2.0652e-07 0 0.1183 1 0.566 9 0.066 0
1.429 2.0953e-07 0 0.1183 1 0.567 9 0.067 0
1.4285 2.1255e-07 0 0.1183 1 0.568 9 0.068 0
1.4279 2.1556e-07 0 0.1183 1 0.569 9 0.069 0
1.4273 2.1857e-07 0 0.1183 1 0.57 9 0.07 0
1.4267 2.2158e-07 0 0.1183 1 0.571 9 0.071 0
1.4261 2.246e-07 0 0.1183 1 0.572 9 0.072 0
1.4256 2.2761e-07 0 0.1183 1 0.573 9 0.073 0
1.425 2.3062e-07 0 0.1183 1 0.574 9 0.074 0
1.4244 2.3364e-07 0 0.1183 1 0.575 9 0.075 0
1.4238 2.3665e-07 0 0.1183 1 0.576 9 0.076 0
1.4233 2.3966e-07 0 0.1183 1 0.577 9 0.077 0
1.4227 2.4268e-07 0 0.1183 1 0.578 9 0.078 0
1.4221 2.4569e-07 0 0.1183 1 0.579 9 0.079 0
1.4215 2.487e-07 0 0.1183 1 0.58 9 0.08 0
1.4209 2.5171e-07 0 0.1183 1 0.581 9 0.081 0
1.4204 2.5473e-07 0 0.1183 1 0.582 9 0.082 0
1.4198 2.5774e-07 0 0.1183 1 0.583 9 0.083 0
1.4192 2.6075e-07 0 0.1183 1 0.584 9 0.084 0
1.4186 2.6377e-07 0 0.1183 1 0.585 9 0.085 0
1.418 2.6678e-07 0 0.1183 1 0.586 9 0.086 0
1.4175 2.6979e-07 0 0.1183 1 0.587 9 0.087 0
1.4169 2.7281e-07 0 0.1183 1 0.588 9 0.088 0
1.4163 2.7582e-07 0 0.1183 1 0.589 9 0.089 0
1.4157 2.7883e-07 0 0.1183 1 0.59 9 0.09 0
1.4152 2.8184e-07 0 0.1183 1 0.591 9 0.091 0
1.4146 2.8486e-07 0 0.1183 1 0.592 9 0.092 0
1.414 2.8787e-07 0 0.1183 1 0.593 9 0.093 0
1.4134 2.9088e-07 0 0.1183 1 0.594 9 0.094 0
1.4128 2.939e-07 0 0.1183 1 0.595 9 0.095 0
1.4123 2.9691e-07 0 0.1183 1 0.596 9 0.096 0
1.4117 2.9992e-07 0 0.1183 1 0.597 9 0.097 0
1.4111 3.0294e-07 0 0.1183 1 0.598 9 0.098 0
1.4105 3.0595e-07 0 0.1183 1 0.599 9 0.099 0
1.4099 3.0896e-07 0 0.1183 1 0.6 9 0.1 0
1.4082 3.1053e-07 0 0.1183 1 0.601 9 0.101 0
1.4065 3.1211e-07 0 0.1183 1 0.602 9 0.102 0
1.4047 3.1368e-07 0 0.1183 1 0.603 9 0.103 0
1.403 3.1525e-07 0 0.1183 1 0.604 9 0.104 0
1.4012 3.1682e-07 0 0.1183 1 0.605 9 0.105 0
1.3995 3.1839e-07 0 0.1183 1 0.606 9 0.106 0
1.3977 3.1996e-07 0 0.1183 1 0.607 9 0.107 0
1.396 3.2154e-07 0 0.1183 1 0.608 9 0.108 0
1.3942 3.2311e-07 0 0.1183 1 0.609 9 0.109 0
1.3925 3.2468e-07 0 0.1183 1 0.61 9 0.11 0
1.3908 3.2625e-07 0 0.1183 1 0.611 9 0.111 0
1.389 3.2782e-07 0 0.1183 1 0.612 9 0.112 0
1.3873 3.2939e-07 0 0.1183 1 0.613 9 0.113 0
1.3855 3.3097e-07 0 0.1183 1 0.614 9 0.114 0
1.3838 3.3254e-07 0 0.1183 1 0.615 9 0.115 0
1.382 3.3411e-07 0 0.1183 1 0.616 9 0.116 0
1.3803 3.3568e-07 0 0.1183 1 0.617 9 0.117 0
1.3785 3.3725e-07 0 0.1183 1 0.618 9 0.118 0
1.3768 3.3883e-07 0 0.1183 1 0.619 9 0.119 0
1.375 3.404e-07 0 0.1183 1 0.62 9 0.12 0
1.3733 3.4197e-07 0 0.1183 1 0.621 9 0.121 0
1.3716 3.4354e-07 0 0.1183 1 0.622 9 0.122 0
1.3698 3.4511e-07 0 0.1183 1 0.623 9 0.123 0
1.3681 3.4668e-07 0 0.1183 1 0.624 9 0.124 0
1.3663 3.4826e-07 0 0.1183 1 0.625 9 0.125 0
1.3646 3.4983e-07 0 0.1183 1 0.626 9 0.126 0
1.3628 3.514e-07 0 0.1183 1 0.627 9 0.127 0
1.3611 3.5297e-07 0 0.1183 1 0.628 9 0.128 0
1.3593 3.5454e-07 0 0.1183 1 0.629 9 0.129 0
1.3576 3.5612e-07 0 0.1183 1 0.63 9 0.13 0
1.3559 3.5769e-07 0 0.1183 1 0.631 9 0.131 0
1.3541 3.5926e-07 0 0.1183 1 0.632 9 0.132 0
1.3524 3.6083e-07 0 0.1183 1 0.633 9 0.133 0
1.3506 3.624e-07 0 0.1183 1 0.634 9 0.134 0
1.3489 3.6397e-07 0 0.1183 1 0.635 9 0.135 0
1.3471 3.6555e-07 0 0.1183 1 0.636 9 0.136 0
1.3454 3.6712e-07 0 0.1183 1 0.637 9 0.137 0
1.3436 3.6869e-07 0 0.1183 1 0.638 9 0.138 0
1.3419 3.7026e-07 0 0.1183 1 0.639 9 0.139 0
1.3401 3.7183e-07 0 0.1183 1 0.64 9 0.14 0
1.3384 3.734e-07 0 0.1183 1 0.641 9 0.141 0
1.3367 3.7498e-07 0 0.1183 1 0.642 9 0.142 0
1.3349 3.7655e-07 0 0.1183 1 0.643 9 0.143 0
1.3332 3.7812e-07 0 0.1183 1 0.644 9 0.144 0