/*--------------------------------*- C++ -*----------------------------------*\
| =========                 |                                                 |
| \\      /  F ield         | OpenFOAM: The Open Source CFD Toolbox           |
|  \\    /   O peration     | Version:  v1812                                 |
|   \\  /    A nd           | Web:      www.OpenFOAM.com                      |
|    \\/     M anipulation  |                                                 |
\*---------------------------------------------------------------------------*/
FoamFile
{
    version     2.0;
    format      ascii;
    class       volScalarField;
    location    "3.8";
    object      p;
}
// * * * * * * * * * * * * * * * * * * * * * * * * * * * * * * * * * * * * * //

dimensions      [0 2 -2 0 0 0 0];


internalField   nonuniform List<scalar> 
1000
(
1.6881295
1.5670516
1.4710711
1.407415
1.3589055
1.3164335
1.2788983
1.2467266
1.2193263
1.1954889
1.1740948
1.1543314
1.1356549
1.1177162
1.1003022
1.08329
1.066612
1.050232
1.0341298
1.0182926
1.0027098
0.98737172
0.97226849
0.95739014
0.94272676
0.92826871
0.91400672
0.89993194
0.88603576
0.87230975
0.85874537
0.84533384
0.83206598
0.81893213
0.80592215
0.79302545
0.78023118
0.76752833
0.75490601
0.7423536
0.72986103
0.71741887
0.70501851
0.69265227
0.68031344
0.66799625
0.6556959
0.64340841
0.63113058
0.61885989
0.60659439
0.59433259
0.5820734
0.56981599
0.55755979
0.5453044
0.53304953
0.520795
0.50854068
0.49628648
0.48403237
0.4717783
0.45952425
0.44727022
0.4350162
0.42276218
0.41050817
0.39825416
0.38600014
0.37374613
0.36149212
0.34923811
0.3369841
0.32473008
0.31247607
0.30022206
0.28796805
0.27571404
0.26346003
0.25120602
0.23895201
0.22669799
0.21444398
0.20218997
0.18993596
0.17768195
0.16542794
0.15317393
0.14091992
0.12866591
0.1164119
0.10415789
0.091903883
0.079649881
0.067395877
0.055141884
0.042887901
0.030633973
0.01838011
0.0061265049
1.5709098
1.5159807
1.4550283
1.4034606
1.3601905
1.3212222
1.285636
1.2538634
1.2259026
1.2011248
1.1787231
1.1580221
1.138541
1.1199536
1.102041
1.0846579
1.0677084
1.0511305
1.0348828
1.0189366
1.0032698
0.98786491
0.97270645
0.95778082
0.9430757
0.92857991
0.9142832
0.90017612
0.88624976
0.87249555
0.85890495
0.84546924
0.83217934
0.81902566
0.80599809
0.79308608
0.78027869
0.76756484
0.75493346
0.74237375
0.72987541
0.7174288
0.70502511
0.69265645
0.68031591
0.66799758
0.65569649
0.64340855
0.63113047
0.61885967
0.60659414
0.59433235
0.58207318
0.56981582
0.55755966
0.5453043
0.53304946
0.52079495
0.50854064
0.49628646
0.48403235
0.47177829
0.45952425
0.44727022
0.4350162
0.42276218
0.41050817
0.39825416
0.38600014
0.37374613
0.36149212
0.34923811
0.3369841
0.32473008
0.31247607
0.30022206
0.28796805
0.27571404
0.26346003
0.25120602
0.23895201
0.22669799
0.21444398
0.20218997
0.18993596
0.17768195
0.16542794
0.15317393
0.14091992
0.12866591
0.1164119
0.10415789
0.091903877
0.079649873
0.067395854
0.055141847
0.042887819
0.030633847
0.018379895
0.0061263341
1.5100886
1.4839135
1.4455166
1.4043838
1.3652985
1.3287077
1.2944101
1.2626926
1.2338366
1.2077356
1.1839818
1.1620921
1.1416428
1.1223026
1.1038235
1.0860241
1.0687746
1.0519826
1.0355816
1.0195236
1.0037733
0.98830388
0.97309392
0.95812575
0.94338434
0.92885676
0.91453162
0.90039869
0.88644853
0.87267221
0.85906097
0.84560598
0.83229811
0.81912778
0.80608492
0.79315902
0.78033917
0.7676143
0.75497333
0.74240542
0.72990019
0.71744788
0.70503956
0.69266722
0.6803238
0.66800326
0.6557005
0.64341133
0.63113237
0.61886094
0.60659496
0.59433288
0.58207351
0.56981602
0.55755978
0.54530437
0.5330495
0.52079497
0.50854065
0.49628647
0.48403236
0.47177829
0.45952425
0.44727022
0.4350162
0.42276218
0.41050817
0.39825416
0.38600014
0.37374613
0.36149212
0.34923811
0.3369841
0.32473008
0.31247607
0.30022206
0.28796805
0.27571404
0.26346003
0.25120602
0.23895201
0.22669799
0.21444398
0.20218997
0.18993596
0.17768195
0.16542794
0.15317393
0.14091991
0.1286659
0.11641189
0.10415788
0.091903854
0.079649835
0.067395781
0.055141725
0.042887609
0.030633545
0.01837952
0.0061260815
1.4806801
1.465182
1.438312
1.4043882
1.3685872
1.3336359
1.300334
1.268981
1.2398504
1.2130591
1.1884718
1.16578
1.1446288
1.124701
1.1057441
1.0875662
1.070023
1.053006
1.0364332
1.0202431
1.0043901
0.98883971
0.97356503
0.95854428
0.94375937
0.9291951
0.91483846
0.90067799
0.88670325
0.87290453
0.8592725
0.84579792
0.8324714
0.81928322
0.80622326
0.79328102
0.7804457
0.7677063
0.75505187
0.74247165
0.72995533
0.71749319
0.70507629
0.69269658
0.68034695
0.66802125
0.65571428
0.64342173
0.63114011
0.61886661
0.60659906
0.59433579
0.58207555
0.56981742
0.55756073
0.545305
0.53304992
0.52079524
0.50854083
0.49628657
0.48403242
0.47177833
0.45952427
0.44727023
0.43501621
0.42276219
0.41050817
0.39825416
0.38600014
0.37374613
0.36149212
0.34923811
0.3369841
0.32473008
0.31247607
0.30022206
0.28796805
0.27571404
0.26346003
0.25120602
0.23895201
0.22669799
0.21444398
0.20218997
0.18993596
0.17768195
0.16542794
0.15317393
0.14091991
0.1286659
0.11641188
0.10415786
0.091903823
0.079649784
0.067395685
0.055141572
0.042887371
0.030633231
0.018379178
0.0061258705
1.4679485
1.4559952
1.4337608
1.4034732
1.3696121
1.3356166
1.302919
1.2719135
1.2428162
1.2158045
1.1908777
1.1678286
1.1463478
1.1261313
1.1069292
1.0885489
1.0708428
1.0536967
1.0370222
1.0207518
1.0048346
0.98923249
0.97391561
0.95885999
0.94404577
0.92945647
0.91507812
0.9008985
0.88690656
0.87309208
0.8594453
0.84595671
0.83261669
0.81941538
0.8063426
0.79338786
0.7805404
0.76778935
0.75512384
0.74253326
0.73000737
0.71753656
0.70511193
0.69272544
0.68036998
0.66803936
0.65572831
0.64343243
0.63114814
0.61887255
0.60660338
0.59433889
0.58207774
0.56981894
0.55756177
0.5453057
0.53305038
0.52079554
0.50854102
0.49628669
0.48403249
0.47177837
0.4595243
0.44727025
0.43501622
0.42276219
0.41050817
0.39825416
0.38600015
0.37374613
0.36149212
0.34923811
0.3369841
0.32473008
0.31247607
0.30022206
0.28796805
0.27571404
0.26346003
0.25120602
0.238952
0.22669799
0.21444398
0.20218997
0.18993596
0.17768195
0.16542794
0.15317393
0.14091991
0.1286659
0.11641187
0.10415785
0.091903801
0.079649747
0.06739562
0.055141471
0.042887224
0.030633046
0.018378989
0.0061257596
1.4679485
1.4559952
1.4337608
1.4034732
1.3696121
1.3356166
1.302919
1.2719135
1.2428162
1.2158045
1.1908777
1.1678286
1.1463478
1.1261313
1.1069292
1.0885489
1.0708428
1.0536967
1.0370222
1.0207518
1.0048346
0.9892325
0.97391562
0.95886
0.94404578
0.92945648
0.91507812
0.9008985
0.88690657
0.87309208
0.8594453
0.8459567
0.83261668
0.81941537
0.80634259
0.79338785
0.78054039
0.76778934
0.75512384
0.74253325
0.73000736
0.71753655
0.70511192
0.69272544
0.68036998
0.66803936
0.6557283
0.64343243
0.63114814
0.61887254
0.60660338
0.59433889
0.58207774
0.56981894
0.55756176
0.5453057
0.53305037
0.52079554
0.50854102
0.49628669
0.48403249
0.47177837
0.4595243
0.44727025
0.43501622
0.42276219
0.41050818
0.39825416
0.38600015
0.37374613
0.36149212
0.34923811
0.3369841
0.32473008
0.31247607
0.30022206
0.28796805
0.27571404
0.26346003
0.25120602
0.238952
0.22669799
0.21444398
0.20218997
0.18993596
0.17768195
0.16542793
0.15317392
0.14091991
0.12866589
0.11641187
0.10415785
0.091903801
0.079649748
0.067395621
0.055141472
0.042887225
0.030633047
0.018378992
0.0061257606
1.48068
1.465182
1.438312
1.4043882
1.3685872
1.3336359
1.300334
1.268981
1.2398504
1.2130591
1.1884718
1.16578
1.1446288
1.124701
1.1057441
1.0875662
1.070023
1.053006
1.0364332
1.0202431
1.0043901
0.98883974
0.97356505
0.95854431
0.94375939
0.92919512
0.91483847
0.900678
0.88670326
0.87290453
0.85927249
0.84579791
0.83247139
0.81928321
0.80622325
0.79328101
0.78044568
0.76770629
0.75505185
0.74247164
0.72995532
0.71749318
0.70507628
0.69269657
0.68034694
0.66802124
0.65571427
0.64342172
0.63114009
0.6188666
0.60659905
0.59433578
0.58207554
0.56981742
0.55756073
0.545305
0.53304991
0.52079524
0.50854082
0.49628657
0.48403242
0.47177833
0.45952427
0.44727023
0.43501621
0.42276219
0.41050817
0.39825416
0.38600015
0.37374613
0.36149212
0.34923811
0.3369841
0.32473008
0.31247607
0.30022206
0.28796805
0.27571404
0.26346003
0.25120602
0.238952
0.22669799
0.21444398
0.20218997
0.18993596
0.17768195
0.16542794
0.15317392
0.14091991
0.1286659
0.11641188
0.10415786
0.091903824
0.079649786
0.067395687
0.055141573
0.042887374
0.030633236
0.018379183
0.0061258727
1.5100886
1.4839135
1.4455166
1.4043838
1.3652985
1.3287077
1.2944101
1.2626926
1.2338366
1.2077356
1.1839818
1.1620921
1.1416428
1.1223026
1.1038235
1.0860241
1.0687746
1.0519826
1.0355816
1.0195236
1.0037734
0.98830392
0.97309396
0.95812578
0.94338437
0.92885678
0.91453164
0.9003987
0.88644854
0.87267221
0.85906096
0.84560597
0.8322981
0.81912777
0.80608491
0.793159
0.78033915
0.76761428
0.75497331
0.7424054
0.72990016
0.71744786
0.70503954
0.6926672
0.68032378
0.66800324
0.65570048
0.64341132
0.63113235
0.61886092
0.60659495
0.59433287
0.5820735
0.56981601
0.55755977
0.54530436
0.53304949
0.52079497
0.50854065
0.49628647
0.48403236
0.47177829
0.45952425
0.44727022
0.4350162
0.42276219
0.41050817
0.39825416
0.38600014
0.37374613
0.36149212
0.34923811
0.3369841
0.32473008
0.31247607
0.30022206
0.28796805
0.27571404
0.26346003
0.25120602
0.238952
0.22669799
0.21444398
0.20218997
0.18993596
0.17768195
0.16542794
0.15317393
0.14091991
0.1286659
0.11641189
0.10415788
0.091903856
0.079649839
0.067395784
0.055141727
0.042887612
0.030633551
0.018379526
0.006126084
1.5709098
1.5159807
1.4550283
1.4034605
1.3601905
1.3212222
1.285636
1.2538634
1.2259025
1.2011248
1.1787231
1.1580221
1.138541
1.1199536
1.102041
1.0846579
1.0677084
1.0511305
1.0348829
1.0189366
1.0032699
0.98786495
0.97270649
0.95778085
0.94307573
0.92857993
0.91428322
0.90017613
0.88624977
0.87249555
0.85890495
0.84546924
0.83217933
0.81902565
0.80599808
0.79308606
0.78027868
0.76756482
0.75493343
0.74237373
0.72987539
0.71742878
0.70502509
0.69265642
0.68031589
0.66799756
0.65569647
0.64340853
0.63113045
0.61885965
0.60659412
0.59433234
0.58207317
0.56981581
0.55755965
0.54530429
0.53304946
0.52079495
0.50854064
0.49628646
0.48403235
0.47177829
0.45952425
0.44727022
0.4350162
0.42276219
0.41050817
0.39825416
0.38600015
0.37374613
0.36149212
0.34923811
0.3369841
0.32473008
0.31247607
0.30022206
0.28796805
0.27571404
0.26346003
0.25120602
0.23895201
0.22669799
0.21444398
0.20218997
0.18993596
0.17768195
0.16542794
0.15317393
0.14091991
0.1286659
0.11641189
0.10415789
0.09190388
0.079649877
0.067395858
0.055141849
0.042887823
0.030633854
0.018379902
0.0061263368
1.6881295
1.5670516
1.4710711
1.407415
1.3589055
1.3164335
1.2788983
1.2467266
1.2193263
1.1954889
1.1740948
1.1543314
1.1356549
1.1177162
1.1003022
1.08329
1.066612
1.050232
1.0341299
1.0182926
1.0027098
0.98737176
0.97226853
0.95739017
0.94272678
0.92826873
0.91400674
0.89993195
0.88603577
0.87230975
0.85874537
0.84533383
0.83206597
0.81893212
0.80592213
0.79302543
0.78023116
0.76752831
0.75490598
0.74235358
0.72986101
0.71741884
0.70501848
0.69265224
0.68031341
0.66799623
0.65569588
0.64340839
0.63113056
0.61885988
0.60659438
0.59433258
0.58207339
0.56981598
0.55755978
0.54530439
0.53304953
0.520795
0.50854067
0.49628648
0.48403237
0.4717783
0.45952425
0.44727023
0.4350162
0.42276219
0.41050817
0.39825416
0.38600015
0.37374613
0.36149212
0.34923811
0.3369841
0.32473008
0.31247607
0.30022206
0.28796805
0.27571404
0.26346003
0.25120602
0.238952
0.22669799
0.21444398
0.20218997
0.18993596
0.17768195
0.16542794
0.15317393
0.14091992
0.12866591
0.1164119
0.10415789
0.091903886
0.079649884
0.067395879
0.055141887
0.042887907
0.030633983
0.018380118
0.0061265075
)
;

boundaryField
{
    top
    {
        type            zeroGradient;
    }
    inlet
    {
        type            zeroGradient;
    }
    outlet
    {
        type            fixedValue;
        value           uniform 0;
    }
    bottom
    {
        type            zeroGradient;
    }
    back
    {
        type            empty;
    }
    front
    {
        type            empty;
    }
}


// ************************************************************************* //
