/*--------------------------------*- C++ -*----------------------------------*\
| =========                 |                                                 |
| \\      /  F ield         | OpenFOAM: The Open Source CFD Toolbox           |
|  \\    /   O peration     | Version:  v1812                                 |
|   \\  /    A nd           | Web:      www.OpenFOAM.com                      |
|    \\/     M anipulation  |                                                 |
\*---------------------------------------------------------------------------*/
FoamFile
{
    version     2.0;
    format      ascii;
    class       volVectorField;
    location    "3.8";
    object      U;
}
// * * * * * * * * * * * * * * * * * * * * * * * * * * * * * * * * * * * * * //

dimensions      [0 1 -1 0 0 0 0];


internalField   nonuniform List<vector> 
1000
(
(0.91890839 0.035821913 0)
(0.86271384 0.062195639 0)
(0.7870597 0.062510087 0)
(0.69536033 0.054550388 0)
(0.61089747 0.044531627 0)
(0.544116 0.034015911 0)
(0.49343029 0.024187432 0)
(0.45479445 0.016144033 0)
(0.42544637 0.010265457 0)
(0.40347398 0.0063037028 0)
(0.38715891 0.0037970717 0)
(0.37496402 0.0023095415 0)
(0.36566464 0.0014917897 0)
(0.35836675 0.0010833359 0)
(0.35244854 0.00090368615 0)
(0.34749039 0.00083797653 0)
(0.34321532 0.00081974731 0)
(0.33944389 0.00081413406 0)
(0.33606124 0.00080517216 0)
(0.33299379 0.00078729638 0)
(0.33019341 0.00076004692 0)
(0.32762741 0.00072506532 0)
(0.32527238 0.00068457003 0)
(0.3231107 0.0006406474 0)
(0.32112848 0.00059495926 0)
(0.31931437 0.00054869375 0)
(0.31765884 0.00050265093 0)
(0.31615373 0.00045737494 0)
(0.3147918 0.00041325546 0)
(0.31356642 0.00037059914 0)
(0.31247118 0.00032966721 0)
(0.31149964 0.00029070634 0)
(0.31064508 0.00025395348 0)
(0.30990037 0.00021963479 0)
(0.30925789 0.00018794699 0)
(0.30870954 0.00015904515 0)
(0.30824686 0.00013302723 0)
(0.30786112 0.00010992799 0)
(0.30754353 8.9714304e-05 0)
(0.30728543 7.2287447e-05 0)
(0.30707848 5.7488963e-05 0)
(0.30691481 4.5109739e-05 0)
(0.30678719 3.4911595e-05 0)
(0.30668911 2.6639616e-05 0)
(0.30661482 2.0036322e-05 0)
(0.30655938 1.4848882e-05 0)
(0.30651864 1.0840502e-05 0)
(0.30648916 7.7934861e-06 0)
(0.30646815 5.5163556e-06 0)
(0.30645342 3.8425488e-06 0)
(0.30644326 2.6336992e-06 0)
(0.30643637 1.775108e-06 0)
(0.30643177 1.1764964e-06 0)
(0.30642875 7.6596888e-07 0)
(0.30642681 4.900939e-07 0)
(0.30642558 3.0758584e-07 0)
(0.30642482 1.8973297e-07 0)
(0.30642436 1.145313e-07 0)
(0.30642409 6.8110696e-08 0)
(0.30642393 3.9495014e-08 0)
(0.30642383 2.2814371e-08 0)
(0.30642379 1.2776454e-08 0)
(0.30642376 7.3521911e-09 0)
(0.30642374 4.1016347e-09 0)
(0.30642373 2.5142135e-09 0)
(0.30642373 1.5373188e-09 0)
(0.30642372 1.0417713e-09 0)
(0.30642373 7.8401888e-10 0)
(0.30642372 5.6757334e-10 0)
(0.30642372 5.1240723e-10 0)
(0.30642372 3.7113418e-10 0)
(0.30642372 3.2704977e-10 0)
(0.30642372 3.0693595e-10 0)
(0.30642372 1.7308854e-10 0)
(0.30642372 2.6686094e-10 0)
(0.30642372 2.7891379e-11 0)
(0.30642371 2.5810935e-10 0)
(0.30642372 -1.7701596e-11 0)
(0.30642371 2.7063256e-10 0)
(0.30642372 -5.5582572e-11 0)
(0.30642371 3.5663343e-10 0)
(0.30642372 -1.060825e-10 0)
(0.30642371 4.9847504e-10 0)
(0.30642372 -1.727494e-10 0)
(0.30642371 7.6321919e-10 0)
(0.30642372 -8.5167859e-11 0)
(0.30642371 1.3223552e-09 0)
(0.30642372 5.9472466e-10 0)
(0.3064237 2.9869289e-09 0)
(0.30642371 2.9596907e-09 0)
(0.30642369 7.4946955e-09 0)
(0.3064237 9.2511091e-09 0)
(0.30642365 1.9478419e-08 0)
(0.30642366 2.8925077e-08 0)
(0.30642356 6.0228079e-08 0)
(0.30642354 1.0519718e-07 0)
(0.30642324 2.0558448e-07 0)
(0.30642305 3.5362825e-07 0)
(0.30642204 6.0592096e-07 0)
(0.30642122 8.2967791e-07 0)
(1.0016583 0.05381943 0)
(1.0359761 0.10128443 0)
(1.0597199 0.11073663 0)
(1.0628947 0.105922 0)
(1.0515569 0.096228687 0)
(1.0340529 0.083933975 0)
(1.0142796 0.070326907 0)
(0.99360717 0.05698107 0)
(0.9729261 0.045107062 0)
(0.95310805 0.035236132 0)
(0.93479651 0.027400761 0)
(0.91829197 0.021385963 0)
(0.90362682 0.016882693 0)
(0.89068561 0.013567077 0)
(0.87928967 0.011143861 0)
(0.86924477 0.0093679746 0)
(0.86036298 0.0080487219 0)
(0.8524746 0.0070452656 0)
(0.84543356 0.0062580628 0)
(0.83911791 0.0056192171 0)
(0.83342767 0.005083445 0)
(0.82828179 0.0046207019 0)
(0.82361496 0.004210925 0)
(0.81937471 0.0038406189 0)
(0.81551881 0.0035006211 0)
(0.81201321 0.0031845946 0)
(0.80883027 0.0028880888 0)
(0.80594732 0.002608052 0)
(0.80334541 0.0023425739 0)
(0.80100816 0.0020906852 0)
(0.79892079 0.0018521452 0)
(0.79706936 0.0016272435 0)
(0.79544006 0.0014166117 0)
(0.79401884 0.0012210472 0)
(0.79279105 0.0010413403 0)
(0.79174141 0.0008781286 0)
(0.79085405 0.00073178522 0)
(0.7901127 0.00060235328 0)
(0.78950096 0.00048951749 0)
(0.78900266 0.00039261295 0)
(0.78860216 0.00031066212 0)
(0.78828465 0.00024243506 0)
(0.78803649 0.00018653154 0)
(0.78784532 0.00014145965 0)
(0.78770022 0.00010571094 0)
(0.78759172 7.7821269e-05 0)
(0.78751184 5.6423304e-05 0)
(0.78745394 4.0279149e-05 0)
(0.78741263 2.8304178e-05 0)
(0.78738362 1.9571542e-05 0)
(0.7873636 1.3312985e-05 0)
(0.78735 8.9044548e-06 0)
(0.78734092 5.8543921e-06 0)
(0.78733497 3.7809923e-06 0)
(0.78733114 2.3981363e-06 0)
(0.78732872 1.4921069e-06 0)
(0.78732722 9.1100101e-07 0)
(0.78732631 5.4467324e-07 0)
(0.78732577 3.1965305e-07 0)
(0.78732546 1.8339391e-07 0)
(0.78732528 1.0375133e-07 0)
(0.78732518 5.7525581e-08 0)
(0.78732512 3.1936667e-08 0)
(0.7873251 1.7866324e-08 0)
(0.78732508 1.0226262e-08 0)
(0.78732508 6.6068653e-09 0)
(0.78732507 4.0724199e-09 0)
(0.78732507 3.5232568e-09 0)
(0.78732506 2.2418243e-09 0)
(0.78732507 2.3851362e-09 0)
(0.78732506 1.5847148e-09 0)
(0.78732506 1.5585649e-09 0)
(0.78732505 1.3569355e-09 0)
(0.78732506 8.2924626e-10 0)
(0.78732505 1.2949568e-09 0)
(0.78732506 2.9235753e-10 0)
(0.78732505 1.244671e-09 0)
(0.78732506 4.2706748e-11 0)
(0.78732505 1.1924032e-09 0)
(0.78732506 -7.0102539e-11 0)
(0.78732505 1.2641365e-09 0)
(0.78732506 -1.7208082e-10 0)
(0.78732504 1.5677904e-09 0)
(0.78732506 -2.8040614e-10 0)
(0.78732504 2.1770851e-09 0)
(0.78732506 -7.2404187e-11 0)
(0.78732503 3.4698607e-09 0)
(0.78732507 1.2715255e-09 0)
(0.78732502 6.9966465e-09 0)
(0.78732507 5.8817096e-09 0)
(0.78732499 1.6509116e-08 0)
(0.78732508 1.9449619e-08 0)
(0.78732493 4.158387e-08 0)
(0.78732508 6.1148527e-08 0)
(0.78732479 1.1860702e-07 0)
(0.78732506 2.0503567e-07 0)
(0.7873244 3.7040516e-07 0)
(0.78732488 6.4563266e-07 0)
(0.78732316 1.0134346e-06 0)
(0.78732443 1.5370742e-06 0)
(1.0014244 0.026824854 0)
(1.0291272 0.06279135 0)
(1.0654292 0.077736544 0)
(1.098962 0.080597176 0)
(1.1253148 0.078285118 0)
(1.1450529 0.073153802 0)
(1.1594857 0.066111105 0)
(1.1694285 0.058161769 0)
(1.1755352 0.050296282 0)
(1.1785736 0.043149981 0)
(1.1793568 0.03697171 0)
(1.1785947 0.031769954 0)
(1.1768301 0.027449361 0)
(1.1744516 0.023883077 0)
(1.1717288 0.020942039 0)
(1.1688452 0.018507435 0)
(1.1659213 0.016475893 0)
(1.1630352 0.014761894 0)
(1.1602355 0.013297589 0)
(1.1575515 0.012030724 0)
(1.1549989 0.010921504 0)
(1.1525849 0.0099393075 0)
(1.1503117 0.0090600823 0)
(1.1481782 0.0082647121 0)
(1.146182 0.0075379644 0)
(1.1443194 0.0068676579 0)
(1.1425862 0.0062440364 0)
(1.1409784 0.0056594379 0)
(1.1394922 0.0051081695 0)
(1.138124 0.0045863904 0)
(1.1368706 0.0040919142 0)
(1.1357288 0.0036239469 0)
(1.1346957 0.0031827931 0)
(1.133768 0.0027695274 0)
(1.1329421 0.0023856398 0)
(1.1322139 0.0020326855 0)
(1.1315786 0.0017119766 0)
(1.1310305 0.0014243439 0)
(1.1305635 0.0011699767 0)
(1.1301705 0.00094834749 0)
(1.1298443 0.00075821468 0)
(1.1295773 0.00059769559 0)
(1.1293619 0.00046438523 0)
(1.1291906 0.00035550794 0)
(1.1290565 0.00026808122 0)
(1.1289531 0.00019907204 0)
(1.1288747 0.00014553449 0)
(1.128816 0.00010471673 0)
(1.128773 7.413805e-05 0)
(1.1287418 5.1630557e-05 0)
(1.1287197 3.5356679e-05 0)
(1.1287042 2.3798994e-05 0)
(1.1286935 1.5739478e-05 0)
(1.1286863 1.0221411e-05 0)
(1.1286816 6.5148768e-06 0)
(1.1286785 4.0717529e-06 0)
(1.1286765 2.4942674e-06 0)
(1.1286752 1.4954095e-06 0)
(1.1286745 8.7756656e-07 0)
(1.128674 5.0306499e-07 0)
(1.1286737 2.8218563e-07 0)
(1.1286736 1.5494814e-07 0)
(1.1286735 8.3475248e-08 0)
(1.1286734 4.5295052e-08 0)
(1.1286734 2.411607e-08 0)
(1.1286734 1.4754554e-08 0)
(1.1286734 8.3210272e-09 0)
(1.1286734 7.0269336e-09 0)
(1.1286734 4.4658303e-09 0)
(1.1286734 4.5789925e-09 0)
(1.1286734 3.5231164e-09 0)
(1.1286734 2.9327856e-09 0)
(1.1286734 3.2780176e-09 0)
(1.1286734 1.5154807e-09 0)
(1.1286734 3.0834081e-09 0)
(1.1286734 6.4595448e-10 0)
(1.1286734 2.6698162e-09 0)
(1.1286734 4.4554522e-10 0)
(1.1286734 2.0839216e-09 0)
(1.1286734 5.5743072e-10 0)
(1.1286734 1.810265e-09 0)
(1.1286734 5.1119057e-10 0)
(1.1286734 2.1964807e-09 0)
(1.1286734 2.6771233e-10 0)
(1.1286733 3.2214514e-09 0)
(1.1286734 4.9729812e-10 0)
(1.1286733 4.9685495e-09 0)
(1.1286734 2.4992572e-09 0)
(1.1286733 8.9127444e-09 0)
(1.1286734 9.0077257e-09 0)
(1.1286733 1.939605e-08 0)
(1.1286735 2.7310083e-08 0)
(1.1286732 4.8181408e-08 0)
(1.1286736 8.1998626e-08 0)
(1.1286731 1.3692675e-07 0)
(1.1286738 2.5408012e-07 0)
(1.1286728 4.053848e-07 0)
(1.128674 7.1287406e-07 0)
(1.128672 1.0058926e-06 0)
(1.1286747 1.4747232e-06 0)
(1.0007347 0.011814722 0)
(1.0178472 0.030860925 0)
(1.0462163 0.041434435 0)
(1.0799018 0.045193553 0)
(1.1132663 0.04550231 0)
(1.1437818 0.044080235 0)
(1.1708939 0.041439854 0)
(1.1945684 0.037973456 0)
(1.2148577 0.034195367 0)
(1.2319644 0.030536319 0)
(1.246267 0.027221146 0)
(1.2582319 0.024312509 0)
(1.2683105 0.021795717 0)
(1.2768829 0.019630321 0)
(1.2842485 0.017768692 0)
(1.290638 0.016161936 0)
(1.2962288 0.014764357 0)
(1.3011586 0.013536233 0)
(1.3055349 0.012444968 0)
(1.3094419 0.011464961 0)
(1.3129454 0.0105765 0)
(1.3160972 0.0097642163 0)
(1.3189389 0.0090157449 0)
(1.3215043 0.0083209562 0)
(1.3238213 0.0076715459 0)
(1.3259125 0.0070606871 0)
(1.3277966 0.0064827242 0)
(1.329489 0.005933042 0)
(1.331003 0.0054080925 0)
(1.3323499 0.0049054388 0)
(1.3335401 0.0044237304 0)
(1.3345834 0.0039626166 0)
(1.3354894 0.0035226247 0)
(1.336268 0.0031049896 0)
(1.3369294 0.0027114324 0)
(1.3374842 0.0023438968 0)
(1.3379432 0.0020042842 0)
(1.3383175 0.0016942071 0)
(1.3386181 0.0014147897 0)
(1.3388557 0.0011665238 0)
(1.3390401 0.00094919511 0)
(1.3391809 0.00076187779 0)
(1.3392863 0.00060299373 0)
(1.3393637 0.0004704214 0)
(1.3394194 0.00036163776 0)
(1.3394585 0.00027387479 0)
(1.3394854 0.00020427308 0)
(1.3395034 0.00015001902 0)
(1.3395151 0.00010845679 0)
(1.3395224 7.7168225e-05 0)
(1.3395268 5.4023939e-05 0)
(1.3395294 3.7203019e-05 0)
(1.3395307 2.5193741e-05 0)
(1.3395314 1.67713e-05 0)
(1.3395316 1.097137e-05 0)
(1.3395317 7.0492021e-06 0)
(1.3395316 4.4470488e-06 0)
(1.3395315 2.7524572e-06 0)
(1.3395314 1.671268e-06 0)
(1.3395313 9.9474235e-07 0)
(1.3395312 5.8053528e-07 0)
(1.3395312 3.3269707e-07 0)
(1.3395312 1.8698644e-07 0)
(1.3395312 1.0480067e-07 0)
(1.3395311 5.7511052e-08 0)
(1.3395311 3.3539734e-08 0)
(1.3395311 1.8844124e-08 0)
(1.3395311 1.2972914e-08 0)
(1.3395311 8.3368632e-09 0)
(1.3395311 6.7060895e-09 0)
(1.3395311 5.6540379e-09 0)
(1.3395311 3.9325963e-09 0)
(1.3395311 4.8437332e-09 0)
(1.3395311 2.2291964e-09 0)
(1.3395311 4.170577e-09 0)
(1.3395311 1.4152495e-09 0)
(1.3395311 3.2081423e-09 0)
(1.3395311 1.3566027e-09 0)
(1.3395311 2.2492007e-09 0)
(1.3395311 1.5109595e-09 0)
(1.3395311 1.9225835e-09 0)
(1.3395311 1.3107145e-09 0)
(1.3395311 2.4747491e-09 0)
(1.3395311 9.4614057e-10 0)
(1.3395311 3.5557176e-09 0)
(1.3395312 1.3653279e-09 0)
(1.339531 4.9348792e-09 0)
(1.3395312 3.8210825e-09 0)
(1.339531 7.9099545e-09 0)
(1.3395312 1.0301072e-08 0)
(1.339531 1.6152052e-08 0)
(1.3395313 2.6335593e-08 0)
(1.3395309 3.8936583e-08 0)
(1.3395315 7.2052601e-08 0)
(1.3395308 1.094673e-07 0)
(1.3395318 2.0805093e-07 0)
(1.3395307 3.119001e-07 0)
(1.3395323 5.355219e-07 0)
(1.3395302 7.1894317e-07 0)
(1.3395336 1.0100024e-06 0)
(1.0005903 0.0034629164 0)
(1.0136865 0.0093660205 0)
(1.0370283 0.013046807 0)
(1.0674202 0.014563259 0)
(1.1000314 0.014854515 0)
(1.1316426 0.014564971 0)
(1.1610742 0.013888301 0)
(1.188067 0.012919177 0)
(1.2125198 0.011806389 0)
(1.2343929 0.010696236 0)
(1.253806 0.0096724275 0)
(1.2710313 0.0087623061 0)
(1.2863968 0.0079651497 0)
(1.3002045 0.0072709122 0)
(1.3127001 0.0066667712 0)
(1.3240755 0.0061388366 0)
(1.3344818 0.0056735627 0)
(1.3440396 0.0052588769 0)
(1.3528458 0.0048847733 0)
(1.3609785 0.004543418 0)
(1.3685008 0.0042288716 0)
(1.3754637 0.0039365955 0)
(1.3819094 0.0036629976 0)
(1.3878738 0.0034051724 0)
(1.3933876 0.0031607753 0)
(1.3984768 0.0029279072 0)
(1.4031635 0.0027050066 0)
(1.4074667 0.0024907978 0)
(1.4114032 0.0022843101 0)
(1.4149879 0.0020849037 0)
(1.4182347 0.0018922797 0)
(1.4211571 0.0017064635 0)
(1.4237686 0.0015277823 0)
(1.4260838 0.0013568195 0)
(1.4281181 0.0011943525 0)
(1.4298884 0.001041264 0)
(1.4314131 0.0008984494 0)
(1.4327117 0.00076672235 0)
(1.4338048 0.00064673272 0)
(1.4347136 0.0005389 0)
(1.4354595 0.00044337041 0)
(1.4360637 0.00036000048 0)
(1.4365463 0.00028836468 0)
(1.4369265 0.0002277879 0)
(1.4372216 0.00017739176 0)
(1.4374474 0.00013615519 0)
(1.4376175 0.00010297407 0)
(1.4377438 7.6722973e-05 0)
(1.4378361 5.6304153e-05 0)
(1.4379024 4.0691173e-05 0)
(1.4379494 2.8955264e-05 0)
(1.4379822 2.0284168e-05 0)
(1.4380046 1.3986592e-05 0)
(1.4380197 9.4914085e-06 0)
(1.4380298 6.3378132e-06 0)
(1.4380363 4.1638385e-06 0)
(1.4380404 2.6911989e-06 0)
(1.4380431 1.7113579e-06 0)
(1.4380447 1.070819e-06 0)
(1.4380457 6.5995861e-07 0)
(1.4380462 4.0072513e-07 0)
(1.4380466 2.4086403e-07 0)
(1.4380467 1.4311703e-07 0)
(1.4380468 8.564505e-08 0)
(1.4380469 5.0910532e-08 0)
(1.4380469 3.188504e-08 0)
(1.4380469 1.9828557e-08 0)
(1.438047 1.3956401e-08 0)
(1.4380469 9.6610031e-09 0)
(1.438047 7.5589327e-09 0)
(1.438047 6.1004326e-09 0)
(1.438047 4.710779e-09 0)
(1.438047 4.5372482e-09 0)
(1.438047 3.1380301e-09 0)
(1.438047 3.5095661e-09 0)
(1.438047 2.337319e-09 0)
(1.438047 2.6125325e-09 0)
(1.438047 2.0578834e-09 0)
(1.4380469 1.9588276e-09 0)
(1.438047 1.9858854e-09 0)
(1.4380469 1.7892238e-09 0)
(1.438047 1.8520817e-09 0)
(1.4380469 2.1474685e-09 0)
(1.438047 1.8337034e-09 0)
(1.4380469 2.8195331e-09 0)
(1.438047 2.3958834e-09 0)
(1.4380469 3.7445176e-09 0)
(1.4380471 4.151835e-09 0)
(1.4380468 5.6153781e-09 0)
(1.4380471 7.8543099e-09 0)
(1.4380468 9.8129335e-09 0)
(1.4380472 1.4979112e-08 0)
(1.4380467 1.8905333e-08 0)
(1.4380474 3.2476874e-08 0)
(1.4380466 4.5366556e-08 0)
(1.4380478 8.2821442e-08 0)
(1.4380466 1.192774e-07 0)
(1.4380485 1.9834934e-07 0)
(1.4380464 2.5913018e-07 0)
(1.43805 3.5468781e-07 0)
(1.0005903 -0.003462915 0)
(1.0136865 -0.0093660157 0)
(1.0370283 -0.013046798 0)
(1.0674202 -0.014563246 0)
(1.1000314 -0.014854497 0)
(1.1316426 -0.014564945 0)
(1.1610742 -0.013888266 0)
(1.188067 -0.012919129 0)
(1.2125198 -0.011806329 0)
(1.2343929 -0.010696164 0)
(1.253806 -0.0096723449 0)
(1.2710313 -0.0087622158 0)
(1.2863968 -0.0079650555 0)
(1.3002046 -0.0072708186 0)
(1.3127001 -0.0066666835 0)
(1.3240755 -0.0061387609 0)
(1.3344818 -0.0056735043 0)
(1.3440396 -0.0052588412 0)
(1.3528458 -0.0048847637 0)
(1.3609785 -0.0045434374 0)
(1.3685008 -0.0042289211 0)
(1.3754637 -0.0039366749 0)
(1.3819094 -0.0036631039 0)
(1.3878738 -0.0034053017 0)
(1.3933876 -0.0031609219 0)
(1.3984767 -0.0029280651 0)
(1.4031634 -0.0027051691 0)
(1.4074666 -0.0024909584 0)
(1.4114031 -0.0022844633 0)
(1.4149878 -0.0020850444 0)
(1.4182346 -0.0018924054 0)
(1.4211569 -0.0017065719 0)
(1.4237685 -0.0015278738 0)
(1.4260836 -0.0013568949 0)
(1.4281179 -0.0011944144 0)
(1.4298883 -0.0010413148 0)
(1.431413 -0.00089849255 0)
(1.4327116 -0.00076676048 0)
(1.4338047 -0.00064676819 0)
(1.4347135 -0.00053893439 0)
(1.4354594 -0.00044340437 0)
(1.4360636 -0.00036003406 0)
(1.4365463 -0.00028839683 0)
(1.4369264 -0.00022781749 0)
(1.4372215 -0.00017741703 0)
(1.4374473 -0.00013617477 0)
(1.4376174 -0.00010298654 0)
(1.4377437 -7.6727432e-05 0)
(1.437836 -5.6300291e-05 0)
(1.4379024 -4.0679149e-05 0)
(1.4379493 -2.8935675e-05 0)
(1.4379821 -2.0257877e-05 0)
(1.4380045 -1.3954947e-05 0)
(1.4380197 -9.4555935e-06 0)
(1.4380297 -6.299374e-06 0)
(1.4380362 -4.1238634e-06 0)
(1.4380404 -2.6510749e-06 0)
(1.438043 -1.6718021e-06 0)
(1.4380446 -1.0328521e-06 0)
(1.4380456 -6.2388824e-07 0)
(1.4380462 -3.6723592e-07 0)
(1.4380465 -2.0991831e-07 0)
(1.4380467 -1.1511039e-07 0)
(1.4380468 -6.0306941e-08 0)
(1.4380469 -2.849063e-08 0)
(1.4380469 -1.1962495e-08 0)
(1.4380469 -2.5354065e-09 0)
(1.4380469 1.2507414e-09 0)
(1.4380469 3.3350532e-09 0)
(1.4380469 3.7594346e-09 0)
(1.4380469 3.4627439e-09 0)
(1.438047 3.637341e-09 0)
(1.4380469 2.4534201e-09 0)
(1.438047 3.0293426e-09 0)
(1.4380469 1.7062007e-09 0)
(1.438047 2.3990514e-09 0)
(1.4380469 1.4585412e-09 0)
(1.438047 1.8008925e-09 0)
(1.4380469 1.5090261e-09 0)
(1.438047 1.5190054e-09 0)
(1.4380469 1.5318093e-09 0)
(1.438047 1.7116619e-09 0)
(1.4380469 1.4764682e-09 0)
(1.438047 2.2874561e-09 0)
(1.4380469 1.6009086e-09 0)
(1.438047 2.8407169e-09 0)
(1.4380469 2.1939589e-09 0)
(1.4380471 3.142277e-09 0)
(1.4380468 2.9484092e-09 0)
(1.4380471 2.5482276e-09 0)
(1.4380468 1.9027658e-09 0)
(1.4380472 -2.0898751e-09 0)
(1.4380467 -6.198389e-09 0)
(1.4380474 -2.0147391e-08 0)
(1.4380466 -3.4197863e-08 0)
(1.4380478 -7.2083329e-08 0)
(1.4380466 -1.0958486e-07 0)
(1.4380485 -1.9068019e-07 0)
(1.4380464 -2.5488526e-07 0)
(1.43805 -3.5307508e-07 0)
(1.0007347 -0.01181472 0)
(1.0178472 -0.03086092 0)
(1.0462163 -0.041434427 0)
(1.0799018 -0.04519354 0)
(1.1132663 -0.045502293 0)
(1.1437818 -0.044080211 0)
(1.1708939 -0.041439822 0)
(1.1945684 -0.037973413 0)
(1.2148577 -0.034195315 0)
(1.2319644 -0.030536256 0)
(1.246267 -0.027221076 0)
(1.258232 -0.024312433 0)
(1.2683106 -0.021795639 0)
(1.276883 -0.019630244 0)
(1.2842486 -0.017768621 0)
(1.2906381 -0.016161875 0)
(1.296229 -0.01476431 0)
(1.3011588 -0.013536202 0)
(1.305535 -0.012444957 0)
(1.309442 -0.011464971 0)
(1.3129454 -0.010576533 0)
(1.3160972 -0.0097642691 0)
(1.3189389 -0.0090158161 0)
(1.3215043 -0.0083210418 0)
(1.3238212 -0.0076716425 0)
(1.3259124 -0.0070607902 0)
(1.3277964 -0.0064828303 0)
(1.3294888 -0.0059331473 0)
(1.3310027 -0.0054081945 0)
(1.3323496 -0.0049055355 0)
(1.3335398 -0.0044238207 0)
(1.3345831 -0.0039627001 0)
(1.3354891 -0.0035227016 0)
(1.3362677 -0.0031050604 0)
(1.3369291 -0.0027114978 0)
(1.3374839 -0.0023439578 0)
(1.3379429 -0.0020043413 0)
(1.3383173 -0.0016942609 0)
(1.3386179 -0.0014148403 0)
(1.3388554 -0.0011665712 0)
(1.3390399 -0.00094923864 0)
(1.3391807 -0.00076191693 0)
(1.3392861 -0.00060302742 0)
(1.3393635 -0.00047044899 0)
(1.3394192 -0.00036165825 0)
(1.3394583 -0.00027388795 0)
(1.3394852 -0.00020427834 0)
(1.3395031 -0.00015001696 0)
(1.3395148 -0.00010844735 0)
(1.3395222 -7.715256e-05 0)
(1.3395266 -5.4002495e-05 0)
(1.3395291 -3.717742e-05 0)
(1.3395305 -2.5164586e-05 0)
(1.3395312 -1.6740274e-05 0)
(1.3395314 -1.0938896e-05 0)
(1.3395315 -7.0167902e-06 0)
(1.3395314 -4.4148279e-06 0)
(1.3395314 -2.7216491e-06 0)
(1.3395313 -1.6416663e-06 0)
(1.3395312 -9.6731939e-07 0)
(1.3395311 -5.5483675e-07 0)
(1.3395311 -3.0949635e-07 0)
(1.3395311 -1.6563558e-07 0)
(1.3395311 -8.5985448e-08 0)
(1.3395311 -4.0466663e-08 0)
(1.3395311 -1.886829e-08 0)
(1.3395311 -5.683418e-09 0)
(1.3395311 -1.9625923e-09 0)
(1.3395311 1.4306402e-09 0)
(1.3395311 1.3088952e-09 0)
(1.3395311 1.5250077e-09 0)
(1.3395311 1.8547499e-09 0)
(1.3395311 4.3628547e-10 0)
(1.3395311 1.9849658e-09 0)
(1.3395311 -1.8417646e-10 0)
(1.3395311 1.7840687e-09 0)
(1.3395311 -1.1815945e-11 0)
(1.3395311 1.2446075e-09 0)
(1.3395311 5.7740045e-10 0)
(1.3395311 9.0609991e-10 0)
(1.3395311 8.7995371e-10 0)
(1.3395311 1.2584016e-09 0)
(1.3395311 6.8390341e-10 0)
(1.3395311 2.1678754e-09 0)
(1.3395311 3.5533294e-10 0)
(1.3395311 2.7684139e-09 0)
(1.339531 3.2448747e-10 0)
(1.3395312 2.0514876e-09 0)
(1.339531 -4.8168287e-10 0)
(1.3395312 -2.0142373e-09 0)
(1.339531 -6.3898393e-09 0)
(1.3395313 -1.6315494e-08 0)
(1.3395309 -2.8844996e-08 0)
(1.3395315 -6.2991008e-08 0)
(1.3395308 -1.0124761e-07 0)
(1.3395318 -2.005086e-07 0)
(1.3395307 -3.048942e-07 0)
(1.3395323 -5.2995585e-07 0)
(1.3395302 -7.1546371e-07 0)
(1.3395336 -1.0080621e-06 0)
(1.0014244 -0.026824853 0)
(1.0291272 -0.062791346 0)
(1.0654292 -0.077736538 0)
(1.098962 -0.080597167 0)
(1.1253148 -0.078285105 0)
(1.1450529 -0.073153783 0)
(1.1594857 -0.066111081 0)
(1.1694285 -0.058161738 0)
(1.1755352 -0.050296244 0)
(1.1785736 -0.043149938 0)
(1.1793569 -0.036971663 0)
(1.1785947 -0.031769905 0)
(1.1768302 -0.027449312 0)
(1.1744518 -0.02388303 0)
(1.171729 -0.020941997 0)
(1.1688454 -0.018507398 0)
(1.1659215 -0.016475865 0)
(1.1630354 -0.014761874 0)
(1.1602357 -0.013297579 0)
(1.1575516 -0.012030724 0)
(1.154999 -0.010921514 0)
(1.152585 -0.0099393249 0)
(1.1503117 -0.0090601068 0)
(1.1481782 -0.0082647423 0)
(1.146182 -0.0075379988 0)
(1.1443192 -0.0068676961 0)
(1.142586 -0.006244077 0)
(1.1409782 -0.0056594818 0)
(1.139492 -0.0051082155 0)
(1.1381238 -0.00458644 0)
(1.1368703 -0.0040919662 0)
(1.1357285 -0.0036240026 0)
(1.1346954 -0.0031828509 0)
(1.1337676 -0.0027695878 0)
(1.1329417 -0.0023857011 0)
(1.1322135 -0.0020327473 0)
(1.1315782 -0.0017120372 0)
(1.1310301 -0.0014244021 0)
(1.1305631 -0.0011700312 0)
(1.1301701 -0.00094839687 0)
(1.129844 -0.00075825831 0)
(1.1295769 -0.00059773208 0)
(1.1293615 -0.00046441474 0)
(1.1291903 -0.00035552958 0)
(1.1290562 -0.00026809583 0)
(1.1289528 -0.00019907931 0)
(1.1288743 -0.00014553575 0)
(1.1288157 -0.00010471218 0)
(1.1287727 -7.4129117e-05 0)
(1.1287415 -5.1617665e-05 0)
(1.1287194 -3.5341283e-05 0)
(1.1287039 -2.3781558e-05 0)
(1.1286933 -1.5721146e-05 0)
(1.1286861 -1.0202487e-05 0)
(1.1286814 -6.4961763e-06 0)
(1.1286783 -4.0533931e-06 0)
(1.1286763 -2.4767872e-06 0)
(1.1286751 -1.4787643e-06 0)
(1.1286743 -8.6211779e-07 0)
(1.1286739 -4.8867703e-07 0)
(1.1286736 -2.6910927e-07 0)
(1.1286735 -1.4297204e-07 0)
(1.1286734 -7.2810575e-08 0)
(1.1286734 -3.5696832e-08 0)
(1.1286734 -1.5748543e-08 0)
(1.1286734 -7.3316317e-09 0)
(1.1286734 -1.9801728e-09 0)
(1.1286734 -1.5146999e-09 0)
(1.1286734 1.2552133e-10 0)
(1.1286734 -5.7814376e-10 0)
(1.1286734 -2.3588158e-10 0)
(1.1286734 -4.7120499e-11 0)
(1.1286734 -9.0450147e-10 0)
(1.1286734 6.3701268e-10 0)
(1.1286734 -1.2845594e-09 0)
(1.1286734 1.0524232e-09 0)
(1.1286734 -1.1807567e-09 0)
(1.1286734 1.0950097e-09 0)
(1.1286734 -6.7383427e-10 0)
(1.1286734 9.9307998e-10 0)
(1.1286734 -2.8007716e-10 0)
(1.1286734 1.2774583e-09 0)
(1.1286734 -3.2062147e-10 0)
(1.1286734 1.9708894e-09 0)
(1.1286734 -7.4403567e-10 0)
(1.1286734 2.5104635e-09 0)
(1.1286733 -1.5305485e-09 0)
(1.1286734 1.6556856e-09 0)
(1.1286733 -4.1795983e-09 0)
(1.1286735 -3.4348179e-09 0)
(1.1286733 -1.3459411e-08 0)
(1.1286735 -2.1130834e-08 0)
(1.1286732 -4.2392904e-08 0)
(1.1286736 -7.7018079e-08 0)
(1.1286731 -1.3281373e-07 0)
(1.1286738 -2.502053e-07 0)
(1.1286728 -4.0170108e-07 0)
(1.128674 -7.1019671e-07 0)
(1.128672 -1.0050129e-06 0)
(1.1286747 -1.4744793e-06 0)
(1.0016583 -0.053819429 0)
(1.0359761 -0.10128443 0)
(1.0597199 -0.11073662 0)
(1.0628947 -0.10592199 0)
(1.0515569 -0.096228679 0)
(1.0340529 -0.083933966 0)
(1.0142796 -0.070326894 0)
(0.99360721 -0.056981055 0)
(0.97292615 -0.045107046 0)
(0.95310812 -0.035236115 0)
(0.93479659 -0.027400743 0)
(0.91829208 -0.021385945 0)
(0.90362694 -0.016882676 0)
(0.89068575 -0.013567061 0)
(0.87928982 -0.011143845 0)
(0.86924491 -0.0093679594 0)
(0.86036312 -0.008048707 0)
(0.85247474 -0.0070452513 0)
(0.84543369 -0.0062580489 0)
(0.83911801 -0.0056192035 0)
(0.83342776 -0.0050834319 0)
(0.82828185 -0.0046206899 0)
(0.82361501 -0.0042109152 0)
(0.81937472 -0.003840612 0)
(0.81551881 -0.0035006178 0)
(0.81201318 -0.0031845951 0)
(0.80883022 -0.0028880939 0)
(0.80594723 -0.0026080614 0)
(0.80334529 -0.0023425882 0)
(0.801008 -0.0020907035 0)
(0.79892061 -0.0018521678 0)
(0.79706913 -0.0016272694 0)
(0.79543981 -0.0014166407 0)
(0.79401855 -0.0012210784 0)
(0.79279073 -0.0010413731 0)
(0.79174107 -0.00087816194 0)
(0.79085368 -0.00073181833 0)
(0.79011232 -0.00060238532 0)
(0.78950057 -0.00048954764 0)
(0.78900228 -0.00039264075 0)
(0.78860177 -0.00031068681 0)
(0.78828428 -0.00024245659 0)
(0.78803612 -0.00018654943 0)
(0.78784497 -0.00014147423 0)
(0.78769988 -0.00010572195 0)
(0.78759142 -7.7829277e-05 0)
(0.78751155 -5.6428316e-05 0)
(0.78745367 -4.0281832e-05 0)
(0.78741238 -2.8304595e-05 0)
(0.7873834 -1.9570379e-05 0)
(0.78736339 -1.3310424e-05 0)
(0.78734982 -8.9010502e-06 0)
(0.78734076 -5.8502273e-06 0)
(0.78733483 -3.7764989e-06 0)
(0.78733101 -2.393372e-06 0)
(0.78732861 -1.4873718e-06 0)
(0.78732712 -9.0625774e-07 0)
(0.78732623 -5.4013604e-07 0)
(0.7873257 -3.1528442e-07 0)
(0.7873254 -1.7935282e-07 0)
(0.78732522 -9.9959841e-08 0)
(0.78732514 -5.4103264e-08 0)
(0.78732509 -2.8815115e-08 0)
(0.78732508 -1.5117923e-08 0)
(0.78732506 -7.7721741e-09 0)
(0.78732506 -4.5015986e-09 0)
(0.78732505 -2.2676184e-09 0)
(0.78732506 -2.0109809e-09 0)
(0.78732505 -9.0947241e-10 0)
(0.78732506 -1.2916969e-09 0)
(0.78732506 -6.4366376e-10 0)
(0.78732507 -8.0119058e-10 0)
(0.78732506 -6.7210107e-10 0)
(0.78732507 -2.692655e-10 0)
(0.78732506 -7.4897822e-10 0)
(0.78732507 1.3316587e-10 0)
(0.78732505 -7.3985077e-10 0)
(0.78732507 4.2741623e-10 0)
(0.78732505 -6.296018e-10 0)
(0.78732507 6.3428746e-10 0)
(0.78732505 -5.3837259e-10 0)
(0.78732507 9.5339922e-10 0)
(0.78732505 -6.231122e-10 0)
(0.78732507 1.3360391e-09 0)
(0.78732505 -8.8706565e-10 0)
(0.78732508 1.539125e-09 0)
(0.78732505 -1.7484106e-09 0)
(0.78732509 5.5318909e-10 0)
(0.78732504 -5.1419575e-09 0)
(0.7873251 -4.231642e-09 0)
(0.78732501 -1.5224768e-08 0)
(0.78732511 -1.833838e-08 0)
(0.78732496 -4.0310643e-08 0)
(0.78732511 -5.923465e-08 0)
(0.78732481 -1.1534611e-07 0)
(0.78732508 -2.0094157e-07 0)
(0.78732443 -3.6800263e-07 0)
(0.78732491 -6.4698064e-07 0)
(0.78732319 -1.0169209e-06 0)
(0.78732446 -1.5400135e-06 0)
(0.91890839 -0.035821913 0)
(0.86271384 -0.062195638 0)
(0.7870597 -0.062510086 0)
(0.69536033 -0.054550386 0)
(0.61089748 -0.044531624 0)
(0.54411601 -0.034015908 0)
(0.4934303 -0.024187429 0)
(0.45479447 -0.01614403 0)
(0.42544639 -0.010265455 0)
(0.40347401 -0.0063037007 0)
(0.38715894 -0.0037970694 0)
(0.37496406 -0.0023095389 0)
(0.36566468 -0.0014917867 0)
(0.35836679 -0.0010833321 0)
(0.35244858 -0.00090368076 0)
(0.34749044 -0.00083796949 0)
(0.34321537 -0.00081973858 0)
(0.33944393 -0.00081412425 0)
(0.33606128 -0.0008051612 0)
(0.33299383 -0.00078728505 0)
(0.33019346 -0.0007600358 0)
(0.32762745 -0.00072505535 0)
(0.32527242 -0.00068456188 0)
(0.32311074 -0.00064064102 0)
(0.32112851 -0.00059495522 0)
(0.31931438 -0.00054869112 0)
(0.31765884 -0.00050265052 0)
(0.31615371 -0.00045737518 0)
(0.31479176 -0.00041325756 0)
(0.31356636 -0.00037060136 0)
(0.31247111 -0.00032967094 0)
(0.31149955 -0.00029070996 0)
(0.31064498 -0.00025395836 0)
(0.30990025 -0.00021963976 0)
(0.30925776 -0.00018795293 0)
(0.3087094 -0.00015905129 0)
(0.30824671 -0.00013303387 0)
(0.30786097 -0.00010993492 0)
(0.30754338 -8.9721268e-05 0)
(0.30728528 -7.2294673e-05 0)
(0.30707833 -5.7495745e-05 0)
(0.30691467 -4.5116674e-05 0)
(0.30678706 -3.4917755e-05 0)
(0.30668898 -2.6645768e-05 0)
(0.30661469 -2.0041434e-05 0)
(0.30655927 -1.485384e-05 0)
(0.30651854 -1.0844356e-05 0)
(0.30648906 -7.7971044e-06 0)
(0.30646806 -5.518901e-06 0)
(0.30645334 -3.8449024e-06 0)
(0.30644319 -2.6351462e-06 0)
(0.30643631 -1.7764208e-06 0)
(0.30643172 -1.177045e-06 0)
(0.30642871 -7.6651425e-07 0)
(0.30642677 -4.9006612e-07 0)
(0.30642555 -3.0763587e-07 0)
(0.3064248 -1.8931027e-07 0)
(0.30642434 -1.1429507e-07 0)
(0.30642407 -6.7529431e-08 0)
(0.30642391 -3.9151865e-08 0)
(0.30642382 -2.2171711e-08 0)
(0.30642378 -1.2440231e-08 0)
(0.30642375 -6.7823345e-09 0)
(0.30642374 -3.8430833e-09 0)
(0.30642373 -2.0169601e-09 0)
(0.30642373 -1.3725887e-09 0)
(0.30642372 -6.448673e-10 0)
(0.30642372 -6.9182719e-10 0)
(0.30642372 -2.0527054e-10 0)
(0.30642372 -4.7708249e-10 0)
(0.30642372 -8.5672002e-11 0)
(0.30642372 -3.4704011e-10 0)
(0.30642372 -5.5569533e-11 0)
(0.30642372 -2.4182639e-10 0)
(0.30642372 -7.6598682e-11 0)
(0.30642372 -1.4666723e-10 0)
(0.30642372 -6.0661917e-11 0)
(0.30642372 -6.7959359e-11 0)
(0.30642372 -4.0103355e-11 0)
(0.30642372 3.165724e-11 0)
(0.30642372 -2.8329138e-11 0)
(0.30642372 1.5834027e-10 0)
(0.30642372 -1.1294773e-10 0)
(0.30642372 3.2669731e-10 0)
(0.30642372 -2.6062026e-10 0)
(0.30642373 3.4284582e-10 0)
(0.30642372 -8.043275e-10 0)
(0.30642373 -5.424861e-10 0)
(0.30642371 -2.9747542e-09 0)
(0.30642372 -3.7252629e-09 0)
(0.3064237 -8.2821472e-09 0)
(0.30642371 -1.0145219e-08 0)
(0.30642366 -1.9267809e-08 0)
(0.30642367 -2.6993169e-08 0)
(0.30642357 -5.6411335e-08 0)
(0.30642355 -1.0222676e-07 0)
(0.30642325 -2.0620411e-07 0)
(0.30642306 -3.5734536e-07 0)
(0.30642205 -6.0970038e-07 0)
(0.30642123 -8.3189915e-07 0)
)
;

boundaryField
{
    top
    {
        type            fixedValue;
        value           uniform (0 0 0);
    }
    inlet
    {
        type            fixedValue;
        value           uniform (1 0 0);
    }
    outlet
    {
        type            zeroGradient;
    }
    bottom
    {
        type            fixedValue;
        value           uniform (0 0 0);
    }
    back
    {
        type            empty;
    }
    front
    {
        type            empty;
    }
}


// ************************************************************************* //
