/*--------------------------------*- C++ -*----------------------------------*\
| =========                 |                                                 |
| \\      /  F ield         | OpenFOAM: The Open Source CFD Toolbox           |
|  \\    /   O peration     | Version:  v1812                                 |
|   \\  /    A nd           | Web:      www.OpenFOAM.com                      |
|    \\/     M anipulation  |                                                 |
\*---------------------------------------------------------------------------*/
FoamFile
{
    version     2.0;
    format      ascii;
    class       volVectorField;
    location    "10.45";
    object      U;
}
// * * * * * * * * * * * * * * * * * * * * * * * * * * * * * * * * * * * * * //

dimensions      [0 1 -1 0 0 0 0];


internalField   nonuniform List<vector> 
1000
(
(0.91890839 0.035821913 0)
(0.86271384 0.062195638 0)
(0.7870597 0.06251009 0)
(0.69536033 0.054550395 0)
(0.61089745 0.044531651 0)
(0.54411592 0.034015971 0)
(0.49343012 0.024187539 0)
(0.45479413 0.01614423 0)
(0.42544582 0.010265786 0)
(0.40347313 0.0063041455 0)
(0.38715766 0.0037976295 0)
(0.3749622 0.002310338 0)
(0.36566192 0.0014930146 0)
(0.35836272 0.0010851179 0)
(0.35244268 0.00090607218 0)
(0.34748201 0.00084105184 0)
(0.34320348 0.00082372444 0)
(0.33942726 0.00081931078 0)
(0.33603793 0.00081185229 0)
(0.33296114 0.00079580134 0)
(0.33014778 0.00077081137 0)
(0.32756384 0.00073870922 0)
(0.3251842 0.00070188898 0)
(0.32298902 0.0006625654 0)
(0.32096172 0.00062249948 0)
(0.31908785 0.00058295758 0)
(0.31735449 0.00054477192 0)
(0.31574995 0.0005084346 0)
(0.3142636 0.000474192 0)
(0.31288574 0.00044212483 0)
(0.31160755 0.00041220942 0)
(0.31042101 0.00038436132 0)
(0.30931883 0.00035846446 0)
(0.30829438 0.00033438976 0)
(0.30734165 0.00031200626 0)
(0.30645515 0.00029118746 0)
(0.30562991 0.00027181447 0)
(0.30486136 0.0002537773 0)
(0.30414535 0.00023697505 0)
(0.30347806 0.00022131553 0)
(0.302856 0.00020671462 0)
(0.30227595 0.00019309556 0)
(0.30173496 0.00018038813 0)
(0.30123029 0.00016852803 0)
(0.30075942 0.00015745619 0)
(0.30032002 0.0001471182 0)
(0.29990993 0.0001374638 0)
(0.29952715 0.00012844645 0)
(0.29916983 0.00012002301 0)
(0.29883624 0.00011215345 0)
(0.29852478 0.00010480063 0)
(0.29823396 9.793009e-05 0)
(0.2979624 9.150988e-05 0)
(0.29770882 8.5510367e-05 0)
(0.297472 7.9903973e-05 0)
(0.29725084 7.4665003e-05 0)
(0.29704429 6.9769398e-05 0)
(0.29685138 6.5194576e-05 0)
(0.29667119 6.0919362e-05 0)
(0.2965029 5.692387e-05 0)
(0.29634571 5.3189589e-05 0)
(0.29619888 4.9699327e-05 0)
(0.29606174 4.6437201e-05 0)
(0.29593364 4.3388579e-05 0)
(0.29581399 4.0539836e-05 0)
(0.29570223 3.787823e-05 0)
(0.29559783 3.5391664e-05 0)
(0.2955003 3.3068538e-05 0)
(0.2954092 3.0897848e-05 0)
(0.2953241 2.8869103e-05 0)
(0.2952446 2.6972674e-05 0)
(0.29517034 2.5199711e-05 0)
(0.29510098 2.3542309e-05 0)
(0.2950362 2.1993238e-05 0)
(0.29497568 2.0545894e-05 0)
(0.29491916 1.9193679e-05 0)
(0.29486636 1.7930407e-05 0)
(0.29481705 1.6749274e-05 0)
(0.29477099 1.5644501e-05 0)
(0.29472798 1.4609476e-05 0)
(0.29468782 1.3639926e-05 0)
(0.29465035 1.2730121e-05 0)
(0.29461537 1.1878118e-05 0)
(0.29458275 1.1078112e-05 0)
(0.29455232 1.0330311e-05 0)
(0.29452396 9.6263518e-06 0)
(0.29449753 8.9691274e-06 0)
(0.29447292 8.3456696e-06 0)
(0.29445001 7.7647975e-06 0)
(0.29442874 7.2074076e-06 0)
(0.29440896 6.6932703e-06 0)
(0.29439065 6.1935202e-06 0)
(0.29437366 5.7430646e-06 0)
(0.29435797 5.2987747e-06 0)
(0.29434346 4.9110699e-06 0)
(0.29433001 4.5306126e-06 0)
(0.29431781 4.2047993e-06 0)
(0.29430596 3.9449712e-06 0)
(0.29429639 3.7341103e-06 0)
(0.29428311 3.9950399e-06 0)
(1.0016583 0.05381943 0)
(1.0359761 0.10128444 0)
(1.0597199 0.11073663 0)
(1.0628947 0.10592202 0)
(1.0515569 0.096228728 0)
(1.0340529 0.08393406 0)
(1.0142795 0.070327063 0)
(0.99360703 0.056981334 0)
(0.97292577 0.04510748 0)
(0.9531074 0.035236751 0)
(0.93479538 0.02740165 0)
(0.91829012 0.021387227 0)
(0.90362379 0.016884498 0)
(0.89068067 0.013569708 0)
(0.87928174 0.011147748 0)
(0.86923242 0.0093736589 0)
(0.86034423 0.0080569289 0)
(0.85244667 0.0070571286 0)
(0.84539241 0.0062752394 0)
(0.83905793 0.0056438291 0)
(0.83334126 0.0051180908 0)
(0.82815884 0.0046686714 0)
(0.82344212 0.0042764159 0)
(0.81913467 0.0039287373 0)
(0.81518962 0.0036172025 0)
(0.81156765 0.0033359702 0)
(0.80823544 0.0030808046 0)
(0.8051644 0.0028484701 0)
(0.80232979 0.0026363705 0)
(0.79970999 0.0024423394 0)
(0.79728597 0.002264519 0)
(0.79504086 0.0021012893 0)
(0.79295963 0.0019512241 0)
(0.7910288 0.0018130616 0)
(0.78923627 0.0016856824 0)
(0.7875711 0.0015680922 0)
(0.78602338 0.0014594064 0)
(0.78458412 0.0013588373 0)
(0.78324511 0.0012656823 0)
(0.78199889 0.0011793135 0)
(0.7808386 0.0010991683 0)
(0.77975798 0.0010247413 0)
(0.77875127 0.00095557764 0)
(0.77781317 0.00089126631 0)
(0.77693881 0.000831435 0)
(0.77612368 0.00077574538 0)
(0.77536362 0.00072388902 0)
(0.7746548 0.00067558402 0)
(0.77399367 0.00063057209 0)
(0.77337693 0.00058861614 0)
(0.77280153 0.00054949823 0)
(0.77226463 0.00051301785 0)
(0.77176362 0.00047899031 0)
(0.77129605 0.00044724537 0)
(0.77085966 0.00041762577 0)
(0.77045233 0.00038998597 0)
(0.77007211 0.00036419092 0)
(0.76971716 0.00034011499 0)
(0.7693858 0.00031764118 0)
(0.76907643 0.00029666048 0)
(0.76878758 0.00027707154 0)
(0.76851789 0.00025878031 0)
(0.76826607 0.00024169976 0)
(0.76803093 0.00022574944 0)
(0.76781136 0.00021085475 0)
(0.76760633 0.0001969462 0)
(0.76741486 0.00018395869 0)
(0.76723605 0.00017183073 0)
(0.76706907 0.00016050436 0)
(0.76691312 0.00014992484 0)
(0.76676748 0.00014004129 0)
(0.76663146 0.00013080639 0)
(0.76650444 0.00012217712 0)
(0.76638581 0.00011411361 0)
(0.76627502 0.00010657967 0)
(0.76617157 9.9540172e-05 0)
(0.76607496 9.2962831e-05 0)
(0.76598475 8.6813971e-05 0)
(0.76590052 8.1064184e-05 0)
(0.76582189 7.568099e-05 0)
(0.76574848 7.0640815e-05 0)
(0.76567999 6.5913866e-05 0)
(0.76561607 6.1486147e-05 0)
(0.76555648 5.7328042e-05 0)
(0.76550089 5.3436422e-05 0)
(0.76544913 4.9773326e-05 0)
(0.76540087 4.6349435e-05 0)
(0.76535601 4.3107833e-05 0)
(0.7653142 4.0085576e-05 0)
(0.76527546 3.7194466e-05 0)
(0.76523937 3.4522624e-05 0)
(0.76520605 3.1926726e-05 0)
(0.76517506 2.9581812e-05 0)
(0.76514649 2.7242954e-05 0)
(0.76512018 2.5227783e-05 0)
(0.76509549 2.3115927e-05 0)
(0.76507396 2.1469041e-05 0)
(0.76505137 1.9585132e-05 0)
(0.76503662 1.8484029e-05 0)
(0.76501092 1.7100952e-05 0)
(1.0014244 0.026824854 0)
(1.0291272 0.062791352 0)
(1.0654292 0.077736553 0)
(1.098962 0.0805972 0)
(1.1253149 0.078285171 0)
(1.145053 0.073153899 0)
(1.1594858 0.066111278 0)
(1.1694287 0.058162063 0)
(1.1755354 0.050296755 0)
(1.1785738 0.043150709 0)
(1.1793571 0.036972826 0)
(1.1785949 0.031771632 0)
(1.1768304 0.027451839 0)
(1.1744518 0.023886767 0)
(1.1717287 0.020947619 0)
(1.1688444 0.01851578 0)
(1.1659195 0.016488085 0)
(1.1630317 0.014779503 0)
(1.1602295 0.013322986 0)
(1.1575415 0.012067133 0)
(1.1549828 0.010973001 0)
(1.1525601 0.010011061 0)
(1.1502747 0.009158746 0)
(1.1481246 0.0083986032 0)
(1.1461059 0.0077169495 0)
(1.1442134 0.0071028876 0)
(1.1424414 0.0065475919 0)
(1.1407838 0.0060437961 0)
(1.1392344 0.0055854273 0)
(1.1377869 0.0051673459 0)
(1.1364353 0.0047851579 0)
(1.1351738 0.0044350765 0)
(1.1339968 0.0041138165 0)
(1.1328987 0.0038185121 0)
(1.1318746 0.0035466522 0)
(1.1309195 0.0032960266 0)
(1.1300289 0.0030646833 0)
(1.1291985 0.0028508915 0)
(1.1284242 0.0026531117 0)
(1.1277022 0.0024699702 0)
(1.1270291 0.0023002371 0)
(1.1264014 0.0021428079 0)
(1.1258161 0.0019966884 0)
(1.1252702 0.0018609803 0)
(1.1247612 0.0017348705 0)
(1.1242865 0.0016176206 0)
(1.1238437 0.0015085582 0)
(1.1234307 0.0014070698 0)
(1.1230455 0.0013125943 0)
(1.1226861 0.0012246173 0)
(1.1223509 0.001142667 0)
(1.1220381 0.0010663094 0)
(1.1217462 0.00099514546 0)
(1.1214739 0.00092880747 0)
(1.1212198 0.00086695645 0)
(1.1209827 0.0008092793 0)
(1.1207614 0.00075548637 0)
(1.1205548 0.00070530925 0)
(1.120362 0.00065849877 0)
(1.1201821 0.0006148235 0)
(1.1200142 0.00057406842 0)
(1.1198574 0.0005360339 0)
(1.1197111 0.00050053491 0)
(1.1195744 0.00046739989 0)
(1.1194469 0.00043646992 0)
(1.1193278 0.0004075973 0)
(1.1192167 0.00038064449 0)
(1.1191129 0.0003554828 0)
(1.1190159 0.00033199163 0)
(1.1189255 0.00031005773 0)
(1.118841 0.00028957543 0)
(1.1187621 0.00027044564 0)
(1.1186884 0.00025257737 0)
(1.1186197 0.0002358853 0)
(1.1185554 0.00022029215 0)
(1.1184955 0.00020572359 0)
(1.1184395 0.00019211277 0)
(1.1183872 0.00017939153 0)
(1.1183384 0.00016750127 0)
(1.1182928 0.00015637667 0)
(1.1182503 0.00014597006 0)
(1.1182106 0.00013621786 0)
(1.1181735 0.00012708991 0)
(1.1181389 0.00011851966 0)
(1.1181066 0.000110502 0)
(1.1180766 0.00010295242 0)
(1.1180485 9.5903859e-05 0)
(1.1180224 8.9226203e-05 0)
(1.117998 8.3023181e-05 0)
(1.1179755 7.707242e-05 0)
(1.1179542 7.1619462e-05 0)
(1.1179349 6.6258556e-05 0)
(1.1179164 6.1514092e-05 0)
(1.1178998 5.660868e-05 0)
(1.117884 5.2611469e-05 0)
(1.1178696 4.8000514e-05 0)
(1.1178567 4.4913178e-05 0)
(1.1178431 4.0385654e-05 0)
(1.1178348 3.8587179e-05 0)
(1.1178191 3.3963325e-05 0)
(1.0007347 0.011814721 0)
(1.0178472 0.030860927 0)
(1.0462163 0.041434441 0)
(1.0799018 0.04519357 0)
(1.1132664 0.045502351 0)
(1.143782 0.044080308 0)
(1.1708941 0.041439982 0)
(1.1945687 0.037973678 0)
(1.2148582 0.034195729 0)
(1.2319652 0.030536887 0)
(1.2462683 0.027222045 0)
(1.2582339 0.02431392 0)
(1.2683135 0.021797888 0)
(1.2768875 0.019633659 0)
(1.2842554 0.017773826 0)
(1.2906479 0.016169651 0)
(1.296243 0.01477559 0)
(1.3011791 0.013552298 0)
(1.3055645 0.012467864 0)
(1.3094838 0.011497466 0)
(1.3130042 0.010622162 0)
(1.3161792 0.0098275134 0)
(1.3190526 0.0091024109 0)
(1.3216607 0.0084381763 0)
(1.3240343 0.0078279033 0)
(1.3261995 0.007265974 0)
(1.3281786 0.0067477086 0)
(1.3299913 0.006269117 0)
(1.3316544 0.0058267281 0)
(1.3331829 0.0054174742 0)
(1.3345896 0.0050386132 0)
(1.3358862 0.0046876744 0)
(1.3370827 0.0043624198 0)
(1.3381882 0.0040608146 0)
(1.3392108 0.0037810042 0)
(1.3401576 0.0035212949 0)
(1.3410349 0.0032801386 0)
(1.3418486 0.003056118 0)
(1.3426038 0.0028479348 0)
(1.3433051 0.0026543987 0)
(1.3439569 0.0024744173 0)
(1.3445629 0.0023069875 0)
(1.3451267 0.0021511871 0)
(1.3456513 0.0020061678 0)
(1.3461398 0.0018711489 0)
(1.3465947 0.0017454104 0)
(1.3470185 0.0016282886 0)
(1.3474135 0.0015191704 0)
(1.3477816 0.0014174893 0)
(1.3481249 0.0013227214 0)
(1.3484449 0.0012343818 0)
(1.3487435 0.0011520217 0)
(1.349022 0.0010752251 0)
(1.3492818 0.001003607 0)
(1.3495242 0.00093681011 0)
(1.3497505 0.00087450331 0)
(1.3499616 0.00081637919 0)
(1.3501587 0.00076215211 0)
(1.3503427 0.00071155641 0)
(1.3505145 0.00066434491 0)
(1.3506748 0.00062028745 0)
(1.3508245 0.00057916996 0)
(1.3509643 0.00054079335 0)
(1.3510948 0.00050497261 0)
(1.3512167 0.00047153597 0)
(1.3513305 0.00044032354 0)
(1.3514368 0.00041118663 0)
(1.3515361 0.00038398627 0)
(1.3516288 0.00035859263 0)
(1.3517153 0.00033488399 0)
(1.3517962 0.00031274674 0)
(1.3518717 0.0002920742 0)
(1.3519422 0.00027276785 0)
(1.3520081 0.00025473481 0)
(1.3520696 0.00023789096 0)
(1.3521271 0.00022215496 0)
(1.3521807 0.00020745506 0)
(1.3522308 0.00019371728 0)
(1.3522775 0.00018088061 0)
(1.3523212 0.00016887416 0)
(1.352362 0.0001576498 0)
(1.3524 0.00014713552 0)
(1.3524355 0.00013730363 0)
(1.3524686 0.00012807283 0)
(1.3524994 0.00011944883 0)
(1.3525283 0.0001113211 0)
(1.3525549 0.00010375277 0)
(1.35258 9.6563758e-05 0)
(1.3526028 8.9926069e-05 0)
(1.3526248 8.3514645e-05 0)
(1.3526441 7.771702e-05 0)
(1.3526634 7.1918848e-05 0)
(1.3526794 6.6928307e-05 0)
(1.3526966 6.1566342e-05 0)
(1.3527093 5.7437597e-05 0)
(1.3527251 5.2301242e-05 0)
(1.3527343 4.9210098e-05 0)
(1.3527498 4.4042296e-05 0)
(1.3527549 4.2305594e-05 0)
(1.3527718 3.6824899e-05 0)
(1.0005903 0.0034629156 0)
(1.0136865 0.0093660196 0)
(1.0370283 0.013046806 0)
(1.0674202 0.014563261 0)
(1.1000315 0.014854525 0)
(1.1316428 0.014564991 0)
(1.1610745 0.013888338 0)
(1.1880674 0.012919246 0)
(1.2125205 0.011806506 0)
(1.2343939 0.010696427 0)
(1.2538077 0.0096727422 0)
(1.2710339 0.008762822 0)
(1.286401 0.0079659734 0)
(1.3002112 0.0072722143 0)
(1.3127102 0.0066688082 0)
(1.3240903 0.0061419251 0)
(1.3345036 0.0056780722 0)
(1.3440716 0.0052653211 0)
(1.3528927 0.0048939354 0)
(1.3610463 0.0045563963 0)
(1.3685975 0.0042470702 0)
(1.3756004 0.0039617761 0)
(1.3821012 0.0036973977 0)
(1.3881402 0.0034515824 0)
(1.3937533 0.0032225183 0)
(1.3989728 0.0030087696 0)
(1.403828 0.0028091578 0)
(1.4083456 0.0026226792 0)
(1.4125503 0.0024484499 0)
(1.4164646 0.0022856711 0)
(1.4201094 0.002133608 0)
(1.423504 0.0019915767 0)
(1.426666 0.0018589367 0)
(1.4296121 0.0017350863 0)
(1.4323573 0.001619459 0)
(1.4349159 0.0015115219 0)
(1.4373007 0.0014107735 0)
(1.4395241 0.0013167427 0)
(1.441597 0.001228987 0)
(1.4435301 0.0011470916 0)
(1.4453328 0.0010706677 0)
(1.4470143 0.00099935124 0)
(1.4485827 0.00093280188 0)
(1.4500459 0.0008707013 0)
(1.451411 0.00081275214 0)
(1.4526846 0.00075867659 0)
(1.4538731 0.00070821526 0)
(1.4549822 0.00066112591 0)
(1.4560172 0.0006171824 0)
(1.4569831 0.00057617358 0)
(1.4578847 0.00053790242 0)
(1.4587262 0.00050218513 0)
(1.4595117 0.00046885024 0)
(1.460245 0.00043773792 0)
(1.4609295 0.0004086992 0)
(1.4615685 0.00038159519 0)
(1.4621651 0.00035629643 0)
(1.4627221 0.00033268206 0)
(1.4632422 0.00031063938 0)
(1.4637278 0.00029006306 0)
(1.4641811 0.00027085483 0)
(1.4646045 0.00025292304 0)
(1.4649998 0.00023618217 0)
(1.4653689 0.00022055268 0)
(1.4657136 0.00020596047 0)
(1.4660355 0.00019233653 0)
(1.4663361 0.00017961654 0)
(1.4666168 0.0001677403 0)
(1.466879 0.00015665166 0)
(1.4671238 0.00014629776 0)
(1.4673524 0.00013662929 0)
(1.467566 0.00012759993 0)
(1.4677654 0.00011916696 0)
(1.4679516 0.00011128989 0)
(1.4681255 0.00010393217 0)
(1.468288 9.7058147e-05 0)
(1.4684396 9.0636895e-05 0)
(1.4685813 8.4635916e-05 0)
(1.4687135 7.9029301e-05 0)
(1.468837 7.3785552e-05 0)
(1.4689522 6.8884847e-05 0)
(1.4690599 6.4294334e-05 0)
(1.4691602 6.0004109e-05 0)
(1.469254 5.5975336e-05 0)
(1.4693412 5.2215223e-05 0)
(1.4694229 4.8668547e-05 0)
(1.4694985 4.537289e-05 0)
(1.4695696 4.2235673e-05 0)
(1.4696349 3.9351938e-05 0)
(1.4696968 3.6552399e-05 0)
(1.4697527 3.4043712e-05 0)
(1.469807 3.1506659e-05 0)
(1.4698539 2.9360927e-05 0)
(1.4699021 2.70037e-05 0)
(1.4699402 2.5245739e-05 0)
(1.4699843 2.2973237e-05 0)
(1.4700126 2.1674899e-05 0)
(1.4700559 1.9377368e-05 0)
(1.4700721 1.8654791e-05 0)
(1.4701199 1.621067e-05 0)
(1.0005903 -0.0034629162 0)
(1.0136865 -0.0093660199 0)
(1.0370283 -0.013046806 0)
(1.0674202 -0.014563261 0)
(1.1000315 -0.014854525 0)
(1.1316428 -0.014564991 0)
(1.1610745 -0.013888338 0)
(1.1880674 -0.012919245 0)
(1.2125205 -0.011806506 0)
(1.2343939 -0.010696427 0)
(1.2538077 -0.0096727422 0)
(1.2710339 -0.0087628224 0)
(1.286401 -0.0079659741 0)
(1.3002112 -0.007272215 0)
(1.3127102 -0.0066688088 0)
(1.3240903 -0.0061419253 0)
(1.3345036 -0.0056780719 0)
(1.3440716 -0.0052653205 0)
(1.3528927 -0.0048939346 0)
(1.3610463 -0.0045563955 0)
(1.3685975 -0.0042470696 0)
(1.3756004 -0.0039617759 0)
(1.3821012 -0.0036973979 0)
(1.3881402 -0.0034515828 0)
(1.3937533 -0.0032225188 0)
(1.3989728 -0.0030087699 0)
(1.403828 -0.0028091577 0)
(1.4083456 -0.0026226787 0)
(1.4125503 -0.002448449 0)
(1.4164646 -0.00228567 0)
(1.4201094 -0.0021336068 0)
(1.423504 -0.0019915756 0)
(1.426666 -0.0018589359 0)
(1.4296121 -0.0017350857 0)
(1.4323573 -0.0016194586 0)
(1.4349159 -0.0015115213 0)
(1.4373007 -0.0014107727 0)
(1.4395241 -0.0013167415 0)
(1.441597 -0.0012289853 0)
(1.4435301 -0.0011470895 0)
(1.4453328 -0.0010706652 0)
(1.4470143 -0.00099934862 0)
(1.4485827 -0.00093279925 0)
(1.4500459 -0.00087069873 0)
(1.451411 -0.0008127496 0)
(1.4526846 -0.00075867394 0)
(1.4538731 -0.00070821234 0)
(1.4549822 -0.00066112256 0)
(1.4560172 -0.00061717851 0)
(1.4569831 -0.00057616922 0)
(1.4578847 -0.00053789769 0)
(1.4587262 -0.0005021802 0)
(1.4595117 -0.00046884526 0)
(1.460245 -0.00043773296 0)
(1.4609295 -0.00040869427 0)
(1.4615685 -0.00038159011 0)
(1.4621651 -0.00035629107 0)
(1.4627221 -0.0003326763 0)
(1.4632422 -0.00031063317 0)
(1.4637278 -0.00029005661 0)
(1.4641812 -0.00027084833 0)
(1.4646045 -0.00025291682 0)
(1.4649998 -0.00023617651 0)
(1.4653689 -0.00022054767 0)
(1.4657136 -0.00020595613 0)
(1.4660355 -0.0001923326 0)
(1.4663361 -0.00017961286 0)
(1.4666168 -0.00016773673 0)
(1.466879 -0.00015664816 0)
(1.4671238 -0.00014629467 0)
(1.4673524 -0.00013662708 0)
(1.467566 -0.00012759924 0)
(1.4677654 -0.00011916815 0)
(1.4679516 -0.00011129316 0)
(1.4681256 -0.00010393756 0)
(1.468288 -9.706547e-05 0)
(1.4684396 -9.0645848e-05 0)
(1.4685813 -8.4646212e-05 0)
(1.4687135 -7.9040635e-05 0)
(1.468837 -7.3798026e-05 0)
(1.4689522 -6.8898529e-05 0)
(1.4690599 -6.4309536e-05 0)
(1.4691602 -6.0021002e-05 0)
(1.469254 -5.5993988e-05 0)
(1.4693413 -5.2235428e-05 0)
(1.4694229 -4.8689865e-05 0)
(1.4694985 -4.539467e-05 0)
(1.4695696 -4.2257166e-05 0)
(1.4696349 -3.9372413e-05 0)
(1.4696968 -3.6571067e-05 0)
(1.4697527 -3.4060133e-05 0)
(1.4698069 -3.152039e-05 0)
(1.4698539 -2.9371172e-05 0)
(1.4699021 -2.7011626e-05 0)
(1.4699402 -2.5248016e-05 0)
(1.4699843 -2.2973131e-05 0)
(1.4700126 -2.1666714e-05 0)
(1.4700559 -1.9362048e-05 0)
(1.4700721 -1.8629847e-05 0)
(1.47012 -1.6169875e-05 0)
(1.0007347 -0.011814722 0)
(1.0178472 -0.030860927 0)
(1.0462163 -0.041434442 0)
(1.0799018 -0.04519357 0)
(1.1132664 -0.045502351 0)
(1.143782 -0.044080307 0)
(1.1708941 -0.041439981 0)
(1.1945687 -0.037973677 0)
(1.2148582 -0.034195729 0)
(1.2319652 -0.030536887 0)
(1.2462683 -0.027222045 0)
(1.2582339 -0.024313921 0)
(1.2683135 -0.021797889 0)
(1.2768875 -0.01963366 0)
(1.2842554 -0.017773826 0)
(1.2906479 -0.016169651 0)
(1.296243 -0.014775589 0)
(1.3011791 -0.013552297 0)
(1.3055645 -0.012467863 0)
(1.3094838 -0.011497466 0)
(1.3130042 -0.010622162 0)
(1.3161792 -0.0098275136 0)
(1.3190526 -0.0091024112 0)
(1.3216607 -0.0084381767 0)
(1.3240343 -0.0078279035 0)
(1.3261995 -0.0072659739 0)
(1.3281786 -0.0067477081 0)
(1.3299913 -0.0062691162 0)
(1.3316544 -0.0058267272 0)
(1.3331829 -0.0054174733 0)
(1.3345896 -0.0050386125 0)
(1.3358862 -0.0046876739 0)
(1.3370827 -0.0043624195 0)
(1.3381883 -0.0040608143 0)
(1.3392108 -0.0037810037 0)
(1.3401576 -0.0035212942 0)
(1.3410349 -0.0032801374 0)
(1.3418486 -0.0030561164 0)
(1.3426038 -0.002847933 0)
(1.3433051 -0.0026543968 0)
(1.3439569 -0.0024744155 0)
(1.3445629 -0.0023069857 0)
(1.3451267 -0.0021511854 0)
(1.3456513 -0.0020061661 0)
(1.3461398 -0.0018711468 0)
(1.3465947 -0.0017454079 0)
(1.3470185 -0.0016282856 0)
(1.3474135 -0.0015191668 0)
(1.3477816 -0.0014174854 0)
(1.3481249 -0.0013227174 0)
(1.3484449 -0.001234378 0)
(1.3487435 -0.0011520181 0)
(1.349022 -0.0010752217 0)
(1.3492818 -0.0010036034 0)
(1.3495242 -0.00093680618 0)
(1.3497505 -0.00087449882 0)
(1.3499617 -0.00081637407 0)
(1.3501587 -0.00076214647 0)
(1.3503427 -0.00071155062 0)
(1.3505145 -0.00066433931 0)
(1.3506748 -0.00062028246 0)
(1.3508245 -0.00057916573 0)
(1.3509643 -0.0005407898 0)
(1.3510949 -0.0005049695 0)
(1.3512167 -0.00047153283 0)
(1.3513306 -0.00044032012 0)
(1.3514368 -0.00041118283 0)
(1.3515361 -0.0003839823 0)
(1.3516288 -0.00035858919 0)
(1.3517154 -0.00033488166 0)
(1.3517962 -0.00031274613 0)
(1.3518717 -0.00029207551 0)
(1.3519423 -0.00027277102 0)
(1.3520081 -0.00025473954 0)
(1.3520696 -0.00023789672 0)
(1.3521271 -0.00022216139 0)
(1.3521807 -0.0002074621 0)
(1.3522308 -0.00019372514 0)
(1.3522776 -0.00018088991 0)
(1.3523212 -0.00016888526 0)
(1.352362 -0.00015766308 0)
(1.3524001 -0.00014715088 0)
(1.3524355 -0.00013732065 0)
(1.3524687 -0.00012809089 0)
(1.3524994 -0.0001194673 0)
(1.3525283 -0.0001113394 0)
(1.3525549 -0.00010377079 0)
(1.35258 -9.6581218e-05 0)
(1.3526028 -8.9943204e-05 0)
(1.3526247 -8.3531067e-05 0)
(1.3526441 -7.7732525e-05 0)
(1.3526634 -7.1932836e-05 0)
(1.3526794 -6.6939891e-05 0)
(1.3526966 -6.1575325e-05 0)
(1.3527093 -5.7442771e-05 0)
(1.3527251 -5.2303363e-05 0)
(1.3527343 -4.9208254e-05 0)
(1.3527498 -4.4036456e-05 0)
(1.3527549 -4.2297544e-05 0)
(1.3527718 -3.6811503e-05 0)
(1.0014244 -0.026824855 0)
(1.0291272 -0.062791353 0)
(1.0654292 -0.077736553 0)
(1.098962 -0.0805972 0)
(1.1253149 -0.07828517 0)
(1.145053 -0.073153899 0)
(1.1594858 -0.066111277 0)
(1.1694287 -0.058162063 0)
(1.1755354 -0.050296754 0)
(1.1785738 -0.043150709 0)
(1.1793571 -0.036972826 0)
(1.178595 -0.031771633 0)
(1.1768304 -0.027451839 0)
(1.1744518 -0.023886767 0)
(1.1717287 -0.020947619 0)
(1.1688444 -0.018515779 0)
(1.1659195 -0.016488084 0)
(1.1630317 -0.014779503 0)
(1.1602295 -0.013322986 0)
(1.1575415 -0.012067133 0)
(1.1549828 -0.010973002 0)
(1.1525601 -0.010011062 0)
(1.1502747 -0.0091587465 0)
(1.1481246 -0.0083986033 0)
(1.1461059 -0.0077169492 0)
(1.1442134 -0.0071028868 0)
(1.1424414 -0.0065475909 0)
(1.1407838 -0.0060437951 0)
(1.1392344 -0.0055854266 0)
(1.1377869 -0.0051673457 0)
(1.1364353 -0.0047851582 0)
(1.1351738 -0.004435077 0)
(1.1339968 -0.0041138168 0)
(1.1328987 -0.0038185121 0)
(1.1318746 -0.0035466515 0)
(1.1309195 -0.0032960254 0)
(1.1300289 -0.0030646816 0)
(1.1291985 -0.0028508897 0)
(1.1284242 -0.0026531102 0)
(1.1277022 -0.0024699691 0)
(1.1270291 -0.0023002364 0)
(1.1264014 -0.0021428076 0)
(1.1258161 -0.001996688 0)
(1.1252702 -0.0018609795 0)
(1.1247612 -0.001734869 0)
(1.1242865 -0.0016176182 0)
(1.1238437 -0.0015085551 0)
(1.1234307 -0.0014070665 0)
(1.1230455 -0.0013125912 0)
(1.1226861 -0.0012246148 0)
(1.1223509 -0.0011426652 0)
(1.1220381 -0.0010663081 0)
(1.1217462 -0.00099514425 0)
(1.1214739 -0.00092880577 0)
(1.1212198 -0.00086695378 0)
(1.1209827 -0.00080927555 0)
(1.1207614 -0.00075548177 0)
(1.1205548 -0.0007053044 0)
(1.1203621 -0.00065849442 0)
(1.1201821 -0.0006148202 0)
(1.1200142 -0.00057406645 0)
(1.1198574 -0.000536033 0)
(1.1197111 -0.00050053444 0)
(1.1195745 -0.00046739907 0)
(1.1194469 -0.00043646804 0)
(1.1193279 -0.00040759422 0)
(1.1192167 -0.00038064058 0)
(1.1191129 -0.00035547901 0)
(1.119016 -0.00033198918 0)
(1.1189255 -0.00031005747 0)
(1.118841 -0.0002895777 0)
(1.1187621 -0.00027045001 0)
(1.1186885 -0.00025258288 0)
(1.1186197 -0.00023589086 0)
(1.1185555 -0.00022029685 0)
(1.1184955 -0.00020572731 0)
(1.1184395 -0.00019211615 0)
(1.1183872 -0.00017939572 0)
(1.1183384 -0.00016750764 0)
(1.1182928 -0.00015638596 0)
(1.1182503 -0.0001459824 0)
(1.1182106 -0.00013623238 0)
(1.1181735 -0.0001271053 0)
(1.1181389 -0.00011853451 0)
(1.1181066 -0.00011051545 0)
(1.1180766 -0.00010296424 0)
(1.1180485 -9.5914792e-05 0)
(1.1180224 -8.9237086e-05 0)
(1.1179979 -8.3035104e-05 0)
(1.1179755 -7.7085512e-05 0)
(1.1179542 -7.1633355e-05 0)
(1.1179348 -6.627203e-05 0)
(1.1179164 -6.1525846e-05 0)
(1.1178998 -5.6617547e-05 0)
(1.117884 -5.2618066e-05 0)
(1.1178695 -4.8003881e-05 0)
(1.1178567 -4.4917976e-05 0)
(1.1178431 -4.03883e-05 0)
(1.1178348 -3.859765e-05 0)
(1.1178191 -3.3978123e-05 0)
(1.0016583 -0.053819431 0)
(1.0359761 -0.10128444 0)
(1.0597199 -0.11073663 0)
(1.0628947 -0.10592202 0)
(1.0515569 -0.096228727 0)
(1.0340529 -0.08393406 0)
(1.0142795 -0.070327062 0)
(0.99360703 -0.056981334 0)
(0.97292577 -0.04510748 0)
(0.9531074 -0.035236751 0)
(0.93479538 -0.027401651 0)
(0.91829012 -0.021387227 0)
(0.90362379 -0.016884498 0)
(0.89068067 -0.013569708 0)
(0.87928174 -0.011147748 0)
(0.86923242 -0.0093736584 0)
(0.86034423 -0.0080569286 0)
(0.85244667 -0.0070571286 0)
(0.84539241 -0.0062752398 0)
(0.83905793 -0.0056438297 0)
(0.83334126 -0.0051180914 0)
(0.82815884 -0.0046686717 0)
(0.82344212 -0.0042764159 0)
(0.81913467 -0.0039287369 0)
(0.81518962 -0.0036172018 0)
(0.81156765 -0.0033359694 0)
(0.80823544 -0.0030808039 0)
(0.8051644 -0.0028484698 0)
(0.80232979 -0.0026363707 0)
(0.79970999 -0.0024423399 0)
(0.79728597 -0.0022645197 0)
(0.79504086 -0.0021012898 0)
(0.79295963 -0.0019512242 0)
(0.7910288 -0.0018130611 0)
(0.78923627 -0.0016856815 0)
(0.7875711 -0.0015680909 0)
(0.78602338 -0.0014594051 0)
(0.78458412 -0.0013588364 0)
(0.78324512 -0.001265682 0)
(0.78199889 -0.0011793137 0)
(0.78083861 -0.0010991688 0)
(0.77975799 -0.0010247417 0)
(0.77875128 -0.00095557767 0)
(0.77781318 -0.00089126565 0)
(0.77693881 -0.00083143363 0)
(0.77612368 -0.00077574348 0)
(0.77536363 -0.000723887 0)
(0.77465482 -0.00067558234 0)
(0.77399368 -0.00063057107 0)
(0.77337694 -0.00058861589 0)
(0.77280154 -0.00054949852 0)
(0.77226465 -0.00051301822 0)
(0.77176364 -0.00047899022 0)
(0.77129607 -0.00044724436 0)
(0.77085968 -0.00041762377 0)
(0.77045235 -0.00038998324 0)
(0.77007213 -0.00036418806 0)
(0.76971719 -0.0003401127 0)
(0.76938582 -0.00031763994 0)
(0.76907646 -0.00029666049 0)
(0.76878761 -0.00027707244 0)
(0.76851792 -0.00025878145 0)
(0.7682661 -0.00024170039 0)
(0.76803096 -0.0002257489 0)
(0.7678114 -0.00021085295 0)
(0.76760636 -0.00019694353 0)
(0.76741489 -0.00018395602 0)
(0.76723609 -0.00017182912 0)
(0.7670691 -0.00016050454 0)
(0.76691316 -0.00014992709 0)
(0.76676752 -0.00014004505 0)
(0.7666315 -0.00013081067 0)
(0.76650447 -0.00012218082 0)
(0.76638584 -0.00011411588 0)
(0.76627505 -0.00010658048 0)
(0.76617159 -9.954016e-05 0)
(0.76607498 -9.2963129e-05 0)
(0.76598477 -8.6815868e-05 0)
(0.76590054 -8.1068317e-05 0)
(0.7658219 -7.5687473e-05 0)
(0.76574849 -7.0648789e-05 0)
(0.76567999 -6.592215e-05 0)
(0.76561606 -6.1493527e-05 0)
(0.76555646 -5.7333813e-05 0)
(0.76550086 -5.3440578e-05 0)
(0.76544909 -4.9776655e-05 0)
(0.76540082 -4.635287e-05 0)
(0.76535596 -4.3112511e-05 0)
(0.76531415 -4.0091747e-05 0)
(0.7652754 -3.7202026e-05 0)
(0.7652393 -3.4530507e-05 0)
(0.76520597 -3.1934022e-05 0)
(0.76517497 -2.9587495e-05 0)
(0.7651464 -2.7247086e-05 0)
(0.76512008 -2.5231254e-05 0)
(0.7650954 -2.3119269e-05 0)
(0.76507387 -2.1475323e-05 0)
(0.76505128 -1.9592071e-05 0)
(0.76503652 -1.8500927e-05 0)
(0.7650108 -1.7121226e-05 0)
(0.91890839 -0.035821913 0)
(0.86271384 -0.062195639 0)
(0.7870597 -0.06251009 0)
(0.69536033 -0.054550395 0)
(0.61089745 -0.044531651 0)
(0.54411592 -0.034015971 0)
(0.49343012 -0.02418754 0)
(0.45479413 -0.01614423 0)
(0.42544582 -0.010265786 0)
(0.40347313 -0.0063041457 0)
(0.38715766 -0.0037976295 0)
(0.3749622 -0.0023103378 0)
(0.36566192 -0.0014930143 0)
(0.35836272 -0.0010851176 0)
(0.35244268 -0.00090607196 0)
(0.34748201 -0.00084105174 0)
(0.34320348 -0.00082372451 0)
(0.33942726 -0.00081931099 0)
(0.33603793 -0.00081185257 0)
(0.33296114 -0.00079580161 0)
(0.33014778 -0.00077081153 0)
(0.32756384 -0.00073870921 0)
(0.3251842 -0.00070188879 0)
(0.32298902 -0.00066256508 0)
(0.32096172 -0.00062249914 0)
(0.31908785 -0.00058295732 0)
(0.31735449 -0.00054477182 0)
(0.31574996 -0.00050843469 0)
(0.3142636 -0.00047419225 0)
(0.31288574 -0.00044212515 0)
(0.31160755 -0.00041220969 0)
(0.31042101 -0.00038436143 0)
(0.30931883 -0.00035846435 0)
(0.30829438 -0.00033438944 0)
(0.30734165 -0.00031200582 0)
(0.30645516 -0.00029118702 0)
(0.30562991 -0.00027181418 0)
(0.30486137 -0.00025377724 0)
(0.30414535 -0.00023697522 0)
(0.30347807 -0.00022131586 0)
(0.302856 -0.00020671496 0)
(0.30227596 -0.00019309575 0)
(0.30173496 -0.00018038805 0)
(0.30123029 -0.00016852766 0)
(0.30075942 -0.00015745561 0)
(0.30032002 -0.00014711757 0)
(0.29990994 -0.00013746331 0)
(0.29952716 -0.00012844625 0)
(0.29916983 -0.00012002316 0)
(0.29883624 -0.00011215386 0)
(0.29852478 -0.0001048011 0)
(0.29823396 -9.7930398e-05 0)
(0.29796241 -9.1509827e-05 0)
(0.29770883 -8.5509874e-05 0)
(0.29747201 -7.990316e-05 0)
(0.29725085 -7.4664097e-05 0)
(0.2970443 -6.9768718e-05 0)
(0.29685139 -6.519437e-05 0)
(0.2966712 -6.0919693e-05 0)
(0.29650291 -5.6924633e-05 0)
(0.29634572 -5.3190454e-05 0)
(0.29619889 -4.9699946e-05 0)
(0.29606175 -4.6437294e-05 0)
(0.29593366 -4.338805e-05 0)
(0.29581401 -4.0538888e-05 0)
(0.29570224 -3.787721e-05 0)
(0.29559784 -3.5391023e-05 0)
(0.29550032 -3.3068615e-05 0)
(0.29540921 -3.0898695e-05 0)
(0.29532411 -2.8870543e-05 0)
(0.29524461 -2.6974225e-05 0)
(0.29517035 -2.5200896e-05 0)
(0.29510099 -2.3542785e-05 0)
(0.2950362 -2.1992947e-05 0)
(0.29497569 -2.0545146e-05 0)
(0.29491917 -1.9192962e-05 0)
(0.29486637 -1.7930209e-05 0)
(0.29481705 -1.6749936e-05 0)
(0.29477099 -1.5645912e-05 0)
(0.29472798 -1.4611367e-05 0)
(0.29468782 -1.3641706e-05 0)
(0.29465034 -1.2731402e-05 0)
(0.29461536 -1.1878663e-05 0)
(0.29458273 -1.1078089e-05 0)
(0.2945523 -1.0330029e-05 0)
(0.29452394 -9.6263304e-06 0)
(0.2944975 -8.9695481e-06 0)
(0.2944729 -8.3467595e-06 0)
(0.29444998 -7.7662107e-06 0)
(0.2944287 -7.2090074e-06 0)
(0.29440892 -6.6945835e-06 0)
(0.29439061 -6.1945357e-06 0)
(0.29437361 -5.7436449e-06 0)
(0.29435792 -5.2994654e-06 0)
(0.29434341 -4.9121825e-06 0)
(0.29432996 -4.5327043e-06 0)
(0.29431775 -4.2082204e-06 0)
(0.2943059 -3.9497435e-06 0)
(0.29429632 -3.7408862e-06 0)
(0.29428303 -4.0015771e-06 0)
)
;

boundaryField
{
    top
    {
        type            fixedValue;
        value           uniform (0 0 0);
    }
    inlet
    {
        type            fixedValue;
        value           uniform (1 0 0);
    }
    outlet
    {
        type            zeroGradient;
    }
    bottom
    {
        type            fixedValue;
        value           uniform (0 0 0);
    }
    back
    {
        type            empty;
    }
    front
    {
        type            empty;
    }
}


// ************************************************************************* //
