/*--------------------------------*- C++ -*----------------------------------*\
| =========                 |                                                 |
| \\      /  F ield         | OpenFOAM: The Open Source CFD Toolbox           |
|  \\    /   O peration     | Version:  v1812                                 |
|   \\  /    A nd           | Web:      www.OpenFOAM.com                      |
|    \\/     M anipulation  |                                                 |
\*---------------------------------------------------------------------------*/
FoamFile
{
    version     2.0;
    format      ascii;
    class       volScalarField;
    location    "18";
    object      p;
}
// * * * * * * * * * * * * * * * * * * * * * * * * * * * * * * * * * * * * * //

dimensions      [0 2 -2 0 0 0 0];


internalField   nonuniform List<scalar> 
1000
(
1.5147784
1.4985341
1.4825308
1.4667088
1.4510113
1.4353993
1.4198486
1.4043452
1.3888806
1.3734486
1.3580439
1.3426622
1.3273001
1.3119551
1.2966252
1.2813091
1.2660056
1.2507136
1.2354321
1.2201604
1.2048977
1.1896434
1.1743968
1.1591575
1.143925
1.1286988
1.1134784
1.0982636
1.0830539
1.067849
1.0526486
1.0374525
1.0222604
1.007072
0.9918871
0.97670548
0.96152695
0.94635133
0.93117842
0.91600809
0.90084015
0.88567448
0.87051094
0.8553494
0.84018973
0.82503184
0.8098756
0.79472092
0.77956771
0.76441587
0.74926533
0.73411601
0.71896783
0.70382072
0.68867462
0.67352947
0.6583852
0.64324177
0.62809912
0.61295721
0.59781598
0.58267541
0.56753543
0.55239603
0.53725716
0.52211879
0.50698089
0.49184342
0.47670636
0.46156969
0.44643338
0.43129741
0.41616175
0.40102638
0.38589129
0.37075646
0.35562186
0.34048749
0.32535333
0.31021937
0.29508559
0.27995198
0.26481853
0.24968522
0.23455206
0.21941902
0.20428611
0.1891533
0.1740206
0.15888799
0.14375548
0.12862304
0.11349069
0.098358403
0.083226186
0.06809403
0.052961932
0.037829885
0.022697892
0.0075659311
1.5145564
1.4982821
1.4824367
1.4667541
1.4511073
1.4354879
1.4199162
1.4043986
1.3889273
1.3734914
1.3580827
1.3426965
1.32733
1.3119814
1.2966487
1.2813303
1.2660249
1.2507312
1.2354483
1.2201753
1.2049115
1.1896562
1.1744087
1.1591686
1.1439353
1.1287083
1.1134874
1.0982719
1.0830617
1.0678563
1.0526555
1.0374589
1.0222664
1.0070776
0.99189236
0.97671041
0.96153158
0.94635566
0.93118249
0.91601189
0.90084372
0.88567783
0.87051408
0.85535234
0.84019249
0.82503442
0.80987802
0.79472319
0.77956983
0.76441786
0.7492672
0.73411776
0.71896946
0.70382225
0.68867605
0.67353081
0.65838645
0.64324294
0.62810022
0.61295823
0.59781694
0.5826763
0.56753627
0.55239681
0.53725789
0.52211947
0.50698152
0.49184401
0.47670691
0.4615702
0.44643386
0.43129785
0.41616216
0.40102676
0.38589165
0.37075679
0.35562217
0.34048778
0.3253536
0.31021962
0.29508582
0.27995219
0.26481872
0.24968541
0.23455223
0.21941918
0.20428625
0.18915343
0.17402072
0.1588881
0.14375558
0.12862314
0.11349077
0.098358484
0.08322626
0.068094097
0.052961994
0.037829938
0.022697941
0.0075659557
1.5141545
1.497771
1.4821385
1.4666995
1.4511783
1.4355768
1.4199799
1.4044398
1.3889601
1.3735235
1.3581145
1.3427257
1.3273554
1.3120031
1.2966675
1.2813471
1.2660401
1.2507451
1.2354609
1.2201868
1.204922
1.1896658
1.1744176
1.1591768
1.1439429
1.1287154
1.1134939
1.098278
1.0830674
1.0678616
1.0526604
1.0374636
1.0222707
1.0070816
0.99189613
0.97671394
0.96153488
0.94635875
0.93118538
0.91601461
0.90084626
0.88568021
0.87051631
0.85535443
0.84019445
0.82503626
0.80987974
0.7947248
0.77957134
0.76441928
0.74926852
0.734119
0.71897063
0.70382334
0.68867707
0.67353176
0.65838735
0.64324378
0.628101
0.61295896
0.59781762
0.58267694
0.56753687
0.55239737
0.53725841
0.52211995
0.50698197
0.49184443
0.47670731
0.46157057
0.4464342
0.43129817
0.41616246
0.40102704
0.38589191
0.37075703
0.3556224
0.34048799
0.32535379
0.3102198
0.29508599
0.27995235
0.26481887
0.24968554
0.23455235
0.21941929
0.20428635
0.18915353
0.17402081
0.15888819
0.14375566
0.12862321
0.11349084
0.098358545
0.083226316
0.068094149
0.052962039
0.037829978
0.022697967
0.0075659719
1.5137532
1.4972191
1.4817659
1.4665827
1.4512196
1.4356584
1.4200431
1.4044795
1.3889905
1.3735547
1.3581475
1.3427577
1.3273838
1.3120275
1.2966887
1.2813659
1.2660571
1.2507604
1.2354748
1.2201994
1.2049335
1.1896763
1.1744273
1.1591857
1.1439511
1.128723
1.113501
1.0982846
1.0830735
1.0678673
1.0526657
1.0374685
1.0222753
1.007086
0.99190018
0.97671773
0.96153843
0.94636208
0.9311885
0.91601753
0.900849
0.88568278
0.87051872
0.85535669
0.84019657
0.82503825
0.80988161
0.79472655
0.77957299
0.76442082
0.74926997
0.73412036
0.7189719
0.70382454
0.68867819
0.67353281
0.65838833
0.6432447
0.62810187
0.61295978
0.59781839
0.58267765
0.56753753
0.55239799
0.53725899
0.5221205
0.50698248
0.49184491
0.47670776
0.46157099
0.44643459
0.43129854
0.4161628
0.40102736
0.3858922
0.37075731
0.35562265
0.34048823
0.32535402
0.31022001
0.29508618
0.27995253
0.26481904
0.2496857
0.2345525
0.21941943
0.20428648
0.18915365
0.17402092
0.15888829
0.14375575
0.1286233
0.11349092
0.098358621
0.083226384
0.068094213
0.052962094
0.03783003
0.022698002
0.0075660079
1.5135108
1.4968734
1.4815176
1.4664923
1.4512365
1.4357081
1.4200839
1.4045052
1.3890099
1.3735748
1.3581696
1.3427796
1.3274038
1.3120449
1.296704
1.2813796
1.2660695
1.2507718
1.2354852
1.2202089
1.2049422
1.1896843
1.1744346
1.1591925
1.1439574
1.1287289
1.1135064
1.0982897
1.0830782
1.0678717
1.0526699
1.0374724
1.0222789
1.0070893
0.99190333
0.97672068
0.96154119
0.94636467
0.93119093
0.91601981
0.90085115
0.8856848
0.87052061
0.85535847
0.84019824
0.82503981
0.80988308
0.79472793
0.77957429
0.76442204
0.74927112
0.73412143
0.71897291
0.70382548
0.68867908
0.67353365
0.65838912
0.64324544
0.62810255
0.61296042
0.59781899
0.58267822
0.56753807
0.55239849
0.53725946
0.52212094
0.50698289
0.4918453
0.47670812
0.46157133
0.44643491
0.43129883
0.41616308
0.40102762
0.38589244
0.37075753
0.35562286
0.34048843
0.3253542
0.31022018
0.29508634
0.27995268
0.26481918
0.24968583
0.23455262
0.21941954
0.20428659
0.18915375
0.17402101
0.15888837
0.14375583
0.12862337
0.11349099
0.098358684
0.083226441
0.068094267
0.05296214
0.037830076
0.022698034
0.0075660432
1.5135108
1.4968733
1.4815176
1.4664923
1.4512365
1.4357081
1.4200839
1.4045052
1.3890099
1.3735748
1.3581696
1.3427796
1.3274038
1.3120449
1.296704
1.2813796
1.2660695
1.2507718
1.2354852
1.2202089
1.2049422
1.1896843
1.1744346
1.1591925
1.1439574
1.1287289
1.1135064
1.0982897
1.0830782
1.0678717
1.0526699
1.0374724
1.0222789
1.0070893
0.99190333
0.97672068
0.96154119
0.94636467
0.93119093
0.91601981
0.90085115
0.8856848
0.87052061
0.85535847
0.84019824
0.82503981
0.80988308
0.79472793
0.77957429
0.76442204
0.74927112
0.73412143
0.71897291
0.70382548
0.68867908
0.67353365
0.65838912
0.64324544
0.62810255
0.61296042
0.59781899
0.58267822
0.56753807
0.55239849
0.53725946
0.52212094
0.50698289
0.4918453
0.47670812
0.46157133
0.44643491
0.43129883
0.41616308
0.40102762
0.38589244
0.37075753
0.35562286
0.34048843
0.3253542
0.31022018
0.29508634
0.27995268
0.26481918
0.24968583
0.23455262
0.21941954
0.20428659
0.18915375
0.17402101
0.15888837
0.14375583
0.12862337
0.11349099
0.098358684
0.083226441
0.068094268
0.05296214
0.037830076
0.022698035
0.0075660438
1.5137532
1.4972191
1.4817659
1.4665827
1.4512196
1.4356583
1.420043
1.4044794
1.3889905
1.3735547
1.3581475
1.3427577
1.3273838
1.3120275
1.2966887
1.2813659
1.2660571
1.2507604
1.2354749
1.2201995
1.2049335
1.1896763
1.1744273
1.1591857
1.1439511
1.128723
1.113501
1.0982846
1.0830735
1.0678673
1.0526657
1.0374685
1.0222753
1.007086
0.99190018
0.97671773
0.96153843
0.94636208
0.9311885
0.91601753
0.90084901
0.88568278
0.87051872
0.85535669
0.84019657
0.82503825
0.80988161
0.79472655
0.77957299
0.76442082
0.74926997
0.73412036
0.7189719
0.70382454
0.68867819
0.67353281
0.65838833
0.6432447
0.62810187
0.61295978
0.59781839
0.58267765
0.56753753
0.55239799
0.53725899
0.5221205
0.50698248
0.49184491
0.47670776
0.46157099
0.44643459
0.43129854
0.4161628
0.40102736
0.3858922
0.37075731
0.35562265
0.34048823
0.32535402
0.31022001
0.29508618
0.27995253
0.26481904
0.2496857
0.2345525
0.21941943
0.20428648
0.18915365
0.17402092
0.15888829
0.14375575
0.1286233
0.11349092
0.098358622
0.083226385
0.068094214
0.052962094
0.037830031
0.022698003
0.0075660092
1.5141545
1.497771
1.4821385
1.4666995
1.4511783
1.4355767
1.4199799
1.4044398
1.38896
1.3735235
1.3581145
1.3427257
1.3273554
1.3120031
1.2966675
1.2813471
1.2660401
1.2507451
1.2354609
1.2201868
1.204922
1.1896658
1.1744176
1.1591768
1.1439429
1.1287154
1.1134939
1.098278
1.0830674
1.0678616
1.0526604
1.0374636
1.0222707
1.0070817
0.99189613
0.97671394
0.96153488
0.94635875
0.93118538
0.91601461
0.90084627
0.88568021
0.87051631
0.85535443
0.84019445
0.82503626
0.80987974
0.7947248
0.77957134
0.76441928
0.74926852
0.734119
0.71897063
0.70382334
0.68867707
0.67353176
0.65838735
0.64324378
0.628101
0.61295896
0.59781762
0.58267694
0.56753687
0.55239737
0.53725841
0.52211995
0.50698197
0.49184443
0.47670731
0.46157057
0.4464342
0.43129817
0.41616246
0.40102704
0.3858919
0.37075703
0.35562239
0.34048799
0.32535379
0.3102198
0.29508599
0.27995235
0.26481887
0.24968554
0.23455235
0.21941929
0.20428636
0.18915353
0.17402081
0.15888819
0.14375566
0.12862321
0.11349084
0.098358546
0.083226317
0.068094149
0.05296204
0.037829978
0.022697968
0.0075659732
1.5145564
1.4982821
1.4824368
1.4667541
1.4511073
1.4354879
1.4199162
1.4043986
1.3889273
1.3734914
1.3580827
1.3426965
1.32733
1.3119814
1.2966487
1.2813303
1.2660249
1.2507312
1.2354483
1.2201753
1.2049115
1.1896562
1.1744087
1.1591686
1.1439353
1.1287084
1.1134874
1.0982719
1.0830617
1.0678563
1.0526555
1.0374589
1.0222664
1.0070776
0.99189236
0.97671041
0.96153158
0.94635566
0.93118249
0.91601189
0.90084372
0.88567783
0.87051408
0.85535234
0.84019249
0.82503442
0.80987802
0.79472319
0.77956983
0.76441786
0.7492672
0.73411775
0.71896946
0.70382225
0.68867605
0.6735308
0.65838645
0.64324294
0.62810022
0.61295823
0.59781694
0.5826763
0.56753627
0.55239681
0.53725789
0.52211947
0.50698152
0.49184401
0.47670691
0.4615702
0.44643386
0.43129785
0.41616216
0.40102676
0.38589165
0.37075679
0.35562217
0.34048778
0.3253536
0.31021962
0.29508582
0.27995219
0.26481872
0.24968541
0.23455223
0.21941918
0.20428625
0.18915343
0.17402072
0.15888811
0.14375558
0.12862314
0.11349078
0.098358485
0.083226261
0.068094098
0.052961995
0.037829939
0.022697942
0.0075659565
1.5147784
1.4985341
1.4825309
1.4667088
1.4510113
1.4353993
1.4198486
1.4043452
1.3888806
1.3734486
1.3580439
1.3426622
1.3273001
1.3119551
1.2966252
1.2813091
1.2660056
1.2507136
1.2354321
1.2201604
1.2048977
1.1896434
1.1743968
1.1591575
1.143925
1.1286988
1.1134784
1.0982636
1.0830539
1.067849
1.0526487
1.0374525
1.0222604
1.007072
0.9918871
0.97670548
0.96152695
0.94635133
0.93117843
0.91600809
0.90084015
0.88567448
0.87051094
0.8553494
0.84018973
0.82503184
0.8098756
0.79472092
0.77956771
0.76441587
0.74926533
0.73411601
0.71896783
0.70382072
0.68867462
0.67352947
0.6583852
0.64324177
0.62809912
0.61295721
0.59781598
0.58267541
0.56753543
0.55239603
0.53725716
0.52211879
0.50698088
0.49184342
0.47670636
0.46156969
0.44643338
0.43129741
0.41616175
0.40102638
0.38589129
0.37075646
0.35562186
0.34048749
0.32535333
0.31021937
0.29508559
0.27995198
0.26481853
0.24968522
0.23455206
0.21941902
0.20428611
0.1891533
0.1740206
0.15888799
0.14375548
0.12862304
0.11349069
0.098358405
0.083226187
0.068094031
0.052961932
0.037829885
0.022697893
0.0075659316
)
;

boundaryField
{
    top
    {
        type            zeroGradient;
    }
    inlet
    {
        type            fixedValue;
        value           uniform 1.523;
    }
    outlet
    {
        type            fixedValue;
        value           uniform 0;
    }
    bottom
    {
        type            zeroGradient;
    }
    back
    {
        type            empty;
    }
    front
    {
        type            empty;
    }
}


// ************************************************************************* //
