/*--------------------------------*- C++ -*----------------------------------*\
| =========                 |                                                 |
| \\      /  F ield         | OpenFOAM: The Open Source CFD Toolbox           |
|  \\    /   O peration     | Version:  v1812                                 |
|   \\  /    A nd           | Web:      www.OpenFOAM.com                      |
|    \\/     M anipulation  |                                                 |
\*---------------------------------------------------------------------------*/
FoamFile
{
    version     2.0;
    format      ascii;
    class       volVectorField;
    location    "18";
    object      U;
}
// * * * * * * * * * * * * * * * * * * * * * * * * * * * * * * * * * * * * * //

dimensions      [0 1 -1 0 0 0 0];


internalField   nonuniform List<vector> 
1000
(
(0.33120542 0.00013113867 0)
(0.33092566 0.00039947066 0)
(0.330286 0.00045565794 0)
(0.32961737 0.00036207078 0)
(0.32905987 0.00024368443 0)
(0.32862355 0.00016302343 0)
(0.32827465 0.00012159235 0)
(0.32798144 0.00010059054 0)
(0.32772609 8.6174629e-05 0)
(0.32750098 7.3672295e-05 0)
(0.32730228 6.3073623e-05 0)
(0.32712645 5.4944201e-05 0)
(0.32696969 4.9061427e-05 0)
(0.32682843 4.4695196e-05 0)
(0.32669994 4.116319e-05 0)
(0.32658224 3.8073939e-05 0)
(0.32647397 3.5280303e-05 0)
(0.32637406 3.2745275e-05 0)
(0.32628164 3.0449796e-05 0)
(0.32619595 2.836481e-05 0)
(0.32611634 2.6457239e-05 0)
(0.32604224 2.4699997e-05 0)
(0.32597319 2.3074821e-05 0)
(0.32590877 2.1569417e-05 0)
(0.32584862 2.0174061e-05 0)
(0.32579239 1.8879605e-05 0)
(0.32573981 1.7677344e-05 0)
(0.3256906 1.6559132e-05 0)
(0.32564452 1.5517798e-05 0)
(0.32560135 1.4546909e-05 0)
(0.3255609 1.364085e-05 0)
(0.32552297 1.2794452e-05 0)
(0.32548741 1.2003161e-05 0)
(0.32545405 1.1262729e-05 0)
(0.32542275 1.0569445e-05 0)
(0.32539339 9.9198134e-06 0)
(0.32536584 9.3108024e-06 0)
(0.32533998 8.7395142e-06 0)
(0.32531571 8.2034473e-06 0)
(0.32529293 7.7001635e-06 0)
(0.32527155 7.2275765e-06 0)
(0.32525149 6.7836184e-06 0)
(0.32523266 6.3665359e-06 0)
(0.32521499 5.9745519e-06 0)
(0.32519841 5.6061784e-06 0)
(0.32518286 5.2598789e-06 0)
(0.32516826 4.9343832e-06 0)
(0.32515457 4.6283456e-06 0)
(0.32514174 4.340673e-06 0)
(0.3251297 4.0701841e-06 0)
(0.32511841 3.8159355e-06 0)
(0.32510783 3.5768783e-06 0)
(0.32509791 3.3521939e-06 0)
(0.32508862 3.1409525e-06 0)
(0.32507991 2.9424444e-06 0)
(0.32507175 2.7558367e-06 0)
(0.32506411 2.5805123e-06 0)
(0.32505696 2.4157287e-06 0)
(0.32505027 2.2609512e-06 0)
(0.325044 2.1155109e-06 0)
(0.32503814 1.9789434e-06 0)
(0.32503266 1.8506499e-06 0)
(0.32502753 1.7302297e-06 0)
(0.32502274 1.6171398e-06 0)
(0.32501826 1.5110332e-06 0)
(0.32501408 1.4114218e-06 0)
(0.32501017 1.3180074e-06 0)
(0.32500652 1.2303443e-06 0)
(0.32500311 1.1481757e-06 0)
(0.32499993 1.0710981e-06 0)
(0.32499697 9.9889376e-07 0)
(0.3249942 9.3119038e-07 0)
(0.32499162 8.6780331e-07 0)
(0.32498922 8.0839251e-07 0)
(0.32498699 7.5280665e-07 0)
(0.3249849 7.0072633e-07 0)
(0.32498297 6.520314e-07 0)
(0.32498116 6.0642223e-07 0)
(0.32497948 5.6381455e-07 0)
(0.32497793 5.2391294e-07 0)
(0.32497648 4.8667421e-07 0)
(0.32497513 4.5179795e-07 0)
(0.32497388 4.192988e-07 0)
(0.32497272 3.8884131e-07 0)
(0.32497165 3.6052289e-07 0)
(0.32497065 3.3393971e-07 0)
(0.32496973 3.0931934e-07 0)
(0.32496888 2.8612318e-07 0)
(0.32496808 2.647775e-07 0)
(0.32496735 2.4452952e-07 0)
(0.32496668 2.2609779e-07 0)
(0.32496605 2.0842042e-07 0)
(0.32496548 1.9257225e-07 0)
(0.32496495 1.7719608e-07 0)
(0.32496446 1.6355086e-07 0)
(0.324964 1.5054225e-07 0)
(0.3249636 1.386563e-07 0)
(0.32496319 1.2967987e-07 0)
(0.32496289 1.2056828e-07 0)
(0.32496243 1.3020051e-07 0)
(0.83625701 0.00014236545 0)
(0.83651205 0.00065143204 0)
(0.83613995 0.00094748069 0)
(0.83559838 0.00096145631 0)
(0.83510686 0.00082904438 0)
(0.83468681 0.00068141568 0)
(0.83430298 0.00057159054 0)
(0.83393415 0.00049695738 0)
(0.83357965 0.00044022871 0)
(0.83324615 0.00039068175 0)
(0.83293805 0.00034606521 0)
(0.83265548 0.00030744667 0)
(0.83239608 0.00027536091 0)
(0.83215705 0.00024899744 0)
(0.83193607 0.00022694796 0)
(0.8317314 0.00020798495 0)
(0.8315416 0.00019132634 0)
(0.83136538 0.00017653232 0)
(0.83120154 0.00016332259 0)
(0.83104899 0.00015146772 0)
(0.83090675 0.00014076195 0)
(0.83077398 0.0001310304 0)
(0.83064991 0.00012213486 0)
(0.8305339 0.00011396926 0)
(0.83042534 0.00010645013 0)
(0.83032368 9.95085e-05 0)
(0.83022845 9.3085336e-05 0)
(0.83013919 8.7129496e-05 0)
(0.83005549 8.1596722e-05 0)
(0.82997699 7.6448628e-05 0)
(0.82990335 7.1651795e-05 0)
(0.82983424 6.7176768e-05 0)
(0.82976937 6.2997474e-05 0)
(0.82970849 5.9090596e-05 0)
(0.82965133 5.5435303e-05 0)
(0.82959767 5.2012803e-05 0)
(0.82954729 4.8806197e-05 0)
(0.82949998 4.5800116e-05 0)
(0.82945557 4.2980657e-05 0)
(0.82941387 4.0335061e-05 0)
(0.82937472 3.7851725e-05 0)
(0.82933797 3.5519934e-05 0)
(0.82930348 3.3329905e-05 0)
(0.8292711 3.1272536e-05 0)
(0.82924071 2.9339486e-05 0)
(0.82921219 2.7522958e-05 0)
(0.82918544 2.5815791e-05 0)
(0.82916034 2.4211243e-05 0)
(0.82913679 2.2703112e-05 0)
(0.82911471 2.1285537e-05 0)
(0.82909401 1.9953122e-05 0)
(0.8290746 1.8700737e-05 0)
(0.82905641 1.7523657e-05 0)
(0.82903936 1.6417376e-05 0)
(0.82902338 1.5377751e-05 0)
(0.82900842 1.4400807e-05 0)
(0.82899441 1.3482892e-05 0)
(0.82898129 1.2620493e-05 0)
(0.82896901 1.1810396e-05 0)
(0.82895751 1.1049486e-05 0)
(0.82894676 1.0334919e-05 0)
(0.8289367 9.6639367e-06 0)
(0.8289273 9.0340277e-06 0)
(0.82891851 8.4427394e-06 0)
(0.82891029 7.8878457e-06 0)
(0.82890261 7.3671689e-06 0)
(0.82889544 6.8787429e-06 0)
(0.82888875 6.4206244e-06 0)
(0.8288825 5.9910694e-06 0)
(0.82887667 5.5883467e-06 0)
(0.82887123 5.2109192e-06 0)
(0.82886616 4.8572336e-06 0)
(0.82886143 4.5259311e-06 0)
(0.82885703 4.2156179e-06 0)
(0.82885292 3.9251093e-06 0)
(0.8288491 3.6531364e-06 0)
(0.82884555 3.3986749e-06 0)
(0.82884224 3.1605555e-06 0)
(0.82883917 2.9379304e-06 0)
(0.82883631 2.7296788e-06 0)
(0.82883365 2.5351485e-06 0)
(0.82883118 2.3532068e-06 0)
(0.82882889 2.1834673e-06 0)
(0.82882677 2.0246693e-06 0)
(0.8288248 1.8768036e-06 0)
(0.82882297 1.7383058e-06 0)
(0.82882128 1.6097705e-06 0)
(0.82881972 1.4890164e-06 0)
(0.82881827 1.3776114e-06 0)
(0.82881693 1.2722595e-06 0)
(0.82881569 1.1761389e-06 0)
(0.82881454 1.0840237e-06 0)
(0.82881349 1.001704e-06 0)
(0.82881251 9.2076668e-07 0)
(0.82881162 8.5121543e-07 0)
(0.82881078 7.7961418e-07 0)
(0.82881006 7.2288588e-07 0)
(0.82880927 6.6017761e-07 0)
(0.82880881 6.2049781e-07 0)
(0.82880789 5.7648854e-07 0)
(1.1981676 0.00011320451 0)
(1.1988897 0.00060039003 0)
(1.1989071 0.00096718513 0)
(1.1987441 0.0010850698 0)
(1.1986612 0.0010308512 0)
(1.1986627 0.00092373217 0)
(1.1986747 0.00083098326 0)
(1.1986526 0.00076367804 0)
(1.1985944 0.00070938722 0)
(1.1985159 0.00065743569 0)
(1.1984312 0.00060553685 0)
(1.1983462 0.00055599586 0)
(1.1982619 0.00051108458 0)
(1.1981779 0.00047134018 0)
(1.1980945 0.00043607436 0)
(1.1980124 0.00040434905 0)
(1.1979325 0.00037549172 0)
(1.1978554 0.00034912417 0)
(1.1977813 0.00032500896 0)
(1.1977102 0.00030293345 0)
(1.1976423 0.00028267966 0)
(1.1975775 0.00026403989 0)
(1.1975158 0.00024683389 0)
(1.1974571 0.00023091245 0)
(1.1974014 0.00021615126 0)
(1.1973486 0.00020244346 0)
(1.1972985 0.0001896948 0)
(1.1972511 0.00017782152 0)
(1.1972063 0.00016674924 0)
(1.1971639 0.00015641208 0)
(1.1971238 0.00014675149 0)
(1.197086 0.0001377152 0)
(1.1970504 0.00012925616 0)
(1.1970167 0.00012133202 0)
(1.196985 0.00011390431 0)
(1.196955 0.00010693818 0)
(1.1969268 0.0001004018 0)
(1.1969003 9.4266166e-05 0)
(1.1968753 8.8504616e-05 0)
(1.1968517 8.309273e-05 0)
(1.1968296 7.8007938e-05 0)
(1.1968087 7.3229476e-05 0)
(1.1967891 6.8738059e-05 0)
(1.1967707 6.4515881e-05 0)
(1.1967534 6.054633e-05 0)
(1.1967371 5.6814026e-05 0)
(1.1967218 5.3304567e-05 0)
(1.1967074 5.0004585e-05 0)
(1.1966939 4.6901515e-05 0)
(1.1966812 4.3983679e-05 0)
(1.1966693 4.1240069e-05 0)
(1.1966581 3.866044e-05 0)
(1.1966477 3.6235103e-05 0)
(1.1966378 3.3955041e-05 0)
(1.1966286 3.1811708e-05 0)
(1.19662 2.9797145e-05 0)
(1.1966119 2.790379e-05 0)
(1.1966043 2.6124606e-05 0)
(1.1965972 2.4452897e-05 0)
(1.1965905 2.2882429e-05 0)
(1.1965843 2.1407259e-05 0)
(1.1965784 2.0021863e-05 0)
(1.196573 1.8720965e-05 0)
(1.1965678 1.7499664e-05 0)
(1.1965631 1.6353268e-05 0)
(1.1965586 1.5277427e-05 0)
(1.1965544 1.4267974e-05 0)
(1.1965505 1.3321041e-05 0)
(1.1965469 1.2432921e-05 0)
(1.1965435 1.1600176e-05 0)
(1.1965403 1.0819516e-05 0)
(1.1965373 1.0087871e-05 0)
(1.1965345 9.4023279e-06 0)
(1.196532 8.7601377e-06 0)
(1.1965296 8.1587404e-06 0)
(1.1965273 7.5956471e-06 0)
(1.1965252 7.0686374e-06 0)
(1.1965233 6.5754179e-06 0)
(1.1965215 6.1141328e-06 0)
(1.1965198 5.6825805e-06 0)
(1.1965182 5.2793324e-06 0)
(1.1965168 4.9021265e-06 0)
(1.1965154 4.5501238e-06 0)
(1.1965141 4.2207249e-06 0)
(1.196513 3.9139947e-06 0)
(1.1965119 3.6265111e-06 0)
(1.1965109 3.3598747e-06 0)
(1.19651 3.1089272e-06 0)
(1.1965091 2.8780105e-06 0)
(1.1965083 2.6585249e-06 0)
(1.1965076 2.4598845e-06 0)
(1.1965069 2.2667935e-06 0)
(1.1965062 2.0982045e-06 0)
(1.1965057 1.9259109e-06 0)
(1.1965051 1.7870794e-06 0)
(1.1965046 1.6289168e-06 0)
(1.1965042 1.5232204e-06 0)
(1.1965037 1.3714345e-06 0)
(1.1965034 1.3090661e-06 0)
(1.1965029 1.1587187e-06 0)
(1.4307183 7.0985578e-05 0)
(1.4317386 0.00040619476 0)
(1.4319936 0.00068725013 0)
(1.4320646 0.00080484525 0)
(1.432263 0.00079242265 0)
(1.432595 0.00073069146 0)
(1.4329567 0.0006728563 0)
(1.4332754 0.00063167285 0)
(1.4335374 0.00059936079 0)
(1.4337595 0.00056741228 0)
(1.4339592 0.00053346846 0)
(1.4341445 0.0004992667 0)
(1.4343164 0.00046696691 0)
(1.4344739 0.00043745122 0)
(1.4346175 0.00041051328 0)
(1.4347484 0.00038561601 0)
(1.4348684 0.00036236334 0)
(1.4349789 0.00034057116 0)
(1.435081 0.00032015956 0)
(1.4351753 0.00030105682 0)
(1.4352626 0.00028317076 0)
(1.4353435 0.0002664009 0)
(1.4354185 0.00025065531 0)
(1.4354882 0.00023585687 0)
(1.435553 0.00022194064 0)
(1.4356133 0.0002088494 0)
(1.4356695 0.00019653048 0)
(1.4357219 0.000184935 0)
(1.4357709 0.00017401752 0)
(1.4358166 0.0001637363 0)
(1.4358592 0.00015405264 0)
(1.4358992 0.00014493083 0)
(1.4359365 0.00013633744 0)
(1.4359714 0.00012824145 0)
(1.4360041 0.00012061362 0)
(1.4360347 0.00011342678 0)
(1.4360634 0.00010665526 0)
(1.4360903 0.00010027523 0)
(1.4361155 9.4264035e-05 0)
(1.4361391 8.8600672e-05 0)
(1.4361612 8.3265129e-05 0)
(1.4361819 7.8238829e-05 0)
(1.4362013 7.350404e-05 0)
(1.4362196 6.9044312e-05 0)
(1.4362366 6.4843899e-05 0)
(1.4362526 6.0888215e-05 0)
(1.4362676 5.716325e-05 0)
(1.4362817 5.3656054e-05 0)
(1.4362949 5.035415e-05 0)
(1.4363072 4.7246026e-05 0)
(1.4363188 4.4320558e-05 0)
(1.4363296 4.1567507e-05 0)
(1.4363398 3.8976946e-05 0)
(1.4363493 3.6539767e-05 0)
(1.4363582 3.4247104e-05 0)
(1.4363666 3.2090851e-05 0)
(1.4363744 3.0063091e-05 0)
(1.4363817 2.8156611e-05 0)
(1.4363885 2.6364336e-05 0)
(1.4363949 2.4679849e-05 0)
(1.4364009 2.3096829e-05 0)
(1.4364065 2.1609568e-05 0)
(1.4364117 2.0212417e-05 0)
(1.4364166 1.8900301e-05 0)
(1.4364211 1.7668171e-05 0)
(1.4364254 1.6511518e-05 0)
(1.4364294 1.5425828e-05 0)
(1.4364331 1.4407093e-05 0)
(1.4364365 1.3451283e-05 0)
(1.4364398 1.2554832e-05 0)
(1.4364428 1.1714146e-05 0)
(1.4364456 1.0926045e-05 0)
(1.4364482 1.0187338e-05 0)
(1.4364506 9.4951743e-06 0)
(1.4364529 8.8467415e-06 0)
(1.436455 8.2394548e-06 0)
(1.436457 7.6708817e-06 0)
(1.4364588 7.138618e-06 0)
(1.4364605 6.6406494e-06 0)
(1.4364621 6.1746219e-06 0)
(1.4364635 5.7390518e-06 0)
(1.4364649 5.3314137e-06 0)
(1.4364661 4.9509975e-06 0)
(1.4364673 4.5947059e-06 0)
(1.4364684 4.263105e-06 0)
(1.4364694 3.9517761e-06 0)
(1.4364703 3.6635491e-06 0)
(1.4364712 3.391265e-06 0)
(1.436472 3.1419293e-06 0)
(1.4364727 2.9029709e-06 0)
(1.4364734 2.6891945e-06 0)
(1.436474 2.4776365e-06 0)
(1.4364746 2.2975964e-06 0)
(1.4364752 2.1067221e-06 0)
(1.4364756 1.9608642e-06 0)
(1.4364761 1.7827249e-06 0)
(1.4364764 1.6750708e-06 0)
(1.436477 1.5003012e-06 0)
(1.4364771 1.4393715e-06 0)
(1.4364777 1.2582771e-06 0)
(1.5442436 2.4044185e-05 0)
(1.54541 0.0001420996 0)
(1.5457738 0.0002454686 0)
(1.5459471 0.00029268879 0)
(1.5462724 0.00029208077 0)
(1.5467628 0.00027184815 0)
(1.547301 0.00025206054 0)
(1.5477986 0.00023823192 0)
(1.5482343 0.00022776265 0)
(1.5486242 0.00021737965 0)
(1.5489878 0.0002060429 0)
(1.5493338 0.00019434666 0)
(1.5496627 0.00018313335 0)
(1.5499728 0.00017278751 0)
(1.5502638 0.00016326619 0)
(1.5505367 0.00015438209 0)
(1.5507933 0.00014599384 0)
(1.551035 0.00013804136 0)
(1.5512628 0.00013050673 0)
(1.5514775 0.00012337612 0)
(1.5516798 0.00011662717 0)
(1.5518705 0.00011023306 0)
(1.5520501 0.00010416905 0)
(1.5522193 9.8415065e-05 0)
(1.5523788 9.2954911e-05 0)
(1.552529 8.7774488e-05 0)
(1.5526706 8.2860657e-05 0)
(1.5528039 7.8200856e-05 0)
(1.5529295 7.3783134e-05 0)
(1.5530478 6.9596153e-05 0)
(1.5531592 6.5629153e-05 0)
(1.553264 6.1871885e-05 0)
(1.5533627 5.8314506e-05 0)
(1.5534557 5.4947554e-05 0)
(1.5535431 5.1761909e-05 0)
(1.5536254 4.8748815e-05 0)
(1.5537028 4.5899835e-05 0)
(1.5537756 4.3206881e-05 0)
(1.5538441 4.0662173e-05 0)
(1.5539085 3.8258266e-05 0)
(1.553969 3.5988009e-05 0)
(1.5540259 3.3844569e-05 0)
(1.5540794 3.1821392e-05 0)
(1.5541296 2.9912239e-05 0)
(1.5541768 2.8111128e-05 0)
(1.5542212 2.641237e-05 0)
(1.5542628 2.4810521e-05 0)
(1.5543019 2.3300418e-05 0)
(1.5543386 2.1877123e-05 0)
(1.554373 2.0535954e-05 0)
(1.5544053 1.927244e-05 0)
(1.5544356 1.8082356e-05 0)
(1.5544641 1.6961664e-05 0)
(1.5544907 1.5906552e-05 0)
(1.5545157 1.4913378e-05 0)
(1.5545391 1.3978718e-05 0)
(1.5545611 1.3099297e-05 0)
(1.5545816 1.2272034e-05 0)
(1.5546009 1.1493987e-05 0)
(1.5546189 1.0762398e-05 0)
(1.5546358 1.0074629e-05 0)
(1.5546516 9.4282056e-06 0)
(1.5546663 8.8207629e-06 0)
(1.5546801 8.2500907e-06 0)
(1.554693 7.7140745e-06 0)
(1.5547051 7.2107326e-06 0)
(1.5547164 6.7381731e-06 0)
(1.5547269 6.2946284e-06 0)
(1.5547368 5.8784108e-06 0)
(1.554746 5.4879336e-06 0)
(1.5547545 5.1216929e-06 0)
(1.5547625 4.7782693e-06 0)
(1.55477 4.456332e-06 0)
(1.5547769 4.1545952e-06 0)
(1.5547834 3.8718919e-06 0)
(1.5547894 3.6070497e-06 0)
(1.5547951 3.3590731e-06 0)
(1.5548003 3.1268523e-06 0)
(1.5548052 2.9095851e-06 0)
(1.5548097 2.7061678e-06 0)
(1.5548139 2.5160574e-06 0)
(1.5548178 2.338031e-06 0)
(1.5548214 2.1719356e-06 0)
(1.5548248 2.0162269e-06 0)
(1.5548279 1.8714152e-06 0)
(1.5548308 1.7352275e-06 0)
(1.5548335 1.6093597e-06 0)
(1.554836 1.4900786e-06 0)
(1.5548383 1.3812645e-06 0)
(1.5548405 1.2763417e-06 0)
(1.5548424 1.1832007e-06 0)
(1.5548443 1.0899536e-06 0)
(1.5548459 1.0117712e-06 0)
(1.5548475 9.2718078e-07 0)
(1.5548488 8.6425877e-07 0)
(1.5548504 7.8490021e-07 0)
(1.5548513 7.3896259e-07 0)
(1.5548528 6.6071683e-07 0)
(1.5548534 6.347434e-07 0)
(1.554855 5.5275914e-07 0)
(1.5442434 -2.4043138e-05 0)
(1.5454099 -0.00014209624 0)
(1.5457738 -0.00024546902 0)
(1.545947 -0.00029269254 0)
(1.5462723 -0.00029208155 0)
(1.5467627 -0.00027183849 0)
(1.547301 -0.00025203941 0)
(1.5477986 -0.00023820239 0)
(1.5482343 -0.00022772914 0)
(1.5486242 -0.00021734432 0)
(1.5489878 -0.00020600669 0)
(1.5493338 -0.00019430974 0)
(1.5496627 -0.00018309638 0)
(1.5499728 -0.00017275124 0)
(1.5502638 -0.00016323149 0)
(1.5505368 -0.00015434955 0)
(1.5507934 -0.0001459639 0)
(1.551035 -0.00013801427 0)
(1.5512628 -0.00013048267 0)
(1.5514775 -0.00012335518 0)
(1.5516799 -0.00011660934 0)
(1.5518705 -0.00011021835 0)
(1.5520501 -0.00010415726 0)
(1.5522193 -9.8406117e-05 0)
(1.5523788 -9.2948528e-05 0)
(1.552529 -8.7770558e-05 0)
(1.5526706 -8.285885e-05 0)
(1.5528039 -7.8201051e-05 0)
(1.5529295 -7.3784959e-05 0)
(1.5530478 -6.9599496e-05 0)
(1.5531592 -6.5633679e-05 0)
(1.553264 -6.1877535e-05 0)
(1.5533627 -5.8320972e-05 0)
(1.5534557 -5.495483e-05 0)
(1.5535431 -5.1769722e-05 0)
(1.5536254 -4.8757198e-05 0)
(1.5537028 -4.5908543e-05 0)
(1.5537756 -4.3215992e-05 0)
(1.5538441 -4.0671466e-05 0)
(1.5539085 -3.8267837e-05 0)
(1.553969 -3.5997645e-05 0)
(1.5540259 -3.3854386e-05 0)
(1.5540794 -3.1831186e-05 0)
(1.5541296 -2.9922128e-05 0)
(1.5541768 -2.8120904e-05 0)
(1.5542212 -2.6422164e-05 0)
(1.5542628 -2.4820134e-05 0)
(1.5543019 -2.3309982e-05 0)
(1.5543386 -2.188644e-05 0)
(1.554373 -2.0545174e-05 0)
(1.5544053 -1.9281378e-05 0)
(1.5544356 -1.8091165e-05 0)
(1.5544641 -1.6970166e-05 0)
(1.5544907 -1.5914917e-05 0)
(1.5545157 -1.4921439e-05 0)
(1.5545391 -1.3986644e-05 0)
(1.5545611 -1.3106922e-05 0)
(1.5545816 -1.2279535e-05 0)
(1.5546009 -1.1501202e-05 0)
(1.5546189 -1.0769494e-05 0)
(1.5546358 -1.0081436e-05 0)
(1.5546515 -9.434892e-06 0)
(1.5546663 -8.8271569e-06 0)
(1.5546801 -8.2563466e-06 0)
(1.554693 -7.7200107e-06 0)
(1.5547051 -7.2165048e-06 0)
(1.5547164 -6.743601e-06 0)
(1.5547269 -6.2998575e-06 0)
(1.5547368 -5.8832565e-06 0)
(1.5547459 -5.4925493e-06 0)
(1.5547545 -5.1259019e-06 0)
(1.5547625 -4.7822221e-06 0)
(1.55477 -4.4598545e-06 0)
(1.5547769 -4.1578519e-06 0)
(1.5547834 -3.8747216e-06 0)
(1.5547894 -3.6096181e-06 0)
(1.554795 -3.3612235e-06 0)
(1.5548003 -3.128766e-06 0)
(1.5548051 -2.9111176e-06 0)
(1.5548097 -2.7075011e-06 0)
(1.5548139 -2.5170481e-06 0)
(1.5548178 -2.3388747e-06 0)
(1.5548214 -2.1724967e-06 0)
(1.5548248 -2.0166996e-06 0)
(1.5548279 -1.8716591e-06 0)
(1.5548308 -1.7354506e-06 0)
(1.5548335 -1.6094244e-06 0)
(1.554836 -1.4901919e-06 0)
(1.5548383 -1.3812776e-06 0)
(1.5548404 -1.2764755e-06 0)
(1.5548424 -1.1833202e-06 0)
(1.5548443 -1.0903028e-06 0)
(1.5548459 -1.0122402e-06 0)
(1.5548475 -9.2798258e-07 0)
(1.5548488 -8.6524082e-07 0)
(1.5548503 -7.8603921e-07 0)
(1.5548513 -7.4026383e-07 0)
(1.5548528 -6.6196901e-07 0)
(1.5548533 -6.366092e-07 0)
(1.554855 -5.553897e-07 0)
(1.4307183 -7.098597e-05 0)
(1.4317386 -0.0004062042 0)
(1.4319936 -0.00068726812 0)
(1.4320646 -0.00080486572 0)
(1.432263 -0.00079243786 0)
(1.432595 -0.00073069722 0)
(1.4329566 -0.00067285206 0)
(1.4332754 -0.00063166099 0)
(1.4335374 -0.00059934355 0)
(1.4337595 -0.00056739135 0)
(1.4339592 -0.00053344461 0)
(1.4341445 -0.00049924078 0)
(1.4343164 -0.00046693973 0)
(1.434474 -0.00043742377 0)
(1.4346175 -0.00041048638 0)
(1.4347484 -0.00038559035 0)
(1.4348685 -0.00036233942 0)
(1.434979 -0.00034054933 0)
(1.435081 -0.00032014006 0)
(1.4351754 -0.00030103978 0)
(1.4352627 -0.00028315627 0)
(1.4353435 -0.00026638892 0)
(1.4354185 -0.0002506458 0)
(1.4354882 -0.00023584965 0)
(1.435553 -0.00022193563 0)
(1.4356134 -0.00020884635 0)
(1.4356696 -0.00019652926 0)
(1.435722 -0.00018493534 0)
(1.4357709 -0.00017401931 0)
(1.4358166 -0.00016373927 0)
(1.4358593 -0.0001540567 0)
(1.4358992 -0.00014493571 0)
(1.4359365 -0.00013634311 0)
(1.4359715 -0.00012824767 0)
(1.4360042 -0.00012062037 0)
(1.4360348 -0.00011343386 0)
(1.4360635 -0.00010666271 0)
(1.4360903 -0.00010028286 0)
(1.4361155 -9.4271915e-05 0)
(1.4361391 -8.8608628e-05 0)
(1.4361612 -8.327324e-05 0)
(1.4361819 -7.8246939e-05 0)
(1.4362014 -7.351223e-05 0)
(1.4362196 -6.9052426e-05 0)
(1.4362366 -6.4852029e-05 0)
(1.4362526 -6.0896209e-05 0)
(1.4362677 -5.7171203e-05 0)
(1.4362817 -5.3663814e-05 0)
(1.4362949 -5.0361821e-05 0)
(1.4363072 -4.7253471e-05 0)
(1.4363188 -4.4327884e-05 0)
(1.4363296 -4.157458e-05 0)
(1.4363398 -3.8983888e-05 0)
(1.4363493 -3.6546454e-05 0)
(1.4363582 -3.4253661e-05 0)
(1.4363665 -3.2097156e-05 0)
(1.4363743 -3.0069275e-05 0)
(1.4363816 -2.8162557e-05 0)
(1.4363885 -2.6370171e-05 0)
(1.4363949 -2.468545e-05 0)
(1.4364008 -2.3102321e-05 0)
(1.4364064 -2.1614829e-05 0)
(1.4364117 -2.0217563e-05 0)
(1.4364165 -1.8905198e-05 0)
(1.4364211 -1.7672935e-05 0)
(1.4364253 -1.6516015e-05 0)
(1.4364293 -1.5430167e-05 0)
(1.436433 -1.4411133e-05 0)
(1.4364365 -1.3455135e-05 0)
(1.4364397 -1.2558364e-05 0)
(1.4364427 -1.1717467e-05 0)
(1.4364455 -1.0929022e-05 0)
(1.4364481 -1.0190089e-05 0)
(1.4364506 -9.4975797e-06 0)
(1.4364529 -8.8489207e-06 0)
(1.436455 -8.2412906e-06 0)
(1.4364569 -7.6725055e-06 0)
(1.4364587 -7.1399255e-06 0)
(1.4364604 -6.6417739e-06 0)
(1.436462 -6.1754604e-06 0)
(1.4364635 -5.7397471e-06 0)
(1.4364648 -5.3318728e-06 0)
(1.4364661 -4.9513628e-06 0)
(1.4364673 -4.5948816e-06 0)
(1.4364684 -4.2632408e-06 0)
(1.4364694 -3.9517799e-06 0)
(1.4364703 -3.6635682e-06 0)
(1.4364712 -3.3912001e-06 0)
(1.4364719 -3.1419384e-06 0)
(1.4364727 -2.902959e-06 0)
(1.4364733 -2.6893279e-06 0)
(1.436474 -2.4778247e-06 0)
(1.4364745 -2.2980172e-06 0)
(1.4364751 -2.1072846e-06 0)
(1.4364755 -1.9616606e-06 0)
(1.4364761 -1.7836229e-06 0)
(1.4364764 -1.6760837e-06 0)
(1.4364769 -1.5012391e-06 0)
(1.4364771 -1.4405733e-06 0)
(1.4364776 -1.2597367e-06 0)
(1.1981676 -0.00011320435 0)
(1.1988897 -0.00060038215 0)
(1.1989071 -0.00096717281 0)
(1.198744 -0.0010850614 0)
(1.1986612 -0.0010308487 0)
(1.1986627 -0.00092373462 0)
(1.1986747 -0.00083098647 0)
(1.1986526 -0.00076367904 0)
(1.1985944 -0.00070938395 0)
(1.198516 -0.00065742827 0)
(1.1984312 -0.00060552582 0)
(1.1983463 -0.00055598233 0)
(1.198262 -0.00051106927 0)
(1.198178 -0.00047132391 0)
(1.1980946 -0.00043605771 0)
(1.1980125 -0.00040433268 0)
(1.1979326 -0.00037547612 0)
(1.1978555 -0.00034910975 0)
(1.1977813 -0.00032499601 0)
(1.1977103 -0.0003029221 0)
(1.1976424 -0.00028267005 0)
(1.1975776 -0.00026403197 0)
(1.1975159 -0.0002468277 0)
(1.1974572 -0.00023090782 0)
(1.1974015 -0.00021614818 0)
(1.1973486 -0.00020244169 0)
(1.1972986 -0.00018969432 0)
(1.1972512 -0.00017782205 0)
(1.1972063 -0.00016675079 0)
(1.1971639 -0.00015641437 0)
(1.1971239 -0.00014675454 0)
(1.1970861 -0.00013771871 0)
(1.1970504 -0.00012926022 0)
(1.1970167 -0.00012133634 0)
(1.196985 -0.00011390899 0)
(1.1969551 -0.00010694298 0)
(1.1969269 -0.00010040685 0)
(1.1969003 -9.4271227e-05 0)
(1.1968753 -8.8509848e-05 0)
(1.1968518 -8.3097905e-05 0)
(1.1968296 -7.8013238e-05 0)
(1.1968088 -7.3234672e-05 0)
(1.1967892 -6.8743332e-05 0)
(1.1967707 -6.4521005e-05 0)
(1.1967534 -6.0551502e-05 0)
(1.1967371 -5.6819018e-05 0)
(1.1967218 -5.3309569e-05 0)
(1.1967074 -5.0009371e-05 0)
(1.1966939 -4.6906293e-05 0)
(1.1966812 -4.3988225e-05 0)
(1.1966693 -4.1244586e-05 0)
(1.1966581 -3.866471e-05 0)
(1.1966476 -3.6239347e-05 0)
(1.1966378 -3.3959043e-05 0)
(1.1966286 -3.1815683e-05 0)
(1.1966199 -2.9800882e-05 0)
(1.1966118 -2.7907516e-05 0)
(1.1966042 -2.6128109e-05 0)
(1.1965971 -2.4456391e-05 0)
(1.1965905 -2.2885703e-05 0)
(1.1965842 -2.1410535e-05 0)
(1.1965784 -2.0024924e-05 0)
(1.1965729 -1.8724017e-05 0)
(1.1965678 -1.7502489e-05 0)
(1.196563 -1.6356078e-05 0)
(1.1965586 -1.5280001e-05 0)
(1.1965544 -1.4270508e-05 0)
(1.1965505 -1.3323316e-05 0)
(1.1965468 -1.2435144e-05 0)
(1.1965434 -1.1602126e-05 0)
(1.1965402 -1.0821392e-05 0)
(1.1965373 -1.0089459e-05 0)
(1.1965345 -9.4038401e-06 0)
(1.1965319 -8.7613637e-06 0)
(1.1965295 -8.1598849e-06 0)
(1.1965273 -7.5965096e-06 0)
(1.1965252 -7.0694383e-06 0)
(1.1965232 -6.5759593e-06 0)
(1.1965214 -6.1146281e-06 0)
(1.1965197 -5.6828397e-06 0)
(1.1965182 -5.2795831e-06 0)
(1.1965167 -4.9021785e-06 0)
(1.1965153 -4.5501956e-06 0)
(1.1965141 -4.22063e-06 0)
(1.1965129 -3.9139642e-06 0)
(1.1965118 -3.6263536e-06 0)
(1.1965108 -3.3598152e-06 0)
(1.1965099 -3.1087729e-06 0)
(1.196509 -2.8780038e-06 0)
(1.1965082 -2.6584635e-06 0)
(1.1965075 -2.460013e-06 0)
(1.1965068 -2.2668881e-06 0)
(1.1965062 -2.098519e-06 0)
(1.1965056 -1.9262113e-06 0)
(1.1965051 -1.7875699e-06 0)
(1.1965046 -1.6294771e-06 0)
(1.1965041 -1.5237842e-06 0)
(1.1965036 -1.3719505e-06 0)
(1.1965034 -1.3093511e-06 0)
(1.1965028 -1.1586384e-06 0)
(0.83625706 -0.00014236124 0)
(0.83651211 -0.00065141553 0)
(0.83614 -0.00094745986 0)
(0.83559843 -0.00096144304 0)
(0.83510692 -0.00082904723 0)
(0.83468687 -0.000681434 0)
(0.83430304 -0.00057161702 0)
(0.8339342 -0.00049698311 0)
(0.83357969 -0.00044024858 0)
(0.83324618 -0.00039069464 0)
(0.83293808 -0.00034607256 0)
(0.83265551 -0.00030745001 0)
(0.83239611 -0.00027536143 0)
(0.83215709 -0.00024899583 0)
(0.83193611 -0.00022694488 0)
(0.83173144 -0.00020798101 0)
(0.83154164 -0.00019132211 0)
(0.83136543 -0.00017652825 0)
(0.83120159 -0.00016331893 0)
(0.83104905 -0.00015146468 0)
(0.83090681 -0.00014075956 0)
(0.83077403 -0.00013102873 0)
(0.83064997 -0.00012213384 0)
(0.83053396 -0.00011396893 0)
(0.8304254 -0.00010645035 0)
(0.83032374 -9.9509281e-05 0)
(0.83022851 -9.3086521e-05 0)
(0.83013924 -8.7131108e-05 0)
(0.83005555 -8.1598597e-05 0)
(0.82997705 -7.6450798e-05 0)
(0.8299034 -7.1654091e-05 0)
(0.82983428 -6.7179247e-05 0)
(0.82976942 -6.2999978e-05 0)
(0.82970853 -5.9093196e-05 0)
(0.82965137 -5.5437853e-05 0)
(0.82959771 -5.2015403e-05 0)
(0.82954732 -4.8808711e-05 0)
(0.82950001 -4.5802651e-05 0)
(0.8294556 -4.2983079e-05 0)
(0.8294139 -4.0337497e-05 0)
(0.82937474 -3.7854046e-05 0)
(0.82933799 -3.5522261e-05 0)
(0.82930349 -3.3332105e-05 0)
(0.82927111 -3.1274741e-05 0)
(0.82924072 -2.9341564e-05 0)
(0.8292122 -2.7525032e-05 0)
(0.82918544 -2.5817725e-05 0)
(0.82916034 -2.4213171e-05 0)
(0.82913679 -2.2704901e-05 0)
(0.82911471 -2.1287313e-05 0)
(0.829094 -1.9954751e-05 0)
(0.82907459 -1.8702357e-05 0)
(0.8290564 -1.7525139e-05 0)
(0.82903935 -1.6418851e-05 0)
(0.82902337 -1.5379091e-05 0)
(0.82900841 -1.4402154e-05 0)
(0.82899439 -1.3484119e-05 0)
(0.82898127 -1.2621734e-05 0)
(0.82896899 -1.1811521e-05 0)
(0.82895749 -1.1050635e-05 0)
(0.82894674 -1.0335964e-05 0)
(0.82893668 -9.665004e-06 0)
(0.82892727 -9.0349847e-06 0)
(0.82891848 -8.4437198e-06 0)
(0.82891026 -7.8887169e-06 0)
(0.82890258 -7.3680512e-06 0)
(0.82889541 -6.8795011e-06 0)
(0.82888871 -6.4213876e-06 0)
(0.82888246 -5.9917049e-06 0)
(0.82887663 -5.5889736e-06 0)
(0.82887119 -5.2114048e-06 0)
(0.82886612 -4.8577087e-06 0)
(0.82886139 -4.5262682e-06 0)
(0.82885699 -4.2159396e-06 0)
(0.82885288 -3.9252902e-06 0)
(0.82884906 -3.6533118e-06 0)
(0.82884551 -3.3987249e-06 0)
(0.8288422 -3.1606072e-06 0)
(0.82883912 -2.9378654e-06 0)
(0.82883627 -2.7296356e-06 0)
(0.82883361 -2.5350127e-06 0)
(0.82883114 -2.3531066e-06 0)
(0.82882885 -2.1832882e-06 0)
(0.82882673 -2.0245485e-06 0)
(0.82882476 -1.8766298e-06 0)
(0.82882293 -1.7382042e-06 0)
(0.82882124 -1.6096297e-06 0)
(0.82881968 -1.4889682e-06 0)
(0.82881822 -1.3775499e-06 0)
(0.82881689 -1.2723025e-06 0)
(0.82881565 -1.1761717e-06 0)
(0.8288145 -1.0841445e-06 0)
(0.82881345 -1.0017773e-06 0)
(0.82881247 -9.2086164e-07 0)
(0.82881158 -8.5131357e-07 0)
(0.82881074 -7.7976952e-07 0)
(0.82881002 -7.2294278e-07 0)
(0.82880923 -6.602774e-07 0)
(0.82880877 -6.200203e-07 0)
(0.82880785 -5.7546332e-07 0)
(0.33120555 -0.00013113246 0)
(0.33092575 -0.00039945924 0)
(0.33028605 -0.00045564966 0)
(0.32961741 -0.0003620714 0)
(0.32905991 -0.00024369729 0)
(0.32862359 -0.00016304489 0)
(0.32827467 -0.00012161582 0)
(0.32798144 -0.00010060984 0)
(0.32772608 -8.6187971e-05 0)
(0.32750097 -7.3680509e-05 0)
(0.32730226 -6.3078824e-05 0)
(0.32712644 -5.4947631e-05 0)
(0.32696967 -4.9063826e-05 0)
(0.32682842 -4.469674e-05 0)
(0.32669993 -4.1164159e-05 0)
(0.32658224 -3.8074552e-05 0)
(0.32647397 -3.5280795e-05 0)
(0.32637407 -3.2745791e-05 0)
(0.32628165 -3.045038e-05 0)
(0.32619596 -2.8365513e-05 0)
(0.32611635 -2.6458005e-05 0)
(0.32604226 -2.4700882e-05 0)
(0.32597321 -2.3075741e-05 0)
(0.32590879 -2.1570442e-05 0)
(0.32584864 -2.0175075e-05 0)
(0.32579241 -1.8880695e-05 0)
(0.32573983 -1.7678384e-05 0)
(0.32569062 -1.656023e-05 0)
(0.32564454 -1.5518811e-05 0)
(0.32560137 -1.4547959e-05 0)
(0.32556092 -1.3641793e-05 0)
(0.32552299 -1.2795424e-05 0)
(0.32548742 -1.2004005e-05 0)
(0.32545406 -1.1263594e-05 0)
(0.32542277 -1.0570178e-05 0)
(0.3253934 -9.9205768e-06 0)
(0.32536585 -9.3114305e-06 0)
(0.32533999 -8.740175e-06 0)
(0.32531572 -8.2039807e-06 0)
(0.32529294 -7.7007445e-06 0)
(0.32527156 -7.2280321e-06 0)
(0.32525149 -6.7841247e-06 0)
(0.32523266 -6.3669245e-06 0)
(0.32521499 -5.9750021e-06 0)
(0.32519841 -5.6065092e-06 0)
(0.32518286 -5.2602688e-06 0)
(0.32516826 -4.9346574e-06 0)
(0.32515457 -4.6286857e-06 0)
(0.32514173 -4.340894e-06 0)
(0.32512969 -4.070467e-06 0)
(0.32511841 -3.8161043e-06 0)
(0.32510782 -3.5771174e-06 0)
(0.32509791 -3.3523189e-06 0)
(0.32508861 -3.1411467e-06 0)
(0.3250799 -2.9425328e-06 0)
(0.32507175 -2.7560052e-06 0)
(0.32506411 -2.5805772e-06 0)
(0.32505695 -2.415873e-06 0)
(0.32505026 -2.261e-06 0)
(0.32504399 -2.1156479e-06 0)
(0.32503813 -1.9789845e-06 0)
(0.32503265 -1.8507748e-06 0)
(0.32502752 -1.7302625e-06 0)
(0.32502273 -1.6172603e-06 0)
(0.32501825 -1.5110568e-06 0)
(0.32501406 -1.4115246e-06 0)
(0.32501015 -1.3180139e-06 0)
(0.3250065 -1.2304315e-06 0)
(0.3250031 -1.1481605e-06 0)
(0.32499992 -1.071155e-06 0)
(0.32499695 -9.988497e-07 0)
(0.32499419 -9.312217e-07 0)
(0.32499161 -8.6773052e-07 0)
(0.32498921 -8.0839003e-07 0)
(0.32498697 -7.5270545e-07 0)
(0.32498489 -7.0070292e-07 0)
(0.32498295 -6.5191015e-07 0)
(0.32498115 -6.0637754e-07 0)
(0.32497947 -5.6368069e-07 0)
(0.32497791 -5.2386576e-07 0)
(0.32497646 -4.8654079e-07 0)
(0.32497512 -4.5175125e-07 0)
(0.32497387 -4.1917494e-07 0)
(0.32497271 -3.8881388e-07 0)
(0.32497163 -3.6042032e-07 0)
(0.32497064 -3.3393229e-07 0)
(0.32496972 -3.0924402e-07 0)
(0.32496886 -2.8615091e-07 0)
(0.32496807 -2.6473936e-07 0)
(0.32496734 -2.4458965e-07 0)
(0.32496666 -2.2608217e-07 0)
(0.32496604 -2.0847837e-07 0)
(0.32496546 -1.9249844e-07 0)
(0.32496493 -1.7717671e-07 0)
(0.32496444 -1.6347278e-07 0)
(0.32496399 -1.5047749e-07 0)
(0.32496358 -1.3855423e-07 0)
(0.32496318 -1.2957999e-07 0)
(0.32496287 -1.2007512e-07 0)
(0.32496242 -1.2952575e-07 0)
)
;

boundaryField
{
    top
    {
        type            fixedValue;
        value           uniform (0 0 0);
    }
    inlet
    {
        type            pressureNormalInletOutletVelocity;
        phi             phi;
        rho             rho;