# Region type : patch inlet
# Faces         : 10
# Area          : 1.00000000e-01
# Scale factor  : 1.00000000e+00
# Time          	sum(phi)
