/*--------------------------------*- C++ -*----------------------------------*\
| =========                 |                                                 |
| \\      /  F ield         | OpenFOAM: The Open Source CFD Toolbox           |
|  \\    /   O peration     | Version:  v1812                                 |
|   \\  /    A nd           | Web:      www.OpenFOAM.com                      |
|    \\/     M anipulation  |                                                 |
\*---------------------------------------------------------------------------*/
FoamFile
{
    version     2.0;
    format      ascii;
    class       volScalarField;
    location    "17";
    object      p;
}
// * * * * * * * * * * * * * * * * * * * * * * * * * * * * * * * * * * * * * //

dimensions      [0 2 -2 0 0 0 0];


internalField   nonuniform List<scalar> 
1000
(
1.5147279
1.498403
1.4823427
1.46648
1.4507522
1.4351164
1.4195465
1.4040274
1.38855
1.3731075
1.3576943
1.3423055
1.3269376
1.3115879
1.2962544
1.2809355
1.26563
1.2503367
1.2350546
1.2197828
1.2045206
1.1892673
1.1740222
1.1587847
1.1435544
1.1283306
1.1131131
1.0979014
1.0826951
1.0674938
1.0522973
1.0371052
1.0219172
1.0067331
0.99155269
0.97637567
0.96120185
0.94603104
0.93086304
0.91569768
0.9005348
0.88537425
0.87021588
0.85505955
0.83990515
0.82475254
0.80960163
0.79445229
0.77930445
0.76415799
0.74901284
0.73386892
0.71872614
0.70358443
0.68844373
0.67330398
0.6581651
0.64302705
0.62788978
0.61275323
0.59761736
0.58248212
0.56734747
0.55221337
0.53707979
0.5219467
0.50681405
0.49168183
0.47655
0.46141853
0.44628741
0.4311566
0.41602609
0.40089586
0.38576589
0.37063615
0.35550664
0.34037734
0.32524823
0.31011929
0.29499053
0.27986192
0.26473345
0.24960511
0.2344769
0.2193488
0.20422081
0.18909292
0.17396511
0.15883739
0.14370975
0.12858217
0.11345467
0.098327219
0.083199828
0.068072488
0.052945196
0.037817944
0.022690737
0.0075635549
1.5144875
1.4981312
1.4822428
1.4665304
1.4508561
1.4352118
1.4196192
1.404085
1.3886005
1.3731537
1.3577359
1.3423422
1.3269696
1.311616
1.2962794
1.2809581
1.2656506
1.2503555
1.2350718
1.2197987
1.2045352
1.1892808
1.1740347
1.1587963
1.1435652
1.1283407
1.1131225
1.0979102
1.0827032
1.0675014
1.0523044
1.0371118
1.0219234
1.0067389
0.99155812
0.97638075
0.9612066
0.94603548
0.93086719
0.91570156
0.90053844
0.88537765
0.87021905
0.85506252
0.83990792
0.82475514
0.80960405
0.79445456
0.77930656
0.76415997
0.74901469
0.73387064
0.71872774
0.70358593
0.68844513
0.67330528
0.65816632
0.64302819
0.62789083
0.61275421
0.59761827
0.58248296
0.56734826
0.5522141
0.53708047
0.52194733
0.50681464
0.49168237
0.4765505
0.461419
0.44628784
0.431157
0.41602647
0.40089621
0.38576621
0.37063645
0.35550691
0.34037759
0.32524846
0.31011951
0.29499072
0.2798621
0.26473361
0.24960526
0.23447704
0.21934893
0.20422093
0.18909302
0.17396521
0.15883748
0.14370983
0.12858225
0.11345473
0.09832728
0.083199883
0.068072538
0.052945241
0.037817983
0.022690772
0.007563572
1.5140538
1.4975814
1.481925
1.4664749
1.4509337
1.4353066
1.4196867
1.4041289
1.3886358
1.3731884
1.3577702
1.3423735
1.3269967
1.3116391
1.2962996
1.2809761
1.2656668
1.2503702
1.2350852
1.2198109
1.2045464
1.189291
1.1740441
1.158805
1.1435732
1.1283482
1.1131294
1.0979166
1.0827092
1.067507
1.0523095
1.0371166
1.0219279
1.0067431
0.99156202
0.97638439
0.96121
0.94603866
0.93087016
0.91570434
0.90054103
0.88538007
0.87022132
0.85506464
0.83990991
0.82475699
0.80960578
0.79445618
0.77930807
0.76416138
0.74901601
0.73387187
0.71872889
0.703587
0.68844613
0.67330621
0.65816719
0.643029
0.62789159
0.61275492
0.59761893
0.58248358
0.56734883
0.55221464
0.53708097
0.52194779
0.50681507
0.49168277
0.47655087
0.46141934
0.44628816
0.4311573
0.41602674
0.40089646
0.38576644
0.37063666
0.35550711
0.34037777
0.32524863
0.31011966
0.29499087
0.27986223
0.26473374
0.24960538
0.23447714
0.21934903
0.20422101
0.1890931
0.17396528
0.15883755
0.14370989
0.1285823
0.11345478
0.098327328
0.083199926
0.068072577
0.052945275
0.037818013
0.022690792
0.0075635844
1.5136221
1.4969895
1.4815287
1.4663536
1.45098
1.435394
1.4197535
1.404171
1.3886687
1.3732223
1.3578059
1.3424078
1.327027
1.3116651
1.2963221
1.2809961
1.2656848
1.2503865
1.2351
1.2198242
1.2045585
1.1893021
1.1740543
1.1588144
1.1435819
1.1283562
1.1131368
1.0979234
1.0827156
1.0675129
1.0523151
1.0371218
1.0219327
1.0067476
0.99156622
0.97638832
0.96121368
0.94604209
0.93087338
0.91570735
0.90054385
0.88538271
0.87022379
0.85506695
0.83991207
0.82475901
0.80960768
0.79445795
0.77930974
0.76416294
0.74901746
0.73387323
0.71873017
0.7035882
0.68844725
0.67330726
0.65816816
0.64302991
0.62789244
0.61275571
0.59761967
0.58248427
0.56734948
0.55221524
0.53708153
0.52194832
0.50681556
0.49168323
0.4765513
0.46141974
0.44628853
0.43115764
0.41602706
0.40089676
0.38576672
0.37063692
0.35550735
0.34037799
0.32524883
0.31011985
0.29499105
0.27986239
0.26473389
0.24960552
0.23447727
0.21934915
0.20422113
0.1890932
0.17396538
0.15883763
0.14370997
0.12858238
0.11345485
0.09832739
0.083199983
0.06807263
0.05294532
0.037818055
0.022690821
0.0075636126
1.513362
1.4966193
1.4812649
1.4662596
1.4509997
1.4354474
1.4197968
1.4041983
1.3886897
1.3732443
1.3578297
1.3424313
1.3270483
1.3116837
1.2963384
1.2810106
1.265698
1.2503986
1.235111
1.2198343
1.2045677
1.1893106
1.1740621
1.1588216
1.1435885
1.1283623
1.1131426
1.0979288
1.0827205
1.0675175
1.0523194
1.0371258
1.0219365
1.0067511
0.9915695
0.97639138
0.96121654
0.94604478
0.93087589
0.9157097
0.90054605
0.88538477
0.87022573
0.85506877
0.83991377
0.82476061
0.80960917
0.79445935
0.77931105
0.76416416
0.74901861
0.73387431
0.71873118
0.70358914
0.68844813
0.67330809
0.65816894
0.64303064
0.62789312
0.61275635
0.59762026
0.58248483
0.56734999
0.55221573
0.53708198
0.52194874
0.50681595
0.49168359
0.47655164
0.46142006
0.44628883
0.43115792
0.41602732
0.400897
0.38576694
0.37063713
0.35550755
0.34037817
0.325249
0.31012001
0.29499119
0.27986253
0.26473401
0.24960563
0.23447738
0.21934924
0.20422122
0.18909329
0.17396545
0.15883771
0.14371004
0.12858244
0.11345491
0.098327443
0.08320003
0.068072674
0.052945358
0.037818093
0.022690848
0.0075636403
1.5133619
1.4966193
1.4812649
1.4662596
1.4509997
1.4354474
1.4197968
1.4041983
1.3886897
1.3732443
1.3578297
1.3424313
1.3270483
1.3116837
1.2963384
1.2810106
1.265698
1.2503986
1.235111
1.2198343
1.2045677
1.1893106
1.1740621
1.1588216
1.1435885
1.1283623
1.1131426
1.0979288
1.0827205
1.0675175
1.0523194
1.0371258
1.0219365
1.0067511
0.9915695
0.97639138
0.96121654
0.94604478
0.93087589
0.9157097
0.90054605
0.88538478
0.87022573
0.85506877
0.83991377
0.82476061
0.80960917
0.79445935
0.77931105
0.76416416
0.74901861
0.73387431
0.71873118
0.70358914
0.68844813
0.67330809
0.65816894
0.64303064
0.62789312
0.61275635
0.59762026
0.58248483
0.56734999
0.55221573
0.53708198
0.52194874
0.50681595
0.49168359
0.47655164
0.46142006
0.44628883
0.43115792
0.41602732
0.400897
0.38576694
0.37063713
0.35550755
0.34037817
0.325249
0.31012001
0.29499119
0.27986253
0.26473401
0.24960563
0.23447738
0.21934924
0.20422122
0.18909329
0.17396545
0.15883771
0.14371004
0.12858244
0.11345491
0.098327443
0.083200031
0.068072675
0.052945358
0.037818093
0.022690848
0.0075636408
1.5136221
1.4969895
1.4815287
1.4663536
1.45098
1.435394
1.4197535
1.404171
1.3886687
1.3732223
1.3578059
1.3424078
1.327027
1.3116651
1.2963221
1.2809961
1.2656848
1.2503865
1.2351
1.2198242
1.2045586
1.1893022
1.1740543
1.1588144
1.1435819
1.1283562
1.1131368
1.0979234
1.0827156
1.0675129
1.0523151
1.0371218
1.0219327
1.0067476
0.99156623
0.97638832
0.96121368
0.94604209
0.93087338
0.91570735
0.90054385
0.88538271
0.87022379
0.85506695
0.83991207
0.82475901
0.80960768
0.79445795
0.77930974
0.76416294
0.74901746
0.73387323
0.71873017
0.7035882
0.68844725
0.67330726
0.65816816
0.64302991
0.62789244
0.61275571
0.59761967
0.58248427
0.56734947
0.55221524
0.53708153
0.52194831
0.50681556
0.49168323
0.4765513
0.46141974
0.44628853
0.43115764
0.41602706
0.40089676
0.38576672
0.37063692
0.35550735
0.34037799
0.32524883
0.31011985
0.29499105
0.27986239
0.26473389
0.24960552
0.23447727
0.21934915
0.20422113
0.18909321
0.17396538
0.15883763
0.14370997
0.12858238
0.11345485
0.098327391
0.083199983
0.06807263
0.05294532
0.037818056
0.022690822
0.0075636136
1.5140538
1.4975814
1.481925
1.4664749
1.4509337
1.4353066
1.4196867
1.4041288
1.3886358
1.3731884
1.3577702
1.3423735
1.3269967
1.3116392
1.2962996
1.2809761
1.2656668
1.2503702
1.2350852
1.2198109
1.2045464
1.189291
1.1740441
1.158805
1.1435732
1.1283482
1.1131294
1.0979166
1.0827092
1.067507
1.0523096
1.0371166
1.0219279
1.0067431
0.99156202
0.97638439
0.96121
0.94603866
0.93087016
0.91570434
0.90054103
0.88538007
0.87022132
0.85506464
0.83990991
0.82475699
0.80960578
0.79445618
0.77930807
0.76416138
0.74901601
0.73387187
0.71872889
0.703587
0.68844613
0.67330621
0.65816719
0.643029
0.62789159
0.61275492
0.59761893
0.58248358
0.56734883
0.55221464
0.53708097
0.52194779
0.50681507
0.49168277
0.47655087
0.46141934
0.44628816
0.4311573
0.41602674
0.40089646
0.38576644
0.37063666
0.35550711
0.34037777
0.32524863
0.31011966
0.29499087
0.27986223
0.26473374
0.24960538
0.23447714
0.21934903
0.20422102
0.1890931
0.17396528
0.15883755
0.14370989
0.1285823
0.11345479
0.098327329
0.083199927
0.068072578
0.052945275
0.037818013
0.022690793
0.0075635855
1.5144875
1.4981312
1.4822428
1.4665304
1.4508561
1.4352117
1.4196192
1.4040849
1.3886004
1.3731537
1.3577359
1.3423422
1.3269696
1.311616
1.2962794
1.2809581
1.2656506
1.2503555
1.2350718
1.2197987
1.2045353
1.1892808
1.1740347
1.1587963
1.1435652
1.1283407
1.1131225
1.0979102
1.0827032
1.0675014
1.0523044
1.0371118
1.0219234
1.0067389
0.99155812
0.97638075
0.9612066
0.94603548
0.93086719
0.91570157
0.90053844
0.88537765
0.87021905
0.85506252
0.83990792
0.82475514
0.80960405
0.79445456
0.77930656
0.76415997
0.74901469
0.73387064
0.71872774
0.70358593
0.68844513
0.67330528
0.65816631
0.64302818
0.62789083
0.61275421
0.59761827
0.58248296
0.56734825
0.5522141
0.53708047
0.52194733
0.50681464
0.49168237
0.4765505
0.461419
0.44628784
0.431157
0.41602646
0.40089621
0.3857662
0.37063645
0.35550691
0.34037759
0.32524846
0.31011951
0.29499072
0.2798621
0.26473361
0.24960526
0.23447704
0.21934893
0.20422093
0.18909302
0.17396521
0.15883748
0.14370983
0.12858225
0.11345473
0.098327281
0.083199884
0.068072538
0.052945241
0.037817983
0.022690773
0.0075635727
1.5147279
1.498403
1.4823427
1.46648
1.4507522
1.4351164
1.4195465
1.4040274
1.38855
1.3731075
1.3576943
1.3423055
1.3269376
1.3115879
1.2962544
1.2809355
1.26563
1.2503367
1.2350546
1.2197829
1.2045207
1.1892673
1.1740222
1.1587847
1.1435544
1.1283307
1.1131131
1.0979014
1.0826951
1.0674938
1.0522973
1.0371052
1.0219172
1.0067331
0.99155269
0.97637567
0.96120185
0.94603104
0.93086304
0.91569768
0.9005348
0.88537425
0.87021588
0.85505955
0.83990515
0.82475254
0.80960162
0.79445229
0.77930445
0.76415799
0.74901284
0.73386891
0.71872614
0.70358443
0.68844373
0.67330397
0.6581651
0.64302705
0.62788978
0.61275323
0.59761735
0.58248211
0.56734747
0.55221337
0.53707979
0.52194669
0.50681405
0.49168183
0.47654999
0.46141853
0.44628741
0.4311566
0.41602609
0.40089586
0.38576589
0.37063615
0.35550664
0.34037734
0.32524823
0.31011929
0.29499053
0.27986192
0.26473345
0.24960511
0.2344769
0.2193488
0.20422081
0.18909292
0.17396511
0.15883739
0.14370975
0.12858217
0.11345467
0.098327221
0.083199829
0.068072489
0.052945196
0.037817945
0.022690737
0.0075635552
)
;

boundaryField
{
    top
    {
        type            zeroGradient;
    }
    inlet
    {
        type            fixedValue;
        value           uniform 1.523;
    }
    outlet
    {
        type            fixedValue;
        value           uniform 0;
    }
    bottom
    {
        type            zeroGradient;
    }
    back
    {
        type            empty;
    }
    front
    {
        type            empty;
    }
}


// ************************************************************************* //
