/*--------------------------------*- C++ -*----------------------------------*\
| =========                 |                                                 |
| \\      /  F ield         | OpenFOAM: The Open Source CFD Toolbox           |
|  \\    /   O peration     | Version:  v1812                                 |
|   \\  /    A nd           | Web:      www.OpenFOAM.com                      |
|    \\/     M anipulation  |                                                 |
\*---------------------------------------------------------------------------*/
FoamFile
{
    version     2.0;
    format      ascii;
    class       volScalarField;
    location    "2.1";
    object      p;
}
// * * * * * * * * * * * * * * * * * * * * * * * * * * * * * * * * * * * * * //

dimensions      [0 2 -2 0 0 0 0];


internalField   nonuniform List<scalar> 
1000
(
1.7623847
1.641306
1.5453244
1.4816683
1.4331593
1.3906891
1.3531696
1.3210369
1.2936969
1.2699505
1.2487028
1.2291621
1.2107975
1.1932746
1.176397
1.1600519
1.1441691
1.1286993
1.1136006
1.0988312
1.0843441
1.07009
1.0560213
1.0420949
1.0282739
1.014528
1.0008335
0.9871727
0.97353301
0.95990617
0.94628594
0.93266865
0.91905301
0.90543804
0.89182316
0.87820813
0.86459291
0.8509775
0.83736197
0.82374634
0.81013066
0.79651495
0.78289923
0.76928349
0.75566776
0.74205203
0.72843629
0.71482056
0.70120483
0.6875891
0.67397337
0.66035764
0.64674191
0.63312618
0.61951045
0.60589473
0.592279
0.57866327
0.56504754
0.55143182
0.53781609
0.52420036
0.51058464
0.49696891
0.48335318
0.46973746
0.45612173
0.442506
0.42889027
0.41527455
0.40165882
0.3880431
0.37442736
0.36081165
0.3471959
0.3335802
0.31996445
0.30634874
0.292733
0.27911728
0.26550157
0.2518858
0.23827014
0.22465433
0.21103868
0.1974229
0.18380717
0.17019151
0.15657567
0.14296008
0.12934425
0.11572855
0.10211289
0.08849707
0.074881443
0.061265779
0.047650092
0.034034735
0.020419528
0.0068055865
1.6451658
1.5902375
1.529286
1.4777207
1.4344559
1.3954906
1.359906
1.3281545
1.3002481
1.2755534
1.2532686
1.232745
1.2135309
1.195317
1.1778938
1.1611256
1.1449226
1.1292167
1.1139474
1.0990553
1.0844817
1.0701686
1.0560618
1.0421122
1.0282782
1.0145258
1.0008286
0.98716737
0.97352826
0.95990174
0.94628222
0.93266633
0.91905169
0.9054373
0.89182276
0.87820792
0.86459281
0.85097746
0.83736196
0.82374635
0.81013067
0.79651496
0.78289923
0.7692835
0.75566776
0.74205203
0.72843629
0.71482056
0.70120483
0.6875891
0.67397337
0.66035764
0.64674191
0.63312618
0.61951046
0.60589473
0.592279
0.57866327
0.56504754
0.55143182
0.53781609
0.52420036
0.51058464
0.49696891
0.48335318
0.46973746
0.45612173
0.442506
0.42889027
0.41527455
0.40165881
0.3880431
0.37442735
0.36081166
0.34719589
0.33358021
0.31996444
0.30634875
0.29273301
0.27911727
0.26550159
0.25188577
0.23827017
0.2246543
0.21103869
0.19742291
0.18380716
0.17019153
0.15657565
0.14296006
0.12934428
0.11572848
0.10211289
0.088497019
0.074881292
0.061265742
0.047649792
0.034034293
0.020418763
0.0068047696
1.5843467
1.558174
1.5197814
1.4786529
1.4395766
1.402996
1.3686976
1.3369897
1.3081957
1.2822087
1.2585881
1.236858
1.2166471
1.1976632
1.1796604
1.1624515
1.1459121
1.1299541
1.114498
1.0994656
1.0847841
1.0703879
1.0562179
1.0422212
1.0283525
1.014575
1.0008603
0.98718697
0.97353992
0.95990852
0.94628596
0.93266807
0.91905235
0.90543744
0.89182267
0.87820777
0.86459266
0.85097734
0.83736187
0.82374629
0.81013063
0.79651494
0.78289922
0.76928349
0.75566776
0.74205203
0.72843629
0.71482056
0.70120483
0.6875891
0.67397337
0.66035764
0.64674191
0.63312618
0.61951046
0.60589473
0.592279
0.57866327
0.56504755
0.55143182
0.53781609
0.52420036
0.51058464
0.49696891
0.48335318
0.46973746
0.45612173
0.44250601
0.42889027
0.41527456
0.40165881
0.38804311
0.37442734
0.36081167
0.34719588
0.33358022
0.31996443
0.30634875
0.29273301
0.27911726
0.26550161
0.25188574
0.23827021
0.22465426
0.21103873
0.19742287
0.18380717
0.17019152
0.15657562
0.14296006
0.12934418
0.11572848
0.1021127
0.088496901
0.074880974
0.06126526
0.047649127
0.034033173
0.020417388
0.0068038393
1.5549408
1.5394461
1.5125826
1.4786644
1.4428739
1.4079376
1.374637
1.3432915
1.3142348
1.28759
1.2631626
1.2406309
1.2197106
1.2001456
1.181676
1.1640817
1.1472198
1.1309974
1.1153277
1.1001199
1.0852915
1.070773
1.0565039
1.042429
1.0285
1.0146769
1.0009287
0.98723155
0.97356801
0.95992559
0.94629593
0.9326736
0.91905523
0.90543881
0.89182323
0.87820792
0.86459264
0.85097726
0.83736178
0.82374621
0.81013058
0.7965149
0.7828992
0.76928348
0.75566775
0.74205202
0.72843629
0.71482056
0.70120483
0.6875891
0.67397337
0.66035764
0.64674191
0.63312618
0.61951046
0.60589473
0.592279
0.57866327
0.56504755
0.55143182
0.53781609
0.52420036
0.51058464
0.49696891
0.48335318
0.46973746
0.45612173
0.44250601
0.42889027
0.41527456
0.4016588
0.38804312
0.37442734
0.36081168
0.34719587
0.33358023
0.31996442
0.30634876
0.292733
0.27911725
0.26550162
0.25188571
0.23827025
0.2246542
0.21103879
0.1974228
0.18380721
0.1701915
0.15657557
0.14296014
0.12934399
0.11572852
0.10211248
0.088496642
0.07488075
0.061264569
0.047648392
0.034032212
0.020416156
0.0068031498
1.5422108
1.5302614
1.5080345
1.4777532
1.4439029
1.4099239
1.3772298
1.346234
1.3172189
1.2903693
1.2656136
1.2427236
1.2214696
1.2016195
1.1829103
1.1651085
1.1480655
1.1316897
1.1158926
1.1005773
1.0856561
1.0710579
1.056722
1.0425926
1.0286199
1.0147626
1.0009882
0.9872717
0.97359425
0.95994219
0.94630605
0.93267951
0.91905851
0.90544051
0.89182404
0.87820826
0.86459273
0.85097725
0.83736173
0.82374616
0.81013054
0.79651487
0.78289918
0.76928347
0.75566775
0.74205202
0.72843629
0.71482056
0.70120483
0.6875891
0.67397337
0.66035764
0.64674191
0.63312618
0.61951046
0.60589473
0.592279
0.57866327
0.56504755
0.55143182
0.53781609
0.52420036
0.51058464
0.49696891
0.48335318
0.46973746
0.45612172
0.44250601
0.42889027
0.41527456
0.4016588
0.38804312
0.37442733
0.36081168
0.34719586
0.33358024
0.31996441
0.30634877
0.292733
0.27911725
0.26550163
0.25188569
0.23827028
0.22465416
0.21103884
0.19742276
0.18380723
0.17019151
0.1565755
0.14296021
0.12934386
0.11572854
0.10211236
0.088496425
0.074880639
0.061264131
0.047647921
0.034031737
0.020415509
0.0068027996
1.5422108
1.5302614
1.5080345
1.4777532
1.4439029
1.4099239
1.3772298
1.346234
1.3172189
1.2903693
1.2656136
1.2427236
1.2214696
1.2016195
1.1829103
1.1651085
1.1480655
1.1316897
1.1158926
1.1005773
1.0856561
1.0710579
1.056722
1.0425926
1.0286199
1.0147626
1.0009882
0.9872717
0.97359424
0.95994219
0.94630605
0.93267951
0.9190585
0.90544051
0.89182404
0.87820826
0.86459272
0.85097725
0.83736173
0.82374616
0.81013054
0.79651487
0.78289918
0.76928347
0.75566775
0.74205202
0.72843629
0.71482056
0.70120483
0.6875891
0.67397337
0.66035764
0.64674191
0.63312618
0.61951046
0.60589473
0.592279
0.57866327
0.56504755
0.55143182
0.53781609
0.52420036
0.51058464
0.49696891
0.48335318
0.46973746
0.45612172
0.44250601
0.42889027
0.41527456
0.4016588
0.38804312
0.37442733
0.36081168
0.34719586
0.33358024
0.31996441
0.30634877
0.292733
0.27911725
0.26550163
0.25188569
0.23827028
0.22465416
0.21103884
0.19742276
0.18380723
0.17019151
0.1565755
0.14296021
0.12934386
0.11572854
0.10211236
0.088496424
0.07488064
0.061264132
0.047647922
0.034031739
0.020415509
0.0068027991
1.5549408
1.5394461
1.5125826
1.4786644
1.4428739
1.4079376
1.374637
1.3432915
1.3142348
1.28759
1.2631626
1.2406309
1.2197107
1.2001456
1.181676
1.1640817
1.1472198
1.1309974
1.1153277
1.1001199
1.0852915
1.070773
1.0565039
1.042429
1.0285
1.0146769
1.0009287
0.98723154
0.973568
0.95992558
0.94629592
0.93267359
0.91905522
0.90543879
0.89182322
0.87820791
0.86459263
0.85097726
0.83736178
0.82374621
0.81013058
0.7965149
0.7828992
0.76928348
0.75566775
0.74205202
0.72843629
0.71482056
0.70120483
0.6875891
0.67397337
0.66035764
0.64674191
0.63312618
0.61951046
0.60589473
0.592279
0.57866327
0.56504755
0.55143182
0.53781609
0.52420036
0.51058464
0.49696891
0.48335318
0.46973746
0.45612173
0.44250601
0.42889027
0.41527456
0.4016588
0.38804312
0.37442734
0.36081168
0.34719587
0.33358023
0.31996442
0.30634876
0.292733
0.27911725
0.26550162
0.25188571
0.23827025
0.2246542
0.21103879
0.1974228
0.18380721
0.1701915
0.15657557
0.14296014
0.12934399
0.11572852
0.10211248
0.088496642
0.074880752
0.061264572
0.047648395
0.034032214
0.020416157
0.0068031489
1.5843467
1.558174
1.5197814
1.4786529
1.4395766
1.4029959
1.3686976
1.3369896
1.3081957
1.2822087
1.2585881
1.236858
1.2166471
1.1976632
1.1796604
1.1624515
1.1459121
1.1299541
1.1144979
1.0994656
1.0847841
1.0703879
1.0562178
1.0422212
1.0283525
1.014575
1.0008602
0.98718696
0.97353991
0.9599085
0.94628594
0.93266805
0.91905233
0.90543742
0.89182266
0.87820776
0.86459265
0.85097734
0.83736187
0.82374628
0.81013063
0.79651494
0.78289922
0.76928349
0.75566776
0.74205203
0.72843629
0.71482056
0.70120483
0.6875891
0.67397337
0.66035764
0.64674191
0.63312618
0.61951046
0.60589473
0.592279
0.57866327
0.56504755
0.55143182
0.53781609
0.52420036
0.51058464
0.49696891
0.48335318
0.46973746
0.45612173
0.44250601
0.42889027
0.41527456
0.40165881
0.38804311
0.37442734
0.36081167
0.34719588
0.33358022
0.31996443
0.30634875
0.292733
0.27911726
0.26550161
0.25188574
0.2382702
0.22465426
0.21103873
0.19742286
0.18380717
0.17019152
0.15657563
0.14296007
0.12934419
0.11572848
0.1021127
0.088496901
0.074880977
0.061265264
0.04764913
0.034033176
0.020417388
0.0068038385
1.6451658
1.5902375
1.529286
1.4777207
1.4344559
1.3954906
1.359906
1.3281545
1.3002481
1.2755534
1.2532686
1.232745
1.2135309
1.195317
1.1778938
1.1611256
1.1449226
1.1292167
1.1139474
1.0990553
1.0844816
1.0701686
1.0560618
1.0421122
1.0282782
1.0145257
1.0008286
0.98716736
0.97352824
0.95990172
0.94628219
0.9326663
0.91905167
0.90543729
0.89182274
0.87820791
0.8645928
0.85097746
0.83736195
0.82374634
0.81013067
0.79651496
0.78289923
0.7692835
0.75566776
0.74205203
0.72843629
0.71482056
0.70120483
0.6875891
0.67397337
0.66035764
0.64674191
0.63312619
0.61951046
0.60589473
0.592279
0.57866327
0.56504755
0.55143182
0.53781609
0.52420036
0.51058464
0.49696891
0.48335318
0.46973746
0.45612173
0.44250601
0.42889027
0.41527455
0.40165881
0.3880431
0.37442735
0.36081166
0.34719589
0.33358021
0.31996444
0.30634875
0.29273301
0.27911726
0.26550159
0.25188577
0.23827016
0.2246543
0.21103869
0.1974229
0.18380715
0.17019154
0.15657565
0.14296006
0.12934428
0.11572848
0.10211289
0.088497019
0.074881296
0.061265746
0.047649794
0.034034293
0.020418762
0.006804769
1.7623847
1.641306
1.5453244
1.4816683
1.4331592
1.390689
1.3531695
1.3210368
1.2936969
1.2699505
1.2487028
1.2291621
1.2107976
1.1932746
1.1763971
1.1600519
1.1441691
1.1286993
1.1136006
1.0988311
1.0843441
1.07009
1.0560212
1.0420949
1.0282739
1.014528
1.0008335
0.98717268
0.97353299
0.95990615
0.94628591
0.93266862
0.91905299
0.90543802
0.89182314
0.87820812
0.8645929
0.8509775
0.83736196
0.82374634
0.81013066
0.79651495
0.78289922
0.76928349
0.75566776
0.74205203
0.72843629
0.71482056
0.70120483
0.6875891
0.67397337
0.66035764
0.64674191
0.63312619
0.61951046
0.60589473
0.592279
0.57866327
0.56504755
0.55143182
0.53781609
0.52420036
0.51058464
0.49696891
0.48335318
0.46973746
0.45612173
0.442506
0.42889027
0.41527455
0.40165882
0.3880431
0.37442736
0.36081165
0.3471959
0.3335802
0.31996445
0.30634874
0.292733
0.27911728
0.26550157
0.2518858
0.23827014
0.22465433
0.21103868
0.1974229
0.18380717
0.17019151
0.15657567
0.14296009
0.12934425
0.11572855
0.10211289
0.088497073
0.074881449
0.061265783
0.047650092
0.034034732
0.020419526
0.0068055863
)
;

boundaryField
{
    top
    {
        type            zeroGradient;
    }
    inlet
    {
        type            zeroGradient;
    }
    outlet
    {
        type            fixedValue;
        value           uniform 0;
    }
    bottom
    {
        type            zeroGradient;
    }
    back
    {
        type            empty;
    }
    front
    {
        type            empty;
    }
}


// ************************************************************************* //
