/*--------------------------------*- C++ -*----------------------------------*\
| =========                 |                                                 |
| \\      /  F ield         | OpenFOAM: The Open Source CFD Toolbox           |
|  \\    /   O peration     | Version:  v1812                                 |
|   \\  /    A nd           | Web:      www.OpenFOAM.com                      |
|    \\/     M anipulation  |                                                 |
\*---------------------------------------------------------------------------*/
FoamFile
{
    version     2.0;
    format      ascii;
    class       volVectorField;
    location    "1";
    object      U;
}
// * * * * * * * * * * * * * * * * * * * * * * * * * * * * * * * * * * * * * //

dimensions      [0 1 -1 0 0 0 0];


internalField   nonuniform List<vector> 
1000
(
(0.91891687 0.035772649 0)
(0.86292659 0.062300292 0)
(0.78626463 0.062195462 0)
(0.696009 0.052950065 0)
(0.61564843 0.042110664 0)
(0.55226602 0.030939614 0)
(0.50535954 0.019750604 0)
(0.47338757 0.010446471 0)
(0.4532912 0.0044698576 0)
(0.44144519 0.0013445956 0)
(0.43501528 -0.00012797121 0)
(0.43202045 -0.00073422938 0)
(0.43101895 -0.00084939865 0)
(0.43100635 -0.00069747181 0)
(0.43136058 -0.00049008327 0)
(0.43177267 -0.00031929009 0)
(0.43212235 -0.00019608178 0)
(0.43238061 -0.00011387883 0)
(0.43255476 -6.2212236e-05 0)
(0.43266421 -3.1819556e-05 0)
(0.43272906 -1.5108817e-05 0)
(0.43276553 -6.4995027e-06 0)
(0.43278503 -2.3590158e-06 0)
(0.43279491 -5.3604356e-07 0)
(0.43279961 1.5847434e-07 0)
(0.43280164 3.4641574e-07 0)
(0.4328024 3.3412059e-07 0)
(0.4328026 2.6180002e-07 0)
(0.43280258 1.8176882e-07 0)
(0.4328025 1.1696395e-07 0)
(0.43280241 7.1326746e-08 0)
(0.43280235 4.1668459e-08 0)
(0.4328023 2.3300299e-08 0)
(0.43280228 1.2214366e-08 0)
(0.43280226 5.6043361e-09 0)
(0.43280226 1.9685492e-09 0)
(0.43280226 -2.4763634e-10 0)
(0.43280226 -1.2478799e-09 0)
(0.43280227 -1.8123003e-09 0)
(0.43280227 -1.8691365e-09 0)
(0.43280228 -1.8989074e-09 0)
(0.43280228 -1.6876693e-09 0)
(0.43280229 -1.6059675e-09 0)
(0.43280229 -1.3338034e-09 0)
(0.4328023 -1.2181376e-09 0)
(0.4328023 -9.605048e-10 0)
(0.4328023 -8.9085573e-10 0)
(0.4328023 -6.6281776e-10 0)
(0.43280231 -6.0736012e-10 0)
(0.43280231 -4.1464101e-10 0)
(0.43280231 -4.1367037e-10 0)
(0.43280231 -2.4878725e-10 0)
(0.43280231 -2.5526656e-10 0)
(0.43280231 -1.1790789e-10 0)
(0.43280232 -1.6472966e-10 0)
(0.43280232 -4.2438706e-11 0)
(0.43280232 -8.7220004e-11 0)
(0.43280232 1.6293321e-11 0)
(0.43280232 -6.1173723e-11 0)
(0.43280232 3.525044e-11 0)
(0.43280232 -2.7504749e-11 0)
(0.43280232 6.2942963e-11 0)
(0.43280232 -2.5613082e-11 0)
(0.43280232 6.3721747e-11 0)
(0.43280232 -2.4857839e-12 0)
(0.43280232 9.0818275e-11 0)
(0.43280232 8.4251626e-12 0)
(0.43280232 1.0094903e-10 0)
(0.43280232 3.9082885e-11 0)
(0.43280232 1.0826699e-10 0)
(0.43280232 4.0112894e-11 0)
(0.43280232 2.049957e-11 0)
(0.43280232 1.0508062e-10 0)
(0.43280232 -3.2858674e-10 0)
(0.43280232 6.1188051e-10 0)
(0.43280232 -1.8454305e-09 0)
(0.43280231 3.6886504e-09 0)
(0.43280234 -8.4723496e-09 0)
(0.43280227 1.8018018e-08 0)
(0.43280241 -3.6894606e-08 0)
(0.43280212 7.6778502e-08 0)
(0.43280272 -1.4638209e-07 0)
(0.43280151 2.8706104e-07 0)
(0.43280386 -5.1330004e-07 0)
(0.43279937 9.2830666e-07 0)
(0.43280755 -1.5282528e-06 0)
(0.43279296 2.4968599e-06 0)
(0.43281777 -3.6323803e-06 0)
(0.43277684 5.1304874e-06 0)
(0.43284089 -5.9372913e-06 0)
(0.43274389 6.2458444e-06 0)
(0.43288219 -2.7551689e-06 0)
(0.43268857 -2.4519005e-06 0)
(0.43294228 1.7694115e-05 0)
(0.43260547 -2.7259561e-05 0)
(0.43301367 4.5133372e-05 0)
(0.43249619 -2.8564105e-05 0)
(0.43302522 -1.2463531e-05 0)
(0.43252339 2.1860027e-05 0)
(0.43290933 -0.00010616806 0)
(1.0014998 0.05369329 0)
(1.0363152 0.10122858 0)
(1.0587331 0.11024859 0)
(1.0615549 0.10361078 0)
(1.0530943 0.092385085 0)
(1.0380135 0.078967485 0)
(1.0190106 0.062620587 0)
(1.0004552 0.044992296 0)
(0.98502478 0.029529577 0)
(0.9728349 0.017994224 0)
(0.96359984 0.01007754 0)
(0.95722216 0.0049423531 0)
(0.95332902 0.0019026686 0)
(0.95120033 0.00036024382 0)
(0.95011917 -0.00028129348 0)
(0.94964482 -0.00045475369 0)
(0.94950174 -0.00042538212 0)
(0.94951231 -0.00033221494 0)
(0.94957614 -0.00023206355 0)
(0.94964513 -0.00014968733 0)
(0.94970164 -9.0751133e-05 0)
(0.94974232 -5.2206654e-05 0)
(0.94976929 -2.860105e-05 0)
(0.94978609 -1.490765e-05 0)
(0.94979603 -7.3497163e-06 0)
(0.94980164 -3.3807463e-06 0)
(0.94980468 -1.4066876e-06 0)
(0.94980626 -4.8732277e-07 0)
(0.94980703 -9.9472178e-08 0)
(0.9498074 3.8950281e-08 0)
(0.94980757 7.0457136e-08 0)
(0.94980764 6.2495248e-08 0)
(0.94980766 4.3583946e-08 0)
(0.94980768 2.564253e-08 0)
(0.94980768 1.1787342e-08 0)
(0.94980769 2.3834491e-09 0)
(0.9498077 -3.6366106e-09 0)
(0.94980771 -7.1229758e-09 0)
(0.94980772 -8.9570124e-09 0)
(0.94980773 -9.688706e-09 0)
(0.94980774 -9.7559727e-09 0)
(0.94980775 -9.404036e-09 0)
(0.94980776 -8.85278e-09 0)
(0.94980777 -8.1444383e-09 0)
(0.94980778 -7.3780362e-09 0)
(0.94980779 -6.5755953e-09 0)
(0.94980779 -5.819958e-09 0)
(0.9498078 -5.0695577e-09 0)
(0.9498078 -4.3704699e-09 0)
(0.94980781 -3.70691e-09 0)
(0.94980781 -3.1412892e-09 0)
(0.94980782 -2.6110596e-09 0)
(0.94980782 -2.1499196e-09 0)
(0.94980782 -1.7335262e-09 0)
(0.94980782 -1.4114983e-09 0)
(0.94980783 -1.1134316e-09 0)
(0.94980783 -8.7080541e-10 0)
(0.94980783 -6.5250913e-10 0)
(0.94980783 -5.0831704e-10 0)
(0.94980783 -3.682743e-10 0)
(0.94980783 -2.5974934e-10 0)
(0.94980783 -1.5372447e-10 0)
(0.94980783 -9.8398312e-11 0)
(0.94980783 -2.729713e-11 0)
(0.94980783 3.5564934e-11 0)
(0.94980783 1.1452443e-10 0)
(0.94980783 1.6169774e-10 0)
(0.94980783 2.2316851e-10 0)
(0.94980783 3.0909135e-10 0)
(0.94980783 3.2384579e-10 0)
(0.94980783 4.8334496e-10 0)
(0.94980783 1.563605e-10 0)
(0.94980783 9.2893235e-10 0)
(0.94980783 -1.0787014e-09 0)
(0.94980782 3.1903854e-09 0)
(0.94980785 -7.0818478e-09 0)
(0.94980779 1.5168782e-08 0)
(0.94980792 -3.3639348e-08 0)
(0.94980762 6.9813128e-08 0)
(0.94980827 -1.435604e-07 0)
(0.94980692 2.8739407e-07 0)
(0.94980969 -5.4841831e-07 0)
(0.94980414 1.034205e-06 0)
(0.94981493 -1.8213272e-06 0)
(0.94979452 3.1493637e-06 0)
(0.94983184 -4.9950674e-06 0)
(0.94976579 7.6138344e-06 0)
(0.94987816 -1.0198324e-05 0)
(0.94969447 1.2426647e-05 0)
(0.94998079 -1.0979984e-05 0)
(0.94955617 5.062826e-06 0)
(0.95014865 1.1858328e-05 0)
(0.94937375 -3.3401661e-05 0)
(0.95030603 6.3043234e-05 0)
(0.94927924 -6.6328356e-05 0)
(0.95026679 4.704933e-05 0)
(0.94943202 1.9752191e-05 0)
(0.9499534 -9.4368335e-05 0)
(0.94967574 4.7352283e-05 0)
(0.94983028 -8.0828547e-05 0)
(1.0012183 0.026682623 0)
(1.0293752 0.062517027 0)
(1.0639604 0.076948263 0)
(1.0962355 0.078323353 0)
(1.1245858 0.074621114 0)
(1.1450998 0.068222766 0)
(1.156473 0.05839791 0)
(1.1625304 0.046002636 0)
(1.166117 0.033696455 0)
(1.1672681 0.0233514 0)
(1.1662263 0.015309533 0)
(1.1642784 0.0093421457 0)
(1.1624697 0.0052159261 0)
(1.1610781 0.0026080294 0)
(1.1600638 0.0011092758 0)
(1.1593677 0.00033231476 0)
(1.1589211 -2.3152858e-05 0)
(1.1586638 -0.00014778147 0)
(1.1585319 -0.00016424063 0)
(1.1584682 -0.00013745477 0)
(1.1584406 -0.00010043634 0)
(1.1584311 -6.7362571e-05 0)
(1.1584296 -4.2408683e-05 0)
(1.1584311 -2.5346807e-05 0)
(1.1584333 -1.4468085e-05 0)
(1.1584351 -7.9080081e-06 0)
(1.1584365 -4.1383737e-06 0)
(1.1584374 -2.0677826e-06 0)
(1.1584379 -9.7904865e-07 0)
(1.1584383 -4.3431975e-07 0)
(1.1584385 -1.7731059e-07 0)
(1.1584386 -6.5492875e-08 0)
(1.1584386 -2.3159497e-08 0)
(1.1584387 -1.1219003e-08 0)
(1.1584387 -1.0948911e-08 0)
(1.1584387 -1.4149458e-08 0)
(1.1584387 -1.7239616e-08 0)
(1.1584388 -1.9553613e-08 0)
(1.1584388 -2.0673286e-08 0)
(1.1584388 -2.1030183e-08 0)
(1.1584388 -2.0577275e-08 0)
(1.1584388 -1.980373e-08 0)
(1.1584388 -1.8598255e-08 0)
(1.1584388 -1.7341362e-08 0)
(1.1584388 -1.5831254e-08 0)
(1.1584388 -1.4411393e-08 0)
(1.1584388 -1.2855536e-08 0)
(1.1584388 -1.1467314e-08 0)
(1.1584388 -9.9906756e-09 0)
(1.1584388 -8.7321507e-09 0)
(1.1584388 -7.4368955e-09 0)
(1.1584389 -6.3834915e-09 0)
(1.1584389 -5.2963891e-09 0)
(1.1584389 -4.4625597e-09 0)
(1.1584389 -3.6108735e-09 0)
(1.1584389 -3.0011472e-09 0)
(1.1584389 -2.3460165e-09 0)
(1.1584389 -1.9184458e-09 0)
(1.1584389 -1.4436424e-09 0)
(1.1584389 -1.1719122e-09 0)
(1.1584389 -8.1281573e-10 0)
(1.1584389 -6.3844427e-10 0)
(1.1584389 -3.7315366e-10 0)
(1.1584389 -2.6481771e-10 0)
(1.1584389 -3.0938494e-11 0)
(1.1584389 6.0840434e-11 0)
(1.1584389 2.8156318e-10 0)
(1.1584389 3.4866461e-10 0)
(1.1584389 6.0182054e-10 0)
(1.1584389 5.9025103e-10 0)
(1.1584389 9.7155592e-10 0)
(1.1584389 4.7883568e-10 0)
(1.1584389 1.6911052e-09 0)
(1.1584389 -1.1756503e-09 0)
(1.1584388 4.7462668e-09 0)
(1.1584389 -9.2278359e-09 0)
(1.1584388 2.0083665e-08 0)
(1.1584391 -4.3305258e-08 0)
(1.1584384 8.7228015e-08 0)
(1.1584398 -1.7593204e-07 0)
(1.158437 3.4004727e-07 0)
(1.1584425 -6.303109e-07 0)
(1.1584318 1.1432789e-06 0)
(1.1584522 -1.9285348e-06 0)
(1.1584144 3.1755507e-06 0)
(1.1584821 -4.7209687e-06 0)
(1.1583651 6.6914185e-06 0)
(1.1585594 -7.9708949e-06 0)
(1.1582508 8.3043717e-06 0)
(1.1587172 -4.4012789e-06 0)
(1.1580511 -2.9402788e-06 0)
(1.1589416 1.8497448e-05 0)
(1.1578395 -3.2204359e-05 0)
(1.1590787 4.5373581e-05 0)
(1.1578371 -3.5108492e-05 0)
(1.1588847 3.000334e-06 0)
(1.1581611 3.0290385e-05 0)
(1.1584539 -8.3684958e-05 0)
(1.1583903 4.6478204e-06 0)
(1.1583871 -7.3131865e-05 0)
(1.0005262 0.011726669 0)
(1.0180653 0.030567406 0)
(1.0443702 0.040760526 0)
(1.0765771 0.043765865 0)
(1.1120004 0.043326873 0)
(1.142991 0.041113741 0)
(1.1659051 0.036800561 0)
(1.1837889 0.030569943 0)
(1.1987135 0.023725078 0)
(1.2096145 0.017457358 0)
(1.2160697 0.012211322 0)
(1.2194562 0.0080457423 0)
(1.2212473 0.0049510135 0)
(1.2221487 0.002832577 0)
(1.2224735 0.0014967217 0)
(1.2224784 0.00070629356 0)
(1.2223686 0.00027225969 0)
(1.2222435 6.1682852e-05 0)
(1.2221357 -2.5989911e-05 0)
(1.222057 -5.1971798e-05 0)
(1.2220036 -5.0656849e-05 0)
(1.2219696 -3.9923056e-05 0)
(1.2219493 -2.8098607e-05 0)
(1.2219377 -1.8333547e-05 0)
(1.2219315 -1.1289356e-05 0)
(1.2219282 -6.6247061e-06 0)
(1.2219266 -3.7241924e-06 0)
(1.2219259 -2.011784e-06 0)
(1.2219256 -1.045642e-06 0)
(1.2219255 -5.247832e-07 0)
(1.2219255 -2.5664207e-07 0)
(1.2219255 -1.2633431e-07 0)
(1.2219255 -6.643866e-08 0)
(1.2219255 -4.1831996e-08 0)
(1.2219255 -3.2648081e-08 0)
(1.2219256 -3.0340682e-08 0)
(1.2219256 -2.9831146e-08 0)
(1.2219256 -3.0010428e-08 0)
(1.2219256 -2.9533567e-08 0)
(1.2219256 -2.8958134e-08 0)
(1.2219256 -2.764522e-08 0)
(1.2219256 -2.6390175e-08 0)
(1.2219256 -2.4587783e-08 0)
(1.2219256 -2.3001096e-08 0)
(1.2219256 -2.0991682e-08 0)
(1.2219256 -1.9301617e-08 0)
(1.2219256 -1.7259878e-08 0)
(1.2219256 -1.5598372e-08 0)
(1.2219256 -1.3639599e-08 0)
(1.2219256 -1.2122352e-08 0)
(1.2219256 -1.0351271e-08 0)
(1.2219256 -9.0488482e-09 0)
(1.2219256 -7.5197959e-09 0)
(1.2219256 -6.4858228e-09 0)
(1.2219256 -5.2311486e-09 0)
(1.2219256 -4.4642948e-09 0)
(1.2219256 -3.4665104e-09 0)
(1.2219256 -2.9501986e-09 0)
(1.2219256 -2.1801373e-09 0)
(1.2219256 -1.8611882e-09 0)
(1.2219256 -1.2599682e-09 0)
(1.2219256 -1.0898657e-09 0)
(1.2219256 -6.0845344e-10 0)
(1.2219256 -5.2247468e-10 0)
(1.2219256 -9.7316818e-11 0)
(1.2219256 -5.5540763e-11 0)
(1.2219256 3.4715445e-10 0)
(1.2219256 3.7780289e-10 0)
(1.2219256 7.9688272e-10 0)
(1.2219256 7.5082483e-10 0)
(1.2219256 1.2559929e-09 0)
(1.2219256 8.1905585e-10 0)
(1.2219256 1.8753548e-09 0)
(1.2219256 -3.9068714e-10 0)
(1.2219256 3.890572e-09 0)
(1.2219257 -6.3044677e-09 0)
(1.2219255 1.3986437e-08 0)
(1.2219259 -2.9861506e-08 0)
(1.2219251 5.7796703e-08 0)
(1.2219268 -1.1615429e-07 0)
(1.2219232 2.172021e-07 0)
(1.2219303 -3.9428982e-07 0)
(1.2219166 6.9538324e-07 0)
(1.2219425 -1.1304815e-06 0)
(1.2218952 1.8013329e-06 0)
(1.2219787 -2.5273222e-06 0)
(1.2218367 3.4003468e-06 0)
(1.2220689 -3.5880988e-06 0)
(1.2217061 3.2053702e-06 0)
(1.2222453 -1.5255347e-07 0)
(1.2214895 -4.0587943e-06 0)
(1.2224803 1.2078066e-05 0)
(1.2212807 -1.6985017e-05 0)
(1.2225951 1.9541733e-05 0)
(1.221317 -1.1884376e-05 0)
(1.2223457 -1.0887314e-05 0)
(1.2216834 1.7162964e-05 0)
(1.2218808 -4.7283389e-05 0)
(1.2218937 -1.1947641e-05 0)
(1.221829 -4.7512326e-05 0)
(1.000372 0.0034354436 0)
(1.0139425 0.0092462254 0)
(1.0351004 0.012806951 0)
(1.0639104 0.014128549 0)
(1.0987138 0.014213295 0)
(1.1309629 0.013690827 0)
(1.1562526 0.012515296 0)
(1.1775017 0.010670693 0)
(1.1965185 0.0085066153 0)
(1.2116026 0.00642244 0)
(1.2217574 0.0046125867 0)
(1.2281297 0.0031323387 0)
(1.232193 0.0019993755 0)
(1.2347229 0.0011981484 0)
(1.236134 0.00067200543 0)
(1.2368146 0.00034773399 0)
(1.237096 0.00016087907 0)
(1.2371848 5.9190298e-05 0)
(1.237186 1.185538e-05 0)
(1.2371541 -7.0763343e-06 0)
(1.2371169 -1.2297159e-05 0)
(1.2370857 -1.1592094e-05 0)
(1.2370629 -8.9706122e-06 0)
(1.2370477 -6.2374073e-06 0)
(1.2370382 -4.0359764e-06 0)
(1.2370326 -2.4729618e-06 0)
(1.2370294 -1.4497658e-06 0)
(1.2370276 -8.1946547e-07 0)
(1.2370267 -4.5073687e-07 0)
(1.2370263 -2.4509907e-07 0)
(1.2370261 -1.3602493e-07 0)
(1.237026 -8.1085349e-08 0)
(1.2370259 -5.5197355e-08 0)
(1.2370259 -4.380798e-08 0)
(1.2370259 -3.8979328e-08 0)
(1.237026 -3.6717563e-08 0)
(1.237026 -3.531152e-08 0)
(1.237026 -3.3911178e-08 0)
(1.237026 -3.2389534e-08 0)
(1.237026 -3.0638416e-08 0)
(1.237026 -2.883717e-08 0)
(1.237026 -2.6933198e-08 0)
(1.237026 -2.5067477e-08 0)
(1.237026 -2.3155016e-08 0)
(1.237026 -2.13217e-08 0)
(1.2370259 -1.9460198e-08 0)
(1.2370259 -1.7674745e-08 0)
(1.2370259 -1.5870352e-08 0)
(1.2370259 -1.4174003e-08 0)
(1.2370259 -1.249498e-08 0)
(1.2370259 -1.0944031e-08 0)
(1.2370259 -9.4401565e-09 0)
(1.2370259 -8.1047022e-09 0)
(1.2370259 -6.8428417e-09 0)
(1.2370259 -5.7531755e-09 0)
(1.2370259 -4.7404166e-09 0)
(1.2370259 -3.91025e-09 0)
(1.2370259 -3.1508797e-09 0)
(1.2370259 -2.5420575e-09 0)
(1.2370259 -1.977586e-09 0)
(1.2370259 -1.5529734e-09 0)
(1.2370259 -1.149538e-09 0)
(1.2370259 -8.3588305e-10 0)
(1.2370259 -5.148619e-10 0)
(1.2370259 -2.6483795e-10 0)
(1.2370259 4.2610656e-12 0)
(1.2370259 2.395225e-10 0)
(1.2370259 5.1356957e-10 0)
(1.2370259 7.4292157e-10 0)
(1.2370259 9.7311968e-10 0)
(1.2370259 1.1980092e-09 0)
(1.2370259 1.2279467e-09 0)
(1.2370259 1.5126886e-09 0)
(1.237026 7.2080735e-10 0)
(1.2370259 1.8853396e-09 0)
(1.237026 -1.833426e-09 0)
(1.2370258 4.4708795e-09 0)
(1.2370262 -1.0578488e-08 0)
(1.2370253 1.7749369e-08 0)
(1.2370272 -3.9319475e-08 0)
(1.2370233 6.8093061e-08 0)
(1.2370311 -1.2603899e-07 0)
(1.2370162 2.1646833e-07 0)
(1.237044 -3.4382166e-07 0)
(1.2369936 5.404008e-07 0)
(1.2370821 -7.2405583e-07 0)
(1.2369324 9.4809914e-07 0)
(1.2371758 -8.9914746e-07 0)
(1.236798 7.0087707e-07 0)
(1.2373559 3.7411464e-07 0)
(1.2365788 -1.5875943e-06 0)
(1.2375914 3.8319098e-06 0)
(1.2363721 -4.8829067e-06 0)
(1.2377 4.7762282e-06 0)
(1.2364145 -2.5555283e-06 0)
(1.2374399 -5.2461334e-06 0)
(1.2367884 4.8079032e-06 0)
(1.2369621 -1.4121385e-05 0)
(1.2369954 -5.8891277e-06 0)
(1.2369099 -1.6037314e-05 0)
(1.000372 -0.00343554 0)
(1.0139425 -0.0092463367 0)
(1.0351004 -0.012807049 0)
(1.0639104 -0.014128643 0)
(1.0987138 -0.014213392 0)
(1.130963 -0.013690906 0)
(1.1562526 -0.012515326 0)
(1.1775017 -0.010670661 0)
(1.1965185 -0.0085065461 0)
(1.2116026 -0.006422377 0)
(1.2217573 -0.0046125681 0)
(1.2281297 -0.0031323719 0)
(1.232193 -0.0019994364 0)
(1.2347229 -0.0011981917 0)
(1.2361341 -0.00067199149 0)
(1.2368146 -0.00034764528 0)
(1.2370961 -0.00016072335 0)
(1.2371849 -5.9002685e-05 0)
(1.2371861 -1.168024e-05 0)
(1.2371542 7.2091186e-06 0)
(1.237117 1.2369412e-05 0)
(1.2370858 1.1603676e-05 0)
(1.237063 8.9328734e-06 0)
(1.2370479 6.1692281e-06 0)
(1.2370384 3.9538911e-06 0)
(1.2370327 2.3903357e-06 0)
(1.2370295 1.3723131e-06 0)
(1.2370277 7.4938927e-07 0)
(1.2370268 3.851707e-07 0)
(1.2370264 1.818313e-07 0)
(1.2370262 7.1326719e-08 0)
(1.2370261 1.4308498e-08 0)
(1.237026 -1.4926062e-08 0)
(1.237026 -2.8016877e-08 0)
(1.237026 -3.3853412e-08 0)
(1.237026 -3.4508783e-08 0)
(1.237026 -3.3915524e-08 0)
(1.237026 -3.137869e-08 0)
(1.237026 -2.9355712e-08 0)
(1.237026 -2.6383603e-08 0)
(1.237026 -2.4476245e-08 0)
(1.237026 -2.1877981e-08 0)
(1.237026 -2.0409786e-08 0)
(1.237026 -1.8225366e-08 0)
(1.237026 -1.7114534e-08 0)
(1.237026 -1.5189955e-08 0)
(1.237026 -1.4253211e-08 0)
(1.237026 -1.2443728e-08 0)
(1.237026 -1.1610261e-08 0)
(1.237026 -9.887778e-09 0)
(1.237026 -9.1382534e-09 0)
(1.237026 -7.5217006e-09 0)
(1.237026 -6.9195685e-09 0)
(1.237026 -5.4668838e-09 0)
(1.2370259 -5.0387901e-09 0)
(1.2370259 -3.7728906e-09 0)
(1.2370259 -3.550787e-09 0)
(1.2370259 -2.4749302e-09 0)
(1.2370259 -2.4220888e-09 0)
(1.2370259 -1.4982119e-09 0)
(1.2370259 -1.5945729e-09 0)
(1.2370259 -7.873073e-10 0)
(1.2370259 -9.651479e-10 0)
(1.2370259 -2.1657445e-10 0)
(1.2370259 -4.4859361e-10 0)
(1.2370259 2.7327269e-10 0)
(1.2370259 5.0626265e-11 0)
(1.2370259 7.7513517e-10 0)
(1.2370259 5.2705207e-10 0)
(1.2370259 1.2494063e-09 0)
(1.2370259 8.903808e-10 0)
(1.2370259 1.6170703e-09 0)
(1.2370259 7.9521411e-10 0)
(1.237026 1.7689731e-09 0)
(1.2370259 -5.4900643e-10 0)
(1.237026 2.6260984e-09 0)
(1.2370258 -5.448069e-09 0)
(1.2370262 8.5878735e-09 0)
(1.2370253 -2.171892e-08 0)
(1.2370272 3.4857539e-08 0)
(1.2370234 -7.3271563e-08 0)
(1.2370311 1.2259903e-07 0)
(1.2370162 -2.1785553e-07 0)
(1.237044 3.463073e-07 0)
(1.2369936 -5.3530819e-07 0)
(1.2370821 7.3100244e-07 0)
(1.2369324 -9.4252399e-07 0)
(1.2371758 9.0171851e-07 0)
(1.236798 -7.0329708e-07 0)
(1.2373559 -3.8034161e-07 0)
(1.2365788 1.5789398e-06 0)
(1.2375914 -3.8384633e-06 0)
(1.2363721 4.8803863e-06 0)
(1.2377 -4.7717453e-06 0)
(1.2364145 2.564548e-06 0)
(1.2374399 5.2577884e-06 0)
(1.2367884 -4.8015297e-06 0)
(1.2369621 1.4121368e-05 0)
(1.2369954 5.8778985e-06 0)
(1.2369099 1.6018974e-05 0)
(1.0005262 -0.011726772 0)
(1.0180653 -0.030567516 0)
(1.0443702 -0.040760616 0)
(1.0765771 -0.043765942 0)
(1.1120004 -0.043326937 0)
(1.142991 -0.041113773 0)
(1.1659051 -0.036800536 0)
(1.1837889 -0.030569868 0)
(1.1987134 -0.023724991 0)
(1.2096145 -0.017457309 0)
(1.2160697 -0.012211341 0)
(1.2194562 -0.0080458263 0)
(1.2212474 -0.0049511219 0)
(1.2221488 -0.0028326567 0)
(1.2224736 -0.0014967272 0)
(1.2224786 -0.00070620637 0)
(1.2223688 -0.00027210121 0)
(1.2222437 -6.1495288e-05 0)
(1.2221359 2.6158808e-05 0)
(1.2220572 5.2093211e-05 0)
(1.2220038 5.071569e-05 0)
(1.2219699 3.992143e-05 0)
(1.2219496 2.8052202e-05 0)
(1.2219381 1.8261237e-05 0)
(1.2219318 1.1209504e-05 0)
(1.2219285 6.5484245e-06 0)
(1.2219269 3.6573901e-06 0)
(1.2219262 1.9535359e-06 0)
(1.2219259 9.9350272e-07 0)
(1.2219257 4.7392369e-07 0)
(1.2219257 2.0476688e-07 0)
(1.2219257 7.0159556e-08 0)
(1.2219257 7.3782427e-09 0)
(1.2219257 -1.9703592e-08 0)
(1.2219257 -2.9074034e-08 0)
(1.2219257 -3.0918687e-08 0)
(1.2219257 -2.8769098e-08 0)
(1.2219257 -2.5794952e-08 0)
(1.2219257 -2.2108501e-08 0)
(1.2219257 -1.9177813e-08 0)
(1.2219257 -1.6218034e-08 0)
(1.2219257 -1.4243009e-08 0)
(1.2219257 -1.2237185e-08 0)
(1.2219257 -1.1092486e-08 0)
(1.2219257 -9.7351414e-09 0)
(1.2219257 -9.0438867e-09 0)
(1.2219257 -7.9870884e-09 0)
(1.2219257 -7.4877215e-09 0)
(1.2219257 -6.5382656e-09 0)
(1.2219257 -6.093072e-09 0)
(1.2219256 -5.1844262e-09 0)
(1.2219256 -4.7923564e-09 0)
(1.2219256 -3.9451806e-09 0)
(1.2219256 -3.6245442e-09 0)
(1.2219256 -2.8646786e-09 0)
(1.2219256 -2.6497652e-09 0)
(1.2219256 -1.990192e-09 0)
(1.2219256 -1.8662076e-09 0)
(1.2219256 -1.2981424e-09 0)
(1.2219256 -1.2655242e-09 0)
(1.2219256 -7.6777678e-10 0)
(1.2219256 -7.8047732e-10 0)
(1.2219256 -3.2267328e-10 0)
(1.2219256 -3.7447122e-10 0)
(1.2219256 6.3060659e-11 0)
(1.2219256 1.9526098e-11 0)
(1.2219256 4.6027166e-10 0)
(1.2219256 4.0965112e-10 0)
(1.2219256 8.1991711e-10 0)
(1.2219256 7.9347221e-10 0)
(1.2219256 1.004855e-09 0)
(1.2219256 1.1430665e-09 0)
(1.2219256 4.413146e-10 0)
(1.2219256 1.9204192e-09 0)
(1.2219256 -2.6228315e-09 0)
(1.2219257 6.1966894e-09 0)
(1.2219255 -1.4868689e-08 0)
(1.2219259 2.7265577e-08 0)
(1.2219251 -6.1109275e-08 0)
(1.2219268 1.1167743e-07 0)
(1.2219233 -2.2105332e-07 0)
(1.2219303 3.9138386e-07 0)
(1.2219166 -6.9532416e-07 0)
(1.2219425 1.1332371e-06 0)
(1.2218952 -1.7957167e-06 0)
(1.2219787 2.5332885e-06 0)
(1.2218367 -3.3956706e-06 0)
(1.2220689 3.5885455e-06 0)
(1.2217061 -3.2090453e-06 0)
(1.2222453 1.4477584e-07 0)
(1.2214895 4.0505713e-06 0)
(1.2224803 -1.2084572e-05 0)
(1.2212807 1.6984413e-05 0)
(1.2225951 -1.9536275e-05 0)
(1.221317 1.1894663e-05 0)
(1.2223457 1.0899324e-05 0)
(1.2216834 -1.7157106e-05 0)
(1.2218807 4.7282696e-05 0)
(1.2218937 1.1935141e-05 0)
(1.2218289 4.7493958e-05 0)
(1.0012183 -0.026682716 0)
(1.0293752 -0.062517117 0)
(1.0639604 -0.076948328 0)
(1.0962356 -0.078323407 0)
(1.1245859 -0.074621158 0)
(1.1450999 -0.068222775 0)
(1.156473 -0.058397858 0)
(1.1625304 -0.046002536 0)
(1.166117 -0.033696356 0)
(1.1672682 -0.023351358 0)
(1.1662264 -0.015309576 0)
(1.1642785 -0.0093422593 0)
(1.1624698 -0.0052160603 0)
(1.1610782 -0.0026081262 0)
(1.160064 -0.0011092919 0)
(1.1593679 -0.00033224489 0)
(1.1589213 2.3280102e-05 0)
(1.1586641 0.00014792814 0)
(1.1585322 0.00016437594 0)
(1.1584686 0.00013754247 0)
(1.158441 0.00010046734 0)
(1.1584315 6.7343108e-05 0)
(1.1584301 4.2356201e-05 0)
(1.1584316 2.5279083e-05 0)
(1.1584337 1.4401141e-05 0)
(1.1584355 7.8498274e-06 0)
(1.1584369 4.0923698e-06 0)
(1.1584377 2.0309504e-06 0)
(1.1584383 9.4797366e-07 0)
(1.1584386 4.0367376e-07 0)
(1.1584388 1.449061e-07 0)
(1.1584389 2.9419805e-08 0)
(1.1584389 -1.588217e-08 0)
(1.158439 -3.0549884e-08 0)
(1.158439 -3.1218142e-08 0)
(1.158439 -2.7977481e-08 0)
(1.158439 -2.2485226e-08 0)
(1.158439 -1.8057975e-08 0)
(1.1584389 -1.3393878e-08 0)
(1.1584389 -1.0474027e-08 0)
(1.1584389 -7.4177124e-09 0)
(1.1584389 -5.9990607e-09 0)
(1.1584389 -4.2343464e-09 0)
(1.1584389 -3.8280338e-09 0)
(1.1584389 -2.7837046e-09 0)
(1.1584389 -2.8797814e-09 0)
(1.1584389 -2.1737962e-09 0)
(1.1584389 -2.4602312e-09 0)
(1.1584389 -1.8201613e-09 0)
(1.1584389 -2.1324989e-09 0)
(1.1584389 -1.5139245e-09 0)
(1.1584389 -1.8316582e-09 0)
(1.1584389 -1.1878094e-09 0)
(1.1584389 -1.5023426e-09 0)
(1.1584389 -8.8436178e-10 0)
(1.1584389 -1.2195754e-09 0)
(1.1584389 -5.9532729e-10 0)
(1.1584389 -9.395097e-10 0)
(1.1584389 -3.4959824e-10 0)
(1.1584389 -7.1542941e-10 0)
(1.1584389 -1.1083801e-10 0)
(1.1584389 -4.7073387e-10 0)
(1.1584389 1.135641e-10 0)
(1.1584389 -2.494723e-10 0)
(1.1584389 3.6259781e-10 0)
(1.1584389 1.3844646e-11 0)
(1.1584389 5.9990248e-10 0)
(1.1584389 2.4409498e-10 0)
(1.1584389 8.0753658e-10 0)
(1.1584389 4.7169653e-10 0)
(1.1584389 7.7120205e-10 0)
(1.1584389 6.9517469e-10 0)
(1.1584389 -1.1123497e-10 0)
(1.1584389 1.8399309e-09 0)
(1.1584389 -4.1812247e-09 0)
(1.1584389 8.5017584e-09 0)
(1.1584388 -2.1154896e-08 0)
(1.1584391 4.0875263e-08 0)
(1.1584385 -8.9643722e-08 0)
(1.1584398 1.7278279e-07 0)
(1.1584371 -3.4195077e-07 0)
(1.1584425 6.2924084e-07 0)
(1.1584318 -1.1418052e-06 0)
(1.1584522 1.9315595e-06 0)
(1.1584144 -3.1709375e-06 0)
(1.1584821 4.7248037e-06 0)
(1.1583651 -6.6893345e-06 0)
(1.1585594 7.9690928e-06 0)
(1.1582508 -8.3088996e-06 0)
(1.1587172 4.3940111e-06 0)
(1.1580511 2.9340405e-06 0)
(1.1589416 -1.850155e-05 0)
(1.1578395 3.2205977e-05 0)
(1.1590787 -4.5367363e-05 0)
(1.1578371 3.5117868e-05 0)
(1.1588847 -2.9914958e-06 0)
(1.1581611 -3.0287592e-05 0)
(1.1584538 8.3681899e-05 0)
(1.1583903 -4.6599615e-06 0)
(1.158387 7.3116692e-05 0)
(1.0014998 -0.053693314 0)
(1.0363152 -0.10122861 0)
(1.0587332 -0.11024861 0)
(1.061555 -0.10361082 0)
(1.0530943 -0.092385147 0)
(1.0380135 -0.078967542 0)
(1.0190106 -0.062620603 0)
(1.0004553 -0.044992257 0)
(0.98502487 -0.029529512 0)
(0.97283502 -0.01799418 0)
(0.96359998 -0.010077548 0)
(0.9572223 -0.0049424138 0)
(0.95332913 -0.0019027517 0)
(0.95120042 -0.00036030686 0)
(0.95011926 0.00028127281 0)
(0.94964494 0.00045477737 0)
(0.94950192 0.00042544203 0)
(0.94951257 0.00033228762 0)
(0.94957647 0.00023212254 0)
(0.94964552 0.00014971854 0)
(0.94970207 9.0751524e-05 0)
(0.94974276 5.2182839e-05 0)
(0.94976972 2.8563182e-05 0)
(0.9497865 1.4867048e-05 0)
(0.94979641 7.3135119e-06 0)
(0.949802 3.3528848e-06 0)
(0.94980502 1.3864184e-06 0)
(0.94980658 4.7291907e-07 0)
(0.94980735 8.7586897e-08 0)
(0.9498077 -5.0476078e-08 0)
(0.94980785 -8.3985016e-08 0)
(0.94980791 -7.7111461e-08 0)
(0.94980792 -6.0406605e-08 0)
(0.94980791 -4.3458773e-08 0)
(0.9498079 -3.0327182e-08 0)
(0.94980789 -2.002935e-08 0)
(0.94980788 -1.3200938e-08 0)
(0.94980787 -7.9175342e-09 0)
(0.94980786 -4.8140272e-09 0)
(0.94980786 -2.1868154e-09 0)
(0.94980785 -9.8136004e-10 0)
(0.94980785 2.5663588e-10 0)
(0.94980785 4.4050925e-10 0)
(0.94980785 9.8461089e-10 0)
(0.94980785 7.3356507e-10 0)
(0.94980784 9.7452347e-10 0)
(0.94980784 5.3441854e-10 0)
(0.94980784 7.2027461e-10 0)
(0.94980784 2.9550413e-10 0)
(0.94980784 4.8626572e-10 0)
(0.94980784 5.8510281e-11 0)
(0.94980784 2.9973927e-10 0)
(0.94980784 -6.2330583e-11 0)
(0.94980784 2.0177951e-10 0)
(0.94980784 -1.5982705e-10 0)
(0.94980784 1.4301852e-10 0)
(0.94980784 -1.6565589e-10 0)
(0.94980784 1.4043207e-10 0)
(0.94980783 -1.8217521e-10 0)
(0.94980783 1.5698749e-10 0)
(0.94980783 -1.2110573e-10 0)
(0.94980783 2.1924993e-10 0)
(0.94980783 -7.6515776e-11 0)
(0.94980783 2.9594843e-10 0)
(0.94980783 3.3896253e-11 0)
(0.94980783 3.9374835e-10 0)
(0.94980783 8.77426e-11 0)
(0.94980784 4.565935e-10 0)
(0.94980784 1.373472e-10 0)
(0.94980784 4.8049627e-10 0)
(0.94980784 -4.8961772e-11 0)
(0.94980784 5.2173584e-10 0)
(0.94980783 -7.2261308e-10 0)
(0.94980784 1.3479997e-09 0)
(0.94980783 -3.5988613e-09 0)
(0.94980785 6.6447117e-09 0)
(0.94980779 -1.6188316e-08 0)
(0.94980793 3.286522e-08 0)
(0.94980763 -7.0778209e-08 0)
(0.94980828 1.4334192e-07 0)
(0.94980692 -2.8731638e-07 0)
(0.94980969 5.4936548e-07 0)
(0.94980414 -1.0332495e-06 0)
(0.94981493 1.8224902e-06 0)
(0.94979452 -3.1489739e-06 0)
(0.94983183 4.994951e-06 0)
(0.94976579 -7.6149795e-06 0)
(0.94987816 1.0197372e-05 0)
(0.94969448 -1.2427809e-05 0)
(0.94998078 1.097927e-05 0)
(0.94955616 -5.0636987e-06 0)
(0.95014864 -1.1858112e-05 0)
(0.94937373 3.3402831e-05 0)
(0.95030601 -6.3040417e-05 0)
(0.94927922 6.633095e-05 0)
(0.95026678 -4.70483e-05 0)
(0.949432 -1.9753501e-05 0)
(0.94995339 9.4364858e-05 0)
(0.94967572 -4.7355965e-05 0)
(0.94983025 8.0823352e-05 0)
(0.91891689 -0.035772636 0)
(0.86292662 -0.06230028 0)
(0.78626465 -0.06219546 0)
(0.69600903 -0.052950089 0)
(0.61564846 -0.04211071 0)
(0.55226603 -0.030939648 0)
(0.50535955 -0.019750599 0)
(0.4733876 -0.010446432 0)
(0.45329127 -0.0044698153 0)
(0.44144531 -0.0013445777 0)
(0.43501542 0.00012795763 0)
(0.43202057 0.00073419388 0)
(0.43101904 0.00084936102 0)
(0.4310064 0.00069744819 0)
(0.43136061 0.00049007727 0)
(0.43177272 0.00031930124 0)
(0.43212244 0.00019610025 0)
(0.43238074 0.00011389456 0)
(0.43255493 6.2219583e-05 0)
(0.43266441 3.1818496e-05 0)
(0.43272927 1.5100778e-05 0)
(0.43276573 6.488287e-06 0)
(0.43278522 2.3473915e-06 0)
(0.43279508 5.2680512e-07 0)
(0.43279976 -1.6519531e-07 0)
(0.43280178 -3.5048362e-07 0)
(0.43280253 -3.3697835e-07 0)
(0.43280273 -2.6360546e-07 0)
(0.4328027 -1.8346912e-07 0)
(0.43280262 -1.1857944e-07 0)
(0.43280252 -7.3633756e-08 0)
(0.43280245 -4.4318533e-08 0)
(0.4328024 -2.6506759e-08 0)
(0.43280237 -1.5192392e-08 0)
(0.43280234 -8.7043633e-09 0)
(0.43280233 -4.322934e-09 0)
(0.43280232 -2.1500162e-09 0)
(0.43280232 -4.6511756e-10 0)
(0.43280231 7.8760055e-11 0)
(0.43280231 8.0617958e-10 0)
(0.43280231 7.2919661e-10 0)
(0.43280231 1.0438886e-09 0)
(0.43280231 7.4271279e-10 0)
(0.43280231 9.6278811e-10 0)
(0.43280231 5.8826108e-10 0)
(0.43280232 7.3549187e-10 0)
(0.43280232 3.6571895e-10 0)
(0.43280232 5.751869e-10 0)
(0.43280232 2.2434924e-10 0)
(0.43280232 4.1270772e-10 0)
(0.43280232 8.4498555e-11 0)
(0.43280232 3.425151e-10 0)
(0.43280232 2.6706496e-11 0)
(0.43280232 2.5618084e-10 0)
(0.43280232 -4.053712e-11 0)
(0.43280232 2.4593598e-10 0)
(0.43280232 -4.5951661e-11 0)
(0.43280232 1.9835635e-10 0)
(0.43280232 -8.1545666e-11 0)
(0.43280232 2.1622543e-10 0)
(0.43280232 -6.6252314e-11 0)
(0.43280232 1.8792362e-10 0)
(0.43280232 -8.7450607e-11 0)
(0.43280232 2.1377252e-10 0)
(0.43280232 -7.2470667e-11 0)
(0.43280232 1.7775823e-10 0)
(0.43280232 -1.1211797e-10 0)
(0.43280232 1.7952958e-10 0)
(0.43280232 -1.3548078e-10 0)
(0.43280232 1.0118837e-10 0)
(0.43280232 -2.3215885e-10 0)
(0.43280232 1.3662924e-10 0)
(0.43280232 -3.4962585e-10 0)
(0.43280232 3.8404037e-10 0)
(0.43280232 -9.4885534e-10 0)
(0.43280232 1.9220132e-09 0)
(0.43280231 -3.810534e-09 0)
(0.43280234 8.8857944e-09 0)
(0.43280228 -1.7795324e-08 0)
(0.43280242 3.7614734e-08 0)
(0.43280212 -7.6567651e-08 0)
(0.43280272 1.4654727e-07 0)
(0.43280151 -2.8783004e-07 0)
(0.43280385 5.1235795e-07 0)
(0.43279937 -9.2982206e-07 0)
(0.43280755 1.5273114e-06 0)
(0.43279296 -2.4969647e-06 0)
(0.43281777 3.6343838e-06 0)
(0.43277684 -5.1276001e-06 0)
(0.43284089 5.9403711e-06 0)
(0.43274388 -6.2450479e-06 0)
(0.43288218 2.7539875e-06 0)
(0.43268855 2.448717e-06 0)
(0.43294227 -1.7696869e-05 0)
(0.43260546 2.7258331e-05 0)
(0.43301367 -4.5132083e-05 0)
(0.43249617 2.8566454e-05 0)
(0.4330252 1.2465847e-05 0)
(0.43252337 -2.1858753e-05 0)
(0.43290931 0.00010616597 0)
)
;

boundaryField
{
    top
    {
        type            fixedValue;
        value           uniform (0 0 0);
    }
    inlet
    {
        type            fixedValue;
        value           uniform (1 0 0);
    }
    outlet
    {
        type            zeroGradient;
    }
    bottom
    {
        type            fixedValue;
        value           uniform (0 0 0);
    }
    back
    {
        type            empty;
    }
    front
    {
        type            empty;
    }
}


// ************************************************************************* //
