/*--------------------------------*- C++ -*----------------------------------*\
| =========                 |                                                 |
| \\      /  F ield         | OpenFOAM: The Open Source CFD Toolbox           |
|  \\    /   O peration     | Version:  2112                                  |
|   \\  /    A nd           | Website:  www.openfoam.com                      |
|    \\/     M anipulation  |                                                 |
\*---------------------------------------------------------------------------*/
FoamFile
{
    version     2.0;
    format      ascii;
    arch        "LSB;label=32;scalar=64";
    class       surfaceScalarField;
    location    "19";
    object      phi;
}
// * * * * * * * * * * * * * * * * * * * * * * * * * * * * * * * * * * * * * //

dimensions      [0 3 -1 0 0 0 0];

oriented        oriented;

internalField   nonuniform List<scalar> 
1890
(
0.0093061957
0.00069380425
0.0082843931
0.0010218027
0.0073298986
0.00095449449
0.0064869553
0.00084294334
0.0057695845
0.0007173708
0.00518986
0.00057972444
0.004738168
0.00045169205
0.00439519
0.00034297801
0.0041390268
0.00025616318
0.003949107
0.00018991983
0.003807888
0.00014121897
0.0037013782
0.00010650979
0.003619058
8.232022e-05
0.0035534117
6.5646245e-05
0.0034992845
5.4127256e-05
0.0034532444
4.604005e-05
0.0034130501
4.0194294e-05
0.0033772574
3.5792757e-05
0.0033449386
3.2318758e-05
0.0033154893
2.9449278e-05
0.0032885008
2.6988572e-05
0.0032636805
2.4820296e-05
0.003240805
2.2875476e-05
0.0032196926
2.1112417e-05
0.0032001879
1.950466e-05
0.0031821539
1.8034025e-05
0.0031654671
1.6686737e-05
0.0031500158
1.5451372e-05
0.0031356979
1.4317865e-05
0.0031224208
1.3277068e-05
0.0031101003
1.2320583e-05
0.0030986595
1.144071e-05
0.0030880291
1.0630425e-05
0.0030781458
9.8833609e-06
0.003068952
9.1937737e-06
0.0030603955
8.5565049e-06
0.0030524286
7.9669319e-06
0.0030450076
7.420917e-06
0.0030380929
6.9147558e-06
0.0030316478
6.4451272e-06
0.0030256387
6.0090473e-06
0.0030200349
5.60383e-06
0.0030148078
5.227051e-06
0.0030099313
4.8765177e-06
0.0030053811
4.5502401e-06
0.0030011347
4.2464059e-06
0.0029971713
3.9633606e-06
0.0029934717
3.6995904e-06
0.002990018
3.4537085e-06
0.0029867936
3.2244415e-06
0.0029837829
3.0106176e-06
0.0029809718
2.8111563e-06
0.0029783467
2.6250595e-06
0.0029758953
2.4514035e-06
0.002973606
2.2893326e-06
0.0029714679
2.1380547e-06
0.0029694711
1.9968368e-06
0.0029676061
1.8649994e-06
0.0029658642
1.7419103e-06
0.0029642372
1.6269805e-06
0.0029627175
1.5196613e-06
0.0029612981
1.419443e-06
0.0029599723
1.3258514e-06
0.0029587338
1.2384447e-06
0.002957577
1.1568119e-06
0.0029564964
1.0805686e-06
0.0029554871
1.0093575e-06
0.0029545442
9.4284337e-07
0.0029536635
8.8071592e-07
0.0029528408
8.2268395e-07
0.0029520723
7.6848038e-07
0.0029513545
7.1785047e-07
0.0029506839
6.7056283e-07
0.0029500575
6.2638876e-07
0.0029494724
5.8512827e-07
0.0029489258
5.4657589e-07
0.0029484153
5.1056815e-07
0.0029479383
4.7692002e-07
0.0029474928
4.4550641e-07
0.0029470767
4.1615181e-07
0.0029466879
3.8876459e-07
0.0029463248
3.6314132e-07
0.0029459855
3.3922792e-07
0.0029456687
3.1681976e-07
0.0029453728
2.9599845e-07
0.0029450963
2.7648896e-07
0.0029448379
2.5838534e-07
0.0029445966
2.4122558e-07
0.0029443712
2.2537974e-07
0.0029441609
2.1035108e-07
0.0029439641
1.9678879e-07
0.0029437805
1.8369833e-07
0.0029436085
1.7197011e-07
0.0029434481
1.6031789e-07
0.0029432978
1.5026859e-07
0.0029431575
1.4037686e-07
0.0029430254
1.3210154e-07
0.0029429003
1.2511222e-07
0.0029427808
1.1947621e-07
1.258115e-07
0.010339525
0.00035427932
0.010570754
0.00079057335
0.010606301
0.00091894821
0.010547572
0.00090167137
0.010422317
0.00084262623
0.010244356
0.00075768559
0.010039421
0.00065662744
0.0098287427
0.00055365586
0.009625135
0.00045977083
0.0094353013
0.00037975354
0.0092624277
0.00031409258
0.0091075332
0.00026140426
0.008970154
0.00021969949
0.0088489023
0.00018689787
0.0087419716
0.00016105803
0.0086474927
0.00014051895
0.008563694
0.00012399297
0.0084890107
0.000110476
0.0084221096
9.9219869e-05
0.0083618775
8.9681398e-05
0.0083073954
8.147066e-05
0.0082579079
7.4307837e-05
0.0082127929
6.799049e-05
0.0081715353
6.2369989e-05
0.0081337049
5.7335021e-05
0.0080989388
5.2800197e-05
0.0080669272
4.869828e-05
0.0080374036
4.4974965e-05
0.0080101361
4.1585393e-05
0.0079849213
3.8491841e-05
0.0079615798
3.5662145e-05
0.0079399519
3.3068599e-05
0.0079198951
3.0687162e-05
0.0079012817
2.8496845e-05
0.0078839962
2.6479245e-05
0.0078679345
2.4618156e-05
0.0078530022
2.2899261e-05
0.0078391133
2.1309864e-05
0.0078261893
1.9838674e-05
0.0078141589
1.8475614e-05
0.0078029562
1.7211659e-05
0.0077925214
1.6038706e-05
0.007782799
1.4949455e-05
0.0077737382
1.3937315e-05
0.0077652921
1.2996311e-05
0.0077574175
1.2121014e-05
0.0077500744
1.1306476e-05
0.0077432258
1.0548182e-05
0.0077368375
9.8420009e-06
0.0077308778
9.1841464e-06
0.0077253173
8.5711409e-06
0.0077201286
7.9997838e-06
0.0077152866
7.4671253e-06
0.0077107675
6.9704432e-06
0.0077065496
6.507223e-06
0.0077026126
6.0751405e-06
0.0076989373
5.672047e-06
0.0076955064
5.2959525e-06
0.0076923033
4.9450101e-06
0.0076893128
4.617502e-06
0.0076865206
4.3118331e-06
0.0076839135
4.0265219e-06
0.0076814792
3.7601938e-06
0.007679206
3.5115685e-06
0.0076770834
3.2794561e-06
0.0076751012
3.0627464e-06
0.0076732502
2.8604093e-06
0.0076715215
2.6714805e-06
0.0076699072
2.4950687e-06
0.0076683995
2.3303363e-06
0.0076669915
2.1765136e-06
0.0076656765
2.0328663e-06
0.0076644483
1.8987263e-06
0.0076633013
1.773443e-06
0.00766223
1.6564453e-06
0.0076612294
1.5471563e-06
0.0076602948
1.4451041e-06
0.007659422
1.3497681e-06
0.0076586067
1.2607677e-06
0.0076578453
1.1775932e-06
0.0076571341
1.0999859e-06
0.0076564698
1.0274276e-06
0.0076558492
9.5975888e-07
0.0076552697
8.9634918e-07
0.0076547284
8.3734865e-07
0.0076542228
7.8203931e-07
0.0076537504
7.3077819e-07
0.0076533093
6.822581e-07
0.0076528972
6.3751595e-07
0.0076525126
5.949513e-07
0.0076521528
5.5663058e-07
0.0076518173
5.1927065e-07
0.0076515029
4.8631948e-07
0.0076512105
4.5266661e-07
0.0076509355
4.2521019e-07
0.0076506808
3.9511539e-07
0.0076504387
3.7429485e-07
0.0076502165
3.4724884e-07
0.0076499999
3.3616019e-07
3.1082597e-07
0.010188704
0.00016557515
0.010530487
0.000448791
0.010851453
0.00059798178
0.011124174
0.00062895025
0.011350581
0.00061621886
0.011524486
0.00058378055
0.01164633
0.0005347842
0.011724155
0.00047583049
0.011767999
0.00041592666
0.011786639
0.000361114
0.011787114
0.00031361712
0.011775058
0.00027346026
0.011754861
0.00023989719
0.011729768
0.00021199031
0.011702054
0.00018877261
0.011673239
0.00016933388
0.011644339
0.00015289296
0.011616003
0.00013881183
0.011588629
0.00012659379
0.011562446
0.00011586445
0.011537572
0.00010634494
0.011514052
9.7826996e-05
0.011491889
9.0153359e-05
0.011471056
8.3203365e-05
0.011451509
7.6882616e-05
0.011433193
7.1115565e-05
0.011416051
6.5840297e-05
0.011400021
6.1004911e-05
0.011385042
5.6565071e-05
0.011371051
5.2482338e-05
0.01135799
4.8723028e-05
0.011345801
4.5257389e-05
0.01133443
4.2058995e-05
0.011323822
3.9104272e-05
0.011313929
3.6372122e-05
0.011304704
3.3843608e-05
0.011296101
3.1501694e-05
0.01128808
2.9331019e-05
0.011280601
2.7317703e-05
0.011273628
2.544918e-05
0.011267125
2.3714049e-05
0.011261062
2.210195e-05
0.011255408
2.060345e-05
0.011250135
1.9209946e-05
0.011245218
1.791357e-05
0.011240632
1.6707121e-05
0.011236354
1.5583994e-05
0.011232364
1.4538124e-05
0.011228643
1.3563938e-05
0.01122517
1.26563e-05
0.011221931
1.1810477e-05
0.011218909
1.1022097e-05
0.011216089
1.0287119e-05
0.011213457
9.601811e-06
0.011211002
8.9627169e-06
0.01120871
8.3666399e-06
0.011206572
7.810618e-06
0.011204576
7.2919019e-06
0.011202713
6.8079374e-06
0.011200974
6.3563504e-06
0.011199351
5.9349367e-06
0.011197836
5.5416475e-06
0.011196421
5.1745799e-06
0.011195101
4.8319606e-06
0.011193868
4.5121425e-06
0.011192718
4.213589e-06
0.011191643
3.9348746e-06
0.01119064
3.6746669e-06
0.011189703
3.431735e-06
0.011188829
3.2049197e-06
0.011188012
2.9931545e-06
0.011187249
2.7954193e-06
0.011186537
2.6107875e-06
0.011185872
2.4383576e-06
0.011185252
2.2773492e-06
0.011184672
2.1269664e-06
0.01118413
1.9865688e-06
0.011183625
1.8554243e-06
0.011183152
1.7330144e-06
0.011182711
1.6186068e-06
0.0111823
1.5118568e-06
0.011181915
1.4120287e-06
0.011181556
1.3190117e-06
0.01118122
1.2318672e-06
0.011180907
1.1508271e-06
0.011180614
1.0746323e-06
0.011180341
1.0041024e-06
0.011180086
9.372631e-07
0.011179847
8.7614433e-07
0.011179625
8.1752252e-07
0.011179416
7.6516876e-07
0.011179222
7.129694e-07
0.01117904
6.6839158e-07
0.011178872
6.2097205e-07
0.011178712
5.8506882e-07
0.011178566
5.4110419e-07
0.011178425
5.1526324e-07
0.0111783
4.7228038e-07
0.011178177
4.5913109e-07
4.1618709e-07
0.010097182
6.8393554e-05
0.010346961
0.00019901112
0.010662469
0.00028247387
0.010982753
0.00030866649
0.011290229
0.00030874342
0.011575251
0.00029875788
0.011829022
0.00028101346
0.012047865
0.00025698756
0.012233272
0.00023051982
0.01238924
0.0002051459
0.012520295
0.00018256236
0.012630755
0.00016299957
0.012724428
0.00014622491
0.012804515
0.00013190312
0.012873613
0.00011967426
0.012933772
0.00010917461
0.012986596
0.00010006907
0.013033332
9.2076371e-05
0.01307495
8.4975259e-05
0.013112216
7.8598617e-05
0.013145739
7.2822304e-05
0.013176012
6.7553936e-05
0.013203441
6.2723921e-05
0.013228366
5.8278893e-05
0.013251071
5.4176984e-05
0.013271802
5.0384429e-05
0.01329077
4.6873161e-05
0.013308155
4.361918e-05
0.013324119
4.0601465e-05
0.0133388
3.7801289e-05
0.013352321
3.5201763e-05
0.013364791
3.2787539e-05
0.013376306
3.0544597e-05
0.01338695
2.846009e-05
0.0133968
2.6522218e-05
0.013405923
2.4720129e-05
0.013414381
2.3043838e-05
0.013422228
2.1484141e-05
0.013429513
2.003256e-05
0.013436281
1.8681272e-05
0.013442572
1.7423065e-05
0.013448423
1.6251279e-05
0.013453866
1.5159764e-05
0.013458933
1.4142834e-05
0.013463652
1.3195227e-05
0.013468047
1.2312075e-05
0.013472142
1.148887e-05
0.013475959
1.0721437e-05
0.013479517
1.0005905e-05
0.013482834
9.3386839e-06
0.013485928
8.7164373e-06
0.013488814
8.1360689e-06
0.013491507
7.5947045e-06
0.013494019
7.0896758e-06
0.013496363
6.6185058e-06
0.013498551
6.1788932e-06
0.013500593
5.7686959e-06
0.013502499
5.3859179e-06
0.013504278
5.0287008e-06
0.013505939
4.6953156e-06
0.01350749
4.3841547e-06
0.013508938
4.0937203e-06
0.01351029
3.8226184e-06
0.013511552
3.5695482e-06
0.013512731
3.3333003e-06
0.013513832
3.1127461e-06
0.01351486
2.9068391e-06
0.01351582
2.7145999e-06
0.013516716
2.5351234e-06
0.013517554
2.3675535e-06
0.013518336
2.2111009e-06
0.013519066
2.0650063e-06
0.013519748
1.9285867e-06
0.013520386
1.8011774e-06
0.013520981
1.682211e-06
0.013521537
1.5711024e-06
0.013522056
1.4673844e-06
0.013522541
1.3705052e-06
0.013522994
1.2800856e-06
0.013523417
1.1955469e-06
0.013523812
1.1166614e-06
0.013524181
1.042888e-06
0.013524526
9.742407e-07
0.013524848
9.0990542e-07
0.013525149
8.5004885e-07
0.01352543
7.9357834e-07
0.013525692
7.4146298e-07
0.013525937
6.9209605e-07
0.013526166
6.4729255e-07
0.01352638
6.0385111e-07
0.01352658
5.6528323e-07
0.013526767
5.2616267e-07
0.013526941
4.9369941e-07
0.013527104
4.5816186e-07
0.013527257
4.3255903e-07
0.013527399
3.9898152e-07
0.013527533
3.8084488e-07
0.013527658
3.4710889e-07
0.013527779
3.3808211e-07
3.0573119e-07
0.010068394
-2.9697138e-12
0.010267405
-3.2559218e-12
0.010549879
-2.8580412e-12
0.010858545
-2.39253e-12
0.011167288
-1.023279e-12
0.011466046
1.444686e-12
0.01174706
3.7649235e-12
0.012004047
4.5606498e-12
0.012234567
4.166698e-12
0.012439713
1.5513176e-12
0.012622275
-1.8269765e-12
0.012785275
-4.9368894e-12
0.0129315
-5.7710324e-12
0.013063403
-3.6956698e-12
0.013183077
7.7892139e-13
0.013292252
5.8018909e-12
0.013392321
7.8204885e-12
0.013484397
7.0945306e-12
0.013569373
3.5116022e-12
0.013647971
-9.5250614e-13
0.013720794
-4.2671901e-12
0.013788347
-5.1832728e-12
0.013851071
-4.5891224e-12
0.01390935
-4.2263868e-12
0.013963527
-3.1552597e-12
0.014013912
-1.2661687e-12
0.014060785
2.1050901e-12
0.014104404
5.3555639e-12
0.014145005
7.1123497e-12
0.014182807
6.7740318e-12
0.014218009
3.7376184e-12
0.014250796
-1.0674079e-12
0.014281341
-5.0814005e-12
0.014309801
-7.4905919e-12
0.014336323
-7.1247745e-12
0.014361043
-3.4172907e-12
0.014384087
1.3867148e-12
0.014405571
4.6055402e-12
0.014425604
6.0264729e-12
0.014444285
5.041747e-12
0.014461708
2.8086482e-12
0.014477959
9.3237184e-13
0.014493119
-8.8615437e-13
0.014507262
-3.485097e-12
0.014520457
-5.5827562e-12
0.014532769
-6.2178256e-12
0.014544258
-5.0137601e-12
0.014554979
-9.4589255e-13
0.014564985
4.3609299e-12
0.014574324
8.4603948e-12
0.01458304
9.1971065e-12
0.014591177
5.1900243e-12
0.014598771
-1.2551409e-12
0.014605861
-6.2374576e-12
0.014612479
-9.1000364e-12
0.014618658
-8.262942e-12
0.014624427
-4.4465086e-12
0.014629813
-5.9171099e-14
0.014634842
3.7629924e-12
0.014639537
6.3596374e-12
0.014643921
7.6872219e-12
0.014648015
7.3056389e-12
0.014651837
4.1730817e-12
0.014655407
-1.4460471e-12
0.01465874
-7.2201322e-12
0.014661853
-1.1267912e-11
0.01466476
-1.1705974e-11
0.014667475
-6.139092e-12
0.01467001
3.5250675e-12
0.014672377
1.2700375e-11
0.014674588
1.7563691e-11
0.014676653
1.3430431e-11
0.014678582
8.1861635e-13
0.014680383
-9.9131778e-12
0.014682065
-1.4989723e-11
0.014683636
-1.2876396e-11
0.014685104
-1.9339523e-12
0.014686474
7.4248884e-12
0.014687754
6.3806863e-12
0.01468895
-1.2021447e-11
0.014690067
-1.3927021e-11
0.014691109
3.0348456e-11
0.014692084
7.1491681e-11
0.014692993
3.2310065e-11
0.014693843
-6.9828045e-11
0.014694637
-1.146669e-10
0.014695379
-4.6655138e-11
0.014696071
7.0084485e-11
0.014696718
1.1618664e-10
0.014697322
7.1148202e-11
0.014697887
-4.0706003e-11
0.014698413
-9.4334183e-11
0.014698907
-7.3281157e-11
0.014699365
8.4155322e-12
0.014699798
5.9386638e-11
0.014700197
5.0270318e-11
0.014700578
2.2031708e-12
0.014700925
-2.2158506e-11
0.014701263
-8.9780493e-12
-5.8771352e-12
0.010068394
-6.8393559e-05
0.010267405
-0.00019901113
0.010549879
-0.00028247388
0.010858545
-0.00030866649
0.011167288
-0.00030874342
0.011466046
-0.00029875788
0.01174706
-0.00028101345
0.012004047
-0.00025698755
0.012234567
-0.00023051982
0.012439713
-0.0002051459
0.012622275
-0.00018256236
0.012785275
-0.00016299958
0.0129315
-0.00014622491
0.013063403
-0.00013190312
0.013183077
-0.00011967426
0.013292252
-0.0001091746
0.013392321
-0.00010006906
0.013484397
-9.2076361e-05
0.013569373
-8.4975254e-05
0.013647971
-7.8598618e-05
0.013720794
-7.2822309e-05
0.013788347
-6.7553944e-05
0.013851071
-6.272393e-05
0.01390935
-5.8278901e-05
0.013963527
-5.4176989e-05
0.014013912
-5.0384429e-05
0.014060785
-4.6873157e-05
0.014104404
-4.3619171e-05
0.014145005
-4.0601455e-05
0.014182807
-3.780128e-05
0.014218009
-3.5201759e-05
0.014250796
-3.2787541e-05
0.014281341
-3.0544604e-05
0.014309801
-2.84601e-05
0.014336323
-2.6522227e-05
0.014361043
-2.4720135e-05
0.014384087
-2.3043837e-05
0.014405571
-2.1484136e-05
0.014425604
-2.0032552e-05
0.014444285
-1.8681264e-05
0.014461708
-1.7423059e-05
0.014477959
-1.6251276e-05
0.014493119
-1.5159766e-05
0.014507262
-1.414284e-05
0.014520457
-1.3195237e-05
0.014532769
-1.2312084e-05
0.014544258
-1.1488876e-05
0.014554979
-1.0721437e-05
0.014564985
-1.0005898e-05
0.014574324
-9.3386725e-06
0.01458304
-8.7164263e-06
0.014591177
-8.1360629e-06
0.014598771
-7.5947055e-06
0.014605861
-7.0896831e-06
0.014612479
-6.6185172e-06
0.014618658
-6.1789047e-06
0.014624427
-5.7687035e-06
0.014629813
-5.3859192e-06
0.014634842
-5.0286961e-06
0.014639537
-4.6953061e-06
0.014643921
-4.3841429e-06
0.014648015
-4.0937096e-06
0.014651837
-3.8226129e-06
0.014655407
-3.5695509e-06
0.01465874
-3.3333116e-06
0.014661853
-3.112762e-06
0.01466476
-2.9068533e-06
0.014667474
-2.7146061e-06
0.01467001
-2.5351178e-06
0.014672377
-2.3675369e-06
0.014674588
-2.2110801e-06
0.014676653
-2.0649915e-06
0.014678582
-1.9285843e-06
0.014680383
-1.8011868e-06
0.014682065
-1.6822269e-06
0.014683636
-1.5711161e-06
0.014685104
-1.4673899e-06
0.014686474
-1.3705047e-06
0.014687754
-1.2800889e-06
0.01468895
-1.195555e-06
0.014690067
-1.1166463e-06
0.014691109
-1.0428331e-06
0.014692084
-9.7418438e-07
0.014692994
-9.0991834e-07
0.014693844
-8.5013768e-07
0.014694637
-7.9365821e-07
0.014695379
-7.4145819e-07
0.014696071
-6.9201867e-07
0.014696718
-6.4721671e-07
0.014697322
-6.0382579e-07
0.014697887
-5.6531462e-07
0.014698413
-5.262193e-07
0.014698907
-4.9374314e-07
0.014699365
-4.5816463e-07
0.014699798
-4.3253197e-07
0.014700197
-3.9895302e-07
0.014700578
-3.8083351e-07
0.014700925
-3.4710471e-07
0.014701263
-3.380757e-07
-3.0573841e-07
0.010097182
-0.00016557516
0.010346961
-0.000448791
0.010662469
-0.00059798178
0.010982753
-0.00062895025
0.011290229
-0.00061621886
0.011575251
-0.00058378055
0.011829022
-0.0005347842
0.012047865
-0.00047583049
0.012233272
-0.00041592666
0.01238924
-0.000361114
0.012520295
-0.00031361712
0.012630755
-0.00027346026
0.012724428
-0.00023989719
0.012804515
-0.00021199031
0.012873613
-0.0001887726
0.012933772
-0.00016933388
0.012986596
-0.00015289296
0.013033332
-0.00013881183
0.01307495
-0.00012659379
0.013112216
-0.00011586444
0.013145739
-0.00010634494
0.013176012
-9.7827e-05
0.013203441
-9.0153366e-05
0.013228366
-8.3203372e-05
0.013251071
-7.6882618e-05
0.013271802
-7.1115563e-05
0.01329077
-6.5840292e-05
0.013308155
-6.1004906e-05
0.013324119
-5.6565068e-05
0.0133388
-5.2482337e-05
0.013352321
-4.8723027e-05
0.013364791
-4.5257388e-05
0.013376306
-4.2058995e-05
0.01338695
-3.9104274e-05
0.0133968
-3.6372125e-05
0.013405923
-3.3843611e-05
0.013414381
-3.1501697e-05
0.013422228
-2.933102e-05
0.013429513
-2.7317701e-05
0.013436281
-2.5449174e-05
0.013442572
-2.3714042e-05
0.013448423
-2.2101946e-05
0.013453866
-2.0603452e-05
0.013458933
-1.9209951e-05
0.013463652
-1.7913576e-05
0.013468047
-1.6707124e-05
0.013472142
-1.5583993e-05
0.013475959
-1.4538122e-05
0.013479517
-1.3563936e-05
0.013482834
-1.26563e-05
0.013485928
-1.1810478e-05
0.013488814
-1.1022096e-05
0.013491507
-1.0287117e-05
0.013494019
-9.6018079e-06
0.013496363
-8.9627168e-06
0.013498551
-8.3666444e-06
0.013500593
-7.8106248e-06
0.013502499
-7.2919067e-06
0.013504278
-6.8079375e-06
0.013505939
-6.3563462e-06
0.01350749
-5.9349306e-06
0.013508938
-5.5416426e-06
0.01351029
-5.1745786e-06
0.013511552
-4.8319632e-06
0.013512731
-4.5121466e-06
0.013513832
-4.2135912e-06
0.01351486
-3.9348739e-06
0.01351582
-3.6746648e-06
0.013516716
-3.4317341e-06
0.013517554
-3.2049218e-06
0.013518336
-2.9931584e-06
0.013519066
-2.7954203e-06
0.013519748
-2.6107816e-06
0.013520386
-2.4383459e-06
0.013520981
-2.2773384e-06
0.013521537
-2.1269664e-06
0.013522056
-1.9865841e-06
0.013522541
-1.8554497e-06
0.013522994
-1.73303e-06
0.013523417
-1.6185844e-06
0.013523812
-1.5117992e-06
0.013524181
-1.4119964e-06
0.013524526
-1.319072e-06
0.013524848
-1.2319778e-06
0.013525149
-1.1508356e-06
0.013525429
-1.0744708e-06
0.013525692
-1.0039368e-06
0.013525937
-9.3732209e-07
0.013526166
-8.7639769e-07
0.01352638
-8.1768102e-07
0.01352658
-7.650485e-07
0.013526767
-7.1271633e-07
0.013526941
-6.682836e-07
0.013527104
-6.2108302e-07
0.013527257
-5.8523516e-07
0.013527399
-5.4116257e-07
0.013527533
-5.1521541e-07
0.013527658
-4.7221275e-07
0.013527779
-4.5908894e-07
-4.1617883e-07
0.010188704
-0.00035427932
0.010530487
-0.00079057335
0.010851453
-0.00091894821
0.011124174
-0.00090167137
0.011350581
-0.00084262623
0.011524486
-0.00075768559
0.01164633
-0.00065662744
0.011724155
-0.00055365586
0.011767999
-0.00045977083
0.011786639
-0.00037975354
0.011787114
-0.00031409258
0.011775058
-0.00026140425
0.011754861
-0.00021969948
0.011729768
-0.00018689786
0.011702054
-0.00016105802
0.011673239
-0.00014051895
0.011644339
-0.00012399297
0.011616003
-0.000110476
0.011588629
-9.9219867e-05
0.011562446
-8.9681396e-05
0.011537572
-8.1470659e-05
0.011514052
-7.430784e-05
0.011491889
-6.7990494e-05
0.011471056
-6.2369992e-05
0.011451509
-5.7335022e-05
0.011433193
-5.2800194e-05
0.011416051
-4.8698277e-05
0.011400021
-4.4974963e-05
0.011385042
-4.1585394e-05
0.011371051
-3.8491843e-05
0.01135799
-3.5662145e-05
0.011345801
-3.3068598e-05
0.01133443
-3.068716e-05
0.011323822
-2.8496843e-05
0.011313929
-2.6479245e-05
0.011304704
-2.4618158e-05
0.011296101
-2.2899265e-05
0.01128808
-2.1309867e-05
0.011280601
-1.9838674e-05
0.011273628
-1.847561e-05
0.011267125
-1.7211654e-05
0.011261062
-1.6038703e-05
0.011255408
-1.4949456e-05
0.011250135
-1.3937318e-05
0.011245218
-1.2996313e-05
0.011240632
-1.2121013e-05
0.011236354
-1.1306474e-05
0.011232364
-1.054818e-05
0.011228643
-9.8420018e-06
0.01122517
-9.1841499e-06
0.011221931
-8.5711447e-06
0.011218909
-7.9997849e-06
0.011216089
-7.4671225e-06
0.011213457
-6.9704385e-06
0.011211002
-6.5072198e-06
0.01120871
-6.0751411e-06
0.011206572
-5.6720506e-06
0.011204576
-5.2959563e-06
0.011202713
-4.9450115e-06
0.011200974
-4.617501e-06
0.011199351
-4.3118315e-06
0.011197836
-4.0265216e-06
0.011196421
-3.7601949e-06
0.011195101
-3.5115696e-06
0.011193868
-3.2794552e-06
0.011192718
-3.0627424e-06
0.011191643
-2.8604036e-06
0.01119064
-2.6714772e-06
0.011189703
-2.4950715e-06
0.011188829
-2.3303452e-06
0.011188012
-2.1765236e-06
0.011187249
-2.0328697e-06
0.011186537
-1.8987186e-06
0.011185872
-1.7734279e-06
0.011185252
-1.6564332e-06
0.011184672
-1.5471571e-06
0.01118413
-1.4451203e-06
0.011183625
-1.3497865e-06
0.011183152
-1.2607655e-06
0.011182711
-1.1775629e-06
0.0111823
-1.0999597e-06
0.011181915
-1.0274532e-06
0.011181556
-9.598323e-07
0.01118122
-8.9638768e-07
0.011180907
-8.372753e-07
0.011180614
-7.8189544e-07
0.011180341
-7.3071214e-07
0.011180086
-6.8236731e-07
0.011179847
-6.3771781e-07
0.011179624
-5.950421e-07
0.011179416
-5.5651224e-07
0.011179222
-5.190665e-07
0.01117904
-4.8622735e-07
0.011178872
-4.5274705e-07
0.011178712
-4.2535262e-07
0.011178566
-3.9518568e-07
0.011178425
-3.7427101e-07
0.0111783
-3.4719001e-07
0.011178177
-3.3611378e-07
-3.1080985e-07
0.010339525
-0.00069380425
0.010570754
-0.0010218027
0.010606301
-0.00095449449
0.010547572
-0.00084294334
0.010422317
-0.0007173708
0.010244356
-0.00057972444
0.010039421
-0.00045169205
0.0098287427
-0.00034297801
0.009625135
-0.00025616318
0.0094353013
-0.00018991983
0.0092624277
-0.00014121897
0.0091075332
-0.00010650979
0.008970154
-8.2320219e-05
0.0088489023
-6.5646244e-05
0.0087419716
-5.4127255e-05
0.0086474927
-4.604005e-05
0.008563694
-4.0194294e-05
0.0084890107
-3.5792757e-05
0.0084221096
-3.2318758e-05
0.0083618775
-2.9449278e-05
0.0083073954
-2.6988573e-05
0.0082579079
-2.4820297e-05
0.0082127929
-2.2875477e-05
0.0081715353
-2.1112417e-05
0.0081337049
-1.9504659e-05
0.0080989388
-1.8034024e-05
0.0080669272
-1.6686736e-05
0.0080374036
-1.5451372e-05
0.0080101361
-1.4317866e-05
0.0079849213
-1.3277069e-05
0.0079615798
-1.2320583e-05
0.0079399519
-1.144071e-05
0.0079198951
-1.0630424e-05
0.0079012817
-9.8833594e-06
0.0078839962
-9.1937726e-06
0.0078679345
-8.5565048e-06
0.0078530022
-7.9669327e-06
0.0078391133
-7.4209179e-06
0.0078261893
-6.9147562e-06
0.0078141589
-6.4451267e-06
0.0078029562
-6.0090467e-06
0.0077925214
-5.6038297e-06
0.007782799
-5.2270514e-06
0.0077737382
-4.876518e-06
0.0077652921
-4.5502396e-06
0.0077574175
-4.2464045e-06
0.0077500744
-3.9633588e-06
0.0077432258
-3.6995895e-06
0.0077368375
-3.4537094e-06
0.0077308778
-3.2244437e-06
0.0077253173
-3.01062e-06
0.0077201286
-2.8111576e-06
0.0077152866
-2.6250591e-06
0.0077107675
-2.4514016e-06
0.0077065496
-2.2893305e-06
0.0077026126
-2.1380535e-06
0.0076989373
-1.9968369e-06
0.0076955064
-1.8650002e-06
0.0076923033
-1.7419112e-06
0.0076893128
-1.6269813e-06
0.0076865206
-1.5196625e-06
0.0076839135
-1.4194444e-06
0.0076814792
-1.3258526e-06
0.007679206
-1.2384447e-06
0.0076770834
-1.15681e-06
0.0076751012
-1.0805651e-06
0.0076732502
-1.0093538e-06
0.0076715215
-9.428416e-07
0.0076699072
-8.8071801e-07
0.0076683995
-8.2268913e-07
0.0076669915
-7.6848578e-07
0.0076656765
-7.1785232e-07
0.0076644483
-6.7055958e-07
0.0076633013
-6.2638294e-07
0.00766223
-5.8512425e-07
0.0076612294
-5.4657709e-07
0.0076602948
-5.1057251e-07
0.007659422
-4.7692158e-07
0.0076586067
-4.4549935e-07
0.0076578453
-4.161426e-07
0.0076571341
-3.8877084e-07
0.0076564698
-3.6316895e-07
0.0076558492
-3.3925023e-07
0.0076552696
-3.1680349e-07
0.0076547284
-2.9594755e-07
0.0076542229
-2.7645366e-07
0.0076537506
-2.584007e-07
0.0076533094
-2.4127642e-07
0.0076528971
-2.2542106e-07
0.0076525125
-2.1035831e-07
0.0076521528
-1.9676193e-07
0.0076518174
-1.8365415e-07
0.007651503
-1.7193476e-07
0.0076512106
-1.6031735e-07
0.0076509355
-1.5030445e-07
0.0076506808
-1.4041901e-07
0.0076504386
-1.3211594e-07
0.0076502165
-1.2509423e-07
0.0076499999
-1.1944801e-07
-1.2579783e-07
0.0093061957
0.0082843931
0.0073298986
0.0064869553
0.0057695845
0.00518986
0.004738168
0.00439519
0.0041390268
0.003949107
0.003807888
0.0037013782
0.003619058
0.0035534117
0.0034992845
0.0034532444
0.0034130501
0.0033772574
0.0033449386
0.0033154893
0.0032885008
0.0032636805
0.003240805
0.0032196926
0.0032001879
0.0031821539
0.0031654671
0.0031500158
0.0031356979
0.0031224208
0.0031101003
0.0030986595
0.0030880291
0.0030781458
0.003068952
0.0030603955
0.0030524286
0.0030450076
0.0030380929
0.0030316478
0.0030256387
0.0030200349
0.0030148078
0.0030099313
0.0030053811
0.0030011347
0.0029971713
0.0029934717
0.002990018
0.0029867936
0.0029837829
0.0029809718
0.0029783467
0.0029758953
0.002973606
0.0029714679
0.0029694711
0.0029676061
0.0029658642
0.0029642372
0.0029627175
0.0029612981
0.0029599722
0.0029587338
0.002957577
0.0029564964
0.0029554871
0.0029545442
0.0029536635
0.0029528408
0.0029520723
0.0029513545
0.0029506839
0.0029500575
0.0029494724
0.0029489258
0.0029484153
0.0029479384
0.0029474929
0.0029470767
0.0029466879
0.0029463247
0.0029459855
0.0029456687
0.0029453728
0.0029450963
0.0029448379
0.0029445966
0.0029443712
0.0029441609
0.0029439641
0.0029437805
0.0029436085
0.0029434482
0.0029432979
0.0029431575
0.0029430254
0.0029429003
0.0029427808
)
;

boundaryField
{
    top
    {
        type            calculated;
        value           uniform 0;
    }
    inlet
    {
        type            calculated;
        value           nonuniform List<scalar> 10(-0.01 -0.01 -0.01 -0.01 -0.01 -0.01 -0.01 -0.01 -0.01 -0.01);
    }
    outlet
    {
        type            calculated;
        value           nonuniform List<scalar> 10(0.002942655 0.0076498148 0.011178072 0.01352789 0.014701568 0.014701568 0.01352789 0.011178072 0.0076498149 0.002942655);
    }
    bottom
    {
        type            calculated;
        value           uniform 0;
    }
    back
    {
        type            empty;
        value           nonuniform List<scalar> 0();
    }
    front
    {
        type            empty;
        value           nonuniform List<scalar> 0();
    }
}


// ************************************************************************* //
