/*--------------------------------*- C++ -*----------------------------------*\
| =========                 |                                                 |
| \\      /  F ield         | OpenFOAM: The Open Source CFD Toolbox           |
|  \\    /   O peration     | Version:  v1812                                 |
|   \\  /    A nd           | Web:      www.OpenFOAM.com                      |
|    \\/     M anipulation  |                                                 |
\*---------------------------------------------------------------------------*/
FoamFile
{
    version     2.0;
    format      ascii;
    class       surfaceScalarField;
    location    "20";
    object      phi;
}
// * * * * * * * * * * * * * * * * * * * * * * * * * * * * * * * * * * * * * //

dimensions      [0 3 -1 0 0 0 0];
oriented        oriented;


internalField   nonuniform List<scalar> 
1890
(
0.0092425423
0.00075745358
0.0082745431
0.00096799874
0.0073410209
0.00093352543
0.0065084716
0.00083255391
0.0057953277
0.00071314734
0.0052087414
0.00058658658
0.0047457598
0.0004629791
0.0043917207
0.0003540355
0.0041245061
0.00026721184
0.0039217039
0.00020280176
0.0037674063
0.00015429884
0.0036510411
0.00011636753
0.0035653993
8.5643867e-05
0.0035050899
6.0310626e-05
0.0034653119
3.9778133e-05
0.0034414089
2.3902482e-05
0.0034289745
1.2433498e-05
0.0034241468
4.8268983e-06
0.0034238395
3.0686592e-07
0.0034258142
-1.974726e-06
0.0034286084
-2.7941337e-06
0.0034313806
-2.7718645e-06
0.0034337286
-2.3476379e-06
0.0034355272
-1.7983289e-06
0.0034368031
-1.2757419e-06
0.00343765
-8.4670295e-07
0.0034381769
-5.2692891e-07
0.0034384829
-3.059511e-07
0.0034386459
-1.6311891e-07
0.0034387227
-7.6720508e-08
0.0034387508
-2.8166401e-08
0.0034387542
-3.3657144e-09
0.0034387466
7.5301377e-09
0.0034387358
1.0894078e-08
0.0034387251
1.0617439e-08
0.0034387163
8.8767514e-09
0.0034387095
6.8190111e-09
0.0034387046
4.9446309e-09
0.0034387011
3.4459758e-09
0.0034386988
2.3214622e-09
0.0034386973
1.5297098e-09
0.0034386963
9.8334938e-10
0.0034386957
6.2811261e-10
0.0034386953
3.9308161e-10
0.003438695
2.502138e-10
0.0034386949
1.5581332e-10
0.0034386948
1.0436361e-10
0.0034386947
6.7648425e-11
0.0034386947
5.1098265e-11
0.0034386947
3.5467282e-11
0.0034386946
3.2250772e-11
0.0034386946
2.459604e-11
0.0034386946
2.5376457e-11
0.0034386946
1.9921518e-11
0.0034386945
2.2708679e-11
0.0034386946
1.8452863e-11
0.0034386945
2.1190716e-11
0.0034386945
1.6654418e-11
0.0034386945
1.9821828e-11
0.0034386945
1.5436169e-11
0.0034386945
1.7865265e-11
0.0034386945
1.2656685e-11
0.0034386944
1.570937e-11
0.0034386945
1.0235432e-11
0.0034386944
1.5645291e-11
0.0034386945
6.2231717e-12
0.0034386944
2.6114381e-11
0.0034386945
-8.2137169e-12
0.0034386943
7.8503232e-11
0.0034386945
-1.0052983e-10
0.0034386941
3.151094e-10
0.0034386946
-5.8345012e-10
0.0034386932
1.3661638e-09
0.003438696
-2.7633662e-09
0.0034386902
5.7679884e-09
0.0034387018
-1.1413631e-08
0.0034386796
2.229687e-08
0.0034387213
-4.1536269e-08
0.0034386455
7.5854433e-08
0.003438776
-1.3066156e-07
0.0034385566
2.1893111e-07
0.0034388973
-3.4100299e-07
0.0034383889
5.0815192e-07
0.0034390741
-6.8491806e-07
0.003438221
8.5369575e-07
0.0034391081
-8.8624999e-07
0.0034383598
7.4872422e-07
0.0034385858
-2.2608835e-07
0.0034390509
-4.659557e-07
0.0034375889
1.4609006e-06
0.0034393291
-1.7409657e-06
0.0034375936
1.7357287e-06
0.0034372504
3.439936e-07
0.0034384847
-1.2330814e-06
0.003434811
3.6745561e-06
0.0034340329
7.7802526e-07
0.0034356071
-1.5750483e-06
0.0034261014
9.5045751e-06
0.0034302921
-4.1913631e-06
-1.0980471e-05
0.0103738
0.00038364999
0.010565353
0.00077644523
0.010621044
0.00087783638
0.01057209
0.00088151156
0.010449931
0.00083530801
0.010274441
0.0007620763
0.010059777
0.00067764227
0.0098237239
0.00059008681
0.0095878406
0.00050309379
0.0093723534
0.0004182888
0.0091901006
0.00033655222
0.0090467605
0.00025970878
0.0089420985
0.00019030685
0.0088715425
0.00013086716
0.0088282165
8.3104207e-05
0.0088047297
4.7388959e-05
0.0087944148
2.274802e-05
0.0087919664
7.2749743e-06
0.0087935916
-1.318605e-06
0.0087968485
-5.2316595e-06
0.0088003406
-6.2861109e-06
0.0088033918
-5.8228974e-06
0.0088057697
-4.725361e-06
0.0088074809
-3.509389e-06
0.0088086368
-2.431591e-06
0.0088093757
-1.5855141e-06
0.0088098238
-9.7508084e-07
0.0088100814
-5.6346384e-07
0.0088102205
-3.0228253e-07
0.00881029
-1.4619789e-07
0.0088103207
-5.8933585e-08
0.0088103314
-1.4022773e-08
0.0088103325
6.338372e-09
0.00881033
1.3512468e-08
0.0088103264
1.4201498e-08
0.0088103231
1.2222543e-08
0.0088103204
9.4725821e-09
0.0088103185
6.8923659e-09
0.0088103171
4.7618839e-09
0.0088103163
3.1805003e-09
0.0088103158
2.0347544e-09
0.0088103155
1.2738125e-09
0.0088103153
7.5205247e-10
0.0088103153
4.3831059e-10
0.0088103153
2.2331013e-10
0.0088103154
1.1380282e-10
0.0088103154
3.0963011e-11
0.0088103155
4.6354526e-12
0.0088103156
-2.7374505e-11
0.0088103157
-2.2751952e-11
0.0088103157
-3.6413213e-11
0.0088103158
-2.1609208e-11
0.0088103158
-3.0258633e-11
0.0088103159
-1.2852566e-11
0.0088103159
-2.0417275e-11
0.008810316
-3.3403613e-12
0.008810316
-1.2254234e-11
0.008810316
3.4655523e-12
0.008810316
-6.8495464e-12
0.008810316
6.8357224e-12
0.008810316
-5.927445e-12
0.0088103161
5.4642864e-12
0.0088103161
-8.6153093e-12
0.0088103161
1.2292926e-13
0.0088103161
-1.3000466e-11
0.0088103162
-1.0369162e-11
0.0088103162
-9.7649043e-12
0.0088103163
-3.7578951e-11
0.0088103163
3.4493627e-11
0.0088103164
-1.5205978e-10
0.0088103163
2.7605796e-10
0.0088103165
-6.835625e-10
0.0088103164
1.3940728e-09
0.0088103166
-3.0043149e-09
0.0088103163
6.0857847e-09
0.0088103171
-1.215488e-08
0.0088103159
2.3643221e-08
0.0088103185
-4.4101906e-08
0.0088103136
8.0786032e-08
0.0088103227
-1.3981189e-07
0.0088103047
2.3666729e-07
0.0088103371
-3.7352479e-07
0.0088102749
5.7016161e-07
0.0088103839
-7.9370531e-07
0.0088101898
1.0480354e-06
0.0088104991
-1.1950794e-06
0.0088100131
1.2349178e-06
0.0088106558
-8.6884342e-07
0.0088098376
3.5185407e-07
0.0088105644
7.3352474e-07
0.0088099776
-1.1545712e-06
0.0088098265
1.8869669e-06
0.0088100934
7.7476707e-08
0.0088091457
-2.8471246e-07
0.008807743
5.0775691e-06
0.0088088995
-3.7849857e-07
0.0088008579
6.466154e-06
0.008799661
1.0701002e-05
0.0087810565
1.4412831e-05
2.1134372e-05
0.010192964
0.00019068192
0.010507346
0.00046206295
0.010821002
0.00056418305
0.011105235
0.00059728055
0.011343953
0.00059659253
0.011528673
0.00057735624
0.01165755
0.00054876415
0.011735784
0.00051185111
0.011774693
0.00046418402
0.011787908
0.00040507376
0.011787267
0.00033719384
0.011781078
0.00026589785
0.011774042
0.00019734372
0.011768135
0.00013677455
0.011763776
8.7463158e-05
0.011760729
5.0436544e-05
0.011758612
2.4864609e-05
0.011757111
8.7754463e-06
0.011756018
-2.2577009e-07
0.011755208
-4.4217683e-06
0.011754607
-5.6851898e-06
0.011754167
-5.3830451e-06
0.011753853
-4.4110978e-06
0.011753636
-3.2918343e-06
0.011753491
-2.2863841e-06
0.011753398
-1.4925388e-06
0.011753341
-9.1827317e-07
0.011753308
-5.3066717e-07
0.01175329
-2.8465577e-07
0.011753282
-1.3769976e-07
0.011753278
-5.5562457e-08
0.011753278
-1.3335966e-08
0.011753278
5.8173445e-09
0.011753279
1.254755e-08
0.01175328
1.3213712e-08
0.011753281
1.1349768e-08
0.011753282
8.7900643e-09
0.011753282
6.3622199e-09
0.011753283
4.3824145e-09
0.011753283
2.8893513e-09
0.011753283
1.8316832e-09
0.011753283
1.1067066e-09
0.011753283
6.3322311e-10
0.011753284
3.2711509e-10
0.011753284
1.4185507e-10
0.011753284
2.7878287e-11
0.011753284
-3.2926815e-11
0.011753284
-6.8310774e-11
0.011753284
-8.0297756e-11
0.011753284
-8.5795518e-11
0.011753284
-8.0163415e-11
0.011753284
-7.5888297e-11
0.011753284
-6.5040892e-11
0.011753284
-5.8275385e-11
0.011753284
-4.6987377e-11
0.011753284
-4.1353231e-11
0.011753284
-3.1912163e-11
0.011753284
-2.8492127e-11
0.011753284
-2.1881764e-11
0.011753284
-2.1891455e-11
0.011753284
-1.8757887e-11
0.011753284
-2.2062157e-11
0.011753284
-2.1774906e-11
0.011753284
-2.8644511e-11
0.011753284
-2.8708607e-11
0.011753284
-4.1288243e-11
0.011753284
-3.2050567e-11
0.011753284
-6.9860096e-11
0.011753285
-6.0353415e-12
0.011753285
-1.6844116e-10
0.011753285
1.6849006e-10
0.011753285
-5.8833273e-10
0.011753285
1.0065425e-09
0.011753284
-2.3538406e-09
0.011753286
4.5316053e-09
0.011753283
-9.2020575e-09
0.011753289
1.7637418e-08
0.011753278
-3.2936688e-08
0.011753299
6.0075905e-08
0.011753263
-1.039793e-07
0.011753323
1.761898e-07
0.011753229
-2.7921311e-07
0.011753369
4.2990368e-07
0.011753182
-6.0681243e-07
0.011753408
8.2214583e-07
0.011753191
-9.7773589e-07
0.01175333
1.09631e-06
0.011753401
-9.4041345e-07
0.011753018
7.3521899e-07
0.011753807
-5.6400048e-08
0.011752735
-8.3032045e-08
0.011753861
7.6110677e-07
0.011753136
8.0334516e-07
0.011753212
-3.6040813e-07
0.011753401
4.8887081e-06
0.011753193
-1.7084361e-07
0.011750361
9.2979301e-06
0.011750763
1.0299166e-05
0.011742464
2.2711157e-05
3.7788048e-05
0.010106072
8.4605733e-05
0.010357227
0.00021090802
0.010655225
0.00026618696
0.010965611
0.00028689688
0.011269717
0.00029248856
0.011556083
0.00029099096
0.011818472
0.00028637398
0.012052941
0.00027738023
0.012256658
0.00026046624
0.012427875
0.00023385594
0.012566135
0.00019893476
0.012672576
0.0001594576
0.012750003
0.0001199172
0.012802621
8.415668e-05
0.012835473
5.461168e-05
0.012853733
3.21764e-05
0.01286209
1.6506839e-05
0.01286436
6.5056099e-06
0.01286335
7.8366321e-07
0.012860933
-2.0044151e-06
0.012858222
-2.97432e-06
0.012855788
-2.9488589e-06
0.012853851
-2.4740784e-06
0.012852433
-1.8740239e-06
0.012851462
-1.315644e-06
0.012850836
-8.6608742e-07
0.012850454
-5.3668813e-07
0.012850236
-3.1217839e-07
0.01285012
-1.6858773e-07
0.012850064
-8.2186044e-08
0.012850042
-3.3593741e-08
0.012850037
-8.4005396e-09
0.01285004
3.1149333e-09
0.012850045
7.2650651e-09
0.012850051
7.7353208e-09
0.012850055
6.6983094e-09
0.012850059
5.1840059e-09
0.012850061
3.7653865e-09
0.012850063
2.567659e-09
0.012850064
1.6910272e-09
0.012850065
1.0365387e-09
0.012850066
6.1644512e-10
0.012850066
3.1110454e-10
0.012850066
1.4325015e-10
0.012850066
1.2612208e-11
0.012850066
-3.8084265e-11
0.012850066
-9.2482245e-11
0.012850066
-9.4029753e-11
0.012850067
-1.1713427e-10
0.012850067
-9.9061098e-11
0.012850067
-1.1045068e-10
0.012850067
-8.5162728e-11
0.012850067
-9.2307267e-11
0.012850067
-6.5011994e-11
0.012850067
-7.2171987e-11
0.012850067
-4.5874207e-11
0.012850067
-5.4747681e-11
0.012850067
-3.1050745e-11
0.012850067
-4.3497312e-11
0.012850067
-2.3614614e-11
0.012850067
-3.9796221e-11
0.012850067
-2.3736586e-11
0.012850067
-4.3539132e-11
0.012850067
-3.083705e-11
0.012850067
-5.1723801e-11
0.012850067
-4.3115193e-11
0.012850067
-6.0154843e-11
0.012850067
-6.573252e-11
0.012850067
-5.4849646e-11
0.012850067
-1.2646595e-10
0.012850067
2.3314006e-11
0.012850067
-3.5463496e-10
0.012850067
4.3763935e-10
0.012850066
-1.2624055e-09
0.012850068
2.2212245e-09
0.012850064
-4.7156492e-09
0.012850073
8.8523397e-09
0.012850057
-1.6631469e-08
0.012850086
3.0231353e-08
0.012850035
-5.2330047e-08
0.012850122
8.8780559e-08
0.012849984
-1.4096584e-07
0.012850195
2.1832207e-07
0.012849899
-3.1044147e-07
0.012850294
4.2727722e-07
0.012849836
-5.1929485e-07
0.012850324
6.0810195e-07
0.012849949
-5.6561537e-07
0.012850158
5.2603252e-07
0.01285033
-2.2866973e-07
0.012850008
2.3890676e-07
0.012850626
1.4281166e-07
0.012850711
7.1866618e-07
0.01285058
-2.2927979e-07
0.012852632
2.837823e-06
0.01285224
2.2082658e-07
0.012855561
5.9765647e-06
0.012859298
6.561576e-06
0.012867387
1.462257e-05
2.504094e-05
0.010084598
4.1623228e-09
0.010295502
2.7357911e-09
0.010561691
2.1600144e-10
0.010848592
-1.687646e-09
0.011141085
-1.9944563e-09
0.011432077
-1.0822121e-09
0.01171845
1.0176834e-10
0.011995828
8.3178421e-10
0.012256292
8.825548e-10
0.012490147
4.478527e-10
0.012689082
-1.0843338e-10
0.012848541
-5.4168933e-10
0.012968459
-6.7168679e-10
0.013052617
-5.4031471e-10
0.013107229
-1.7649564e-10
0.013139404
2.7093624e-10
0.01315591
7.2962255e-10
0.013162414
1.0840868e-09
0.013163197
1.3100146e-09
0.013161191
1.3650253e-09
0.013158215
1.2940977e-09
0.013155265
1.1047365e-09
0.01315279
8.8088108e-10
0.013150916
6.3304339e-10
0.0131496
4.3546513e-10
0.013148733
2.6764029e-10
0.013148196
1.7553435e-10
0.013147884
1.1076663e-10
0.013147715
1.0081809e-10
0.013147633
8.850232e-11
0.013147599
1.0210075e-10
0.013147591
9.1365592e-11
0.013147594
9.2733173e-11
0.013147601
6.400834e-11
0.013147609
4.8794381e-11
0.013147615
9.057932e-12
0.013147621
-1.0499699e-11
0.013147624
-4.9161429e-11
0.013147627
-6.2968443e-11
0.013147629
-9.2874008e-11
0.01314763
-9.6943496e-11
0.013147631
-1.1810575e-10
0.013147631
-1.1442039e-10
0.013147631
-1.2872785e-10
0.013147631
-1.1937743e-10
0.013147631
-1.2959345e-10
0.013147631
-1.1672459e-10
0.013147631
-1.2338844e-10
0.013147631
-1.0716246e-10
0.013147631
-1.1131294e-10
0.013147631
-9.2777138e-11
0.013147631
-9.4613655e-11
0.013147631
-7.4304884e-11
0.013147631
-7.5712084e-11
0.013147631
-5.5769463e-11
0.013147631
-5.7936887e-11
0.013147631
-3.9605704e-11
0.013147631
-4.4718277e-11
0.013147631
-2.9930248e-11
0.013147631
-3.8573082e-11
0.013147631
-2.7353426e-11
0.013147631
-4.0095473e-11
0.013147631
-3.2291651e-11
0.013147631
-4.7544741e-11
0.013147631
-4.153282e-11
0.013147631
-5.8744885e-11
0.013147632
-5.4598441e-11
0.013147631
-7.2667076e-11
0.013147632
-7.0239328e-11
0.013147631
-9.0448136e-11
0.013147632
-9.0984428e-11
0.013147631
-1.1323188e-10
0.013147632
-1.1206406e-10
0.013147631
-1.2867791e-10
0.013147633
-1.1320886e-10
0.013147628
-1.0940656e-10
0.013147638
-7.4081221e-11
0.013147621
-5.5870853e-11
0.013147651
-2.1641901e-11
0.013147599
-1.5071029e-11
0.013147687
2.738878e-12
0.013147546
-6.2893665e-12
0.013147765
1.4450432e-11
0.013147454
1.564386e-11
0.013147882
5.2521171e-11
0.013147363
6.1068865e-11
0.013147971
8.7488744e-11
0.013147405
8.2447445e-11
0.013147931
1.0523967e-10
0.013147701
1.1775106e-10
0.01314794
1.7747875e-10
0.013148082
2.1230617e-10
0.013148801
2.3181016e-10
0.013148572
1.9876973e-10
0.01315141
1.2012129e-10
0.013151631
5.6139546e-11
0.013157607
2.2311109e-11
0.013164169
1.8888349e-11
0.013178791
-1.0335089e-11
1.8761585e-11
0.010084598
-8.4597906e-05
0.010295503
-0.00021090271
0.010561691
-0.00026618646
0.010848592
-0.00028690003
0.011141084
-0.00029249228
0.011432076
-0.00029099294
0.011718449
-0.0002863737
0.011995827
-0.00027737858
0.012256291
-0.00026046452
0.012490146
-0.00023385505
0.012689081
-0.00019893499
0.01284854
-0.00015945866
0.012968458
-0.00011991855
0.013052616
-8.4157751e-05
0.013107228
-5.461206e-05
0.013139404
-3.2175888e-05
0.013155909
-1.6505456e-05
0.013162414
-6.5035374e-06
0.013163196
-7.8118841e-07
0.01316119
2.0069897e-06
0.013158215
2.9767197e-06
0.013155265
2.9508995e-06
0.01315279
2.475663e-06
0.013150916
1.8751579e-06
0.0131496
1.3163863e-06
0.013148734
8.6654524e-07
0.013148197
5.3696168e-07
0.013147884
3.1236519e-07
0.013147716
1.6874339e-07
0.013147633
8.2349348e-08
0.0131476
3.3765456e-08
0.013147591
8.5774904e-09
0.013147594
-2.9570383e-09
0.013147601
-7.1384985e-09
0.013147609
-7.6598929e-09
0.013147616
-6.6750716e-09
0.013147621
-5.2201454e-09
0.013147625
-3.8508219e-09
0.013147627
-2.7005471e-09
0.013147629
-1.85606e-09
0.01314763
-1.2308739e-09
0.013147631
-8.2630763e-10
0.013147631
-5.3533574e-10
0.013147632
-3.7029085e-10
0.013147632
-2.4408897e-10
0.013147632
-1.8878317e-10
0.013147632
-1.3203671e-10
0.013147632
-1.1945299e-10
0.013147632
-8.8442386e-11
0.013147632
-9.0980288e-11
0.013147632
-6.7212389e-11
0.013147632
-7.2821837e-11
0.013147632
-5.0805096e-11
0.013147632
-5.780817e-11
0.013147632
-3.6371273e-11
0.013147632
-4.3939819e-11
0.013147632
-2.4606726e-11
0.013147632
-3.5156819e-11
0.013147631
-1.8686743e-11
0.013147631
-3.1947547e-11
0.013147631
-1.9064434e-11
0.013147631
-3.5986014e-11
0.013147631
-2.548199e-11
0.013147631
-4.3545426e-11
0.013147631
-3.5689718e-11
0.013147631
-5.3288236e-11
0.013147631
-5.2029388e-11
0.013147631
-5.7398423e-11
0.013147631
-8.7551814e-11
0.013147631
-3.1526269e-11
0.013147631
-2.0609752e-10
0.013147631
1.5252372e-10
0.013147632
-6.6214654e-10
0.013147631
1.0307862e-09
0.013147633
-2.4462417e-09
0.013147628
4.5237777e-09
0.013147637
-8.9971348e-09
0.013147621
1.6546462e-08
0.013147651
-3.0270278e-08
0.013147599
5.2325779e-08
0.013147687
-8.8777197e-08
0.013147546
1.409725e-07
0.013147764
-2.1831005e-07
0.013147454
3.104781e-07
0.013147881
-4.2720262e-07
0.013147362
5.1941001e-07
0.013147971
-6.0795643e-07
0.013147405
5.6577885e-07
0.01314793
-5.2583779e-07
0.013147701
2.289197e-07
0.01314794
-2.3856234e-07
0.013148082
-1.4238252e-07
0.013148801
-7.1823215e-07
0.013148572
2.2964499e-07
0.01315141
-2.8376356e-06
0.013151631
-2.2075389e-07
0.013157607
-5.976562e-06
0.013164169
-6.561555e-06
0.013178791
-1.4622568e-05
-2.5040888e-05
0.010106073
-0.0001906756
0.010357228
-0.00046205841
0.010655226
-0.00056418255
0.010965611
-0.00059728304
0.011269716
-0.00059659545
0.011556081
-0.00057735768
0.01181847
-0.00054876376
0.01205294
-0.00051184966
0.012256657
-0.00046418256
0.012427875
-0.00040507305
0.012566134
-0.00033719409
0.012672574
-0.00026589882
0.012750001
-0.00019734495
0.012802619
-0.00013677552
0.01283547
-8.7463537e-05
0.01285373
-5.0436145e-05
0.012862088
-2.4863479e-05
0.012864358
-8.773743e-06
0.012863349
2.2777461e-07
0.012860932
4.4238233e-06
0.012858221
5.6870546e-06
0.012855788
5.3845884e-06
0.012853851
4.4122431e-06
0.012852434
3.2926136e-06
0.012851463
2.2868484e-06
0.012850837
1.4927984e-06
0.012850455
9.184029e-07
0.012850237
5.3075846e-07
0.012850121
2.8473761e-07
0.012850065
1.3781189e-07
0.012850043
5.5686691e-08
0.012850038
1.3477982e-08
0.012850041
-5.6948305e-09
0.012850046
-1.2441795e-08
0.012850052
-1.3155847e-08
0.012850057
-1.1326474e-08
0.01285006
-8.8214964e-09
0.012850063
-6.4240597e-09
0.012850064
-4.4874468e-09
0.012850066
-3.0101908e-09
0.012850066
-1.9812995e-09
0.012850067
-1.2580553e-09
0.012850067
-8.010212e-10
0.012850067
-4.8714147e-10
0.012850067
-3.118342e-10
0.012850067
-1.8421658e-10
0.012850067
-1.2805388e-10
0.012850067
-7.476485e-11
0.012850067
-6.4387675e-11
0.012850067
-3.7476228e-11
0.012850067
-4.1054057e-11
0.012850067
-2.1590026e-11
0.012850067
-2.9596854e-11
0.012850067
-1.2397662e-11
0.012850067
-2.0999074e-11
0.012850067
-4.9642742e-12
0.012850067
-1.574834e-11
0.012850067
-2.0129897e-12
0.012850067
-1.4640869e-11
0.012850067
-3.0898402e-12
0.012850067
-1.8961238e-11
0.012850067
-9.2526444e-12
0.012850067
-2.6427139e-11
0.012850067
-1.6676037e-11
0.012850067
-3.6845167e-11
0.012850067
-2.4072781e-11
0.012850067
-5.4192535e-11
0.012850067
-1.9656804e-11
0.012850067
-1.0757054e-10
0.012850067
4.6372337e-11
0.012850067
-3.1970739e-10
0.012850066
4.2686414e-10
0.012850067
-1.1965712e-09
0.012850066
2.1708251e-09
0.012850068
-4.7156141e-09
0.012850064
9.0628155e-09
0.012850072
-1.774088e-08
0.012850056
3.2895285e-08
0.012850086
-6.0083856e-08
0.012850034
1.0400031e-07
0.012850121
-1.7617881e-07
0.012849983
2.7922208e-07
0.012850194
-4.2991427e-07
0.012849898
6.0682565e-07
0.012850293
-8.2211775e-07
0.012849835
9.7781388e-07
0.012850323
-1.0962046e-06
0.012849949
9.4055292e-07
0.012850158
-7.350452e-07
0.01285033
5.6629439e-08
0.012850007
8.3328025e-08
0.012850626
-7.6074754e-07
0.012850711
-8.0301852e-07
0.01285058
3.6066385e-07
0.012852631
-4.8886366e-06
0.01285224
1.7082488e-07
0.012855561
-9.2980039e-06
0.012859298
-1.0299134e-05
0.012867387
-2.2711118e-05
-3.778797e-05
0.010192965
-0.00038364604
0.010507348
-0.00077644226
0.010821002
-0.00087783594
0.011105235
-0.00088151284
0.011343951
-0.00083530941
0.011528671
-0.00076207686
0.011657548
-0.00067764191
0.011735783
-0.00059008606
0.011774692
-0.00050309321
0.011787907
-0.00041828866
0.011787266
-0.00033655264
0.011781077
-0.00025970947
0.01177404
-0.00019030764
0.011768133
-0.00013086773
0.011763774
-8.310445e-05
0.011760726
-4.738875e-05
0.01175861
-2.2747437e-05
0.01175711
-7.2740509e-06
0.011756017
1.3196747e-06
0.011755208
5.2327995e-06
0.011754608
6.2871204e-06
0.011754169
5.8237671e-06
0.011753855
4.7259665e-06
0.011753638
3.5098213e-06
0.011753493
2.4317999e-06
0.0117534
1.5856461e-06
0.011753343
9.7510403e-07
0.01175331
5.6351441e-07
0.011753293
3.0230104e-07
0.011753284
1.4628812e-07
0.011753281
5.900485e-08
0.01175328
1.4154943e-08
0.011753281
-6.2492289e-09
0.011753282
-1.3386926e-08
0.011753283
-1.414011e-08
0.011753283
-1.2139134e-08
0.011753284
-9.4605694e-09
0.011753284
-6.8562516e-09
0.011753285
-4.7906961e-09
0.011753285
-3.1772655e-09
0.011753285
-2.0887946e-09
0.011753285
-1.2868107e-09
0.011753285
-8.1499018e-10
0.011753285
-4.5558079e-10
0.011753285
-2.879651e-10
0.011753285
-1.291264e-10
0.011753285
-9.0800505e-11
0.011753285
-1.3733875e-11
0.011753285
-2.5689661e-11
0.011753285
2.2918762e-11
0.011753285
-5.2319163e-12
0.011753285
3.376871e-11
0.011753284
1.2501166e-13
0.011753284
3.7305706e-11
0.011753284
2.732877e-12
0.011753284
3.8208274e-11
0.011753284
1.8448492e-12
0.011753284
3.6710891e-11
0.011753284
-5.9395123e-13
0.011753284
3.2497183e-11
0.011753284
-6.7490186e-12
0.011753284
2.6564857e-11
0.011753284
-1.3112214e-11
0.011753284
1.9878428e-11
0.011753284
-2.3436819e-11
0.011753284
1.3236843e-11
0.011753284
-4.4565806e-11
0.011753284
1.6972955e-11
0.011753284
-1.1653027e-10
0.011753284
9.9295155e-11
0.011753284
-3.9306345e-10
0.011753284
5.9907997e-10
0.011753284
-1.5355209e-09
0.011753283
2.921472e-09
0.011753285
-6.1943851e-09
0.011753282
1.2133453e-08
0.011753288
-2.3672018e-08
0.011753277
4.4141949e-08
0.011753297
-8.0791494e-08
0.011753261
1.398151e-07
0.011753322
-2.3676055e-07
0.011753227
3.734505e-07
0.011753368
-5.702851e-07
0.011753181
7.9370013e-07
0.011753407
-1.0480048e-06
0.01175319
1.1952383e-06
0.011753329
-1.234773e-06
0.0117534
8.6898501e-07
0.011753017
-3.5182359e-07
0.011753806
-7.3349959e-07
0.011752735
1.1545704e-06
0.011753861
-1.8868364e-06
0.011753135
-7.7321294e-08
0.011753212
2.8492004e-07
0.011753401
-5.07752e-06
0.011753193
3.7846635e-07
0.011750361
-6.4662826e-06
0.011750763
-1.0701073e-05
0.011742464
-1.4412808e-05
-2.1134304e-05
0.010373801
-0.00075745303
0.010565355
-0.00096799779
0.010621045
-0.00093352445
0.010572089
-0.00083255285
0.010449929
-0.00071314627
0.010274439
-0.00058658588
0.010059775
-0.00046297919
0.0098237229
-0.0003540364
0.0095878401
-0.00026721313
0.0093723527
-0.00020280297
0.0091900997
-0.00015429955
0.0090467589
-0.00011636779
0.0089420966
-8.5643717e-05
0.0088715404
-6.0310455e-05
0.0088282145
-3.9778034e-05
0.0088047282
-2.3902618e-05
0.0087944139
-1.2433732e-05
0.0087919662
-4.8271967e-06
0.0087935924
-3.0703265e-07
0.00879685
1.9746511e-06
0.0088003427
2.7942537e-06
0.0088033944
2.7720168e-06
0.0088057726
2.3478863e-06
0.008807484
1.7984956e-06
0.00880864
1.2759277e-06
0.0088093788
8.4677122e-07
0.008809827
5.2702123e-07
0.0088100844
3.0595624e-07
0.0088102235
1.63188e-07
0.0088102929
7.6738021e-08
0.0088103236
2.8270808e-08
0.0088103342
3.4264334e-09
0.0088103354
-7.3841034e-09
0.0088103326
-1.0801322e-08
0.008810329
-1.0451259e-08
0.0088103255
-8.7769266e-09
0.0088103228
-6.6541176e-09
0.0088103207
-4.8520124e-09
0.0088103193
-3.2910658e-09
0.0088103182
-2.2407734e-09
0.0088103176
-1.3855101e-09
0.0088103171
-9.1200644e-10
0.0088103169
-4.9196068e-10
0.0088103166
-3.2989023e-10
0.0088103165
-1.2096866e-10
0.0088103164
-9.8880587e-11
0.0088103164
1.8917356e-11
0.0088103163
-1.7481583e-11
0.0088103163
6.6284297e-11
0.0088103162
9.5820829e-12
0.0088103162
8.0525606e-11
0.0088103161
1.555735e-11
0.0088103161
8.3540004e-11
0.008810316
1.7436581e-11
0.0088103161
8.368024e-11
0.008810316
1.5881991e-11
0.008810316
8.2596092e-11
0.0088103159
1.5571647e-11
0.0088103159
8.1624251e-11
0.0088103158
1.365578e-11
0.0088103159
8.0458302e-11
0.0088103158
1.3531003e-11
0.0088103158
7.7238759e-11
0.0088103157
7.4742667e-12
0.0088103157
6.2829565e-11
0.0088103157
-8.2156081e-12
0.0088103157
2.2916725e-11
0.0088103156
-3.2157866e-11
0.0088103157
-7.2975315e-11
0.0088103156
1.5517547e-11
0.0088103156
-3.4067733e-10
0.0088103155
4.8984705e-10
0.0088103154
-1.3602718e-09
0.0088103155
2.7481123e-09
0.0088103152
-5.6587821e-09
0.0088103159
1.1500083e-08
0.0088103147
-2.2153557e-08
0.0088103172
4.1543858e-08
0.0088103123
-7.5915504e-08
0.0088103212
1.3037352e-07
0.0088103034
-2.1924359e-07
0.0088103358
3.4062981e-07
0.0088102739
-5.0828248e-07
0.0088103829
6.8497076e-07
0.008810189
-8.5334004e-07
0.0088104982
8.8662232e-07
0.0088100122
-7.4843238e-07
0.0088106548
2.2599739e-07
0.0088098367
4.6560198e-07
0.0088105636
-1.4615012e-06
0.0088099772
1.7405566e-06
0.0088098263
-1.7358967e-06
0.0088100935
-3.4371681e-07
0.0088091458
1.233468e-06
0.0088077433
-3.6742588e-06
0.0088088998
-7.7802451e-07
0.0088008583
1.5747489e-06
0.0087996615
-9.5049991e-06
0.0087810568
4.1912172e-06
1.0980571e-05
0.0092425448
0.0082745474
0.0073410254
0.0065084755
0.0057953309
0.0052087446
0.0047457633
0.0043917244
0.0041245093
0.0039217059
0.003767407
0.0036510407
0.0035653981
0.0035050884
0.0034653104
0.0034414074
0.003428973
0.0034241452
0.0034238376
0.0034258121
0.0034286062
0.0034313784
0.0034337263
0.003435525
0.0034368009
0.0034376478
0.0034381747
0.0034384806
0.0034386437
0.0034387204
0.0034387485
0.003438752
0.0034387445
0.0034387337
0.0034387232
0.0034387145
0.0034387077
0.0034387029
0.0034386995
0.0034386974
0.0034386959
0.003438695
0.0034386945
0.0034386942
0.003438694
0.003438694
0.0034386939
0.003438694
0.0034386939
0.003438694
0.003438694
0.0034386941
0.0034386941
0.0034386942
0.0034386942
0.0034386943
0.0034386943
0.0034386944
0.0034386944
0.0034386945
0.0034386945
0.0034386946
0.0034386946
0.0034386947
0.0034386947
0.0034386948
0.0034386947
0.0034386947
0.0034386945
0.0034386946
0.0034386941
0.0034386946
0.0034386932
0.0034386961
0.0034386906
0.0034387023
0.0034386801
0.0034387216
0.0034386453
0.0034387754
0.0034385558
0.0034388965
0.0034383883
0.0034390739
0.0034382211
0.0034391081
0.0034383595
0.003438585
0.0034390497
0.0034375877
0.003439328
0.0034375927
0.0034372498
0.003438484
0.00343481
0.0034340316
0.0034356057
0.0034261001
0.0034302911
)
;

boundaryField
{
    top
    {
        type            calculated;
        value           uniform 0;
    }
    inlet
    {
        type            calculated;
        value           nonuniform List<scalar> 10(-0.01 -0.01 -0.01 -0.01 -0.01 -0.01 -0.01 -0.01 -0.01 -0.01);
    }
    outlet
    {
        type            calculated;
        value           nonuniform List<scalar> 10(0.0034412724 0.0087489416 0.01172581 0.012880134 0.013203832 0.013203832 0.012880134 0.011725811 0.0087489418 0.0034412717);
    }
    bottom
    {
        type            calculated;
        value           uniform 0;
    }
    back
    {
        type            empty;
        value           nonuniform 0();
    }
    front
    {
        type            empty;
        value           nonuniform 0();
    }
}


// ************************************************************************* //
