/*--------------------------------*- C++ -*----------------------------------*\
| =========                 |                                                 |
| \\      /  F ield         | OpenFOAM: The Open Source CFD Toolbox           |
|  \\    /   O peration     | Version:  v1812                                 |
|   \\  /    A nd           | Web:      www.OpenFOAM.com                      |
|    \\/     M anipulation  |                                                 |
\*---------------------------------------------------------------------------*/
FoamFile
{
    version     2.0;
    format      ascii;
    class       volVectorField;
    location    "2";
    object      U;
}
// * * * * * * * * * * * * * * * * * * * * * * * * * * * * * * * * * * * * * //

dimensions      [0 1 -1 0 0 0 0];


internalField   nonuniform List<vector> 
1000
(
(0.1205209 0.00043448734 0)
(0.11969362 0.00082255074 0)
(0.11814131 0.0005544387 0)
(0.1173296 0.00023879655 0)
(0.11704806 8.8747223e-05 0)
(0.11693889 3.694994e-05 0)
(0.11688418 1.6267919e-05 0)
(0.11685941 6.8790156e-06 0)
(0.11684911 3.2491328e-06 0)
(0.1168438 1.8052997e-06 0)
(0.11684059 9.9178962e-07 0)
(0.11683874 4.9484286e-07 0)
(0.11683775 2.2373836e-07 0)
(0.11683725 8.7204922e-08 0)
(0.11683701 2.3326116e-08 0)
(0.1168369 -2.3633346e-09 0)
(0.11683687 -9.9286833e-09 0)
(0.11683686 -1.0135152e-08 0)
(0.11683686 -8.1083961e-09 0)
(0.11683687 -5.560333e-09 0)
(0.11683688 -3.4434976e-09 0)
(0.11683688 -1.952223e-09 0)
(0.11683689 -1.0515678e-09 0)
(0.11683689 -4.6372347e-10 0)
(0.11683689 -1.7701876e-10 0)
(0.11683689 9.0235976e-12 0)
(0.11683689 5.8687408e-11 0)
(0.11683689 9.8685791e-11 0)
(0.11683689 7.1960011e-11 0)
(0.11683689 7.5134722e-11 0)
(0.11683689 3.2946325e-11 0)
(0.11683689 3.8787481e-11 0)
(0.11683689 5.1103834e-12 0)
(0.11683689 2.8575362e-11 0)
(0.11683689 3.7227213e-12 0)
(0.11683689 3.6087262e-11 0)
(0.11683689 2.1158593e-11 0)
(0.11683689 5.5714561e-11 0)
(0.11683689 3.8936174e-11 0)
(0.11683689 6.4155026e-11 0)
(0.11683689 4.1803652e-11 0)
(0.11683689 5.8965175e-11 0)
(0.11683689 2.4091437e-11 0)
(0.11683689 3.306574e-11 0)
(0.11683689 -6.55085e-12 0)
(0.11683689 6.0085849e-12 0)
(0.11683689 -3.5777997e-11 0)
(0.11683689 -2.4397904e-11 0)
(0.11683689 -5.8246208e-11 0)
(0.11683689 -4.1333756e-11 0)
(0.11683689 -6.6028916e-11 0)
(0.11683689 -4.1549862e-11 0)
(0.11683689 -5.3545618e-11 0)
(0.11683689 -1.7049378e-11 0)
(0.11683689 -2.6197978e-11 0)
(0.11683689 1.3589408e-11 0)
(0.11683689 4.2714533e-12 0)
(0.11683689 4.6131996e-11 0)
(0.11683689 3.509692e-11 0)
(0.11683689 7.0190333e-11 0)
(0.11683689 5.8742452e-11 0)
(0.11683689 8.5942312e-11 0)
(0.11683689 6.3662556e-11 0)
(0.11683689 7.9801779e-11 0)
(0.11683689 5.0147821e-11 0)
(0.11683689 6.0093823e-11 0)
(0.11683689 1.9684271e-11 0)
(0.11683689 2.4163082e-11 0)
(0.11683689 -1.9058738e-11 0)
(0.11683689 -8.6514046e-12 0)
(0.11683689 -5.3860876e-11 0)
(0.11683689 -4.8512441e-11 0)
(0.11683689 -8.5711264e-11 0)
(0.11683689 -7.6293037e-11 0)
(0.11683689 -1.0734003e-10 0)
(0.11683689 -9.2978514e-11 0)
(0.11683689 -1.1260298e-10 0)
(0.11683689 -8.7954944e-11 0)
(0.11683689 -1.0095841e-10 0)
(0.11683689 -6.992998e-11 0)
(0.11683689 -7.324685e-11 0)
(0.11683689 -3.2487998e-11 0)
(0.11683689 -3.352395e-11 0)
(0.11683689 1.2129787e-11 0)
(0.11683689 1.0530979e-11 0)
(0.11683689 6.3373296e-11 0)
(0.11683689 6.750124e-11 0)
(0.11683689 1.1444976e-10 0)
(0.11683689 1.1821293e-10 0)
(0.11683689 1.6149123e-10 0)
(0.11683689 1.5536037e-10 0)
(0.11683689 1.8138753e-10 0)
(0.11683689 6.5748062e-11 0)
(0.11683689 -3.19622e-10 0)
(0.11683689 -1.7013698e-09 0)
(0.1168369 -4.5580106e-09 0)
(0.11683691 -1.1927663e-08 0)
(0.11683696 -3.3751056e-08 0)
(0.11683697 -3.584858e-08 0)
(0.1168371 3.3890934e-09 0)
(0.2316645 0.00076495714 0)
(0.2328015 0.0017734412 0)
(0.23149851 0.0014073017 0)
(0.2307404 0.0007311805 0)
(0.23053504 0.00032181212 0)
(0.23044845 0.00014240381 0)
(0.23038226 6.3798239e-05 0)
(0.2303477 2.8469135e-05 0)
(0.23033383 1.4037694e-05 0)
(0.23032656 8.0025324e-06 0)
(0.2303217 4.7554576e-06 0)
(0.23031866 2.7374073e-06 0)
(0.23031686 1.5095914e-06 0)
(0.23031581 7.9389324e-07 0)
(0.23031521 3.9417243e-07 0)
(0.23031489 1.8322934e-07 0)
(0.23031473 7.8585031e-08 0)
(0.23031465 2.9767811e-08 0)
(0.23031461 8.5802174e-09 0)
(0.2303146 5.4853882e-10 0)
(0.23031459 -1.774031e-09 0)
(0.23031459 -1.9302186e-09 0)
(0.23031459 -1.4613417e-09 0)
(0.23031459 -8.9912553e-10 0)
(0.23031459 -4.657189e-10 0)
(0.2303146 -1.653953e-10 0)
(0.2303146 -1.2988993e-11 0)
(0.2303146 6.352858e-11 0)
(0.2303146 7.1949009e-11 0)
(0.2303146 6.5039676e-11 0)
(0.2303146 3.2392359e-11 0)
(0.2303146 1.4357705e-11 0)
(0.2303146 4.8211618e-14 0)
(0.2303146 6.5481924e-12 0)
(0.2303146 1.4933857e-11 0)
(0.2303146 3.6416116e-11 0)
(0.2303146 6.0215258e-11 0)
(0.2303146 9.3075234e-11 0)
(0.2303146 1.0645405e-10 0)
(0.2303146 1.2402621e-10 0)
(0.2303146 1.2015739e-10 0)
(0.2303146 1.188651e-10 0)
(0.2303146 8.7697842e-11 0)
(0.2303146 6.3007749e-11 0)
(0.2303146 2.0503233e-11 0)
(0.2303146 -8.1075618e-12 0)
(0.2303146 -4.8556856e-11 0)
(0.2303146 -7.9668942e-11 0)
(0.2303146 -1.1285625e-10 0)
(0.2303146 -1.2135429e-10 0)
(0.2303146 -1.3697532e-10 0)
(0.2303146 -1.2545072e-10 0)
(0.2303146 -1.143368e-10 0)
(0.2303146 -7.6965845e-11 0)
(0.2303146 -5.2242535e-11 0)
(0.2303146 -7.0180257e-12 0)
(0.2303146 2.7200736e-11 0)
(0.2303146 6.9484079e-11 0)
(0.2303146 1.0066604e-10 0)
(0.2303146 1.3832355e-10 0)
(0.2303146 1.5703415e-10 0)
(0.2303146 1.8032144e-10 0)
(0.2303146 1.7466907e-10 0)
(0.2303146 1.7328866e-10 0)
(0.2303146 1.4956498e-10 0)
(0.2303146 1.3208994e-10 0)
(0.2303146 8.6610915e-11 0)
(0.2303146 5.1672248e-11 0)
(0.2303146 5.8032447e-13 0)
(0.2303146 -3.4937097e-11 0)
(0.2303146 -8.3344508e-11 0)
(0.2303146 -1.2421482e-10 0)
(0.2303146 -1.6970386e-10 0)
(0.2303146 -1.927126e-10 0)
(0.2303146 -2.264629e-10 0)
(0.2303146 -2.35625e-10 0)
(0.2303146 -2.4680843e-10 0)
(0.2303146 -2.3237026e-10 0)
(0.2303146 -2.2717102e-10 0)
(0.2303146 -1.9743735e-10 0)
(0.2303146 -1.7090305e-10 0)
(0.2303146 -1.2126995e-10 0)
(0.2303146 -8.376374e-11 0)
(0.2303146 -2.4087973e-11 0)
(0.2303146 2.8085371e-11 0)
(0.2303146 9.211934e-11 0)
(0.2303146 1.4730163e-10 0)
(0.2303146 2.0152067e-10 0)
(0.2303146 2.189034e-10 0)
(0.2303146 1.9892129e-10 0)
(0.2303146 8.3241695e-11 0)
(0.2303146 -1.8280194e-10 0)
(0.2303146 -8.3323402e-10 0)
(0.2303146 -2.4146907e-09 0)
(0.23031461 -6.5541194e-09 0)
(0.23031461 -1.4387747e-08 0)
(0.23031463 -3.0754372e-08 0)
(0.23031472 -8.613673e-08 0)
(0.23031456 -1.0365402e-07 0)
(0.23031486 -4.8952747e-09 0)
(0.27661621 0.00062625003 0)
(0.27910012 0.0016539709 0)
(0.27831833 0.0014673383 0)
(0.27798495 0.00086146902 0)
(0.27810049 0.00042338229 0)
(0.27816665 0.00019926661 0)
(0.27815259 9.2209692e-05 0)
(0.27813842 4.266506e-05 0)
(0.27813622 2.1613215e-05 0)
(0.27813568 1.2529672e-05 0)
(0.27813452 7.7157607e-06 0)
(0.27813362 4.7049605e-06 0)
(0.27813307 2.7785098e-06 0)
(0.27813268 1.5789573e-06 0)
(0.27813242 8.6074342e-07 0)
(0.27813226 4.5048509e-07 0)
(0.27813217 2.2681489e-07 0)
(0.27813212 1.0965433e-07 0)
(0.2781321 5.0575508e-08 0)
(0.27813209 2.1842567e-08 0)
(0.27813208 8.5409471e-09 0)
(0.27813208 2.7530921e-09 0)
(0.27813208 4.9429748e-10 0)
(0.27813208 -2.6233636e-10 0)
(0.27813208 -3.7412691e-10 0)
(0.27813208 -3.128613e-10 0)
(0.27813208 -2.0141083e-10 0)
(0.27813208 -1.3623397e-10 0)
(0.27813209 -8.4656554e-11 0)
(0.27813209 -7.3030343e-11 0)
(0.27813209 -6.2512095e-11 0)
(0.27813209 -6.6609002e-11 0)
(0.27813209 -5.0083805e-11 0)
(0.27813209 -3.7683508e-11 0)
(0.27813209 -3.4322734e-12 0)
(0.27813209 2.1405274e-11 0)
(0.27813209 6.5255769e-11 0)
(0.27813209 9.1812699e-11 0)
(0.27813209 1.2397313e-10 0)
(0.27813209 1.3027727e-10 0)
(0.27813209 1.4168631e-10 0)
(0.27813209 1.2166124e-10 0)
(0.27813209 1.0685783e-10 0)
(0.27813209 6.2892436e-11 0)
(0.27813209 3.4107053e-11 0)
(0.27813209 -1.8758036e-11 0)
(0.27813209 -5.3065481e-11 0)
(0.27813209 -9.921611e-11 0)
(0.27813209 -1.2078673e-10 0)
(0.27813209 -1.4705314e-10 0)
(0.27813209 -1.449054e-10 0)
(0.27813209 -1.4880128e-10 0)
(0.27813209 -1.1980374e-10 0)
(0.27813209 -1.0063342e-10 0)
(0.27813209 -5.4418313e-11 0)
(0.27813209 -2.3229581e-11 0)
(0.27813209 3.335372e-11 0)
(0.27813209 6.9456356e-11 0)
(0.27813209 1.1743099e-10 0)
(0.27813209 1.4468876e-10 0)
(0.27813209 1.8034035e-10 0)
(0.27813209 1.8663402e-10 0)
(0.27813209 2.0048299e-10 0)
(0.27813209 1.827287e-10 0)
(0.27813209 1.7720118e-10 0)
(0.27813209 1.4010839e-10 0)
(0.27813209 1.1373887e-10 0)
(0.27813209 5.9128471e-11 0)
(0.27813209 2.4333479e-11 0)
(0.27813209 -3.5358577e-11 0)
(0.27813209 -7.7898944e-11 0)
(0.27813209 -1.3437624e-10 0)
(0.27813209 -1.683507e-10 0)
(0.27813209 -2.1204254e-10 0)
(0.27813209 -2.3075235e-10 0)
(0.27813209 -2.5963057e-10 0)
(0.27813209 -2.5651564e-10 0)
(0.27813209 -2.639145e-10 0)
(0.27813209 -2.4249539e-10 0)
(0.27813209 -2.3191765e-10 0)
(0.27813209 -1.9021808e-10 0)
(0.27813209 -1.6197509e-10 0)
(0.27813209 -1.0695416e-10 0)
(0.27813209 -6.5059071e-11 0)
(0.27813209 7.8946377e-12 0)
(0.27813209 6.4206506e-11 0)
(0.27813209 1.2937548e-10 0)
(0.27813209 1.556014e-10 0)
(0.27813209 1.4404121e-10 0)
(0.27813209 1.6244609e-11 0)
(0.27813209 -2.9133611e-10 0)
(0.27813209 -9.8175774e-10 0)
(0.27813209 -2.3225539e-09 0)
(0.27813209 -5.1781136e-09 0)
(0.27813209 -1.1484471e-08 0)
(0.27813209 -2.3319255e-08 0)
(0.27813209 -4.3457272e-08 0)
(0.27813219 -1.0212799e-07 0)
(0.27813188 -1.219968e-07 0)
(0.27813221 -1.1054072e-08 0)
(0.29292809 0.00035398863 0)
(0.2958472 0.0010206649 0)
(0.29518787 0.00097234893 0)
(0.29507812 0.00061410383 0)
(0.29542068 0.00032136808 0)
(0.29561293 0.00015732824 0)
(0.29564936 7.4637139e-05 0)
(0.29565696 3.5308667e-05 0)
(0.29566696 1.8127106e-05 0)
(0.29567361 1.0577184e-05 0)
(0.29567674 6.6069473e-06 0)
(0.29567855 4.1259692e-06 0)
(0.29567971 2.5054026e-06 0)
(0.29568037 1.4666209e-06 0)
(0.29568071 8.2541362e-07 0)
(0.29568089 4.4717395e-07 0)
(0.29568098 2.3381766e-07 0)
(0.29568103 1.1794378e-07 0)
(0.29568105 5.7226483e-08 0)
(0.29568106 2.6376556e-08 0)
(0.29568107 1.1360489e-08 0)
(0.29568107 4.3043074e-09 0)
(0.29568107 1.2749861e-09 0)
(0.29568108 1.775194e-11 0)
(0.29568108 -3.333175e-10 0)
(0.29568108 -4.3122757e-10 0)
(0.29568108 -3.3680162e-10 0)
(0.29568108 -3.0937358e-10 0)
(0.29568108 -2.0676203e-10 0)
(0.29568108 -2.0309252e-10 0)
(0.29568108 -1.2331443e-10 0)
(0.29568108 -1.3184072e-10 0)
(0.29568108 -5.9135117e-11 0)
(0.29568108 -6.1986059e-11 0)
(0.29568108 1.2170064e-11 0)
(0.29568108 9.359993e-12 0)
(0.29568108 7.8054852e-11 0)
(0.29568108 6.3424377e-11 0)
(0.29568108 1.2380588e-10 0)
(0.29568108 8.8609164e-11 0)
(0.29568108 1.288525e-10 0)
(0.29568108 7.4495202e-11 0)
(0.29568108 9.41732e-11 0)
(0.29568108 2.2285386e-11 0)
(0.29568108 2.9346246e-11 0)
(0.29568108 -4.6087632e-11 0)
(0.29568108 -3.7863647e-11 0)
(0.29568108 -1.0131173e-10 0)
(0.29568108 -7.7205593e-11 0)
(0.29568108 -1.3131267e-10 0)
(0.29568108 -9.1089105e-11 0)
(0.29568108 -1.2538503e-10 0)
(0.29568108 -6.7951303e-11 0)
(0.29568108 -8.4481366e-11 0)
(0.29568108 -1.3919146e-11 0)
(0.29568108 -2.217232e-11 0)
(0.29568108 5.2340844e-11 0)
(0.29568108 4.6184946e-11 0)
(0.29568108 1.1112048e-10 0)
(0.29568108 9.0317047e-11 0)
(0.29568108 1.5116396e-10 0)
(0.29568108 1.2088043e-10 0)
(0.29568108 1.6546904e-10 0)
(0.29568108 1.1770703e-10 0)
(0.29568108 1.4491864e-10 0)
(0.29568108 8.2562336e-11 0)
(0.29568108 9.7776322e-11 0)
(0.29568108 2.537085e-11 0)
(0.29568108 3.1602266e-11 0)
(0.29568108 -4.5891509e-11 0)
(0.29568108 -4.1267343e-11 0)
(0.29568108 -1.1334544e-10 0)
(0.29568108 -1.0024344e-10 0)
(0.29568108 -1.696848e-10 0)
(0.29568108 -1.4898324e-10 0)
(0.29568108 -2.0507927e-10 0)
(0.29568108 -1.7194857e-10 0)
(0.29568108 -2.1220837e-10 0)
(0.29568108 -1.641366e-10 0)
(0.29568108 -1.9130934e-10 0)
(0.29568108 -1.3196656e-10 0)
(0.29568108 -1.4680842e-10 0)
(0.29568108 -7.5296857e-11 0)
(0.29568108 -7.8888903e-11 0)
(0.29568108 2.9740951e-12 0)
(0.29568108 9.5102644e-12 0)
(0.29568108 8.6346839e-11 0)
(0.29568108 5.9740156e-11 0)
(0.29568108 7.1143856e-11 0)
(0.29568108 -1.0136816e-10 0)
(0.29568108 -3.8251827e-10 0)
(0.29568108 -1.0819145e-09 0)
(0.29568108 -2.3335028e-09 0)
(0.29568108 -4.9488717e-09 0)
(0.29568108 -1.0277613e-08 0)
(0.29568107 -2.024451e-08 0)
(0.29568105 -3.5372885e-08 0)
(0.29568115 -7.3986048e-08 0)
(0.29568077 -8.790994e-08 0)
(0.29568109 -1.2246156e-08 0)
(0.29796595 0.00010898898 0)
(0.30095157 0.00033080147 0)
(0.30024912 0.0003276493 0)
(0.30019366 0.00021501083 0)
(0.3006285 0.00011617139 0)
(0.30088044 5.8057095e-05 0)
(0.30094334 2.7919233e-05 0)
(0.30096301 1.3351722e-05 0)
(0.30097977 6.8868972e-06 0)
(0.30099041 4.0197667e-06 0)
(0.30099596 2.5205005e-06 0)
(0.30099935 1.587475e-06 0)
(0.30100156 9.7387073e-07 0)
(0.30100288 5.7597082e-07 0)
(0.30100362 3.2716186e-07 0)
(0.30100403 1.7852338e-07 0)
(0.30100426 9.3594695e-08 0)
(0.30100437 4.7001288e-08 0)
(0.30100444 2.2349398e-08 0)
(0.30100447 9.8052678e-09 0)
(0.30100448 3.6961882e-09 0)
(0.30100449 9.1238933e-10 0)
(0.3010045 -2.3964057e-10 0)
(0.3010045 -6.2496136e-10 0)
(0.3010045 -6.8540919e-10 0)
(0.30100451 -6.2054763e-10 0)
(0.30100451 -5.1183576e-10 0)
(0.30100451 -4.2147871e-10 0)
(0.30100451 -3.300171e-10 0)
(0.30100451 -2.6434669e-10 0)
(0.30100451 -1.9048155e-10 0)
(0.30100451 -1.4672642e-10 0)
(0.30100451 -8.533524e-11 0)
(0.30100451 -4.9534246e-11 0)
(0.30100451 4.0378016e-12 0)
(0.30100451 2.3868501e-11 0)
(0.30100451 5.8395145e-11 0)
(0.30100451 6.6600601e-11 0)
(0.30100451 8.7189492e-11 0)
(0.30100451 7.6030074e-11 0)
(0.30100451 7.5562796e-11 0)
(0.30100451 5.6506589e-11 0)
(0.30100451 4.5372508e-11 0)
(0.30100451 1.3858026e-11 0)
(0.30100451 -2.9694271e-12 0)
(0.30100451 -3.0797628e-11 0)
(0.30100451 -3.4327108e-11 0)
(0.30100451 -5.8991291e-11 0)
(0.30100451 -5.7410576e-11 0)
(0.30100451 -6.6604829e-11 0)
(0.30100451 -5.4962144e-11 0)
(0.30100451 -5.4553469e-11 0)
(0.30100451 -3.8426321e-11 0)
(0.30100451 -2.638746e-11 0)
(0.30100451 -1.5537653e-12 0)
(0.30100451 7.4172483e-12 0)
(0.30100451 3.0669345e-11 0)
(0.30100451 3.5476082e-11 0)
(0.30100451 5.8266717e-11 0)
(0.30100451 5.5516274e-11 0)
(0.30100451 6.8845229e-11 0)
(0.30100451 6.8161494e-11 0)
(0.30100451 7.375381e-11 0)
(0.30100451 6.2845412e-11 0)
(0.30100451 5.7450261e-11 0)
(0.30100451 4.3892938e-11 0)
(0.30100451 3.865865e-11 0)
(0.30100451 1.7077509e-11 0)
(0.30100451 6.4618915e-12 0)
(0.30100451 -1.6430356e-11 0)
(0.30100451 -1.7531558e-11 0)
(0.30100451 -4.3252745e-11 0)
(0.30100451 -5.0370511e-11 0)
(0.30100451 -6.8649233e-11 0)
(0.30100451 -7.2207586e-11 0)
(0.30100451 -8.5692019e-11 0)
(0.30100451 -8.8241894e-11 0)
(0.30100451 -9.0698267e-11 0)
(0.30100451 -8.457014e-11 0)
(0.30100451 -8.6010911e-11 0)
(0.30100451 -7.9099221e-11 0)
(0.30100451 -7.4391019e-11 0)
(0.30100451 -5.8671599e-11 0)
(0.30100451 -5.2501862e-11 0)
(0.30100451 -2.7927788e-11 0)
(0.30100451 -1.6068375e-11 0)
(0.30100451 1.837649e-11 0)
(0.30100451 2.8418204e-11 0)
(0.30100451 3.8138603e-11 0)
(0.30100451 -1.1743689e-11 0)
(0.30100451 -1.1992179e-10 0)
(0.30100451 -3.4907562e-10 0)
(0.30100451 -8.175595e-10 0)
(0.30100451 -1.7632721e-09 0)
(0.3010045 -3.7685056e-09 0)
(0.30100449 -7.4883385e-09 0)
(0.30100445 -1.2922777e-08 0)
(0.30100455 -2.579499e-08 0)
(0.30100415 -3.0746333e-08 0)
(0.30100447 -5.0607011e-09 0)
(0.29796603 -0.00010899605 0)
(0.30095157 -0.00033083161 0)
(0.30024913 -0.000327707 0)
(0.30019369 -0.00021509699 0)
(0.30062853 -0.00011627061 0)
(0.30088045 -5.8149254e-05 0)
(0.30094333 -2.7990978e-05 0)
(0.300963 -1.3403899e-05 0)
(0.30097976 -6.9244112e-06 0)
(0.3009904 -4.0480812e-06 0)
(0.30099595 -2.5427407e-06 0)
(0.30099935 -1.6057152e-06 0)
(0.30100156 -9.8931934e-07 0)
(0.30100288 -5.8932024e-07 0)
(0.30100362 -3.3894241e-07 0)
(0.30100403 -1.8878347e-07 0)
(0.30100426 -1.0258846e-07 0)
(0.30100437 -5.4617044e-08 0)
(0.30100444 -2.8867736e-08 0)
(0.30100447 -1.5144169e-08 0)
(0.30100448 -8.1678261e-09 0)
(0.30100449 -4.4292447e-09 0)
(0.3010045 -2.659625e-09 0)
(0.3010045 -1.579194e-09 0)
(0.3010045 -1.1613539e-09 0)
(0.30100451 -7.4231753e-10 0)
(0.30100451 -6.725522e-10 0)
(0.30100451 -4.2228488e-10 0)
(0.30100451 -4.3646942e-10 0)
(0.30100451 -2.2470824e-10 0)
(0.30100451 -2.6661913e-10 0)
(0.30100451 -8.4714186e-11 0)
(0.30100451 -1.450127e-10 0)
(0.30100451 2.4670833e-11 0)
(0.30100451 -5.5292833e-11 0)
(0.30100451 8.5061565e-11 0)
(0.30100451 -1.4304816e-11 0)
(0.30100451 1.1400879e-10 0)
(0.30100451 -7.4502208e-12 0)
(0.30100451 9.8907988e-11 0)
(0.30100451 -3.1279938e-11 0)
(0.30100451 7.5395209e-11 0)
(0.30100451 -5.6246147e-11 0)
(0.30100451 4.6358614e-11 0)
(0.30100451 -7.9901217e-11 0)
(0.30100451 3.9460699e-11 0)
(0.30100451 -8.2051389e-11 0)
(0.30100451 3.5846723e-11 0)
(0.30100451 -7.5236388e-11 0)
(0.30100451 5.6675918e-11 0)
(0.30100451 -5.0500483e-11 0)
(0.30100451 6.9850697e-11 0)
(0.30100451 -3.8545637e-11 0)
(0.30100451 8.4506842e-11 0)
(0.30100451 -3.071901e-11 0)
(0.30100451 8.083269e-11 0)
(0.30100451 -3.9662945e-11 0)
(0.30100451 7.7408269e-11 0)
(0.30100451 -4.6616521e-11 0)
(0.30100451 5.8370524e-11 0)
(0.30100451 -6.8541223e-11 0)
(0.30100451 4.4227476e-11 0)
(0.30100451 -7.7693362e-11 0)
(0.30100451 3.2238338e-11 0)
(0.30100451 -8.4148405e-11 0)
(0.30100451 4.0314766e-11 0)
(0.30100451 -7.4079746e-11 0)
(0.30100451 4.5229122e-11 0)
(0.30100451 -6.7395694e-11 0)
(0.30100451 6.3689636e-11 0)
(0.30100451 -4.9692298e-11 0)
(0.30100451 7.3144608e-11 0)
(0.30100451 -3.7147527e-11 0)
(0.30100451 9.0305008e-11 0)
(0.30100451 -2.2304856e-11 0)
(0.30100451 8.9082928e-11 0)
(0.30100451 -2.5959171e-11 0)
(0.30100451 8.7449066e-11 0)
(0.30100451 -3.1566764e-11 0)
(0.30100451 7.0883493e-11 0)
(0.30100451 -5.0465952e-11 0)
(0.30100451 5.5869379e-11 0)
(0.30100451 -6.9972259e-11 0)
(0.30100451 2.7622893e-11 0)
(0.30100451 -9.6611115e-11 0)
(0.30100451 2.3573787e-11 0)
(0.30100451 -8.2553088e-11 0)
(0.30100451 6.1849234e-11 0)
(0.30100451 -3.1105871e-12 0)
(0.30100451 2.1239647e-10 0)
(0.30100451 2.924903e-10 0)
(0.30100451 7.3783281e-10 0)
(0.30100451 1.2817412e-09 0)
(0.30100451 2.5289473e-09 0)
(0.3010045 4.559969e-09 0)
(0.30100449 8.4441253e-09 0)
(0.30100445 1.3802927e-08 0)
(0.30100455 2.6463998e-08 0)
(0.30100415 3.1105736e-08 0)
(0.30100447 5.2575776e-09 0)
(0.29292819 -0.00035398848 0)
(0.29584736 -0.0010206704 0)
(0.29518803 -0.00097237542 0)
(0.2950782 -0.00061415622 0)
(0.2954207 -0.00032143474 0)
(0.29561293 -0.00015739177 0)
(0.29564934 -7.4689113e-05 0)
(0.29565694 -3.5347913e-05 0)
(0.29566694 -1.8156683e-05 0)
(0.29567359 -1.0599763e-05 0)
(0.29567672 -6.6247105e-06 0)
(0.29567854 -4.1403803e-06 0)
(0.29567971 -2.5174221e-06 0)
(0.29568036 -1.4769498e-06 0)
(0.29568071 -8.3432143e-07 0)
(0.29568089 -4.5502718e-07 0)
(0.29568098 -2.405981e-07 0)
(0.29568102 -1.2388499e-07 0)
(0.29568105 -6.2231554e-08 0)
(0.29568106 -3.0687426e-08 0)
(0.29568107 -1.487443e-08 0)
(0.29568107 -7.2597652e-09 0)
(0.29568107 -3.5947695e-09 0)
(0.29568108 -1.9657931e-09 0)
(0.29568108 -1.1396206e-09 0)
(0.29568108 -8.05273e-10 0)
(0.29568108 -5.7044126e-10 0)
(0.29568108 -4.8953493e-10 0)
(0.29568108 -3.4395513e-10 0)
(0.29568108 -2.9443957e-10 0)
(0.29568108 -1.7612236e-10 0)
(0.29568108 -1.5037639e-10 0)
(0.29568108 -4.7122651e-11 0)
(0.29568108 -3.9052308e-11 0)
(0.29568108 3.0064978e-11 0)
(0.29568108 2.4574845e-12 0)
(0.29568108 5.1662835e-11 0)
(0.29568108 7.950189e-12 0)
(0.29568108 3.2199378e-11 0)
(0.29568108 -2.7516316e-11 0)
(0.29568108 1.688928e-12 0)
(0.29568108 -4.9215098e-11 0)
(0.29568108 -1.7535486e-11 0)
(0.29568108 -6.4278982e-11 0)
(0.29568108 -1.3288263e-11 0)
(0.29568108 -4.0529593e-11 0)
(0.29568108 1.3041674e-11 0)
(0.29568108 -1.1890781e-11 0)
(0.29568108 5.3009454e-11 0)
(0.29568108 3.4506558e-11 0)
(0.29568108 8.5875926e-11 0)
(0.29568108 4.8520462e-11 0)
(0.29568108 9.5165469e-11 0)
(0.29568108 5.087612e-11 0)
(0.29568108 7.7992539e-11 0)
(0.29568108 1.476759e-11 0)
(0.29568108 3.8091076e-11 0)
(0.29568108 -2.3059732e-11 0)
(0.29568108 -1.0410951e-11 0)
(0.29568108 -7.9586648e-11 0)
(0.29568108 -5.6697962e-11 0)
(0.29568108 -1.0986373e-10 0)
(0.29568108 -7.8727962e-11 0)
(0.29568108 -1.2696117e-10 0)
(0.29568108 -7.3919774e-11 0)
(0.29568108 -1.0164438e-10 0)
(0.29568108 -4.4671147e-11 0)
(0.29568108 -6.9866429e-11 0)
(0.29568108 1.6749534e-12 0)
(0.29568108 -9.177171e-12 0)
(0.29568108 5.6728014e-11 0)
(0.29568108 3.976255e-11 0)
(0.29568108 1.1036425e-10 0)
(0.29568108 9.4967471e-11 0)
(0.29568108 1.4807432e-10 0)
(0.29568108 1.1148209e-10 0)
(0.29568108 1.599877e-10 0)
(0.29568108 1.1751967e-10 0)
(0.29568108 1.470937e-10 0)
(0.29568108 8.4980077e-11 0)
(0.29568108 1.0996627e-10 0)
(0.29568108 4.6377042e-11 0)
(0.29568108 5.5688407e-11 0)
(0.29568108 -2.2486741e-11 0)
(0.29568108 -9.9404814e-12 0)
(0.29568108 -7.1947612e-11 0)
(0.29568108 -4.1246569e-11 0)
(0.29568108 -6.1696568e-11 0)
(0.29568108 6.8838732e-11 0)
(0.29568108 2.2517127e-10 0)
(0.29568108 6.555169e-10 0)
(0.29568108 1.3604758e-09 0)
(0.29568108 2.8277816e-09 0)
(0.29568108 5.5081957e-09 0)
(0.29568108 1.102294e-08 0)
(0.29568107 2.1034038e-08 0)
(0.29568105 3.6148639e-08 0)
(0.29568115 7.4530348e-08 0)
(0.29568077 8.8204155e-08 0)
(0.29568109 1.2415746e-08 0)
(0.27661626 -0.00062625188 0)
(0.27910019 -0.0016539769 0)
(0.27831839 -0.0014673477 0)
(0.27798498 -0.00086147585 0)
(0.27810048 -0.00042339483 0)
(0.27816662 -0.00019928719 0)
(0.27815254 -9.223568e-05 0)
(0.27813837 -4.2689744e-05 0)
(0.27813618 -2.1634001e-05 0)
(0.27813564 -1.2545735e-05 0)
(0.2781345 -7.727981e-06 0)
(0.27813361 -4.7142123e-06 0)
(0.27813305 -2.7856328e-06 0)
(0.27813267 -1.5847337e-06 0)
(0.27813241 -8.6549375e-07 0)
(0.27813226 -4.5467418e-07 0)
(0.27813217 -2.3038509e-07 0)
(0.27813212 -1.1290417e-07 0)
(0.2781321 -5.3286859e-08 0)
(0.27813208 -2.4339534e-08 0)
(0.27813208 -1.0586033e-08 0)
(0.27813208 -4.6011241e-09 0)
(0.27813208 -1.9264347e-09 0)
(0.27813208 -1.0515911e-09 0)
(0.27813208 -5.8741121e-10 0)
(0.27813208 -5.9878715e-10 0)
(0.27813208 -4.2212717e-10 0)
(0.27813208 -4.9057596e-10 0)
(0.27813209 -2.9062552e-10 0)
(0.27813209 -3.3930615e-10 0)
(0.27813209 -1.4239269e-10 0)
(0.27813209 -1.945797e-10 0)
(0.27813209 -9.8037736e-12 0)
(0.27813209 -9.2193434e-11 0)
(0.27813209 5.0183921e-11 0)
(0.27813209 -5.8905346e-11 0)
(0.27813209 6.6625918e-11 0)
(0.27813209 -6.7577335e-11 0)
(0.27813209 3.6931486e-11 0)
(0.27813209 -1.0105803e-10 0)
(0.27813209 1.4514454e-11 0)
(0.27813209 -1.1671363e-10 0)
(0.27813209 5.672719e-12 0)
(0.27813209 -1.0818063e-10 0)
(0.27813209 3.9530564e-11 0)
(0.27813209 -6.4097483e-11 0)
(0.27813209 8.2582466e-11 0)
(0.27813209 -1.5193191e-11 0)
(0.27813209 1.3583863e-10 0)
(0.27813209 2.9796318e-11 0)
(0.27813209 1.5852714e-10 0)
(0.27813209 3.8755189e-11 0)
(0.27813209 1.5974047e-10 0)
(0.27813209 1.9661533e-11 0)
(0.27813209 1.150314e-10 0)
(0.27813209 -3.6975739e-11 0)
(0.27813209 5.7200938e-11 0)
(0.27813209 -1.019134e-10 0)
(0.27813209 -1.6210537e-11 0)
(0.27813209 -1.6587473e-10 0)
(0.27813209 -5.9889287e-11 0)
(0.27813209 -1.9963952e-10 0)
(0.27813209 -8.5486983e-11 0)
(0.27813209 -2.0652917e-10 0)
(0.27813209 -6.3544003e-11 0)
(0.27813209 -1.7102564e-10 0)
(0.27813209 -2.0046375e-11 0)
(0.27813209 -1.1079465e-10 0)
(0.27813209 5.9422186e-11 0)
(0.27813209 -2.7207642e-11 0)
(0.27813209 1.3295564e-10 0)
(0.27813209 4.6516047e-11 0)
(0.27813209 2.0511799e-10 0)
(0.27813209 1.06009e-10 0)
(0.27813209 2.4351727e-10 0)
(0.27813209 1.3392312e-10 0)
(0.27813209 2.6426921e-10 0)
(0.27813209 1.3653325e-10 0)
(0.27813209 2.4038434e-10 0)
(0.27813209 9.7979591e-11 0)
(0.27813209 1.9413118e-10 0)
(0.27813209 3.4201076e-11 0)
(0.27813209 1.0673629e-10 0)
(0.27813209 -6.0832844e-11 0)
(0.27813209 1.6501353e-11 0)
(0.27813209 -1.4953182e-10 0)
(0.27813209 -5.3925946e-11 0)
(0.27813209 -1.6553664e-10 0)
(0.27813209 3.454556e-11 0)
(0.27813209 8.9181136e-11 0)
(0.27813209 5.5914466e-10 0)
(0.27813209 1.17555e-09 0)
(0.27813209 2.703788e-09 0)
(0.27813209 5.4968716e-09 0)
(0.27813209 1.2026114e-08 0)
(0.27813209 2.3882438e-08 0)
(0.27813209 4.4009986e-08 0)
(0.27813219 1.0248231e-07 0)
(0.27813188 1.2217689e-07 0)
(0.27813221 1.1163359e-08 0)
(0.23166446 -0.00076495107 0)
(0.23280142 -0.0017734249 0)
(0.23149844 -0.0014072678 0)
(0.23074034 -0.00073113439 0)
(0.230535 -0.00032177218 0)
(0.23044841 -0.00014238367 0)
(0.23038223 -6.3794854e-05 0)
(0.23034768 -2.8473978e-05 0)
(0.23033381 -1.4044159e-05 0)
(0.23032654 -8.0081201e-06 0)
(0.23032168 -4.7594854e-06 0)
(0.23031865 -2.7400094e-06 0)
(0.23031685 -1.5111748e-06 0)
(0.2303158 -7.9472171e-07 0)
(0.23031521 -3.9465178e-07 0)
(0.23031489 -1.8342842e-07 0)
(0.23031473 -7.8786733e-08 0)
(0.23031465 -2.9894455e-08 0)
(0.23031461 -8.8540009e-09 0)
(0.2303146 -6.9438045e-10 0)
(0.23031459 1.5745127e-09 0)
(0.23031459 1.78682e-09 0)
(0.23031459 1.1875562e-09 0)
(0.23031459 6.9881826e-10 0)
(0.2303146 1.9188528e-10 0)
(0.2303146 -1.0522652e-11 0)
(0.2303146 -2.2507579e-10 0)
(0.2303146 -1.9573606e-10 0)
(0.2303146 -2.6162392e-10 0)
(0.2303146 -1.5103395e-10 0)
(0.2303146 -1.7606118e-10 0)
(0.2303146 -4.9363756e-11 0)
(0.2303146 -8.3414592e-11 0)
(0.2303146 1.2006005e-11 0)
(0.2303146 -4.8927895e-11 0)
(0.2303146 3.0056452e-11 0)
(0.2303146 -5.0783616e-11 0)
(0.2303146 6.5495702e-12 0)
(0.2303146 -8.1581758e-11 0)
(0.2303146 -1.5607529e-11 0)
(0.2303146 -9.697227e-11 0)
(0.2303146 -2.7058378e-11 0)
(0.2303146 -9.4972448e-11 0)
(0.2303146 -1.017288e-12 0)
(0.2303146 -5.4074342e-11 0)
(0.2303146 4.1586164e-11 0)
(0.2303146 -6.954148e-12 0)
(0.2303146 9.5251698e-11 0)
(0.2303146 4.2483485e-11 0)
(0.2303146 1.2641467e-10 0)
(0.2303146 5.9501044e-11 0)
(0.2303146 1.3602381e-10 0)
(0.2303146 5.2668362e-11 0)
(0.2303146 1.0327008e-10 0)
(0.2303146 3.0284932e-12 0)
(0.2303146 5.1952456e-11 0)
(0.2303146 -5.3140275e-11 0)
(0.2303146 -1.5435885e-11 0)
(0.2303146 -1.1886389e-10 0)
(0.2303146 -6.523009e-11 0)
(0.2303146 -1.5691018e-10 0)
(0.2303146 -9.808127e-11 0)
(0.2303146 -1.7695091e-10 0)
(0.2303146 -9.1584262e-11 0)
(0.2303146 -1.5213517e-10 0)
(0.2303146 -5.865351e-11 0)
(0.2303146 -1.0593246e-10 0)
(0.2303146 7.543523e-12 0)
(0.2303146 -3.1494474e-11 0)
(0.2303146 7.5478135e-11 0)
(0.2303146 3.5906842e-11 0)
(0.2303146 1.4603322e-10 0)
(0.2303146 1.0024864e-10 0)
(0.2303146 1.916438e-10 0)
(0.2303146 1.3426765e-10 0)
(0.2303146 2.2072756e-10 0)
(0.2303146 1.4860791e-10 0)
(0.2303146 2.1044865e-10 0)
(0.2303146 1.2271135e-10 0)
(0.2303146 1.7958514e-10 0)
(0.2303146 7.9515605e-11 0)
(0.2303146 1.1497472e-10 0)
(0.2303146 2.2385007e-12 0)
(0.2303146 3.8181824e-11 0)
(0.2303146 -7.8783212e-11 0)
(0.2303146 -4.9366183e-11 0)
(0.2303146 -1.5468605e-10 0)
(0.2303146 -8.9487334e-11 0)
(0.2303146 -1.5464022e-10 0)
(0.2303146 -3.3969403e-11 0)
(0.2303146 2.3311162e-11 0)
(0.2303146 3.8796625e-10 0)
(0.2303146 9.5884868e-10 0)
(0.2303146 2.618976e-09 0)
(0.23031461 6.8112168e-09 0)
(0.23031461 1.4786125e-08 0)
(0.23031463 3.1043293e-08 0)
(0.23031472 8.623916e-08 0)
(0.23031456 1.0367037e-07 0)
(0.23031486 4.8955673e-09 0)
(0.12052087 -0.00043447893 0)
(0.1196936 -0.00082252556 0)
(0.11814129 -0.00055440142 0)
(0.1173296 -0.00023875681 0)
(0.11704808 -8.8713539e-05 0)
(0.11693893 -3.6929616e-05 0)
(0.11688422 -1.6258485e-05 0)
(0.11685944 -6.8756936e-06 0)
(0.11684913 -3.2479257e-06 0)
(0.11684381 -1.8047999e-06 0)
(0.11684059 -9.9139093e-07 0)
(0.11683874 -4.9433735e-07 0)
(0.11683775 -2.231547e-07 0)
(0.11683724 -8.6432373e-08 0)
(0.116837 -2.2571581e-08 0)
(0.1168369 3.2172668e-09 0)
(0.11683687 1.0629813e-08 0)
(0.11683686 1.0848568e-08 0)
(0.11683686 8.5497416e-09 0)
(0.11683687 6.1034787e-09 0)
(0.11683688 3.8455893e-09 0)
(0.11683688 2.3680443e-09 0)
(0.11683689 1.2416986e-09 0)
(0.11683689 7.0159888e-10 0)
(0.11683689 2.5280419e-10 0)
(0.11683689 1.3898717e-10 0)
(0.11683689 -3.5730785e-11 0)
(0.11683689 2.2165317e-12 0)
(0.11683689 -9.1208651e-11 0)
(0.11683689 -4.3089074e-12 0)
(0.11683689 -7.1134329e-11 0)
(0.11683689 2.4324418e-11 0)
(0.11683689 -4.8365374e-11 0)
(0.11683689 3.6766533e-11 0)
(0.11683689 -3.9296352e-11 0)
(0.11683689 3.9536815e-11 0)
(0.11683689 -4.8809079e-11 0)
(0.11683689 2.4379597e-11 0)
(0.11683689 -6.0240889e-11 0)
(0.11683689 1.7785609e-11 0)
(0.11683689 -6.79964e-11 0)
(0.11683689 1.2154227e-11 0)
(0.11683689 -6.4532339e-11 0)
(0.11683689 2.5582558e-11 0)
(0.11683689 -4.9829814e-11 0)
(0.11683689 4.0566768e-11 0)
(0.11683689 -2.8465203e-11 0)
(0.11683689 6.3560091e-11 0)
(0.11683689 -1.2043746e-11 0)
(0.11683689 7.2264707e-11 0)
(0.11683689 -2.3552996e-12 0)
(0.11683689 7.9783926e-11 0)
(0.11683689 -7.7956831e-12 0)
(0.11683689 6.4492096e-11 0)
(0.11683689 -2.3431901e-11 0)
(0.11683689 4.735853e-11 0)
(0.11683689 -4.7787751e-11 0)
(0.11683689 2.0198346e-11 0)
(0.11683689 -6.8605267e-11 0)
(0.11683689 5.1245462e-12 0)
(0.11683689 -8.542866e-11 0)
(0.11683689 -1.0234347e-11 0)
(0.11683689 -9.1946414e-11 0)
(0.11683689 -5.3469135e-12 0)
(0.11683689 -8.4955815e-11 0)
(0.11683689 5.0531036e-12 0)
(0.11683689 -6.5256194e-11 0)
(0.11683689 3.0686886e-11 0)
(0.11683689 -4.0950999e-11 0)
(0.11683689 5.2658296e-11 0)
(0.11683689 -1.4586109e-11 0)
(0.11683689 7.8216422e-11 0)
(0.11683689 6.4642636e-12 0)
(0.11683689 9.4762963e-11 0)
(0.11683689 2.3345688e-11 0)
(0.11683689 1.0868539e-10 0)
(0.11683689 2.6176686e-11 0)
(0.11683689 1.0210335e-10 0)
(0.11683689 1.8962416e-11 0)
(0.11683689 9.2446883e-11 0)
(0.11683689 2.8145257e-13 0)
(0.11683689 6.7452919e-11 0)
(0.11683689 -2.2815119e-11 0)
(0.11683689 4.4355811e-11 0)
(0.11683689 -5.3358344e-11 0)
(0.11683689 1.1500927e-11 0)
(0.11683689 -8.2321317e-11 0)
(0.11683689 -1.4481319e-11 0)
(0.11683689 -1.1474169e-10 0)
(0.11683689 -5.1505988e-11 0)
(0.11683689 -1.4339471e-10 0)
(0.11683689 -5.740702e-11 0)
(0.11683689 -6.4708454e-11 0)
(0.11683689 4.3086554e-10 0)
(0.11683689 1.782973e-09 0)
(0.1168369 4.730286e-09 0)
(0.11683691 1.1987623e-08 0)
(0.11683696 3.3718543e-08 0)