# Region type : patch inlet
# Faces         : 10
# Area          : 1.00000000e-01
# Scale factor  : 1.00000000e+00
# Weight field  : p
# Time          	weightedAverage(phi)	weightedAverage(U)	weightedAverage(p)
0.05            	-7.18904442e-05	(7.69844399e-03 -3.69770476e-11 0.00000000e+00)	1.52300000e+00
0.1             	-1.45747419e-04	(1.45747419e-02 0.00000000e+00 0.00000000e+00)	1.52300000e+00
0.15            	-2.18032694e-04	(2.18032694e-02 0.00000000e+00 0.00000000e+00)	1.52300000e+00
0.2             	-2.89200210e-04	(2.89200210e-02 0.00000000e+00 0.00000000e+00)	1.52300000e+00
0.25            	-3.59370596e-04	(3.59370596e-02 0.00000000e+00 0.00000000e+00)	1.52300000e+00
0.3             	-4.28581907e-04	(4.28581907e-02 0.00000000e+00 0.00000000e+00)	1.52300000e+00
0.35            	-4.96931122e-04	(4.96931122e-02 0.00000000e+00 0.00000000e+00)	1.52300000e+00
0.4             	-5.64451925e-04	(5.64451925e-02 0.00000000e+00 0.00000000e+00)	1.52300000e+00
0.45            	-6.31201742e-04	(6.31201742e-02 0.00000000e+00 0.00000000e+00)	1.52300000e+00
0.5             	-6.97221435e-04	(6.97221435e-02 0.00000000e+00 0.00000000e+00)	1.52300000e+00
0.55            	-7.62539145e-04	(7.62539145e-02 0.00000000e+00 0.00000000e+00)	1.52300000e+00
0.6             	-8.27192815e-04	(8.27192815e-02 0.00000000e+00 0.00000000e+00)	1.52300000e+00
0.65            	-8.91218689e-04	(8.91218689e-02 0.00000000e+00 0.00000000e+00)	1.52300000e+00
0.7             	-9.54645715e-04	(9.54645715e-02 0.00000000e+00 0.00000000e+00)	1.52300000e+00
0.75            	-1.01749719e-03	(1.01749719e-01 0.00000000e+00 0.00000000e+00)	1.52300000e+00
0.8             	-1.07979379e-03	(1.07979379e-01 0.00000000e+00 0.00000000e+00)	1.52300000e+00
0.85            	-1.14155743e-03	(1.14155743e-01 0.00000000e+00 0.00000000e+00)	1.52300000e+00
0.9             	-1.20282045e-03	(1.20282045e-01 0.00000000e+00 0.00000000e+00)	1.52300000e+00
0.95            	-1.26356248e-03	(1.26356248e-01 0.00000000e+00 0.00000000e+00)	1.52300000e+00
1               	-1.32383250e-03	(1.32383250e-01 0.00000000e+00 0.00000000e+00)	1.52300000e+00
1.05            	-1.38361644e-03	(1.38361644e-01 0.00000000e+00 0.00000000e+00)	1.52300000e+00
1.1             	-1.44296906e-03	(1.44296906e-01 0.00000000e+00 0.00000000e+00)	1.52300000e+00
1.15            	-1.50185749e-03	(1.50185749e-01 0.00000000e+00 0.00000000e+00)	1.52300000e+00
1.2             	-1.56031556e-03	(1.56031556e-01 0.00000000e+00 0.00000000e+00)	1.52300000e+00
1.25            	-1.61837410e-03	(1.61837410e-01 0.00000000e+00 0.00000000e+00)	1.52300000e+00
1.3             	-1.67599848e-03	(1.67599848e-01 0.00000000e+00 0.00000000e+00)	1.52300000e+00
1.35            	-1.73322081e-03	(1.73322081e-01 0.00000000e+00 0.00000000e+00)	1.52300000e+00
1.4             	-1.79007140e-03	(1.79007140e-01 0.00000000e+00 0.00000000e+00)	1.52300000e+00
1.45            	-1.84651359e-03	(1.84651359e-01 0.00000000e+00 0.00000000e+00)	1.52300000e+00
1.5             	-1.90257986e-03	(1.90257986e-01 0.00000000e+00 0.00000000e+00)	1.52300000e+00
1.55            	-1.95829572e-03	(1.95829572e-01 0.00000000e+00 0.00000000e+00)	1.52300000e+00
1.6             	-2.01362501e-03	(2.01362501e-01 0.00000000e+00 0.00000000e+00)	1.52300000e+00
1.65            	-2.06859962e-03	(2.06859962e-01 0.00000000e+00 0.00000000e+00)	1.52300000e+00
1.7             	-2.12324182e-03	(2.12324182e-01 0.00000000e+00 0.00000000e+00)	1.52300000e+00
1.75            	-2.17751607e-03	(2.17751607e-01 0.00000000e+00 0.00000000e+00)	1.52300000e+00
1.8             	-2.23145424e-03	(2.23145424e-01 0.00000000e+00 0.00000000e+00)	1.52300000e+00
1.85            	-2.28507485e-03	(2.28507485e-01 0.00000000e+00 0.00000000e+00)	1.52300000e+00
1.9             	-2.33834372e-03	(2.33834372e-01 0.00000000e+00 0.00000000e+00)	1.52300000e+00
1.95            	-2.39129269e-03	(2.39129269e-01 0.00000000e+00 0.00000000e+00)	1.52300000e+00
2               	-2.44393668e-03	(2.44393668e-01 0.00000000e+00 0.00000000e+00)	1.52300000e+00
2.05            	-2.49624325e-03	(2.49624325e-01 0.00000000e+00 0.00000000e+00)	1.52300000e+00
2.1             	-2.54824425e-03	(2.54824425e-01 0.00000000e+00 0.00000000e+00)	1.52300000e+00
2.15            	-2.59994230e-03	(2.59994230e-01 0.00000000e+00 0.00000000e+00)	1.52300000e+00
2.2             	-2.65133243e-03	(2.65133243e-01 0.00000000e+00 0.00000000e+00)	1.52300000e+00
2.25            	-2.70242284e-03	(2.70242284e-01 0.00000000e+00 0.00000000e+00)	1.52300000e+00
2.3             	-2.75321711e-03	(2.75321711e-01 0.00000000e+00 0.00000000e+00)	1.52300000e+00
2.35            	-2.80371787e-03	(2.80371787e-01 0.00000000e+00 0.00000000e+00)	1.52300000e+00
2.4             	-2.85392855e-03	(2.85392855e-01 0.00000000e+00 0.00000000e+00)	1.52300000e+00
2.45            	-2.90385240e-03	(2.90385240e-01 0.00000000e+00 0.00000000e+00)	1.52300000e+00
2.5             	-2.95349252e-03	(2.95349252e-01 0.00000000e+00 0.00000000e+00)	1.52300000e+00
2.55            	-3.00285195e-03	(3.00285195e-01 0.00000000e+00 0.00000000e+00)	1.52300000e+00
2.6             	-3.05193361e-03	(3.05193361e-01 0.00000000e+00 0.00000000e+00)	1.52300000e+00
2.65            	-3.10074035e-03	(3.10074035e-01 0.00000000e+00 0.00000000e+00)	1.52300000e+00
2.7             	-3.14927491e-03	(3.14927491e-01 0.00000000e+00 0.00000000e+00)	1.52300000e+00
2.75            	-3.19753997e-03	(3.19753997e-01 0.00000000e+00 0.00000000e+00)	1.52300000e+00
2.8             	-3.24553811e-03	(3.24553811e-01 0.00000000e+00 0.00000000e+00)	1.52300000e+00
2.85            	-3.29327187e-03	(3.29327187e-01 0.00000000e+00 0.00000000e+00)	1.52300000e+00
2.9             	-3.34074370e-03	(3.34074370e-01 0.00000000e+00 0.00000000e+00)	1.52300000e+00
2.95            	-3.38795598e-03	(3.38795598e-01 0.00000000e+00 0.00000000e+00)	1.52300000e+00
3               	-3.43491105e-03	(3.43491105e-01 0.00000000e+00 0.00000000e+00)	1.52300000e+00
3.05            	-3.48161116e-03	(3.48161116e-01 0.00000000e+00 0.00000000e+00)	1.52300000e+00
3.1             	-3.52805854e-03	(3.52805854e-01 0.00000000e+00 0.00000000e+00)	1.52300000e+00
3.15            	-3.57425533e-03	(3.57425533e-01 0.00000000e+00 0.00000000e+00)	1.52300000e+00
3.2             	-3.62020365e-03	(3.62020365e-01 0.00000000e+00 0.00000000e+00)	1.52300000e+00
3.25            	-3.66590556e-03	(3.66590556e-01 0.00000000e+00 0.00000000e+00)	1.52300000e+00
3.3             	-3.71136305e-03	(3.71136305e-01 0.00000000e+00 0.00000000e+00)	1.52300000e+00
3.35            	-3.75657810e-03	(3.75657810e-01 0.00000000e+00 0.00000000e+00)	1.52300000e+00
3.4             	-3.80155263e-03	(3.80155263e-01 0.00000000e+00 0.00000000e+00)	1.52300000e+00
3.45            	-3.84628851e-03	(3.84628851e-01 0.00000000e+00 0.00000000e+00)	1.52300000e+00
3.5             	-3.89078761e-03	(3.89078761e-01 0.00000000e+00 0.00000000e+00)	1.52300000e+00
3.55            	-3.93505170e-03	(3.93505170e-01 0.00000000e+00 0.00000000e+00)	1.52300000e+00
3.6             	-3.97908257e-03	(3.97908257e-01 0.00000000e+00 0.00000000e+00)	1.52300000e+00
3.65            	-4.02288195e-03	(4.02288195e-01 0.00000000e+00 0.00000000e+00)	1.52300000e+00
3.7             	-4.06645154e-03	(4.06645154e-01 0.00000000e+00 0.00000000e+00)	1.52300000e+00
3.75            	-4.10979300e-03	(4.10979300e-01 0.00000000e+00 0.00000000e+00)	1.52300000e+00
3.8             	-4.15290798e-03	(4.15290798e-01 0.00000000e+00 0.00000000e+00)	1.52300000e+00
3.85            	-4.19579808e-03	(4.19579808e-01 0.00000000e+00 0.00000000e+00)	1.52300000e+00
3.9             	-4.23846488e-03	(4.23846488e-01 0.00000000e+00 0.00000000e+00)	1.52300000e+00
3.95            	-4.28090993e-03	(4.28090993e-01 0.00000000e+00 0.00000000e+00)	1.52300000e+00
4               	-4.32313476e-03	(4.32313476e-01 0.00000000e+00 0.00000000e+00)	1.52300000e+00
4.05            	-4.36514087e-03	(4.36514087e-01 0.00000000e+00 0.00000000e+00)	1.52300000e+00
4.1             	-4.40692974e-03	(4.40692974e-01 0.00000000e+00 0.00000000e+00)	1.52300000e+00
4.15            	-4.44850280e-03	(4.44850280e-01 0.00000000e+00 0.00000000e+00)	1.52300000e+00
4.2             	-4.48986151e-03	(4.48986151e-01 0.00000000e+00 0.00000000e+00)	1.52300000e+00
4.25            	-4.53100726e-03	(4.53100726e-01 0.00000000e+00 0.00000000e+00)	1.52300000e+00
4.3             	-4.57194146e-03	(4.57194146e-01 0.00000000e+00 0.00000000e+00)	1.52300000e+00
4.35            	-4.61266545e-03	(4.61266545e-01 0.00000000e+00 0.00000000e+00)	1.52300000e+00
4.4             	-4.65318058e-03	(4.65318058e-01 0.00000000e+00 0.00000000e+00)	1.52300000e+00
4.45            	-4.69348820e-03	(4.69348820e-01 0.00000000e+00 0.00000000e+00)	1.52300000e+00
4.5             	-4.73358960e-03	(4.73358960e-01 0.00000000e+00 0.00000000e+00)	1.52300000e+00
4.55            	-4.77348607e-03	(4.77348607e-01 0.00000000e+00 0.00000000e+00)	1.52300000e+00
4.6             	-4.81317890e-03	(4.81317890e-01 0.00000000e+00 0.00000000e+00)	1.52300000e+00
4.65            	-4.85266934e-03	(4.85266934e-01 0.00000000e+00 0.00000000e+00)	1.52300000e+00
4.7             	-4.89195862e-03	(4.89195862e-01 0.00000000e+00 0.00000000e+00)	1.52300000e+00
4.75            	-4.93104798e-03	(4.93104798e-01 0.00000000e+00 0.00000000e+00)	1.52300000e+00
4.8             	-4.96993864e-03	(4.96993864e-01 0.00000000e+00 0.00000000e+00)	1.52300000e+00
4.85            	-5.00863178e-03	(5.00863178e-01 0.00000000e+00 0.00000000e+00)	1.52300000e+00
4.9             	-5.04712858e-03	(5.04712858e-01 0.00000000e+00 0.00000000e+00)	1.52300000e+00
4.95            	-5.08543022e-03	(5.08543022e-01 0.00000000e+00 0.00000000e+00)	1.52300000e+00
5               	-5.12353786e-03	(5.12353786e-01 0.00000000e+00 0.00000000e+00)	1.52300000e+00
5.05            	-5.16145263e-03	(5.16145263e-01 0.00000000e+00 0.00000000e+00)	1.52300000e+00
5.1             	-5.19917566e-03	(5.19917566e-01 0.00000000e+00 0.00000000e+00)	1.52300000e+00
5.15            	-5.23670807e-03	(5.23670807e-01 0.00000000e+00 0.00000000e+00)	1.52300000e+00
5.2             	-5.27405097e-03	(5.27405097e-01 0.00000000e+00 0.00000000e+00)	1.52300000e+00
5.25            	-5.31120546e-03	(5.31120546e-01 0.00000000e+00 0.00000000e+00)	1.52300000e+00
5.3             	-5.34817261e-03	(5.34817261e-01 0.00000000e+00 0.00000000e+00)	1.52300000e+00
5.35            	-5.38495349e-03	(5.38495349e-01 0.00000000e+00 0.00000000e+00)	1.52300000e+00
5.4             	-5.42154917e-03	(5.42154917e-01 0.00000000e+00 0.00000000e+00)	1.52300000e+00
5.45            	-5.45796070e-03	(5.45796070e-01 0.00000000e+00 0.00000000e+00)	1.52300000e+00
5.5             	-5.49418912e-03	(5.49418912e-01 0.00000000e+00 0.00000000e+00)	1.52300000e+00
5.55            	-5.53023545e-03	(5.53023545e-01 0.00000000e+00 0.00000000e+00)	1.52300000e+00
5.6             	-5.56610073e-03	(5.56610073e-01 0.00000000e+00 0.00000000e+00)	1.52300000e+00
5.65            	-5.60178597e-03	(5.60178597e-01 0.00000000e+00 0.00000000e+00)	1.52300000e+00
5.7             	-5.63729215e-03	(5.63729215e-01 0.00000000e+00 0.00000000e+00)	1.52300000e+00
5.75            	-5.67262029e-03	(5.67262029e-01 0.00000000e+00 0.00000000e+00)	1.52300000e+00
5.8             	-5.70777135e-03	(5.70777135e-01 0.00000000e+00 0.00000000e+00)	1.52300000e+00
5.85            	-5.74274634e-03	(5.74274634e-01 0.00000000e+00 0.00000000e+00)	1.52300000e+00
5.9             	-5.77754620e-03	(5.77754620e-01 0.00000000e+00 0.00000000e+00)	1.52300000e+00
5.95            	-5.81217190e-03	(5.81217190e-01 0.00000000e+00 0.00000000e+00)	1.52300000e+00
6               	-5.84662440e-03	(5.84662440e-01 0.00000000e+00 0.00000000e+00)	1.52300000e+00
6.05            	-5.88090463e-03	(5.88090463e-01 0.00000000e+00 0.00000000e+00)	1.52300000e+00
6.1             	-5.91501354e-03	(5.91501354e-01 0.00000000e+00 0.00000000e+00)	1.52300000e+00
6.15            	-5.94895205e-03	(5.94895205e-01 0.00000000e+00 0.00000000e+00)	1.52300000e+00
6.2             	-5.98272108e-03	(5.98272108e-01 0.00000000e+00 0.00000000e+00)	1.52300000e+00
6.25            	-6.01632156e-03	(6.01632156e-01 0.00000000e+00 0.00000000e+00)	1.52300000e+00
6.3             	-6.04975440e-03	(6.04975440e-01 0.00000000e+00 0.00000000e+00)	1.52300000e+00
6.35            	-6.08302049e-03	(6.08302049e-01 0.00000000e+00 0.00000000e+00)	1.52300000e+00
6.4             	-6.11612072e-03	(6.11612072e-01 0.00000000e+00 0.00000000e+00)	1.52300000e+00
6.45            	-6.14905599e-03	(6.14905599e-01 0.00000000e+00 0.00000000e+00)	1.52300000e+00
6.5             	-6.18182717e-03	(6.18182717e-01 0.00000000e+00 0.00000000e+00)	1.52300000e+00
6.55            	-6.21443513e-03	(6.21443513e-01 0.00000000e+00 0.00000000e+00)	1.52300000e+00
6.6             	-6.24688075e-03	(6.24688075e-01 0.00000000e+00 0.00000000e+00)	1.52300000e+00
6.65            	-6.27916490e-03	(6.27916490e-01 0.00000000e+00 0.00000000e+00)	1.52300000e+00
6.7             	-6.31128843e-03	(6.31128843e-01 0.00000000e+00 0.00000000e+00)	1.52300000e+00
6.75            	-6.34325218e-03	(6.34325218e-01 0.00000000e+00 0.00000000e+00)	1.52300000e+00
6.8             	-6.37505701e-03	(6.37505701e-01 0.00000000e+00 0.00000000e+00)	1.52300000e+00
6.85            	-6.40670375e-03	(6.40670375e-01 0.00000000e+00 0.00000000e+00)	1.52300000e+00
6.9             	-6.43819324e-03	(6.43819324e-01 0.00000000e+00 0.00000000e+00)	1.52300000e+00
6.95            	-6.46952632e-03	(6.46952632e-01 0.00000000e+00 0.00000000e+00)	1.52300000e+00
7               	-6.50070378e-03	(6.50070378e-01 0.00000000e+00 0.00000000e+00)	1.52300000e+00
7.05            	-6.53172644e-03	(6.53172644e-01 0.00000000e+00 0.00000000e+00)	1.52300000e+00
7.1             	-6.56259513e-03	(6.56259513e-01 0.00000000e+00 0.00000000e+00)	1.52300000e+00
7.15            	-6.59331065e-03	(6.59331065e-01 0.00000000e+00 0.00000000e+00)	1.52300000e+00
7.2             	-6.62387381e-03	(6.62387381e-01 0.00000000e+00 0.00000000e+00)	1.52300000e+00
7.25            	-6.65428540e-03	(6.65428540e-01 0.00000000e+00 0.00000000e+00)	1.52300000e+00
7.3             	-6.68454620e-03	(6.68454620e-01 0.00000000e+00 0.00000000e+00)	1.52300000e+00
7.35            	-6.71465703e-03	(6.71465703e-01 0.00000000e+00 0.00000000e+00)	1.52300000e+00
7.4             	-6.74461864e-03	(6.74461864e-01 0.00000000e+00 0.00000000e+00)	1.52300000e+00
7.45            	-6.77443181e-03	(6.77443181e-01 0.00000000e+00 0.00000000e+00)	1.52300000e+00
7.5             	-6.80409732e-03	(6.80409732e-01 0.00000000e+00 0.00000000e+00)	1.52300000e+00
7.55            	-6.83361593e-03	(6.83361593e-01 0.00000000e+00 0.00000000e+00)	1.52300000e+00
7.6             	-6.86298840e-03	(6.86298840e-01 0.00000000e+00 0.00000000e+00)	1.52300000e+00
7.65            	-6.89221549e-03	(6.89221549e-01 0.00000000e+00 0.00000000e+00)	1.52300000e+00
7.7             	-6.92129796e-03	(6.92129796e-01 0.00000000e+00 0.00000000e+00)	1.52300000e+00
7.75            	-6.95023655e-03	(6.95023655e-01 0.00000000e+00 0.00000000e+00)	1.52300000e+00
7.8             	-6.97903201e-03	(6.97903201e-01 0.00000000e+00 0.00000000e+00)	1.52300000e+00
7.85            	-7.00768508e-03	(7.00768508e-01 0.00000000e+00 0.00000000e+00)	1.52300000e+00
7.9             	-7.03619649e-03	(7.03619649e-01 0.00000000e+00 0.00000000e+00)	1.52300000e+00
7.95            	-7.06456697e-03	(7.06456697e-01 0.00000000e+00 0.00000000e+00)	1.52300000e+00
8               	-7.09279725e-03	(7.09279725e-01 0.00000000e+00 0.00000000e+00)	1.52300000e+00
8.05            	-7.12088804e-03	(7.12088804e-01 0.00000000e+00 0.00000000e+00)	1.52300000e+00
8.1             	-7.14884008e-03	(7.14884008e-01 0.00000000e+00 0.00000000e+00)	1.52300000e+00
8.15            	-7.17665408e-03	(7.17665408e-01 0.00000000e+00 0.00000000e+00)	1.52300000e+00
8.2             	-7.20433078e-03	(7.20433078e-01 0.00000000e+00 0.00000000e+00)	1.52300000e+00
8.25            	-7.23187083e-03	(7.23187083e-01 0.00000000e+00 0.00000000e+00)	1.52300000e+00
8.3             	-7.25927493e-03	(7.25927493e-01 0.00000000e+00 0.00000000e+00)	1.52300000e+00
8.35            	-7.28654379e-03	(7.28654379e-01 0.00000000e+00 0.00000000e+00)	1.52300000e+00
8.4             	-7.31367813e-03	(7.31367813e-01 0.00000000e+00 0.00000000e+00)	1.52300000e+00
8.45            	-7.34067863e-03	(7.34067863e-01 0.00000000e+00 0.00000000e+00)	1.52300000e+00
8.5             	-7.36754597e-03	(7.36754597e-01 0.00000000e+00 0.00000000e+00)	1.52300000e+00
8.55            	-7.39428084e-03	(7.39428084e-01 0.00000000e+00 0.00000000e+00)	1.52300000e+00
8.6             	-7.42088391e-03	(7.42088391e-01 0.00000000e+00 0.00000000e+00)	1.52300000e+00
8.65            	-7.44735585e-03	(7.44735585e-01 0.00000000e+00 0.00000000e+00)	1.52300000e+00
8.7             	-7.47369735e-03	(7.47369735e-01 0.00000000e+00 0.00000000e+00)	1.52300000e+00
8.75            	-7.49990906e-03	(7.49990906e-01 0.00000000e+00 0.00000000e+00)	1.52300000e+00
8.8             	-7.52599164e-03	(7.52599164e-01 0.00000000e+00 0.00000000e+00)	1.52300000e+00
8.85            	-7.55194577e-03	(7.55194577e-01 0.00000000e+00 0.00000000e+00)	1.52300000e+00
8.9             	-7.57777209e-03	(7.57777209e-01 0.00000000e+00 0.00000000e+00)	1.52300000e+00
8.95            	-7.60347126e-03	(7.60347126e-01 0.00000000e+00 0.00000000e+00)	1.52300000e+00
9               	-7.62904393e-03	(7.62904393e-01 0.00000000e+00 0.00000000e+00)	1.52300000e+00
9.05            	-7.65449074e-03	(7.65449074e-01 0.00000000e+00 0.00000000e+00)	1.52300000e+00
9.1             	-7.67981233e-03	(7.67981233e-01 0.00000000e+00 0.00000000e+00)	1.52300000e+00
9.15            	-7.70500935e-03	(7.70500935e-01 0.00000000e+00 0.00000000e+00)	1.52300000e+00
9.2             	-7.73008243e-03	(7.73008243e-01 0.00000000e+00 0.00000000e+00)	1.52300000e+00
9.25            	-7.75503220e-03	(7.75503220e-01 0.00000000e+00 0.00000000e+00)	1.52300000e+00
9.3             	-7.77985929e-03	(7.77985929e-01 0.00000000e+00 0.00000000e+00)	1.52300000e+00
9.35            	-7.80456432e-03	(7.80456432e-01 0.00000000e+00 0.00000000e+00)	1.52300000e+00
9.4             	-7.82914793e-03	(7.82914793e-01 0.00000000e+00 0.00000000e+00)	1.52300000e+00
9.45            	-7.85361073e-03	(7.85361073e-01 0.00000000e+00 0.00000000e+00)	1.52300000e+00
9.5             	-7.87795332e-03	(7.87795332e-01 0.00000000e+00 0.00000000e+00)	1.52300000e+00
9.55            	-7.90217630e-03	(7.90217630e-01 0.00000000e+00 0.00000000e+00)	1.52300000e+00
9.6             	-7.92628029e-03	(7.92628029e-01 0.00000000e+00 0.00000000e+00)	1.52300000e+00
9.65            	-7.95026592e-03	(7.95026592e-01 0.00000000e+00 0.00000000e+00)	1.52300000e+00
9.7             	-7.97413378e-03	(7.97413378e-01 0.00000000e+00 0.00000000e+00)	1.52300000e+00
9.75            	-7.99788450e-03	(7.99788450e-01 0.00000000e+00 0.00000000e+00)	1.52300000e+00
9.8             	-8.02151866e-03	(8.02151866e-01 0.00000000e+00 0.00000000e+00)	1.52300000e+00
9.85            	-8.04503682e-03	(8.04503682e-01 0.00000000e+00 0.00000000e+00)	1.52300000e+00
9.9             	-8.06843956e-03	(8.06843956e-01 0.00000000e+00 0.00000000e+00)	1.52300000e+00
9.95            	-8.09172748e-03	(8.09172748e-01 0.00000000e+00 0.00000000e+00)	1.52300000e+00
10              	-8.11490119e-03	(8.11490119e-01 0.00000000e+00 0.00000000e+00)	1.52300000e+00
10.05           	-8.13796126e-03	(8.13796126e-01 0.00000000e+00 0.00000000e+00)	1.52300000e+00
10.1            	-8.16090827e-03	(8.16090827e-01 0.00000000e+00 0.00000000e+00)	1.52300000e+00
10.15           	-8.18374279e-03	(8.18374279e-01 0.00000000e+00 0.00000000e+00)	1.52300000e+00
10.2            	-8.20646538e-03	(8.20646538e-01 0.00000000e+00 0.00000000e+00)	1.52300000e+00
10.25           	-8.22907661e-03	(8.22907661e-01 0.00000000e+00 0.00000000e+00)	1.52300000e+00
10.3            	-8.25157705e-03	(8.25157705e-01 0.00000000e+00 0.00000000e+00)	1.52300000e+00
10.35           	-8.27396727e-03	(8.27396727e-01 0.00000000e+00 0.00000000e+00)	1.52300000e+00
10.4            	-8.29624781e-03	(8.29624781e-01 0.00000000e+00 0.00000000e+00)	1.52300000e+00
10.45           	-8.31841925e-03	(8.31841925e-01 0.00000000e+00 0.00000000e+00)	1.52300000e+00
10.5            	-8.34048212e-03	(8.34048212e-01 0.00000000e+00 0.00000000e+00)	1.52300000e+00
10.55           	-8.36243699e-03	(8.36243699e-01 0.00000000e+00 0.00000000e+00)	1.52300000e+00
10.6            	-8.38428440e-03	(8.38428440e-01 0.00000000e+00 0.00000000e+00)	1.52300000e+00
10.65           	-8.40602488e-03	(8.40602488e-01 0.00000000e+00 0.00000000e+00)	1.52300000e+00
10.7            	-8.42765900e-03	(8.42765900e-01 0.00000000e+00 0.00000000e+00)	1.52300000e+00
10.75           	-8.44918727e-03	(8.44918727e-01 0.00000000e+00 0.00000000e+00)	1.52300000e+00
10.8            	-8.47061025e-03	(8.47061025e-01 0.00000000e+00 0.00000000e+00)	1.52300000e+00
10.85           	-8.49192846e-03	(8.49192846e-01 0.00000000e+00 0.00000000e+00)	1.52300000e+00
10.9            	-8.51314244e-03	(8.51314244e-01 0.00000000e+00 0.00000000e+00)	1.52300000e+00
10.95           	-8.53425270e-03	(8.53425270e-01 0.00000000e+00 0.00000000e+00)	1.52300000e+00
11              	-8.55525978e-03	(8.55525978e-01 0.00000000e+00 0.00000000e+00)	1.52300000e+00
11.05           	-8.57616416e-03	(8.57616416e-01 0.00000000e+00 0.00000000e+00)	1.52300000e+00
11.1            	-8.59696638e-03	(8.59696638e-01 0.00000000e+00 0.00000000e+00)	1.52300000e+00
11.15           	-8.61766701e-03	(8.61766701e-01 0.00000000e+00 0.00000000e+00)	1.52300000e+00
11.2            	-8.63826658e-03	(8.63826658e-01 0.00000000e+00 0.00000000e+00)	1.52300000e+00
11.25           	-8.65876559e-03	(8.65876559e-01 0.00000000e+00 0.00000000e+00)	1.52300000e+00
11.3            	-8.67916453e-03	(8.67916453e-01 0.00000000e+00 0.00000000e+00)	1.52300000e+00
11.35           	-8.69946380e-03	(8.69946380e-01 0.00000000e+00 0.00000000e+00)	1.52300000e+00
11.4            	-8.71966394e-03	(8.71966394e-01 0.00000000e+00 0.00000000e+00)	1.52300000e+00
11.45           	-8.73976550e-03	(8.73976550e-01 0.00000000e+00 0.00000000e+00)	1.52300000e+00
11.5            	-8.75976901e-03	(8.75976901e-01 0.00000000e+00 0.00000000e+00)	1.52300000e+00
11.55           	-8.77967495e-03	(8.77967495e-01 0.00000000e+00 0.00000000e+00)	1.52300000e+00
11.6            	-8.79948380e-03	(8.79948380e-01 0.00000000e+00 0.00000000e+00)	1.52300000e+00
11.65           	-8.81919603e-03	(8.81919603e-01 0.00000000e+00 0.00000000e+00)	1.52300000e+00
11.7            	-8.83881214e-03	(8.83881214e-01 0.00000000e+00 0.00000000e+00)	1.52300000e+00
11.75           	-8.85833262e-03	(8.85833262e-01 0.00000000e+00 0.00000000e+00)	1.52300000e+00
11.8            	-8.87775795e-03	(8.87775795e-01 0.00000000e+00 0.00000000e+00)	1.52300000e+00
11.85           	-8.89708862e-03	(8.89708862e-01 0.00000000e+00 0.00000000e+00)	1.52300000e+00
11.9            	-8.91632509e-03	(8.91632509e-01 0.00000000e+00 0.00000000e+00)	1.52300000e+00
11.95           	-8.93546785e-03	(8.93546785e-01 0.00000000e+00 0.00000000e+00)	1.52300000e+00
12              	-8.95451736e-03	(8.95451736e-01 0.00000000e+00 0.00000000e+00)	1.52300000e+00
12.05           	-8.97347410e-03	(8.97347410e-01 0.00000000e+00 0.00000000e+00)	1.52300000e+00
12.1            	-8.99233853e-03	(8.99233853e-01 0.00000000e+00 0.00000000e+00)	1.52300000e+00
12.15           	-9.01111112e-03	(9.01111112e-01 0.00000000e+00 0.00000000e+00)	1.52300000e+00
12.2            	-9.02979234e-03	(9.02979234e-01 0.00000000e+00 0.00000000e+00)	1.52300000e+00
12.25           	-9.04838264e-03	(9.04838264e-01 0.00000000e+00 0.00000000e+00)	1.52300000e+00
12.3            	-9.06688247e-03	(9.06688247e-01 0.00000000e+00 0.00000000e+00)	1.52300000e+00
12.35           	-9.08529231e-03	(9.08529231e-01 0.00000000e+00 0.00000000e+00)	1.52300000e+00
12.4            	-9.10361260e-03	(9.10361260e-01 0.00000000e+00 0.00000000e+00)	1.52300000e+00
12.45           	-9.12184378e-03	(9.12184378e-01 0.00000000e+00 0.00000000e+00)	1.52300000e+00
12.5            	-9.13998632e-03	(9.13998632e-01 0.00000000e+00 0.00000000e+00)	1.52300000e+00
12.55           	-9.15804065e-03	(9.15804065e-01 0.00000000e+00 0.00000000e+00)	1.52300000e+00
12.6            	-9.17600722e-03	(9.17600722e-01 0.00000000e+00 0.00000000e+00)	1.52300000e+00
12.65           	-9.19388647e-03	(9.19388647e-01 0.00000000e+00 0.00000000e+00)	1.52300000e+00
12.7            	-9.21167884e-03	(9.21167884e-01 0.00000000e+00 0.00000000e+00)	1.52300000e+00
12.75           	-9.22938477e-03	(9.22938477e-01 0.00000000e+00 0.00000000e+00)	1.52300000e+00
12.8            	-9.24700469e-03	(9.24700469e-01 0.00000000e+00 0.00000000e+00)	1.52300000e+00
12.85           	-9.26453903e-03	(9.26453903e-01 0.00000000e+00 0.00000000e+00)	1.52300000e+00
12.9            	-9.28198823e-03	(9.28198823e-01 0.00000000e+00 0.00000000e+00)	1.52300000e+00
12.95           	-9.29935271e-03	(9.29935271e-01 0.00000000e+00 0.00000000e+00)	1.52300000e+00
13              	-9.31663290e-03	(9.31663290e-01 0.00000000e+00 0.00000000e+00)	1.52300000e+00
13.05           	-9.33382922e-03	(9.33382922e-01 0.00000000e+00 0.00000000e+00)	1.52300000e+00
13.1            	-9.35094209e-03	(9.35094209e-01 0.00000000e+00 0.00000000e+00)	1.52300000e+00
13.15           	-9.36797194e-03	(9.36797194e-01 0.00000000e+00 0.00000000e+00)	1.52300000e+00
13.2            	-9.38491917e-03	(9.38491917e-01 0.00000000e+00 0.00000000e+00)	1.52300000e+00
13.25           	-9.40178421e-03	(9.40178421e-01 0.00000000e+00 0.00000000e+00)	1.52300000e+00
13.3            	-9.41856747e-03	(9.41856747e-01 0.00000000e+00 0.00000000e+00)	1.52300000e+00
13.35           	-9.43526935e-03	(9.43526935e-01 0.00000000e+00 0.00000000e+00)	1.52300000e+00
13.4            	-9.45189026e-03	(9.45189026e-01 0.00000000e+00 0.00000000e+00)	1.52300000e+00
13.45           	-9.46843062e-03	(9.46843062e-01 0.00000000e+00 0.00000000e+00)	1.52300000e+00
13.5            	-9.48489082e-03	(9.48489082e-01 0.00000000e+00 0.00000000e+00)	1.52300000e+00
13.55           	-9.50127127e-03	(9.50127127e-01 0.00000000e+00 0.00000000e+00)	1.52300000e+00
13.6            	-9.51757236e-03	(9.51757236e-01 0.00000000e+00 0.00000000e+00)	1.52300000e+00
13.65           	-9.53379450e-03	(9.53379450e-01 0.00000000e+00 0.00000000e+00)	1.52300000e+00
13.7            	-9.54993808e-03	(9.54993808e-01 0.00000000e+00 0.00000000e+00)	1.52300000e+00
13.75           	-9.56600350e-03	(9.56600350e-01 0.00000000e+00 0.00000000e+00)	1.52300000e+00
13.8            	-9.58199114e-03	(9.58199114e-01 0.00000000e+00 0.00000000e+00)	1.52300000e+00
13.85           	-9.59790139e-03	(9.59790139e-01 0.00000000e+00 0.00000000e+00)	1.52300000e+00
13.9            	-9.61373465e-03	(9.61373465e-01 0.00000000e+00 0.00000000e+00)	1.52300000e+00
13.95           	-9.62949129e-03	(9.62949129e-01 0.00000000e+00 0.00000000e+00)	1.52300000e+00
14              	-9.64517171e-03	(9.64517171e-01 0.00000000e+00 0.00000000e+00)	1.52300000e+00
14.05           	-9.66077628e-03	(9.66077628e-01 0.00000000e+00 0.00000000e+00)	1.52300000e+00
14.1            	-9.67630538e-03	(9.67630538e-01 0.00000000e+00 0.00000000e+00)	1.52300000e+00
14.15           	-9.69175940e-03	(9.69175940e-01 0.00000000e+00 0.00000000e+00)	1.52300000e+00
14.2            	-9.70713869e-03	(9.70713869e-01 0.00000000e+00 0.00000000e+00)	1.52300000e+00
14.25           	-9.72244365e-03	(9.72244365e-01 0.00000000e+00 0.00000000e+00)	1.52300000e+00
14.3            	-9.73767464e-03	(9.73767464e-01 0.00000000e+00 0.00000000e+00)	1.52300000e+00
14.35           	-9.75283203e-03	(9.75283203e-01 0.00000000e+00 0.00000000e+00)	1.52300000e+00
14.4            	-9.76791619e-03	(9.76791619e-01 0.00000000e+00 0.00000000e+00)	1.52300000e+00
14.45           	-9.78292749e-03	(9.78292749e-01 0.00000000e+00 0.00000000e+00)	1.52300000e+00
14.5            	-9.79786628e-03	(9.79786628e-01 0.00000000e+00 0.00000000e+00)	1.52300000e+00
14.55           	-9.81273293e-03	(9.81273293e-01 0.00000000e+00 0.00000000e+00)	1.52300000e+00
14.6            	-9.82752781e-03	(9.82752781e-01 0.00000000e+00 0.00000000e+00)	1.52300000e+00
14.65           	-9.84225127e-03	(9.84225127e-01 0.00000000e+00 0.00000000e+00)	1.52300000e+00
14.7            	-9.85690366e-03	(9.85690366e-01 0.00000000e+00 0.00000000e+00)	1.52300000e+00
14.75           	-9.87148534e-03	(9.87148534e-01 0.00000000e+00 0.00000000e+00)	1.52300000e+00
14.8            	-9.88599667e-03	(9.88599667e-01 0.00000000e+00 0.00000000e+00)	1.52300000e+00
14.85           	-9.90043799e-03	(9.90043799e-01 0.00000000e+00 0.00000000e+00)	1.52300000e+00
14.9            	-9.91480965e-03	(9.91480965e-01 0.00000000e+00 0.00000000e+00)	1.52300000e+00
14.95           	-9.92911201e-03	(9.92911201e-01 0.00000000e+00 0.00000000e+00)	1.52300000e+00
15              	-9.94334540e-03	(9.94334540e-01 0.00000000e+00 0.00000000e+00)	1.52300000e+00
15.05           	-9.95751018e-03	(9.95751018e-01 0.00000000e+00 0.00000000e+00)	1.52300000e+00
15.1            	-9.97160667e-03	(9.97160667e-01 0.00000000e+00 0.00000000e+00)	1.52300000e+00
15.15           	-9.98563523e-03	(9.98563523e-01 0.00000000e+00 0.00000000e+00)	1.52300000e+00
15.2            	-9.99959620e-03	(9.99959620e-01 0.00000000e+00 0.00000000e+00)	1.52300000e+00
15.25           	-1.00134899e-02	(1.00134899e+00 0.00000000e+00 0.00000000e+00)	1.52300000e+00
15.3            	-1.00273167e-02	(1.00273167e+00 0.00000000e+00 0.00000000e+00)	1.52300000e+00
15.35           	-1.00410769e-02	(1.00410769e+00 0.00000000e+00 0.00000000e+00)	1.52300000e+00
15.4            	-1.00547708e-02	(1.00547708e+00 0.00000000e+00 0.00000000e+00)	1.52300000e+00
15.45           	-1.00683988e-02	(1.00683988e+00 0.00000000e+00 0.00000000e+00)	1.52300000e+00
15.5            	-1.00819611e-02	(1.00819611e+00 0.00000000e+00 0.00000000e+00)	1.52300000e+00
15.55           	-1.00954582e-02	(1.00954582e+00 0.00000000e+00 0.00000000e+00)	1.52300000e+00
15.6            	-1.01088904e-02	(1.01088904e+00 0.00000000e+00 0.00000000e+00)	1.52300000e+00
15.65           	-1.01222579e-02	(1.01222579e+00 0.00000000e+00 0.00000000e+00)	1.52300000e+00