/*--------------------------------*- C++ -*----------------------------------*\
| =========                 |                                                 |
| \\      /  F ield         | OpenFOAM: The Open Source CFD Toolbox           |
|  \\    /   O peration     | Version:  v1812                                 |
|   \\  /    A nd           | Web:      www.OpenFOAM.com                      |
|    \\/     M anipulation  |                                                 |
\*---------------------------------------------------------------------------*/
FoamFile
{
    version     2.0;
    format      ascii;
    class       surfaceScalarField;
    location    "13.8";
    object      phi;
}
// * * * * * * * * * * * * * * * * * * * * * * * * * * * * * * * * * * * * * //

dimensions      [0 3 -1 0 0 0 0];
oriented        oriented;


internalField   nonuniform List<scalar> 
1890
(
0.0093061958
0.00069380425
0.0082843931
0.0010218027
0.0073298986
0.00095449448
0.0064869552
0.00084294333
0.0057695844
0.0007173708
0.00518986
0.00057972444
0.004738168
0.00045169205
0.00439519
0.00034297801
0.0041390268
0.00025616318
0.003949107
0.00018991983
0.003807888
0.00014121897
0.0037013782
0.0001065098
0.003619058
8.2320219e-05
0.0035534117
6.5646243e-05
0.0034992845
5.4127251e-05
0.0034532444
4.6040046e-05
0.0034130501
4.0194293e-05
0.0033772574
3.5792758e-05
0.0033449386
3.2318762e-05
0.0033154893
2.9449282e-05
0.0032885008
2.6988576e-05
0.0032636805
2.4820298e-05
0.003240805
2.2875477e-05
0.0032196926
2.1112415e-05
0.0032001879
1.9504656e-05
0.0031821539
1.803402e-05
0.0031654671
1.6686734e-05
0.0031500158
1.5451371e-05
0.0031356979
1.4317869e-05
0.0031224208
1.3277073e-05
0.0031101003
1.2320589e-05
0.0030986596
1.1440714e-05
0.0030880291
1.0630426e-05
0.0030781458
9.8833587e-06
0.003068952
9.1937687e-06
0.0030603955
8.5564991e-06
0.0030524285
7.9669267e-06
0.0030450076
7.4209151e-06
0.0030380929
6.914758e-06
0.0030316478
6.4451303e-06
0.0030256387
6.0090531e-06
0.0030200349
5.603835e-06
0.0030148078
5.2270564e-06
0.0030099313
4.8765207e-06
0.0030053811
4.5502378e-06
0.0030011347
4.2464e-06
0.0029971713
3.9633497e-06
0.0029934717
3.6995815e-06
0.002990018
3.4537051e-06
0.0029867936
3.2244428e-06
0.002983783
3.0106273e-06
0.0029809718
2.8111678e-06
0.0029783467
2.6250703e-06
0.0029758953
2.4514098e-06
0.002973606
2.2893295e-06
0.0029714679
2.138047e-06
0.0029694711
1.996822e-06
0.0029676061
1.8649871e-06
0.0029658642
1.7419027e-06
0.0029642372
1.6269795e-06
0.0029627176
1.5196713e-06
0.0029612981
1.4194591e-06
0.0029599723
1.325871e-06
0.0029587338
1.2384595e-06
0.002957577
1.1568138e-06
0.0029564964
1.0805581e-06
0.002955487
1.0093345e-06
0.0029545442
9.4281587e-07
0.0029536635
8.8070063e-07
0.0029528408
8.2268275e-07
0.0029520724
7.6849992e-07
0.0029513545
7.1788298e-07
0.002950684
6.7059237e-07
0.0029500576
6.2640577e-07
0.0029494724
5.8512324e-07
0.0029489258
5.4655207e-07
0.0029484152
5.1053691e-07
0.0029479383
4.7688985e-07
0.0029474928
4.4549498e-07
0.0029470767
4.1615717e-07
0.0029466879
3.8878118e-07
0.0029463248
3.6316968e-07
0.0029459856
3.3926868e-07
0.0029456687
3.168739e-07
0.0029453727
2.9600315e-07
0.0029450962
2.7641587e-07
0.0029448379
2.5828391e-07
0.0029445966
2.411699e-07
0.0029443712
2.2541879e-07
0.0029441609
2.1046718e-07
0.0029439641
1.9686942e-07
0.0029437804
1.8367793e-07
0.0029436085
1.7190335e-07
0.0029434482
1.6027364e-07
0.0029432978
1.5028332e-07
0.0029431574
1.40412e-07
0.0029430254
1.321185e-07
0.0029429003
1.2509212e-07
0.0029427808
1.1944153e-07
1.2579607e-07
0.010339525
0.00035427931
0.010570754
0.00079057334
0.0106063
0.0009189482
0.010547572
0.00090167136
0.010422317
0.00084262623
0.010244356
0.0007576856
0.010039421
0.00065662745
0.0098287427
0.00055365587
0.009625135
0.00045977083
0.0094353013
0.00037975354
0.0092624277
0.00031409258
0.0091075332
0.00026140425
0.008970154
0.00021969948
0.0088489023
0.00018689786
0.0087419716
0.00016105802
0.0086474927
0.00014051895
0.008563694
0.00012399297
0.0084890108
0.000110476
0.0084221096
9.9219873e-05
0.0083618775
8.9681403e-05
0.0083073954
8.1470663e-05
0.0082579079
7.430784e-05
0.0082127929
6.799049e-05
0.0081715353
6.2369986e-05
0.0081337049
5.7335016e-05
0.0080989388
5.2800191e-05
0.0080669272
4.8698277e-05
0.0080374036
4.4974967e-05
0.0080101361
4.1585399e-05
0.0079849213
3.8491849e-05
0.0079615798
3.566215e-05
0.0079399519
3.3068601e-05
0.0079198952
3.0687159e-05
0.0079012817
2.8496839e-05
0.0078839962
2.6479238e-05
0.0078679345
2.461815e-05
0.0078530022
2.2899258e-05
0.0078391133
2.1309865e-05
0.0078261893
1.9838679e-05
0.0078141589
1.8475621e-05
0.0078029563
1.7211665e-05
0.0077925214
1.6038712e-05
0.007782799
1.4949459e-05
0.0077737382
1.3937316e-05
0.0077652921
1.2996305e-05
0.0077574175
1.2121002e-05
0.0077500744
1.1306464e-05
0.0077432258
1.0548173e-05
0.0077368375
9.8420006e-06
0.0077308778
9.1841559e-06
0.0077253173
8.5711555e-06
0.0077201286
7.9998011e-06
0.0077152866
7.4671371e-06
0.0077107675
6.9704457e-06
0.0077065496
6.5072149e-06
0.0077026125
6.0751232e-06
0.0076989373
5.6720291e-06
0.0076955064
5.2959385e-06
0.0076923033
4.9450059e-06
0.0076893128
4.6175098e-06
0.0076865206
4.3118522e-06
0.0076839135
4.0265503e-06
0.0076814792
3.7602187e-06
0.0076792061
3.5115814e-06
0.0076770834
3.2794498e-06
0.0076751012
3.0627207e-06
0.0076732501
2.8603733e-06
0.0076715215
2.6714501e-06
0.0076699071
2.4950565e-06
0.0076683995
2.3303538e-06
0.0076669915
2.1765534e-06
0.0076656765
2.0329138e-06
0.0076644483
1.8987629e-06
0.0076633013
1.7734526e-06
0.0076622299
1.6564246e-06
0.0076612293
1.5471141e-06
0.0076602948
1.4450547e-06
0.0076594219
1.3497323e-06
0.0076586067
1.2607611e-06
0.0076578453
1.1776284e-06
0.007657134
1.1000467e-06
0.0076564698
1.0274732e-06
0.0076558493
9.5978695e-07
0.0076552697
8.9637728e-07
0.0076547283
8.3735173e-07
0.0076542228
7.819314e-07
0.0076537504
7.3060256e-07
0.0076533093
6.8221931e-07
0.0076528971
6.3766397e-07
0.0076525126
5.9511812e-07
0.0076521528
5.5671818e-07
0.0076518173
5.1923277e-07
0.0076515029
4.861501e-07
0.0076512105
4.5254772e-07
0.0076509355
4.2530205e-07
0.0076506808
3.9525762e-07
0.0076504387
3.7428245e-07
0.0076502165
3.4714354e-07
0.0076499998
3.3610471e-07
3.1079748e-07
0.010188704
0.00016557515
0.010530487
0.00044879098
0.010851453
0.00059798176
0.011124174
0.00062895024
0.011350581
0.00061621887
0.011524486
0.00058378056
0.01164633
0.00053478422
0.011724155
0.0004758305
0.011767999
0.00041592666
0.011786639
0.000361114
0.011787114
0.00031361711
0.011775058
0.00027346026
0.011754861
0.00023989718
0.011729768
0.00021199031
0.011702054
0.00018877261
0.011673239
0.00016933388
0.011644339
0.00015289296
0.011616003
0.00013881183
0.011588629
0.00012659379
0.011562446
0.00011586445
0.011537572
0.00010634494
0.011514052
9.7826997e-05
0.011491889
9.0153359e-05
0.011471056
8.3203364e-05
0.011451509
7.6882614e-05
0.011433193
7.1115565e-05
0.011416051
6.58403e-05
0.011400021
6.1004916e-05
0.011385042
5.6565076e-05
0.011371051
5.2482341e-05
0.01135799
4.8723027e-05
0.011345801
4.5257384e-05
0.01133443
4.2058989e-05
0.011323822
3.9104266e-05
0.011313929
3.6372117e-05
0.011304704
3.3843607e-05
0.011296101
3.1501697e-05
0.01128808
2.9331024e-05
0.011280601
2.7317709e-05
0.011273628
2.5449184e-05
0.011267125
2.3714053e-05
0.011261062
2.2101952e-05
0.011255408
2.0603451e-05
0.011250135
1.9209942e-05
0.011245218
1.7913562e-05
0.011240632
1.6707112e-05
0.011236354
1.5583987e-05
0.011232364
1.4538125e-05
0.011228643
1.3563945e-05
0.01122517
1.2656312e-05
0.011221931
1.1810491e-05
0.011218909
1.1022105e-05
0.011216089
1.0287122e-05
0.011213457
9.6018051e-06
0.011211002
8.9627046e-06
0.01120871
8.3666274e-06
0.011206572
7.8106095e-06
0.011204576
7.2919018e-06
0.011202713
6.8079444e-06
0.011200974
6.3563659e-06
0.011199351
5.9349592e-06
0.011197836
5.5416665e-06
0.011196421
5.1745911e-06
0.011195101
4.8319567e-06
0.011193868
4.512125e-06
0.011192717
4.2135631e-06
0.011191643
3.9348518e-06
0.01119064
3.6746602e-06
0.011189703
3.4317509e-06
0.011188829
3.2049531e-06
0.011188012
2.9931954e-06
0.01118725
2.7954467e-06
0.011186537
2.6107927e-06
0.011185872
2.4383415e-06
0.011185251
2.2773198e-06
0.011184672
2.1269357e-06
0.01118413
1.986547e-06
0.011183625
1.8554174e-06
0.011183152
1.73303e-06
0.011182711
1.618651e-06
0.0111823
1.5119211e-06
0.011181915
1.412083e-06
0.011181556
1.3190182e-06
0.01118122
1.2318075e-06
0.011180907
1.1507255e-06
0.011180614
1.0745584e-06
0.011180341
1.0040916e-06
0.011180086
9.3732652e-07
0.011179847
8.7631363e-07
0.011179625
8.1767053e-07
0.011179416
7.6508335e-07
0.011179223
7.1272921e-07
0.01117904
6.6830213e-07
0.011178871
6.2108035e-07
0.011178712
5.8519835e-07
0.011178566
5.4113152e-07
0.011178425
5.1522054e-07
0.0111783
4.7220678e-07
0.011178177
4.5901875e-07
4.1611056e-07
0.010097182
6.8393548e-05
0.010346961
0.00019901111
0.010662469
0.00028247386
0.010982753
0.00030866649
0.011290229
0.00030874342
0.011575251
0.00029875789
0.011829022
0.00028101346
0.012047865
0.00025698756
0.012233272
0.00023051982
0.01238924
0.0002051459
0.012520295
0.00018256236
0.012630755
0.00016299957
0.012724428
0.00014622491
0.012804515
0.00013190312
0.012873613
0.00011967426
0.012933772
0.00010917461
0.012986596
0.00010006907
0.013033332
9.2076367e-05
0.01307495
8.4975254e-05
0.013112216
7.8598615e-05
0.013145739
7.2822305e-05
0.013176012
6.7553939e-05
0.013203441
6.2723923e-05
0.013228366
5.8278894e-05
0.013251071
5.4176987e-05
0.013271802
5.0384433e-05
0.01329077
4.6873166e-05
0.013308155
4.3619183e-05
0.013324119
4.0601465e-05
0.0133388
3.7801286e-05
0.013352321
3.5201758e-05
0.013364791
3.2787534e-05
0.013376306
3.0544593e-05
0.01338695
2.8460087e-05
0.0133968
2.6522218e-05
0.013405923
2.4720134e-05
0.013414381
2.3043842e-05
0.013422228
2.1484145e-05
0.013429513
2.0032562e-05
0.013436281
1.8681274e-05
0.013442572
1.7423066e-05
0.013448423
1.625128e-05
0.013453866
1.5159762e-05
0.013458933
1.4142829e-05
0.013463652
1.3195222e-05
0.013468047
1.2312073e-05
0.013472142
1.1488872e-05
0.013475959
1.0721443e-05
0.013479517
1.0005915e-05
0.013482834
9.3386923e-06
0.013485928
8.7164413e-06
0.013488814
8.1360699e-06
0.013491507
7.5947002e-06
0.013494019
7.0896684e-06
0.013496363
6.6184997e-06
0.013498551
6.1788924e-06
0.013500593
5.7687002e-06
0.013502499
5.3859258e-06
0.013504278
5.0287131e-06
0.013505939
4.6953306e-06
0.01350749
4.3841663e-06
0.013508938
4.0937263e-06
0.01351029
3.8226138e-06
0.013511552
3.5695353e-06
0.013512731
3.3332843e-06
0.013513832
3.1127362e-06
0.01351486
2.906842e-06
0.01351582
2.7146176e-06
0.013516716
2.5351527e-06
0.013517554
2.3675846e-06
0.013518336
2.2111156e-06
0.013519066
2.0650027e-06
0.013519748
1.928568e-06
0.013520386
1.8011541e-06
0.013520981
1.6821985e-06
0.013521536
1.5711036e-06
0.013522056
1.4673974e-06
0.013522541
1.3705221e-06
0.013522994
1.2801006e-06
0.013523417
1.1955747e-06
0.013523812
1.1167158e-06
0.013524181
1.0429356e-06
0.013524526
9.7419153e-07
0.013524848
9.0974887e-07
0.013525148
8.499559e-07
0.01352543
7.9365709e-07
0.013525692
7.4158951e-07
0.013525937
6.9220166e-07
0.013526166
6.4740392e-07
0.01352638
6.0379672e-07
0.01352658
5.6496697e-07
0.013526766
5.2599086e-07
0.013526941
4.939324e-07
0.013527104
4.5838459e-07
0.013527257
4.3251964e-07
0.013527399
3.9888333e-07
0.013527533
3.8079341e-07
0.013527658
3.4704483e-07
0.013527779
3.3798887e-07
3.0566049e-07
0.010068394
-5.4949333e-12
0.010267405
-7.698874e-12
0.010549879
-3.4234395e-12
0.010858545
8.1509285e-13
0.011167288
2.8446805e-12
0.011466046
2.148281e-12
0.01174706
1.4230275e-12
0.012004047
6.534346e-13
0.012234567
-2.6366147e-13
0.012439713
-1.1537999e-12
0.012622275
-1.6321122e-12
0.012785275
-1.2165661e-12
0.0129315
-1.0147718e-13
0.013063403
2.4861397e-12
0.013183077
3.0635027e-12
0.013292252
1.9943782e-12
0.013392321
1.2656113e-12
0.013484397
7.926543e-13
0.013569373
-2.1676885e-13
0.013647971
-8.3519729e-13
0.013720794
-1.026811e-12
0.013788347
-1.0998681e-12
0.013851071
-1.0438611e-12
0.01390935
-1.6067986e-13
0.013963527
1.4045711e-12
0.014013912
2.1394606e-12
0.014060785
2.1518922e-12
0.014104404
2.5159743e-12
0.014145005
3.0031641e-12
0.014182807
1.554228e-12
0.014218009
-2.3040731e-13
0.014250796
-1.9165689e-12
0.014281341
-4.2998421e-12
0.014309801
-5.9484072e-12
0.014336323
-5.0095475e-12
0.014361043
-1.9181331e-12
0.014384087
1.4616099e-12
0.014405571
4.7221387e-12
0.014425604
6.9445971e-12
0.014444285
6.4109314e-12
0.014461708
3.8439586e-12
0.014477959
3.7650045e-13
0.014493119
-2.7309309e-12
0.014507262
-5.5825254e-12
0.014520457
-5.8451001e-12
0.014532769
-3.4086622e-12
0.014544258
-4.4107901e-13
0.014554979
3.954706e-12
0.014564985
8.6883056e-12
0.014574324
1.1156615e-11
0.014583041
9.5475934e-12
0.014591177
4.0893154e-12
0.014598771
-2.9301082e-12
0.014605861
-9.5025137e-12
0.014612479
-1.0624503e-11
0.014618658
-5.4465102e-12
0.014624427
2.5654395e-12
0.014629813
1.0256815e-11
0.014634842
1.7698123e-11
0.014639537
1.7107873e-11
0.014643921
1.0216333e-11
0.014648015
1.0501261e-12
0.014651837
-5.2072766e-12
0.014655407
-1.1039453e-11
0.01465874
-1.1869525e-11
0.014661853
-4.6665234e-12
0.01466476
7.7690661e-12
0.014667475
1.8953409e-11
0.01467001
2.7235098e-11
0.014672377
2.4843909e-11
0.014674588
1.4427569e-11
0.014676653
-1.1841246e-12
0.014678582
-1.5357496e-11
0.014680383
-2.1055099e-11
0.014682065
-1.7587567e-11
0.014683636
-4.223692e-13
0.014685104
2.1413432e-11
0.014686474
3.6337659e-11
0.014687754
3.9187553e-11
0.01468895
2.320427e-11
0.014690067
6.7084463e-14
0.014691109
-1.7955561e-11
0.014692084
-3.6546012e-11
0.014692993
-2.9096886e-11
0.014693843
1.3042875e-11
0.014694637
2.2279426e-11
0.014695379
7.3786012e-12
0.014696071
5.7915726e-11
0.014696718
9.5680359e-11
0.014697322
-4.2092204e-11
0.014697887
-1.4905176e-10
0.014698413
-5.9284531e-11
0.014698907
3.0914911e-11
0.014699366
4.1361716e-11
0.014699798
3.4472028e-11
0.014700197
1.5773697e-11
0.014700578
-3.0692141e-11
0.014700925
-8.0029055e-11
0.014701263
-8.8189545e-11
-6.1694038e-11
0.010068394
-6.8393558e-05
0.010267405
-0.00019901112
0.010549879
-0.00028247387
0.010858545
-0.00030866649
0.011167288
-0.00030874342
0.011466046
-0.00029875788
0.01174706
-0.00028101346
0.012004047
-0.00025698755
0.012234567
-0.00023051982
0.012439713
-0.0002051459
0.012622275
-0.00018256236
0.012785275
-0.00016299957
0.0129315
-0.00014622491
0.013063403
-0.00013190312
0.013183077
-0.00011967426
0.013292252
-0.00010917461
0.013392321
-0.00010006907
0.013484397
-9.2076363e-05
0.013569373
-8.4975253e-05
0.013647971
-7.8598616e-05
0.013720793
-7.2822307e-05
0.013788347
-6.755394e-05
0.013851071
-6.2723925e-05
0.01390935
-5.8278895e-05
0.013963527
-5.4176985e-05
0.014013912
-5.038443e-05
0.014060785
-4.6873162e-05
0.014104404
-4.3619178e-05
0.014145005
-4.0601461e-05
0.014182807
-3.7801283e-05
0.014218009
-3.5201759e-05
0.014250796
-3.2787538e-05
0.014281341
-3.0544602e-05
0.014309801
-2.8460098e-05
0.014336323
-2.6522226e-05
0.014361043
-2.4720135e-05
0.014384087
-2.3043839e-05
0.014405571
-2.1484137e-05
0.014425604
-2.003255e-05
0.014444285
-1.8681263e-05
0.014461708
-1.7423059e-05
0.014477959
-1.6251278e-05
0.014493119
-1.5159767e-05
0.014507262
-1.4142838e-05
0.014520457
-1.3195232e-05
0.014532769
-1.2312079e-05
0.014544258
-1.1488872e-05
0.014554979
-1.0721436e-05
0.014564985
-1.0005899e-05
0.014574324
-9.3386742e-06
0.014583041
-8.7164275e-06
0.014591177
-8.1360623e-06
0.014598771
-7.5947047e-06
0.014605861
-7.0896825e-06
0.014612479
-6.6185145e-06
0.014618658
-6.1788987e-06
0.014624427
-5.7686941e-06
0.014629813
-5.385909e-06
0.014634842
-5.028688e-06
0.014639537
-4.6953036e-06
0.014643921
-4.3841487e-06
0.014648015
-4.0937202e-06
0.014651837
-3.8226222e-06
0.014655407
-3.5695525e-06
0.01465874
-3.3333027e-06
0.014661853
-3.1127437e-06
0.01466476
-2.9068309e-06
0.014667475
-2.7145886e-06
0.01467001
-2.5351122e-06
0.014672377
-2.3675435e-06
0.014674588
-2.2110947e-06
0.014676653
-2.0650024e-06
0.014678582
-1.9285889e-06
0.014680383
-1.8011859e-06
0.014682065
-1.6822181e-06
0.014683636
-1.5710995e-06
0.014685104
-1.467365e-06
0.014686474
-1.3704691e-06
0.014687754
-1.280049e-06
0.01468895
-1.1955425e-06
0.014690067
-1.1167155e-06
0.014691109
-1.0429651e-06
0.014692084
-9.7423536e-07
0.014692993
-9.0978404e-07
0.014693844
-8.4995116e-07
0.014694637
-7.9362261e-07
0.014695379
-7.415588e-07
0.014696071
-6.9215178e-07
0.014696718
-6.4731824e-07
0.014697322
-6.0377222e-07
0.014697886
-5.6515294e-07
0.014698413
-5.2617169e-07
0.014698908
-4.9381919e-07
0.014699366
-4.5823181e-07
0.014699798
-4.3259138e-07
0.014700196
-3.9901906e-07
0.014700577
-3.8083697e-07
0.014700925
-3.4706408e-07
0.014701263
-3.3806733e-07
-3.0574365e-07
0.010097182
-0.00016557515
0.010346961
-0.000448791
0.010662469
-0.00059798177
0.010982753
-0.00062895025
0.011290229
-0.00061621886
0.011575251
-0.00058378055
0.011829022
-0.00053478421
0.012047865
-0.0004758305
0.012233272
-0.00041592665
0.01238924
-0.000361114
0.012520295
-0.00031361712
0.012630755
-0.00027346026
0.012724428
-0.00023989719
0.012804515
-0.00021199031
0.012873613
-0.00018877261
0.012933772
-0.00016933388
0.012986596
-0.00015289296
0.013033332
-0.00013881183
0.01307495
-0.00012659379
0.013112216
-0.00011586445
0.013145739
-0.00010634494
0.013176012
-9.7826999e-05
0.013203441
-9.0153362e-05
0.013228366
-8.3203367e-05
0.013251071
-7.6882616e-05
0.013271802
-7.1115564e-05
0.01329077
-6.5840296e-05
0.013308155
-6.1004912e-05
0.013324119
-5.6565072e-05
0.0133388
-5.2482339e-05
0.013352321
-4.8723027e-05
0.013364791
-4.5257389e-05
0.013376306
-4.2058995e-05
0.01338695
-3.9104272e-05
0.0133968
-3.6372123e-05
0.013405923
-3.384361e-05
0.013414381
-3.1501695e-05
0.013422228
-2.9331018e-05
0.013429513
-2.7317701e-05
0.013436281
-2.5449176e-05
0.013442572
-2.3714045e-05
0.013448423
-2.210195e-05
0.013453866
-2.0603453e-05
0.013458933
-1.9209949e-05
0.013463652
-1.7913571e-05
0.013468047
-1.6707119e-05
0.013472142
-1.5583989e-05
0.013475959
-1.4538119e-05
0.013479517
-1.3563935e-05
0.013482834
-1.2656301e-05
0.013485928
-1.1810479e-05
0.013488814
-1.10221e-05
0.013491507
-1.0287121e-05
0.013494019
-9.6018096e-06
0.013496363
-8.9627128e-06
0.013498551
-8.3666352e-06
0.013500593
-7.810613e-06
0.013502499
-7.291895e-06
0.013504278
-6.8079314e-06
0.013505939
-6.356348e-06
0.01350749
-5.9349385e-06
0.013508938
-5.5416547e-06
0.01351029
-5.1745886e-06
0.013511552
-4.8319643e-06
0.013512731
-4.5121358e-06
0.013513832
-4.2135731e-06
0.01351486
-3.9348544e-06
0.01351582
-3.6746493e-06
0.013516716
-3.4317298e-06
0.013517554
-3.2049292e-06
0.013518336
-2.9931706e-06
0.013519066
-2.7954338e-06
0.013519748
-2.6107917e-06
0.013520386
-2.4383495e-06
0.013520981
-2.2773315e-06
0.013521537
-2.1269452e-06
0.013522056
-1.9865475e-06
0.013522541
-1.8554048e-06
0.013522994
-1.7330062e-06
0.013523417
-1.6186224e-06
0.013523812
-1.5118973e-06
0.013524181
-1.4120697e-06
0.013524526
-1.3190149e-06
0.013524848
-1.2318234e-06
0.013525149
-1.1507678e-06
0.01352543
-1.0745678e-06
0.013525692
-1.0040535e-06
0.013525937
-9.3732774e-07
0.013526166
-8.76364e-07
0.01352638
-8.1764027e-07
0.01352658
-7.6496808e-07
0.013526767
-7.127145e-07
0.013526942
-6.684162e-07
0.013527104
-6.2116406e-07
0.013527256
-5.8522295e-07
0.013527399
-5.4117281e-07
0.013527533
-5.1523391e-07
0.013527659
-4.721806e-07
0.01352778
-4.5901402e-07
-4.1613509e-07
0.010188704
-0.00035427932
0.010530487
-0.00079057335
0.010851453
-0.00091894821
0.011124174
-0.00090167137
0.011350581
-0.00084262624
0.011524486
-0.00075768559
0.01164633
-0.00065662744
0.011724155
-0.00055365586
0.011767999
-0.00045977083
0.011786639
-0.00037975354
0.011787114
-0.00031409259
0.011775058
-0.00026140426
0.011754861
-0.00021969948
0.011729768
-0.00018689786
0.011702054
-0.00016105802
0.011673239
-0.00014051895
0.011644339
-0.00012399296
0.011616003
-0.000110476
0.011588629
-9.9219869e-05
0.011562446
-8.96814e-05
0.011537572
-8.1470663e-05
0.011514052
-7.4307841e-05
0.011491889
-6.7990492e-05
0.011471056
-6.2369989e-05
0.011451509
-5.7335019e-05
0.011433193
-5.2800192e-05
0.011416051
-4.8698276e-05
0.011400021
-4.4974964e-05
0.011385042
-4.1585397e-05
0.011371051
-3.8491847e-05
0.01135799
-3.566215e-05
0.011345801
-3.3068602e-05
0.01133443
-3.0687161e-05
0.011323822
-2.8496842e-05
0.011313929
-2.6479241e-05
0.011304704
-2.4618153e-05
0.011296101
-2.2899259e-05
0.01128808
-2.1309864e-05
0.011280601
-1.9838676e-05
0.011273628
-1.8475615e-05
0.011267125
-1.721166e-05
0.011261062
-1.6038708e-05
0.011255408
-1.4949459e-05
0.011250135
-1.3937318e-05
0.011245218
-1.299631e-05
0.011240632
-1.2121007e-05
0.011236354
-1.1306465e-05
0.011232365
-1.0548173e-05
0.011228643
-9.8419977e-06
0.01122517
-9.1841509e-06
0.011221931
-8.5711509e-06
0.011218909
-7.999795e-06
0.011216089
-7.4671324e-06
0.011213457
-6.9704423e-06
0.011211002
-6.5072154e-06
0.01120871
-6.07513e-06
0.011206572
-5.6720358e-06
0.011204576
-5.295943e-06
0.011202713
-4.9450049e-06
0.011200974
-4.6175028e-06
0.011199351
-4.3118405e-06
0.011197836
-4.0265352e-06
0.011196422
-3.7602086e-06
0.011195101
-3.5115763e-06
0.011193868
-3.2794511e-06
0.011192718
-3.0627285e-06
0.011191643
-2.8603833e-06
0.01119064
-2.6714567e-06
0.011189703
-2.4950589e-06
0.011188829
-2.3303455e-06
0.011188012
-2.1765368e-06
0.01118725
-2.0328923e-06
0.011186537
-1.8987434e-06
0.011185873
-1.7734418e-06
0.011185252
-1.6564262e-06
0.011184672
-1.5471276e-06
0.01118413
-1.4450774e-06
0.011183625
-1.3497513e-06
0.011183152
-1.2607668e-06
0.011182711
-1.1776121e-06
0.0111823
-1.1000136e-06
0.011181915
-1.0274366e-06
0.011181556
-9.5975342e-07
0.01118122
-8.9637374e-07
0.011180907
-8.373834e-07
0.011180614
-7.8196944e-07
0.011180341
-7.3062843e-07
0.011180086
-6.8224806e-07
0.011179847
-6.3769909e-07
0.011179624
-5.9509252e-07
0.011179417
-5.5657721e-07
0.011179223
-5.1910961e-07
0.01117904
-4.862315e-07
0.011178872
-4.5275813e-07
0.011178712
-4.2539508e-07
0.011178566
-3.9518987e-07
0.011178425
-3.7422798e-07
0.0111783
-3.4714542e-07
0.011178177
-3.3607136e-07
-3.1077881e-07
0.010339525
-0.00069380425
0.010570754
-0.0010218027
0.010606301
-0.00095449449
0.010547572
-0.00084294334
0.010422317
-0.0007173708
0.010244356
-0.00057972444
0.010039421
-0.00045169205
0.0098287427
-0.00034297801
0.009625135
-0.00025616318
0.0094353013
-0.00018991983
0.0092624277
-0.00014121897
0.0091075332
-0.0001065098
0.008970154
-8.232022e-05
0.0088489023
-6.5646243e-05
0.0087419716
-5.4127252e-05
0.0086474927
-4.6040047e-05
0.008563694
-4.0194293e-05
0.0084890107
-3.5792758e-05
0.0084221096
-3.2318761e-05
0.0083618775
-2.9449281e-05
0.0083073954
-2.6988574e-05
0.0082579079
-2.4820297e-05
0.0082127929
-2.2875476e-05
0.0081715353
-2.1112415e-05
0.0081337049
-1.9504657e-05
0.0080989388
-1.8034022e-05
0.0080669272
-1.6686735e-05
0.0080374036
-1.5451373e-05
0.0080101361
-1.4317869e-05
0.0079849213
-1.3277072e-05
0.0079615798
-1.2320587e-05
0.0079399519
-1.1440712e-05
0.0079198952
-1.0630424e-05
0.0079012817
-9.8833577e-06
0.0078839962
-9.1937697e-06
0.0078679345
-8.5565015e-06
0.0078530022
-7.9669301e-06
0.0078391133
-7.4209175e-06
0.0078261893
-6.9147585e-06
0.0078141589
-6.4451304e-06
0.0078029562
-6.0090499e-06
0.0077925214
-5.6038319e-06
0.007782799
-5.2270524e-06
0.0077737382
-4.8765177e-06
0.0077652921
-4.5502377e-06
0.0077574175
-4.2464009e-06
0.0077500744
-3.9633541e-06
0.0077432258
-3.6995857e-06
0.0077368375
-3.4537085e-06
0.0077308778
-3.2244462e-06
0.0077253173
-3.010625e-06
0.0077201286
-2.8111636e-06
0.0077152866
-2.6250632e-06
0.0077107675
-2.4514013e-06
0.0077065497
-2.2893258e-06
0.0077026126
-2.1380467e-06
0.0076989374
-1.9968298e-06
0.0076955064
-1.8649951e-06
0.0076923033
-1.7419103e-06
0.0076893128
-1.6269847e-06
0.0076865206
-1.5196685e-06
0.0076839135
-1.4194515e-06
0.0076814792
-1.3258585e-06
0.0076792061
-1.2384462e-06
0.0076770834
-1.1568058e-06
0.0076751013
-1.0805568e-06
0.0076732502
-1.0093437e-06
0.0076715216
-9.428329e-07
0.0076699072
-8.8071438e-07
0.0076683995
-8.226926e-07
0.0076669915
-7.6849582e-07
0.0076656765
-7.1786615e-07
0.0076644484
-6.7057092e-07
0.0076633013
-6.2638465e-07
0.00766223
-5.8511348e-07
0.0076612294
-5.4655824e-07
0.0076602949
-5.1055517e-07
0.007659422
-4.7691833e-07
0.0076586067
-4.4551545e-07
0.0076578453
-4.1616271e-07
0.0076571341
-3.88767e-07
0.0076564698
-3.6313837e-07
0.0076558493
-3.3923645e-07
0.0076552698
-3.1684822e-07
0.0076547284
-2.960118e-07
0.0076542229
-2.7644058e-07
0.0076537505
-2.583032e-07
0.0076533093
-2.4122187e-07
0.0076528971
-2.2547642e-07
0.0076525127
-2.1041442e-07
0.007652153
-1.9675618e-07
0.0076518173
-1.8366344e-07
0.0076515028
-1.7196941e-07
0.0076512106
-1.6030715e-07
0.0076509357
-1.5027701e-07
0.0076506808
-1.4042063e-07
0.0076504385
-1.3211852e-07
0.0076502165
-1.2507256e-07
0.0076499999
-1.1942441e-07
-1.2578466e-07
0.0093061957
0.0082843931
0.0073298986
0.0064869553
0.0057695845
0.00518986
0.004738168
0.00439519
0.0041390268
0.003949107
0.003807888
0.0037013782
0.003619058
0.0035534117
0.0034992845
0.0034532444
0.0034130501
0.0033772574
0.0033449386
0.0033154893
0.0032885008
0.0032636805
0.003240805
0.0032196926
0.0032001879
0.0031821539
0.0031654672
0.0031500158
0.0031356979
0.0031224208
0.0031101003
0.0030986596
0.0030880291
0.0030781458
0.003068952
0.0030603955
0.0030524286
0.0030450076
0.0030380929
0.0030316478
0.0030256387
0.0030200349
0.0030148078
0.0030099313
0.0030053811
0.0030011347
0.0029971713
0.0029934717
0.002990018
0.0029867936
0.0029837829
0.0029809718
0.0029783467
0.0029758953
0.002973606
0.002971468
0.0029694711
0.0029676061
0.0029658642
0.0029642372
0.0029627175
0.0029612981
0.0029599723
0.0029587338
0.002957577
0.0029564965
0.0029554871
0.0029545442
0.0029536635
0.0029528408
0.0029520723
0.0029513545
0.002950684
0.0029500576
0.0029494725
0.0029489259
0.0029484153
0.0029479384
0.0029474928
0.0029470767
0.0029466879
0.0029463248
0.0029459856
0.0029456688
0.0029453728
0.0029450963
0.0029448379
0.0029445966
0.0029443712
0.0029441609
0.0029439641
0.0029437803
0.0029436085
0.0029434483
0.002943298
0.0029431574
0.0029430253
0.0029429002
0.0029427808
)
;

boundaryField
{
    top
    {
        type            calculated;
        value           uniform 0;
    }
    inlet
    {
        type            calculated;
        value           nonuniform List<scalar> 10(-0.01 -0.01 -0.01 -0.01 -0.01 -0.01 -0.01 -0.01 -0.01 -0.01);
    }
    outlet
    {
        type            calculated;
        value           nonuniform List<scalar> 10(0.002942655 0.0076498148 0.011178072 0.01352789 0.014701568 0.014701568 0.01352789 0.011178072 0.0076498149 0.002942655);
    }
    bottom
    {
        type            calculated;
        value           uniform 0;
    }
    back
    {
        type            empty;
        value           nonuniform 0();
    }
    front
    {
        type            empty;
        value           nonuniform 0();
    }
}


// ************************************************************************* //
