/*--------------------------------*- C++ -*----------------------------------*\
| =========                 |                                                 |
| \\      /  F ield         | OpenFOAM: The Open Source CFD Toolbox           |
|  \\    /   O peration     | Version:  v1812                                 |
|   \\  /    A nd           | Web:      www.OpenFOAM.com                      |
|    \\/     M anipulation  |                                                 |
\*---------------------------------------------------------------------------*/
FoamFile
{
    version     2.0;
    format      ascii;
    class       volVectorField;
    location    "10";
    object      U;
}
// * * * * * * * * * * * * * * * * * * * * * * * * * * * * * * * * * * * * * //

dimensions      [0 1 -1 0 0 0 0];


internalField   nonuniform List<vector> 
1000
(
(0.91890839 0.035821913 0)
(0.86271384 0.062195638 0)
(0.7870597 0.06251009 0)
(0.69536033 0.054550395 0)
(0.61089745 0.044531651 0)
(0.54411592 0.034015971 0)
(0.49343012 0.024187539 0)
(0.45479413 0.016144229 0)
(0.42544582 0.010265786 0)
(0.40347313 0.0063041454 0)
(0.38715766 0.0037976298 0)
(0.3749622 0.0023103385 0)
(0.36566192 0.0014930151 0)
(0.35836272 0.0010851182 0)
(0.35244268 0.0009060722 0)
(0.34748201 0.00084105156 0)
(0.34320348 0.00082372399 0)
(0.33942726 0.00081931031 0)
(0.33603793 0.00081185197 0)
(0.33296114 0.00079580129 0)
(0.33014778 0.00077081159 0)
(0.32756384 0.00073870965 0)
(0.3251842 0.00070188946 0)
(0.32298902 0.00066256577 0)
(0.32096172 0.00062249962 0)
(0.31908785 0.00058295743 0)
(0.31735449 0.00054477153 0)
(0.31574995 0.0005084341 0)
(0.3142636 0.00047419156 0)
(0.31288574 0.00044212461 0)
(0.31160755 0.00041220949 0)
(0.31042101 0.00038436168 0)
(0.30931883 0.00035846499 0)
(0.30829438 0.00033439029 0)
(0.30734165 0.00031200662 0)
(0.30645515 0.00029118752 0)
(0.30562991 0.00027181421 0)
(0.30486136 0.00025377679 0)
(0.30414535 0.00023697446 0)
(0.30347806 0.00022131506 0)
(0.302856 0.00020671446 0)
(0.30227595 0.00019309578 0)
(0.30173496 0.00018038868 0)
(0.30123029 0.00016852876 0)
(0.30075942 0.00015745685 0)
(0.30032002 0.00014711856 0)
(0.29990993 0.00013746373 0)
(0.29952715 0.00012844594 0)
(0.29916983 0.00012002226 0)
(0.29883623 0.00011215273 0)
(0.29852477 0.00010480025 0)
(0.29823396 9.7930289e-05 0)
(0.2979624 9.1510685e-05 0)
(0.29770882 8.5511635e-05 0)
(0.297472 7.9905359e-05 0)
(0.29725084 7.4666145e-05 0)
(0.29704429 6.9770032e-05 0)
(0.29685137 6.5194649e-05 0)
(0.29667119 6.0919141e-05 0)
(0.29650289 5.692381e-05 0)
(0.2963457 5.3190247e-05 0)
(0.29619887 4.9701127e-05 0)
(0.29606173 4.6440212e-05 0)
(0.29593363 4.3392528e-05 0)
(0.29581398 4.0544059e-05 0)
(0.29570221 3.7881977e-05 0)
(0.2955978 3.539434e-05 0)
(0.29550027 3.3069838e-05 0)
(0.29540917 3.089795e-05 0)
(0.29532407 2.8868328e-05 0)
(0.29524458 2.6971301e-05 0)
(0.29517033 2.5197533e-05 0)
(0.29510099 2.353834e-05 0)
(0.29503623 2.1985783e-05 0)
(0.29497576 2.0532679e-05 0)
(0.29491929 1.9172292e-05 0)
(0.29486657 1.7898811e-05 0)
(0.29481735 1.670589e-05 0)
(0.29477143 1.5588369e-05 0)
(0.29472858 1.4539817e-05 0)
(0.29468864 1.3555535e-05 0)
(0.29465142 1.2629381e-05 0)
(0.29461676 1.1758094e-05 0)
(0.2945845 1.0935995e-05 0)
(0.2945545 1.0162499e-05 0)
(0.29452664 9.4311267e-06 0)
(0.29450077 8.744633e-06 0)
(0.29447681 8.0932003e-06 0)
(0.29445462 7.4839638e-06 0)
(0.29443416 6.9011576e-06 0)
(0.29441527 6.3601773e-06 0)
(0.29439792 5.8365604e-06 0)
(0.29438195 5.3603645e-06 0)
(0.29436735 4.8935802e-06 0)
(0.29435399 4.4834497e-06 0)
(0.29434177 4.0797123e-06 0)
(0.29433079 3.7364225e-06 0)
(0.29432039 3.4392951e-06 0)
(0.29431194 3.2008065e-06 0)
(0.2943008 3.2977842e-06 0)
(1.0016583 0.05381943 0)
(1.0359761 0.10128444 0)
(1.0597199 0.11073663 0)
(1.0628947 0.10592202 0)
(1.0515569 0.096228728 0)
(1.0340529 0.083934061 0)
(1.0142795 0.070327062 0)
(0.99360703 0.056981333 0)
(0.97292577 0.045107479 0)
(0.95310739 0.03523675 0)
(0.93479538 0.027401651 0)
(0.91829012 0.021387228 0)
(0.90362379 0.016884499 0)
(0.89068067 0.013569709 0)
(0.87928175 0.011147749 0)
(0.86923242 0.0093736588 0)
(0.86034423 0.0080569282 0)
(0.85244667 0.0070571275 0)
(0.84539241 0.0062752383 0)
(0.83905793 0.0056438285 0)
(0.83334126 0.0051180908 0)
(0.82815884 0.004668672 0)
(0.82344212 0.004276417 0)
(0.81913467 0.0039287386 0)
(0.81518962 0.0036172035 0)
(0.81156765 0.0033359705 0)
(0.80823544 0.0030808042 0)
(0.8051644 0.002848469 0)
(0.80232979 0.0026363692 0)
(0.79970999 0.0024423383 0)
(0.79728597 0.0022645185 0)
(0.79504086 0.0021012896 0)
(0.79295963 0.0019512251 0)
(0.7910288 0.0018130631 0)
(0.78923627 0.0016856839 0)
(0.7875711 0.0015680932 0)
(0.78602338 0.0014594065 0)
(0.78458412 0.0013588366 0)
(0.78324511 0.001265681 0)
(0.78199888 0.001179312 0)
(0.7808386 0.0010991671 0)
(0.77975798 0.001024741 0)
(0.77875127 0.00095557844 0)
(0.77781317 0.00089126804 0)
(0.77693881 0.00083143715 0)
(0.77612368 0.00077574726 0)
(0.77536362 0.00072389002 0)
(0.7746548 0.0006755838 0)
(0.77399367 0.00063057075 0)
(0.77337692 0.00058861421 0)
(0.77280152 0.00054949652 0)
(0.77226462 0.0005130172 0)
(0.77176361 0.00047899126 0)
(0.77129605 0.00044724797 0)
(0.77085965 0.00041762949 0)
(0.77045233 0.00038998991 0)
(0.77007211 0.00036419408 0)
(0.76971716 0.00034011668 0)
(0.76938579 0.00031764136 0)
(0.76907641 0.00029665979 0)
(0.76878756 0.00027707118 0)
(0.76851787 0.00025878153 0)
(0.76826605 0.00024170329 0)
(0.76803091 0.00022575503 0)
(0.76781135 0.00021086095 0)
(0.76760632 0.00019695064 0)
(0.76741486 0.00018395859 0)
(0.76723606 0.00017182347 0)
(0.76706908 0.00016048798 0)
(0.76691315 0.00014989796 0)
(0.76676753 0.00014000263 0)
(0.76663156 0.00013075397 0)
(0.7665046 0.00012210717 0)
(0.76638607 0.00011402019 0)
(0.76627541 0.00010645432 0)
(0.76617211 9.9372833e-05 0)
(0.76607569 9.2742527e-05 0)
(0.76598571 8.6530512e-05 0)
(0.76590177 8.0708045e-05 0)
(0.7658235 7.5244672e-05 0)
(0.76575053 7.0116167e-05 0)
(0.76568257 6.5293958e-05 0)
(0.7656193 6.0760311e-05 0)
(0.76556045 5.6487359e-05 0)
(0.76550573 5.2467072e-05 0)
(0.76545494 4.8668206e-05 0)
(0.76540779 4.5096976e-05 0)
(0.76536415 4.1710341e-05 0)
(0.76532372 3.8537213e-05 0)
(0.76528648 3.5508923e-05 0)
(0.76525206 3.2695408e-05 0)
(0.76522053 2.9979625e-05 0)
(0.76519146 2.7507189e-05 0)
(0.76516494 2.5069424e-05 0)
(0.76514071 2.2944722e-05 0)
(0.76511836 2.0752592e-05 0)
(0.76509889 1.9017839e-05 0)
(0.76507914 1.7051528e-05 0)
(0.76506595 1.5892544e-05 0)
(0.7650442 1.4296269e-05 0)
(1.0014244 0.026824854 0)
(1.0291272 0.062791352 0)
(1.0654292 0.077736553 0)
(1.098962 0.0805972 0)
(1.1253149 0.078285171 0)
(1.145053 0.073153899 0)
(1.1594858 0.066111278 0)
(1.1694287 0.058162063 0)
(1.1755354 0.050296754 0)
(1.1785738 0.043150708 0)
(1.1793571 0.036972826 0)
(1.1785949 0.031771632 0)
(1.1768304 0.02745184 0)
(1.1744518 0.023886768 0)
(1.1717287 0.02094762 0)
(1.1688444 0.01851578 0)
(1.1659195 0.016488085 0)
(1.1630317 0.014779502 0)
(1.1602295 0.013322985 0)
(1.1575415 0.012067132 0)
(1.1549828 0.010973001 0)
(1.1525601 0.010011062 0)
(1.1502747 0.0091587469 0)
(1.1481246 0.0083986045 0)
(1.1461059 0.0077169509 0)
(1.1442134 0.0071028885 0)
(1.1424414 0.006547592 0)
(1.1407838 0.0060437954 0)
(1.1392344 0.005585426 0)
(1.1377869 0.0051673445 0)
(1.1364353 0.0047851569 0)
(1.1351738 0.0044350763 0)
(1.1339968 0.0041138171 0)
(1.1328987 0.0038185136 0)
(1.1318746 0.003546654 0)
(1.1309195 0.0032960283 0)
(1.1300289 0.0030646843 0)
(1.1291985 0.0028508915 0)
(1.1284242 0.0026531108 0)
(1.1277022 0.0024699687 0)
(1.1270291 0.0023002355 0)
(1.1264014 0.002142807 0)
(1.1258161 0.0019966886 0)
(1.1252702 0.0018609817 0)
(1.1247612 0.0017348729 0)
(1.1242865 0.0016176232 0)
(1.1238437 0.0015085603 0)
(1.1234307 0.0014070708 0)
(1.1230455 0.001312594 0)
(1.1226861 0.001224616 0)
(1.1223509 0.0011426653 0)
(1.1220381 0.0010663083 0)
(1.1217462 0.00099514579 0)
(1.1214739 0.00092880974 0)
(1.1212198 0.00086696052 0)
(1.1209827 0.00080928446 0)
(1.1207614 0.0007554915 0)
(1.1205548 0.00070531333 0)
(1.120362 0.00065850122 0)
(1.1201821 0.00061482449 0)
(1.1200142 0.00057406886 0)
(1.1198574 0.00053603501 0)
(1.119711 0.00050053768 0)
(1.1195744 0.0004674044 0)
(1.1194469 0.00043647491 0)
(1.1193278 0.0004076002 0)
(1.1192167 0.00038064153 0)
(1.1191129 0.00035546982 0)
(1.119016 0.0003319644 0)
(1.1189255 0.00031001228 0)
(1.118841 0.00028950768 0)
(1.1187621 0.00027035082 0)
(1.1186885 0.00025244876 0)
(1.1186198 0.00023571375 0)
(1.1185556 0.00022006473 0)
(1.1184957 0.00020542494 0)
(1.1184398 0.00019172432 0)
(1.1183876 0.00017889488 0)
(1.1183389 0.00016687657 0)
(1.1182934 0.00015560705 0)
(1.118251 0.00014503656 0)
(1.1182115 0.00013510564 0)
(1.1181747 0.00012577797 0)
(1.1181404 0.00011699346 0)
(1.1181084 0.00010873616 0)
(1.1180788 0.00010093628 0)
(1.1180511 9.3611321e-05 0)
(1.1180255 8.6660799e-05 0)
(1.1180016 8.0162141e-05 0)
(1.1179797 7.3942285e-05 0)
(1.1179591 6.8196048e-05 0)
(1.1179405 6.2595124e-05 0)
(1.1179229 5.7573964e-05 0)
(1.1179072 5.2476082e-05 0)
(1.1178923 4.8227034e-05 0)
(1.1178789 4.3480463e-05 0)
(1.1178669 4.0170903e-05 0)
(1.1178547 3.5552098e-05 0)
(1.117847 3.358129e-05 0)
(1.1178331 2.8845786e-05 0)
(1.0007347 0.011814721 0)
(1.0178472 0.030860926 0)
(1.0462163 0.041434441 0)
(1.0799018 0.045193569 0)
(1.1132664 0.045502351 0)
(1.143782 0.044080307 0)
(1.1708941 0.041439982 0)
(1.1945687 0.037973678 0)
(1.2148582 0.034195729 0)
(1.2319652 0.030536887 0)
(1.2462683 0.027222045 0)
(1.2582339 0.024313921 0)
(1.2683135 0.021797888 0)
(1.2768875 0.01963366 0)
(1.2842554 0.017773826 0)
(1.2906479 0.016169652 0)
(1.296243 0.01477559 0)
(1.3011791 0.013552297 0)
(1.3055645 0.012467863 0)
(1.3094838 0.011497466 0)
(1.3130042 0.010622162 0)
(1.3161792 0.0098275136 0)
(1.3190526 0.0091024115 0)
(1.3216607 0.0084381772 0)
(1.3240343 0.0078279042 0)
(1.3261995 0.0072659746 0)
(1.3281786 0.0067477087 0)
(1.3299913 0.0062691167 0)
(1.3316544 0.0058267274 0)
(1.3331829 0.0054174734 0)
(1.3345896 0.0050386126 0)
(1.3358862 0.0046876743 0)
(1.3370827 0.0043624203 0)
(1.3381882 0.0040608156 0)
(1.3392108 0.0037810055 0)
(1.3401576 0.0035212962 0)
(1.3410349 0.0032801395 0)
(1.3418486 0.0030561182 0)
(1.3426038 0.0028479344 0)
(1.3433051 0.0026543979 0)
(1.3439569 0.0024744166 0)
(1.3445629 0.0023069871 0)
(1.3451267 0.0021511874 0)
(1.3456513 0.002006169 0)
(1.3461398 0.0018711507 0)
(1.3465947 0.0017454124 0)
(1.3470185 0.0016282903 0)
(1.3474135 0.0015191715 0)
(1.3477816 0.0014174896 0)
(1.3481249 0.0013227211 0)
(1.3484449 0.0012343813 0)
(1.3487435 0.0011520215 0)
(1.3490219 0.001075226 0)
(1.3492818 0.0010036091 0)
(1.3495242 0.00093681351 0)
(1.3497505 0.00087450748 0)
(1.3499616 0.00081638343 0)
(1.3501587 0.00076215576 0)
(1.3503427 0.00071155907 0)
(1.3505145 0.00066434671 0)
(1.3506748 0.00062028896 0)
(1.3508245 0.00057917192 0)
(1.3509643 0.00054079632 0)
(1.3510948 0.00050497644 0)
(1.3512167 0.00047153961 0)
(1.3513305 0.00044032494 0)
(1.3514368 0.00041118293 0)
(1.3515361 0.00038397428 0)
(1.3516288 0.00035856889 0)
(1.3517153 0.00033484509 0)
(1.3517962 0.00031268871 0)
(1.3518716 0.00029199233 0)
(1.3519421 0.00027265564 0)
(1.3520079 0.00025458375 0)
(1.3520694 0.00023768951 0)
(1.3521268 0.00022188972 0)
(1.3521803 0.00020710964 0)
(1.3522303 0.00019327575 0)
(1.3522768 0.00018032447 0)
(1.3523203 0.00016818784 0)
(1.3523607 0.00015681365 0)
(1.3523984 0.00014613485 0)
(1.3524335 0.00013611539 0)
(1.3524662 0.00012668335 0)
(1.3524965 0.00011783013 0)
(1.3525247 0.00010946556 0)
(1.3525507 0.0001016293 0)
(1.352575 9.4180603e-05 0)
(1.352597 8.7249634e-05 0)
(1.3526179 8.0577966e-05 0)
(1.3526363 7.4477546e-05 0)
(1.3526543 6.8441048e-05 0)
(1.3526694 6.3149898e-05 0)
(1.3526851 5.7591072e-05 0)
(1.3526969 5.3175315e-05 0)
(1.3527108 4.7897579e-05 0)
(1.3527192 4.4549766e-05 0)
(1.3527325 3.9289476e-05 0)
(1.3527371 3.7364531e-05 0)
(1.3527512 3.1796731e-05 0)
(1.0005903 0.0034629155 0)
(1.0136865 0.0093660192 0)
(1.0370283 0.013046805 0)
(1.0674202 0.014563261 0)
(1.1000315 0.014854524 0)
(1.1316428 0.014564991 0)
(1.1610745 0.013888338 0)
(1.1880674 0.012919246 0)
(1.2125205 0.011806506 0)
(1.2343939 0.010696427 0)
(1.2538077 0.0096727423 0)
(1.2710339 0.0087628222 0)
(1.286401 0.0079659736 0)
(1.3002112 0.0072722145 0)
(1.3127102 0.0066688084 0)
(1.3240903 0.0061419251 0)
(1.3345036 0.0056780722 0)
(1.3440716 0.0052653211 0)
(1.3528927 0.0048939354 0)
(1.3610463 0.0045563963 0)
(1.3685975 0.0042470703 0)
(1.3756004 0.0039617763 0)
(1.3821012 0.0036973978 0)
(1.3881402 0.0034515826 0)
(1.3937533 0.0032225184 0)
(1.3989728 0.0030087696 0)
(1.403828 0.0028091578 0)
(1.4083456 0.0026226792 0)
(1.4125503 0.00244845 0)
(1.4164646 0.0022856713 0)
(1.4201094 0.0021336082 0)
(1.423504 0.0019915769 0)
(1.426666 0.001858937 0)
(1.4296121 0.0017350865 0)
(1.4323573 0.0016194593 0)
(1.4349159 0.0015115221 0)
(1.4373007 0.0014107737 0)
(1.4395241 0.0013167429 0)
(1.441597 0.0012289873 0)
(1.4435301 0.0011470921 0)
(1.4453328 0.0010706682 0)
(1.4470143 0.00099935191 0)
(1.4485827 0.00093280259 0)
(1.4500459 0.00087070201 0)
(1.451411 0.00081275282 0)
(1.4526846 0.00075867723 0)
(1.4538731 0.00070821592 0)
(1.4549822 0.00066112662 0)
(1.4560172 0.00061718322 0)
(1.4569831 0.00057617457 0)
(1.4578847 0.00053790359 0)
(1.4587262 0.00050218647 0)
(1.4595117 0.00046885172 0)
(1.460245 0.00043773952 0)
(1.4609295 0.00040870088 0)
(1.4615685 0.00038159689 0)
(1.4621651 0.00035629815 0)
(1.4627221 0.00033268379 0)
(1.4632422 0.00031064116 0)
(1.4637278 0.00029006499 0)
(1.4641812 0.00027085688 0)
(1.4646045 0.00025292517 0)
(1.4649998 0.00023618416 0)
(1.4653689 0.0002205542 0)
(1.4657136 0.00020596105 0)
(1.4660355 0.00019233551 0)
(1.4663361 0.00017961329 0)
(1.4666168 0.00016773396 0)
(1.466879 0.00015664109 0)
(1.4671238 0.00014628161 0)
(1.4673524 0.00013660564 0)
(1.4675658 0.00012756653 0)
(1.4677652 0.00011912059 0)
(1.4679513 0.00011122693 0)
(1.4681251 0.00010384799 0)
(1.4682873 9.6947934e-05 0)
(1.4684388 9.0494796e-05 0)
(1.4685802 8.4456382e-05 0)
(1.468712 7.8805257e-05 0)
(1.4688351 7.3511101e-05 0)
(1.4689497 6.8551277e-05 0)
(1.4690567 6.3895433e-05 0)
(1.4691563 5.9529123e-05 0)
(1.4692491 5.5418903e-05 0)
(1.4693353 5.1564948e-05 0)
(1.4694156 4.7922936e-05 0)
(1.4694899 4.4518295e-05 0)
(1.4695593 4.1278002e-05 0)
(1.4696229 3.8274747e-05 0)
(1.4696827 3.5371654e-05 0)
(1.4697366 3.273671e-05 0)
(1.4697881 3.01025e-05 0)
(1.469833 2.7827267e-05 0)
(1.4698778 2.5387901e-05 0)
(1.4699137 2.3503553e-05 0)
(1.4699538 2.1171448e-05 0)
(1.4699803 1.9761555e-05 0)
(1.4700184 1.7423133e-05 0)
(1.4700335 1.6627369e-05 0)
(1.4700749 1.4134991e-05 0)
(1.0005903 -0.0034629164 0)
(1.0136865 -0.0093660204 0)
(1.0370283 -0.013046807 0)
(1.0674202 -0.014563262 0)
(1.1000315 -0.014854525 0)
(1.1316428 -0.014564991 0)
(1.1610745 -0.013888337 0)
(1.1880674 -0.012919245 0)
(1.2125205 -0.011806505 0)
(1.2343939 -0.010696426 0)
(1.2538077 -0.0096727421 0)
(1.2710339 -0.0087628226 0)
(1.286401 -0.0079659745 0)
(1.3002112 -0.0072722155 0)
(1.3127102 -0.0066688092 0)
(1.3240903 -0.0061419253 0)
(1.3345036 -0.0056780716 0)
(1.3440716 -0.0052653199 0)
(1.3528927 -0.0048939338 0)
(1.3610463 -0.0045563947 0)
(1.3685975 -0.0042470692 0)
(1.3756004 -0.003961776 0)
(1.3821012 -0.0036973984 0)
(1.3881402 -0.0034515837 0)
(1.3937533 -0.0032225197 0)
(1.3989728 -0.0030087705 0)
(1.403828 -0.0028091578 0)
(1.4083456 -0.0026226781 0)
(1.4125503 -0.0024484478 0)
(1.4164646 -0.0022856686 0)
(1.4201094 -0.0021336056 0)
(1.423504 -0.001991575 0)
(1.426666 -0.001858936 0)
(1.4296121 -0.0017350865 0)
(1.4323573 -0.0016194597 0)
(1.4349159 -0.0015115224 0)
(1.4373007 -0.0014107732 0)
(1.4395241 -0.001316741 0)
(1.441597 -0.001228984 0)
(1.4435301 -0.0011470875 0)
(1.4453329 -0.0010706631 0)
(1.4470143 -0.00099934693 0)
(1.4485827 -0.00093279845 0)
(1.4500459 -0.00087069893 0)
(1.451411 -0.00081275058 0)
(1.4526846 -0.00075867512 0)
(1.4538731 -0.00070821306 0)
(1.4549822 -0.00066112225 0)
(1.4560172 -0.00061717693 0)
(1.4569831 -0.00057616661 0)
(1.4578847 -0.00053789461 0)
(1.4587262 -0.00050217747 0)
(1.4595117 -0.0004688436 0)
(1.460245 -0.00043773269 0)
(1.4609295 -0.00040869529 0)
(1.4615685 -0.0003815918 0)
(1.4621651 -0.00035629255 0)
(1.4627222 -0.00033267679 0)
(1.4632422 -0.00031063222 0)
(1.4637278 -0.00029005446 0)
(1.4641812 -0.00027084578 0)
(1.4646045 -0.00025291504 0)
(1.4649998 -0.00023617653 0)
(1.4653689 -0.00022054982 0)
(1.4657136 -0.00020595997 0)
(1.4660355 -0.00019233664 0)
(1.4663361 -0.00017961505 0)
(1.4666169 -0.00016773506 0)
(1.466879 -0.00015664095 0)
(1.4671238 -0.00014628114 0)
(1.4673524 -0.00013660662 0)
(1.4675658 -0.00012757132 0)
(1.4677652 -0.00011913132 0)
(1.4679513 -0.0001112445 0)
(1.4681251 -0.00010387214 0)
(1.4682873 -9.697689e-05 0)
(1.4684388 -9.0526045e-05 0)
(1.4685802 -8.4487833e-05 0)
(1.468712 -7.8835484e-05 0)
(1.4688351 -7.3540571e-05 0)
(1.4689498 -6.8581579e-05 0)
(1.4690567 -6.3928982e-05 0)
(1.4691563 -5.9567909e-05 0)
(1.4692491 -5.5463563e-05 0)
(1.4693353 -5.1614154e-05 0)
(1.4694156 -4.7973939e-05 0)
(1.4694899 -4.456716e-05 0)
(1.4695593 -4.1321667e-05 0)
(1.4696229 -3.8311134e-05 0)
(1.4696827 -3.5400791e-05 0)
(1.4697366 -3.2759982e-05 0)
(1.4697881 -3.0121799e-05 0)
(1.4698329 -2.7843957e-05 0)
(1.4698777 -2.5401314e-05 0)
(1.4699137 -2.351298e-05 0)
(1.4699537 -2.1171754e-05 0)
(1.4699802 -1.9751432e-05 0)
(1.4700184 -1.7397466e-05 0)
(1.4700334 -1.6577922e-05 0)
(1.4700749 -1.4089289e-05 0)
(1.0007347 -0.011814722 0)
(1.0178472 -0.030860928 0)
(1.0462163 -0.041434442 0)
(1.0799018 -0.04519357 0)
(1.1132664 -0.045502351 0)
(1.143782 -0.044080307 0)
(1.1708941 -0.041439981 0)
(1.1945687 -0.037973677 0)
(1.2148582 -0.034195728 0)
(1.2319652 -0.030536887 0)
(1.2462683 -0.027222045 0)
(1.2582339 -0.024313922 0)
(1.2683135 -0.021797889 0)
(1.2768875 -0.019633661 0)
(1.2842554 -0.017773827 0)
(1.2906479 -0.016169651 0)
(1.296243 -0.014775589 0)
(1.3011791 -0.013552296 0)
(1.3055645 -0.012467862 0)
(1.3094838 -0.011497465 0)
(1.3130042 -0.010622162 0)
(1.3161792 -0.0098275141 0)
(1.3190526 -0.0091024125 0)
(1.3216607 -0.0084381784 0)
(1.3240343 -0.007827905 0)
(1.3261995 -0.0072659746 0)
(1.3281786 -0.0067477078 0)
(1.3299913 -0.0062691148 0)
(1.3316544 -0.0058267251 0)
(1.3331829 -0.0054174712 0)
(1.3345896 -0.0050386109 0)
(1.3358862 -0.0046876735 0)
(1.3370827 -0.0043624203 0)
(1.3381882 -0.0040608161 0)
(1.3392108 -0.0037810058 0)
(1.3401576 -0.0035212958 0)
(1.3410349 -0.0032801379 0)
(1.3418486 -0.0030561154 0)
(1.3426038 -0.0028479307 0)
(1.3433051 -0.0026543938 0)
(1.3439569 -0.0024744126 0)
(1.3445629 -0.002306984 0)
(1.3451267 -0.0021511852 0)
(1.3456513 -0.0020061675 0)
(1.3461398 -0.0018711491 0)
(1.3465947 -0.0017454102 0)
(1.3470185 -0.0016282867 0)
(1.3474135 -0.0015191662 0)
(1.3477816 -0.0014174829 0)
(1.3481249 -0.0013227137 0)
(1.3484449 -0.0012343741 0)
(1.3487435 -0.0011520153 0)
(1.349022 -0.0010752209 0)
(1.3492818 -0.0010036051 0)
(1.3495242 -0.00093680959 0)
(1.3497505 -0.00087450282 0)
(1.3499617 -0.00081637728 0)
(1.3501588 -0.0007621478 0)
(1.3503428 -0.00071154986 0)
(1.3505145 -0.00066433722 0)
(1.3506748 -0.00062028059 0)
(1.3508246 -0.00057916586 0)
(1.3509643 -0.00054079302 0)
(1.3510949 -0.00050497572 0)
(1.3512167 -0.00047154027 0)
(1.3513306 -0.00044032569 0)
(1.3514369 -0.00041118275 0)
(1.3515361 -0.00038397284 0)
(1.3516288 -0.00035856726 0)
(1.3517154 -0.00033484495 0)
(1.3517962 -0.0003126922 0)
(1.3518717 -0.00029200116 0)
(1.3519421 -0.00027267018 0)
(1.352008 -0.00025460349 0)
(1.3520694 -0.00023771253 0)
(1.3521268 -0.00022191415 0)
(1.3521803 -0.00020713402 0)
(1.3522303 -0.00019329956 0)
(1.3522769 -0.0001803486 0)
(1.3523203 -0.00016821384 0)
(1.3523608 -0.00015684317 0)
(1.3523985 -0.00014616911 0)
(1.3524335 -0.000136154 0)
(1.3524662 -0.0001267251 0)
(1.3524964 -0.00011787259 0)
(1.3525247 -0.00010950634 0)
(1.3525506 -0.00010166658 0)
(1.3525749 -9.4213465e-05 0)
(1.352597 -8.7278183e-05 0)
(1.3526178 -8.060297e-05 0)
(1.3526363 -7.4499438e-05 0)
(1.3526542 -6.8460011e-05 0)
(1.3526693 -6.3165408e-05 0)
(1.352685 -5.7601925e-05 0)
(1.3526968 -5.3180956e-05 0)
(1.3527108 -4.7896505e-05 0)
(1.3527192 -4.4542307e-05 0)
(1.3527324 -3.9274035e-05 0)
(1.352737 -3.7343539e-05 0)
(1.3527512 -3.177551e-05 0)
(1.0014244 -0.026824855 0)
(1.0291272 -0.062791353 0)
(1.0654292 -0.077736553 0)
(1.098962 -0.0805972 0)
(1.1253149 -0.07828517 0)
(1.145053 -0.073153898 0)
(1.1594858 -0.066111277 0)
(1.1694287 -0.058162062 0)
(1.1755354 -0.050296754 0)
(1.1785738 -0.043150709 0)
(1.1793571 -0.036972827 0)
(1.1785949 -0.031771634 0)
(1.1768304 -0.027451841 0)
(1.1744518 -0.023886768 0)
(1.1717287 -0.020947619 0)
(1.1688444 -0.018515779 0)
(1.1659195 -0.016488083 0)
(1.1630317 -0.014779501 0)
(1.1602295 -0.013322984 0)
(1.1575415 -0.012067133 0)
(1.1549828 -0.010973002 0)
(1.1525601 -0.010011063 0)
(1.1502747 -0.0091587482 0)
(1.1481246 -0.0083986051 0)
(1.1461059 -0.0077169504 0)
(1.1442134 -0.0071028871 0)
(1.1424415 -0.0065475901 0)
(1.1407838 -0.0060437933 0)
(1.1392344 -0.0055854244 0)
(1.1377869 -0.0051673438 0)
(1.1364353 -0.0047851572 0)
(1.1351738 -0.0044350772 0)
(1.1339968 -0.0041138182 0)
(1.1328987 -0.0038185141 0)
(1.1318746 -0.0035466535 0)
(1.1309195 -0.0032960266 0)
(1.1300289 -0.0030646815 0)
(1.1291985 -0.0028508882 0)
(1.1284242 -0.0026531076 0)
(1.1277022 -0.0024699663 0)
(1.1270291 -0.0023002342 0)
(1.1264014 -0.0021428067 0)
(1.1258161 -0.0019966887 0)
(1.1252702 -0.0018609816 0)
(1.1247612 -0.0017348715 0)
(1.1242865 -0.0016176202 0)
(1.1238437 -0.0015085557 0)
(1.1234308 -0.0014070652 0)
(1.1230455 -0.0013125884 0)
(1.1226862 -0.0012246113 0)
(1.1223509 -0.0011426622 0)
(1.1220381 -0.0010663067 0)
(1.1217462 -0.00099514494 0)
(1.1214739 -0.00092880854 0)
(1.1212198 -0.00086695777 0)
(1.1209827 -0.00080927955 0)
(1.1207614 -0.00075548456 0)
(1.1205549 -0.00070530534 0)
(1.1203621 -0.00065849378 0)
(1.1201822 -0.00061481906 0)
(1.1200142 -0.00057406646 0)
(1.1198574 -0.00053603554 0)
(1.1197111 -0.00050054 0)
(1.1195745 -0.00046740684 0)
(1.1194469 -0.00043647567 0)
(1.1193279 -0.00040759851 0)
(1.1192167 -0.00038063788 0)
(1.1191129 -0.00035546595 0)
(1.119016 -0.00033196297 0)
(1.1189256 -0.0003100154 0)
(1.1188411 -0.00028951658 0)
(1.1187622 -0.0002703649 0)
(1.1186885 -0.00025246606 0)
(1.1186198 -0.00023573162 0)
(1.1185556 -0.00022008095 0)
(1.1184957 -0.00020543866 0)
(1.1184398 -0.0001917367 0)
(1.1183876 -0.000178908 0)
(1.1183389 -0.00016689348 0)
(1.1182934 -0.00015562926 0)
(1.118251 -0.00014506452 0)
(1.1182115 -0.00013513737 0)
(1.1181746 -0.0001258107 0)
(1.1181404 -0.00011702391 0)
(1.1181084 -0.00010876276 0)
(1.1180787 -0.00010095848 0)
(1.1180511 -9.363104e-05 0)
(1.1180255 -8.6679557e-05 0)
(1.1180015 -8.0181796e-05 0)
(1.1179796 -7.3962247e-05 0)
(1.117959 -6.8215097e-05 0)
(1.1179404 -6.2610377e-05 0)
(1.1179228 -5.7584328e-05 0)
(1.117907 -5.2480509e-05 0)
(1.1178922 -4.8227164e-05 0)
(1.1178787 -4.3477967e-05 0)
(1.1178668 -4.0167477e-05 0)
(1.1178545 -3.5551501e-05 0)
(1.1178469 -3.3590389e-05 0)
(1.117833 -2.8849008e-05 0)
(1.0016583 -0.053819431 0)
(1.0359761 -0.10128444 0)
(1.0597199 -0.11073663 0)
(1.0628947 -0.10592202 0)
(1.0515569 -0.096228727 0)
(1.0340529 -0.08393406 0)
(1.0142795 -0.070327062 0)
(0.99360703 -0.056981333 0)
(0.97292576 -0.04510748 0)
(0.95310739 -0.035236751 0)
(0.93479538 -0.027401652 0)
(0.91829011 -0.021387228 0)
(0.90362379 -0.016884499 0)
(0.89068068 -0.013569708 0)
(0.87928175 -0.011147747 0)
(0.86923242 -0.0093736575 0)
(0.86034424 -0.0080569271 0)
(0.85244667 -0.007057127 0)
(0.84539241 -0.0062752387 0)
(0.83905792 -0.0056438294 0)
(0.83334126 -0.0051180921 0)
(0.82815883 -0.0046686731 0)
(0.82344212 -0.0042764176 0)
(0.81913467 -0.0039287382 0)
(0.81518962 -0.0036172023 0)
(0.81156766 -0.0033359689 0)
(0.80823544 -0.0030808025 0)
(0.8051644 -0.0028484679 0)
(0.80232979 -0.0026363689 0)
(0.79970999 -0.0024423389 0)
(0.79728597 -0.0022645196 0)
(0.79504086 -0.0021012908 0)
(0.79295963 -0.001951226 0)
(0.79102881 -0.0018130631 0)
(0.78923628 -0.0016856829 0)
(0.78757111 -0.0015680912 0)
(0.78602339 -0.0014594042 0)
(0.78458412 -0.0013588345 0)
(0.78324512 -0.0012656797 0)
(0.78199889 -0.0011793117 0)
(0.7808386 -0.0010991678 0)
(0.77975798 -0.0010247422 0)
(0.77875128 -0.00095557931 0)
(0.77781318 -0.00089126792 0)
(0.77693882 -0.0008314357 0)
(0.77612369 -0.00077574453 0)
(0.77536364 -0.00072388655 0)
(0.77465482 -0.00067558047 0)
(0.77399369 -0.00063056835 0)
(0.77337694 -0.00058861327 0)
(0.77280153 -0.00054949695 0)
(0.77226464 -0.00051301833 0)
(0.77176363 -0.00047899214 0)
(0.77129607 -0.00044724753 0)
(0.77085969 -0.00041762723 0)
(0.77045237 -0.00038998591 0)
(0.77007214 -0.00036418919 0)
(0.7697172 -0.00034011225 0)
(0.76938582 -0.00031763861 0)
(0.76907645 -0.00029665959 0)
(0.76878759 -0.00027707335 0)
(0.7685179 -0.00025878503 0)
(0.76826609 -0.00024170658 0)
(0.76803096 -0.00022575648 0)
(0.7678114 -0.00021085988 0)
(0.76760638 -0.00019694744 0)
(0.76741491 -0.00018395476 0)
(0.76723611 -0.00017182129 0)
(0.76706912 -0.00016048923 0)
(0.76691318 -0.00014990365 0)
(0.76676756 -0.00014001209 0)
(0.76663159 -0.00013076531 0)
(0.76650463 -0.00012211808 0)
(0.7663861 -0.00011402859 0)
(0.76627544 -0.00010645959 0)
(0.76617214 -9.9375982e-05 0)
(0.76607571 -9.2745594e-05 0)
(0.76598572 -8.6536285e-05 0)
(0.76590176 -8.0718027e-05 0)
(0.76582347 -7.5259347e-05 0)
(0.76575049 -7.0133909e-05 0)
(0.76568253 -6.5312223e-05 0)
(0.76561925 -6.0776423e-05 0)
(0.7655604 -5.6499739e-05 0)
(0.76550567 -5.2475677e-05 0)
(0.76545487 -4.867486e-05 0)
(0.76540771 -4.5103571e-05 0)
(0.76536405 -4.1718862e-05 0)
(0.76532361 -3.8547461e-05 0)
(0.76528636 -3.5519761e-05 0)
(0.76525193 -3.2704621e-05 0)
(0.7652204 -2.9985923e-05 0)
(0.76519133 -2.7510236e-05 0)
(0.76516481 -2.5070427e-05 0)
(0.76514057 -2.2944401e-05 0)
(0.76511823 -2.0752449e-05 0)
(0.76509876 -1.9018679e-05 0)
(0.76507901 -1.7057562e-05 0)
(0.7650658 -1.5908274e-05 0)
(0.76504406 -1.4305196e-05 0)
(0.91890839 -0.035821913 0)
(0.86271384 -0.062195638 0)
(0.7870597 -0.06251009 0)
(0.69536033 -0.054550395 0)
(0.61089745 -0.044531651 0)
(0.54411592 -0.034015971 0)
(0.49343012 -0.024187539 0)
(0.45479413 -0.01614423 0)
(0.42544582 -0.010265786 0)
(0.40347313 -0.0063041458 0)
(0.38715766 -0.0037976301 0)
(0.3749622 -0.0023103386 0)
(0.36566193 -0.001493015 0)
(0.35836273 -0.0010851179 0)
(0.35244268 -0.00090607172 0)
(0.34748201 -0.0008410511 0)
(0.34320348 -0.00082372369 0)
(0.33942726 -0.00081931031 0)
(0.33603793 -0.00081185225 0)
(0.33296114 -0.00079580177 0)
(0.33014778 -0.0007708121 0)
(0.32756384 -0.00073871 0)
(0.3251842 -0.00070188953 0)
(0.32298902 -0.00066256549 0)
(0.32096172 -0.00062249907 0)
(0.31908785 -0.00058295679 0)
(0.31735449 -0.00054477099 0)
(0.31574995 -0.00050843385 0)
(0.3142636 -0.00047419167 0)
(0.31288574 -0.00044212505 0)
(0.31160755 -0.00041221009 0)
(0.31042101 -0.00038436221 0)
(0.30931883 -0.00035846526 0)
(0.30829438 -0.00033439015 0)
(0.30734165 -0.00031200609 0)
(0.30645516 -0.00029118674 0)
(0.30562991 -0.00027181341 0)
(0.30486137 -0.00025377623 0)
(0.30414535 -0.0002369743 0)
(0.30347806 -0.00022131536 0)
(0.302856 -0.00020671507 0)
(0.30227596 -0.00019309644 0)
(0.30173496 -0.00018038911 0)
(0.30123029 -0.0001685287 0)
(0.30075943 -0.00015745627 0)
(0.30032003 -0.00014711757 0)
(0.29990994 -0.00013746262 0)
(0.29952716 -0.00012844509 0)
(0.29916983 -0.00012002192 0)
(0.29883624 -0.00011215303 0)
(0.29852478 -0.000104801 0)
(0.29823396 -9.7931142e-05 0)
(0.29796241 -9.1511247e-05 0)
(0.29770883 -8.5511523e-05 0)
(0.29747202 -7.9904537e-05 0)
(0.29725086 -7.4664767e-05 0)
(0.2970443 -6.9768551e-05 0)
(0.29685138 -6.5193636e-05 0)
(0.2966712 -6.0918949e-05 0)
(0.2965029 -5.6924643e-05 0)
(0.29634571 -5.319179e-05 0)
(0.29619888 -4.9702828e-05 0)
(0.29606174 -4.6441443e-05 0)
(0.29593365 -4.3392717e-05 0)
(0.295814 -4.0543202e-05 0)
(0.29570223 -3.7880433e-05 0)
(0.29559782 -3.5392849e-05 0)
(0.29550029 -3.3069345e-05 0)
(0.29540918 -3.089886e-05 0)
(0.29532407 -2.8870845e-05 0)
(0.29524458 -2.6974746e-05 0)
(0.29517033 -2.5201061e-05 0)
(0.295101 -2.3541012e-05 0)
(0.29503624 -2.1987051e-05 0)
(0.29497577 -2.0532586e-05 0)
(0.29491929 -1.9171632e-05 0)
(0.29486657 -1.7898357e-05 0)
(0.29481734 -1.6706898e-05 0)
(0.29477141 -1.5590897e-05 0)
(0.29472856 -1.4544024e-05 0)
(0.29468862 -1.3560271e-05 0)
(0.29465139 -1.2633856e-05 0)
(0.29461673 -1.1761227e-05 0)
(0.29458447 -1.0937745e-05 0)
(0.29455447 -1.016292e-05 0)
(0.2945266 -9.4314844e-06 0)
(0.29450073 -8.7452391e-06 0)
(0.29447676 -8.0950127e-06 0)
(0.29445458 -7.4862124e-06 0)
(0.29443411 -6.9036637e-06 0)
(0.29441521 -6.3619464e-06 0)
(0.29439786 -5.8379043e-06 0)
(0.2943819 -5.3611453e-06 0)
(0.2943673 -4.8945759e-06 0)
(0.29435393 -4.4839477e-06 0)
(0.29434172 -4.08009e-06 0)
(0.29433073 -3.737611e-06 0)
(0.29432032 -3.4426371e-06 0)
(0.29431186 -3.2071624e-06 0)
(0.29430072 -3.3012262e-06 0)
)
;

boundaryField
{
    top
    {
        type            fixedValue;
        value           uniform (0 0 0);
    }
    inlet
    {
        type            fixedValue;
        value           uniform (1 0 0);
    }
    outlet
    {
        type            zeroGradient;
    }
    bottom
    {
        type            fixedValue;
        value           uniform (0 0 0);
    }
    back
    {
        type            empty;
    }
    front
    {
        type            empty;
    }
}


// ************************************************************************* //
