/*--------------------------------*- C++ -*----------------------------------*\
| =========                 |                                                 |
| \\      /  F ield         | OpenFOAM: The Open Source CFD Toolbox           |
|  \\    /   O peration     | Version:  v1812                                 |
|   \\  /    A nd           | Web:      www.OpenFOAM.com                      |
|    \\/     M anipulation  |                                                 |
\*---------------------------------------------------------------------------*/
FoamFile
{
    version     2.0;
    format      ascii;
    class       volScalarField;
    location    "1";
    object      p;
}
// * * * * * * * * * * * * * * * * * * * * * * * * * * * * * * * * * * * * * //

dimensions      [0 2 -2 0 0 0 0];


internalField   nonuniform List<scalar> 
1000
(
1.5144102
1.4984094
1.4831071
1.4678447
1.452578
1.437337
1.4221098
1.4068896
1.3916745
1.3764625
1.3612519
1.3460419
1.3308322
1.3156226
1.3004131
1.2852037
1.2699942
1.2547847
1.2395752
1.2243658
1.2091563
1.1939468
1.1787373
1.1635278
1.1483183
1.1331088
1.1178993
1.1026898
1.0874803
1.0722708
1.0570613
1.0418517
1.0266422
1.0114327
0.99622321
0.9810137
0.96580419
0.95059468
0.93538517
0.92017566
0.90496616
0.88975665
0.87454714
0.85933764
0.84412813
0.82891862
0.81370911
0.7984996
0.78329009
0.76808058
0.75287106
0.73766155
0.72245203
0.70724252
0.69203301
0.67682349
0.66161398
0.64640447
0.63119496
0.61598546
0.60077595
0.58556644
0.57035694
0.55514744
0.53993793
0.52472843
0.50951892
0.49430942
0.47909991
0.4638904
0.44868089
0.43347138
0.41826187
0.40305236
0.38784284
0.37263333
0.35742381
0.34221429
0.32700478
0.31179526
0.29658574
0.28137623
0.26616671
0.25095719
0.23574768
0.22053817
0.20532866
0.19011915
0.17490964
0.15970013
0.14449062
0.12928112
0.11407161
0.098862108
0.083652604
0.068443108
0.053233637
0.038024103
0.022814331
0.0076046921
1.5141127
1.4980609
1.4829445
1.4677777
1.4525356
1.4373154
1.4221017
1.4068861
1.3916729
1.3764619
1.3612517
1.3460418
1.3308322
1.3156227
1.3004132
1.2852037
1.2699942
1.2547847
1.2395752
1.2243658
1.2091563
1.1939468
1.1787373
1.1635278
1.1483183
1.1331088
1.1178993
1.1026898
1.0874803
1.0722708
1.0570613
1.0418517
1.0266422
1.0114327
0.99622321
0.9810137
0.96580419
0.95059468
0.93538517
0.92017566
0.90496616
0.88975665
0.87454714
0.85933764
0.84412813
0.82891862
0.81370911
0.7984996
0.78329009
0.76808058
0.75287106
0.73766155
0.72245203
0.70724252
0.69203301
0.67682349
0.66161398
0.64640447
0.63119496
0.61598546
0.60077595
0.58556644
0.57035694
0.55514744
0.53993793
0.52472843
0.50951892
0.49430942
0.47909991
0.4638904
0.44868089
0.43347138
0.41826187
0.40305236
0.38784284
0.37263333
0.35742381
0.34221429
0.32700478
0.31179526
0.29658574
0.28137622
0.26616671
0.25095719
0.23574768
0.22053817
0.20532866
0.19011915
0.17490964
0.15970013
0.14449062
0.12928112
0.11407161
0.098862106
0.0836526
0.068443097
0.053233631
0.038024138
0.022814378
0.0076047226
1.5138976
1.4978109
1.4828315
1.4677224
1.4525017
1.4372967
1.4220917
1.4068807
1.39167
1.3764605
1.361251
1.3460415
1.330832
1.3156226
1.3004131
1.2852037
1.2699942
1.2547847
1.2395753
1.2243658
1.2091563
1.1939468
1.1787373
1.1635278
1.1483183
1.1331088
1.1178993
1.1026898
1.0874803
1.0722708
1.0570613
1.0418517
1.0266422
1.0114327
0.99622321
0.9810137
0.96580419
0.95059468
0.93538517
0.92017566
0.90496616
0.88975665
0.87454714
0.85933764
0.84412813
0.82891862
0.81370911
0.7984996
0.78329009
0.76808058
0.75287106
0.73766155
0.72245203
0.70724252
0.69203301
0.67682349
0.66161398
0.64640447
0.63119496
0.61598546
0.60077595
0.58556644
0.57035694
0.55514744
0.53993793
0.52472843
0.50951892
0.49430942
0.47909991
0.4638904
0.44868089
0.43347138
0.41826187
0.40305236
0.38784284
0.37263333
0.35742381
0.34221429
0.32700478
0.31179526
0.29658574
0.28137622
0.26616671
0.25095719
0.23574768
0.22053817
0.20532866
0.19011915
0.17490964
0.15970013
0.14449062
0.12928112
0.11407161
0.098862106
0.0836526
0.068443094
0.053233636
0.038024177
0.022814383
0.0076047057
1.5137837
1.4976621
1.4827479
1.467677
1.4524736
1.4372798
1.4220819
1.4068748
1.391667
1.3764589
1.3612502
1.3460411
1.3308318
1.3156225
1.3004131
1.2852037
1.2699942
1.2547847
1.2395753
1.2243658
1.2091563
1.1939468
1.1787373
1.1635278
1.1483183
1.1331088
1.1178993
1.1026898
1.0874803
1.0722708
1.0570613
1.0418517
1.0266422
1.0114327
0.99622321
0.9810137
0.96580419
0.95059468
0.93538517
0.92017566
0.90496616
0.88975665
0.87454714
0.85933764
0.84412813
0.82891862
0.81370911
0.7984996
0.78329009
0.76808058
0.75287106
0.73766155
0.72245203
0.70724252
0.69203301
0.67682349
0.66161398
0.64640447
0.63119496
0.61598546
0.60077595
0.58556645
0.57035694
0.55514744
0.53993793
0.52472843
0.50951892
0.49430942
0.47909991
0.4638904
0.44868089
0.43347138
0.41826187
0.40305236
0.38784284
0.37263333
0.35742381
0.34221429
0.32700478
0.31179526
0.29658574
0.28137622
0.26616671
0.25095719
0.23574768
0.22053817
0.20532866
0.19011915
0.17490964
0.15970013
0.14449062
0.12928112
0.11407161
0.098862106
0.083652601
0.068443096
0.053233639
0.038024195
0.022814389
0.0076047007
1.5137377
1.4975973
1.4827058
1.4676522
1.452458
1.4372702
1.4220762
1.4068715
1.391665
1.3764579
1.3612497
1.3460408
1.3308317
1.3156224
1.3004131
1.2852037
1.2699942
1.2547847
1.2395753
1.2243658
1.2091563
1.1939468
1.1787373
1.1635278
1.1483183
1.1331088
1.1178993
1.1026898
1.0874803
1.0722708
1.0570613
1.0418517
1.0266422
1.0114327
0.99622321
0.9810137
0.96580419
0.95059468
0.93538517
0.92017566
0.90496616
0.88975665
0.87454714
0.85933764
0.84412813
0.82891862
0.81370911
0.7984996
0.78329009
0.76808058
0.75287106
0.73766155
0.72245203
0.70724252
0.69203301
0.67682349
0.66161398
0.64640447
0.63119496
0.61598546
0.60077595
0.58556645
0.57035694
0.55514744
0.53993793
0.52472843
0.50951892
0.49430942
0.47909991
0.4638904
0.44868089
0.43347138
0.41826187
0.40305236
0.38784284
0.37263333
0.35742381
0.34221429
0.32700477
0.31179526
0.29658574
0.28137622
0.26616671
0.25095719
0.23574768
0.22053817
0.20532866
0.19011915
0.17490964
0.15970013
0.14449062
0.12928112
0.11407161
0.098862107
0.083652602
0.068443096
0.053233641
0.038024202
0.022814393
0.0076046994
1.5137378
1.4975976
1.482706
1.4676524
1.452458
1.4372702
1.4220762
1.4068715
1.391665
1.3764579
1.3612497
1.3460408
1.3308317
1.3156224
1.3004131
1.2852037
1.2699942
1.2547847
1.2395753
1.2243658
1.2091563
1.1939468
1.1787373
1.1635278
1.1483183
1.1331088
1.1178993
1.1026898
1.0874803
1.0722708
1.0570613
1.0418517
1.0266422
1.0114327
0.99622321
0.9810137
0.96580419
0.95059468
0.93538517
0.92017566
0.90496616
0.88975665
0.87454714
0.85933764
0.84412813
0.82891862
0.81370911
0.7984996
0.78329009
0.76808057
0.75287106
0.73766155
0.72245203
0.70724252
0.69203301
0.67682349
0.66161398
0.64640447
0.63119496
0.61598546
0.60077595
0.58556645
0.57035694
0.55514744
0.53993793
0.52472843
0.50951892
0.49430942
0.47909991
0.4638904
0.44868089
0.43347138
0.41826187
0.40305236
0.38784284
0.37263332
0.35742381
0.34221429
0.32700477
0.31179526
0.29658574
0.28137622
0.26616671
0.25095719
0.23574768
0.22053817
0.20532866
0.19011915
0.17490964
0.15970013
0.14449062
0.12928112
0.11407161
0.098862107
0.083652602
0.068443097
0.053233641
0.038024202
0.022814393
0.0076046995
1.513784
1.4976626
1.4827485
1.4676772
1.4524736
1.4372798
1.4220818
1.4068748
1.391667
1.3764589
1.3612502
1.3460411
1.3308319
1.3156225
1.3004131
1.2852037
1.2699942
1.2547847
1.2395753
1.2243658
1.2091563
1.1939468
1.1787373
1.1635278
1.1483183
1.1331088
1.1178993
1.1026898
1.0874803
1.0722708
1.0570613
1.0418517
1.0266422
1.0114327
0.99622321
0.9810137
0.96580419
0.95059468
0.93538517
0.92017566
0.90496616
0.88975665
0.87454714
0.85933764
0.84412813
0.82891862
0.81370911
0.7984996
0.78329009
0.76808057
0.75287106
0.73766155
0.72245203
0.70724252
0.69203301
0.67682349
0.66161398
0.64640447
0.63119497
0.61598546
0.60077595
0.58556645
0.57035694
0.55514744
0.53993793
0.52472843
0.50951892
0.49430942
0.47909991
0.4638904
0.44868089
0.43347138
0.41826187
0.40305235
0.38784284
0.37263332
0.35742381
0.34221429
0.32700477
0.31179526
0.29658574
0.28137622
0.26616671
0.25095719
0.23574768
0.22053817
0.20532866
0.19011915
0.17490964
0.15970013
0.14449062
0.12928112
0.11407161
0.098862107
0.083652602
0.068443096
0.053233639
0.038024195
0.022814389
0.0076047007
1.5138974
1.497811
1.4828312
1.4677221
1.4525013
1.4372963
1.4220915
1.4068805
1.39167
1.3764605
1.361251
1.3460416
1.3308321
1.3156226
1.3004132
1.2852037
1.2699942
1.2547848
1.2395753
1.2243658
1.2091563
1.1939468
1.1787373
1.1635278
1.1483183
1.1331088
1.1178993
1.1026898
1.0874803
1.0722708
1.0570613
1.0418517
1.0266422
1.0114327
0.99622321
0.9810137
0.96580419
0.95059468
0.93538517
0.92017567
0.90496616
0.88975665
0.87454714
0.85933764
0.84412813
0.82891862
0.81370911
0.7984996
0.78329009
0.76808057
0.75287106
0.73766155
0.72245203
0.70724252
0.69203301
0.67682349
0.66161398
0.64640447
0.63119497
0.61598546
0.60077595
0.58556645
0.57035694
0.55514744
0.53993793
0.52472843
0.50951892
0.49430942
0.47909991
0.4638904
0.44868089
0.43347138
0.41826187
0.40305235
0.38784284
0.37263332
0.35742381
0.34221429
0.32700477
0.31179526
0.29658574
0.28137622
0.26616671
0.2509572
0.23574768
0.22053817
0.20532866
0.19011915
0.17490964
0.15970013
0.14449062
0.12928112
0.11407161
0.098862107
0.083652601
0.068443095
0.053233636
0.038024177
0.022814384
0.0076047058
1.5141125
1.4980599
1.4829435
1.4677768
1.4525349
1.4373149
1.4221014
1.4068859
1.3916728
1.3764619
1.3612517
1.3460419
1.3308322
1.3156227
1.3004132
1.2852037
1.2699942
1.2547848
1.2395753
1.2243658
1.2091563
1.1939468
1.1787373
1.1635278
1.1483183
1.1331088
1.1178993
1.1026898
1.0874803
1.0722708
1.0570613
1.0418517
1.0266422
1.0114327
0.99622321
0.9810137
0.96580419
0.95059468
0.93538517
0.92017567
0.90496616
0.88975665
0.87454714
0.85933764
0.84412813
0.82891862
0.81370911
0.7984996
0.78329009
0.76808057
0.75287106
0.73766155
0.72245203
0.70724252
0.69203301
0.67682349
0.66161398
0.64640447
0.63119497
0.61598546
0.60077595
0.58556645
0.57035694
0.55514744
0.53993793
0.52472843
0.50951892
0.49430942
0.47909991
0.4638904
0.44868089
0.43347138
0.41826187
0.40305235
0.38784284
0.37263332
0.35742381
0.34221429
0.32700477
0.31179526
0.29658574
0.28137622
0.26616671
0.2509572
0.23574768
0.22053817
0.20532866
0.19011915
0.17490964
0.15970013
0.14449062
0.12928112
0.11407161
0.098862107
0.083652601
0.068443098
0.053233631
0.038024138
0.022814379
0.0076047229
1.5144101
1.4984084
1.483106
1.467844
1.4525774
1.4373365
1.4221095
1.4068894
1.3916744
1.3764625
1.3612519
1.3460419
1.3308322
1.3156227
1.3004132
1.2852037
1.2699942
1.2547847
1.2395753
1.2243658
1.2091563
1.1939468
1.1787373
1.1635278
1.1483183
1.1331088
1.1178993
1.1026898
1.0874803
1.0722708
1.0570613
1.0418517
1.0266422
1.0114327
0.99622321
0.9810137
0.96580419
0.95059468
0.93538517
0.92017567
0.90496616
0.88975665
0.87454714
0.85933764
0.84412813
0.82891862
0.81370911
0.7984996
0.78329009
0.76808057
0.75287106
0.73766155
0.72245203
0.70724252
0.69203301
0.6768235
0.66161398
0.64640448
0.63119497
0.61598546
0.60077595
0.58556645
0.57035694
0.55514744
0.53993793
0.52472843
0.50951892
0.49430942
0.47909991
0.4638904
0.44868089
0.43347138
0.41826187
0.40305235
0.38784284
0.37263332
0.35742381
0.34221429
0.32700477
0.31179526
0.29658574
0.28137623
0.26616671
0.2509572
0.23574768
0.22053817
0.20532866
0.19011915
0.17490964
0.15970013
0.14449062
0.12928112
0.11407161
0.098862109
0.083652606
0.068443109
0.053233638
0.038024104
0.022814332
0.0076046925
)
;

boundaryField
{
    top
    {
        type            zeroGradient;
    }
    inlet
    {
        type            fixedValue;
        value           uniform 1.523;
    }
    outlet
    {
        type            fixedValue;
        value           uniform 0;
    }
    bottom
    {
        type            zeroGradient;
    }
    back
    {
        type            empty;
    }
    front
    {
        type            empty;
    }
}


// ************************************************************************* //
