/*--------------------------------*- C++ -*----------------------------------*\
| =========                 |                                                 |
| \\      /  F ield         | OpenFOAM: The Open Source CFD Toolbox           |
|  \\    /   O peration     | Version:  v1812                                 |
|   \\  /    A nd           | Web:      www.OpenFOAM.com                      |
|    \\/     M anipulation  |                                                 |
\*---------------------------------------------------------------------------*/
FoamFile
{
    version     2.0;
    format      ascii;
    class       volVectorField;
    location    "10";
    object      U;
}
// * * * * * * * * * * * * * * * * * * * * * * * * * * * * * * * * * * * * * //

dimensions      [0 1 -1 0 0 0 0];


internalField   nonuniform List<vector> 
1000
(
(0.27159168 0.00027506818 0)
(0.27099535 0.0007757054 0)
(0.2696904 0.00082908703 0)
(0.26841645 0.00061966855 0)
(0.26741969 0.00040124892 0)
(0.26667048 0.00026802787 0)
(0.26608091 0.00020141931 0)
(0.26559095 0.00016325445 0)
(0.26517362 0.00013412537 0)
(0.26481709 0.00011023762 0)
(0.26451224 9.2094391e-05 0)
(0.26424953 7.9154915e-05 0)
(0.26402026 6.9757145e-05 0)
(0.26381779 6.2347938e-05 0)
(0.26363755 5.604768e-05 0)
(0.26347634 5.0510995e-05 0)
(0.26333168 4.5613614e-05 0)
(0.26320155 4.1267508e-05 0)
(0.26308426 3.7381915e-05 0)
(0.26297836 3.3878002e-05 0)
(0.26288265 3.0700131e-05 0)
(0.26279613 2.7810455e-05 0)
(0.26271789 2.5180512e-05 0)
(0.26264715 2.2785035e-05 0)
(0.26258322 2.0601251e-05 0)
(0.26252548 1.8608524e-05 0)
(0.26247337 1.678906e-05 0)
(0.2624264 1.5127014e-05 0)
(0.2623841 1.3608563e-05 0)
(0.26234608 1.222108e-05 0)
(0.26231195 1.0953397e-05 0)
(0.26228138 9.795238e-06 0)
(0.26225405 8.7375054e-06 0)
(0.26222968 7.7718006e-06 0)
(0.26220802 6.8906829e-06 0)
(0.26218881 6.087298e-06 0)
(0.26217185 5.3556176e-06 0)
(0.26215694 4.6901425e-06 0)
(0.26214388 4.0860902e-06 0)
(0.2621325 3.5391529e-06 0)
(0.26212265 3.0456004e-06 0)
(0.26211417 2.6020638e-06 0)
(0.26210692 2.2055536e-06 0)
(0.26210079 1.8532869e-06 0)
(0.26209563 1.5426347e-06 0)
(0.26209134 1.2710068e-06 0)
(0.26208781 1.0357745e-06 0)
(0.26208493 8.3425119e-07 0)
(0.26208261 6.6361542e-07 0)
(0.26208077 5.2098775e-07 0)
(0.26207933 4.0337193e-07 0)
(0.26207822 3.0781421e-07 0)
(0.26207737 2.3133956e-07 0)
(0.26207673 1.7115126e-07 0)
(0.26207626 1.2454131e-07 0)
(0.26207592 8.9095353e-08 0)
(0.26207568 6.2575901e-08 0)
(0.26207552 4.3131154e-08 0)
(0.2620754 2.9108203e-08 0)
(0.26207532 1.9236151e-08 0)
(0.26207528 1.2396287e-08 0)
(0.26207524 7.801357e-09 0)
(0.26207523 4.7506034e-09 0)
(0.26207521 2.8167582e-09 0)
(0.26207521 1.5887466e-09 0)
(0.2620752 8.7141407e-10 0)
(0.2620752 4.3003925e-10 0)
(0.2620752 2.0935168e-10 0)
(0.2620752 6.7435619e-11 0)
(0.2620752 1.9188878e-11 0)
(0.2620752 -2.2509424e-11 0)
(0.2620752 -1.5964346e-11 0)
(0.2620752 -2.8675108e-11 0)
(0.2620752 -7.7495703e-12 0)
(0.2620752 -1.5221792e-11 0)
(0.2620752 8.5899201e-12 0)
(0.2620752 1.3331866e-12 0)
(0.2620752 2.5341039e-11 0)
(0.2620752 1.5832864e-11 0)
(0.2620752 3.7236113e-11 0)
(0.2620752 2.7842222e-11 0)
(0.2620752 4.7135463e-11 0)
(0.2620752 3.5494317e-11 0)
(0.2620752 5.1765404e-11 0)
(0.2620752 4.0528362e-11 0)
(0.2620752 5.4249869e-11 0)
(0.2620752 4.2161126e-11 0)
(0.2620752 5.3319878e-11 0)
(0.2620752 4.7394134e-11 0)
(0.2620752 6.1754595e-11 0)
(0.2620752 7.4144394e-11 0)
(0.2620752 1.05185e-10 0)
(0.2620752 1.7589795e-10 0)
(0.2620752 2.811169e-10 0)
(0.2620752 5.4710122e-10 0)
(0.2620752 9.1586921e-10 0)
(0.2620752 1.6794444e-09 0)
(0.26207519 2.6394384e-09 0)
(0.26207518 4.7684469e-09 0)
(0.26207518 6.3091974e-09 0)
(0.65700153 0.00033091886 0)
(0.65753021 0.0013826914 0)
(0.65670288 0.0018779158 0)
(0.65560958 0.0017873981 0)
(0.65467698 0.0014676383 0)
(0.65389587 0.0011752065 0)
(0.65318258 0.00097279542 0)
(0.6525076 0.00083015777 0)
(0.65188017 0.00071389664 0)
(0.65131251 0.00061248096 0)
(0.65080624 0.00052639902 0)
(0.65035531 0.00045640164 0)
(0.64995199 0.0004001998 0)
(0.64958983 0.00035418654 0)
(0.64926396 0.00031538408 0)
(0.64897044 0.00028196411 0)
(0.64870578 0.0002528728 0)
(0.64846683 0.00022738214 0)
(0.64825083 0.00020488802 0)
(0.64805541 0.00018488397 0)
(0.6478785 0.0001669729 0)
(0.64771834 0.0001508551 0)
(0.64757336 0.00013630032 0)
(0.64744215 0.00012312244 0)
(0.64732347 0.00011116568 0)
(0.64721619 0.00010029765 0)
(0.64711933 9.0405792e-05 0)
(0.64703195 8.1393499e-05 0)
(0.64695324 7.3177181e-05 0)
(0.64688245 6.568337e-05 0)
(0.64681889 5.8847152e-05 0)
(0.64676193 5.2610546e-05 0)
(0.646711 4.6921748e-05 0)
(0.64666557 4.1734086e-05 0)
(0.64662516 3.7005632e-05 0)
(0.64658933 3.2698535e-05 0)
(0.64655767 2.8778893e-05 0)
(0.64652981 2.5216315e-05 0)
(0.6465054 2.1983861e-05 0)
(0.64648411 1.9057649e-05 0)
(0.64646566 1.6416689e-05 0)
(0.64644976 1.404238e-05 0)
(0.64643615 1.1918163e-05 0)
(0.6464246 1.0028926e-05 0)
(0.64641488 8.3605365e-06 0)
(0.64640677 6.8992717e-06 0)
(0.64640007 5.6314235e-06 0)
(0.6463946 4.5429475e-06 0)
(0.64639019 3.6193038e-06 0)
(0.64638667 2.8454209e-06 0)
(0.6463839 2.2058178e-06 0)
(0.64638175 1.6848551e-06 0)
(0.64638011 1.2670268e-06 0)
(0.64637887 9.3733212e-07 0)
(0.64637796 6.8156771e-07 0)
(0.64637729 4.866618e-07 0)
(0.64637682 3.4084798e-07 0)
(0.64637648 2.3386792e-07 0)
(0.64637626 1.5694325e-07 0)
(0.6463761 1.0282484e-07 0)
(0.646376 6.5597029e-08 0)
(0.64637594 4.0627642e-08 0)
(0.6463759 2.4304354e-08 0)
(0.64637588 1.3963022e-08 0)
(0.64637587 7.6129113e-09 0)
(0.64637586 3.8814715e-09 0)
(0.64637586 1.7759938e-09 0)
(0.64637586 6.7466968e-10 0)
(0.64637586 1.3409752e-10 0)
(0.64637586 -9.2633165e-11 0)
(0.64637586 -1.6800445e-10 0)
(0.64637586 -1.537832e-10 0)
(0.64637586 -1.2495231e-10 0)
(0.64637586 -7.8259797e-11 0)
(0.64637586 -4.9443481e-11 0)
(0.64637586 -1.2679162e-11 0)
(0.64637586 7.636562e-12 0)
(0.64637586 3.644111e-11 0)
(0.64637586 5.1295029e-11 0)
(0.64637586 7.647288e-11 0)
(0.64637586 9.0224682e-11 0)
(0.64637586 1.1443245e-10 0)
(0.64637586 1.2565998e-10 0)
(0.64637586 1.4295864e-10 0)
(0.64637586 1.5504012e-10 0)
(0.64637586 1.6684553e-10 0)
(0.64637586 1.8030009e-10 0)
(0.64637586 1.8297327e-10 0)
(0.64637586 2.134546e-10 0)
(0.64637586 2.1834383e-10 0)
(0.64637586 2.9810883e-10 0)
(0.64637586 3.3182341e-10 0)
(0.64637585 5.5292347e-10 0)
(0.64637585 7.3833415e-10 0)
(0.64637585 1.3577974e-09 0)
(0.64637585 2.0381117e-09 0)
(0.64637585 3.5932953e-09 0)
(0.64637585 5.4092125e-09 0)
(0.64637584 8.8413671e-09 0)
(0.64637585 1.2624608e-08 0)
(0.91421472 0.00026174987 0)
(0.91572241 0.0012973607 0)
(0.91565878 0.0019709995 0)
(0.91531535 0.0020931096 0)
(0.91519231 0.0019093626 0)
(0.91520993 0.001675355 0)
(0.91519994 0.0014910474 0)
(0.91510511 0.0013488528 0)
(0.91495208 0.0012205584 0)
(0.91478029 0.0010957456 0)
(0.91461006 0.00097833404 0)
(0.91444561 0.00087365466 0)
(0.91428623 0.00078279192 0)
(0.91413217 0.0007037489 0)
(0.91398499 0.0006340615 0)
(0.91384615 0.00057201908 0)
(0.91371635 0.00051658757 0)
(0.9135956 0.00046699956 0)
(0.91348364 0.00042253995 0)
(0.91338011 0.0003825391 0)
(0.91328464 0.00034641914 0)
(0.91319685 0.00031370798 0)
(0.91311631 0.00028401997 0)
(0.91304256 0.00025703088 0)
(0.91297517 0.00023246115 0)
(0.9129137 0.00021006793 0)
(0.91285773 0.00018963986 0)
(0.91280688 0.00017099261 0)
(0.91276075 0.00015396414 0)
(0.91271899 0.00013841085 0)
(0.91268126 0.00012420451 0)
(0.91264725 0.00011123002 0)
(0.91261666 9.9383586e-05 0)
(0.9125892 8.8571333e-05 0)
(0.91256463 7.8708138e-05 0)
(0.91254269 6.9716826e-05 0)
(0.91252317 6.1527509e-05 0)
(0.91250586 5.4077151e-05 0)
(0.91249056 4.730918e-05 0)
(0.9124771 4.1173122e-05 0)
(0.91246531 3.5624175e-05 0)
(0.91245503 3.0622627e-05 0)
(0.91244613 2.6133184e-05 0)
(0.91243846 2.2124065e-05 0)
(0.91243191 1.8566103e-05 0)
(0.91242635 1.5431676e-05 0)
(0.91242168 1.2693855e-05 0)
(0.91241779 1.0325532e-05 0)
(0.91241458 8.2989623e-06 0)
(0.91241196 6.5853956e-06 0)
(0.91240986 5.1551901e-06 0)
(0.91240818 3.978007e-06 0)
(0.91240687 3.0234018e-06 0)
(0.91240586 2.2613526e-06 0)
(0.91240508 1.6630283e-06 0)
(0.91240451 1.2013327e-06 0)
(0.91240408 8.5152216e-07 0)
(0.91240377 5.914821e-07 0)
(0.91240356 4.0203301e-07 0)
(0.91240341 2.6688677e-07 0)
(0.9124033 1.7263989e-07 0)
(0.91240323 1.0846108e-07 0)
(0.91240319 6.5901039e-08 0)
(0.91240316 3.8463823e-08 0)
(0.91240315 2.1359784e-08 0)
(0.91240314 1.1079433e-08 0)
(0.91240313 5.1940782e-09 0)
(0.91240313 2.0065715e-09 0)
(0.91240313 4.3693585e-10 0)
(0.91240313 -2.4703667e-10 0)
(0.91240313 -4.50605e-10 0)
(0.91240313 -4.4567036e-10 0)
(0.91240313 -3.4338429e-10 0)
(0.91240313 -2.376295e-10 0)
(0.91240313 -1.3447637e-10 0)
(0.91240313 -6.3492012e-11 0)
(0.91240313 2.2529805e-12 0)
(0.91240313 4.1315094e-11 0)
(0.91240313 8.4508417e-11 0)
(0.91240313 1.0655132e-10 0)
(0.91240313 1.433498e-10 0)
(0.91240313 1.6045932e-10 0)
(0.91240313 1.9607435e-10 0)
(0.91240313 2.0634651e-10 0)
(0.91240313 2.4596461e-10 0)
(0.91240313 2.493286e-10 0)
(0.91240313 2.9678366e-10 0)
(0.91240313 2.9104701e-10 0)
(0.91240313 3.6508059e-10 0)
(0.91240313 3.6361857e-10 0)
(0.91240313 5.0295402e-10 0)
(0.91240313 5.497863e-10 0)
(0.91240313 8.6496396e-10 0)
(0.91240313 1.1404919e-09 0)
(0.91240313 1.8789144e-09 0)
(0.91240313 2.7469856e-09 0)
(0.91240312 4.2934437e-09 0)
(0.91240313 6.4421437e-09 0)
(0.91240311 9.1916837e-09 0)
(0.91240314 1.2635992e-08 0)
(1.069866 0.00016101724 0)
(1.0719587 0.00087336068 0)
(1.0723173 0.0014013241 0)
(1.0724174 0.0015593287 0)
(1.0728677 0.0014795235 0)
(1.0735535 0.0013413034 0)
(1.0742204 0.0012284912 0)
(1.0747578 0.0011423017 0)
(1.0751827 0.0010620328 0)
(1.0755434 0.00097856275 0)
(1.0758673 0.00089495982 0)
(1.07616 0.00081661184 0)
(1.0764203 0.00074577303 0)
(1.0766496 0.0006818823 0)
(1.0768517 0.00062363204 0)
(1.0770312 0.00057012767 0)
(1.0771915 0.0005209377 0)
(1.077335 0.00047578537 0)
(1.0774636 0.00043436604 0)
(1.0775788 0.00039634377 0)
(1.0776822 0.00036140105 0)
(1.0777751 0.00032926623 0)
(1.0778587 0.0002997077 0)
(1.0779338 0.00027252128 0)
(1.0780013 0.00024752036 0)
(1.078062 0.0002245341 0)
(1.0781166 0.00020340587 0)
(1.0781655 0.0001839931 0)
(1.0782095 0.00016616486 0)
(1.0782488 0.0001498011 0)
(1.078284 0.0001347906 0)
(1.0783155 0.00012103085 0)
(1.0783435 0.00010842666 0)
(1.0783684 9.6890216e-05 0)
(1.0783904 8.6339959e-05 0)
(1.0784099 7.6700808e-05 0)
(1.0784271 6.7903385e-05 0)
(1.0784421 5.9884278e-05 0)
(1.0784553 5.2585508e-05 0)
(1.0784666 4.5954715e-05 0)
(1.0784765 3.9944649e-05 0)
(1.0784849 3.4513073e-05 0)
(1.078492 2.9622083e-05 0)
(1.078498 2.5237611e-05 0)
(1.078503 2.1328537e-05 0)
(1.0785072 1.7865867e-05 0)
(1.0785105 1.4821825e-05 0)
(1.0785132 1.2169008e-05 0)
(1.0785154 9.8797918e-06 0)
(1.0785171 7.9257856e-06 0)
(1.0785184 6.2778054e-06 0)
(1.0785194 4.9057922e-06 0)
(1.0785201 3.77936e-06 0)
(1.0785207 2.8680724e-06 0)
(1.078521 2.1423219e-06 0)
(1.0785213 1.5736869e-06 0)
(1.0785215 1.1358179e-06 0)
(1.0785216 8.0459603e-07 0)
(1.0785217 5.587881e-07 0)
(1.0785217 3.798703e-07 0)
(1.0785218 2.5238627e-07 0)
(1.0785218 1.6346295e-07 0)
(1.0785218 1.0294487e-07 0)
(1.0785218 6.2728732e-08 0)
(1.0785218 3.6805216e-08 0)
(1.0785218 2.0550887e-08 0)
(1.0785218 1.0784246e-08 0)
(1.0785218 5.1119103e-09 0)
(1.0785218 2.0578513e-09 0)
(1.0785218 4.9518116e-10 0)
(1.0785218 -1.5227646e-10 0)
(1.0785218 -3.9272502e-10 0)
(1.0785218 -3.6723198e-10 0)
(1.0785218 -3.0237372e-10 0)
(1.0785218 -1.6811668e-10 0)
(1.0785218 -9.1586062e-11 0)
(1.0785218 1.412501e-11 0)
(1.0785218 5.3897217e-11 0)
(1.0785218 1.2618628e-10 0)
(1.0785218 1.3836988e-10 0)
(1.0785218 1.9438691e-10 0)
(1.0785218 1.9160547e-10 0)
(1.0785218 2.4209532e-10 0)
(1.0785218 2.3113238e-10 0)
(1.0785218 2.8339247e-10 0)
(1.0785218 2.652991e-10 0)
(1.0785218 3.2756956e-10 0)
(1.0785218 3.0733664e-10 0)
(1.0785218 3.9418899e-10 0)
(1.0785218 3.8633066e-10 0)
(1.0785218 5.3172102e-10 0)
(1.0785218 5.8803188e-10 0)
(1.0785218 8.9233204e-10 0)
(1.0785218 1.1754203e-09 0)
(1.0785218 1.7935204e-09 0)
(1.0785218 2.5335688e-09 0)
(1.0785218 3.6243981e-09 0)
(1.0785218 5.2266484e-09 0)
(1.0785218 6.895597e-09 0)
(1.0785218 9.0362308e-09 0)
(1.1428457 5.3798925e-05 0)
(1.1452109 0.00030376119 0)
(1.1457398 0.00049895262 0)
(1.1460122 0.00056589522 0)
(1.1467108 0.00054460981 0)
(1.147716 0.00049896122 0)
(1.1487293 0.00046136617 0)
(1.1496066 0.00043344707 0)
(1.1503563 0.00040748105 0)
(1.1510294 0.00037965874 0)
(1.1516558 0.0003509553 0)
(1.15224 0.00032348183 0)
(1.1527785 0.00029824554 0)
(1.1532707 0.00027514807 0)
(1.1537202 0.00025376267 0)
(1.1541317 0.00023380546 0)
(1.1545089 0.00021517169 0)
(1.1548545 0.0001978164 0)
(1.155171 0.00018167905 0)
(1.1554603 0.00016667886 0)
(1.1557246 0.00015273457 0)
(1.1559659 0.00013977595 0)
(1.1561859 0.00012774288 0)
(1.1563863 0.00011658076 0)
(1.1565686 0.00010623741 0)
(1.1567342 9.6662672e-05 0)
(1.1568845 8.7808581e-05 0)
(1.1570206 7.9629658e-05 0)
(1.1571437 7.2082655e-05 0)
(1.1572548 6.5126458e-05 0)
(1.157355 5.8721873e-05 0)
(1.157445 5.2831692e-05 0)
(1.1575258 4.7420581e-05 0)
(1.1575981 4.2455169e-05 0)
(1.1576626 3.7903955e-05 0)
(1.1577201 3.373739e-05 0)
(1.157771 2.9927812e-05 0)
(1.157816 2.6449551e-05 0)
(1.1578557 2.3278871e-05 0)
(1.1578904 2.0394064e-05 0)
(1.1579207 1.7775337e-05 0)
(1.1579469 1.5404811e-05 0)
(1.1579695 1.3266308e-05 0)
(1.1579888 1.1345216e-05 0)
(1.1580052 9.6281507e-06 0)
(1.158019 8.1026911e-06 0)
(1.1580306 6.756988e-06 0)
(1.1580401 5.5794835e-06 0)
(1.1580478 4.5585952e-06 0)
(1.1580541 3.6825396e-06 0)
(1.1580591 2.9392068e-06 0)
(1.158063 2.3161734e-06 0)
(1.1580661 1.8008042e-06 0)
(1.1580684 1.3804272e-06 0)
(1.1580702 1.0425776e-06 0)
(1.1580715 7.752366e-07 0)
(1.1580725 5.671052e-07 0)
(1.1580731 4.0778701e-07 0)
(1.1580736 2.879718e-07 0)
(1.1580739 1.9949496e-07 0)
(1.1580742 1.3540394e-07 0)
(1.1580743 8.9891156e-08 0)
(1.1580744 5.8254642e-08 0)
(1.1580744 3.6739711e-08 0)
(1.1580745 2.2465151e-08 0)
(1.1580745 1.3232082e-08 0)
(1.1580745 7.4456469e-09 0)
(1.1580745 3.9319289e-09 0)
(1.1580745 1.8950045e-09 0)
(1.1580745 7.7056632e-10 0)
(1.1580745 2.1451916e-10 0)
(1.1580745 -3.2857539e-11 0)
(1.1580745 -1.0309111e-10 0)
(1.1580745 -9.4084032e-11 0)
(1.1580745 -3.948298e-11 0)
(1.1580745 1.6556375e-11 0)
(1.1580745 7.8088852e-11 0)
(1.1580745 1.2196948e-10 0)
(1.1580745 1.6738999e-10 0)
(1.1580745 1.9488628e-10 0)
(1.1580745 2.2152148e-10 0)
(1.1580745 2.3291793e-10 0)
(1.1580745 2.5072211e-10 0)
(1.1580745 2.5330917e-10 0)
(1.1580745 2.6496628e-10 0)
(1.1580745 2.6274608e-10 0)
(1.1580745 2.7951267e-10 0)
(1.1580745 2.814996e-10 0)
(1.1580745 3.111065e-10 0)
(1.1580745 3.304697e-10 0)
(1.1580745 4.012172e-10 0)
(1.1580745 4.7968625e-10 0)
(1.1580745 6.5534207e-10 0)
(1.1580745 8.5739594e-10 0)
(1.1580745 1.1627548e-09 0)
(1.1580745 1.493386e-09 0)
(1.1580745 1.9005652e-09 0)
(1.1580745 2.4662297e-09 0)
(1.1580745 2.9722312e-09 0)
(1.1580745 3.6517254e-09 0)
(1.1428456 -5.3798644e-05 0)
(1.1452108 -0.00030375688 0)
(1.1457398 -0.00049894671 0)
(1.1460122 -0.00056588803 0)
(1.1467108 -0.00054459909 0)
(1.147716 -0.00049894768 0)
(1.1487293 -0.0004613524 0)
(1.1496066 -0.00043343599 0)
(1.1503563 -0.00040747364 0)
(1.1510294 -0.00037965659 0)
(1.1516559 -0.00035095911 0)
(1.15224 -0.00032349323 0)
(1.1527785 -0.00029826457 0)
(1.1532707 -0.00027517467 0)
(1.1537202 -0.00025379539 0)
(1.1541317 -0.00023384346 0)
(1.1545089 -0.00021521331 0)
(1.1548545 -0.00019786079 0)
(1.1551709 -0.00018172455 0)
(1.1554603 -0.00016672459 0)
(1.1557246 -0.00015277903 0)
(1.1559658 -0.00013981849 0)
(1.1561858 -0.00012778236 0)
(1.1563862 -0.0001166168 0)
(1.1565685 -0.00010626924 0)
(1.1567341 -9.6690243e-05 0)
(1.1568844 -8.7831483e-05 0)
(1.1570205 -7.9648144e-05 0)
(1.1571436 -7.2096634e-05 0)
(1.1572548 -6.5136427e-05 0)
(1.1573549 -5.8727997e-05 0)
(1.1574449 -5.2834592e-05 0)
(1.1575257 -4.7420553e-05 0)
(1.157598 -4.2452849e-05 0)
(1.1576626 -3.7899631e-05 0)
(1.15772 -3.3731563e-05 0)
(1.157771 -2.9920651e-05 0)
(1.157816 -2.6441355e-05 0)
(1.1578556 -2.3269651e-05 0)
(1.1578903 -2.0383893e-05 0)
(1.1579206 -1.7764078e-05 0)
(1.1579469 -1.5392378e-05 0)
(1.1579695 -1.3252521e-05 0)
(1.1579888 -1.1329944e-05 0)
(1.1580052 -9.6112842e-06 0)
(1.158019 -8.0841713e-06 0)
(1.1580305 -6.7368853e-06 0)
(1.15804 -5.5578946e-06 0)
(1.1580478 -4.5357985e-06 0)
(1.1580541 -3.658784e-06 0)
(1.1580591 -2.9149445e-06 0)
(1.158063 -2.2917561e-06 0)
(1.1580661 -1.7767664e-06 0)
(1.1580684 -1.3571155e-06 0)
(1.1580702 -1.0204987e-06 0)
(1.1580715 -7.5464795e-07 0)
(1.1580724 -5.4839739e-07 0)
(1.1580731 -3.910487e-07 0)
(1.1580736 -2.7342408e-07 0)
(1.1580739 -1.8705062e-07 0)
(1.1580742 -1.2512187e-07 0)
(1.1580743 -8.1524007e-08 0)
(1.1580744 -5.1736782e-08 0)
(1.1580745 -3.1737559e-08 0)
(1.1580745 -1.886133e-08 0)
(1.1580745 -1.066078e-08 0)
(1.1580745 -5.7926099e-09 0)
(1.1580745 -2.8636982e-09 0)
(1.1580745 -1.3529563e-09 0)
(1.1580745 -4.6506201e-10 0)
(1.1580745 -1.4334782e-10 0)
(1.1580745 8.4843624e-11 0)
(1.1580745 7.9158405e-11 0)
(1.1580745 1.6589039e-10 0)
(1.1580745 1.12531e-10 0)
(1.1580745 1.9004654e-10 0)
(1.1580745 1.4109342e-10 0)
(1.1580745 2.275849e-10 0)
(1.1580745 1.8341262e-10 0)
(1.1580745 2.6267858e-10 0)
(1.1580745 2.0559363e-10 0)
(1.1580745 2.7527681e-10 0)
(1.1580745 2.0703869e-10 0)
(1.1580745 2.6578221e-10 0)
(1.1580745 1.8374769e-10 0)
(1.1580745 2.4534396e-10 0)
(1.1580745 1.5972416e-10 0)
(1.1580745 2.2906651e-10 0)
(1.1580745 1.4225816e-10 0)
(1.1580745 2.3245581e-10 0)
(1.1580745 1.6355118e-10 0)
(1.1580745 2.8582021e-10 0)
(1.1580745 2.2844978e-10 0)
(1.1580745 3.3246168e-10 0)
(1.1580745 1.8468944e-10 0)
(1.1580745 3.7142981e-11 0)
(1.1580745 -3.3283413e-10 0)
(1.1580745 -9.3016624e-10 0)
(1.1580745 -1.5786727e-09 0)
(1.1580746 -2.3383434e-09 0)
(1.0698661 -0.00016101756 0)
(1.0719588 -0.00087337034 0)
(1.0723173 -0.0014013387 0)
(1.0724174 -0.0015593391 0)
(1.0728678 -0.0014795257 0)
(1.0735535 -0.0013412987 0)
(1.0742205 -0.0012284837 0)
(1.0747578 -0.0011422942 0)
(1.0751827 -0.0010620275 0)
(1.0755434 -0.00097856044 0)
(1.0758673 -0.00089496232 0)
(1.07616 -0.00081661986 0)
(1.0764203 -0.00074578734 0)
(1.0766495 -0.00068190241 0)
(1.0768517 -0.00062365759 0)
(1.0770312 -0.00057015746 0)
(1.0771915 -0.00052097101 0)
(1.077335 -0.00047582087 0)
(1.0774635 -0.00043440289 0)
(1.0775787 -0.00039638066 0)
(1.0776822 -0.00036143726 0)
(1.077775 -0.00032930065 0)
(1.0778585 -0.00029973986 0)
(1.0779336 -0.00027255037 0)
(1.0780012 -0.00024754617 0)
(1.0780619 -0.00022455618 0)
(1.0781164 -0.00020342428 0)
(1.0781654 -0.00018400769 0)
(1.0782093 -0.00016617594 0)
(1.0782487 -0.00014980876 0)
(1.0782839 -0.00013479532 0)
(1.0783153 -0.00012103287 0)
(1.0783433 -0.00010842649 0)
(1.0783682 -9.6888135e-05 0)
(1.0783903 -8.6336414e-05 0)
(1.0784098 -7.6696004e-05 0)
(1.078427 -6.7897612e-05 0)
(1.078442 -5.9877604e-05 0)
(1.0784551 -5.2578032e-05 0)
(1.0784665 -4.5946366e-05 0)
(1.0784763 -3.9935371e-05 0)
(1.0784847 -3.4502729e-05 0)
(1.0784919 -2.9610557e-05 0)
(1.0784979 -2.5224797e-05 0)
(1.0785029 -2.1314362e-05 0)
(1.0785071 -1.7850349e-05 0)
(1.0785104 -1.4805015e-05 0)
(1.0785132 -1.2151095e-05 0)
(1.0785153 -9.8609574e-06 0)
(1.078517 -7.9063683e-06 0)
(1.0785183 -6.2580871e-06 0)
(1.0785193 -4.8861983e-06 0)
(1.0785201 -3.7601907e-06 0)
(1.0785206 -2.8497459e-06 0)
(1.078521 -2.1250829e-06 0)
(1.0785213 -1.557876e-06 0)
(1.0785215 -1.1215556e-06 0)
(1.0785216 -7.9208819e-07 0)
(1.0785217 -5.4800974e-07 0)
(1.0785217 -3.7089207e-07 0)
(1.0785218 -2.450437e-07 0)
(1.0785218 -1.5770864e-07 0)
(1.0785218 -9.8526893e-08 0)
(1.0785218 -5.9542074e-08 0)
(1.0785218 -3.4558074e-08 0)
(1.0785218 -1.9127587e-08 0)
(1.0785218 -9.9114617e-09 0)
(1.0785218 -4.714802e-09 0)
(1.0785218 -1.8992167e-09 0)
(1.0785218 -5.4514728e-10 0)
(1.0785218 6.5889468e-11 0)
(1.0785218 2.4647771e-10 0)
(1.0785218 2.9912652e-10 0)
(1.0785218 2.5424424e-10 0)
(1.0785218 2.4200458e-10 0)
(1.0785218 1.9846409e-10 0)
(1.0785218 2.110825e-10 0)
(1.0785218 1.9627461e-10 0)
(1.0785218 2.2100012e-10 0)
(1.0785218 2.0356905e-10 0)
(1.0785218 2.1927596e-10 0)
(1.0785218 1.9512171e-10 0)
(1.0785218 1.9483746e-10 0)
(1.0785218 1.5494904e-10 0)
(1.0785218 1.4141282e-10 0)
(1.0785218 1.059585e-10 0)
(1.0785218 8.6519846e-11 0)
(1.0785218 6.0025714e-11 0)
(1.0785218 3.4671623e-11 0)
(1.0785218 3.170526e-11 0)
(1.0785218 -4.9108422e-12 0)
(1.0785218 -1.3113652e-11 0)
(1.0785218 -1.2962878e-10 0)
(1.0785218 -2.8358057e-10 0)
(1.0785218 -7.0797275e-10 0)
(1.0785218 -1.3453769e-09 0)
(1.0785218 -2.3816387e-09 0)
(1.0785218 -4.0214626e-09 0)
(1.0785218 -5.7863953e-09 0)
(1.0785218 -7.93699e-09 0)
(0.91421472 -0.00026174888 0)
(0.91572242 -0.0012973544 0)
(0.91565878 -0.0019709983 0)
(0.91531536 -0.0020931171 0)
(0.91519232 -0.0019093733 0)
(0.91520996 -0.0016753617 0)
(0.91519996 -0.0014910485 0)
(0.91510513 -0.0013488502 0)
(0.9149521 -0.0012205557 0)
(0.9147803 -0.0010957441 0)
(0.91461007 -0.00097833494 0)
(0.91444561 -0.00087365772 0)
(0.91428621 -0.00078279816 0)
(0.91413215 -0.00070375825 0)
(0.91398495 -0.0006340746 0)
(0.9138461 -0.0005720351 0)
(0.91371628 -0.0005166064 0)
(0.91359552 -0.00046701995 0)
(0.91348354 -0.00042256159 0)
(0.91338 -0.00038256082 0)
(0.91328452 -0.00034644069 0)
(0.91319672 -0.00031372835 0)
(0.91311616 -0.00028403904 0)
(0.91304241 -0.00025704786 0)
(0.912975 -0.00023247614 0)
(0.91291353 -0.0002100804 0)
(0.91285756 -0.00018965008 0)
(0.9128067 -0.00017100032 0)
(0.91276057 -0.00015396975 0)
(0.91271881 -0.00013841429 0)
(0.91268108 -0.00012420625 0)
(0.91264707 -0.0001112301 0)
(0.91261648 -9.938247e-05 0)
(0.91258902 -8.8569077e-05 0)
(0.91256445 -7.8705124e-05 0)
(0.91254252 -6.9713057e-05 0)
(0.91252301 -6.1523228e-05 0)
(0.9125057 -5.4072282e-05 0)
(0.91249041 -4.7303816e-05 0)
(0.91247695 -4.1167132e-05 0)
(0.91246517 -3.5617552e-05 0)
(0.9124549 -3.0615247e-05 0)
(0.912446 -2.612501e-05 0)
(0.91243834 -2.2115048e-05 0)
(0.91243179 -1.8556237e-05 0)
(0.91242624 -1.5421037e-05 0)
(0.91242158 -1.2682505e-05 0)
(0.9124177 -1.0313671e-05 0)
(0.9124145 -8.2867047e-06 0)
(0.91241189 -6.5730367e-06 0)
(0.9124098 -5.1428695e-06 0)
(0.91240813 -3.9660549e-06 0)
(0.91240683 -3.0119243e-06 0)
(0.91240582 -2.250665e-06 0)
(0.91240506 -1.6531764e-06 0)
(0.91240449 -1.1925685e-06 0)
(0.91240407 -8.437894e-07 0)
(0.91240377 -5.8495301e-07 0)
(0.91240356 -3.9656315e-07 0)
(0.91240341 -2.6256715e-07 0)
(0.91240331 -1.6923766e-07 0)
(0.91240325 -1.0601505e-07 0)
(0.91240321 -6.4141621e-08 0)
(0.91240318 -3.7405102e-08 0)
(0.91240317 -2.0713797e-08 0)
(0.91240316 -1.087398e-08 0)
(0.91240316 -5.1683355e-09 0)
(0.91240315 -2.217837e-09 0)
(0.91240315 -6.4594899e-10 0)
(0.91240315 -6.4649822e-11 0)
(0.91240315 2.3818671e-10 0)
(0.91240315 2.057836e-10 0)
(0.91240315 2.5370012e-10 0)
(0.91240315 1.473487e-10 0)
(0.91240315 1.930285e-10 0)
(0.91240315 1.1292668e-10 0)
(0.91240315 1.8887307e-10 0)
(0.91240315 1.2524714e-10 0)
(0.91240315 1.9571954e-10 0)
(0.91240315 1.2235113e-10 0)
(0.91240315 1.8339266e-10 0)
(0.91240315 9.6869942e-11 0)
(0.91240315 1.3561546e-10 0)
(0.91240315 3.8867631e-11 0)
(0.91240315 7.1969269e-11 0)
(0.91240315 -2.0953484e-11 0)
(0.91240315 3.364883e-12 0)
(0.91240315 -7.4398549e-11 0)
(0.91240315 -5.0348314e-11 0)
(0.91240315 -1.0773436e-10 0)
(0.91240315 -1.229684e-10 0)
(0.91240315 -2.0823367e-10 0)
(0.91240315 -3.6509228e-10 0)
(0.91240315 -6.589889e-10 0)
(0.91240315 -1.2467403e-09 0)
(0.91240316 -2.0625897e-09 0)
(0.91240315 -3.5755296e-09 0)
(0.91240316 -5.7489091e-09 0)
(0.91240314 -8.504843e-09 0)
(0.91240316 -1.1866164e-08 0)
(0.6570015 -0.00033091367 0)
(0.65753019 -0.0013826865 0)
(0.65670285 -0.0018779228 0)
(0.65560956 -0.0017874213 0)
(0.65467697 -0.0014676718 0)
(0.65389587 -0.0011752402 0)
(0.65318258 -0.00097282172 0)
(0.65250759 -0.00083017599 0)
(0.65188015 -0.00071390868 0)
(0.65131249 -0.00061248926 0)
(0.65080622 -0.00052640431 0)
(0.65035529 -0.00045640497 0)
(0.64995195 -0.00040020182 0)
(0.64958978 -0.00035418872 0)
(0.64926391 -0.0003153869 0)
(0.64897039 -0.00028196817 0)
(0.64870571 -0.00025287765 0)
(0.64846676 -0.00022738773 0)
(0.64825075 -0.00020489374 0)
(0.64805531 -0.00018488979 0)
(0.6478784 -0.00016697828 0)
(0.64771823 -0.00015086002 0)
(0.64757324 -0.00013630435 0)
(0.64744202 -0.00012312565 0)
(0.64732333 -0.00011116777 0)
(0.64721605 -0.00010029877 0)
(0.64711918 -9.0405786e-05 0)
(0.64703181 -8.1392595e-05 0)
(0.6469531 -7.3175308e-05 0)
(0.6468823 -6.5680782e-05 0)
(0.64681874 -5.8843833e-05 0)
(0.64676178 -5.2606748e-05 0)
(0.64671086 -4.6917476e-05 0)
(0.64666543 -4.1729542e-05 0)
(0.64662503 -3.7000807e-05 0)
(0.6465892 -3.2693569e-05 0)
(0.64655755 -2.8773752e-05 0)
(0.64652969 -2.5211066e-05 0)
(0.64650528 -2.1978454e-05 0)
(0.646484 -1.9052105e-05 0)
(0.64646555 -1.6410966e-05 0)
(0.64644966 -1.4036475e-05 0)
(0.64643606 -1.191207e-05 0)
(0.64642452 -1.0022647e-05 0)
(0.6464148 -8.354118e-06 0)
(0.6464067 -6.8927371e-06 0)
(0.64640001 -5.6248694e-06 0)
(0.64639455 -4.5364063e-06 0)
(0.64639014 -3.6129078e-06 0)
(0.64638663 -2.8392083e-06 0)
(0.64638386 -2.1999328e-06 0)
(0.64638172 -1.6793101e-06 0)
(0.64638009 -1.2619552e-06 0)
(0.64637886 -9.3272102e-07 0)
(0.64637795 -6.7752915e-07 0)
(0.64637729 -4.8313543e-07 0)
(0.64637682 -3.3791369e-07 0)
(0.64637649 -2.3143402e-07 0)
(0.64637627 -1.5506374e-07 0)
(0.64637612 -1.0136453e-07 0)
(0.64637602 -6.45882e-08 0)
(0.64637596 -3.9925195e-08 0)
(0.64637592 -2.3935154e-08 0)
(0.6463759 -1.3769595e-08 0)
(0.64637589 -7.6272837e-09 0)
(0.64637588 -3.961357e-09 0)
(0.64637588 -1.9686111e-09 0)
(0.64637588 -8.4499421e-10 0)
(0.64637588 -3.5062802e-10 0)
(0.64637588 -6.3883029e-11 0)
(0.64637588 -3.4875325e-12 0)
(0.64637588 7.732457e-11 0)
(0.64637588 4.9748049e-11 0)
(0.64637588 9.4983328e-11 0)
(0.64637588 5.9230622e-11 0)
(0.64637588 1.1009699e-10 0)
(0.64637588 7.613443e-11 0)
(0.64637588 1.1508924e-10 0)
(0.64637588 6.7607366e-11 0)
(0.64637588 1.0053749e-10 0)
(0.64637588 4.3051877e-11 0)
(0.64637588 6.2786545e-11 0)
(0.64637588 -5.7709159e-12 0)
(0.64637588 1.9552874e-11 0)
(0.64637588 -4.9575043e-11 0)
(0.64637588 -2.2218839e-11 0)
(0.64637588 -9.6299347e-11 0)
(0.64637588 -4.9706177e-11 0)
(0.64637588 -1.2614323e-10 0)
(0.64637588 -7.3382024e-11 0)
(0.64637588 -1.9254354e-10 0)
(0.64637588 -1.7872692e-10 0)
(0.64637588 -4.624405e-10 0)
(0.64637588 -6.3790331e-10 0)
(0.64637587 -1.2739322e-09 0)
(0.64637588 -1.8893831e-09 0)
(0.64637587 -3.4828693e-09 0)
(0.64637587 -5.2848967e-09 0)
(0.64637586 -8.5998976e-09 0)
(0.64637587 -1.2241406e-08 0)
(0.27159174 -0.00027506181 0)
(0.27099536 -0.00077570507 0)
(0.26969038 -0.00082909838 0)
(0.26841643 -0.00061968998 0)
(0.26741967 -0.00040127531 0)
(0.26667046 -0.00026805325 0)
(0.26608087 -0.00020143885 0)
(0.26559091 -0.00016326772 0)
(0.26517358 -0.00013413334 0)
(0.26481705 -0.0001102424 0)
(0.26451221 -9.20966e-05 0)
(0.2642495 -7.9155647e-05 0)
(0.26402023 -6.9756594e-05 0)
(0.26381777 -6.2347163e-05 0)
(0.26363753 -5.6046673e-05 0)
(0.26347631 -5.0510307e-05 0)
(0.26333165 -4.5612779e-05 0)
(0.26320153 -4.1266827e-05 0)
(0.26308423 -3.7380939e-05 0)
(0.26297832 -3.3877062e-05 0)
(0.26288262 -3.0698826e-05 0)
(0.26279609 -2.7809098e-05 0)
(0.26271785 -2.5178759e-05 0)
(0.26264711 -2.2783193e-05 0)
(0.26258318 -2.0599022e-05 0)
(0.26252544 -1.8606204e-05 0)
(0.26247333 -1.6786411e-05 0)
(0.26242635 -1.5124313e-05 0)
(0.26238406 -1.3605604e-05 0)
(0.26234603 -1.2218109e-05 0)
(0.2623119 -1.0950246e-05 0)
(0.26228133 -9.7921227e-06 0)
(0.262254 -8.7342804e-06 0)
(0.26222964 -7.7686414e-06 0)
(0.26220798 -6.8874731e-06 0)
(0.26218878 -6.0841788e-06 0)
(0.26217182 -5.352493e-06 0)
(0.2621569 -4.6871132e-06 0)
(0.26214384 -4.0830874e-06 0)
(0.26213247 -3.5362454e-06 0)
(0.26212262 -3.0427476e-06 0)
(0.26211414 -2.5993006e-06 0)
(0.2621069 -2.2028688e-06 0)
(0.26210077 -1.8506898e-06 0)
(0.26209561 -1.5401478e-06 0)
(0.26209132 -1.2686136e-06 0)
(0.26208779 -1.0335213e-06 0)
(0.26208492 -8.3210001e-07 0)
(0.2620826 -6.6163876e-07 0)
(0.26208077 -5.1912757e-07 0)
(0.26207933 -4.0170976e-07 0)
(0.26207821 -3.0627208e-07 0)
(0.26207737 -2.300113e-07 0)
(0.26207673 -1.6994274e-07 0)
(0.26207627 -1.2354527e-07 0)
(0.26207593 -8.8202263e-08 0)
(0.26207569 -6.1888373e-08 0)
(0.26207552 -4.2529141e-08 0)
(0.26207541 -2.8689155e-08 0)
(0.26207533 -1.8868762e-08 0)
(0.26207528 -1.218588e-08 0)
(0.26207525 -7.612884e-09 0)
(0.26207523 -4.6861376e-09 0)
(0.26207522 -2.7379469e-09 0)
(0.26207522 -1.6096344e-09 0)
(0.26207521 -8.5446013e-10 0)
(0.26207521 -4.8823178e-10 0)
(0.26207521 -2.0601975e-10 0)
(0.26207521 -1.3040201e-10 0)
(0.26207521 -1.5590385e-11 0)
(0.26207521 -3.1251194e-11 0)
(0.26207521 3.8793547e-11 0)
(0.26207521 -3.8548079e-12 0)
(0.26207521 4.9950269e-11 0)
(0.26207521 5.6024697e-12 0)
(0.26207521 5.7084334e-11 0)
(0.26207521 4.2144735e-12 0)
(0.26207521 4.8054358e-11 0)
(0.26207521 -3.9005428e-12 0)
(0.26207521 4.0591828e-11 0)
(0.26207521 -1.981611e-11 0)
(0.26207521 2.1323179e-11 0)
(0.26207521 -3.5052666e-11 0)
(0.26207521 1.073322e-11 0)
(0.26207521 -4.8505082e-11 0)
(0.26207521 -2.5528033e-12 0)
(0.26207521 -5.7183721e-11 0)
(0.26207521 -4.6933092e-12 0)
(0.26207521 -6.5995569e-11 0)
(0.26207521 -1.7828332e-11 0)
(0.26207521 -1.0143765e-10 0)
(0.26207521 -8.9009147e-11 0)
(0.26207521 -2.6679542e-10 0)
(0.26207521 -3.3702456e-10 0)
(0.26207521 -6.5310518e-10 0)
(0.26207521 -9.8754178e-10 0)
(0.2620752 -1.7895101e-09 0)
(0.2620752 -2.6946417e-09 0)
(0.26207519 -4.7117426e-09 0)
(0.26207519 -6.1885756e-09 0)
)
;

boundaryField
{
    top
    {
        type            fixedValue;
        value           uniform (0 0 0);
    }
    inlet
    {
        type            pressureNormalInletOutletVelocity;
        phi             phi;
        rho             rho;