/*--------------------------------*- C++ -*----------------------------------*\
| =========                 |                                                 |
| \\      /  F ield         | OpenFOAM: The Open Source CFD Toolbox           |
|  \\    /   O peration     | Version:  2112                                  |
|   \\  /    A nd           | Website:  www.openfoam.com                      |
|    \\/     M anipulation  |                                                 |
\*---------------------------------------------------------------------------*/
FoamFile
{
    version     2.0;
    format      ascii;
    arch        "LSB;label=32;scalar=64";
    class       volScalarField;
    location    "13";
    object      p;
}
// * * * * * * * * * * * * * * * * * * * * * * * * * * * * * * * * * * * * * //

dimensions      [0 2 -2 0 0 0 0];

internalField   nonuniform List<scalar> 
1000
(
1.5266256
1.5098044
1.4933716
1.4772176
1.4612462
1.4453962
1.4296326
1.4139357
1.3982932
1.3826957
1.3671353
1.3516055
1.3361018
1.3206207
1.3051598
1.2897169
1.2742905
1.2588791
1.2434813
1.228096
1.2127222
1.197359
1.1820055
1.1666611
1.1513251
1.1359967
1.1206755
1.1053609
1.0900525
1.0747497
1.0594522
1.0441596
1.0288716
1.0135877
0.99830779
0.98303147
0.96775852
0.95248869
0.93722174
0.92195748
0.90669569
0.8914362
0.87617883
0.86092344
0.84566986
0.83041796
0.81516762
0.79991871
0.78467112
0.76942476
0.75417952
0.73893531
0.72369205
0.70844967
0.6932081
0.67796726
0.66272709
0.64748754
0.63224857
0.6170101
0.60177211
0.58653455
0.57129738
0.55606057
0.54082408
0.52558788
0.51035194
0.49511624
0.47988076
0.46464546
0.44941033
0.43417536
0.41894052
0.40370579
0.38847117
0.37323664
0.35800218
0.34276779
0.32753346
0.31229918
0.29706494
0.28183073
0.26659655
0.2513624
0.23612826
0.22089414
0.20566003
0.19042593
0.17519184
0.15995776
0.14472368
0.1294896
0.11425553
0.099021453
0.083787382
0.068553313
0.053319244
0.038085175
0.022851106
0.0076170356
1.5262974
1.5094414
1.4932489
1.4772944
1.4613875
1.445522
1.4297283
1.4140126
1.3983609
1.3827569
1.3671894
1.3516525
1.3361423
1.3206561
1.3051911
1.289745
1.2743159
1.258902
1.2435021
1.2281149
1.2127395
1.1973749
1.1820201
1.1666745
1.1513374
1.1360081
1.120686
1.1053705
1.0900613
1.0747579
1.0594598
1.0441666
1.028878
1.0135936
0.99831322
0.98303648
0.96776312
0.95249292
0.93722563
0.92196105
0.90669897
0.8914392
0.87618159
0.86092596
0.84567217
0.83042007
0.81516954
0.79992047
0.78467272
0.76942621
0.75418084
0.73893651
0.72369314
0.70845065
0.69320898
0.67796805
0.66272781
0.64748819
0.63224914
0.61701061
0.60177257
0.58653495
0.57129774
0.55606088
0.54082435
0.52558812
0.51035215
0.49511642
0.47988091
0.46464559
0.44941044
0.43417545
0.41894059
0.40370586
0.38847122
0.37323668
0.35800222
0.34276782
0.32753349
0.3122992
0.29706495
0.28183074
0.26659656
0.2513624
0.23612827
0.22089414
0.20566003
0.19042593
0.17519184
0.15995776
0.14472368
0.1294896
0.11425553
0.099021453
0.083787383
0.068553313
0.053319244
0.038085175
0.022851106
0.0076170363
1.525716
1.5087168
1.4928501
1.4772416
1.461496
1.4456421
1.4298111
1.4140682
1.3984085
1.382804
1.3672345
1.3516925
1.3361764
1.3206851
1.3052164
1.2897675
1.274336
1.2589201
1.2435184
1.2281296
1.2127528
1.197387
1.1820312
1.1666846
1.1513466
1.1360165
1.1206937
1.1053777
1.0900679
1.0747639
1.0594653
1.0441717
1.0288827
1.013598
0.99831723
0.98304017
0.96776652
0.95249605
0.93722851
0.9219637
0.9067014
0.89144144
0.87618364
0.86092784
0.8456739
0.83042166
0.815171
0.79992179
0.78467394
0.76942732
0.75418185
0.73893743
0.72369397
0.70845141
0.69320967
0.67796867
0.66272837
0.64748869
0.6322496
0.61701103
0.60177294
0.58653528
0.57129803
0.55606114
0.54082458
0.52558832
0.51035233
0.49511658
0.47988105
0.46464571
0.44941055
0.43417554
0.41894067
0.40370592
0.38847128
0.37323673
0.35800225
0.34276785
0.32753351
0.31229922
0.29706497
0.28183076
0.26659657
0.25136241
0.23612827
0.22089415
0.20566004
0.19042594
0.17519185
0.15995776
0.14472368
0.1294896
0.11425553
0.099021454
0.083787383
0.068553313
0.053319245
0.038085176
0.022851107
0.0076170369
1.5251476
1.5079495
1.4923586
1.4771105
1.461568
1.4457533
1.4298918
1.4141207
1.3984532
1.3828509
1.3672821
1.3517364
1.3362143
1.3207174
1.3052444
1.2897923
1.2743582
1.25894
1.2435363
1.2281457
1.2127674
1.1974002
1.1820432
1.1666956
1.1513567
1.1360258
1.1207022
1.1053855
1.0900751
1.0747706
1.0594714
1.0441773
1.0288879
1.0136028
0.99832167
0.98304427
0.96777032
0.95249955
0.93723175
0.92196669
0.90670416
0.89144399
0.87618599
0.86093001
0.84567589
0.8304235
0.81517269
0.79992335
0.78467537
0.76942864
0.75418306
0.73893854
0.72369499
0.70845234
0.69321052
0.67796945
0.66272908
0.64748934
0.63225019
0.61701156
0.60177342
0.58653573
0.57129843
0.5560615
0.54082491
0.52558861
0.51035259
0.49511681
0.47988126
0.46464589
0.44941071
0.43417568
0.41894079
0.40370603
0.38847137
0.37323681
0.35800232
0.34276791
0.32753356
0.31229926
0.29706501
0.28183079
0.2665966
0.25136243
0.23612829
0.22089416
0.20566005
0.19042595
0.17519185
0.15995776
0.14472368
0.1294896
0.11425553
0.099021456
0.083787385
0.068553315
0.053319246
0.038085177
0.022851108
0.0076170375
1.5248096
1.5074751
1.4920344
1.4770079
1.4616029
1.4458218
1.429944
1.4141545
1.3984817
1.3828815
1.3673143
1.3517668
1.3362411
1.3207405
1.3052647
1.2898105
1.2743747
1.2589549
1.2435497
1.2281579
1.2127784
1.1974102
1.1820524
1.1667041
1.1513645
1.1360329
1.1207088
1.1053916
1.0900807
1.0747757
1.0594762
1.0441817
1.028892
1.0136066
0.99832516
0.9830475
0.96777331
0.95250232
0.93723431
0.92196906
0.90670635
0.89144602
0.87618787
0.86093174
0.84567749
0.83042497
0.81517405
0.79992461
0.78467653
0.7694297
0.75418404
0.73893944
0.72369582
0.70845311
0.69321122
0.67797009
0.66272967
0.64748988
0.63225068
0.61701201
0.60177383
0.5865361
0.57129877
0.55606181
0.54082519
0.52558886
0.51035282
0.49511702
0.47988144
0.46464606
0.44941086
0.43417581
0.41894091
0.40370613
0.38847146
0.37323688
0.35800239
0.34276797
0.32753361
0.3122993
0.29706504
0.28183081
0.26659662
0.25136245
0.2361283
0.22089417
0.20566006
0.19042595
0.17519186
0.15995777
0.14472369
0.12948961
0.11425553
0.099021458
0.083787386
0.068553316
0.053319247
0.038085178
0.022851109
0.0076170381
1.5248096
1.507475
1.4920344
1.4770079
1.4616029
1.4458218
1.4299439
1.4141545
1.3984817
1.3828815
1.3673143
1.3517668
1.3362411
1.3207405
1.3052647
1.2898105
1.2743747
1.2589549
1.2435497
1.2281579
1.2127784
1.1974102
1.1820524
1.1667041
1.1513645
1.1360329
1.1207088
1.1053916
1.0900807
1.0747757
1.0594762
1.0441817
1.028892
1.0136066
0.99832516
0.9830475
0.96777331
0.95250232
0.93723431
0.92196905
0.90670635
0.89144602
0.87618787
0.86093174
0.84567749
0.83042497
0.81517405
0.79992461
0.78467653
0.7694297
0.75418404
0.73893944
0.72369582
0.70845311
0.69321122
0.67797009
0.66272967
0.64748988
0.63225068
0.61701201
0.60177383
0.5865361
0.57129877
0.55606181
0.54082519
0.52558886
0.51035282
0.49511702
0.47988144
0.46464606
0.44941086
0.43417581
0.41894091
0.40370613
0.38847146
0.37323688
0.35800239
0.34276797
0.32753361
0.3122993
0.29706504
0.28183081
0.26659662
0.25136245
0.2361283
0.22089417
0.20566006
0.19042595
0.17519186
0.15995777
0.14472369
0.12948961
0.11425553
0.099021458
0.083787386
0.068553316
0.053319247
0.038085178
0.02285111
0.0076170384
1.5251476
1.5079495
1.4923586
1.4771105
1.461568
1.4457533
1.4298918
1.4141207
1.3984532
1.3828509
1.3672821
1.3517364
1.3362143
1.3207174
1.3052444
1.2897923
1.2743583
1.2589401
1.2435363
1.2281457
1.2127674
1.1974002
1.1820432
1.1666957
1.1513567
1.1360258
1.1207022
1.1053855
1.0900751
1.0747706
1.0594714
1.0441773
1.0288879
1.0136028
0.99832167
0.98304427
0.96777032
0.95249955
0.93723175
0.92196668
0.90670416
0.89144399
0.87618599
0.86093001
0.84567589
0.8304235
0.81517269
0.79992335
0.78467537
0.76942864
0.75418306
0.73893854
0.72369499
0.70845234
0.69321052
0.67796945
0.66272908
0.64748934
0.63225019
0.61701156
0.60177342
0.58653573
0.57129843
0.5560615
0.54082491
0.52558861
0.51035259
0.49511681
0.47988126
0.46464589
0.44941071
0.43417568
0.4189408
0.40370603
0.38847137
0.37323681
0.35800233
0.34276791
0.32753356
0.31229926
0.29706501
0.28183079
0.2665966
0.25136243
0.23612829
0.22089416
0.20566005
0.19042595
0.17519185
0.15995776
0.14472368
0.1294896
0.11425553
0.099021456
0.083787385
0.068553315
0.053319246
0.038085178
0.02285111
0.0076170382
1.525716
1.5087168
1.4928501
1.4772416
1.4614959
1.4456421
1.4298111
1.4140682
1.3984085
1.382804
1.3672345
1.3516925
1.3361764
1.3206851
1.3052164
1.2897675
1.274336
1.2589201
1.2435184
1.2281297
1.2127528
1.197387
1.1820312
1.1666847
1.1513467
1.1360166
1.1206938
1.1053777
1.0900679
1.0747639
1.0594653
1.0441717
1.0288827
1.013598
0.99831722
0.98304016
0.96776652
0.95249605
0.93722851
0.92196369
0.9067014
0.89144144
0.87618364
0.86092784
0.84567389
0.83042165
0.81517099
0.79992179
0.78467393
0.76942732
0.75418184
0.73893742
0.72369397
0.70845141
0.69320967
0.67796867
0.66272837
0.64748869
0.6322496
0.61701103
0.60177294
0.58653528
0.57129803
0.55606114
0.54082458
0.52558832
0.51035233
0.49511658
0.47988105
0.46464571
0.44941055
0.43417554
0.41894067
0.40370592
0.38847128
0.37323673
0.35800226
0.34276785
0.32753351
0.31229922
0.29706497
0.28183076
0.26659657
0.25136241
0.23612827
0.22089415
0.20566004
0.19042594
0.17519185
0.15995776
0.14472368
0.1294896
0.11425553
0.099021455
0.083787384
0.068553314
0.053319245
0.038085177
0.022851109
0.0076170376
1.5262974
1.5094414
1.4932489
1.4772944
1.4613875
1.445522
1.4297283
1.4140125
1.3983609
1.3827569
1.3671894
1.3516525
1.3361423
1.3206561
1.3051911
1.2897451
1.2743159
1.258902
1.2435021
1.228115
1.2127395
1.1973749
1.1820201
1.1666745
1.1513374
1.1360081
1.120686
1.1053705
1.0900613
1.0747579
1.0594598
1.0441666
1.028878
1.0135936
0.99831322
0.98303647
0.96776312
0.95249292
0.93722563
0.92196104
0.90669896
0.8914392
0.87618158
0.86092595
0.84567216
0.83042007
0.81516954
0.79992046
0.78467272
0.76942621
0.75418083
0.7389365
0.72369314
0.70845065
0.69320898
0.67796805
0.6627278
0.64748819
0.63224914
0.61701061
0.60177257
0.58653495
0.57129774
0.55606088
0.54082435
0.52558812
0.51035215
0.49511642
0.47988091
0.46464559
0.44941044
0.43417545
0.41894059
0.40370586
0.38847122
0.37323668
0.35800222
0.34276782
0.32753349
0.3122992
0.29706495
0.28183074
0.26659656
0.2513624
0.23612827
0.22089414
0.20566003
0.19042594
0.17519184
0.15995776
0.14472368
0.1294896
0.11425553
0.099021454
0.083787383
0.068553313
0.053319244
0.038085176
0.022851107
0.0076170367
1.5266256
1.5098044
1.4933716
1.4772176
1.4612461
1.4453962
1.4296326
1.4139357
1.3982932
1.3826957
1.3671353
1.3516055
1.3361018
1.3206207
1.3051598
1.2897169
1.2742905
1.2588791
1.2434813
1.228096
1.2127222
1.197359
1.1820055
1.1666611
1.1513251
1.1359967
1.1206755
1.1053609
1.0900525
1.0747497
1.0594522
1.0441596
1.0288716
1.0135877
0.99830778
0.98303147
0.96775852
0.95248868
0.93722174
0.92195747
0.90669568
0.89143619
0.87617883
0.86092343
0.84566985
0.83041796
0.81516762
0.79991871
0.78467112
0.76942476
0.75417951
0.73893531
0.72369205
0.70844967
0.69320809
0.67796725
0.66272709
0.64748754
0.63224857
0.6170101
0.60177211
0.58653455
0.57129738
0.55606057
0.54082408
0.52558788
0.51035194
0.49511624
0.47988076
0.46464546
0.44941033
0.43417536
0.41894052
0.40370579
0.38847117
0.37323664
0.35800218
0.3427678
0.32753346
0.31229918
0.29706494
0.28183073
0.26659655
0.2513624
0.23612826
0.22089414
0.20566003
0.19042593
0.17519184
0.15995776
0.14472368
0.1294896
0.11425553
0.099021454
0.083787383
0.068553313
0.053319244
0.038085175
0.022851106
0.0076170359
)
;

boundaryField
{
    top
    {
        type            zeroGradient;
    }
    inlet
    {
        type            fixedValue;
        value           uniform 1.5352;
    }
    outlet
    {
        type            fixedValue;
        value           uniform 0;
    }
    bottom
    {
        type            zeroGradient;
    }
    back
    {
        type            empty;
    }
    front
    {
        type            empty;
    }
}


// ************************************************************************* //
