/*--------------------------------*- C++ -*----------------------------------*\
| =========                 |                                                 |
| \\      /  F ield         | OpenFOAM: The Open Source CFD Toolbox           |
|  \\    /   O peration     | Version:  2112                                  |
|   \\  /    A nd           | Website:  www.openfoam.com                      |
|    \\/     M anipulation  |                                                 |
\*---------------------------------------------------------------------------*/
FoamFile
{
    version     2.0;
    format      ascii;
    arch        "LSB;label=32;scalar=64";
    class       surfaceScalarField;
    location    "13";
    object      phi;
}
// * * * * * * * * * * * * * * * * * * * * * * * * * * * * * * * * * * * * * //

dimensions      [0 3 -1 0 0 0 0];

oriented        oriented;

internalField   nonuniform List<scalar> 
1890
(
0.0030220273
2.4776092e-06
0.0030137293
8.2988748e-06
0.0030035672
1.0162107e-05
0.0029944313
9.1353514e-06
0.0029871984
7.2322127e-06
0.0029815431
5.6547637e-06
0.0029769222
4.6203832e-06
0.0029729837
3.9379912e-06
0.0029695673
3.4159943e-06
0.0029665961
2.9707967e-06
0.002964006
2.5898533e-06
0.0029617296
2.2761084e-06
0.0029597059
2.0234894e-06
0.0029578878
1.8179437e-06
0.0029562422
1.6453871e-06
0.002954746
1.496148e-06
0.002953381
1.3648403e-06
0.0029521325
1.248417e-06
0.0029509878
1.1446632e-06
0.0029499361
1.0516417e-06
0.0029489683
9.6769126e-07
0.0029480768
8.9148892e-07
0.0029472547
8.2202778e-07
0.0029464962
7.5851892e-07
0.0029457959
7.0031594e-07
0.002945149
6.4686183e-07
0.0029445513
5.9767729e-07
0.0029439989
5.5234416e-07
0.0029434884
5.1050385e-07
0.0029430166
4.7184053e-07
0.0029425805
4.360798e-07
0.0029421776
4.0297504e-07
0.0029418053
3.7230974e-07
0.0029414614
3.4388684e-07
0.0029411439
3.1753252e-07
0.0029408508
2.930867e-07
0.0029405804
2.7040755e-07
0.0029403311
2.4936297e-07
0.0029401013
2.2983544e-07
0.0029398896
2.1171439e-07
0.0029396947
1.9490128e-07
0.0029395154
1.7930256e-07
0.0029393506
1.6483475e-07
0.0029391992
1.5141794e-07
0.0029390603
1.3898082e-07
0.0029389328
1.2745465e-07
0.0029388161
1.167781e-07
0.0029387092
1.0689165e-07
0.0029386115
9.7742295e-08
0.0029385222
8.9278266e-08
0.0029384408
8.1453556e-08
0.0029383666
7.4222983e-08
0.0029382991
6.7546497e-08
0.0029382377
6.1384584e-08
0.002938182
5.5702362e-08
0.0029381316
5.0465254e-08
0.002938086
4.5642897e-08
0.0029380448
4.1205108e-08
0.0029380077
3.7125559e-08
0.0029379743
3.3377989e-08
0.0029379444
2.9939701e-08
0.0029379176
2.6788003e-08
0.0029378937
2.3903475e-08
0.0029378725
2.126661e-08
0.0029378536
1.8860887e-08
0.002937837
1.6669603e-08
0.0029378223
1.4678723e-08
0.0029378094
1.2873872e-08
0.0029377982
1.1243015e-08
0.0029377885
9.7736214e-09
0.00293778
8.4551641e-09
0.0029377727
7.2764496e-09
0.0029377665
6.2279984e-09
0.0029377612
5.2995526e-09
0.0029377568
4.4823518e-09
0.002937753
3.7667902e-09
0.0029377499
3.1446388e-09
0.0029377473
2.6068526e-09
0.0029377451
2.1457362e-09
0.0029377434
1.7528407e-09
0.002937742
1.421108e-09
0.0029377408
1.1428383e-09
0.0029377399
9.1179715e-10
0.0029377392
7.2118416e-10
0.0029377387
5.6573192e-10
0.0029377382
4.3967353e-10
0.0029377379
3.3880086e-10
0.0029377376
2.5841907e-10
0.0029377374
1.9534987e-10
0.0029377373
1.4595113e-10
0.0029377372
1.079402e-10
0.0029377371
7.8646922e-11
0.002937737
5.6411019e-11
0.002937737
3.9484638e-11
0.002937737
2.6284862e-11
0.002937737
1.6269276e-11
0.002937737
7.0886853e-12
0.002937737
4.1459745e-13
0.002937737
-1.0791943e-11
-1.4286735e-11
0.0074762172
2.6619604e-06
0.0074730718
1.1445377e-05
0.0074672338
1.6000264e-05
0.0074603643
1.6004417e-05
0.0074536337
1.3962267e-05
0.0074473693
1.1918646e-05
0.0074415396
1.044958e-05
0.0074360959
9.381383e-06
0.0074310462
8.4653589e-06
0.0074264141
7.6025071e-06
0.0074221976
6.8061301e-06
0.0074183663
6.1072131e-06
0.0074148786
5.5109723e-06
0.0074116952
5.0011982e-06
0.0074087831
4.5573077e-06
0.0074061149
4.164197e-06
0.0074036667
3.8129782e-06
0.007401417
3.4980666e-06
0.0073993467
3.2148804e-06
0.0073974391
2.9591637e-06
0.0073956796
2.7271354e-06
0.0073940554
2.5156869e-06
0.007392555
2.3223402e-06
0.0073911684
2.1450928e-06
0.0073898865
1.9822583e-06
0.0073887009
1.8323857e-06
0.0073876044
1.6942109e-06
0.0073865901
1.5666388e-06
0.0073856519
1.448712e-06
0.0073847841
1.3395946e-06
0.0073839817
1.238544e-06
0.0073832397
1.1449024e-06
0.007382554
1.0580775e-06
0.0073819203
9.7753989e-07
0.0073813351
9.0280859e-07
0.0073807947
8.3345071e-07
0.0073802961
7.6906926e-07
0.0073798361
7.0930485e-07
0.0073794122
6.5382535e-07
0.0073790216
6.0232857e-07
0.0073786619
5.5453347e-07
0.0073783311
5.1018353e-07
0.0073780269
4.6903887e-07
0.0073777474
4.3087988e-07
0.0073774909
3.9550031e-07
0.0073772557
3.6271103e-07
0.0073770402
3.3233375e-07
0.0073768429
3.0420472e-07
0.0073766624
2.7816907e-07
0.0073764977
2.5408454e-07
0.0073763473
2.3181627e-07
0.0073762103
2.1124026e-07
0.0073760856
1.922387e-07
0.0073759723
1.747034e-07
0.0073758695
1.5853145e-07
0.0073757764
1.436284e-07
0.0073756921
1.2990435e-07
0.0073756161
1.1727708e-07
0.0073755475
1.0566832e-07
0.0073754859
9.5006716e-08
0.0073754307
8.5224445e-08
0.0073753812
7.6259986e-08
0.0073753371
6.8054965e-08
0.0073752978
6.0556629e-08
0.0073752629
5.3714952e-08
0.0073752321
4.7484905e-08
0.007375205
4.1823679e-08
0.0073751812
3.6692679e-08
0.0073751604
3.2054967e-08
0.0073751423
2.7877076e-08
0.0073751266
2.4126593e-08
0.0073751132
2.0773799e-08
0.0073751016
1.7789507e-08
0.0073750918
1.5146646e-08
0.0073750834
1.2818307e-08
0.0073750764
1.0779261e-08
0.0073750706
9.0043026e-09
0.0073750657
7.4697734e-09
0.0073750617
6.1520994e-09
0.0073750585
5.0292626e-09
0.0073750558
4.0795621e-09
0.0073750537
3.283033e-09
0.007375052
2.6203066e-09
0.0073750506
2.0738895e-09
0.0073750496
1.6271417e-09
0.0073750487
1.2654224e-09
0.0073750481
9.7507101e-10
0.0073750476
7.4440576e-10
0.0073750473
5.626908e-10
0.007375047
4.2115322e-10
0.0073750468
3.1166103e-10
0.0073750466
2.2810918e-10
0.0073750465
1.6428623e-10
0.0073750464
1.165325e-10
0.0073750464
7.9675534e-11
0.0073750464
5.2639623e-11
0.0073750463
3.0175587e-11
0.0073750463
1.4152889e-11
0.0073750463
-1.5091144e-12
-1.0750307e-11
0.010560162
1.9049082e-06
0.010562157
9.4514741e-06
0.010563876
1.4281255e-05
0.010564696
1.518358e-05
0.010564823
1.3834884e-05
0.010564496
1.224447e-05
0.010563832
1.1113561e-05
0.010562898
1.0314926e-05
0.010561771
9.5919146e-06
0.01056053
8.8436694e-06
0.010559235
8.100804e-06
0.010557927
7.4153519e-06
0.01055663
6.8077102e-06
0.010555361
6.2698379e-06
0.010554133
5.7857103e-06
0.010552953
5.3438605e-06
0.010551827
4.9386821e-06
0.010550758
4.5671929e-06
0.010549746
4.2266052e-06
0.010548791
3.9138017e-06
0.010547893
3.6257435e-06
0.010547049
3.3598277e-06
0.010546257
3.1139372e-06
0.010545516
2.8863034e-06
0.010544823
2.6753832e-06
0.010544175
2.4797882e-06
0.010543571
2.298271e-06
0.010543008
2.1297111e-06
0.010542484
1.9731075e-06
0.010541996
1.8275562e-06
0.010541542
1.6922407e-06
0.01054112
1.5664143e-06
0.010540729
1.4493972e-06
0.010540366
1.3405638e-06
0.010540029
1.2393419e-06
0.010539718
1.1452025e-06
0.010539429
1.0576597e-06
0.010539162
9.7626168e-07
0.010538915
9.0059249e-07
0.010538688
8.3026373e-07
0.010538477
7.6491692e-07
0.010538283
7.0421637e-07
0.010538104
6.4785164e-07
0.01053794
5.9553127e-07
0.010537788
5.4698543e-07
0.010537649
5.0196028e-07
0.010537521
4.6022057e-07
0.010537404
4.2154461e-07
0.010537296
3.8572691e-07
0.010537198
3.5257355e-07
0.010537108
3.2190472e-07
0.010537025
2.9355054e-07
0.01053695
2.6735355e-07
0.010536882
2.4316488e-07
0.01053682
2.2084667e-07
0.010536763
2.0026849e-07
0.010536712
1.813098e-07
0.010536665
1.638566e-07
0.010536623
1.4780377e-07
0.010536585
1.3305201e-07
0.010536551
1.1951007e-07
0.01053652
1.0709197e-07
0.010536492
9.5718969e-08
0.010536467
8.5316988e-08
0.010536445
7.5818472e-08
0.010536426
6.7159912e-08
0.010536408
5.9283452e-08
0.010536393
5.2134566e-08
0.010536379
4.5663499e-08
0.010536367
3.9823034e-08
0.010536357
3.4569754e-08
0.010536348
2.9861994e-08
0.01053634
2.5661031e-08
0.010536333
2.192922e-08
0.010536327
1.8631145e-08
0.010536322
1.573201e-08
0.010536318
1.3198856e-08
0.010536315
1.0999163e-08
0.010536312
9.1021086e-09
0.010536309
7.4773862e-09
0.010536307
6.0965404e-09
0.010536305
4.9318586e-09
0.010536304
3.9577373e-09
0.010536303
3.1495907e-09
0.010536302
2.4852393e-09
0.010536302
1.9437219e-09
0.010536301
1.5066401e-09
0.010536301
1.1569022e-09
0.0105363
8.7996353e-10
0.0105363
6.6258454e-10
0.0105363
4.9374583e-10
0.0105363
3.6377566e-10
0.0105363
2.6446884e-10
0.0105363
1.8935786e-10
0.010536299
1.3236736e-10
0.010536299
8.9860929e-11
0.010536299
5.699006e-11
0.010536299
3.2660193e-11
0.010536299
1.3464373e-11
-1.2917405e-12
0.012486063
9.593026e-07
0.012490384
5.1313508e-06
0.012496585
8.0797379e-06
0.012502893
8.8743894e-06
0.012508473
8.2546082e-06
0.012513311
7.4062344e-06
0.012517604
6.8206297e-06
0.012521483
6.4353761e-06
0.012524991
6.0838944e-06
0.01252814
5.6940939e-06
0.012530954
5.2862523e-06
0.012533471
4.8983865e-06
0.012535731
4.5478433e-06
0.012537768
4.2320544e-06
0.012539612
3.9422468e-06
0.012541283
3.6723711e-06
0.012542801
3.4201729e-06
0.012544184
3.1849833e-06
0.012545444
2.9660216e-06
0.012546596
2.7620801e-06
0.01254765
2.5718308e-06
0.012548615
2.3941269e-06
0.012549501
2.228038e-06
0.012550315
2.0727937e-06
0.012551062
1.9276904e-06
0.01255175
1.7920777e-06
0.012552383
1.6653377e-06
0.012552966
1.5469061e-06
0.012553503
1.4362529e-06
0.012553997
1.3328947e-06
0.012554453
1.2363716e-06
0.012554873
1.1462615e-06
0.012555261
1.0621593e-06
0.012555617
9.836937e-07
0.012555946
9.1050752e-07
0.012556249
8.4227381e-07
0.012556528
7.7867707e-07
0.012556785
7.1942892e-07
0.012557021
6.6425026e-07
0.012557239
6.1288668e-07
0.012557439
5.6509132e-07
0.012557622
5.2063966e-07
0.012557791
4.7931335e-07
0.012557945
4.4091437e-07
0.012558087
4.0524972e-07
0.012558217
3.7214479e-07
0.012558336
3.4142899e-07
0.012558444
3.1294853e-07
0.012558544
2.8655278e-07
0.012558634
2.6210629e-07
0.012558716
2.3947613e-07
0.012558791
2.1854328e-07
0.01255886
1.9919035e-07
0.012558921
1.8131268e-07
0.012558978
1.6480702e-07
0.012559028
1.4958158e-07
0.012559074
1.3554558e-07
0.012559115
1.2261867e-07
0.012559152
1.107213e-07
0.012559186
9.9783485e-08
0.012559215
8.9735821e-08
0.012559242
8.0517649e-08
0.012559266
7.206871e-08
0.012559287
6.4336789e-08
0.012559305
5.7269873e-08
0.012559322
5.0823192e-08
0.012559336
4.4951943e-08
0.012559348
3.9617806e-08
0.012559359
3.4782114e-08
0.012559369
3.0411806e-08
0.012559377
2.6473131e-08
0.012559384
2.2937147e-08
0.01255939
1.9773866e-08
0.012559395
1.695733e-08
0.012559399
1.4460286e-08
0.012559402
1.2258942e-08
0.012559405
1.032809e-08
0.012559408
8.6455694e-09
0.012559409
7.187878e-09
0.012559411
5.9343988e-09
0.012559412
4.8633813e-09
0.012559413
3.9559118e-09
0.012559414
3.1922524e-09
0.012559415
2.5555786e-09
0.012559415
2.0285329e-09
0.012559415
1.5967054e-09
0.012559416
1.245383e-09
0.012559416
9.6282323e-10
0.012559416
7.3705011e-10
0.012559416
5.5899164e-10
0.012559416
4.1924657e-10
0.012559416
3.1123128e-10
0.012559416
2.2774908e-10
0.012559416
1.645052e-10
0.012559416
1.1600049e-10
0.012559416
7.9967565e-11
0.012559416
5.1970125e-11
0.012559416
3.0839339e-11
0.012559416
1.3925869e-11
8.0402695e-14
0.013408671
2.8910533e-11
0.013413803
9.2267299e-11
0.013421883
4.4546948e-11
0.013430756
2.3704743e-11
0.01343901
6.0527358e-11
0.013446416
1.5485809e-10
0.013453236
2.2943837e-10
0.013459671
2.59676e-10
0.013465754
2.6211402e-10
0.013471448
2.5905494e-10
0.013476733
2.5599297e-10
0.013481631
2.4676129e-10
0.013486179
2.2959366e-10
0.01349041
2.044539e-10
0.013494352
1.7626709e-10
0.013498024
1.4520013e-10
0.013501444
1.1436816e-10
0.013504629
8.1821777e-11
0.013507595
5.0853543e-11
0.013510357
2.0194348e-11
0.013512929
-8.8121172e-12
0.013515323
-3.6749093e-11
0.013517551
-6.0644875e-11
0.013519624
-8.3401897e-11
0.013521552
-1.0182323e-10
0.013523344
-1.1900456e-10
0.013525009
-1.3176853e-10
0.013526556
-1.4324452e-10
0.013527993
-1.503698e-10
0.013529326
-1.5657219e-10
0.013530562
-1.5882033e-10
0.013531709
-1.6040918e-10
0.013532771
-1.5846021e-10
0.013533755
-1.5637086e-10
0.013534666
-1.5129577e-10
0.013535508
-1.4632015e-10
0.013536287
-1.3874602e-10
0.013537006
-1.3165039e-10
0.013537671
-1.223895e-10
0.013538284
-1.1372522e-10
0.013538849
-1.0319244e-10
0.01353937
-9.3547418e-11
0.013539849
-8.2433127e-11
0.01354029
-7.2322872e-11
0.013540696
-6.1061649e-11
0.013541068
-5.1086302e-11
0.013541409
-4.03599e-11
0.013541722
-3.1014745e-11
0.013542009
-2.121905e-11
0.013542271
-1.2989882e-11
0.01354251
-4.8043833e-12
0.013542729
2.2764725e-12
0.013542928
9.1590418e-12
0.01354311
1.4387308e-11
0.013543274
1.9636828e-11
0.013543424
2.3345817e-11
0.013543559
2.7172578e-11
0.013543682
2.9572862e-11
0.013543793
3.2169307e-11
0.013543892
3.3611296e-11
0.013543982
3.5415275e-11
0.013544063
3.6244487e-11
0.013544135
3.7535611e-11
0.013544199
3.8098422e-11
0.013544256
3.92281e-11
0.013544307
3.9722965e-11
0.013544352
4.0773321e-11
0.013544392
4.1287239e-11
0.013544426
4.2312526e-11
0.013544457
4.2747583e-11
0.013544483
4.3553318e-11
0.013544506
4.3738244e-11
0.013544526
4.4160505e-11
0.013544543
4.3850813e-11
0.013544557
4.3629245e-11
0.013544569
4.2653877e-11
0.01354458
4.1694364e-11
0.013544588
3.9953676e-11
0.013544595
3.820408e-11
0.013544601
3.5768017e-11
0.013544606
3.3391763e-11
0.01354461
3.0425878e-11
0.013544613
2.7622045e-11
0.013544616
2.4407608e-11
0.013544618
2.1498151e-11
0.013544619
1.8304223e-11
0.013544621
1.5532132e-11
0.013544622
1.2614863e-11
0.013544622
1.0219176e-11
0.013544623
7.7133008e-12
0.013544623
5.7472524e-12
0.013544624
3.6316632e-12
0.013544624
2.0819363e-12
0.013544624
4.0930395e-13
0.013544624
-7.6418949e-13
0.013544624
-1.999697e-12
0.013544624
-3.2001445e-12
0.013544624
-4.4258609e-12
0.013544624
-8.9847678e-12
-1.0870672e-11
0.01340867
-9.5938533e-07
0.013413803
-5.1317631e-06
0.013421882
-8.080074e-06
0.013430756
-8.8744553e-06
0.01343901
-8.2544558e-06
0.013446415
-7.4059912e-06
0.013453236
-6.8203167e-06
0.01345967
-6.4350052e-06
0.013465754
-6.0834791e-06
0.013471447
-5.6936524e-06
0.013476733
-5.285806e-06
0.013481631
-4.8979545e-06
0.013486179
-4.5474403e-06
0.013490411
-4.2316916e-06
0.013494353
-3.9419308e-06
0.013498025
-3.6721082e-06
0.013501445
-3.4199658e-06
0.013504629
-3.1848347e-06
0.013507595
-2.9659301e-06
0.013510357
-2.762045e-06
0.013512929
-2.5718489e-06
0.013515323
-2.3941955e-06
0.013517551
-2.2281512e-06
0.013519624
-2.0729478e-06
0.013521552
-1.927879e-06
0.013523344
-1.792297e-06
0.013525009
-1.6655808e-06
0.013526557
-1.5471692e-06
0.013527993
-1.4365295e-06
0.013529326
-1.3331815e-06
0.013530562
-1.2366628e-06
0.013531709
-1.1465543e-06
0.013532771
-1.0624489e-06
0.013533755
-9.8397824e-07
0.013534666
-9.1078292e-07
0.013535508
-8.4253891e-07
0.013536287
-7.7892858e-07
0.013537006
-7.1966636e-07
0.013537671
-6.6447093e-07
0.013538284
-6.130905e-07
0.013538849
-5.6527621e-07
0.01353937
-5.2080609e-07
0.013539849
-4.7945976e-07
0.01354029
-4.4104162e-07
0.013540695
-4.0535688e-07
0.013541067
-3.7223325e-07
0.013541409
-3.4149834e-07
0.013541722
-3.1300051e-07
0.013542008
-2.8658752e-07
0.013542271
-2.6212591e-07
0.01354251
-2.3948107e-07
0.013542729
-2.1853553e-07
0.013542928
-1.9917073e-07
0.013543109
-1.8128351e-07
0.013543274
-1.6476898e-07
0.013543424
-1.4953673e-07
0.013543559
-1.3549448e-07
0.013543682
-1.2256317e-07
0.013543792
-1.1066168e-07
0.013543892
-9.9721162e-08
0.013543982
-8.9670806e-08
0.013544062
-8.045102e-08
0.013544134
-7.2000183e-08
0.013544199
-6.4267081e-08
0.013544256
-5.7198536e-08
0.013544307
-5.0750781e-08
0.013544352
-4.4877944e-08
0.013544391
-3.9542686e-08
0.013544426
-3.4705465e-08
0.013544456
-3.0334209e-08
0.013544483
-2.6394361e-08
0.013544506
-2.2857919e-08
0.013544526
-1.9694214e-08
0.013544542
-1.6878175e-08
0.013544557
-1.4381859e-08
0.013544569
-1.2182257e-08
0.013544579
-1.0253513e-08
0.013544588
-8.5741477e-09
0.013544595
-7.1199543e-09
0.013544601
-5.8708812e-09
0.013544606
-4.8044883e-09
0.01354461
-3.9023536e-09
0.013544613
-3.1440085e-09
0.013544616
-2.5130627e-09
0.013544618
-1.9914806e-09
0.013544619
-1.5652847e-09
0.013544621
-1.2190881e-09
0.013544621
-9.4159938e-10
0.013544622
-7.2024852e-10
0.013544623
-5.4648002e-10
0.013544623
-4.1033209e-10
0.013544623
-3.0582244e-10
0.013544624
-2.2518948e-10
0.013544624
-1.6475414e-10
0.013544624
-1.1825665e-10
0.013544624
-8.4267111e-11
0.013544624
-5.7966605e-11
0.013544624
-3.8521647e-11
0.013544624
-2.7849999e-11
-1.6767165e-11
0.012486063
-1.9048815e-06
0.012490384
-9.4513539e-06
0.012496585
-1.4281201e-05
0.012502893
-1.5183613e-05
0.012508473
-1.3834893e-05
0.012513311
-1.2244406e-05
0.012517604
-1.1113411e-05
0.012521483
-1.0314714e-05
0.012524991
-9.5916588e-06
0.01252814
-8.8433847e-06
0.012530954
-8.1005026e-06
0.012533471
-7.4150455e-06
0.012535731
-6.8074139e-06
0.012537769
-6.2695619e-06
0.012539612
-5.7854672e-06
0.012541284
-5.3436541e-06
0.012542802
-4.9385198e-06
0.012544184
-4.567073e-06
0.012545445
-4.226532e-06
0.012546596
-3.9137701e-06
0.01254765
-3.6257559e-06
0.012548616
-3.3598768e-06
0.012549502
-3.1140238e-06
0.012550315
-2.8864189e-06
0.012551063
-2.6755282e-06
0.01255175
-2.4799534e-06
0.012552383
-2.298457e-06
0.012552966
-2.1299088e-06
0.012553503
-1.9733176e-06
0.012553997
-1.8277703e-06
0.012554453
-1.69246e-06
0.012554873
-1.566631e-06
0.01255526
-1.4496133e-06
0.012555617
-1.3407723e-06
0.012555946
-1.2395452e-06
0.012556249
-1.1453944e-06
0.012556528
-1.057843e-06
0.012556784
-9.7643105e-07
0.012557021
-9.007509e-07
0.012557238
-8.304064e-07
0.012557438
-7.6504724e-07
0.012557621
-7.0433011e-07
0.01255779
-6.4795229e-07
0.012557945
-5.9561526e-07
0.012558086
-5.4705657e-07
0.012558216
-5.0201552e-07
0.012558335
-4.6026377e-07
0.012558443
-4.2157332e-07
0.012558543
-3.8574517e-07
0.012558633
-3.5257927e-07
0.012558715
-3.2190185e-07
0.012558791
-2.9353733e-07
0.012558859
-2.6733392e-07
0.012558921
-2.431373e-07
0.012558977
-2.2081473e-07
0.012559027
-2.0023075e-07
0.012559073
-1.8126958e-07
0.012559114
-1.6381237e-07
0.012559152
-1.4775839e-07
0.012559185
-1.3300385e-07
0.012559215
-1.1946165e-07
0.012559241
-1.0704153e-07
0.012559265
-9.5668577e-08
0.012559286
-8.5264859e-08
0.012559304
-7.5766445e-08
0.012559321
-6.7106211e-08
0.012559335
-5.9229697e-08
0.012559348
-5.2079153e-08
0.012559359
-4.5608037e-08
0.012559368
-3.9766126e-08
0.012559376
-3.4513e-08
0.012559383
-2.9804287e-08
0.012559389
-2.5604072e-08
0.012559394
-2.1872135e-08
0.012559398
-1.8575633e-08
0.012559402
-1.5677397e-08
0.012559405
-1.3146843e-08
0.012559407
-1.0949129e-08
0.012559409
-9.055605e-09
0.012559411
-7.4337737e-09
0.012559412
-6.057201e-09
0.012559413
-4.8960143e-09
0.012559414
-3.9265019e-09
0.012559414
-3.1220399e-09
0.012559415
-2.4622789e-09
0.012559415
-1.9242544e-09
0.012559415
-1.4913595e-09
0.012559416
-1.1446115e-09
0.012559416
-8.7127936e-10
0.012559416
-6.5625396e-10
0.012559416
-4.9035554e-10
0.012559416
-3.6205167e-10
0.012559416
-2.6516992e-10
0.012559416
-1.9114009e-10
0.012559416
-1.360438e-10
0.012559416
-9.4074657e-11
0.012559416
-6.1815645e-11
0.012559416
-3.7320921e-11
0.012559416
-1.7923677e-11
-3.7553811e-12
0.010560162
-2.6619226e-06
0.010562156
-1.1445193e-05
0.010563876
-1.6000082e-05
0.010564696
-1.6004409e-05
0.010564823
-1.3962435e-05
0.010564497
-1.1918865e-05
0.010563832
-1.0449741e-05
0.010562899
-9.3814512e-06
0.010561772
-8.4653454e-06
0.01056053
-7.6024355e-06
0.010559236
-6.806019e-06
0.010557927
-6.1070737e-06
0.010556631
-5.5108175e-06
0.010555362
-5.0010406e-06
0.010554133
-4.5571607e-06
0.010552954
-4.1640685e-06
0.010551828
-3.8128744e-06
0.010550759
-3.4979884e-06
0.010549747
-3.2148298e-06
0.010548792
-2.9591391e-06
0.010547893
-2.7271372e-06
0.010547049
-2.5157116e-06
0.010546257
-2.3223869e-06
0.010545516
-2.1451574e-06
0.010544823
-1.9823393e-06
0.010544175
-1.8324788e-06
0.010543571
-1.6943147e-06
0.010543008
-1.5667493e-06
0.010542484
-1.4488283e-06
0.010541996
-1.3397127e-06
0.010541542
-1.2386635e-06
0.01054112
-1.1450201e-06
0.010540729
-1.0581932e-06
0.010540366
-9.7765086e-07
0.010540029
-9.0291505e-07
0.010539717
-8.3355049e-07
0.010539429
-7.6916292e-07
0.010539162
-7.0939043e-07
0.010538915
-6.5390365e-07
0.010538687
-6.0239815e-07
0.010538476
-5.5459534e-07
0.010538282
-5.1023639e-07
0.010538103
-4.6908389e-07
0.010537939
-4.3091621e-07
0.010537787
-3.9552926e-07
0.010537648
-3.6273186e-07
0.01053752
-3.3234788e-07
0.010537403
-3.0421173e-07
0.010537295
-2.7817048e-07
0.010537197
-2.5407997e-07
0.010537107
-2.3180721e-07
0.010537024
-2.1122653e-07
0.010536949
-1.9222176e-07
0.010536881
-1.7468303e-07
0.010536818
-1.5850899e-07
0.010536762
-1.4360369e-07
0.01053671
-1.2987859e-07
0.010536664
-1.1724991e-07
0.010536622
-1.0564073e-07
0.010536584
-9.4978343e-08
0.01053655
-8.5196075e-08
0.010536519
-7.6231087e-08
0.010536491
-6.8026144e-08
0.010536466
-6.0527371e-08
0.010536444
-5.3685757e-08
0.010536425
-4.7455195e-08
0.010536407
-4.1793901e-08
0.010536392
-3.666239e-08
0.010536378
-3.2024634e-08
0.010536366
-2.784631e-08
0.010536356
-2.4095915e-08
0.010536347
-2.0743005e-08
0.010536339
-1.7759182e-08
0.010536332
-1.5116647e-08
0.010536327
-1.2789251e-08
0.010536322
-1.0751121e-08
0.010536318
-8.9776868e-09
0.010536314
-7.4446114e-09
0.010536311
-6.1289313e-09
0.010536309
-5.0080122e-09
0.010536307
-4.0606628e-09
0.010536305
-3.2662736e-09
0.010536304
-2.6059921e-09
0.010536303
-2.0617493e-09
0.010536302
-1.6173637e-09
0.010536301
-1.2576061e-09
0.010536301
-9.6932016e-10
0.0105363
-7.4030298e-10
0.0105363
-5.6030837e-10
0.0105363
-4.200082e-10
0.0105363
-3.1183476e-10
0.010536299
-2.2909933e-10
0.010536299
-1.6625211e-10
0.010536299
-1.188839e-10
0.010536299
-8.2932507e-11
0.010536299
-5.5989982e-11
0.010536299
-3.3233201e-11
0.010536299
-1.6066444e-11
0.010536299
5.3308105e-12
1.5982648e-11
0.0074762172
-2.4774959e-06
0.0074730718
-8.2987546e-06
0.0074672341
-1.0162085e-05
0.0074603647
-9.1354929e-06
0.007453634
-7.2325322e-06
0.0074473696
-5.6551681e-06
0.0074415399
-4.6207563e-06
0.0074360961
-3.9382663e-06
0.0074310464
-3.4161697e-06
0.0074264144
-2.9709004e-06
0.0074221978
-2.58991e-06
0.0074183665
-2.2761337e-06
0.0074148789
-2.0234904e-06
0.0074116956
-1.8179311e-06
0.0074087835
-1.6453669e-06
0.0074061154
-1.4961295e-06
0.0074036672
-1.3648245e-06
0.0074014175
-1.2484087e-06
0.0073993472
-1.1446598e-06
0.0073974396
-1.0516465e-06
0.0073956801
-9.6770055e-07
0.0073940559
-8.9150576e-07
0.0073925555
-8.2204781e-07
0.0073911688
-7.5854489e-07
0.0073898868
-7.0034318e-07
0.0073887012
-6.4689321e-07
0.0073876046
-5.9770832e-07
0.0073865902
-5.5237778e-07
0.0073856519
-5.1053564e-07
0.0073847841
-4.7187355e-07
0.0073839815
-4.3610995e-07
0.0073832395
-4.0300543e-07
0.0073825537
-3.7233644e-07
0.0073819199
-3.4391303e-07
0.0073813346
-3.1755462e-07
0.0073807942
-2.9310791e-07
0.0073802955
-2.7042444e-07
0.0073798355
-2.4937872e-07
0.0073794115
-2.2984694e-07
0.0073790208
-2.1172474e-07
0.0073786612
-1.949075e-07
0.0073783303
-1.7930766e-07
0.007378026
-1.6483602e-07
0.0073777466
-1.5141827e-07
0.00737749
-1.3897761e-07
0.0073772548
-1.2745067e-07
0.0073770393
-1.16771e-07
0.007376842
-1.0688408e-07
0.0073766615
-9.7731992e-08
0.0073764968
-8.926777e-08
0.0073763464
-8.1440816e-08
0.0073762094
-7.4210397e-08
0.0073760848
-6.7532098e-08
0.0073759715
-6.1370658e-08
0.0073758687
-5.5687102e-08
0.0073757756
-5.0450785e-08
0.0073756914
-4.5627453e-08
0.0073756153
-4.1190658e-08
0.0073755468
-3.7110437e-08
0.0073754852
-3.3363995e-08
0.00737543
-2.9925183e-08
0.0073753805
-2.677461e-08
0.0073753364
-2.3889643e-08
0.0073752972
-2.1253843e-08
0.0073752624
-1.8847658e-08
0.0073752316
-1.6657314e-08
0.0073752045
-1.4665961e-08
0.0073751807
-1.2861954e-08
0.0073751599
-1.1230602e-08
0.0073751418
-9.7619854e-09
0.0073751262
-8.4431003e-09
0.0073751128
-7.2651863e-09
0.0073751012
-6.2164095e-09
0.0073750914
-5.2888448e-09
0.0073750831
-4.4715062e-09
0.0073750761
-3.7569676e-09
0.0073750703
-3.1348565e-09
0.0073750655
-2.5982366e-09
0.0073750615
-2.1373509e-09
0.0073750582
-1.7457467e-09
0.0073750556
-1.4143502e-09
0.0073750535
-1.1374304e-09
0.0073750518
-9.0678566e-10
0.0073750504
-7.175148e-10
0.0073750494
-5.6241168e-10
0.0073750486
-4.376112e-10
0.007375048
-3.3701308e-10
0.0073750475
-2.5775603e-10
0.0073750471
-1.9482815e-10
0.0073750468
-1.4638562e-10
0.0073750466
-1.0836026e-10
0.0073750465
-7.9791477e-11
0.0073750464
-5.7268838e-11
0.0073750463
-4.0900228e-11
0.0073750462
-2.7581614e-11
0.0073750462
-1.7694798e-11
0.0073750462
-8.6312256e-12
0.0073750462
-1.0314423e-12
0.0073750462
1.5367909e-11
2.0246327e-11
0.003022028
0.0030137296
0.0030035674
0.0029944316
0.0029871986
0.0029815431
0.002976922
0.0029729834
0.0029695669
0.0029665958
0.0029640057
0.0029617294
0.0029597057
0.0029578877
0.0029562422
0.002954746
0.0029533811
0.0029521326
0.0029509879
0.0029499362
0.0029489685
0.002948077
0.0029472549
0.0029464963
0.002945796
0.0029451491
0.0029445514
0.002943999
0.0029434885
0.0029430166
0.0029425805
0.0029421775
0.0029418052
0.0029414613
0.0029411437
0.0029408506
0.0029405802
0.0029403308
0.002940101
0.0029398893
0.0029396944
0.0029395151
0.0029393503
0.0029391989
0.0029390599
0.0029389325
0.0029388158
0.0029387089
0.0029386112
0.0029385219
0.0029384405
0.0029383663
0.0029382988
0.0029382374
0.0029381818
0.0029381313
0.0029380857
0.0029380445
0.0029380074
0.0029379741
0.0029379442
0.0029379174
0.0029378935
0.0029378723
0.0029378535
0.0029378368
0.0029378222
0.0029378093
0.0029377981
0.0029377883
0.0029377799
0.0029377726
0.0029377664
0.0029377611
0.0029377567
0.0029377529
0.0029377498
0.0029377472
0.0029377451
0.0029377433
0.0029377419
0.0029377408
0.0029377399
0.0029377392
0.0029377386
0.0029377382
0.0029377378
0.0029377376
0.0029377374
0.0029377373
0.0029377371
0.0029377371
0.002937737
0.002937737
0.0029377369
0.0029377369
0.0029377369
0.0029377369
0.0029377369
)
;

boundaryField
{
    top
    {
        type            calculated;
        value           uniform 0;
    }
    inlet
    {
        type            calculated;
        value           nonuniform List<scalar> 10(-0.0030245037 -0.0074764007 -0.010559404 -0.012485116 -0.013407711 -0.01340771 -0.012485117 -0.010559403 -0.0074764007 -0.0030245049);
    }
    outlet
    {
        type            calculated;
        value           nonuniform List<scalar> 10(0.002937737 0.0073750463 0.010536299 0.012559416 0.013544624 0.013544624 0.012559416 0.010536299 0.0073750462 0.002937737);
    }
    bottom
    {
        type            calculated;
        value           uniform 0;
    }
    back
    {
        type            empty;
        value           nonuniform List<scalar> 0();
    }
    front
    {
        type            empty;
        value           nonuniform List<scalar> 0();
    }
}


// ************************************************************************* //
