/*--------------------------------*- C++ -*----------------------------------*\
| =========                 |                                                 |
| \\      /  F ield         | OpenFOAM: The Open Source CFD Toolbox           |
|  \\    /   O peration     | Version:  2112                                  |
|   \\  /    A nd           | Website:  www.openfoam.com                      |
|    \\/     M anipulation  |                                                 |
\*---------------------------------------------------------------------------*/
FoamFile
{
    version     2.0;
    format      ascii;
    arch        "LSB;label=32;scalar=64";
    class       volVectorField;
    location    "13";
    object      U;
}
// * * * * * * * * * * * * * * * * * * * * * * * * * * * * * * * * * * * * * //

dimensions      [0 1 -1 0 0 0 0];

internalField   nonuniform List<vector> 
1000
(
(0.30239081 0.00021102871 0)
(0.30193729 0.0006199289 0)
(0.30092076 0.00068613887 0)
(0.29989095 0.00052977312 0)
(0.29905741 0.00034982261 0)
(0.29841784 0.00023366913 0)
(0.29791059 0.00017513752 0)
(0.29748629 0.00014382277 0)
(0.29712005 0.00012095145 0)
(0.29680146 0.00010151043 0)
(0.2965242 8.5906201e-05 0)
(0.29628175 7.4431102e-05 0)
(0.29606757 6.6185127e-05 0)
(0.29587613 5.989814e-05 0)
(0.29570344 5.4656596e-05 0)
(0.29554673 5.0032528e-05 0)
(0.29540397 4.5887165e-05 0)
(0.29527355 4.2169276e-05 0)
(0.2951541 3.8826724e-05 0)
(0.29504447 3.5799853e-05 0)
(0.29494366 3.3037717e-05 0)
(0.29485084 3.0504635e-05 0)
(0.29476528 2.8176813e-05 0)
(0.29468636 2.6035687e-05 0)
(0.29461351 2.4064684e-05 0)
(0.29454624 2.224805e-05 0)
(0.29448409 2.0571625e-05 0)
(0.29442666 1.9022699e-05 0)
(0.29437358 1.7590305e-05 0)
(0.29432452 1.6264533e-05 0)
(0.29427918 1.5036689e-05 0)
(0.29423728 1.3898756e-05 0)
(0.29419856 1.2843691e-05 0)
(0.2941628 1.186496e-05 0)
(0.29412977 1.0956839e-05 0)
(0.29409927 1.0113955e-05 0)
(0.29407114 9.3315934e-06 0)
(0.29404518 8.6052785e-06 0)
(0.29402125 7.9310793e-06 0)
(0.2939992 7.3052196e-06 0)
(0.2939789 6.7243882e-06 0)
(0.29396021 6.1853732e-06 0)
(0.29394303 5.6853601e-06 0)
(0.29392724 5.2215907e-06 0)
(0.29391274 4.791654e-06 0)
(0.29389944 4.3931679e-06 0)
(0.29388725 4.0240545e-06 0)
(0.29387608 3.6822422e-06 0)
(0.29386586 3.3659305e-06 0)
(0.29385653 3.0733125e-06 0)
(0.29384801 2.8028231e-06 0)
(0.29384024 2.5528795e-06 0)
(0.29383316 2.3221177e-06 0)
(0.29382673 2.1091513e-06 0)
(0.29382088 1.9127923e-06 0)
(0.29381558 1.7318255e-06 0)
(0.29381079 1.5652186e-06 0)
(0.29380646 1.4119116e-06 0)
(0.29380255 1.271012e-06 0)
(0.29379903 1.1415984e-06 0)
(0.29379587 1.0229044e-06 0)
(0.29379304 9.1413576e-07 0)
(0.29379052 8.146393e-07 0)
(0.29378826 7.2373225e-07 0)
(0.29378626 6.4086037e-07 0)
(0.29378449 5.654385e-07 0)
(0.29378293 4.9699508e-07 0)
(0.29378156 4.3502364e-07 0)
(0.29378035 3.7911726e-07 0)
(0.29377931 3.2883104e-07 0)
(0.2937784 2.8380531e-07 0)
(0.29377762 2.4363838e-07 0)
(0.29377695 2.0800246e-07 0)
(0.29377637 1.7652688e-07 0)
(0.29377589 1.4890596e-07 0)
(0.29377548 1.2479125e-07 0)
(0.29377513 1.0389459e-07 0)
(0.29377485 8.588902e-08 0)
(0.29377461 7.0505874e-08 0)
(0.29377442 5.7441695e-08 0)
(0.29377426 4.6452016e-08 0)
(0.29377414 3.7263398e-08 0)
(0.29377404 2.966248e-08 0)
(0.29377396 2.3410256e-08 0)
(0.29377389 1.8329121e-08 0)
(0.29377384 1.4218747e-08 0)
(0.2937738 1.0940019e-08 0)
(0.29377377 8.3302803e-09 0)
(0.29377375 6.2868343e-09 0)
(0.29377374 4.6837423e-09 0)
(0.29377372 3.4504325e-09 0)
(0.29377371 2.4936785e-09 0)
(0.29377371 1.7633748e-09 0)
(0.2937737 1.1969781e-09 0)
(0.2937737 7.4178989e-10 0)
(0.2937737 3.7860199e-10 0)
(0.2937737 1.8143462e-11 0)
(0.2937737 -2.6911671e-10 0)
(0.2937737 -8.3570175e-10 0)
(0.2937737 -9.404493e-10 0)
(0.74747489 0.00023990081 0)
(0.74788526 0.0010536247 0)
(0.74727202 0.0014854012 0)
(0.74641709 0.0014633976 0)
(0.74566301 0.0012328747 0)
(0.74502488 0.0010004421 0)
(0.74444161 0.00083423589 0)
(0.74388418 0.00071996494 0)
(0.74335587 0.00062988003 0)
(0.74286735 0.00055068961 0)
(0.74242314 0.00048117532 0)
(0.74202101 0.00042287861 0)
(0.74165595 0.00037541775 0)
(0.74132315 0.00033660355 0)
(0.74101887 0.00030400989 0)
(0.74074024 0.00027590202 0)
(0.74048479 0.00025127543 0)
(0.74025027 0.00022953388 0)
(0.74003462 0.00021023163 0)
(0.73983605 0.00019298132 0)
(0.73965297 0.00017745401 0)
(0.73948403 0.00016338982 0)
(0.73932802 0.00015059094 0)
(0.73918387 0.00013890363 0)
(0.73905062 0.00012820255 0)
(0.73892741 0.00011838148 0)
(0.73881345 0.0001093494 0)
(0.73870805 0.00010102805 0)
(0.73861054 9.3350191e-05 0)
(0.73852036 8.6257363e-05 0)
(0.73843695 7.9698422e-05 0)
(0.73835983 7.3628037e-05 0)
(0.73828853 6.800597e-05 0)
(0.73822265 6.2796159e-05 0)
(0.73816178 5.7966324e-05 0)
(0.73810557 5.3487255e-05 0)
(0.73805368 4.9332593e-05 0)
(0.73800582 4.547828e-05 0)
(0.73796168 4.1902456e-05 0)
(0.737921 3.8585021e-05 0)
(0.73788354 3.5507613e-05 0)
(0.73784906 3.2653252e-05 0)
(0.73781735 3.0006362e-05 0)
(0.73778821 2.7552461e-05 0)
(0.73776145 2.527822e-05 0)
(0.7377369 2.3171201e-05 0)
(0.73771439 2.1219927e-05 0)
(0.73769378 1.9413648e-05 0)
(0.73767492 1.7742427e-05 0)
(0.73765769 1.6196931e-05 0)
(0.73764196 1.4768526e-05 0)
(0.73762761 1.3449083e-05 0)
(0.73761455 1.2231073e-05 0)
(0.73760267 1.1107405e-05 0)
(0.73759188 1.0071516e-05 0)
(0.7375821 9.1172139e-06 0)
(0.73757325 8.2387792e-06 0)
(0.73756525 7.4308238e-06 0)
(0.73755803 6.6883822e-06 0)
(0.73755154 6.0067835e-06 0)
(0.7375457 5.3817399e-06 0)
(0.73754048 4.8092304e-06 0)
(0.73753581 4.2855789e-06 0)
(0.73753165 3.8073419e-06 0)
(0.73752795 3.3713803e-06 0)
(0.73752467 2.9747539e-06 0)
(0.73752179 2.6147809e-06 0)
(0.73751925 2.2889343e-06 0)
(0.73751702 1.9948958e-06 0)
(0.73751508 1.7304603e-06 0)
(0.7375134 1.4935821e-06 0)
(0.73751195 1.282286e-06 0)
(0.7375107 1.0947148e-06 0)
(0.73750964 9.290534e-07 0)
(0.73750873 7.8357699e-07 0)
(0.73750797 6.5658469e-07 0)
(0.73750733 5.464547e-07 0)
(0.7375068 4.5159035e-07 0)
(0.73750636 3.7047755e-07 0)
(0.737506 3.0163618e-07 0)
(0.7375057 2.4368193e-07 0)
(0.73750546 1.9528194e-07 0)
(0.73750527 1.5521547e-07 0)
(0.73750512 1.2232496e-07 0)
(0.737505 9.5577916e-08 0)
(0.73750491 7.4013524e-08 0)
(0.73750484 5.6801297e-08 0)
(0.73750478 4.3179117e-08 0)
(0.73750474 3.2509506e-08 0)
(0.73750471 2.4221044e-08 0)
(0.73750469 1.7845101e-08 0)
(0.73750467 1.2982773e-08 0)
(0.73750466 9.2832744e-09 0)
(0.73750465 6.5081334e-09 0)
(0.73750464 4.3486911e-09 0)
(0.73750464 2.7530245e-09 0)
(0.73750463 1.3361097e-09 0)
(0.73750463 3.6393315e-10 0)
(0.73750463 -9.5236629e-10 0)
(0.73750463 -1.5529333e-09 0)
(1.0556152 0.00018977829 0)
(1.0567756 0.00097773317 0)
(1.0567691 0.0015340022 0)
(1.0565066 0.0016779147 0)
(1.0563934 0.0015635489 0)
(1.0564042 0.0013867496 0)
(1.0564132 0.0012418431 0)
(1.0563606 0.0011345646 0)
(1.0562547 0.0010428081 0)
(1.0561248 0.00095334527 0)
(1.0559905 0.00086614084 0)
(1.0558584 0.00078566387 0)
(1.0557284 0.00071442768 0)
(1.0556004 0.0006520312 0)
(1.0554753 0.00059681594 0)
(1.0553543 0.00054729904 0)
(1.0552386 0.00050256894 0)
(1.0551286 0.00046207973 0)
(1.0550245 0.00042539301 0)
(1.0549261 0.0003920778 0)
(1.0548334 0.00036172362 0)
(1.0547463 0.00033397394 0)
(1.0546645 0.00030853501 0)
(1.0545878 0.00028516475 0)
(1.0545161 0.00026365743 0)
(1.0544491 0.0002438338 0)
(1.0543866 0.00022553618 0)
(1.0543283 0.0002086261 0)
(1.0542739 0.00019298181 0)
(1.0542233 0.00017849596 0)
(1.0541763 0.00016507306 0)
(1.0541326 0.00015262781 0)
(1.0540919 0.00014108348 0)
(1.0540543 0.0001303709 0)
(1.0540193 0.00012042737 0)
(1.0539869 0.00011119599 0)
(1.0539569 0.00010262479 0)
(1.0539292 9.4666323e-05 0)
(1.0539035 8.7276965e-05 0)
(1.0538798 8.0416674e-05 0)
(1.0538579 7.4048468e-05 0)
(1.0538377 6.8138249e-05 0)
(1.0538191 6.2654402e-05 0)
(1.053802 5.7567674e-05 0)
(1.0537862 5.2850852e-05 0)
(1.0537716 4.8478697e-05 0)
(1.0537583 4.4427669e-05 0)
(1.0537461 4.0675889e-05 0)
(1.0537348 3.7202907e-05 0)
(1.0537245 3.3989695e-05 0)
(1.0537151 3.1018438e-05 0)
(1.0537065 2.8272541e-05 0)
(1.0536987 2.5736446e-05 0)
(1.0536915 2.3395656e-05 0)
(1.053685 2.1236584e-05 0)
(1.053679 1.9246566e-05 0)
(1.0536736 1.7413736e-05 0)
(1.0536687 1.5727053e-05 0)
(1.0536643 1.4176183e-05 0)
(1.0536603 1.2751533e-05 0)
(1.0536567 1.1444145e-05 0)
(1.0536535 1.0245733e-05 0)
(1.0536505 9.1485844e-06 0)
(1.0536479 8.1455817e-06 0)
(1.0536456 7.2301177e-06 0)
(1.0536435 6.3961089e-06 0)
(1.0536416 5.6379057e-06 0)
(1.05364 4.950296e-06 0)
(1.0536386 4.3284177e-06 0)
(1.0536373 3.7677571e-06 0)
(1.0536362 3.2640621e-06 0)
(1.0536352 2.8133376e-06 0)
(1.0536343 2.411771e-06 0)
(1.0536336 2.0557333e-06 0)
(1.053633 1.7417183e-06 0)
(1.0536325 1.4663525e-06 0)
(1.053632 1.226355e-06 0)
(1.0536316 1.0185607e-06 0)
(1.0536313 8.3989593e-07 0)
(1.053631 6.8740891e-07 0)
(1.0536308 5.5826281e-07 0)
(1.0536306 4.4976726e-07 0)
(1.0536305 3.5938038e-07 0)
(1.0536304 2.8473128e-07 0)
(1.0536303 2.2362907e-07 0)
(1.0536302 1.7407287e-07 0)
(1.0536301 1.3425876e-07 0)
(1.0536301 1.0257653e-07 0)
(1.05363 7.7608279e-08 0)
(1.05363 5.8128836e-08 0)
(1.05363 4.3068164e-08 0)
(1.05363 3.1555855e-08 0)
(1.05363 2.2790425e-08 0)
(1.05363 1.6220077e-08 0)
(1.05363 1.1217815e-08 0)
(1.0536299 7.5338341e-09 0)
(1.0536299 4.6044275e-09 0)
(1.0536299 2.4635236e-09 0)
(1.0536299 6.0294944e-10 0)
(1.0536299 -6.2354043e-10 0)
(1.2480463 0.00011775851 0)
(1.2496697 0.00065929468 0)
(1.2500152 0.0010893706 0)
(1.2501079 0.0012459488 0)
(1.2504377 0.0012050317 0)
(1.2509696 0.0011015073 0)
(1.2515203 0.0010119446 0)
(1.2519855 0.00094705989 0)
(1.2523602 0.00089162902 0)
(1.2526775 0.00083461536 0)
(1.2529634 0.00077538201 0)
(1.2532263 0.00071781872 0)
(1.253466 0.00066478242 0)
(1.2536819 0.0006167403 0)
(1.2538757 0.0005728907 0)
(1.2540504 0.00053238298 0)
(1.2542089 0.00049474557 0)
(1.2543532 0.00045977103 0)
(1.254485 0.00042731023 0)
(1.2546052 0.00039718385 0)
(1.2547152 0.00036919201 0)
(1.2548159 0.00034314814 0)
(1.2549082 0.00031889362 0)
(1.254993 0.00029629481 0)
(1.2550708 0.0002752336 0)
(1.2551424 0.00025560223 0)
(1.2552083 0.00023730071 0)
(1.2552689 0.00022023721 0)
(1.2553248 0.00020432715 0)
(1.2553763 0.00018949307 0)
(1.2554237 0.00017566311 0)
(1.2554674 0.00016277098 0)
(1.2555077 0.0001507547 0)
(1.2555448 0.00013955694 0)
(1.255579 0.00012912397 0)
(1.2556106 0.00011940603 0)
(1.2556396 0.00011035636 0)
(1.2556663 0.0001019316 0)
(1.2556909 9.4090918e-05 0)
(1.2557136 8.6796429e-05 0)
(1.2557344 8.0012404e-05 0)
(1.2557535 7.3705665e-05 0)
(1.2557711 6.7844894e-05 0)
(1.2557872 6.2401007e-05 0)
(1.255802 5.7346515e-05 0)
(1.2558156 5.2655897e-05 0)
(1.255828 4.8305007e-05 0)
(1.2558393 4.4271437e-05 0)
(1.2558497 4.0533965e-05 0)
(1.2558591 3.707291e-05 0)
(1.2558678 3.3869615e-05 0)
(1.2558756 3.0906802e-05 0)
(1.2558828 2.8168066e-05 0)
(1.2558893 2.5638224e-05 0)
(1.2558951 2.3302871e-05 0)
(1.2559005 2.1148689e-05 0)
(1.2559053 1.9163044e-05 0)
(1.2559096 1.733428e-05 0)
(1.2559135 1.5651345e-05 0)
(1.255917 1.4104075e-05 0)
(1.2559202 1.2682849e-05 0)
(1.255923 1.1378851e-05 0)
(1.2559255 1.0183751e-05 0)
(1.2559277 9.0899504e-06 0)
(1.2559297 8.0902795e-06 0)
(1.2559314 7.1782219e-06 0)
(1.2559329 6.347626e-06 0)
(1.2559343 5.5929078e-06 0)
(1.2559354 4.9087764e-06 0)
(1.2559365 4.2904146e-06 0)
(1.2559373 3.7332187e-06 0)
(1.2559381 3.2329646e-06 0)
(1.2559387 2.7855663e-06 0)
(1.2559392 2.3872318e-06 0)
(1.2559397 2.0342451e-06 0)
(1.2559401 1.7231203e-06 0)
(1.2559404 1.4504111e-06 0)
(1.2559407 1.2128645e-06 0)
(1.2559409 1.0072583e-06 0)
(1.255941 8.3055545e-07 0)
(1.2559412 6.7976723e-07 0)
(1.2559413 5.5210177e-07 0)
(1.2559414 4.4484712e-07 0)
(1.2559414 3.5550982e-07 0)
(1.2559415 2.8171077e-07 0)
(1.2559415 2.2130785e-07 0)
(1.2559416 1.7229662e-07 0)
(1.2559416 1.3291976e-07 0)
(1.2559416 1.0156114e-07 0)
(1.2559416 7.6853312e-08 0)
(1.2559416 5.7544703e-08 0)
(1.2559416 4.2635097e-08 0)
(1.2559416 3.1177116e-08 0)
(1.2559416 2.2502161e-08 0)
(1.2559416 1.5900872e-08 0)
(1.2559416 1.0985114e-08 0)
(1.2559416 7.2157143e-09 0)
(1.2559416 4.3635348e-09 0)
(1.2559416 2.1479625e-09 0)
(1.2559416 3.5027763e-10 0)
(1.3402274 3.9603555e-05 0)
(1.3420722 0.00022990883 0)
(1.3425699 0.00038838379 0)
(1.3428088 0.00045249689 0)
(1.343333 0.00044367342 0)
(1.3441129 0.00040948719 0)
(1.3449375 0.00037915254 0)
(1.3456763 0.00035778117 0)
(1.3463144 0.00033994102 0)
(1.346886 0.00032124795 0)
(1.3474197 0.00030124318 0)
(1.3479242 0.00028136818 0)
(1.3483979 0.00026278849 0)
(1.3488386 0.00024576754 0)
(1.3492474 0.00023005138 0)
(1.3496271 0.00021534473 0)
(1.3499806 0.00020149362 0)
(1.3503101 0.00018844856 0)
(1.3506172 0.0001761842 0)
(1.3509032 0.00016466161 0)
(1.3511695 0.00015383067 0)
(1.3514175 0.00014364287 0)
(1.3516482 0.00013405767 0)
(1.351863 0.00012504166 0)
(1.3520627 0.00011656523 0)
(1.3522484 0.00010860049 0)
(1.3524211 0.00010112056 0)
(1.3525815 9.4099776e-05 0)
(1.3527304 8.7513704e-05 0)
(1.3528687 8.1339121e-05 0)
(1.352997 7.5553817e-05 0)
(1.353116 7.0136542e-05 0)
(1.3532262 6.5066892e-05 0)
(1.3533284 6.0325353e-05 0)
(1.353423 5.5893243e-05 0)
(1.3535105 5.1752755e-05 0)
(1.3535914 4.788688e-05 0)
(1.3536662 4.4279442e-05 0)
(1.3537353 4.0915024e-05 0)
(1.3537991 3.7779012e-05 0)
(1.3538579 3.4857507e-05 0)
(1.3539121 3.2137356e-05 0)
(1.353962 2.9606077e-05 0)
(1.354008 2.7251891e-05 0)
(1.3540502 2.5063637e-05 0)
(1.354089 2.3030795e-05 0)
(1.3541247 2.1143412e-05 0)
(1.3541573 1.9392132e-05 0)
(1.3541873 1.776811e-05 0)
(1.3542146 1.6263035e-05 0)
(1.3542397 1.4869069e-05 0)
(1.3542625 1.3578843e-05 0)
(1.3542834 1.2385429e-05 0)
(1.3543024 1.1282332e-05 0)
(1.3543196 1.0263426e-05 0)
(1.3543353 9.3229874e-06 0)
(1.3543495 8.4556263e-06 0)
(1.3543624 7.6563121e-06 0)
(1.3543741 6.9203156e-06 0)
(1.3543846 6.2432392e-06 0)
(1.354394 5.620955e-06 0)
(1.3544025 5.0496334e-06 0)
(1.3544101 4.5256899e-06 0)
(1.3544169 4.0458135e-06 0)
(1.354423 3.6069106e-06 0)
(1.3544283 3.2061289e-06 0)
(1.3544331 2.8408064e-06 0)
(1.3544373 2.5084937e-06 0)
(1.354441 2.2068987e-06 0)
(1.3544443 1.9339044e-06 0)
(1.3544471 1.6875184e-06 0)
(1.3544496 1.4658902e-06 0)
(1.3544517 1.2672594e-06 0)
(1.3544535 1.0899719e-06 0)
(1.3544551 9.3243693e-07 0)
(1.3544564 7.9314611e-07 0)
(1.3544575 6.7063482e-07 0)
(1.3544584 5.6350203e-07 0)
(1.3544592 4.7038472e-07 0)
(1.3544599 3.8998015e-07 0)
(1.3544604 3.2102567e-07 0)
(1.3544608 2.6232022e-07 0)
(1.3544612 2.1271464e-07 0)
(1.3544615 1.7113088e-07 0)
(1.3544617 1.365544e-07 0)
(1.3544619 1.0804744e-07 0)
(1.354462 8.4747434e-08 0)
(1.3544621 6.5874001e-08 0)
(1.3544622 5.0725059e-08 0)
(1.3544623 3.8677826e-08 0)
(1.3544623 2.9184994e-08 0)
(1.3544623 2.1771926e-08 0)
(1.3544624 1.6030233e-08 0)
(1.3544624 1.1621267e-08 0)
(1.3544624 8.2575994e-09 0)
(1.3544624 5.7206925e-09 0)
(1.3544624 3.7674666e-09 0)
(1.3544624 2.2664725e-09 0)
(1.3544624 9.1553447e-10 0)
(1.3544624 -2.3993435e-10 0)
(1.3402272 -3.9603526e-05 0)
(1.3420721 -0.00022990791 0)
(1.3425698 -0.00038838441 0)
(1.3428087 -0.00045249449 0)
(1.343333 -0.00044365948 0)
(1.3441129 -0.00040945735 0)
(1.3449374 -0.00037911 0)
(1.3456763 -0.00035773173 0)
(1.3463144 -0.00033988899 0)
(1.346886 -0.00032119534 0)
(1.3474197 -0.00030119111 0)
(1.3479242 -0.00028131811 0)
(1.3483979 -0.00026274189 0)
(1.3488386 -0.00024572582 0)
(1.3492475 -0.00023001525 0)
(1.3496272 -0.00021531478 0)
(1.3499807 -0.00020146992 0)
(1.3503101 -0.0001884314 0)
(1.3506172 -0.00017617333 0)
(1.3509032 -0.00016465707 0)
(1.3511696 -0.00015383192 0)
(1.3514175 -0.00014364964 0)
(1.3516482 -0.00013406928 0)
(1.351863 -0.00012505781 0)
(1.3520627 -0.00011658518 0)
(1.3522484 -0.00010862388 0)
(1.3524211 -0.00010114662 0)
(1.3525815 -9.4128137e-05 0)
(1.3527304 -8.754362e-05 0)
(1.3528687 -8.1370278e-05 0)
(1.352997 -7.5585538e-05 0)
(1.353116 -7.0168578e-05 0)
(1.3532262 -6.509865e-05 0)
(1.3533284 -6.0356677e-05 0)
(1.353423 -5.5923639e-05 0)
(1.3535105 -5.1782134e-05 0)
(1.3535914 -4.7914826e-05 0)
(1.3536662 -4.4305935e-05 0)
(1.3537353 -4.0939726e-05 0)
(1.3537991 -3.7801946e-05 0)
(1.3538579 -3.4878392e-05 0)
(1.3539121 -3.2156269e-05 0)
(1.353962 -2.9622807e-05 0)
(1.354008 -2.7266558e-05 0)
(1.3540502 -2.5076089e-05 0)
(1.354089 -2.3041205e-05 0)
(1.3541246 -2.1151697e-05 0)
(1.3541573 -1.9398504e-05 0)
(1.3541872 -1.7772535e-05 0)
(1.3542146 -1.6265766e-05 0)
(1.3542396 -1.4870115e-05 0)
(1.3542625 -1.3578493e-05 0)
(1.3542833 -1.2383725e-05 0)
(1.3543023 -1.1279544e-05 0)
(1.3543196 -1.0259603e-05 0)
(1.3543353 -9.3183809e-06 0)
(1.3543495 -8.4502729e-06 0)
(1.3543624 -7.6504379e-06 0)
(1.354374 -6.9139371e-06 0)
(1.3543845 -6.2365377e-06 0)
(1.354394 -5.6139139e-06 0)
(1.3544025 -5.0423953e-06 0)
(1.3544101 -4.5182119e-06 0)
(1.3544169 -4.0381976e-06 0)
(1.3544229 -3.5990913e-06 0)
(1.3544283 -3.1981869e-06 0)
(1.3544331 -2.8326722e-06 0)
(1.3544373 -2.5002359e-06 0)
(1.354441 -2.1984547e-06 0)
(1.3544442 -1.9253518e-06 0)
(1.3544471 -1.6788175e-06 0)
(1.3544495 -1.4571317e-06 0)
(1.3544517 -1.2584288e-06 0)
(1.3544535 -1.0811815e-06 0)
(1.354455 -9.2369833e-07 0)
(1.3544564 -7.8458267e-07 0)
(1.3544575 -6.6227165e-07 0)
(1.3544584 -5.5546758e-07 0)
(1.3544592 -4.6270647e-07 0)
(1.3544599 -3.8277306e-07 0)
(1.3544604 -3.1430303e-07 0)
(1.3544608 -2.5617662e-07 0)
(1.3544612 -2.0714078e-07 0)
(1.3544615 -1.6618958e-07 0)
(1.3544617 -1.3220728e-07 0)
(1.3544619 -1.0433036e-07 0)
(1.354462 -8.1596702e-08 0)
(1.3544621 -6.330058e-08 0)
(1.3544622 -4.8644937e-08 0)
(1.3544623 -3.7093115e-08 0)
(1.3544623 -2.8004192e-08 0)
(1.3544623 -2.1005794e-08 0)
(1.3544624 -1.5586e-08 0)
(1.3544624 -1.151992e-08 0)
(1.3544624 -8.3899007e-09 0)
(1.3544624 -6.0767083e-09 0)
(1.3544624 -4.3481742e-09 0)
(1.3544624 -3.0026321e-09 0)
(1.3544624 -2.4403093e-09 0)
(1.3544624 -1.8316404e-09 0)
(1.2480463 -0.00011775912 0)
(1.2496697 -0.00065930658 0)
(1.2500152 -0.0010893901 0)
(1.2501078 -0.0012459651 0)
(1.2504377 -0.0012050362 0)
(1.2509696 -0.0011014976 0)
(1.2515203 -0.0010119229 0)
(1.2519855 -0.00094703032 0)
(1.2523602 -0.0008915946 0)
(1.2526776 -0.000834578 0)
(1.2529635 -0.00077534333 0)
(1.2532264 -0.00071778026 0)
(1.2534661 -0.00066474585 0)
(1.2536819 -0.00061670685 0)
(1.2538757 -0.0005728614 0)
(1.2540504 -0.00053235832 0)
(1.2542089 -0.00049472606 0)
(1.2543533 -0.00045975673 0)
(1.254485 -0.0004273013 0)
(1.2546053 -0.00039718 0)
(1.2547153 -0.00036919314 0)
(1.254816 -0.00034315382 0)
(1.2549083 -0.00031890359 0)
(1.254993 -0.00029630846 0)
(1.2550709 -0.00027525062 0)
(1.2551424 -0.00025562196 0)
(1.2552083 -0.0002373228 0)
(1.255269 -0.00022026101 0)
(1.2553248 -0.00020435234 0)
(1.2553763 -0.00018951906 0)
(1.2554237 -0.00017568964 0)
(1.2554674 -0.00016279751 0)
(1.2555077 -0.00015078105 0)
(1.2555448 -0.00013958267 0)
(1.255579 -0.00012914897 0)
(1.2556105 -0.00011942994 0)
(1.2556396 -0.00011037912 0)
(1.2556663 -0.00010195293 0)
(1.2556909 -9.4110804e-05 0)
(1.2557135 -8.6814639e-05 0)
(1.2557343 -8.0028974e-05 0)
(1.2557535 -7.3720424e-05 0)
(1.255771 -6.7857918e-05 0)
(1.2557871 -6.2412173e-05 0)
(1.2558019 -5.7355946e-05 0)
(1.2558155 -5.266353e-05 0)
(1.2558279 -4.8311e-05 0)
(1.2558392 -4.4275771e-05 0)
(1.2558496 -4.0536836e-05 0)
(1.255859 -3.7074344e-05 0)
(1.2558677 -3.3869828e-05 0)
(1.2558755 -3.0905823e-05 0)
(1.2558827 -2.8166113e-05 0)
(1.2558892 -2.5635357e-05 0)
(1.255895 -2.3299299e-05 0)
(1.2559004 -2.1144461e-05 0)
(1.2559052 -1.9158347e-05 0)
(1.2559095 -1.7329147e-05 0)
(1.2559134 -1.5645928e-05 0)
(1.2559169 -1.4098377e-05 0)
(1.2559201 -1.2676987e-05 0)
(1.2559229 -1.1372804e-05 0)
(1.2559254 -1.0177601e-05 0)
(1.2559276 -9.0836528e-06 0)
(1.2559296 -8.0838944e-06 0)
(1.2559313 -7.1716971e-06 0)
(1.2559329 -6.341009e-06 0)
(1.2559342 -5.5861479e-06 0)
(1.2559354 -4.9019258e-06 0)
(1.2559364 -4.2834399e-06 0)
(1.2559373 -3.7261831e-06 0)
(1.255938 -3.2258549e-06 0)
(1.2559387 -2.7784646e-06 0)
(1.2559392 -2.3801485e-06 0)
(1.2559396 -2.0272747e-06 0)
(1.25594 -1.7162867e-06 0)
(1.2559403 -1.4438162e-06 0)
(1.2559406 -1.2065376e-06 0)
(1.2559408 -1.0012934e-06 0)
(1.255941 -8.2497216e-07 0)
(1.2559411 -6.7464421e-07 0)
(1.2559412 -5.4744145e-07 0)
(1.2559413 -4.4070256e-07 0)
(1.2559414 -3.5185868e-07 0)
(1.2559415 -2.7858207e-07 0)
(1.2559415 -2.1865772e-07 0)
(1.2559415 -1.7013112e-07 0)
(1.2559416 -1.3117659e-07 0)
(1.2559416 -1.0023448e-07 0)
(1.2559416 -7.5873844e-08 0)
(1.2559416 -5.6904293e-08 0)
(1.2559416 -4.2264762e-08 0)
(1.2559416 -3.1077566e-08 0)
(1.2559416 -2.2608976e-08 0)
(1.2559416 -1.6201871e-08 0)
(1.2559416 -1.1430575e-08 0)
(1.2559416 -7.7853376e-09 0)
(1.2559416 -5.0032043e-09 0)
(1.2559416 -3.1218295e-09 0)
(1.2559416 -1.5111192e-09 0)
(1.0556151 -0.00018977716 0)
(1.0567756 -0.00097772183 0)
(1.0567691 -0.0015339885 0)
(1.0565066 -0.0016779082 0)
(1.0563934 -0.0015635493 0)
(1.0564042 -0.0013867519 0)
(1.0564132 -0.0012418416 0)
(1.0563606 -0.0011345568 0)
(1.0562548 -0.0010427944 0)
(1.0561249 -0.00095332729 0)
(1.0559906 -0.00086612023 0)
(1.0558584 -0.0007856418 0)
(1.0557285 -0.00071440543 0)
(1.0556005 -0.00065200972 0)
(1.0554753 -0.00059679645 0)
(1.0553544 -0.00054728217 0)
(1.0552386 -0.00050255543 0)
(1.0551287 -0.00046206963 0)
(1.0550245 -0.00042538663 0)
(1.0549262 -0.00039207482 0)
(1.0548335 -0.00036172419 0)
(1.0547463 -0.00033397759 0)
(1.0546645 -0.00030854168 0)
(1.0545879 -0.00028517384 0)
(1.0545162 -0.00026366884 0)
(1.0544492 -0.00024384689 0)
(1.0543866 -0.00022555084 0)
(1.0543283 -0.00020864172 0)
(1.0542739 -0.00019299831 0)
(1.0542233 -0.00017851277 0)
(1.0541763 -0.00016509014 0)
(1.0541325 -0.00015264468 0)
(1.0540919 -0.00014110016 0)
(1.0540542 -0.00013038697 0)
(1.0540193 -0.00012044289 0)
(1.0539869 -0.00011121059 0)
(1.0539569 -0.0001026386 0)
(1.0539291 -9.4679013e-05 0)
(1.0539035 -8.7288682e-05 0)
(1.0538797 -8.0427155e-05 0)
(1.0538578 -7.4057888e-05 0)
(1.0538376 -6.8146389e-05 0)
(1.053819 -6.2661449e-05 0)
(1.0538018 -5.7573453e-05 0)
(1.0537861 -5.2855583e-05 0)
(1.0537715 -4.8482243e-05 0)
(1.0537582 -4.4430257e-05 0)
(1.0537459 -4.0677419e-05 0)
(1.0537347 -3.7203625e-05 0)
(1.0537244 -3.3989522e-05 0)
(1.053715 -3.101761e-05 0)
(1.0537064 -2.8270994e-05 0)
(1.0536985 -2.573442e-05 0)
(1.0536914 -2.3393102e-05 0)
(1.0536849 -2.1233718e-05 0)
(1.0536789 -1.9243335e-05 0)
(1.0536735 -1.7410337e-05 0)
(1.0536686 -1.5723419e-05 0)
(1.0536642 -1.4172478e-05 0)
(1.0536602 -1.2747677e-05 0)
(1.0536566 -1.1440278e-05 0)
(1.0536534 -1.0241763e-05 0)
(1.0536504 -9.1446177e-06 0)
(1.0536478 -8.1415211e-06 0)
(1.0536455 -7.2260588e-06 0)
(1.0536434 -6.3919532e-06 0)
(1.0536416 -5.6337368e-06 0)
(1.0536399 -4.946027e-06 0)
(1.0536385 -4.3241377e-06 0)
(1.0536372 -3.7633943e-06 0)
(1.0536361 -3.2597086e-06 0)
(1.0536351 -2.8089425e-06 0)
(1.0536343 -2.407438e-06 0)
(1.0536336 -2.0514268e-06 0)
(1.0536329 -1.7375432e-06 0)
(1.0536324 -1.4622851e-06 0)
(1.053632 -1.2225016e-06 0)
(1.0536316 -1.0148975e-06 0)
(1.0536313 -8.3651676e-07 0)
(1.053631 -6.842849e-07 0)
(1.0536308 -5.5547516e-07 0)
(1.0536306 -4.4727314e-07 0)
(1.0536304 -3.5723982e-07 0)
(1.0536303 -2.8288852e-07 0)
(1.0536302 -2.2212972e-07 0)
(1.0536302 -1.7284695e-07 0)
(1.0536301 -1.333368e-07 0)
(1.0536301 -1.0188136e-07 0)
(1.05363 -7.716763e-08 0)
(1.05363 -5.7860772e-08 0)
(1.05363 -4.3001573e-08 0)
(1.05363 -3.1604704e-08 0)
(1.0536299 -2.2997886e-08 0)
(1.0536299 -1.649455e-08 0)
(1.0536299 -1.1612705e-08 0)
(1.0536299 -7.9802517e-09 0)
(1.0536299 -5.0584449e-09 0)
(1.0536299 -2.9096182e-09 0)
(1.0536299 -7.4091062e-10 0)
(1.0536299 6.9964894e-10 0)
(0.7474749 -0.00023989428 0)
(0.74788528 -0.0010536061 0)
(0.74727204 -0.0014853852 0)
(0.74641711 -0.0014633986 0)
(0.74566304 -0.001232897 0)
(0.74502492 -0.0010004775 0)
(0.74444165 -0.00083427213 0)
(0.74388421 -0.00071999337 0)
(0.74335589 -0.0006298984 0)
(0.74286737 -0.00055069964 0)
(0.74242316 -0.00048117935 0)
(0.74202104 -0.00042287844 0)
(0.74165598 -0.00037541455 0)
(0.74132318 -0.00033659863 0)
(0.74101891 -0.00030400434 0)
(0.74074029 -0.00027589694 0)
(0.74048484 -0.00025127131 0)
(0.74025032 -0.00022953114 0)
(0.74003468 -0.00021023024 0)
(0.7398361 -0.00019298143 0)
(0.73965302 -0.00017745543 0)
(0.73948408 -0.00016339256 0)
(0.73932807 -0.00015059469 0)
(0.73918391 -0.00013890838 0)
(0.73905066 -0.00012820796 0)
(0.73892744 -0.00011838752 0)
(0.73881347 -0.00010935574 0)
(0.73870806 -0.00010103471 0)
(0.73861055 -9.3356868e-05 0)
(0.73852036 -8.6264081e-05 0)
(0.73843694 -7.9704921e-05 0)
(0.73835981 -7.3634379e-05 0)
(0.73828851 -6.8011934e-05 0)
(0.73822261 -6.2801819e-05 0)
(0.73816174 -5.7971489e-05 0)
(0.73810552 -5.3492032e-05 0)
(0.73805363 -4.9336821e-05 0)
(0.73800576 -4.5482068e-05 0)
(0.73796161 -4.1905668e-05 0)
(0.73792093 -3.8587784e-05 0)
(0.73788346 -3.5509813e-05 0)
(0.73784898 -3.2655013e-05 0)
(0.73781727 -3.0007586e-05 0)
(0.73778813 -2.7553285e-05 0)
(0.73776136 -2.5278562e-05 0)
(0.73773681 -2.3171191e-05 0)
(0.7377143 -2.1219495e-05 0)
(0.73769369 -1.941293e-05 0)
(0.73767483 -1.7741362e-05 0)
(0.7376576 -1.6195647e-05 0)
(0.73764187 -1.476697e-05 0)
(0.73762752 -1.3447381e-05 0)
(0.73761446 -1.222918e-05 0)
(0.73760258 -1.1105435e-05 0)
(0.7375918 -1.0069422e-05 0)
(0.73758202 -9.1151042e-06 0)
(0.73757317 -8.2366058e-06 0)
(0.73756517 -7.428675e-06 0)
(0.73755796 -6.6862053e-06 0)
(0.73755146 -6.004658e-06 0)
(0.73754563 -5.3796092e-06 0)
(0.73754041 -4.8071559e-06 0)
(0.73753574 -4.283501e-06 0)
(0.73753158 -3.8053168e-06 0)
(0.73752789 -3.3693494e-06 0)
(0.73752462 -2.9727636e-06 0)
(0.73752173 -2.6127769e-06 0)
(0.73751919 -2.2869656e-06 0)
(0.73751697 -1.992916e-06 0)
(0.73751504 -1.7285163e-06 0)
(0.73751336 -1.4916368e-06 0)
(0.73751191 -1.2803923e-06 0)
(0.73751066 -1.0928442e-06 0)
(0.7375096 -9.2725749e-07 0)
(0.7375087 -7.8183306e-07 0)
(0.73750794 -6.5494667e-07 0)
(0.7375073 -5.4490215e-07 0)
(0.73750677 -4.5017039e-07 0)
(0.73750633 -3.6916831e-07 0)
(0.73750597 -3.0048102e-07 0)
(0.73750568 -2.426546e-07 0)
(0.73750544 -1.9441512e-07 0)
(0.73750526 -1.5447742e-07 0)
(0.73750511 -1.2174327e-07 0)
(0.73750499 -9.5115698e-08 0)
(0.73750489 -7.3689792e-08 0)
(0.73750482 -5.6575979e-08 0)
(0.73750477 -4.3070573e-08 0)
(0.73750473 -3.2477553e-08 0)
(0.7375047 -2.4280663e-08 0)
(0.73750467 -1.7956259e-08 0)
(0.73750466 -1.3157278e-08 0)
(0.73750464 -9.4834603e-09 0)
(0.73750463 -6.7363864e-09 0)
(0.73750463 -4.6154193e-09 0)
(0.73750462 -3.0159289e-09 0)
(0.73750462 -1.5889817e-09 0)
(0.73750462 -5.4224273e-10 0)
(0.73750462 1.4057658e-09 0)
(0.73750461 2.2860915e-09 0)
(0.30239092 -0.00021102033 0)
(0.30193736 -0.00061991845 0)
(0.30092079 -0.00068613812 0)
(0.29989097 -0.00052978704 0)
(0.29905743 -0.00034984987 0)
(0.29841784 -0.00023370155 0)
(0.29791058 -0.00017516648 0)
(0.29748626 -0.00014384378 0)
(0.29712001 -0.0001209648 0)
(0.29680143 -0.00010151853 0)
(0.29652416 -8.5911092e-05 0)
(0.29628172 -7.4434007e-05 0)
(0.29606755 -6.618656e-05 0)
(0.29587612 -5.9898774e-05 0)
(0.29570344 -5.4656791e-05 0)
(0.29554673 -5.0032803e-05 0)
(0.29540397 -4.5887506e-05 0)
(0.29527356 -4.21699e-05 0)
(0.29515412 -3.8827427e-05 0)
(0.29504449 -3.5800808e-05 0)
(0.29494368 -3.3038687e-05 0)
(0.29485085 -3.0505798e-05 0)
(0.2947653 -2.8177926e-05 0)
(0.29468637 -2.6036928e-05 0)
(0.29461352 -2.40658e-05 0)
(0.29454625 -2.224923e-05 0)
(0.2944841 -2.0572636e-05 0)
(0.29442666 -1.902374e-05 0)
(0.29437358 -1.7591143e-05 0)
(0.29432452 -1.6265366e-05 0)
(0.29427918 -1.5037306e-05 0)
(0.29423727 -1.3899357e-05 0)
(0.29419855 -1.2844066e-05 0)
(0.29416278 -1.1865307e-05 0)
(0.29412975 -1.0956969e-05 0)
(0.29409926 -1.0114064e-05 0)
(0.29407111 -9.3314969e-06 0)
(0.29404516 -8.6051657e-06 0)
(0.29402123 -7.9307821e-06 0)
(0.29399918 -7.3049227e-06 0)
(0.29397887 -6.7239255e-06 0)
(0.29396018 -6.1849181e-06 0)
(0.293943 -5.6847617e-06 0)
(0.29392721 -5.2210141e-06 0)
(0.29391271 -4.7909499e-06 0)
(0.29389941 -4.39249e-06 0)
(0.29388721 -4.0232678e-06 0)
(0.29387605 -3.6814928e-06 0)
(0.29386583 -3.3650865e-06 0)
(0.2938565 -3.0725105e-06 0)
(0.29384798 -2.801945e-06 0)
(0.29384021 -2.5520547e-06 0)
(0.29383313 -2.3212313e-06 0)
(0.2938267 -2.1083242e-06 0)
(0.29382086 -1.9119216e-06 0)
(0.29381556 -1.7310249e-06 0)
(0.29381076 -1.5643869e-06 0)
(0.29380643 -1.4111528e-06 0)
(0.29380252 -1.270234e-06 0)
(0.29379901 -1.1408972e-06 0)
(0.29379585 -1.0221889e-06 0)
(0.29379302 -9.1349247e-07 0)
(0.2937905 -8.1398483e-07 0)
(0.29378824 -7.2314628e-07 0)
(0.29378624 -6.402613e-07 0)
(0.29378447 -5.6489893e-07 0)
(0.29378291 -4.9644174e-07 0)
(0.29378154 -4.3452441e-07 0)
(0.29378034 -3.7860233e-07 0)
(0.2937793 -3.2836387e-07 0)
(0.29377839 -2.8332466e-07 0)
(0.29377761 -2.4320471e-07 0)
(0.29377694 -2.0755812e-07 0)
(0.29377636 -1.7612916e-07 0)
(0.29377588 -1.4850424e-07 0)
(0.29377547 -1.2443998e-07 0)
(0.29377513 -1.0354491e-07 0)
(0.29377484 -8.5592064e-08 0)
(0.29377461 -7.0217148e-08 0)
(0.29377442 -5.7209041e-08 0)
(0.29377426 -4.6230483e-08 0)
(0.29377413 -3.7097355e-08 0)
(0.29377403 -2.9509359e-08 0)
(0.29377395 -2.3311492e-08 0)
(0.29377389 -1.824066e-08 0)
(0.29377384 -1.4179631e-08 0)
(0.2937738 -1.0907994e-08 0)
(0.29377377 -8.3433382e-09 0)
(0.29377375 -6.3017587e-09 0)
(0.29377373 -4.7373645e-09 0)
(0.29377372 -3.4991868e-09 0)
(0.29377371 -2.5716322e-09 0)
(0.2937737 -1.8222195e-09 0)
(0.2937737 -1.2780687e-09 0)
(0.2937737 -8.1645135e-10 0)
(0.29377369 -4.4655918e-10 0)
(0.29377369 -9.05701e-11 0)
(0.29377369 3.1696173e-10 0)
(0.29377369 1.2222797e-09 0)
(0.29377369 1.3771948e-09 0)
)
;

boundaryField
{
    top
    {
        type            fixedValue;
        value           uniform (0 0 0);
    }
    inlet
    {
        type            pressureNormalInletOutletVelocity;
        phi             phi;
        rho             rho;