/*--------------------------------*- C++ -*----------------------------------*\
| =========                 |                                                 |
| \\      /  F ield         | OpenFOAM: The Open Source CFD Toolbox           |
|  \\    /   O peration     | Version:  v1812                                 |
|   \\  /    A nd           | Web:      www.OpenFOAM.com                      |
|    \\/     M anipulation  |                                                 |
\*---------------------------------------------------------------------------*/
FoamFile
{
    version     2.0;
    format      ascii;
    class       volVectorField;
    location    "17.2";
    object      U;
}
// * * * * * * * * * * * * * * * * * * * * * * * * * * * * * * * * * * * * * //

dimensions      [0 1 -1 0 0 0 0];


internalField   nonuniform List<vector> 
1000
(
(0.91890839 0.035821912 0)
(0.86271384 0.062195638 0)
(0.7870597 0.062510089 0)
(0.69536033 0.054550394 0)
(0.61089745 0.04453165 0)
(0.54411592 0.034015971 0)
(0.49343012 0.02418754 0)
(0.45479414 0.01614423 0)
(0.42544583 0.010265786 0)
(0.40347313 0.0063041453 0)
(0.38715767 0.0037976293 0)
(0.3749622 0.0023103382 0)
(0.36566193 0.001493015 0)
(0.35836272 0.0010851183 0)
(0.35244268 0.00090607198 0)
(0.34748201 0.00084105104 0)
(0.34320348 0.00082372346 0)
(0.33942726 0.00081930988 0)
(0.33603793 0.00081185196 0)
(0.33296114 0.00079580153 0)
(0.33014778 0.00077081221 0)
(0.32756384 0.00073871019 0)
(0.3251842 0.00070188975 0)
(0.32298902 0.00066256563 0)
(0.32096172 0.00062249906 0)
(0.31908785 0.00058295643 0)
(0.31735449 0.00054477065 0)
(0.31574996 0.00050843333 0)
(0.3142636 0.00047419142 0)
(0.31288575 0.00044212482 0)
(0.31160756 0.00041221024 0)
(0.31042101 0.00038436261 0)
(0.30931883 0.00035846586 0)
(0.30829438 0.00033439084 0)
(0.30734165 0.00031200657 0)
(0.30645515 0.00029118686 0)
(0.30562991 0.00027181303 0)
(0.30486136 0.00025377554 0)
(0.30414535 0.00023697367 0)
(0.30347807 0.00022131477 0)
(0.30285601 0.00020671502 0)
(0.30227596 0.00019309681 0)
(0.30173496 0.00018039005 0)
(0.30123029 0.00016852997 0)
(0.30075942 0.00015745733 0)
(0.30032002 0.00014711828 0)
(0.29990993 0.00013746234 0)
(0.29952715 0.00012844406 0)
(0.29916983 0.0001200205 0)
(0.29883624 0.00011215135 0)
(0.29852478 0.00010480009 0)
(0.29823397 9.7931153e-05 0)
(0.29796241 9.1512421e-05 0)
(0.29770882 8.5513694e-05 0)
(0.29747201 7.99065e-05 0)
(0.29725084 7.4665988e-05 0)
(0.29704429 6.9767598e-05 0)
(0.29685137 6.5190829e-05 0)
(0.2966712 6.0914755e-05 0)
(0.29650291 5.691979e-05 0)
(0.29634572 5.3187693e-05 0)
(0.2961989 4.9700028e-05 0)
(0.29606176 4.6440392e-05 0)
(0.29593366 4.3392863e-05 0)
(0.295814 4.0542919e-05 0)
(0.29570223 3.7878437e-05 0)
(0.29559783 3.5387601e-05 0)
(0.29550031 3.3060314e-05 0)
(0.29540922 3.0887967e-05 0)
(0.29532413 2.8859694e-05 0)
(0.29524465 2.696679e-05 0)
(0.2951704 2.5198741e-05 0)
(0.29510104 2.3545408e-05 0)
(0.29503625 2.1998307e-05 0)
(0.29497572 2.054987e-05 0)
(0.29491918 1.9194119e-05 0)
(0.29486637 1.792751e-05 0)
(0.29481705 1.6744392e-05 0)
(0.29477097 1.5643079e-05 0)
(0.29472793 1.4616435e-05 0)
(0.29468773 1.3660593e-05 0)
(0.29465016 1.276682e-05 0)
(0.29461507 1.1930697e-05 0)
(0.29458229 1.1144665e-05 0)
(0.29455167 1.0407783e-05 0)
(0.29452308 9.7132551e-06 0)
(0.29449636 9.0725615e-06 0)
(0.29447142 8.4703584e-06 0)
(0.2944481 7.918318e-06 0)
(0.29442633 7.3969633e-06 0)
(0.29440598 6.9261226e-06 0)
(0.294387 6.4726646e-06 0)
(0.2943692 6.061782e-06 0)
(0.29435259 5.6503886e-06 0)
(0.29433714 5.2891299e-06 0)
(0.29432249 4.9685832e-06 0)
(0.29430919 4.6878467e-06 0)
(0.29429569 4.5389428e-06 0)
(0.29428502 4.405686e-06 0)
(0.29426874 5.0575286e-06 0)
(1.0016583 0.05381943 0)
(1.0359761 0.10128443 0)
(1.0597199 0.11073663 0)
(1.0628947 0.10592201 0)
(1.0515569 0.096228725 0)
(1.0340529 0.083934059 0)
(1.0142795 0.070327062 0)
(0.99360703 0.056981334 0)
(0.97292577 0.045107479 0)
(0.9531074 0.03523675 0)
(0.93479539 0.02740165 0)
(0.91829012 0.021387227 0)
(0.90362379 0.016884499 0)
(0.89068068 0.013569709 0)
(0.87928175 0.011147748 0)
(0.86923242 0.0093736578 0)
(0.86034424 0.0080569271 0)
(0.85244667 0.0070571265 0)
(0.84539242 0.0062752379 0)
(0.83905793 0.0056438286 0)
(0.83334127 0.0051180914 0)
(0.82815884 0.0046686728 0)
(0.82344213 0.0042764175 0)
(0.81913467 0.0039287383 0)
(0.81518962 0.0036172025 0)
(0.81156765 0.0033359688 0)
(0.80823544 0.0030808023 0)
(0.8051644 0.0028484673 0)
(0.80232979 0.0026363682 0)
(0.79971 0.002442338 0)
(0.79728598 0.0022645191 0)
(0.79504087 0.0021012908 0)
(0.79295963 0.0019512265 0)
(0.79102881 0.0018130642 0)
(0.78923628 0.0016856841 0)
(0.7875711 0.0015680923 0)
(0.78602338 0.0014594047 0)
(0.78458412 0.0013588343 0)
(0.78324511 0.0012656792 0)
(0.78199889 0.001179311 0)
(0.78083861 0.0010991674 0)
(0.77975799 0.0010247423 0)
(0.77875128 0.00095558035 0)
(0.77781318 0.0008912699 0)
(0.77693881 0.00083143806 0)
(0.77612368 0.00077574675 0)
(0.77536362 0.00072388785 0)
(0.77465481 0.0006755804 0)
(0.77399367 0.00063056709 0)
(0.77337693 0.00058861103 0)
(0.77280153 0.00054949487 0)
(0.77226464 0.00051301747 0)
(0.77176363 0.00047899311 0)
(0.77129606 0.00044725066 0)
(0.77085967 0.00041763118 0)
(0.77045234 0.00038998931 0)
(0.77007211 0.00036418989 0)
(0.76971717 0.00034010946 0)
(0.76938581 0.00031763256 0)
(0.76907644 0.00029665114 0)
(0.7687876 0.00027706448 0)
(0.76851791 0.00025877776 0)
(0.7682661 0.00024170226 0)
(0.76803096 0.00022575565 0)
(0.76781139 0.00021086123 0)
(0.76760635 0.0001969491 0)
(0.76741488 0.00018395487 0)
(0.76723608 0.00017181918 0)
(0.7670691 0.00016048786 0)
(0.76691315 0.00014990809 0)
(0.76676752 0.00014003068 0)
(0.7666315 0.00013080686 0)
(0.76650446 0.000122191 0)
(0.76638582 0.00011413974 0)
(0.76627501 0.00010661537 0)
(0.76617152 9.9582032e-05 0)
(0.76607486 9.3012099e-05 0)
(0.76598458 8.6874588e-05 0)
(0.76590026 8.1148651e-05 0)
(0.76582151 7.5802695e-05 0)
(0.76574794 7.0817907e-05 0)
(0.76567924 6.6157799e-05 0)
(0.76561504 6.1808999e-05 0)
(0.76555512 5.7732653e-05 0)
(0.7654991 5.3930307e-05 0)
(0.76544684 5.0355037e-05 0)
(0.76539796 4.7037915e-05 0)
(0.76535239 4.3921153e-05 0)
(0.7653097 4.1053537e-05 0)
(0.76526997 3.8323348e-05 0)
(0.76523272 3.584483e-05 0)
(0.76519804 3.346413e-05 0)
(0.76516555 3.133207e-05 0)
(0.76513516 2.9189232e-05 0)
(0.76510713 2.7363951e-05 0)
(0.76507997 2.5517201e-05 0)
(0.76505663 2.4071149e-05 0)
(0.76503058 2.2554672e-05 0)
(0.76501446 2.1597275e-05 0)
(0.76498346 2.0993719e-05 0)
(1.0014244 0.026824854 0)
(1.0291272 0.06279135 0)
(1.0654292 0.077736549 0)
(1.098962 0.080597196 0)
(1.1253149 0.078285167 0)
(1.145053 0.073153897 0)
(1.1594858 0.066111277 0)
(1.1694287 0.058162063 0)
(1.1755354 0.050296753 0)
(1.1785738 0.043150707 0)
(1.1793571 0.036972824 0)
(1.178595 0.031771631 0)
(1.1768304 0.027451838 0)
(1.1744518 0.023886766 0)
(1.1717287 0.020947618 0)
(1.1688444 0.018515779 0)
(1.1659195 0.016488084 0)
(1.1630317 0.014779502 0)
(1.1602295 0.013322985 0)
(1.1575415 0.012067132 0)
(1.1549828 0.010973 0)
(1.1525601 0.010011061 0)
(1.1502747 0.0091587461 0)
(1.1481246 0.0083986031 0)
(1.1461059 0.0077169492 0)
(1.1442134 0.0071028868 0)
(1.1424414 0.0065475906 0)
(1.1407838 0.0060437943 0)
(1.1392344 0.0055854252 0)
(1.1377869 0.0051673438 0)
(1.1364353 0.0047851565 0)
(1.1351738 0.0044350761 0)
(1.1339968 0.0041138169 0)
(1.1328987 0.0038185131 0)
(1.1318746 0.0035466531 0)
(1.1309195 0.0032960269 0)
(1.1300289 0.0030646827 0)
(1.1291985 0.0028508901 0)
(1.1284242 0.0026531099 0)
(1.1277022 0.0024699685 0)
(1.1270291 0.0023002359 0)
(1.1264014 0.0021428078 0)
(1.1258161 0.0019966891 0)
(1.1252702 0.0018609817 0)
(1.1247612 0.0017348718 0)
(1.1242865 0.001617621 0)
(1.1238437 0.0015085573 0)
(1.1234307 0.0014070676 0)
(1.1230455 0.001312591 0)
(1.1226861 0.0012246136 0)
(1.1223509 0.001142664 0)
(1.1220381 0.0010663079 0)
(1.1217462 0.00099514584 0)
(1.1214739 0.00092880927 0)
(1.1212198 0.00086695845 0)
(1.1209827 0.00080927993 0)
(1.1207614 0.00075548456 0)
(1.1205548 0.00070530485 0)
(1.1203621 0.00065849242 0)
(1.1201821 0.00061481633 0)
(1.1200142 0.0005740621 0)
(1.1198574 0.00053602974 0)
(1.1197111 0.00050053337 0)
(1.1195745 0.00046740011 0)
(1.1194469 0.00043647021 0)
(1.1193278 0.00040759535 0)
(1.1192167 0.00038063862 0)
(1.1191129 0.00035547267 0)
(1.119016 0.00033197914 0)
(1.1189255 0.00031004601 0)
(1.118841 0.00028956939 0)
(1.1187621 0.00027044906 0)
(1.1186884 0.00025259411 0)
(1.1186197 0.00023591682 0)
(1.1185554 0.00022034112 0)
(1.1184954 0.00020579129 0)
(1.1184394 0.00019220574 0)
(1.1183871 0.00017951682 0)
(1.1183382 0.00016767527 0)
(1.1182926 0.0001566138 0)
(1.11825 0.00014629433 0)
(1.1182103 0.00013664344 0)
(1.1181731 0.00012764306 0)
(1.1181384 0.00011921058 0)
(1.1181059 0.0001113591 0)
(1.1180757 0.00010398405 0)
(1.1180473 9.7152054e-05 0)
(1.1180211 9.0703765e-05 0)
(1.1179962 8.478589e-05 0)
(1.1179734 7.9128681e-05 0)
(1.1179516 7.4027713e-05 0)
(1.1179318 6.9017945e-05 0)
(1.1179128 6.4662958e-05 0)
(1.1178955 6.0141199e-05 0)
(1.117879 5.6560547e-05 0)
(1.1178635 5.2425082e-05 0)
(1.11785 4.9744062e-05 0)
(1.1178349 4.5805845e-05 0)
(1.1178262 4.4318176e-05 0)
(1.1178083 4.0575414e-05 0)
(1.0007347 0.011814721 0)
(1.0178472 0.030860924 0)
(1.0462163 0.041434438 0)
(1.0799018 0.045193566 0)
(1.1132664 0.045502348 0)
(1.143782 0.044080305 0)
(1.1708941 0.04143998 0)
(1.1945687 0.037973676 0)
(1.2148582 0.034195728 0)
(1.2319652 0.030536886 0)
(1.2462683 0.027222043 0)
(1.2582339 0.024313919 0)
(1.2683135 0.021797886 0)
(1.2768875 0.019633657 0)
(1.2842554 0.017773824 0)
(1.2906479 0.01616965 0)
(1.296243 0.014775589 0)
(1.3011791 0.013552297 0)
(1.3055645 0.012467863 0)
(1.3094838 0.011497465 0)
(1.3130042 0.010622161 0)
(1.3161792 0.0098275119 0)
(1.3190526 0.0091024093 0)
(1.3216607 0.0084381748 0)
(1.3240343 0.0078279021 0)
(1.3261995 0.0072659732 0)
(1.3281786 0.0067477081 0)
(1.3299913 0.0062691165 0)
(1.3316544 0.0058267272 0)
(1.3331829 0.0054174727 0)
(1.3345896 0.0050386112 0)
(1.3358862 0.0046876722 0)
(1.3370827 0.0043624178 0)
(1.3381883 0.004060813 0)
(1.3392108 0.003781003 0)
(1.3401576 0.0035212943 0)
(1.3410349 0.0032801383 0)
(1.3418486 0.0030561179 0)
(1.3426038 0.0028479348 0)
(1.3433051 0.0026543986 0)
(1.3439569 0.002474417 0)
(1.3445629 0.0023069869 0)
(1.3451267 0.0021511863 0)
(1.3456513 0.0020061669 0)
(1.3461398 0.0018711476 0)
(1.3465947 0.0017454091 0)
(1.3470185 0.0016282872 0)
(1.3474135 0.001519169 0)
(1.3477816 0.001417488 0)
(1.3481249 0.0013227201 0)
(1.3484449 0.0012343806 0)
(1.3487435 0.0011520206 0)
(1.349022 0.001075224 0)
(1.3492818 0.0010036055 0)
(1.3495242 0.00093680778 0)
(1.3497505 0.00087450032 0)
(1.3499616 0.00081637576 0)
(1.3501587 0.00076214862 0)
(1.3503427 0.00071155306 0)
(1.3505145 0.00066434165 0)
(1.3506748 0.00062028432 0)
(1.3508245 0.00057916673 0)
(1.3509643 0.00054078995 0)
(1.3510948 0.00050496851 0)
(1.3512167 0.00047153076 0)
(1.3513305 0.00044031698 0)
(1.3514368 0.00041117919 0)
(1.3515361 0.00038397852 0)
(1.3516288 0.00035858612 0)
(1.3517153 0.00033487969 0)
(1.3517962 0.00031274635 0)
(1.3518717 0.00029207844 0)
(1.3519422 0.00027277932 0)
(1.3520081 0.00025475524 0)
(1.3520696 0.00023792585 0)
(1.3521271 0.00022220807 0)
(1.3521807 0.00020753549 0)
(1.3522309 0.00019383119 0)
(1.3522777 0.00018104197 0)
(1.3523215 0.00016909074 0)
(1.3523623 0.0001579411 0)
(1.3524005 0.00014750998 0)
(1.3524361 0.00013778733 0)
(1.3524695 0.00012867326 0)
(1.3525004 0.00012020334 0)
(1.3525296 0.00011224031 0)
(1.3525565 0.00010488203 0)
(1.3525822 9.7898482e-05 0)
(1.3526053 9.1532108e-05 0)
(1.3526281 8.5400114e-05 0)
(1.352648 7.993025e-05 0)
(1.3526684 7.4425527e-05 0)
(1.3526849 6.9806116e-05 0)
(1.3527036 6.4833295e-05 0)
(1.352717 6.1119968e-05 0)
(1.3527349 5.6438137e-05 0)
(1.3527446 5.3742754e-05 0)
(1.3527628 4.9142821e-05 0)
(1.3527683 4.769889e-05 0)
(1.3527889 4.2955184e-05 0)
(1.0005903 0.0034629152 0)
(1.0136865 0.009366018 0)
(1.0370283 0.013046804 0)
(1.0674202 0.014563259 0)
(1.1000315 0.014854523 0)
(1.1316428 0.014564989 0)
(1.1610745 0.013888337 0)
(1.1880674 0.012919244 0)
(1.2125205 0.011806505 0)
(1.2343939 0.010696425 0)
(1.2538077 0.0096727405 0)
(1.2710339 0.0087628203 0)
(1.286401 0.0079659717 0)
(1.3002111 0.0072722126 0)
(1.3127102 0.0066688068 0)
(1.3240903 0.006141924 0)
(1.3345036 0.0056780713 0)
(1.3440716 0.0052653202 0)
(1.3528927 0.0048939342 0)
(1.3610463 0.0045563948 0)
(1.3685975 0.0042470687 0)
(1.3756004 0.0039617745 0)
(1.3821012 0.0036973959 0)
(1.3881402 0.0034515806 0)
(1.3937533 0.0032225168 0)
(1.3989728 0.0030087687 0)
(1.403828 0.0028091573 0)
(1.4083456 0.0026226789 0)
(1.4125503 0.0024484494 0)
(1.4164646 0.0022856701 0)
(1.4201094 0.0021336062 0)
(1.423504 0.0019915743 0)
(1.426666 0.0018589341 0)
(1.4296121 0.0017350837 0)
(1.4323573 0.0016194568 0)
(1.4349159 0.0015115205 0)
(1.4373007 0.0014107729 0)
(1.4395241 0.0013167427 0)
(1.441597 0.0012289874 0)
(1.4435301 0.001147092 0)
(1.4453328 0.0010706676 0)
(1.4470143 0.00099935062 0)
(1.4485827 0.00093280063 0)
(1.4500459 0.0008706995 0)
(1.451411 0.00081274998 0)
(1.4526846 0.00075867442 0)
(1.4538731 0.0007082134 0)
(1.4549821 0.00066112452 0)
(1.4560171 0.00061718155 0)
(1.4569831 0.00057617325 0)
(1.4578847 0.00053790212 0)
(1.4587262 0.00050218446 0)
(1.4595117 0.00046884872 0)
(1.460245 0.00043773517 0)
(1.4609295 0.00040869528 0)
(1.4615685 0.00038159083 0)
(1.4621651 0.00035629254 0)
(1.4627221 0.00033267904 0)
(1.4632422 0.00031063733 0)
(1.4637278 0.00029006178 0)
(1.4641811 0.00027085348 0)
(1.4646045 0.00025292099 0)
(1.4649998 0.00023617912 0)
(1.4653689 0.00022054853 0)
(1.4657136 0.00020595531 0)
(1.4660355 0.00019233086 0)
(1.4663361 0.00017961143 0)
(1.4666168 0.00016773661 0)
(1.466879 0.00015665012 0)
(1.4671238 0.00014629827 0)
(1.4673524 0.00013663139 0)
(1.467566 0.00012760277 0)
(1.4677654 0.00011917101 0)
(1.4679516 0.00011129609 0)
(1.4681255 0.00010394382 0)
(1.468288 9.7078194e-05 0)
(1.4684398 9.0670533e-05 0)
(1.4685815 8.468575e-05 0)
(1.4687138 7.9100274e-05 0)
(1.4688375 7.3877728e-05 0)
(1.4689529 6.9004855e-05 0)
(1.4690607 6.444463e-05 0)
(1.4691614 6.0195461e-05 0)
(1.4692558 5.6209273e-05 0)
(1.4693432 5.2513535e-05 0)
(1.4694256 4.9037095e-05 0)
(1.469502 4.5826568e-05 0)
(1.4695743 4.2767702e-05 0)
(1.46964 3.9999958e-05 0)
(1.4697037 3.7314403e-05 0)
(1.4697608 3.4922562e-05 0)
(1.4698173 3.248676e-05 0)
(1.4698651 3.0497753e-05 0)
(1.4699166 2.8314207e-05 0)
(1.4699562 2.6724056e-05 0)
(1.4700046 2.4633108e-05 0)
(1.4700339 2.3492731e-05 0)
(1.470083 2.1426058e-05 0)
(1.4701001 2.0806715e-05 0)
(1.4701557 1.8645685e-05 0)
(1.0005903 -0.0034629162 0)
(1.0136865 -0.0093660206 0)
(1.0370283 -0.013046807 0)
(1.0674202 -0.014563262 0)
(1.1000315 -0.014854525 0)
(1.1316428 -0.014564991 0)
(1.1610745 -0.013888338 0)
(1.1880674 -0.012919246 0)
(1.2125205 -0.011806507 0)
(1.2343939 -0.010696428 0)
(1.2538077 -0.0096727436 0)
(1.2710339 -0.0087628233 0)
(1.286401 -0.0079659746 0)
(1.3002111 -0.0072722155 0)
(1.3127102 -0.0066688094 0)
(1.3240903 -0.006141926 0)
(1.3345036 -0.0056780729 0)
(1.3440716 -0.0052653217 0)
(1.3528927 -0.0048939358 0)
(1.3610463 -0.0045563965 0)
(1.3685975 -0.0042470704 0)
(1.3756004 -0.0039617766 0)
(1.3821012 -0.0036973987 0)
(1.3881402 -0.003451584 0)
(1.3937533 -0.0032225199 0)
(1.3989728 -0.0030087709 0)
(1.403828 -0.0028091585 0)
(1.4083456 -0.0026226794 0)
(1.4125503 -0.0024484496 0)
(1.4164646 -0.0022856707 0)
(1.4201094 -0.0021336079 0)
(1.423504 -0.0019915771 0)
(1.426666 -0.0018589376 0)
(1.4296121 -0.0017350877 0)
(1.4323573 -0.0016194604 0)
(1.4349158 -0.0015115229 0)
(1.4373007 -0.0014107737 0)
(1.439524 -0.001316742 0)
(1.441597 -0.0012289855 0)
(1.4435301 -0.0011470894 0)
(1.4453328 -0.0010706652 0)
(1.4470143 -0.00099934899 0)
(1.4485827 -0.0009328001 0)
(1.4500459 -0.00087070012 0)
(1.451411 -0.00081275145 0)
(1.4526846 -0.0007586761 0)
(1.4538731 -0.00070821451 0)
(1.4549821 -0.00066112445 0)
(1.4560171 -0.00061717977 0)
(1.4569831 -0.00057616975 0)
(1.4578847 -0.00053789795 0)
(1.4587262 -0.00050218073 0)
(1.4595117 -0.00046884655 0)
(1.460245 -0.00043773535 0)
(1.4609295 -0.00040869759 0)
(1.4615685 -0.00038159384 0)
(1.4621651 -0.00035629448 0)
(1.4627221 -0.00033267917 0)
(1.4632422 -0.00031063521 0)
(1.4637278 -0.00029005764 0)
(1.4641812 -0.00027084882 0)
(1.4646045 -0.00025291732 0)
(1.4649998 -0.00023617731 0)
(1.4653689 -0.00022054879 0)
(1.4657136 -0.00020595768 0)
(1.4660355 -0.00019233433 0)
(1.4663361 -0.00017961397 0)
(1.4666168 -0.00016773656 0)
(1.466879 -0.00015664672 0)
(1.4671238 -0.00014629227 0)
(1.4673524 -0.00013662524 0)
(1.467566 -0.00012759894 0)
(1.4677654 -0.00011917113 0)
(1.4679516 -0.00011129996 0)
(1.4681255 -0.00010394973 0)
(1.468288 -9.7083222e-05 0)
(1.4684398 -9.0671651e-05 0)
(1.4685815 -8.4681718e-05 0)
(1.4687138 -7.9092774e-05 0)
(1.4688375 -7.3871021e-05 0)
(1.4689529 -6.900142e-05 0)
(1.4690607 -6.4444514e-05 0)
(1.4691614 -6.0200371e-05 0)
(1.4692558 -5.6218895e-05 0)
(1.4693432 -5.2517873e-05 0)
(1.4694256 -4.903328e-05 0)
(1.469502 -4.5822721e-05 0)
(1.4695743 -4.2764418e-05 0)
(1.4696401 -3.9984018e-05 0)
(1.4697037 -3.7295273e-05 0)
(1.4697608 -3.4934216e-05 0)
(1.4698173 -3.2522024e-05 0)
(1.4698651 -3.0510317e-05 0)
(1.4699165 -2.8295289e-05 0)
(1.4699562 -2.6708314e-05 0)
(1.4700046 -2.4631875e-05 0)
(1.4700339 -2.3488008e-05 0)
(1.470083 -2.1423183e-05 0)
(1.4701001 -2.0826446e-05 0)
(1.4701557 -1.8666402e-05 0)
(1.0007347 -0.011814722 0)
(1.0178472 -0.030860927 0)
(1.0462163 -0.041434442 0)
(1.0799018 -0.04519357 0)
(1.1132664 -0.045502351 0)
(1.143782 -0.044080308 0)
(1.1708941 -0.041439982 0)
(1.1945687 -0.037973678 0)
(1.2148582 -0.03419573 0)
(1.2319652 -0.030536888 0)
(1.2462683 -0.027222046 0)
(1.2582339 -0.024313921 0)
(1.2683135 -0.021797888 0)
(1.2768875 -0.01963366 0)
(1.2842554 -0.017773827 0)
(1.2906479 -0.016169652 0)
(1.296243 -0.01477559 0)
(1.3011791 -0.013552298 0)
(1.3055645 -0.012467864 0)
(1.3094838 -0.011497466 0)
(1.3130042 -0.010622162 0)
(1.3161792 -0.0098275135 0)
(1.3190526 -0.0091024115 0)
(1.3216607 -0.0084381774 0)
(1.3240343 -0.0078279044 0)
(1.3261995 -0.0072659749 0)
(1.3281786 -0.0067477091 0)
(1.3299913 -0.0062691169 0)
(1.3316544 -0.0058267275 0)
(1.3331829 -0.0054174735 0)
(1.3345896 -0.0050386127 0)
(1.3358862 -0.0046876744 0)
(1.3370827 -0.0043624204 0)
(1.3381882 -0.0040608156 0)
(1.3392108 -0.0037810052 0)
(1.3401576 -0.0035212956 0)
(1.3410349 -0.0032801387 0)
(1.3418486 -0.0030561173 0)
(1.3426038 -0.0028479334 0)
(1.3433051 -0.0026543967 0)
(1.3439569 -0.0024744151 0)
(1.3445629 -0.0023069855 0)
(1.3451267 -0.0021511856 0)
(1.3456513 -0.0020061671 0)
(1.3461398 -0.0018711486 0)
(1.3465947 -0.0017454103 0)
(1.3470185 -0.0016282881 0)
(1.3474135 -0.0015191689 0)
(1.3477816 -0.0014174865 0)
(1.3481249 -0.0013227177 0)
(1.3484449 -0.0012343778 0)
(1.3487435 -0.001152018 0)
(1.349022 -0.0010752224 0)
(1.3492818 -0.0010036054 0)
(1.3495242 -0.00093680906 0)
(1.3497505 -0.00087450214 0)
(1.3499616 -0.00081637738 0)
(1.3501587 -0.00076214915 0)
(1.3503427 -0.00071155204 0)
(1.3505145 -0.00066433912 0)
(1.3506748 -0.00062028088 0)
(1.3508245 -0.0005791634 0)
(1.3509643 -0.00054078761 0)
(1.3510948 -0.00050496801 0)
(1.3512167 -0.00047153226 0)
(1.3513305 -0.00044031974 0)
(1.3514368 -0.00041118179 0)
(1.3515361 -0.00038397951 0)
(1.3516288 -0.00035858482 0)
(1.3517153 -0.00033487648 0)
(1.3517962 -0.0003127425 0)
(1.3518717 -0.00029207547 0)
(1.3519422 -0.00027277836 0)
(1.3520081 -0.00025475673 0)
(1.3520696 -0.00023792873 0)
(1.3521271 -0.00022221106 0)
(1.3521808 -0.00020753725 0)
(1.3522309 -0.00019383073 0)
(1.3522777 -0.00018103992 0)
(1.3523215 -0.00016908805 0)
(1.3523623 -0.00015793828 0)
(1.3524005 -0.00014750812 0)
(1.3524361 -0.00013778829 0)
(1.3524695 -0.00012867592 0)
(1.3525004 -0.00012020575 0)
(1.3525296 -0.00011224169 0)
(1.3525565 -0.00010488214 0)
(1.3525822 -9.7895319e-05 0)
(1.3526053 -9.1527413e-05 0)
(1.3526282 -8.5396657e-05 0)
(1.352648 -7.9932563e-05 0)
(1.3526683 -7.4431365e-05 0)
(1.3526849 -6.9803676e-05 0)
(1.3527037 -6.4827606e-05 0)
(1.3527171 -6.1123234e-05 0)
(1.3527349 -5.6444515e-05 0)
(1.3527446 -5.3741412e-05 0)
(1.3527628 -4.9142181e-05 0)
(1.3527684 -4.7709072e-05 0)
(1.3527888 -4.2962225e-05 0)
(1.0014244 -0.026824855 0)
(1.0291272 -0.062791352 0)
(1.0654292 -0.077736552 0)
(1.098962 -0.0805972 0)
(1.1253149 -0.07828517 0)
(1.145053 -0.073153899 0)
(1.1594858 -0.066111278 0)
(1.1694287 -0.058162063 0)
(1.1755354 -0.050296754 0)
(1.1785738 -0.043150708 0)
(1.1793571 -0.036972825 0)
(1.1785949 -0.031771633 0)
(1.1768304 -0.02745184 0)
(1.1744518 -0.023886768 0)
(1.1717287 -0.02094762 0)
(1.1688444 -0.01851578 0)
(1.1659195 -0.016488084 0)
(1.1630317 -0.014779502 0)
(1.1602295 -0.013322985 0)
(1.1575415 -0.012067132 0)
(1.1549828 -0.010973001 0)
(1.1525601 -0.010011062 0)
(1.1502747 -0.0091587473 0)
(1.1481246 -0.0083986045 0)
(1.1461059 -0.0077169506 0)
(1.1442134 -0.007102888 0)
(1.1424414 -0.0065475915 0)
(1.1407838 -0.0060437949 0)
(1.1392344 -0.0055854258 0)
(1.1377869 -0.0051673447 0)
(1.1364353 -0.0047851575 0)
(1.1351738 -0.0044350769 0)
(1.1339968 -0.0041138177 0)
(1.1328987 -0.0038185136 0)
(1.1318746 -0.0035466534 0)
(1.1309195 -0.0032960272 0)
(1.1300289 -0.0030646829 0)
(1.1291985 -0.0028508901 0)
(1.1284242 -0.0026531096 0)
(1.1277022 -0.0024699678 0)
(1.1270291 -0.0023002349 0)
(1.1264014 -0.0021428065 0)
(1.1258161 -0.0019966882 0)
(1.1252702 -0.0018609812 0)
(1.1247612 -0.0017348719 0)
(1.1242865 -0.0016176216 0)
(1.1238437 -0.0015085579 0)
(1.1234307 -0.0014070678 0)
(1.1230455 -0.0013125906 0)
(1.1226861 -0.0012246131 0)
(1.1223509 -0.0011426631 0)
(1.1220381 -0.0010663068 0)
(1.1217462 -0.00099514466 0)
(1.1214739 -0.00092880828 0)
(1.1212198 -0.00086695792 0)
(1.1209827 -0.0008092803 0)
(1.1207614 -0.00075548592 0)
(1.1205548 -0.00070530636 0)
(1.1203621 -0.00065849326 0)
(1.1201821 -0.00061481623 0)
(1.1200142 -0.00057406075 0)
(1.1198574 -0.0005360273 0)
(1.1197111 -0.0005005307 0)
(1.1195745 -0.00046739837 0)
(1.1194469 -0.00043646981 0)
(1.1193278 -0.00040759626 0)
(1.1192167 -0.00038064067 0)
(1.1191129 -0.00035547493 0)
(1.119016 -0.00033198083 0)
(1.1189255 -0.00031004679 0)
(1.118841 -0.0002895686 0)
(1.1187621 -0.00027044687 0)
(1.1186884 -0.00025259131 0)
(1.1186197 -0.00023591437 0)
(1.1185554 -0.00022033991 0)
(1.1184954 -0.00020579204 0)
(1.1184394 -0.00019220888 0)
(1.1183871 -0.00017952129 0)
(1.1183383 -0.00016767942 0)
(1.1182927 -0.00015661549 0)
(1.11825 -0.00014629239 0)
(1.1182103 -0.00013663905 0)
(1.1181731 -0.00012763775 0)
(1.1181384 -0.00011920573 0)
(1.1181059 -0.0001113591 0)
(1.1180757 -0.00010398921 0)
(1.1180473 -9.715641e-05 0)
(1.1180211 -9.0705305e-05 0)
(1.1179963 -8.4791812e-05 0)
(1.1179734 -7.913806e-05 0)
(1.1179516 -7.4020447e-05 0)
(1.1179318 -6.8989901e-05 0)
(1.1179128 -6.4646844e-05 0)
(1.1178955 -6.015772e-05 0)
(1.117879 -5.6584864e-05 0)
(1.1178635 -5.2431071e-05 0)
(1.11785 -4.9737006e-05 0)
(1.1178349 -4.5801674e-05 0)
(1.1178261 -4.4315008e-05 0)
(1.1178083 -4.0569929e-05 0)
(1.0016583 -0.05381943 0)
(1.0359761 -0.10128444 0)
(1.0597199 -0.11073663 0)
(1.0628947 -0.10592202 0)
(1.0515569 -0.096228728 0)
(1.0340529 -0.083934061 0)
(1.0142795 -0.070327063 0)
(0.99360703 -0.056981334 0)
(0.97292577 -0.045107479 0)
(0.9531074 -0.03523675 0)
(0.93479538 -0.02740165 0)
(0.91829012 -0.021387228 0)
(0.90362379 -0.0168845 0)
(0.89068067 -0.01356971 0)
(0.87928174 -0.011147749 0)
(0.86923242 -0.0093736586 0)
(0.86034423 -0.0080569274 0)
(0.85244667 -0.0070571267 0)
(0.84539241 -0.006275238 0)
(0.83905793 -0.0056438286 0)
(0.83334126 -0.0051180914 0)
(0.82815884 -0.0046686728 0)
(0.82344212 -0.0042764176 0)
(0.81913467 -0.0039287387 0)
(0.81518961 -0.0036172031 0)
(0.81156765 -0.0033359698 0)
(0.80823544 -0.0030808033 0)
(0.8051644 -0.0028484683 0)
(0.80232979 -0.0026363689 0)
(0.79970999 -0.0024423386 0)
(0.79728597 -0.0022645191 0)
(0.79504086 -0.0021012904 0)
(0.79295963 -0.0019512259 0)
(0.7910288 -0.0018130634 0)
(0.78923627 -0.0016856835 0)
(0.7875711 -0.0015680923 0)
(0.78602338 -0.0014594053 0)
(0.78458412 -0.0013588352 0)
(0.78324511 -0.0012656799 0)
(0.78199889 -0.0011793114 0)
(0.7808386 -0.0010991671 0)
(0.77975799 -0.0010247414 0)
(0.77875128 -0.00095557899 0)
(0.77781318 -0.00089126848 0)
(0.77693881 -0.00083143713 0)
(0.77612368 -0.00077574649 0)
(0.77536362 -0.00072388832 0)
(0.77465481 -0.00067558139 0)
(0.77399368 -0.00063056831 0)
(0.77337694 -0.0005886124 0)
(0.77280153 -0.00054949566 0)
(0.77226464 -0.00051301722 0)
(0.77176363 -0.0004789918 0)
(0.77129606 -0.00044724825 0)
(0.77085967 -0.00041762884 0)
(0.77045234 -0.00038998797 0)
(0.77007212 -0.00036419063 0)
(0.76971717 -0.00034011173 0)
(0.76938581 -0.00031763546 0)
(0.76907645 -0.00029665381 0)
(0.7687876 -0.00027706571 0)
(0.76851791 -0.00025877687 0)
(0.7682661 -0.00024169966 0)
(0.76803096 -0.00022575201 0)
(0.76781139 -0.00021085791 0)
(0.76760635 -0.00019694727 0)
(0.76741489 -0.00018395555 0)
(0.76723608 -0.00017182263 0)
(0.7670691 -0.00016049285 0)
(0.76691316 -0.00014991306 0)
(0.76676752 -0.00014003342 0)
(0.7666315 -0.00013080585 0)
(0.76650446 -0.00012218664 0)
(0.76638582 -0.00011413341 0)
(0.76627501 -0.00010660979 0)
(0.76617152 -9.957998e-05 0)
(0.76607486 -9.3014856e-05 0)
(0.76598459 -8.6881984e-05 0)
(0.76590026 -8.1157601e-05 0)
(0.76582151 -7.5809226e-05 0)
(0.76574794 -7.0818979e-05 0)
(0.76567924 -6.615273e-05 0)
(0.76561504 -6.1799788e-05 0)
(0.76555512 -5.7722299e-05 0)
(0.76549911 -5.392558e-05 0)
(0.76544685 -5.0358183e-05 0)
(0.76539796 -4.7044017e-05 0)
(0.76535239 -4.393006e-05 0)
(0.76530971 -4.1069272e-05 0)
(0.76526996 -3.8332741e-05 0)
(0.7652327 -3.5828547e-05 0)
(0.76519805 -3.3433087e-05 0)
(0.76516559 -3.1318479e-05 0)
(0.76513517 -2.920421e-05 0)
(0.7651071 -2.7385868e-05 0)
(0.76507997 -2.5524322e-05 0)
(0.76505665 -2.4063857e-05 0)
(0.76503057 -2.2545251e-05 0)
(0.76501445 -2.1587654e-05 0)
(0.76498346 -2.0984788e-05 0)
(0.91890839 -0.035821913 0)
(0.86271384 -0.062195638 0)
(0.7870597 -0.06251009 0)
(0.69536033 -0.054550395 0)
(0.61089745 -0.044531651 0)
(0.54411592 -0.034015972 0)
(0.49343012 -0.02418754 0)
(0.45479413 -0.01614423 0)
(0.42544582 -0.010265785 0)
(0.40347313 -0.006304145 0)
(0.38715766 -0.0037976294 0)
(0.3749622 -0.0023103384 0)
(0.36566192 -0.0014930154 0)
(0.35836272 -0.0010851186 0)
(0.35244268 -0.0009060723 0)
(0.34748201 -0.00084105135 0)
(0.34320348 -0.00082372362 0)
(0.33942726 -0.00081931007 0)
(0.33603793 -0.000811852 0)
(0.33296114 -0.00079580154 0)
(0.33014778 -0.00077081194 0)
(0.32756384 -0.00073870994 0)
(0.3251842 -0.00070188955 0)
(0.32298902 -0.00066256563 0)
(0.32096172 -0.00062249931 0)
(0.31908785 -0.00058295705 0)
(0.31735449 -0.00054477117 0)
(0.31574995 -0.00050843393 0)
(0.3142636 -0.00047419168 0)
(0.31288574 -0.00044212494 0)
(0.31160755 -0.00041220989 0)
(0.31042101 -0.00038436202 0)
(0.30931883 -0.00035846515 0)
(0.30829438 -0.00033439017 0)
(0.30734165 -0.00031200628 0)
(0.30645515 -0.00029118708 0)
(0.30562991 -0.00027181373 0)
(0.30486136 -0.00025377641 0)
(0.30414535 -0.00023697432 0)
(0.30347807 -0.00022131518 0)
(0.30285601 -0.00020671475 0)
(0.30227596 -0.00019309613 0)
(0.30173496 -0.00018038899 0)
(0.30123029 -0.00016852887 0)
(0.30075942 -0.00015745669 0)
(0.30032002 -0.0001471181 0)
(0.29990993 -0.00013746299 0)
(0.29952715 -0.00012844517 0)
(0.29916983 -0.00012002175 0)
(0.29883624 -0.00011215264 0)
(0.29852478 -0.00010480051 0)
(0.29823397 -9.7930721e-05 0)
(0.29796241 -9.1511059e-05 0)
(0.29770882 -8.5511633e-05 0)
(0.29747201 -7.9904872e-05 0)
(0.29725084 -7.4665189e-05 0)
(0.29704429 -6.9768597e-05 0)
(0.29685138 -6.5192837e-05 0)
(0.2966712 -6.0917195e-05 0)
(0.29650291 -5.6921957e-05 0)
(0.29634572 -5.3188444e-05 0)
(0.2961989 -4.9699252e-05 0)
(0.29606176 -4.6438125e-05 0)
(0.29593366 -4.3389777e-05 0)
(0.29581401 -4.0540329e-05 0)
(0.29570224 -3.7877194e-05 0)
(0.29559784 -3.5388648e-05 0)
(0.29550032 -3.3063714e-05 0)
(0.29540922 -3.0892067e-05 0)
(0.29532413 -2.8863466e-05 0)
(0.29524464 -2.696823e-05 0)
(0.29517039 -2.5197014e-05 0)
(0.29510103 -2.3541367e-05 0)
(0.29503624 -2.1993215e-05 0)
(0.29497573 -2.0546084e-05 0)
(0.29491919 -1.9193527e-05 0)
(0.29486638 -1.7930369e-05 0)
(0.29481705 -1.6750434e-05 0)
(0.29477097 -1.5649371e-05 0)
(0.29472793 -1.4620425e-05 0)
(0.29468771 -1.3660385e-05 0)
(0.29465016 -1.276207e-05 0)
(0.29461507 -1.1923775e-05 0)
(0.2945823 -1.113752e-05 0)
(0.29455168 -1.0405468e-05 0)
(0.29452309 -9.7161715e-06 0)
(0.29449637 -9.0770659e-06 0)
(0.29447142 -8.4789913e-06 0)
(0.29444808 -7.9300672e-06 0)
(0.29442632 -7.3960995e-06 0)
(0.29440599 -6.9097515e-06 0)
(0.294387 -6.4602606e-06 0)
(0.2943692 -6.06283e-06 0)
(0.29435259 -5.6565932e-06 0)
(0.29433715 -5.2937053e-06 0)
(0.2943225 -4.9715986e-06 0)
(0.29430919 -4.6856356e-06 0)
(0.29429569 -4.5322497e-06 0)
(0.29428502 -4.4001046e-06 0)
(0.29426875 -5.0535859e-06 0)
)
;

boundaryField
{
    top
    {
        type            fixedValue;
        value           uniform (0 0 0);
    }
    inlet
    {
        type            fixedValue;
        value           uniform (1 0 0);
    }
    outlet
    {
        type            zeroGradient;
    }
    bottom
    {
        type            fixedValue;
        value           uniform (0 0 0);
    }
    back
    {
        type            empty;
    }
    front
    {
        type            empty;
    }
}


// ************************************************************************* //
