/*--------------------------------*- C++ -*----------------------------------*\
| =========                 |                                                 |
| \\      /  F ield         | OpenFOAM: The Open Source CFD Toolbox           |
|  \\    /   O peration     | Version:  v1812                                 |
|   \\  /    A nd           | Web:      www.OpenFOAM.com                      |
|    \\/     M anipulation  |                                                 |
\*---------------------------------------------------------------------------*/
FoamFile
{
    version     2.0;
    format      ascii;
    class       volVectorField;
    location    "11.35";
    object      U;
}
// * * * * * * * * * * * * * * * * * * * * * * * * * * * * * * * * * * * * * //

dimensions      [0 1 -1 0 0 0 0];


internalField   nonuniform List<vector> 
1000
(
(0.91890839 0.035821913 0)
(0.86271384 0.062195638 0)
(0.7870597 0.06251009 0)
(0.69536033 0.054550396 0)
(0.61089744 0.044531652 0)
(0.54411591 0.034015973 0)
(0.49343012 0.024187539 0)
(0.45479413 0.016144228 0)
(0.42544583 0.010265783 0)
(0.40347314 0.0063041434 0)
(0.38715767 0.0037976287 0)
(0.3749622 0.0023103388 0)
(0.36566192 0.0014930166 0)
(0.35836272 0.0010851203 0)
(0.35244267 0.00090607391 0)
(0.347482 0.00084105227 0)
(0.34320348 0.00082372345 0)
(0.33942726 0.00081930877 0)
(0.33603793 0.00081185002 0)
(0.33296114 0.00079579961 0)
(0.33014778 0.00077081075 0)
(0.32756384 0.00073870987 0)
(0.3251842 0.00070189062 0)
(0.32298902 0.00066256745 0)
(0.32096172 0.00062250124 0)
(0.31908785 0.00058295845 0)
(0.31735449 0.00054477161 0)
(0.31574995 0.0005084332 0)
(0.3142636 0.00047418998 0)
(0.31288574 0.00044212285 0)
(0.31160756 0.00041220815 0)
(0.31042101 0.00038436119 0)
(0.30931883 0.00035846556 0)
(0.30829438 0.00033439175 0)
(0.30734164 0.0003120085 0)
(0.30645515 0.00029118919 0)
(0.30562991 0.00027181508 0)
(0.30486136 0.0002537765 0)
(0.30414535 0.00023697305 0)
(0.30347807 0.00022131294 0)
(0.30285601 0.00020671232 0)
(0.30227596 0.00019309438 0)
(0.30173497 0.00018038857 0)
(0.30123029 0.00016853006 0)
(0.30075942 0.00015745918 0)
(0.30032001 0.00014712113 0)
(0.29990992 0.00013746554 0)
(0.29952715 0.00012844626 0)
(0.29916983 0.00012002078 0)
(0.29883624 0.00011214982 0)
(0.29852478 0.00010479685 0)
(0.29823397 9.7927582e-05 0)
(0.29796241 9.1509723e-05 0)
(0.29770882 8.5512829e-05 0)
(0.297472 7.9908318e-05 0)
(0.29725084 7.466969e-05 0)
(0.29704428 6.9772548e-05 0)
(0.29685137 6.519472e-05 0)
(0.29667119 6.091605e-05 0)
(0.29650291 5.6917973e-05 0)
(0.29634572 5.3183089e-05 0)
(0.2961989 4.9694606e-05 0)
(0.29606176 4.6436073e-05 0)
(0.29593366 4.3391489e-05 0)
(0.295814 4.0545468e-05 0)
(0.29570223 3.7883945e-05 0)
(0.29559782 3.5394383e-05 0)
(0.29550031 3.3066054e-05 0)
(0.29540922 3.0889835e-05 0)
(0.29532413 2.8857381e-05 0)
(0.29524465 2.696077e-05 0)
(0.2951704 2.5191376e-05 0)
(0.29510103 2.3540203e-05 0)
(0.29503624 2.1997617e-05 0)
(0.29497571 2.0554672e-05 0)
(0.29491917 1.9203146e-05 0)
(0.29486636 1.7937345e-05 0)
(0.29481703 1.6752243e-05 0)
(0.29477095 1.5645689e-05 0)
(0.29472792 1.4613494e-05 0)
(0.29468771 1.3653725e-05 0)
(0.29465015 1.2759122e-05 0)
(0.29461505 1.1926367e-05 0)
(0.29458227 1.1144838e-05 0)
(0.29455165 1.0413872e-05 0)
(0.29452306 9.7223929e-06 0)
(0.29449635 9.0777565e-06 0)
(0.29447143 8.4674194e-06 0)
(0.29444814 7.9073219e-06 0)
(0.29442642 7.3761583e-06 0)
(0.29440611 6.8971654e-06 0)
(0.29438718 6.4342784e-06 0)
(0.29436948 6.021457e-06 0)
(0.29435299 5.6116588e-06 0)
(0.29433763 5.2517907e-06 0)
(0.29432316 4.9066629e-06 0)
(0.29431 4.6061524e-06 0)
(0.29429683 4.4165316e-06 0)
(0.2942863 4.2627721e-06 0)
(0.29427073 4.7867422e-06 0)
(1.0016583 0.05381943 0)
(1.0359761 0.10128444 0)
(1.0597199 0.11073663 0)
(1.0628947 0.10592202 0)
(1.0515569 0.09622873 0)
(1.0340529 0.083934064 0)
(1.0142795 0.070327064 0)
(0.99360703 0.056981332 0)
(0.97292577 0.045107475 0)
(0.9531074 0.035236746 0)
(0.93479539 0.027401647 0)
(0.91829012 0.021387227 0)
(0.90362379 0.016884501 0)
(0.89068067 0.013569713 0)
(0.87928174 0.011147753 0)
(0.86923241 0.0093736616 0)
(0.86034423 0.0080569283 0)
(0.85244667 0.007057125 0)
(0.84539241 0.0062752343 0)
(0.83905793 0.0056438242 0)
(0.83334127 0.0051180878 0)
(0.82815884 0.0046686712 0)
(0.82344212 0.0042764186 0)
(0.81913467 0.0039287418 0)
(0.81518961 0.0036172072 0)
(0.81156765 0.0033359735 0)
(0.80823544 0.0030808054 0)
(0.8051644 0.0028484681 0)
(0.80232979 0.0026363664 0)
(0.79970999 0.0024423345 0)
(0.79728597 0.0022645148 0)
(0.79504086 0.0021012873 0)
(0.79295963 0.0019512251 0)
(0.7910288 0.0018130652 0)
(0.78923627 0.0016856876 0)
(0.7875711 0.0015680971 0)
(0.78602338 0.0014594093 0)
(0.78458411 0.0013588372 0)
(0.78324511 0.001265679 0)
(0.78199889 0.0011793079 0)
(0.78083861 0.0010991621 0)
(0.77975799 0.0010247368 0)
(0.77875128 0.00095557642 0)
(0.77781318 0.00089126902 0)
(0.77693881 0.00083144089 0)
(0.77612367 0.00077575246 0)
(0.77536362 0.00072389471 0)
(0.7746548 0.00067558601 0)
(0.77399367 0.00063056926 0)
(0.77337693 0.00058860903 0)
(0.77280153 0.00054948907 0)
(0.77226464 0.00051300984 0)
(0.77176363 0.00047898652 0)
(0.77129606 0.00044724753 0)
(0.77085966 0.00041763347 0)
(0.77045233 0.00038999659 0)
(0.77007211 0.00036420038 0)
(0.76971716 0.00034011917 0)
(0.7693858 0.0003176376 0)
(0.76907644 0.00029664941 0)
(0.7687876 0.0002770563 0)
(0.76851791 0.00025876612 0)
(0.76826609 0.00024169183 0)
(0.76803095 0.00022575073 0)
(0.76781138 0.00021086457 0)
(0.76760634 0.00019696012 0)
(0.76741487 0.00018397008 0)
(0.76723606 0.00017183335 0)
(0.76706908 0.00016049527 0)
(0.76691314 0.00014990591 0)
(0.76676751 0.00014001941 0)
(0.76663149 0.00013079102 0)
(0.76650445 0.00012217754 0)
(0.76638581 0.00011413501 0)
(0.76627499 0.00010662239 0)
(0.7661715 9.9599412e-05 0)
(0.76607483 9.303331e-05 0)
(0.76598456 8.689221e-05 0)
(0.76590023 8.1154811e-05 0)
(0.76582149 7.5794646e-05 0)
(0.76574793 7.0797035e-05 0)
(0.76567924 6.6131004e-05 0)
(0.76561506 6.178374e-05 0)
(0.76555514 5.7713763e-05 0)
(0.76549914 5.3917312e-05 0)
(0.76544691 5.0344047e-05 0)
(0.76539806 4.7015614e-05 0)
(0.76535255 4.3868856e-05 0)
(0.76530995 4.0963319e-05 0)
(0.76527032 3.8200392e-05 0)
(0.76523318 3.5688132e-05 0)
(0.76519867 3.3258031e-05 0)
(0.76516636 3.1095567e-05 0)
(0.76513625 2.8928473e-05 0)
(0.76510839 2.7077801e-05 0)
(0.76508169 2.5132144e-05 0)
(0.76505857 2.3622475e-05 0)
(0.76503324 2.196251e-05 0)
(0.76501727 2.0975534e-05 0)
(0.76498748 2.009518e-05 0)
(1.0014244 0.026824855 0)
(1.0291272 0.062791352 0)
(1.0654292 0.077736553 0)
(1.098962 0.080597201 0)
(1.1253149 0.078285173 0)
(1.145053 0.073153902 0)
(1.1594858 0.06611128 0)
(1.1694287 0.058162063 0)
(1.1755354 0.050296751 0)
(1.1785738 0.043150704 0)
(1.1793571 0.036972821 0)
(1.1785949 0.03177163 0)
(1.1768304 0.02745184 0)
(1.1744518 0.023886771 0)
(1.1717287 0.020947625 0)
(1.1688444 0.018515785 0)
(1.1659195 0.016488087 0)
(1.1630317 0.014779502 0)
(1.1602295 0.013322982 0)
(1.1575415 0.012067128 0)
(1.1549828 0.010972996 0)
(1.1525601 0.010011058 0)
(1.1502747 0.009158746 0)
(1.1481246 0.0083986062 0)
(1.1461059 0.0077169546 0)
(1.1442134 0.007102893 0)
(1.1424414 0.0065475957 0)
(1.1407838 0.0060437971 0)
(1.1392344 0.0055854251 0)
(1.1377869 0.0051673412 0)
(1.1364353 0.0047851522 0)
(1.1351738 0.0044350717 0)
(1.1339968 0.0041138141 0)
(1.1328987 0.003818513 0)
(1.1318746 0.003546656 0)
(1.1309195 0.0032960323 0)
(1.1300289 0.0030646888 0)
(1.1291985 0.0028508949 0)
(1.1284242 0.0026531117 0)
(1.1277022 0.0024699665 0)
(1.1270291 0.0023002306 0)
(1.1264014 0.0021428007 0)
(1.1258161 0.0019966829 0)
(1.1252702 0.0018609785 0)
(1.1247612 0.0017348731 0)
(1.1242865 0.0016176268 0)
(1.1238437 0.0015085658 0)
(1.1234307 0.001407076 0)
(1.1230455 0.0013125964 0)
(1.1226861 0.001224614 0)
(1.1223509 0.0011426588 0)
(1.1220381 0.0010662988 0)
(1.1217462 0.00099513594 0)
(1.1214739 0.00092880247 0)
(1.1212198 0.00086695797 0)
(1.1209827 0.00080928701 0)
(1.1207614 0.0007554974 0)
(1.1205548 0.00070531911 0)
(1.1203621 0.00065850285 0)
(1.1201821 0.0006148189 0)
(1.1200142 0.00057405538 0)
(1.1198574 0.00053601597 0)
(1.1197111 0.00050051779 0)
(1.1195744 0.0004673893 0)
(1.1194469 0.00043646926 0)
(1.1193278 0.00040760608 0)
(1.1192167 0.00038065827 0)
(1.1191129 0.00035549472 0)
(1.119016 0.00033199542 0)
(1.1189255 0.0003100503 0)
(1.118841 0.00028955949 0)
(1.1187621 0.00027042912 0)
(1.1186884 0.00025257233 0)
(1.1186196 0.00023590326 0)
(1.1185554 0.00022034231 0)
(1.1184954 0.00020580897 0)
(1.1184394 0.00019223375 0)
(1.1183871 0.00017954505 0)
(1.1183382 0.00016769074 0)
(1.1182926 0.00015660905 0)
(1.11825 0.00014626683 0)
(1.1182103 0.00013660154 0)
(1.1181731 0.0001275952 0)
(1.1181384 0.00011916803 0)
(1.1181059 0.00011132328 0)
(1.1180758 0.00010395045 0)
(1.1180474 9.7101359e-05 0)
(1.1180212 9.0616583e-05 0)
(1.1179963 8.4641858e-05 0)
(1.1179736 7.8917513e-05 0)
(1.1179518 7.3748894e-05 0)
(1.1179321 6.8667608e-05 0)
(1.1179131 6.4264323e-05 0)
(1.1178959 5.9672467e-05 0)
(1.1178795 5.6027317e-05 0)
(1.1178642 5.1734249e-05 0)
(1.1178508 4.8960201e-05 0)
(1.1178359 4.4794721e-05 0)
(1.1178272 4.3238195e-05 0)
(1.1178098 3.9153623e-05 0)
(1.0007347 0.011814722 0)
(1.0178472 0.030860927 0)
(1.0462163 0.041434442 0)
(1.0799018 0.045193571 0)
(1.1132664 0.045502353 0)
(1.143782 0.04408031 0)
(1.1708941 0.041439983 0)
(1.1945687 0.037973678 0)
(1.2148582 0.034195727 0)
(1.2319652 0.030536884 0)
(1.2462683 0.027222041 0)
(1.2582339 0.024313918 0)
(1.2683135 0.021797888 0)
(1.2768875 0.019633661 0)
(1.2842554 0.01777383 0)
(1.2906479 0.016169656 0)
(1.296243 0.014775593 0)
(1.3011791 0.013552299 0)
(1.3055645 0.012467862 0)
(1.3094838 0.011497462 0)
(1.3130042 0.010622157 0)
(1.3161792 0.009827509 0)
(1.3190526 0.0091024085 0)
(1.3216607 0.0084381769 0)
(1.3240343 0.0078279065 0)
(1.3261995 0.0072659788 0)
(1.3281786 0.0067477133 0)
(1.3299913 0.0062691202 0)
(1.3316544 0.0058267286 0)
(1.3331829 0.0054174718 0)
(1.3345896 0.0050386085 0)
(1.3358862 0.004687669 0)
(1.3370827 0.0043624153 0)
(1.3381882 0.0040608125 0)
(1.3392108 0.0037810051 0)
(1.3401576 0.0035212987 0)
(1.3410349 0.0032801438 0)
(1.3418486 0.0030561229 0)
(1.3426038 0.0028479376 0)
(1.3433051 0.0026543982 0)
(1.3439569 0.0024744134 0)
(1.3445629 0.0023069811 0)
(1.3451267 0.0021511802 0)
(1.3456513 0.0020061627 0)
(1.3461398 0.0018711472 0)
(1.3465947 0.0017454127 0)
(1.3470185 0.0016282939 0)
(1.3474135 0.0015191768 0)
(1.3477816 0.0014174942 0)
(1.3481249 0.0013227225 0)
(1.3484449 0.0012343781 0)
(1.3487435 0.0011520137 0)
(1.349022 0.0010752152 0)
(1.3492818 0.0010035981 0)
(1.3495242 0.00093680539 0)
(1.3497505 0.00087450438 0)
(1.3499616 0.00081638558 0)
(1.3501587 0.00076216121 0)
(1.3503427 0.00071156417 0)
(1.3505145 0.00066434734 0)
(1.3506748 0.00062028223 0)
(1.3508245 0.00057915742 0)
(1.3509643 0.00054077679 0)
(1.3510948 0.000504957 0)
(1.3512167 0.00047152631 0)
(1.3513305 0.00044032271 0)
(1.3514368 0.00041119422 0)
(1.3515361 0.00038399846 0)
(1.3516287 0.00035860378 0)
(1.3517153 0.00033488863 0)
(1.3517962 0.00031274289 0)
(1.3518717 0.00029206412 0)
(1.3519422 0.00027275974 0)
(1.3520081 0.00025473915 0)
(1.3520696 0.00023792001 0)
(1.3521271 0.00022221679 0)
(1.3521807 0.00020755574 0)
(1.3522309 0.00019385615 0)
(1.3522777 0.00018105988 0)
(1.3523215 0.00016909376 0)
(1.3523623 0.00015792347 0)
(1.3524005 0.00014747594 0)
(1.3524361 0.00013774272 0)
(1.3524694 0.00012863029 0)
(1.3525004 0.0001201634 0)
(1.3525296 0.00011220033 0)
(1.3525564 0.00010483102 0)
(1.3525821 9.7829075e-05 0)
(1.3526053 9.1417984e-05 0)
(1.3526279 8.5212897e-05 0)
(1.3526477 7.9683299e-05 0)
(1.352668 7.4131459e-05 0)
(1.3526845 6.9465815e-05 0)
(1.352703 6.4397299e-05 0)
(1.3527163 6.062459e-05 0)
(1.3527338 5.5812028e-05 0)
(1.3527435 5.304691e-05 0)
(1.3527611 4.8242534e-05 0)
(1.3527666 4.6742639e-05 0)
(1.3527864 4.1710231e-05 0)
(1.0005903 0.0034629163 0)
(1.0136865 0.0093660203 0)
(1.0370283 0.013046807 0)
(1.0674202 0.014563263 0)
(1.1000315 0.014854526 0)
(1.1316428 0.014564992 0)
(1.1610745 0.013888338 0)
(1.1880674 0.012919244 0)
(1.2125205 0.011806504 0)
(1.2343939 0.010696424 0)
(1.2538077 0.0096727402 0)
(1.2710339 0.0087628212 0)
(1.286401 0.0079659742 0)
(1.3002112 0.0072722166 0)
(1.3127102 0.0066688114 0)
(1.3240903 0.0061419281 0)
(1.3345036 0.0056780741 0)
(1.3440716 0.0052653213 0)
(1.3528927 0.0048939336 0)
(1.3610463 0.004556393 0)
(1.3685975 0.0042470665 0)
(1.3756004 0.0039617731 0)
(1.3821012 0.0036973964 0)
(1.3881402 0.0034515832 0)
(1.3937533 0.0032225209 0)
(1.3989728 0.0030087732 0)
(1.403828 0.0028091612 0)
(1.4083456 0.0026226813 0)
(1.4125503 0.0024484499 0)
(1.4164646 0.002285669 0)
(1.4201094 0.0021336043 0)
(1.423504 0.0019915726 0)
(1.4266661 0.0018589335 0)
(1.4296121 0.0017350849 0)
(1.4323573 0.0016194599 0)
(1.4349159 0.0015115246 0)
(1.4373007 0.0014107772 0)
(1.439524 0.0013167459 0)
(1.441597 0.0012289886 0)
(1.4435301 0.0011470908 0)
(1.4453329 0.0010706645 0)
(1.4470143 0.00099934651 0)
(1.4485827 0.00093279698 0)
(1.4500459 0.00087069771 0)
(1.451411 0.00081275089 0)
(1.4526846 0.00075867792 0)
(1.4538731 0.00070821851 0)
(1.4549821 0.0006611296 0)
(1.4560171 0.00061718487 0)
(1.4569831 0.00057617352 0)
(1.4578847 0.00053789929 0)
(1.4587262 0.00050217943 0)
(1.4595117 0.00046884339 0)
(1.460245 0.00043773194 0)
(1.4609295 0.00040869588 0)
(1.4615685 0.00038159548 0)
(1.4621651 0.00035629992 0)
(1.4627221 0.000332687 0)
(1.4632422 0.00031064331 0)
(1.4637278 0.00029006374 0)
(1.4641811 0.00027085102 0)
(1.4646045 0.00025291513 0)
(1.4649998 0.00023617217 0)
(1.4653689 0.00022054358 0)
(1.4657136 0.00020595527 0)
(1.4660355 0.00019233684 0)
(1.4663361 0.00017962208 0)
(1.4666168 0.00016774857 0)
(1.4668789 0.00015665906 0)
(1.4671238 0.00014630093 0)
(1.4673524 0.00013662676 0)
(1.467566 0.00012759282 0)
(1.4677654 0.00011915941 0)
(1.4679517 0.00011128771 0)
(1.4681256 0.00010394201 0)
(1.468288 9.7084203e-05 0)
(1.4684397 9.0681522e-05 0)
(1.4685815 8.4697437e-05 0)
(1.4687138 7.9106702e-05 0)
(1.4688375 7.3876475e-05 0)
(1.4689529 6.8993615e-05 0)
(1.4690608 6.442553e-05 0)
(1.4691614 6.0172646e-05 0)
(1.4692557 5.6190326e-05 0)
(1.4693433 5.2495532e-05 0)
(1.4694256 4.9017073e-05 0)
(1.4695018 4.5805197e-05 0)
(1.4695739 4.2743445e-05 0)
(1.4696399 3.9950908e-05 0)
(1.4697033 3.7229573e-05 0)
(1.4697601 3.4825386e-05 0)
(1.4698164 3.2382654e-05 0)
(1.4698645 3.0366983e-05 0)
(1.4699153 2.8130763e-05 0)
(1.4699546 2.6519956e-05 0)
(1.4700022 2.4387592e-05 0)
(1.4700317 2.3222308e-05 0)
(1.4700797 2.1077712e-05 0)
(1.4700966 2.0445489e-05 0)
(1.4701506 1.8171849e-05 0)
(1.0005903 -0.0034629154 0)
(1.0136865 -0.0093660189 0)
(1.0370283 -0.013046805 0)
(1.0674202 -0.01456326 0)
(1.1000315 -0.014854524 0)
(1.1316428 -0.014564991 0)
(1.1610745 -0.01388834 0)
(1.1880674 -0.012919248 0)
(1.2125205 -0.011806509 0)
(1.2343939 -0.010696428 0)
(1.2538077 -0.0096727418 0)
(1.2710339 -0.0087628201 0)
(1.286401 -0.0079659707 0)
(1.3002112 -0.0072722117 0)
(1.3127102 -0.0066688066 0)
(1.3240903 -0.0061419249 0)
(1.3345036 -0.0056780735 0)
(1.3440716 -0.0052653234 0)
(1.3528927 -0.004893938 0)
(1.3610463 -0.0045563981 0)
(1.3685975 -0.0042470708 0)
(1.3756004 -0.0039617753 0)
(1.3821012 -0.0036973956 0)
(1.3881402 -0.0034515797 0)
(1.3937533 -0.0032225158 0)
(1.3989728 -0.0030087681 0)
(1.403828 -0.0028091577 0)
(1.4083456 -0.0026226806 0)
(1.4125503 -0.0024484521 0)
(1.4164646 -0.0022856734 0)
(1.4201095 -0.0021336094 0)
(1.423504 -0.0019915766 0)
(1.4266661 -0.001858935 0)
(1.4296121 -0.0017350832 0)
(1.4323573 -0.0016194554 0)
(1.4349158 -0.0015115188 0)
(1.4373007 -0.0014107717 0)
(1.439524 -0.0013167426 0)
(1.441597 -0.0012289884 0)
(1.4435301 -0.0011470936 0)
(1.4453329 -0.0010706691 0)
(1.4470143 -0.00099935101 0)
(1.4485827 -0.00093279946 0)
(1.4500459 -0.00087069684 0)
(1.451411 -0.00081274652 0)
(1.4526846 -0.0007586711 0)
(1.4538731 -0.00070821115 0)
(1.4549821 -0.00066112399 0)
(1.4560171 -0.00061718254 0)
(1.4569831 -0.00057617484 0)
(1.4578847 -0.00053790325 0)
(1.4587262 -0.00050218397 0)
(1.4595117 -0.00046884613 0)
(1.460245 -0.00043773079 0)
(1.4609295 -0.00040869017 0)
(1.4615685 -0.00038158602 0)
(1.4621651 -0.0003562891 0)
(1.4627221 -0.00033267795 0)
(1.4632422 -0.00031063853 0)
(1.4637278 -0.00029006417 0)
(1.4641812 -0.00027085561 0)
(1.4646045 -0.00025292106 0)
(1.4649998 -0.00023617598 0)
(1.465369 -0.00022054215 0)
(1.4657136 -0.0002059473 0)
(1.4660355 -0.00019232343 0)
(1.4663361 -0.00017960658 0)
(1.4666168 -0.00016773568 0)
(1.4668789 -0.00015665284 0)
(1.4671238 -0.00014630326 0)
(1.4673524 -0.00013663664 0)
(1.467566 -0.00012760642 0)
(1.4677654 -0.00011917171 0)
(1.4679517 -0.00011129379 0)
(1.4681256 -0.00010393937 0)
(1.468288 -9.70739e-05 0)
(1.4684397 -9.066807e-05 0)
(1.4685815 -8.4686958e-05 0)
(1.4687138 -7.9104594e-05 0)
(1.4688375 -7.3885263e-05 0)
(1.4689529 -6.9012062e-05 0)
(1.4690608 -6.444865e-05 0)
(1.4691614 -6.019363e-05 0)
(1.4692557 -5.6203969e-05 0)
(1.4693433 -5.249946e-05 0)
(1.4694256 -4.901339e-05 0)
(1.4695018 -4.5798553e-05 0)
(1.4695739 -4.27402e-05 0)
(1.4696399 -3.9955821e-05 0)
(1.4697033 -3.7244206e-05 0)
(1.4697601 -3.4847058e-05 0)
(1.4698164 -3.2405244e-05 0)
(1.4698645 -3.0383952e-05 0)
(1.4699153 -2.8136549e-05 0)
(1.4699546 -2.6514333e-05 0)
(1.4700022 -2.4372614e-05 0)
(1.4700317 -2.3205411e-05 0)
(1.4700796 -2.1061523e-05 0)
(1.4700966 -2.0435795e-05 0)
(1.4701506 -1.8165979e-05 0)
(1.0007347 -0.011814721 0)
(1.0178472 -0.030860926 0)
(1.0462163 -0.04143444 0)
(1.0799018 -0.045193569 0)
(1.1132664 -0.045502352 0)
(1.143782 -0.04408031 0)
(1.1708941 -0.041439986 0)
(1.1945687 -0.037973681 0)
(1.2148582 -0.034195731 0)
(1.2319652 -0.030536885 0)
(1.2462683 -0.02722204 0)
(1.2582339 -0.024313915 0)
(1.2683135 -0.021797883 0)
(1.2768875 -0.019633658 0)
(1.2842554 -0.017773828 0)
(1.2906479 -0.016169656 0)
(1.296243 -0.014775596 0)
(1.3011791 -0.013552302 0)
(1.3055645 -0.012467866 0)
(1.3094838 -0.011497465 0)
(1.3130042 -0.010622157 0)
(1.3161792 -0.0098275073 0)
(1.3190526 -0.0091024054 0)
(1.3216607 -0.0084381733 0)
(1.3240343 -0.0078279037 0)
(1.3261995 -0.0072659776 0)
(1.3281786 -0.0067477142 0)
(1.3299913 -0.0062691226 0)
(1.3316544 -0.0058267318 0)
(1.3331829 -0.0054174747 0)
(1.3345896 -0.00503861 0)
(1.3358862 -0.0046876685 0)
(1.3370827 -0.0043624129 0)
(1.3381882 -0.0040608089 0)
(1.3392108 -0.0037810015 0)
(1.3401576 -0.0035212961 0)
(1.3410349 -0.0032801432 0)
(1.3418486 -0.0030561242 0)
(1.3426038 -0.0028479403 0)
(1.3433051 -0.0026544011 0)
(1.3439569 -0.0024744152 0)
(1.3445629 -0.0023069808 0)
(1.3451267 -0.0021511776 0)
(1.3456513 -0.0020061584 0)
(1.3461398 -0.0018711423 0)
(1.3465947 -0.0017454087 0)
(1.3470185 -0.0016282921 0)
(1.3474135 -0.0015191773 0)
(1.3477816 -0.0014174965 0)
(1.3481249 -0.0013227253 0)
(1.3484449 -0.0012343797 0)
(1.3487435 -0.0011520128 0)
(1.349022 -0.0010752112 0)
(1.3492818 -0.0010035917 0)
(1.3495242 -0.00093679797 0)
(1.3497505 -0.00087449807 0)
(1.3499616 -0.00081638204 0)
(1.3501587 -0.00076216101 0)
(1.3503427 -0.00071156665 0)
(1.3505145 -0.00066435063 0)
(1.3506748 -0.00062028402 0)
(1.3508246 -0.00057915578 0)
(1.3509643 -0.00054077086 0)
(1.3510949 -0.00050494764 0)
(1.3512167 -0.00047151566 0)
(1.3513305 -0.00044031368 0)
(1.3514368 -0.00041118928 0)
(1.3515361 -0.00038399859 0)
(1.3516288 -0.00035860835 0)
(1.3517154 -0.00033489537 0)
(1.3517962 -0.00031274882 0)
(1.3518717 -0.00029206673 0)
(1.3519423 -0.00027275766 0)
(1.3520081 -0.00025473325 0)
(1.3520696 -0.00023791266 0)
(1.3521271 -0.00022221128 0)
(1.3521807 -0.00020755478 0)
(1.3522309 -0.00019386109 0)
(1.3522777 -0.00018107003 0)
(1.3523215 -0.00016910664 0)
(1.3523623 -0.00015793558 0)
(1.3524005 -0.00014748475 0)
(1.3524361 -0.00013774724 0)
(1.3524695 -0.00012863157 0)
(1.3525004 -0.00012016375 0)
(1.3525296 -0.00011220272 0)
(1.3525564 -0.00010483745 0)
(1.3525821 -9.7840288e-05 0)
(1.3526053 -9.1432403e-05 0)
(1.3526279 -8.5228291e-05 0)
(1.3526478 -7.9696318e-05 0)
(1.352668 -7.4140537e-05 0)
(1.3526845 -6.9469358e-05 0)
(1.352703 -6.4397394e-05 0)
(1.3527163 -6.0621747e-05 0)
(1.3527337 -5.5809891e-05 0)
(1.3527435 -5.3046044e-05 0)
(1.3527611 -4.8244127e-05 0)
(1.3527666 -4.674805e-05 0)
(1.3527863 -4.1714302e-05 0)
(1.0014244 -0.026824854 0)
(1.0291272 -0.062791351 0)
(1.0654292 -0.077736551 0)
(1.098962 -0.080597201 0)
(1.1253148 -0.078285174 0)
(1.145053 -0.073153905 0)
(1.1594858 -0.066111283 0)
(1.1694287 -0.058162065 0)
(1.1755354 -0.050296751 0)
(1.1785738 -0.043150701 0)
(1.1793571 -0.036972816 0)
(1.1785949 -0.031771625 0)
(1.1768304 -0.027451838 0)
(1.1744518 -0.023886772 0)
(1.1717287 -0.020947628 0)
(1.1688444 -0.01851579 0)
(1.1659195 -0.016488092 0)
(1.1630317 -0.014779505 0)
(1.1602295 -0.013322981 0)
(1.1575415 -0.012067124 0)
(1.1549828 -0.010972991 0)
(1.1525601 -0.010011054 0)
(1.1502747 -0.009158743 0)
(1.1481246 -0.0083986059 0)
(1.1461059 -0.007716957 0)
(1.1442134 -0.0071028973 0)
(1.1424414 -0.0065476005 0)
(1.1407838 -0.0060438006 0)
(1.1392344 -0.0055854261 0)
(1.1377869 -0.0051673393 0)
(1.1364353 -0.004785148 0)
(1.1351738 -0.0044350665 0)
(1.1339968 -0.0041138096 0)
(1.1328987 -0.0038185108 0)
(1.1318746 -0.0035466569 0)
(1.1309195 -0.0032960359 0)
(1.1300289 -0.0030646939 0)
(1.1291985 -0.0028508995 0)
(1.1284242 -0.002653114 0)
(1.1277022 -0.0024699654 0)
(1.1270291 -0.0023002262 0)
(1.1264014 -0.0021427943 0)
(1.1258161 -0.0019966765 0)
(1.1252702 -0.0018609743 0)
(1.1247612 -0.0017348725 0)
(1.1242865 -0.00161763 0)
(1.1238437 -0.0015085714 0)
(1.1234307 -0.0014070817 0)
(1.1230455 -0.0013125997 0)
(1.1226861 -0.0012246131 0)
(1.1223509 -0.0011426534 0)
(1.1220381 -0.00106629 0)
(1.1217462 -0.00099512654 0)
(1.1214739 -0.0009287956 0)
(1.1212198 -0.00086695594 0)
(1.1209827 -0.00080929044 0)
(1.1207614 -0.00075550473 0)
(1.1205548 -0.00070532703 0)
(1.1203621 -0.0006585076 0)
(1.1201821 -0.00061481765 0)
(1.1200142 -0.00057404742 0)
(1.1198574 -0.0005360031 0)
(1.1197111 -0.00050050393 0)
(1.1195745 -0.00046737908 0)
(1.1194469 -0.00043646618 0)
(1.1193278 -0.0004076111 0)
(1.1192167 -0.00038066921 0)
(1.1191129 -0.00035550695 0)
(1.119016 -0.00033200372 0)
(1.1189255 -0.00031005083 0)
(1.118841 -0.0002895514 0)
(1.1187621 -0.00027041502 0)
(1.1186885 -0.00025255746 0)
(1.1186197 -0.00023589361 0)
(1.1185554 -0.00022034223 0)
(1.1184954 -0.00020581905 0)
(1.1184394 -0.0001922508 0)
(1.1183871 -0.00017956298 0)
(1.1183383 -0.00016770347 0)
(1.1182927 -0.00015661255 0)
(1.1182501 -0.00014626139 0)
(1.1182103 -0.00013659101 0)
(1.1181731 -0.0001275862 0)
(1.1181384 -0.00011916597 0)
(1.1181059 -0.00011133149 0)
(1.1180758 -0.00010396742 0)
(1.1180474 -9.7123382e-05 0)
(1.1180212 -9.0636806e-05 0)
(1.1179963 -8.4656021e-05 0)
(1.1179736 -7.8922161e-05 0)
(1.1179518 -7.3746968e-05 0)
(1.1179321 -6.8661892e-05 0)
(1.1179131 -6.4262338e-05 0)
(1.1178959 -5.9675965e-05 0)
(1.1178794 -5.6039637e-05 0)
(1.1178642 -5.175047e-05 0)
(1.1178507 -4.8980011e-05 0)
(1.1178359 -4.4813727e-05 0)
(1.1178272 -4.3256142e-05 0)
(1.1178098 -3.9165462e-05 0)
(1.0016583 -0.053819429 0)
(1.0359761 -0.10128443 0)
(1.0597199 -0.11073663 0)
(1.0628947 -0.10592202 0)
(1.0515569 -0.096228733 0)
(1.0340529 -0.083934066 0)
(1.0142795 -0.070327065 0)
(0.99360703 -0.05698133 0)
(0.97292577 -0.045107471 0)
(0.9531074 -0.035236741 0)
(0.93479539 -0.027401644 0)
(0.91829012 -0.021387226 0)
(0.90362379 -0.016884503 0)
(0.89068067 -0.013569717 0)
(0.87928174 -0.011147758 0)
(0.86923241 -0.0093736655 0)
(0.86034423 -0.0080569298 0)
(0.85244667 -0.0070571235 0)
(0.84539242 -0.0062752302 0)
(0.83905793 -0.0056438191 0)
(0.83334127 -0.0051180833 0)
(0.82815884 -0.0046686689 0)
(0.82344212 -0.0042764192 0)
(0.81913467 -0.0039287452 0)
(0.81518961 -0.0036172123 0)
(0.81156765 -0.0033359785 0)
(0.80823544 -0.0030808086 0)
(0.8051644 -0.0028484684 0)
(0.80232979 -0.0026363636 0)
(0.79970999 -0.0024423295 0)
(0.79728597 -0.0022645094 0)
(0.79504087 -0.0021012832 0)
(0.79295963 -0.0019512237 0)
(0.7910288 -0.0018130672 0)
(0.78923627 -0.0016856922 0)
(0.7875711 -0.0015681028 0)
(0.78602338 -0.001459414 0)
(0.78458411 -0.0013588391 0)
(0.78324511 -0.0012656773 0)
(0.78199889 -0.0011793029 0)
(0.78083861 -0.0010991556 0)
(0.77975799 -0.0010247309 0)
(0.77875128 -0.00095557335 0)
(0.77781318 -0.00089126992 0)
(0.77693881 -0.00083144552 0)
(0.77612368 -0.00077575911 0)
(0.77536362 -0.00072390085 0)
(0.77465481 -0.00067558912 0)
(0.77399368 -0.00063056776 0)
(0.77337694 -0.00058860307 0)
(0.77280154 -0.0005494804 0)
(0.77226465 -0.00051300144 0)
(0.77176364 -0.00047898146 0)
(0.77129607 -0.00044724782 0)
(0.77085967 -0.0004176392 0)
(0.77045234 -0.0003900056 0)
(0.77007212 -0.0003642091 0)
(0.76971717 -0.00034012383 0)
(0.76938581 -0.00031763572 0)
(0.76907645 -0.000296641 0)
(0.76878761 -0.0002770438 0)
(0.76851792 -0.00025875386 0)
(0.76826611 -0.00024168432 0)
(0.76803097 -0.00022575093 0)
(0.7678114 -0.00021087268 0)
(0.76760636 -0.00019697315 0)
(0.76741489 -0.00018398306 0)
(0.76723608 -0.00017184104 0)
(0.7670691 -0.00016049424 0)
(0.76691316 -0.00014989613 0)
(0.76676753 -0.00014000419 0)
(0.76663151 -0.00013077611 0)
(0.76650448 -0.00012216876 0)
(0.76638583 -0.00011413606 0)
(0.76627502 -0.00010663331 0)
(0.76617152 -9.9616273e-05 0)
(0.76607485 -9.3049781e-05 0)
(0.76598458 -8.6902186e-05 0)
(0.76590025 -8.1154713e-05 0)
(0.76582151 -7.5785396e-05 0)
(0.76574794 -7.0783059e-05 0)
(0.76567925 -6.6118983e-05 0)
(0.76561507 -6.1779298e-05 0)
(0.76555515 -5.7719615e-05 0)
(0.76549916 -5.3931886e-05 0)
(0.76544692 -5.0362704e-05 0)
(0.76539807 -4.7032034e-05 0)
(0.76535255 -4.3878354e-05 0)
(0.76530994 -4.096374e-05 0)
(0.7652703 -3.819386e-05 0)
(0.76523316 -3.5679204e-05 0)
(0.76519865 -3.3252411e-05 0)
(0.76516634 -3.109738e-05 0)
(0.76513622 -2.8938326e-05 0)
(0.76510837 -2.7094131e-05 0)
(0.76508166 -2.5151278e-05 0)
(0.76505853 -2.3641637e-05 0)
(0.76503319 -2.1980688e-05 0)
(0.76501723 -2.0990159e-05 0)
(0.76498744 -2.0105797e-05 0)
(0.91890839 -0.035821912 0)
(0.86271384 -0.062195638 0)
(0.7870597 -0.062510091 0)
(0.69536032 -0.054550397 0)
(0.61089744 -0.044531654 0)
(0.54411591 -0.034015973 0)
(0.49343012 -0.024187539 0)
(0.45479414 -0.016144226 0)
(0.42544583 -0.010265781 0)
(0.40347314 -0.0063041415 0)
(0.38715767 -0.0037976281 0)
(0.3749622 -0.0023103398 0)
(0.36566192 -0.0014930188 0)
(0.35836272 -0.0010851228 0)
(0.35244267 -0.00090607599 0)
(0.347482 -0.00084105319 0)
(0.34320348 -0.00082372292 0)
(0.33942726 -0.00081930699 0)
(0.33603793 -0.00081184759 0)
(0.33296115 -0.00079579737 0)
(0.33014779 -0.00077080943 0)
(0.32756384 -0.00073870994 0)
(0.3251842 -0.00070189205 0)
(0.32298902 -0.00066256975 0)
(0.32096171 -0.00062250364 0)
(0.31908784 -0.00058296013 0)
(0.31735449 -0.000544772 0)
(0.31574995 -0.00050843215 0)
(0.31426361 -0.00047418783 0)
(0.31288575 -0.00044212032 0)
(0.31160756 -0.00041220608 0)
(0.31042102 -0.00038436033 0)
(0.30931883 -0.00035846621 0)
(0.30829438 -0.00033439372 0)
(0.30734164 -0.00031201114 0)
(0.30645515 -0.00029119155 0)
(0.30562991 -0.00027181628 0)
(0.30486136 -0.00025377606 0)
(0.30414535 -0.00023697103 0)
(0.30347807 -0.00022131003 0)
(0.30285601 -0.00020670955 0)
(0.30227596 -0.00019309277 0)
(0.30173497 -0.00018038877 0)
(0.30123029 -0.00016853205 0)
(0.30075941 -0.00015746229 0)
(0.30032001 -0.00014712418 0)
(0.29990992 -0.00013746737 0)
(0.29952715 -0.00012844605 0)
(0.29916983 -0.00012001844 0)
(0.29883625 -0.0001121461 0)
(0.29852479 -0.00010479303 0)
(0.29823398 -9.7925139e-05 0)
(0.29796242 -9.1509674e-05 0)
(0.29770882 -8.5515331e-05 0)
(0.297472 -7.9912569e-05 0)
(0.29725084 -7.4674048e-05 0)
(0.29704428 -6.9775277e-05 0)
(0.29685137 -6.5194551e-05 0)
(0.2966712 -6.0912769e-05 0)
(0.29650292 -5.6912634e-05 0)
(0.29634574 -5.3177567e-05 0)
(0.29619891 -4.9691041e-05 0)
(0.29606177 -4.6435957e-05 0)
(0.29593366 -4.3395019e-05 0)
(0.295814 -4.0551511e-05 0)
(0.29570223 -3.7890203e-05 0)
(0.29559783 -3.539848e-05 0)
(0.29550031 -3.3066296e-05 0)
(0.29540923 -3.0885955e-05 0)
(0.29532414 -2.8850805e-05 0)
(0.29524466 -2.6953907e-05 0)
(0.29517041 -2.5186956e-05 0)
(0.29510104 -2.3539992e-05 0)
(0.29503624 -2.2001787e-05 0)
(0.29497571 -2.0561685e-05 0)
(0.29491917 -1.9210288e-05 0)
(0.29486636 -1.7941783e-05 0)
(0.29481704 -1.6752393e-05 0)
(0.29477097 -1.564148e-05 0)
(0.29472793 -1.4607013e-05 0)
(0.29468772 -1.364755e-05 0)
(0.29465015 -1.2756065e-05 0)
(0.29461505 -1.1927478e-05 0)
(0.29458227 -1.1149912e-05 0)
(0.29455164 -1.0420647e-05 0)
(0.29452306 -9.7286771e-06 0)
(0.29449635 -9.0808985e-06 0)
(0.29447143 -8.4671681e-06 0)
(0.29444814 -7.9035516e-06 0)
(0.29442642 -7.3716278e-06 0)
(0.2944061 -6.8931115e-06 0)
(0.29438717 -6.4336878e-06 0)
(0.29436947 -6.0235275e-06 0)
(0.29435298 -5.6169651e-06 0)
(0.29433761 -5.2574065e-06 0)
(0.29432314 -4.9135997e-06 0)
(0.29430997 -4.6121835e-06 0)
(0.2942968 -4.4233677e-06 0)
(0.29428627 -4.2678882e-06 0)
(0.29427069 -4.7905091e-06 0)
)
;

boundaryField
{
    top
    {
        type            fixedValue;
        value           uniform (0 0 0);
    }
    inlet
    {
        type            fixedValue;
        value           uniform (1 0 0);
    }
    outlet
    {
        type            zeroGradient;
    }
    bottom
    {
        type            fixedValue;
        value           uniform (0 0 0);
    }
    back
    {
        type            empty;
    }
    front
    {
        type            empty;
    }
}


// ************************************************************************* //
