/*--------------------------------*- C++ -*----------------------------------*\
| =========                 |                                                 |
| \\      /  F ield         | OpenFOAM: The Open Source CFD Toolbox           |
|  \\    /   O peration     | Version:  v1812                                 |
|   \\  /    A nd           | Web:      www.OpenFOAM.com                      |
|    \\/     M anipulation  |                                                 |
\*---------------------------------------------------------------------------*/
FoamFile
{
    version     2.0;
    format      ascii;
    class       surfaceScalarField;
    location    "17";
    object      phi;
}
// * * * * * * * * * * * * * * * * * * * * * * * * * * * * * * * * * * * * * //

dimensions      [0 3 -1 0 0 0 0];
oriented        oriented;


internalField   nonuniform List<scalar> 
1890
(
0.0093061958
0.00069380425
0.0082843931
0.0010218027
0.0073298986
0.00095449446
0.0064869553
0.00084294331
0.0057695845
0.00071737078
0.00518986
0.00057972443
0.004738168
0.00045169205
0.00439519
0.00034297802
0.0041390268
0.00025616318
0.003949107
0.00018991983
0.003807888
0.00014121897
0.0037013782
0.0001065098
0.003619058
8.2320219e-05
0.0035534117
6.5646243e-05
0.0034992845
5.4127248e-05
0.0034532444
4.6040037e-05
0.0034130502
4.0194282e-05
0.0033772574
3.5792747e-05
0.0033449386
3.2318757e-05
0.0033154894
2.9449282e-05
0.0032885008
2.6988584e-05
0.0032636805
2.4820307e-05
0.003240805
2.2875485e-05
0.0032196926
2.1112418e-05
0.0032001879
1.9504651e-05
0.0031821539
1.8034007e-05
0.0031654672
1.6686718e-05
0.0031500158
1.5451355e-05
0.0031356979
1.4317861e-05
0.0031224209
1.3277071e-05
0.0031101003
1.2320597e-05
0.0030986596
1.1440728e-05
0.0030880291
1.0630443e-05
0.0030781458
9.8833729e-06
0.003068952
9.1937751e-06
0.0030603955
8.5564953e-06
0.0030524285
7.966913e-06
0.0030450076
7.4208964e-06
0.0030380929
6.9147419e-06
0.0030316478
6.4451208e-06
0.0030256387
6.0090556e-06
0.0030200349
5.6038477e-06
0.0030148078
5.2270771e-06
0.0030099313
4.8765428e-06
0.003005381
4.5502532e-06
0.0030011346
4.2464042e-06
0.0029971713
3.963338e-06
0.0029934717
3.6995586e-06
0.002990018
3.4536787e-06
0.0029867936
3.2244197e-06
0.002983783
3.0106185e-06
0.0029809718
2.8111759e-06
0.0029783467
2.6250947e-06
0.0029758953
2.4514444e-06
0.002973606
2.2893595e-06
0.0029714679
2.1380632e-06
0.0029694711
1.9968113e-06
0.0029676061
1.8649547e-06
0.0029658642
1.7418591e-06
0.0029642372
1.6269399e-06
0.0029627176
1.5196521e-06
0.0029612982
1.4194671e-06
0.0029599723
1.3259067e-06
0.0029587338
1.2385115e-06
0.002957577
1.1568617e-06
0.0029564964
1.0805846e-06
0.002955487
1.0093247e-06
0.0029545442
9.4276798e-07
0.0029536635
8.8063411e-07
0.0029528409
8.2261824e-07
0.0029520724
7.6846671e-07
0.0029513546
7.1789755e-07
0.002950684
6.7064883e-07
0.0029500575
6.2648495e-07
0.0029494724
5.851917e-07
0.0029489258
5.4658002e-07
0.0029484152
5.105124e-07
0.0029479383
4.7681394e-07
0.0029474929
4.4539936e-07
0.0029470768
4.1607789e-07
0.002946688
3.887525e-07
0.0029463249
3.6320923e-07
0.0029459856
3.3935578e-07
0.0029456687
3.1698314e-07
0.0029453726
2.9608123e-07
0.0029450962
2.7642277e-07
0.0029448379
2.5821329e-07
0.0029445967
2.4105883e-07
0.0029443712
2.2532849e-07
0.0029441609
2.1041346e-07
0.0029439642
1.9684785e-07
0.0029437803
1.8377455e-07
0.0029436083
1.721145e-07
0.002943448
1.6037767e-07
0.0029432978
1.5018629e-07
0.0029431574
1.4029335e-07
0.0029430254
1.3210988e-07
0.0029429003
1.2511449e-07
0.0029427808
1.194163e-07
1.2577342e-07
0.010339525
0.00035427931
0.010570754
0.00079057333
0.010606301
0.00091894817
0.010547572
0.00090167133
0.010422317
0.0008426262
0.010244356
0.00075768557
0.010039421
0.00065662743
0.0098287427
0.00055365586
0.009625135
0.00045977083
0.0094353013
0.00037975353
0.0092624277
0.00031409258
0.0091075333
0.00026140425
0.008970154
0.00021969948
0.0088489024
0.00018689785
0.0087419716
0.00016105801
0.0086474927
0.00014051893
0.008563694
0.00012399295
0.0084890108
0.00011047599
0.0084221097
9.9219866e-05
0.0083618776
8.9681404e-05
0.0083073955
8.1470668e-05
0.0082579079
7.4307847e-05
0.0082127929
6.7990494e-05
0.0081715353
6.2369983e-05
0.008133705
5.7335006e-05
0.0080989388
5.2800173e-05
0.0080669273
4.8698255e-05
0.0080374037
4.4974948e-05
0.0080101362
4.1585384e-05
0.0079849214
3.8491846e-05
0.0079615798
3.5662156e-05
0.0079399519
3.3068616e-05
0.0079198952
3.0687178e-05
0.0079012817
2.8496855e-05
0.0078839962
2.6479246e-05
0.0078679346
2.4618145e-05
0.0078530022
2.2899243e-05
0.0078391133
2.1309845e-05
0.0078261894
1.9838662e-05
0.0078141589
1.8475613e-05
0.0078029563
1.7211668e-05
0.0077925214
1.6038729e-05
0.007782799
1.4949483e-05
0.0077737382
1.3937341e-05
0.0077652921
1.2996323e-05
0.0077574175
1.2121003e-05
0.0077500744
1.1306452e-05
0.0077432258
1.0548147e-05
0.0077368375
9.8419705e-06
0.0077308778
9.1841337e-06
0.0077253173
8.5711452e-06
0.0077201286
7.9998139e-06
0.0077152866
7.4671666e-06
0.0077107675
6.9704848e-06
0.0077065496
6.5072498e-06
0.0077026125
6.0751346e-06
0.0076989373
5.6720141e-06
0.0076955064
5.2958969e-06
0.0076923033
4.9449567e-06
0.0076893128
4.6174705e-06
0.0076865206
4.3118344e-06
0.0076839135
4.0265677e-06
0.0076814792
3.7602626e-06
0.007679206
3.511641e-06
0.0076770834
3.2795022e-06
0.0076751012
3.062741e-06
0.0076732501
2.8603526e-06
0.0076715215
2.6713907e-06
0.0076699072
2.4949739e-06
0.0076683995
2.3302873e-06
0.0076669915
2.1765256e-06
0.0076656765
2.0329405e-06
0.0076644483
1.8988375e-06
0.0076633013
1.7735426e-06
0.0076622299
1.656493e-06
0.0076612293
1.5471307e-06
0.0076602948
1.4450059e-06
0.007659422
1.3496368e-06
0.0076586068
1.2606482e-06
0.0076578453
1.1775496e-06
0.0076571341
1.1000382e-06
0.0076564698
1.0275337e-06
0.0076558493
9.5989817e-07
0.0076552697
8.9649716e-07
0.0076547283
8.3743259e-07
0.0076542228
7.8189088e-07
0.0076537505
7.3046446e-07
0.0076533094
6.8214316e-07
0.0076528972
6.3761014e-07
0.0076525127
5.9497043e-07
0.0076521529
5.567116e-07
0.0076518171
5.1953799e-07
0.0076515027
4.8640051e-07
0.0076512105
4.5244804e-07
0.0076509355
4.2510367e-07
0.0076506807
3.9525909e-07
0.0076504386
3.7432288e-07
0.0076502165
3.470966e-07
0.0076499999
3.3608027e-07
3.1077987e-07
0.010188704
0.00016557515
0.010530487
0.00044879097
0.010851453
0.00059798174
0.011124174
0.00062895021
0.011350581
0.00061621883
0.011524486
0.00058378053
0.01164633
0.00053478419
0.011724155
0.00047583049
0.011767999
0.00041592665
0.011786639
0.00036111399
0.011787114
0.0003136171
0.011775058
0.00027346024
0.011754861
0.00023989716
0.011729768
0.00021199029
0.011702054
0.00018877259
0.011673239
0.00016933387
0.011644339
0.00015289295
0.011616003
0.00013881182
0.011588629
0.00012659378
0.011562446
0.00011586444
0.011537572
0.00010634493
0.011514052
9.7826989e-05
0.01149189
9.0153352e-05
0.011471056
8.3203356e-05
0.011451509
7.6882604e-05
0.011433193
7.1115553e-05
0.011416051
6.5840286e-05
0.011400021
6.1004898e-05
0.011385042
5.6565059e-05
0.011371051
5.2482326e-05
0.01135799
4.872302e-05
0.011345801
4.5257384e-05
0.01133443
4.2058994e-05
0.011323822
3.9104274e-05
0.011313929
3.6372123e-05
0.011304704
3.3843608e-05
0.011296101
3.1501693e-05
0.01128808
2.9331019e-05
0.011280601
2.7317704e-05
0.011273628
2.5449181e-05
0.011267125
2.3714056e-05
0.011261062
2.2101959e-05
0.011255408
2.0603462e-05
0.011250135
1.9209953e-05
0.011245218
1.791357e-05
0.011240632
1.6707116e-05
0.011236354
1.5583983e-05
0.011232364
1.4538118e-05
0.011228643
1.3563935e-05
0.01122517
1.2656302e-05
0.011221931
1.1810491e-05
0.011218909
1.1022112e-05
0.011216089
1.0287138e-05
0.011213457
9.601824e-06
0.011211002
8.962716e-06
0.01120871
8.3666273e-06
0.011206572
7.8105951e-06
0.011204576
7.2918838e-06
0.011202713
6.8079262e-06
0.011200974
6.3563528e-06
0.011199351
5.9349627e-06
0.011197836
5.5416814e-06
0.011196421
5.1746171e-06
0.011195101
4.8319807e-06
0.011193868
4.5121389e-06
0.011192718
4.2135614e-06
0.011191643
3.9348302e-06
0.01119064
3.6746256e-06
0.011189703
3.4317188e-06
0.011188829
3.204929e-06
0.011188012
2.9931975e-06
0.011187249
2.7954723e-06
0.011186537
2.610829e-06
0.011185873
2.4383752e-06
0.011185252
2.2773336e-06
0.011184672
2.1269199e-06
0.01118413
1.9865055e-06
0.011183625
1.8553616e-06
0.011183152
1.7329878e-06
0.011182711
1.618643e-06
0.011182299
1.5119436e-06
0.011181915
1.4121261e-06
0.011181556
1.3190688e-06
0.01118122
1.2318463e-06
0.011180907
1.150689e-06
0.011180614
1.0745048e-06
0.011180341
1.0040973e-06
0.011180086
9.3726438e-07
0.011179847
8.7618604e-07
0.011179624
8.1774696e-07
0.011179416
7.6533075e-07
0.011179222
7.1276806e-07
0.01117904
6.6811142e-07
0.011178872
6.210273e-07
0.011178712
5.8530514e-07
0.011178566
5.4113651e-07
0.011178425
5.1516035e-07
0.0111783
4.7222677e-07
0.011178177
4.5903787e-07
4.1609698e-07
0.010097182
6.8393549e-05
0.010346961
0.0001990111
0.010662469
0.00028247385
0.010982753
0.00030866646
0.011290229
0.00030874339
0.011575251
0.00029875786
0.011829022
0.00028101344
0.012047865
0.00025698754
0.012233272
0.00023051981
0.01238924
0.00020514589
0.012520295
0.00018256234
0.012630755
0.00016299955
0.012724428
0.00014622488
0.012804515
0.0001319031
0.012873613
0.00011967425
0.012933772
0.0001091746
0.012986596
0.00010006906
0.013033332
9.2076357e-05
0.01307495
8.4975243e-05
0.013112216
7.8598602e-05
0.013145739
7.282229e-05
0.013176012
6.7553924e-05
0.013203441
6.2723909e-05
0.013228366
5.8278883e-05
0.013251071
5.417698e-05
0.013271802
5.0384426e-05
0.01329077
4.6873157e-05
0.013308155
4.3619171e-05
0.013324119
4.0601447e-05
0.0133388
3.7801267e-05
0.013352321
3.520174e-05
0.013364791
3.2787521e-05
0.013376306
3.0544587e-05
0.01338695
2.8460086e-05
0.0133968
2.6522222e-05
0.013405923
2.4720139e-05
0.013414381
2.3043848e-05
0.013422228
2.1484149e-05
0.013429513
2.0032564e-05
0.013436281
1.8681274e-05
0.013442572
1.7423065e-05
0.013448423
1.6251281e-05
0.013453866
1.5159764e-05
0.013458933
1.4142832e-05
0.013463652
1.3195225e-05
0.013468047
1.2312075e-05
0.013472142
1.1488877e-05
0.013475959
1.0721447e-05
0.013479517
1.0005918e-05
0.013482834
9.338695e-06
0.013485928
8.7164425e-06
0.013488814
8.1360743e-06
0.013491507
7.5947039e-06
0.013494019
7.0896704e-06
0.013496363
6.618499e-06
0.013498551
6.1788891e-06
0.013500593
5.7686977e-06
0.013502499
5.3859235e-06
0.013504278
5.0287133e-06
0.013505939
4.6953357e-06
0.01350749
4.3841725e-06
0.013508938
4.0937367e-06
0.01351029
3.8226213e-06
0.013511552
3.5695378e-06
0.013512731
3.3332787e-06
0.013513832
3.1127241e-06
0.01351486
2.9068309e-06
0.01351582
2.7146099e-06
0.013516716
2.5351495e-06
0.013517554
2.3675923e-06
0.013518336
2.2111249e-06
0.013519066
2.0650108e-06
0.013519748
1.9285714e-06
0.013520386
1.8011487e-06
0.013520981
1.6821872e-06
0.013521537
1.5710874e-06
0.013522056
1.4673813e-06
0.013522541
1.3705111e-06
0.013522994
1.2800986e-06
0.013523417
1.195589e-06
0.013523812
1.1167367e-06
0.013524181
1.0429434e-06
0.013524526
9.7418725e-07
0.013524848
9.0972554e-07
0.013525149
8.4992588e-07
0.013525429
7.9365869e-07
0.013525692
7.4159251e-07
0.013525938
6.9215158e-07
0.013526166
6.4739876e-07
0.01352638
6.0397328e-07
0.013526581
5.6506322e-07
0.013526767
5.2581046e-07
0.013526941
4.9379863e-07
0.013527104
4.584767e-07
0.013527257
4.3259336e-07
0.013527399
3.9887227e-07
0.013527533
3.8079588e-07
0.013527658
3.4704116e-07
0.013527779
3.3799047e-07
3.0565465e-07
0.010068394
-5.0893347e-12
0.010267405
-1.3188529e-11
0.010549879
-1.4285593e-11
0.010858545
-1.2266112e-11
0.011167288
-9.5492878e-12
0.011466046
-9.5877492e-12
0.01174706
-1.0575438e-11
0.012004047
-1.2168619e-11
0.012234567
-1.3398934e-11
0.012439713
-1.473293e-11
0.012622275
-1.5207862e-11
0.012785275
-1.482242e-11
0.0129315
-1.4460152e-11
0.013063403
-1.2690383e-11
0.013183077
-1.0157121e-11
0.013292252
-8.9599061e-12
0.013392321
-9.4165769e-12
0.013484397
-9.984059e-12
0.013569373
-8.4983051e-12
0.013647971
-7.8042159e-12
0.013720793
-1.0603427e-11
0.013788347
-1.4839343e-11
0.013851071
-1.4647788e-11
0.01390935
-1.2286486e-11
0.013963527
-8.7457613e-12
0.014013912
-5.4166059e-12
0.014060785
-5.2943373e-12
0.014104404
-7.4428575e-12
0.014145005
-9.2741479e-12
0.014182807
-1.1885776e-11
0.014218009
-1.2367127e-11
0.014250796
-1.2774605e-11
0.014281341
-1.2091128e-11
0.014309801
-1.0702411e-11
0.014336323
-8.0721073e-12
0.014361043
-3.6998872e-12
0.014384087
1.9632665e-12
0.014405571
7.133183e-12
0.014425604
1.0427365e-11
0.014444285
1.1231813e-11
0.014461708
9.4597012e-12
0.014477959
4.6459802e-12
0.014493119
5.131502e-13
0.014507262
-4.534345e-12
0.014520457
-6.6839652e-12
0.014532769
-5.2532753e-12
0.014544258
-1.6721138e-12
0.014554979
4.1783453e-12
0.014564985
1.1359878e-11
0.014574324
1.8987801e-11
0.01458304
2.2026207e-11
0.014591177
1.5562765e-11
0.014598771
6.0460435e-12
0.014605861
-6.51226e-12
0.014612479
-1.6948997e-11
0.014618658
-1.8219166e-11
0.014624427
-9.8313222e-12
0.014629813
1.3739877e-12
0.014634842
1.7633853e-11
0.014639537
2.6852918e-11
0.014643921
2.7447931e-11
0.014648015
1.9399543e-11
0.014651837
8.3114487e-12
0.014655407
-7.1675112e-12
0.01465874
-2.0233987e-11
0.014661853
-2.141726e-11
0.01466476
-1.337221e-11
0.014667474
6.8509718e-13
0.01467001
2.2931487e-11
0.014672377
3.4652664e-11
0.014674588
3.5984987e-11
0.014676653
2.0216504e-11
0.014678582
2.253344e-12
0.014680383
-2.1303581e-11
0.014682065
-3.7580783e-11
0.014683636
-3.0300079e-11
0.014685104
-9.5520834e-12
0.014686474
1.6142607e-11
0.014687754
4.0371582e-11
0.01468895
4.3110675e-11
0.014690067
2.8118273e-11
0.014691109
5.0554951e-12
0.014692083
-2.9916411e-11
0.014692994
-4.1624825e-11
0.014693844
-1.6307937e-11
0.014694636
-5.7441563e-12
0.014695378
2.8058429e-13
0.014696072
4.4800728e-11
0.014696718
1.0974971e-10
0.01469732
3.9943734e-11
0.014697887
-7.6339098e-11
0.014698415
-7.42922e-11
0.014698907
-6.3467659e-11
0.014699364
1.5720103e-11
0.014699798
1.3013496e-10
0.014700198
1.1563363e-10
0.014700577
-3.0361661e-11
0.014700924
-1.5008085e-10
0.014701262
-1.1922417e-10
-5.5023935e-11
0.010068394
-6.8393558e-05
0.010267405
-0.00019901113
0.010549879
-0.00028247388
0.010858545
-0.00030866649
0.011167288
-0.00030874342
0.011466046
-0.00029875789
0.01174706
-0.00028101346
0.012004047
-0.00025698756
0.012234567
-0.00023051983
0.012439713
-0.00020514591
0.012622275
-0.00018256236
0.012785275
-0.00016299958
0.0129315
-0.00014622492
0.013063403
-0.00013190313
0.013183077
-0.00011967427
0.013292252
-0.00010917462
0.013392321
-0.00010006908
0.013484397
-9.2076369e-05
0.013569373
-8.4975255e-05
0.013647971
-7.8598617e-05
0.013720793
-7.282231e-05
0.013788347
-6.7553946e-05
0.013851071
-6.2723934e-05
0.01390935
-5.8278905e-05
0.013963527
-5.4176994e-05
0.014013912
-5.0384438e-05
0.014060785
-4.687317e-05
0.014104404
-4.3619185e-05
0.014145005
-4.0601465e-05
0.014182807
-3.7801286e-05
0.014218008
-3.5201764e-05
0.014250796
-3.2787543e-05
0.014281341
-3.0544606e-05
0.014309801
-2.8460104e-05
0.014336323
-2.6522231e-05
0.014361043
-2.4720139e-05
0.014384087
-2.3043842e-05
0.014405571
-2.1484139e-05
0.014425604
-2.0032548e-05
0.014444285
-1.8681256e-05
0.014461708
-1.7423052e-05
0.014477959
-1.6251271e-05
0.014493119
-1.5159761e-05
0.014507262
-1.4142836e-05
0.014520457
-1.3195234e-05
0.014532769
-1.2312085e-05
0.014544258
-1.1488879e-05
0.014554979
-1.072144e-05
0.014564985
-1.0005897e-05
0.014574324
-9.3386647e-06
0.01458304
-8.7164158e-06
0.014591177
-8.1360503e-06
0.014598771
-7.5946957e-06
0.014605861
-7.0896797e-06
0.014612479
-6.6185185e-06
0.014618658
-6.178908e-06
0.014624427
-5.7687056e-06
0.014629813
-5.3859212e-06
0.014634842
-5.0286938e-06
0.014639537
-4.6952955e-06
0.014643921
-4.3841328e-06
0.014648015
-4.0937026e-06
0.014651837
-3.8226068e-06
0.014655407
-3.5695442e-06
0.01465874
-3.3333088e-06
0.014661853
-3.1127618e-06
0.01466476
-2.9068519e-06
0.014667474
-2.7146084e-06
0.01467001
-2.5351237e-06
0.014672377
-2.3675384e-06
0.014674588
-2.2110807e-06
0.014676653
-2.0649821e-06
0.014678582
-1.9285699e-06
0.014680383
-1.801179e-06
0.014682065
-1.6822261e-06
0.014683636
-1.5711197e-06
0.014685104
-1.4673891e-06
0.014686474
-1.3704935e-06
0.014687754
-1.2800676e-06
0.01468895
-1.1955441e-06
0.014690067
-1.1167024e-06
0.014691109
-1.0429466e-06
0.014692083
-9.7421087e-07
0.014692994
-9.0975955e-07
0.014693844
-8.4994668e-07
0.014694636
-7.9366556e-07
0.014695378
-7.415986e-07
0.014696072
-6.9212332e-07
0.014696718
-6.4728334e-07
0.01469732
-6.0383604e-07
0.014697887
-5.652572e-07
0.014698415
-5.260751e-07
0.014698907
-4.9356302e-07
0.014699364
-4.5819695e-07
0.014699798
-4.3276369e-07
0.014700198
-3.990949e-07
0.014700578
-3.8081409e-07
0.014700924
-3.4705663e-07
0.014701262
-3.3805825e-07
-3.0570729e-07
0.010097182
-0.00016557515
0.010346961
-0.000448791
0.010662469
-0.00059798177
0.010982753
-0.00062895025
0.011290229
-0.00061621886
0.011575251
-0.00058378055
0.011829022
-0.0005347842
0.012047865
-0.0004758305
0.012233272
-0.00041592666
0.01238924
-0.000361114
0.012520295
-0.00031361712
0.012630755
-0.00027346026
0.012724428
-0.00023989719
0.012804515
-0.00021199032
0.012873613
-0.00018877261
0.012933772
-0.00016933388
0.012986596
-0.00015289296
0.013033332
-0.00013881183
0.01307495
-0.00012659379
0.013112216
-0.00011586445
0.013145739
-0.00010634494
0.013176012
-9.7827005e-05
0.013203441
-9.0153368e-05
0.013228366
-8.3203371e-05
0.013251071
-7.6882619e-05
0.013271802
-7.1115566e-05
0.01329077
-6.5840297e-05
0.013308155
-6.1004911e-05
0.013324119
-5.6565073e-05
0.0133388
-5.2482342e-05
0.013352321
-4.8723031e-05
0.013364791
-4.5257393e-05
0.013376305
-4.2059001e-05
0.01338695
-3.9104276e-05
0.0133968
-3.6372125e-05
0.013405923
-3.3843611e-05
0.013414381
-3.1501695e-05
0.013422228
-2.9331015e-05
0.013429513
-2.7317696e-05
0.013436281
-2.5449172e-05
0.013442572
-2.371404e-05
0.013448422
-2.2101947e-05
0.013453866
-2.0603455e-05
0.013458933
-1.9209953e-05
0.013463652
-1.7913575e-05
0.013468047
-1.6707121e-05
0.013472142
-1.5583988e-05
0.013475958
-1.4538113e-05
0.013479517
-1.3563927e-05
0.013482834
-1.2656294e-05
0.013485928
-1.1810473e-05
0.013488814
-1.1022097e-05
0.013491507
-1.0287125e-05
0.013494019
-9.6018184e-06
0.013496363
-8.9627215e-06
0.013498551
-8.3666412e-06
0.013500593
-7.8106166e-06
0.013502499
-7.2918905e-06
0.013504278
-6.8079197e-06
0.013505939
-6.3563363e-06
0.01350749
-5.9349281e-06
0.013508938
-5.5416488e-06
0.01351029
-5.1745938e-06
0.013511552
-4.8319814e-06
0.013512731
-4.5121536e-06
0.013513832
-4.2135845e-06
0.01351486
-3.9348579e-06
0.01351582
-3.6746407e-06
0.013516716
-3.4317138e-06
0.013517554
-3.2049169e-06
0.013518336
-2.9931632e-06
0.013519066
-2.7954382e-06
0.013519749
-2.6108078e-06
0.013520386
-2.4383705e-06
0.013520981
-2.2773493e-06
0.013521537
-2.1269561e-06
0.013522056
-1.9865493e-06
0.013522541
-1.8553933e-06
0.013522994
-1.7329874e-06
0.013523417
-1.6186105e-06
0.013523812
-1.511893e-06
0.013524181
-1.4120786e-06
0.013524526
-1.3190428e-06
0.013524848
-1.2318473e-06
0.013525149
-1.1507671e-06
0.013525429
-1.0745717e-06
0.013525692
-1.0040591e-06
0.013525938
-9.3724312e-07
0.013526166
-8.7630741e-07
0.01352638
-8.177878e-07
0.01352658
-7.6501973e-07
0.013526767
-7.1249954e-07
0.013526941
-6.6835016e-07
0.013527104
-6.2135192e-07
0.013527257
-5.8526221e-07
0.013527399
-5.4102796e-07
0.013527533
-5.1517258e-07
0.013527658
-4.7223968e-07
0.013527779
-4.590171e-07
-4.1606711e-07
0.010188704
-0.00035427932
0.010530487
-0.00079057335
0.010851453
-0.0009189482
0.011124174
-0.00090167137
0.011350581
-0.00084262623
0.011524486
-0.00075768559
0.01164633
-0.00065662744
0.011724155
-0.00055365586
0.011767999
-0.00045977083
0.011786639
-0.00037975354
0.011787114
-0.00031409259
0.011775058
-0.00026140427
0.011754861
-0.00021969949
0.011729768
-0.00018689787
0.011702054
-0.00016105802
0.011673239
-0.00014051894
0.011644339
-0.00012399295
0.011616003
-0.00011047599
0.011588629
-9.9219868e-05
0.011562446
-8.9681405e-05
0.011537572
-8.1470672e-05
0.011514052
-7.4307852e-05
0.011491889
-6.7990501e-05
0.011471056
-6.2369993e-05
0.011451509
-5.7335016e-05
0.011433193
-5.2800185e-05
0.011416051
-4.8698267e-05
0.011400021
-4.4974955e-05
0.011385041
-4.1585393e-05
0.011371051
-3.8491849e-05
0.01135799
-3.5662158e-05
0.011345801
-3.3068613e-05
0.011334429
-3.0687173e-05
0.011323822
-2.849685e-05
0.011313929
-2.6479242e-05
0.011304704
-2.4618148e-05
0.011296101
-2.2899249e-05
0.01128808
-2.1309852e-05
0.011280601
-1.9838665e-05
0.011273628
-1.8475609e-05
0.011267125
-1.7211661e-05
0.011261062
-1.6038715e-05
0.011255408
-1.494947e-05
0.011250135
-1.3937331e-05
0.011245218
-1.299632e-05
0.011240632
-1.2121009e-05
0.011236354
-1.1306457e-05
0.011232364
-1.0548156e-05
0.011228643
-9.841978e-06
0.01122517
-9.184136e-06
0.011221931
-8.5711466e-06
0.011218909
-7.9998026e-06
0.011216089
-7.4671508e-06
0.011213457
-6.9704655e-06
0.011211002
-6.5072349e-06
0.01120871
-6.0751383e-06
0.011206572
-5.6720288e-06
0.011204576
-5.2959222e-06
0.011202713
-4.9449763e-06
0.011200974
-4.6174777e-06
0.011199351
-4.3118291e-06
0.011197836
-4.0265414e-06
0.011196422
-3.760233e-06
0.011195101
-3.5116134e-06
0.011193868
-3.2794873e-06
0.011192718
-3.0627474e-06
0.011191643
-2.8603762e-06
0.01119064
-2.6714256e-06
0.011189703
-2.4950139e-06
0.011188829
-2.3303061e-06
0.011188012
-2.1765227e-06
0.011187249
-2.0329092e-06
0.011186537
-1.8987876e-06
0.011185873
-1.7734976e-06
0.011185252
-1.6564715e-06
0.011184672
-1.5471448e-06
0.01118413
-1.4450611e-06
0.011183625
-1.3497079e-06
0.011183152
-1.2607107e-06
0.011182711
-1.177566e-06
0.0111823
-1.1000012e-06
0.011181915
-1.0274636e-06
0.011181556
-9.5980983e-07
0.01118122
-8.9644226e-07
0.011180907
-8.3743784e-07
0.011180614
-7.8196509e-07
0.011180341
-7.3056216e-07
0.011180086
-6.8219904e-07
0.011179847
-6.3766926e-07
0.011179624
-5.9502752e-07
0.011179416
-5.5653518e-07
0.011179223
-5.1915851e-07
0.01117904
-4.8630143e-07
0.011178872
-4.5280193e-07
0.011178712
-4.2541983e-07
0.011178566
-3.9518018e-07
0.011178425
-3.7415553e-07
0.0111783
-3.4705541e-07
0.011178177
-3.3599125e-07
-3.1069621e-07
0.010339525
-0.00069380425
0.010570754
-0.0010218027
0.010606301
-0.00095449448
0.010547572
-0.00084294333
0.010422317
-0.0007173708
0.010244356
-0.00057972444
0.010039421
-0.00045169205
0.0098287427
-0.00034297801
0.009625135
-0.00025616318
0.0094353013
-0.00018991983
0.0092624277
-0.00014121897
0.0091075332
-0.0001065098
0.008970154
-8.2320226e-05
0.0088489023
-6.5646249e-05
0.0087419716
-5.4127255e-05
0.0086474927
-4.6040044e-05
0.008563694
-4.0194286e-05
0.0084890108
-3.5792751e-05
0.0084221096
-3.2318757e-05
0.0083618775
-2.9449283e-05
0.0083073954
-2.698858e-05
0.0082579079
-2.4820304e-05
0.0082127929
-2.2875483e-05
0.0081715353
-2.1112419e-05
0.0081337049
-1.9504656e-05
0.0080989388
-1.8034017e-05
0.0080669272
-1.6686727e-05
0.0080374036
-1.5451365e-05
0.0080101361
-1.4317864e-05
0.0079849213
-1.3277073e-05
0.0079615798
-1.2320592e-05
0.0079399519
-1.144072e-05
0.0079198951
-1.0630433e-05
0.0079012816
-9.8833636e-06
0.0078839962
-9.1937709e-06
0.0078679345
-8.5564977e-06
0.0078530022
-7.9669223e-06
0.0078391133
-7.420908e-06
0.0078261893
-6.9147504e-06
0.0078141589
-6.4451264e-06
0.0078029562
-6.0090512e-06
0.0077925214
-5.603838e-06
0.007782799
-5.2270615e-06
0.0077737382
-4.8765271e-06
0.0077652921
-4.5502442e-06
0.0077574175
-4.2464017e-06
0.0077500744
-3.9633478e-06
0.0077432258
-3.6995735e-06
0.0077368375
-3.4536949e-06
0.0077308778
-3.2244368e-06
0.0077253173
-3.0106233e-06
0.0077201286
-2.8111705e-06
0.0077152866
-2.6250768e-06
0.0077107675
-2.4514168e-06
0.0077065496
-2.2893373e-06
0.0077026125
-2.1380505e-06
0.0076989373
-1.9968243e-06
0.0076955064
-1.864981e-06
0.0076923033
-1.7418922e-06
0.0076893128
-1.6269697e-06
0.0076865206
-1.5196626e-06
0.0076839135
-1.4194572e-06
0.0076814792
-1.3258752e-06
0.007679206
-1.2384693e-06
0.0076770834
-1.1568266e-06
0.0076751012
-1.080567e-06
0.0076732502
-1.0093385e-06
0.0076715216
-9.4281325e-07
0.0076699072
-8.8068761e-07
0.0076683996
-8.2266978e-07
0.0076669915
-7.6848709e-07
0.0076656765
-7.1787624e-07
0.0076644483
-6.7059697e-07
0.0076633012
-6.2641706e-07
0.0076622299
-5.8513957e-07
0.0076612294
-5.4656865e-07
0.0076602949
-5.1054636e-07
0.007659422
-4.7689423e-07
0.0076586068
-4.4548554e-07
0.0076578453
-4.1613717e-07
0.0076571341
-3.8875544e-07
0.0076564698
-3.6314866e-07
0.0076558492
-3.3926437e-07
0.0076552697
-3.1688004e-07
0.0076547283
-2.9604374e-07
0.0076542229
-2.7645984e-07
0.0076537506
-2.5827254e-07
0.0076533094
-2.4117173e-07
0.0076528971
-2.2548406e-07
0.0076525126
-2.1041829e-07
0.0076521529
-1.9666732e-07
0.0076518172
-1.8360983e-07
0.0076515028
-1.7205792e-07
0.0076512105
-1.6040677e-07
0.0076509355
-1.502871e-07
0.0076506807
-1.4040376e-07
0.0076504385
-1.3208737e-07
0.0076502165
-1.2500185e-07
0.0076499999
-1.1933636e-07
-1.2571523e-07
0.0093061957
0.0082843931
0.0073298986
0.0064869553
0.0057695845
0.00518986
0.004738168
0.00439519
0.0041390268
0.003949107
0.003807888
0.0037013782
0.003619058
0.0035534117
0.0034992845
0.0034532444
0.0034130501
0.0033772574
0.0033449386
0.0033154893
0.0032885008
0.0032636805
0.003240805
0.0032196926
0.0032001879
0.0031821539
0.0031654672
0.0031500158
0.0031356979
0.0031224208
0.0031101003
0.0030986595
0.0030880291
0.0030781458
0.003068952
0.0030603955
0.0030524286
0.0030450076
0.0030380929
0.0030316478
0.0030256387
0.0030200349
0.0030148078
0.0030099313
0.0030053811
0.0030011347
0.0029971713
0.0029934717
0.002990018
0.0029867936
0.0029837829
0.0029809718
0.0029783467
0.0029758953
0.002973606
0.002971468
0.0029694711
0.0029676061
0.0029658642
0.0029642372
0.0029627175
0.0029612981
0.0029599722
0.0029587338
0.002957577
0.0029564965
0.0029554871
0.0029545443
0.0029536635
0.0029528408
0.0029520723
0.0029513545
0.0029506839
0.0029500575
0.0029494724
0.0029489259
0.0029484153
0.0029479384
0.0029474928
0.0029470767
0.0029466879
0.0029463248
0.0029459856
0.0029456687
0.0029453727
0.0029450963
0.002944838
0.0029445965
0.0029443711
0.002944161
0.0029439642
0.0029437802
0.0029436083
0.0029434482
0.002943298
0.0029431574
0.0029430253
0.0029429003
0.0029427809
)
;

boundaryField
{
    top
    {
        type            calculated;
        value           uniform 0;
    }
    inlet
    {
        type            calculated;
        value           nonuniform List<scalar> 10(-0.01 -0.01 -0.01 -0.01 -0.01 -0.01 -0.01 -0.01 -0.01 -0.01);
    }
    outlet
    {
        type            calculated;
        value           nonuniform List<scalar> 10(0.002942655 0.0076498148 0.011178072 0.01352789 0.014701569 0.014701568 0.01352789 0.011178072 0.0076498149 0.0029426552);
    }
    bottom
    {
        type            calculated;
        value           uniform 0;
    }
    back
    {
        type            empty;
        value           nonuniform 0();
    }
    front
    {
        type            empty;
        value           nonuniform 0();
    }
}


// ************************************************************************* //
