/*--------------------------------*- C++ -*----------------------------------*\
| =========                 |                                                 |
| \\      /  F ield         | OpenFOAM: The Open Source CFD Toolbox           |
|  \\    /   O peration     | Version:  v1812                                 |
|   \\  /    A nd           | Web:      www.OpenFOAM.com                      |
|    \\/     M anipulation  |                                                 |
\*---------------------------------------------------------------------------*/
FoamFile
{
    version     2.0;
    format      ascii;
    class       volScalarField;
    location    "110";
    object      T;
}
// * * * * * * * * * * * * * * * * * * * * * * * * * * * * * * * * * * * * * //

dimensions      [0 0 0 1 0 0 0];


internalField   nonuniform List<scalar> 
10000
(
1.45962
1.45962
1.45962
1.45962
1.45962
1.45962
1.45962
1.45962
1.45962
1.45962
1.37905
1.37905
1.37904
1.37904
1.37904
1.37904
1.37904
1.37904
1.37904
1.37904
1.29903
1.29902
1.29901
1.29901
1.29901
1.29901
1.29901
1.29901
1.29901
1.29902
1.21991
1.2199
1.21989
1.21988
1.21988
1.21988
1.21988
1.21988
1.21989
1.2199
1.14205
1.14203
1.14202
1.14201
1.14201
1.14201
1.14201
1.14201
1.14202
1.14203
1.06576
1.06574
1.06573
1.06572
1.06571
1.06571
1.06571
1.06572
1.06573
1.06574
0.991361
0.991339
0.991324
0.991314
0.991309
0.991307
0.99131
0.991317
0.991328
0.99134
0.919132
0.919108
0.919092
0.919081
0.919075
0.919073
0.919077
0.919085
0.919096
0.919111
0.849329
0.849303
0.849285
0.849273
0.849266
0.849265
0.849269
0.849277
0.84929
0.849306
0.782175
0.782147
0.782128
0.782115
0.782108
0.782106
0.78211
0.78212
0.782134
0.782151
0.717863
0.717833
0.717813
0.7178
0.717792
0.71779
0.717794
0.717803
0.717818
0.717837
0.65655
0.65652
0.656499
0.656484
0.656476
0.656473
0.656477
0.656486
0.656502
0.656521
0.598361
0.59833
0.598308
0.598292
0.598283
0.59828
0.598283
0.598292
0.598307
0.598327
0.543385
0.543353
0.54333
0.543314
0.543303
0.543298
0.5433
0.543309
0.543324
0.543344
0.491678
0.491646
0.491622
0.491603
0.491591
0.491584
0.491585
0.491592
0.491606
0.491625
0.443263
0.44323
0.443205
0.443184
0.443169
0.44316
0.443158
0.443163
0.443175
0.443194
0.398132
0.398098
0.398071
0.398048
0.398029
0.398016
0.39801
0.398012
0.398021
0.398039
0.356249
0.356214
0.356185
0.356157
0.356133
0.356115
0.356103
0.3561
0.356106
0.356121
0.317551
0.317515
0.317482
0.317448
0.317417
0.317391
0.317371
0.31736
0.31736
0.317372
0.281953
0.281915
0.281876
0.281834
0.281793
0.281754
0.281723
0.281702
0.281694
0.281701
0.249348
0.249307
0.24926
0.249207
0.249151
0.249096
0.249048
0.249011
0.248992
0.248992
0.219614
0.219568
0.21951
0.219441
0.219365
0.219286
0.219214
0.219155
0.219118
0.219109
0.192614
0.192562
0.192489
0.192398
0.192293
0.192182
0.192075
0.191984
0.191921
0.191896
0.168203
0.168142
0.16805
0.167929
0.167784
0.167627
0.16747
0.167331
0.167229
0.167182
0.146228
0.146155
0.146038
0.145877
0.145681
0.145459
0.14523
0.145019
0.144857
0.144774
0.126535
0.126447
0.126298
0.126087
0.125821
0.125512
0.12518
0.124861
0.124602
0.124459
0.108967
0.108862
0.108675
0.108402
0.108049
0.107622
0.107145
0.106661
0.106243
0.105993
0.0933734
0.093249
0.093018
0.0926747
0.092215
0.0916397
0.0909626
0.0902278
0.0895372
0.0890796
0.0796043
0.07946
0.0791844
0.0787654
0.0781881
0.0774362
0.0764993
0.0753955
0.074228
0.0733137
0.0675163
0.0673542
0.0670376
0.0665476
0.0658554
0.0649195
0.0636837
0.0620835
0.0600973
0.0580349
1.45962
1.45962
1.45962
1.45962
1.45962
1.45962
1.45962
1.45962
1.45962
1.45962
1.37905
1.37904
1.37904
1.37903
1.37903
1.37903
1.37903
1.37903
1.37904
1.37904
1.29902
1.29901
1.299
1.299
1.299
1.299
1.299
1.299
1.299
1.29901
1.2199
1.21989
1.21988
1.21987
1.21987
1.21987
1.21987
1.21987
1.21988
1.21989
1.14203
1.14201
1.142
1.142
1.14199
1.14199
1.14199
1.142
1.14201
1.14202
1.06574
1.06572
1.06571
1.0657
1.0657
1.06569
1.0657
1.0657
1.06571
1.06573
0.991339
0.991318
0.991304
0.991294
0.991288
0.991287
0.991291
0.991298
0.99131
0.991326
0.919108
0.919085
0.919069
0.919058
0.919052
0.919051
0.919055
0.919063
0.919077
0.919095
0.849303
0.849278
0.849261
0.849249
0.849242
0.849241
0.849245
0.849254
0.849269
0.84929
0.782147
0.782121
0.782103
0.78209
0.782083
0.782081
0.782086
0.782095
0.782111
0.782133
0.717834
0.717806
0.717787
0.717773
0.717765
0.717764
0.717768
0.717778
0.717795
0.717818
0.65652
0.656492
0.656471
0.656457
0.656448
0.656446
0.65645
0.65646
0.656477
0.656502
0.598331
0.598301
0.59828
0.598264
0.598255
0.598252
0.598255
0.598265
0.598283
0.598308
0.543355
0.543324
0.543302
0.543285
0.543275
0.54327
0.543273
0.543282
0.543299
0.543324
0.491648
0.491616
0.491593
0.491575
0.491563
0.491556
0.491557
0.491565
0.491581
0.491606
0.443233
0.443201
0.443176
0.443156
0.443141
0.443132
0.44313
0.443136
0.44315
0.443175
0.398102
0.39807
0.398043
0.39802
0.398002
0.397989
0.397983
0.397985
0.397997
0.39802
0.35622
0.356187
0.356157
0.35613
0.356107
0.356088
0.356077
0.356074
0.356082
0.356102
0.317523
0.317489
0.317455
0.317422
0.317391
0.317365
0.317345
0.317335
0.317338
0.317355
0.281926
0.281889
0.28185
0.281809
0.281768
0.28173
0.281699
0.281678
0.281672
0.281684
0.249322
0.249282
0.249236
0.249183
0.249127
0.249073
0.249024
0.248989
0.248971
0.248976
0.219589
0.219545
0.219488
0.219419
0.219342
0.219264
0.219192
0.219134
0.219099
0.219094
0.192591
0.19254
0.192468
0.192377
0.192272
0.192161
0.192054
0.191964
0.191903
0.191882
0.168182
0.168122
0.16803
0.167909
0.167765
0.167608
0.167451
0.167312
0.167212
0.167169
0.146209
0.146137
0.14602
0.145859
0.145663
0.145441
0.145213
0.145002
0.144841
0.144762
0.126517
0.12643
0.126281
0.126071
0.125805
0.125495
0.125164
0.124845
0.124588
0.124448
0.108951
0.108847
0.108659
0.108387
0.108034
0.107608
0.107131
0.106647
0.10623
0.105984
0.0933584
0.0932348
0.0930042
0.092661
0.0922016
0.0916265
0.0909497
0.0902155
0.089526
0.0890711
0.0795908
0.0794473
0.0791719
0.0787532
0.0781762
0.0774244
0.0764879
0.0753846
0.0742182
0.0733064
0.0675043
0.0673428
0.0670266
0.0665368
0.0658448
0.0649091
0.0636738
0.0620741
0.0600889
0.0580285
1.45962
1.45962
1.45962
1.45961
1.45961
1.45961
1.45961
1.45961
1.45962
1.45962
1.37904
1.37904
1.37903
1.37903
1.37903
1.37903
1.37903
1.37903
1.37903
1.37904
1.29901
1.299
1.299
1.29899
1.29899
1.29899
1.29899
1.29899
1.299
1.299
1.21989
1.21988
1.21987
1.21986
1.21986
1.21986
1.21986
1.21986
1.21987
1.21988
1.14202
1.142
1.14199
1.14199
1.14198
1.14198
1.14198
1.14199
1.142
1.14201
1.06573
1.06571
1.0657
1.06569
1.06568
1.06568
1.06569
1.06569
1.0657
1.06572
0.991324
0.991304
0.99129
0.99128
0.991275
0.991274
0.991278
0.991286
0.991298
0.991316
0.919092
0.91907
0.919054
0.919043
0.919038
0.919037
0.919041
0.91905
0.919064
0.919084
0.849286
0.849261
0.849244
0.849233
0.849226
0.849225
0.84923
0.84924
0.849255
0.849277
0.782129
0.782103
0.782085
0.782073
0.782066
0.782065
0.782069
0.78208
0.782097
0.78212
0.717815
0.717787
0.717768
0.717755
0.717748
0.717746
0.717751
0.717762
0.717779
0.717804
0.656501
0.656472
0.656452
0.656438
0.65643
0.656428
0.656432
0.656444
0.656462
0.656488
0.598311
0.598281
0.59826
0.598245
0.598236
0.598234
0.598237
0.598248
0.598267
0.598293
0.543334
0.543304
0.543282
0.543266
0.543256
0.543252
0.543255
0.543265
0.543283
0.54331
0.491627
0.491597
0.491574
0.491556
0.491544
0.491538
0.491539
0.491548
0.491565
0.491592
0.443213
0.443181
0.443157
0.443137
0.443123
0.443114
0.443113
0.443119
0.443135
0.44316
0.398083
0.398051
0.398024
0.398002
0.397984
0.397971
0.397966
0.397969
0.397982
0.398006
0.356201
0.356168
0.356139
0.356112
0.356089
0.356071
0.35606
0.356058
0.356067
0.356089
0.317505
0.31747
0.317438
0.317405
0.317374
0.317348
0.317329
0.31732
0.317323
0.317342
0.281908
0.281872
0.281833
0.281793
0.281752
0.281714
0.281683
0.281663
0.281658
0.281672
0.249305
0.249266
0.24922
0.249167
0.249112
0.249057
0.24901
0.248974
0.248958
0.248964
0.219574
0.219529
0.219472
0.219404
0.219327
0.21925
0.219178
0.219121
0.219086
0.219083
0.192576
0.192525
0.192454
0.192363
0.192258
0.192147
0.192041
0.191951
0.191891
0.191872
0.168168
0.168108
0.168017
0.167896
0.167752
0.167595
0.167439
0.167301
0.167201
0.16716
0.146196
0.146124
0.146007
0.145847
0.145651
0.14543
0.145201
0.144992
0.144832
0.144753
0.126505
0.126419
0.12627
0.12606
0.125794
0.125485
0.125154
0.124836
0.124579
0.12444
0.10894
0.108836
0.108649
0.108377
0.108024
0.107598
0.107122
0.106638
0.106222
0.105977
0.0933487
0.0932254
0.0929949
0.092652
0.0921928
0.0916179
0.0909415
0.0902077
0.0895189
0.0890648
0.0795821
0.0794388
0.0791637
0.0787451
0.0781683
0.0774168
0.0764806
0.0753778
0.074212
0.0733009
0.0674965
0.0673352
0.0670192
0.0665296
0.0658378
0.0649025
0.0636674
0.0620682
0.0600835
0.0580238
1.45962
1.45962
1.45961
1.45961
1.45961
1.45961
1.45961
1.45961
1.45961
1.45962
1.37904
1.37903
1.37903
1.37903
1.37903
1.37902
1.37903
1.37903
1.37903
1.37903
1.29901
1.299
1.29899
1.29899
1.29899
1.29899
1.29899
1.29899
1.29899
1.299
1.21988
1.21987
1.21986
1.21986
1.21985
1.21985
1.21986
1.21986
1.21987
1.21988
1.14201
1.142
1.14199
1.14198
1.14197
1.14197
1.14198
1.14198
1.14199
1.142
1.06572
1.0657
1.06569
1.06568
1.06568
1.06568
1.06568
1.06569
1.0657
1.06571
0.991315
0.991294
0.99128
0.991271
0.991266
0.991265
0.991269
0.991278
0.991291
0.991308
0.919081
0.919059
0.919044
0.919033
0.919028
0.919027
0.919031
0.919041
0.919056
0.919076
0.849274
0.84925
0.849233
0.849222
0.849216
0.849215
0.84922
0.84923
0.849247
0.849269
0.782117
0.782091
0.782073
0.782061
0.782055
0.782054
0.782059
0.78207
0.782087
0.782112
0.717802
0.717775
0.717756
0.717743
0.717736
0.717735
0.71774
0.717752
0.71777
0.717796
0.656488
0.65646
0.65644
0.656426
0.656418
0.656416
0.656421
0.656433
0.656452
0.656479
0.598298
0.598269
0.598248
0.598233
0.598224
0.598222
0.598226
0.598238
0.598257
0.598284
0.543321
0.543291
0.54327
0.543254
0.543244
0.54324
0.543243
0.543254
0.543273
0.543301
0.491614
0.491584
0.491561
0.491543
0.491532
0.491526
0.491528
0.491537
0.491555
0.491582
0.4432
0.443169
0.443144
0.443125
0.443111
0.443103
0.443101
0.443109
0.443125
0.443151
0.39807
0.398038
0.398012
0.39799
0.397972
0.39796
0.397955
0.397959
0.397972
0.397997
0.356188
0.356156
0.356127
0.356101
0.356078
0.35606
0.356049
0.356048
0.356058
0.35608
0.317493
0.317459
0.317426
0.317394
0.317363
0.317338
0.317319
0.31731
0.317314
0.317334
0.281897
0.281861
0.281823
0.281782
0.281741
0.281704
0.281673
0.281654
0.28165
0.281664
0.249295
0.249255
0.249209
0.249157
0.249102
0.249048
0.249
0.248966
0.24895
0.248957
0.219563
0.219519
0.219463
0.219394
0.219318
0.219241
0.219169
0.219113
0.219079
0.219076
0.192567
0.192516
0.192445
0.192354
0.19225
0.192139
0.192033
0.191944
0.191884
0.191866
0.168159
0.168099
0.168008
0.167888
0.167744
0.167587
0.167431
0.167294
0.167195
0.167154
0.146188
0.146116
0.146
0.14584
0.145644
0.145423
0.145195
0.144985
0.144826
0.144748
0.126497
0.126411
0.126263
0.126053
0.125787
0.125478
0.125148
0.12483
0.124574
0.124436
0.108933
0.10883
0.108643
0.108371
0.108018
0.107592
0.107116
0.106633
0.106217
0.105972
0.0933425
0.0932194
0.0929891
0.0926464
0.0921874
0.0916127
0.0909366
0.0902031
0.0895147
0.089061
0.0795766
0.0794334
0.0791585
0.0787401
0.0781635
0.0774122
0.0764763
0.0753738
0.0742083
0.0732976
0.0674916
0.0673304
0.0670146
0.0665251
0.0658336
0.0648984
0.0636636
0.0620647
0.0600803
0.0580209
1.45962
1.45962
1.45961
1.45961
1.45961
1.45961
1.45961
1.45961
1.45961
1.45962
1.37904
1.37903
1.37903
1.37903
1.37902
1.37902
1.37902
1.37903
1.37903
1.37903
1.29901
1.299
1.29899
1.29899
1.29898
1.29898
1.29898
1.29899
1.29899
1.299
1.21988
1.21987
1.21986
1.21985
1.21985
1.21985
1.21985
1.21986
1.21986
1.21987
1.14201
1.14199
1.14198
1.14197
1.14197
1.14197
1.14197
1.14198
1.14199
1.142
1.06571
1.0657
1.06568
1.06568
1.06567
1.06567
1.06567
1.06568
1.06569
1.06571
0.991309
0.991289
0.991276
0.991266
0.991262
0.991261
0.991265
0.991274
0.991287
0.991305
0.919076
0.919054
0.919038
0.919028
0.919023
0.919023
0.919027
0.919037
0.919052
0.919073
0.849268
0.849244
0.849228
0.849217
0.849211
0.84921
0.849216
0.849226
0.849243
0.849265
0.782111
0.782085
0.782068
0.782056
0.782049
0.782049
0.782054
0.782066
0.782084
0.782108
0.717796
0.717769
0.71775
0.717737
0.717731
0.71773
0.717735
0.717747
0.717766
0.717792
0.656481
0.656453
0.656434
0.65642
0.656413
0.656411
0.656417
0.656429
0.656448
0.656475
0.598291
0.598262
0.598242
0.598227
0.598219
0.598217
0.598221
0.598233
0.598253
0.598281
0.543315
0.543285
0.543264
0.543248
0.543238
0.543235
0.543239
0.54325
0.543269
0.543297
0.491608
0.491577
0.491555
0.491538
0.491526
0.491521
0.491523
0.491533
0.491551
0.491579
0.443193
0.443163
0.443139
0.443119
0.443105
0.443098
0.443097
0.443105
0.443121
0.443148
0.398064
0.398032
0.398006
0.397984
0.397967
0.397955
0.397951
0.397955
0.397969
0.397994
0.356183
0.35615
0.356122
0.356095
0.356073
0.356055
0.356045
0.356044
0.356055
0.356078
0.317487
0.317453
0.317421
0.317389
0.317359
0.317333
0.317315
0.317307
0.317311
0.317331
0.281891
0.281855
0.281818
0.281777
0.281737
0.2817
0.28167
0.281651
0.281647
0.281662
0.24929
0.24925
0.249205
0.249153
0.249098
0.249044
0.248997
0.248963
0.248947
0.248955
0.219559
0.219515
0.219458
0.21939
0.219314
0.219237
0.219166
0.21911
0.219077
0.219074
0.192562
0.192512
0.192441
0.19235
0.192246
0.192136
0.19203
0.191941
0.191882
0.191864
0.168155
0.168095
0.168005
0.167884
0.167741
0.167584
0.167429
0.167292
0.167193
0.167152
0.146184
0.146113
0.145996
0.145837
0.145641
0.14542
0.145192
0.144983
0.144824
0.144747
0.126494
0.126408
0.12626
0.12605
0.125785
0.125476
0.125146
0.124828
0.124572
0.124434
0.10893
0.108827
0.10864
0.108368
0.108015
0.10759
0.107114
0.106631
0.106216
0.105971
0.0933398
0.0932168
0.0929867
0.0926441
0.0921853
0.0916109
0.0909349
0.0902017
0.0895135
0.08906
0.0795742
0.0794311
0.0791563
0.0787381
0.0781616
0.0774106
0.0764749
0.0753726
0.0742073
0.0732967
0.0674895
0.0673284
0.0670127
0.0665234
0.065832
0.064897
0.0636623
0.0620636
0.0600794
0.0580202
1.45962
1.45962
1.45961
1.45961
1.45961
1.45961
1.45961
1.45961
1.45961
1.45962
1.37904
1.37903
1.37903
1.37902
1.37902
1.37902
1.37902
1.37903
1.37903
1.37903
1.29901
1.299
1.29899
1.29899
1.29898
1.29898
1.29898
1.29899
1.29899
1.299
1.21988
1.21987
1.21986
1.21985
1.21985
1.21985
1.21985
1.21986
1.21986
1.21987
1.14201
1.14199
1.14198
1.14197
1.14197
1.14197
1.14197
1.14198
1.14199
1.142
1.06571
1.0657
1.06568
1.06568
1.06567
1.06567
1.06568
1.06568
1.06569
1.06571
0.991309
0.991289
0.991275
0.991266
0.991262
0.991261
0.991266
0.991275
0.991288
0.991306
0.919075
0.919053
0.919038
0.919028
0.919023
0.919023
0.919028
0.919038
0.919053
0.919074
0.849267
0.849244
0.849227
0.849217
0.849211
0.849211
0.849216
0.849227
0.849244
0.849267
0.78211
0.782085
0.782067
0.782056
0.78205
0.78205
0.782055
0.782067
0.782085
0.78211
0.717795
0.717769
0.71775
0.717738
0.717731
0.717731
0.717737
0.717749
0.717768
0.717794
0.656481
0.656453
0.656434
0.656421
0.656413
0.656413
0.656418
0.656431
0.65645
0.656477
0.598291
0.598262
0.598242
0.598228
0.59822
0.598218
0.598223
0.598235
0.598255
0.598283
0.543315
0.543285
0.543264
0.543249
0.54324
0.543237
0.543241
0.543252
0.543272
0.5433
0.491608
0.491578
0.491556
0.491539
0.491528
0.491523
0.491525
0.491535
0.491554
0.491582
0.443193
0.443163
0.443139
0.44312
0.443107
0.443099
0.443099
0.443107
0.443124
0.443151
0.398064
0.398033
0.398007
0.397986
0.397968
0.397957
0.397953
0.397957
0.397972
0.397997
0.356183
0.356151
0.356123
0.356097
0.356074
0.356057
0.356047
0.356047
0.356057
0.356081
0.317488
0.317454
0.317422
0.31739
0.31736
0.317335
0.317317
0.317309
0.317314
0.317334
0.281892
0.281856
0.281819
0.281779
0.281739
0.281702
0.281672
0.281653
0.28165
0.281665
0.24929
0.249251
0.249206
0.249154
0.249099
0.249046
0.248999
0.248965
0.24895
0.248958
0.219559
0.219515
0.219459
0.219391
0.219316
0.219239
0.219169
0.219112
0.219079
0.219077
0.192563
0.192513
0.192442
0.192352
0.192248
0.192138
0.192032
0.191944
0.191885
0.191867
0.168156
0.168096
0.168006
0.167886
0.167743
0.167586
0.167431
0.167294
0.167196
0.167155
0.146185
0.146113
0.145997
0.145838
0.145642
0.145422
0.145194
0.144985
0.144826
0.144749
0.126495
0.126409
0.126261
0.126051
0.125786
0.125478
0.125148
0.12483
0.124574
0.124437
0.108931
0.108828
0.108641
0.10837
0.108017
0.107592
0.107116
0.106633
0.106218
0.105973
0.0933405
0.0932176
0.0929876
0.0926453
0.0921866
0.0916124
0.0909366
0.0902036
0.0895155
0.089062
0.0795748
0.0794319
0.0791572
0.0787392
0.0781629
0.077412
0.0764764
0.0753742
0.0742091
0.0732985
0.0674901
0.0673291
0.0670135
0.0665244
0.0658331
0.0648982
0.0636637
0.0620651
0.0600809
0.0580217
1.45962
1.45962
1.45961
1.45961
1.45961
1.45961
1.45961
1.45961
1.45961
1.45962
1.37904
1.37903
1.37903
1.37903
1.37902
1.37902
1.37903
1.37903
1.37903
1.37903
1.29901
1.299
1.29899
1.29899
1.29898
1.29898
1.29899
1.29899
1.29899
1.299
1.21988
1.21987
1.21986
1.21986
1.21985
1.21985
1.21986
1.21986
1.21987
1.21988
1.14201
1.14199
1.14198
1.14198
1.14197
1.14197
1.14198
1.14198
1.14199
1.14201
1.06572
1.0657
1.06569
1.06568
1.06568
1.06568
1.06568
1.06569
1.0657
1.06571
0.991312
0.991292
0.991279
0.99127
0.991266
0.991266
0.991271
0.99128
0.991293
0.991312
0.919079
0.919057
0.919042
0.919033
0.919028
0.919028
0.919034
0.919044
0.919059
0.91908
0.849272
0.849248
0.849232
0.849222
0.849217
0.849217
0.849223
0.849234
0.849251
0.849274
0.782115
0.78209
0.782073
0.782062
0.782056
0.782056
0.782062
0.782074
0.782093
0.782117
0.717801
0.717774
0.717756
0.717744
0.717738
0.717738
0.717744
0.717757
0.717776
0.717802
0.656487
0.656459
0.65644
0.656428
0.656421
0.65642
0.656426
0.656439
0.656459
0.656486
0.598297
0.598268
0.598249
0.598235
0.598227
0.598226
0.598231
0.598244
0.598264
0.598292
0.543321
0.543292
0.543271
0.543256
0.543247
0.543245
0.543249
0.543261
0.543281
0.543309
0.491614
0.491584
0.491563
0.491546
0.491536
0.491531
0.491534
0.491544
0.491563
0.491591
0.4432
0.44317
0.443147
0.443128
0.443115
0.443108
0.443108
0.443116
0.443133
0.443161
0.398071
0.39804
0.398015
0.397993
0.397977
0.397966
0.397962
0.397966
0.397981
0.398007
0.356189
0.356158
0.35613
0.356104
0.356083
0.356066
0.356056
0.356056
0.356067
0.35609
0.317494
0.317461
0.317429
0.317398
0.317368
0.317344
0.317326
0.317318
0.317323
0.317343
0.281898
0.281863
0.281826
0.281786
0.281746
0.28171
0.28168
0.281662
0.281659
0.281674
0.249296
0.249258
0.249213
0.249161
0.249107
0.249054
0.249007
0.248974
0.248959
0.248966
0.219565
0.219522
0.219466
0.219398
0.219323
0.219247
0.219176
0.21912
0.219088
0.219085
0.192569
0.192519
0.192448
0.192358
0.192255
0.192145
0.19204
0.191951
0.191892
0.191875
0.168161
0.168102
0.168012
0.167892
0.167749
0.167593
0.167438
0.167301
0.167203
0.167162
0.14619
0.146119
0.146003
0.145844
0.145648
0.145428
0.145201
0.144992
0.144833
0.144756
0.126499
0.126414
0.126266
0.126057
0.125792
0.125484
0.125154
0.124836
0.124581
0.124443
0.108935
0.108832
0.108646
0.108375
0.108022
0.107597
0.107122
0.106639
0.106224
0.105979
0.0933445
0.0932218
0.0929921
0.0926499
0.0921915
0.0916174
0.0909417
0.0902088
0.0895208
0.0890674
0.0795785
0.0794357
0.0791613
0.0787434
0.0781673
0.0774165
0.076481
0.0753789
0.0742137
0.0733032
0.0674935
0.0673326
0.0670172
0.0665282
0.0658371
0.0649023
0.0636678
0.0620692
0.060085
0.0580257
1.45962
1.45962
1.45961
1.45961
1.45961
1.45961
1.45961
1.45961
1.45962
1.45962
1.37904
1.37903
1.37903
1.37903
1.37903
1.37903
1.37903
1.37903
1.37903
1.37904
1.29901
1.299
1.29899
1.29899
1.29899
1.29899
1.29899
1.29899
1.299
1.29901
1.21989
1.21987
1.21987
1.21986
1.21986
1.21986
1.21986
1.21986
1.21987
1.21988
1.14201
1.142
1.14199
1.14198
1.14198
1.14198
1.14198
1.14199
1.142
1.14201
1.06572
1.0657
1.06569
1.06569
1.06568
1.06568
1.06569
1.06569
1.06571
1.06572
0.991319
0.9913
0.991287
0.991279
0.991275
0.991275
0.99128
0.991289
0.991303
0.991321
0.919087
0.919066
0.919052
0.919043
0.919038
0.919039
0.919044
0.919055
0.91907
0.919091
0.849281
0.849258
0.849243
0.849233
0.849228
0.849229
0.849235
0.849246
0.849263
0.849286
0.782125
0.782101
0.782084
0.782074
0.782069
0.782069
0.782075
0.782087
0.782106
0.782131
0.717811
0.717786
0.717769
0.717757
0.717751
0.717752
0.717758
0.717771
0.71779
0.717817
0.656498
0.656471
0.656453
0.656441
0.656435
0.656434
0.656441
0.656454
0.656474
0.656501
0.598309
0.598281
0.598262
0.598249
0.598242
0.598241
0.598246
0.598259
0.59828
0.598308
0.543333
0.543305
0.543285
0.543271
0.543262
0.54326
0.543265
0.543277
0.543297
0.543325
0.491627
0.491598
0.491577
0.491561
0.491551
0.491547
0.49155
0.49156
0.49158
0.491608
0.443213
0.443183
0.443161
0.443143
0.44313
0.443123
0.443124
0.443132
0.44315
0.443177
0.398083
0.398053
0.398029
0.398008
0.397992
0.397981
0.397977
0.397982
0.397997
0.398023
0.356202
0.356171
0.356144
0.356119
0.356097
0.356081
0.356072
0.356072
0.356083
0.356106
0.317506
0.317474
0.317443
0.317412
0.317383
0.317359
0.317341
0.317334
0.317339
0.317359
0.28191
0.281875
0.281839
0.2818
0.28176
0.281724
0.281695
0.281677
0.281674
0.281689
0.249308
0.24927
0.249225
0.249175
0.249121
0.249068
0.249022
0.248988
0.248973
0.248981
0.219576
0.219533
0.219478
0.219411
0.219336
0.21926
0.21919
0.219134
0.219102
0.219099
0.192579
0.19253
0.19246
0.19237
0.192267
0.192158
0.192053
0.191964
0.191906
0.191888
0.168171
0.168112
0.168023
0.167903
0.167761
0.167605
0.16745
0.167313
0.167215
0.167175
0.146199
0.146128
0.146013
0.145854
0.145659
0.145439
0.145212
0.145004
0.144845
0.144768
0.126508
0.126423
0.126275
0.126066
0.125802
0.125494
0.125164
0.124847
0.124591
0.124454
0.108943
0.10884
0.108654
0.108384
0.108031
0.107607
0.107131
0.106649
0.106234
0.105989
0.0933518
0.0932294
0.0930001
0.0926582
0.0922
0.091626
0.0909504
0.0902175
0.0895296
0.0890762
0.0795851
0.0794427
0.0791686
0.0787509
0.078175
0.0774243
0.0764888
0.0753867
0.0742215
0.073311
0.0674994
0.0673389
0.0670238
0.066535
0.065844
0.0649092
0.0636747
0.062076
0.0600917
0.0580322
1.45962
1.45962
1.45962
1.45961
1.45961
1.45961
1.45961
1.45962
1.45962
1.45962
1.37904
1.37904
1.37903
1.37903
1.37903
1.37903
1.37903
1.37903
1.37904
1.37904
1.29901
1.299
1.299
1.299
1.29899
1.29899
1.299
1.299
1.299
1.29901
1.21989
1.21988
1.21987
1.21987
1.21986
1.21986
1.21987
1.21987
1.21988
1.21989
1.14202
1.14201
1.142
1.14199
1.14199
1.14199
1.14199
1.142
1.14201
1.14202
1.06573
1.06572
1.0657
1.0657
1.06569
1.06569
1.0657
1.06571
1.06572
1.06573
0.99133
0.991312
0.9913
0.991292
0.991288
0.991289
0.991294
0.991303
0.991317
0.991336
0.919099
0.919079
0.919066
0.919058
0.919054
0.919054
0.91906
0.91907
0.919086
0.919107
0.849295
0.849273
0.849259
0.84925
0.849245
0.849246
0.849252
0.849264
0.849281
0.849304
0.78214
0.782117
0.782102
0.782092
0.782087
0.782088
0.782094
0.782107
0.782125
0.78215
0.717827
0.717803
0.717787
0.717776
0.717771
0.717772
0.717778
0.717791
0.717811
0.717837
0.656515
0.65649
0.656473
0.656461
0.656455
0.656455
0.656462
0.656475
0.656495
0.656523
0.598326
0.5983
0.598282
0.59827
0.598263
0.598263
0.598268
0.598281
0.598302
0.598331
0.543351
0.543324
0.543306
0.543292
0.543284
0.543282
0.543287
0.543299
0.54332
0.543348
0.491644
0.491618
0.491598
0.491583
0.491573
0.491569
0.491572
0.491583
0.491603
0.491631
0.443231
0.443203
0.443182
0.443165
0.443153
0.443146
0.443147
0.443155
0.443173
0.443201
0.398101
0.398073
0.39805
0.39803
0.398014
0.398003
0.398
0.398005
0.398021
0.398047
0.35622
0.35619
0.356164
0.35614
0.356119
0.356103
0.356094
0.356094
0.356106
0.356129
0.317523
0.317493
0.317463
0.317433
0.317404
0.31738
0.317363
0.317356
0.317361
0.317382
0.281927
0.281894
0.281859
0.28182
0.281781
0.281745
0.281716
0.281699
0.281696
0.281711
0.249324
0.249287
0.249244
0.249194
0.24914
0.249088
0.249042
0.249009
0.248994
0.249002
0.219592
0.21955
0.219496
0.21943
0.219355
0.219279
0.219209
0.219154
0.219122
0.219119
0.192594
0.192546
0.192477
0.192388
0.192285
0.192176
0.192071
0.191983
0.191925
0.191907
0.168185
0.168127
0.168039
0.16792
0.167778
0.167622
0.167467
0.167331
0.167233
0.167193
0.146212
0.146143
0.146028
0.14587
0.145675
0.145455
0.145228
0.14502
0.144861
0.144785
0.12652
0.126436
0.126289
0.126081
0.125817
0.125509
0.125179
0.124862
0.124607
0.124469
0.108954
0.108853
0.108667
0.108397
0.108045
0.10762
0.107145
0.106663
0.106248
0.106003
0.093362
0.0932406
0.0930119
0.0926704
0.0922123
0.0916384
0.0909628
0.09023
0.0895421
0.0890888
0.0795944
0.0794528
0.0791792
0.0787619
0.0781861
0.0774354
0.0764999
0.0753978
0.0742326
0.0733221
0.0675078
0.0673481
0.0670334
0.0665449
0.065854
0.0649192
0.0636846
0.0620858
0.0601013
0.0580416
1.45962
1.45962
1.45962
1.45962
1.45962
1.45962
1.45962
1.45962
1.45962
1.45962
1.37904
1.37904
1.37904
1.37903
1.37903
1.37903
1.37903
1.37904
1.37904
1.37904
1.29902
1.29901
1.29901
1.299
1.299
1.299
1.299
1.29901
1.29901
1.29902
1.2199
1.21989
1.21988
1.21988
1.21987
1.21987
1.21988
1.21988
1.21989
1.2199
1.14203
1.14202
1.14201
1.142
1.142
1.142
1.14201
1.14201
1.14202
1.14204
1.06574
1.06573
1.06572
1.06571
1.06571
1.06571
1.06571
1.06572
1.06573
1.06575
0.991343
0.991328
0.991317
0.99131
0.991307
0.991307
0.991312
0.991322
0.991336
0.991355
0.919114
0.919098
0.919086
0.919078
0.919074
0.919075
0.919081
0.919091
0.919107
0.919129
0.849311
0.849294
0.849281
0.849272
0.849268
0.849269
0.849275
0.849287
0.849304
0.849328
0.782158
0.78214
0.782126
0.782116
0.782112
0.782113
0.782119
0.782132
0.782151
0.782177
0.717846
0.717827
0.717813
0.717802
0.717797
0.717798
0.717805
0.717818
0.717838
0.717865
0.656534
0.656515
0.656499
0.656489
0.656483
0.656483
0.65649
0.656503
0.656524
0.656552
0.598347
0.598326
0.59831
0.598298
0.598292
0.598291
0.598297
0.598311
0.598331
0.598361
0.543372
0.543351
0.543334
0.543321
0.543313
0.543312
0.543317
0.543329
0.54335
0.543379
0.491666
0.491645
0.491627
0.491612
0.491603
0.491599
0.491603
0.491614
0.491633
0.491663
0.443252
0.44323
0.443211
0.443194
0.443182
0.443176
0.443177
0.443186
0.443204
0.443232
0.398123
0.3981
0.398078
0.398059
0.398043
0.398033
0.39803
0.398035
0.398051
0.398078
0.356241
0.356217
0.356193
0.356169
0.356148
0.356133
0.356124
0.356124
0.356136
0.35616
0.317544
0.317519
0.317491
0.317461
0.317433
0.317409
0.317392
0.317385
0.317391
0.317412
0.281947
0.281919
0.281885
0.281847
0.281809
0.281773
0.281744
0.281727
0.281724
0.28174
0.249343
0.249312
0.24927
0.24922
0.249167
0.249115
0.249069
0.249036
0.249021
0.24903
0.21961
0.219574
0.219521
0.219455
0.219381
0.219305
0.219235
0.21918
0.219147
0.219146
0.192611
0.192568
0.1925
0.192412
0.192309
0.1922
0.192095
0.192007
0.191949
0.191932
0.168201
0.168148
0.168061
0.167942
0.1678
0.167645
0.16749
0.167354
0.167256
0.167216
0.146227
0.146162
0.146049
0.145891
0.145696
0.145476
0.14525
0.145041
0.144883
0.144807
0.126535
0.126454
0.126308
0.1261
0.125836
0.125528
0.125199
0.124882
0.124626
0.12449
0.108968
0.108869
0.108685
0.108415
0.108063
0.107638
0.107163
0.106681
0.106266
0.106022
0.0933742
0.0932557
0.0930278
0.0926865
0.0922285
0.0916546
0.0909791
0.0902462
0.0895584
0.0891055
0.0796055
0.0794665
0.0791937
0.0787766
0.0782008
0.0774501
0.0765145
0.0754123
0.0742471
0.0733368
0.0675178
0.0673604
0.0670464
0.0665581
0.0658672
0.0649323
0.0636976
0.0620986
0.0601139
0.0580542
0.0569701
0.0567947
0.0564474
0.055903
0.055121
0.0540357
0.0525383
0.0504295
0.0472744
0.0418755
0.0478294
0.0476478
0.047285
0.0467136
0.0458887
0.044738
0.0431456
0.0409189
0.0377307
0.0330599
0.0399608
0.0397806
0.0394198
0.0388524
0.0380369
0.0369103
0.0353799
0.0333152
0.0305503
0.0269432
0.0332327
0.0330614
0.0327185
0.0321823
0.0314196
0.030383
0.0290103
0.0272283
0.0249703
0.0222276
0.0275176
0.0273607
0.0270479
0.0265625
0.025881
0.0249717
0.0237979
0.0223243
0.0205323
0.0184475
0.0226928
0.0225541
0.0222787
0.0218555
0.0212692
0.0205014
0.0195335
0.0183521
0.0169587
0.0153815
0.0186429
0.018524
0.0182893
0.0179322
0.0174444
0.0168172
0.016044
0.0151244
0.0140679
0.012897
0.0152611
0.0151621
0.0149679
0.0146754
0.0142817
0.013785
0.0131873
0.0124964
0.0117277
0.0109009
0.0124507
0.0123703
0.0122139
0.0119808
0.0116719
0.0112905
0.0108445
0.0103489
0.00982834
0.00931444
0.0101251
0.0100613
0.00993831
0.00975717
0.00952107
0.00923638
0.00891474
0.00857663
0.00825853
0.00803242
0.0569594
0.0567847
0.0564376
0.0558934
0.0551116
0.0540266
0.0525297
0.0504214
0.0472671
0.0418693
0.04782
0.0476389
0.0472764
0.0467052
0.0458805
0.0447301
0.0431381
0.0409119
0.0377244
0.0330544
0.0399525
0.0397728
0.0394123
0.038845
0.0380298
0.0369034
0.0353734
0.0333091
0.0305448
0.0269383
0.0332255
0.0330546
0.0327119
0.0321759
0.0314134
0.0303771
0.0290047
0.027223
0.0249655
0.0222233
0.0275113
0.0273549
0.0270421
0.026557
0.0258756
0.0249666
0.0237931
0.0223197
0.020528
0.0184437
0.0226874
0.022549
0.0222738
0.0218507
0.0212646
0.020497
0.0195293
0.0183481
0.016955
0.0153781
0.0186382
0.0185196
0.0182851
0.0179281
0.0174404
0.0168133
0.0160404
0.0151209
0.0140646
0.012894
0.0152572
0.0151584
0.0149643
0.0146719
0.0142782
0.0137817
0.0131841
0.0124934
0.0117249
0.0108983
0.0124473
0.0123671
0.0122108
0.0119778
0.011669
0.0112876
0.0108417
0.0103463
0.00982584
0.00931208
0.0101222
0.0100586
0.00993566
0.00975458
0.00951856
0.00923394
0.00891238
0.00857436
0.00825637
0.00803043
0.0569525
0.0567779
0.0564311
0.0558871
0.0551055
0.0540208
0.0525241
0.0504162
0.0472625
0.0418653
0.0478139
0.047633
0.0472707
0.0466997
0.0458752
0.044725
0.0431333
0.0409074
0.0377203
0.0330508
0.0399472
0.0397677
0.0394073
0.0388402
0.0380251
0.036899
0.0353692
0.0333052
0.0305413
0.0269351
0.0332209
0.0330501
0.0327076
0.0321717
0.0314094
0.0303732
0.0290011
0.0272196
0.0249624
0.0222205
0.0275073
0.027351
0.0270384
0.0265534
0.0258721
0.0249632
0.0237899
0.0223168
0.0205253
0.0184412
0.0226839
0.0225456
0.0222705
0.0218476
0.0212616
0.0204941
0.0195265
0.0183455
0.0169526
0.0153759
0.0186352
0.0185167
0.0182823
0.0179254
0.0174378
0.0168108
0.016038
0.0151187
0.0140625
0.012892
0.0152546
0.0151559
0.0149619
0.0146696
0.014276
0.0137795
0.0131821
0.0124915
0.0117231
0.0108966
0.0124451
0.012365
0.0122087
0.0119758