/*--------------------------------*- C++ -*----------------------------------*\
| =========                 |                                                 |
| \\      /  F ield         | OpenFOAM: The Open Source CFD Toolbox           |
|  \\    /   O peration     | Version:  v1812                                 |
|   \\  /    A nd           | Web:      www.OpenFOAM.com                      |
|    \\/     M anipulation  |                                                 |
\*---------------------------------------------------------------------------*/
FoamFile
{
    version     2.0;
    format      ascii;
    class       volScalarField;
    location    "8.65";
    object      p;
}
// * * * * * * * * * * * * * * * * * * * * * * * * * * * * * * * * * * * * * //

dimensions      [0 2 -2 0 0 0 0];


internalField   nonuniform List<scalar> 
1000
(
1.6754726
1.5543947
1.4584142
1.3947581
1.3462486
1.3037766
1.2662413
1.2340696
1.2066692
1.1828317
1.1614373
1.1416735
1.1229964
1.1050568
1.0876415
1.0706273
1.0539464
1.0375622
1.0214541
1.0056081
0.99001317
0.97465807
0.95953138
0.94462113
0.92991512
0.91540112
0.90106715
0.88690164
0.87289359
0.8590326
0.8453089
0.83171336
0.81823746
0.80487329
0.79161345
0.77845107
0.76537975
0.75239354
0.73948688
0.72665457
0.71389178
0.70119398
0.68855694
0.67597673
0.66344964
0.65097223
0.63854128
0.62615379
0.61380693
0.60149808
0.58922476
0.57698467
0.56477565
0.55259567
0.54044285
0.52831541
0.51621171
0.50413021
0.49206949
0.4800282
0.46800509
0.45599897
0.44400877
0.43203343
0.42007202
0.40812365
0.3961875
0.38426281
0.37234889
0.36044508
0.34855075
0.33666532
0.32478824
0.31291898
0.30105708
0.28920208
0.27735358
0.26551119
0.25367456
0.24184331
0.23001708
0.21819553
0.20637829
0.19456505
0.1827555
0.17094937
0.1591464
0.14734634
0.13554896
0.12375399
0.11196118
0.1001703
0.088381104
0.076593411
0.064807041
0.053021863
0.041237733
0.029454532
0.017672144
0.0058903901
1.5582529
1.5033239
1.4423714
1.3908037
1.3475336
1.3085653
1.272979
1.2412064
1.2132455
1.1884677
1.1660658
1.1453644
1.1258828
1.1072947
1.0893812
1.0719964
1.0550446
1.0384632
1.0222105
1.006257
0.99057999
0.97516046
0.95998161
0.94502794
0.93028488
0.91573865
0.90137624
0.88718537
0.87315453
0.85927296
0.84553061
0.83191811
0.81842676
0.80504847
0.79177571
0.77860149
0.7655193
0.75252309
0.73960722
0.72676642
0.71399579
0.70129074
0.688647
0.67606058
0.66352773
0.65104499
0.63860908
0.62621698
0.61386584
0.601553
0.58927598
0.57703245
0.56482022
0.55263726
0.54048165
0.52835161
0.51624549
0.50416174
0.4920989
0.48005564
0.46803068
0.45602284
0.44403102
0.43205417
0.42009134
0.40814163
0.39620422
0.38427834
0.3723633
0.36045842
0.34856308
0.33667671
0.32479873
0.31292863
0.30106592
0.28921016
0.27736093
0.26551786
0.25368058
0.24184872
0.23002193
0.21819986
0.20638214
0.19456846
0.1827585
0.17095199
0.15914867
0.1473483
0.13555062
0.1237554
0.11196238
0.10017131
0.088381956
0.076594124
0.064807627
0.053022336
0.041238108
0.029454808
0.017672367
0.005890455
1.4974317
1.4712566
1.4328597
1.3917268
1.3526416
1.3160508
1.2817531
1.2500356
1.2211795
1.1950784
1.1713244
1.1494344
1.1289846
1.1096437
1.0911635
1.0733625
1.0561106
1.039315
1.022909
1.0068438
0.99108349
0.97559981
0.96036994
0.94537444
0.93059617
0.91601967
0.90163083
0.88741666
0.87336511
0.85946506
0.84570615
0.83207878
0.81857406
0.8051837
0.79190003
0.77871594
0.76562479
0.75262043
0.73969713
0.72684956
0.71407274
0.70136202
0.68871308
0.67612188
0.66358464
0.65109784
0.6386582
0.62626264
0.61390831
0.60159251
0.58931276
0.57706669
0.56485211
0.55266696
0.54050933
0.52837742
0.51626954
0.50418416
0.49211981
0.48007513
0.46804885
0.45603978
0.44404681
0.4320689
0.42010507
0.40815443
0.39621614
0.38428944
0.37237362
0.36046801
0.34857199
0.33668496
0.32480638
0.31293571
0.30107246
0.28921618
0.27736647
0.26552293
0.25368519
0.24185292
0.23002573
0.21820329
0.20638525
0.19457125
0.182761
0.17095422
0.15915064
0.14735002
0.13555211
0.12375669
0.11196349
0.10017227
0.088382781
0.076594833
0.064808224
0.05302283
0.041238492
0.029455091
0.017672523
0.0058905209
1.4680232
1.4525251
1.4256551
1.3917313
1.3559303
1.320979
1.287677
1.256324
1.2271933
1.2004018
1.1758143
1.1531221
1.1319702
1.1120415
1.0930833
1.0749036
1.0573578
1.0403368
1.0237582
1.0075602
0.99169624
0.9761305
0.96083453
0.94578485
0.93096141
0.91634667
0.90192502
0.88768238
0.87360593
0.85968393
0.84590557
0.83226089
0.81874068
0.80533643
0.79204026
0.77884489
0.76574353
0.75272991
0.73979819
0.72694294
0.71415911
0.70144199
0.68878717
0.67619058
0.66364838
0.65115702
0.63871317
0.62631373
0.61395581
0.6016367
0.58935387
0.57710496
0.56488774
0.55270015
0.54054025
0.52840623
0.51629641
0.5042092
0.49214316
0.48009691
0.46806917
0.45605874
0.44406452
0.43208543
0.42012051
0.40816886
0.39622963
0.38430204
0.3723854
0.36047902
0.34858228
0.33669459
0.32481538
0.31294412
0.30108032
0.28922352
0.27737331
0.26552929
0.2536911
0.24185839
0.2300308
0.21820797
0.20638956
0.19457522
0.18276465
0.17095754
0.15915365
0.14735274
0.13555455
0.12375887
0.11196543
0.10017399
0.088384303
0.076596179
0.064809392
0.053023845
0.041239326
0.029455795
0.017672988
0.0058908912
1.4552916
1.4433383
1.4211039
1.3908163
1.3569551
1.3229596
1.290262
1.2592564
1.230159
1.2031472
1.1782201
1.1551706
1.133689
1.1134714
1.0942678
1.0758856
1.0581767
1.0410262
1.0243454
1.0080662
0.99213727
0.97651872
0.96117921
0.94609304
0.93123858
0.91659708
0.90215209
0.8878889
0.87379421
0.85985592
0.84606297
0.83240516
0.8188731
0.80545814
0.79215226
0.77894807
0.76583869
0.75281775
0.73987936
0.727018
0.71422858
0.70150633
0.68884682
0.6762459
0.66369972
0.65120469
0.63875746
0.62635489
0.61399408
0.60167229
0.58938699
0.57713578
0.56491644
0.55272688
0.54056516
0.52842944
0.51631804
0.50422937
0.49216197
0.48011445
0.46808554
0.45607403
0.44407879
0.43209876
0.42013298
0.40818051
0.39624053
0.38431225
0.37239495
0.36048796
0.34859066
0.33670245
0.32482275
0.31295104
0.30108681
0.28922961
0.27737901
0.26553463
0.25369609
0.24186305
0.23003514
0.21821201
0.20639331
0.1945787
0.18276785
0.17096049
0.15915635
0.14735519
0.13555678
0.12376087
0.11196722
0.1001756
0.088385736
0.076597455
0.064810508
0.053024828
0.041240145
0.029456511
0.017673487
0.0058913123
1.4552916
1.4433383
1.4211039
1.3908163
1.3569551
1.3229596
1.290262
1.2592564
1.230159
1.2031472
1.1782201
1.1551706
1.133689
1.1134714
1.0942678
1.0758856
1.0581767
1.0410262
1.0243454
1.0080662
0.99213727
0.97651872
0.96117921
0.94609304
0.93123858
0.91659708
0.90215209
0.8878889
0.87379421
0.85985592
0.84606297
0.83240516
0.8188731
0.80545814
0.79215227
0.77894807
0.76583869
0.75281775
0.73987935
0.727018
0.71422858
0.70150633
0.68884682
0.6762459
0.66369972
0.65120469
0.63875746
0.62635489
0.61399408
0.60167229
0.58938699
0.57713578
0.56491644
0.55272689
0.54056516
0.52842944
0.51631804
0.50422937
0.49216197
0.48011445
0.46808554
0.45607403
0.44407879
0.43209877
0.42013298
0.40818051
0.39624053
0.38431225
0.37239495
0.36048796
0.34859066
0.33670245
0.32482276
0.31295104
0.30108682
0.28922961
0.27737901
0.26553462
0.25369608
0.24186304
0.23003513
0.21821201
0.20639331
0.1945787
0.18276786
0.17096049
0.15915635
0.14735519
0.13555677
0.12376087
0.11196722
0.1001756
0.088385735
0.076597455
0.064810508
0.053024828
0.041240145
0.02945651
0.017673487
0.0058913121
1.4680232
1.4525251
1.4256551
1.3917313
1.3559303
1.320979
1.287677
1.256324
1.2271933
1.2004018
1.1758143
1.1531221
1.1319702
1.1120415
1.0930833
1.0749036
1.0573578
1.0403368
1.0237582
1.0075602
0.99169624
0.9761305
0.96083454
0.94578486
0.93096141
0.91634667
0.90192502
0.88768238
0.87360593
0.85968393
0.84590557
0.83226089
0.81874068
0.80533643
0.79204027
0.77884489
0.76574353
0.75272991
0.73979818
0.72694294
0.71415911
0.70144198
0.68878718
0.67619058
0.66364839
0.65115703
0.63871317
0.62631373
0.61395581
0.6016367
0.58935387
0.57710496
0.56488774
0.55270016
0.54054026
0.52840624
0.51629641
0.50420921
0.49214316
0.48009691
0.46806917
0.45605875
0.44406452
0.43208544
0.42012052
0.40816886
0.39622963
0.38430204
0.37238539
0.36047901
0.34858228
0.33669459
0.32481539
0.31294413
0.30108033
0.28922352
0.2773733
0.26552927
0.25369108
0.24185838
0.23003079
0.21820797
0.20638957
0.19457523
0.18276465
0.17095754
0.15915364
0.14735272
0.13555453
0.12375885
0.11196541
0.10017398
0.088384301
0.07659618
0.064809394
0.053023847
0.041239326
0.029455794
0.017672986
0.0058908903
1.4974317
1.4712566
1.4328597
1.3917268
1.3526416
1.3160508
1.2817531
1.2500356
1.2211795
1.1950784
1.1713244
1.1494344
1.1289846
1.1096437
1.0911635
1.0733625
1.0561106
1.039315
1.022909
1.0068438
0.9910835
0.97559981
0.96036995
0.94537445
0.93059617
0.91601967
0.90163083
0.88741665
0.87336511
0.85946505
0.84570615
0.83207879
0.81857406
0.8051837
0.79190004
0.77871594
0.76562478
0.75262042
0.73969712
0.72684955
0.71407273
0.70136202
0.68871309
0.67612189
0.66358465
0.65109784
0.6386582
0.62626264
0.6139083
0.60159251
0.58931275
0.57706669
0.56485211
0.55266697
0.54050934
0.52837742
0.51626955
0.50418416
0.49211981
0.48007513
0.46804885
0.45603979
0.44404683
0.43206891
0.42010508
0.40815443
0.39621614
0.38428943
0.37237361
0.360468
0.34857199
0.33668498
0.3248064
0.31293572
0.30107246
0.28921617
0.27736644
0.26552289
0.25368516
0.24185289
0.23002572
0.2182033
0.20638526
0.19457127
0.18276101
0.17095421
0.15915061
0.14734999
0.13555208
0.12375666
0.11196347
0.10017226
0.088382781
0.076594837
0.064808228
0.053022832
0.041238492
0.029455089
0.017672519
0.0058905194
1.5582529
1.5033239
1.4423714
1.3908037
1.3475336
1.3085653
1.272979
1.2412064
1.2132455
1.1884677
1.1660658
1.1453644
1.1258828
1.1072947
1.0893812
1.0719964
1.0550446
1.0384632
1.0222105
1.006257
0.99057999
0.97516046
0.95998162
0.94502795
0.93028488
0.91573865
0.90137623
0.88718536
0.87315452
0.85927296
0.84553061
0.83191811
0.81842677
0.80504848
0.79177572
0.77860149
0.7655193
0.75252308
0.73960721
0.72676641
0.71399578
0.70129074
0.68864701
0.67606059
0.66352774
0.65104499
0.63860908
0.62621698
0.61386583
0.601553
0.58927598
0.57703245
0.56482023
0.55263727
0.54048166
0.52835162
0.5162455
0.50416174
0.4920989
0.48005564
0.46803069
0.45602286
0.44403103
0.43205419
0.42009135
0.40814163
0.39620421
0.38427833
0.37236328
0.36045842
0.3485631
0.33667673
0.32479875
0.31292864
0.30106592
0.28921014
0.2773609
0.26551782
0.25368054
0.2418487
0.23002193
0.21819987
0.20638216
0.19456847
0.1827585
0.17095198
0.15914864
0.14734826
0.13555059
0.12375538
0.11196237
0.10017131
0.088381958
0.076594128
0.064807631
0.053022339
0.041238108
0.029454807
0.017672364
0.0058904537
1.6754726
1.5543947
1.4584142
1.3947581
1.3462486
1.3037766
1.2662413
1.2340696
1.2066692
1.1828317
1.1614373
1.1416735
1.1229964
1.1050568
1.0876415
1.0706273
1.0539464
1.0375622
1.0214541
1.0056082
0.99001318
0.97465808
0.95953138
0.94462113
0.92991512
0.91540112
0.90106714
0.88690163
0.87289359
0.8590326
0.8453089
0.83171336
0.81823747
0.8048733
0.79161345
0.77845107
0.76537975
0.75239353
0.73948687
0.72665456
0.71389177
0.70119398
0.68855695
0.67597674
0.66344965
0.65097223
0.63854128
0.62615378
0.61380693
0.60149807
0.58922476
0.57698468
0.56477566
0.55259568
0.54044285
0.52831541
0.51621171
0.50413022
0.49206949
0.48002821
0.4680051
0.45599899
0.44400878
0.43203344
0.42007202
0.40812364
0.39618748
0.3842628
0.37234888
0.36044508
0.34855076
0.33666534
0.32478825
0.31291899
0.30105707
0.28920205
0.27735354
0.26551116
0.25367453
0.24184329
0.23001708
0.21819553
0.2063783
0.19456505
0.18275549
0.17094935
0.15914637
0.14734632
0.13554893
0.12375397
0.11196117
0.10017029
0.088381099
0.076593409
0.064807044
0.053021869
0.04123774
0.029454536
0.017672144
0.00589039
)
;

boundaryField
{
    top
    {
        type            zeroGradient;
    }
    inlet
    {
        type            zeroGradient;
    }
    outlet
    {
        type            fixedValue;
        value           uniform 0;
    }
    bottom
    {
        type            zeroGradient;
    }
    back
    {
        type            empty;
    }
    front
    {
        type            empty;
    }
}


// ************************************************************************* //
