/*--------------------------------*- C++ -*----------------------------------*\
| =========                 |                                                 |
| \\      /  F ield         | OpenFOAM: The Open Source CFD Toolbox           |
|  \\    /   O peration     | Version:  v1812                                 |
|   \\  /    A nd           | Web:      www.OpenFOAM.com                      |
|    \\/     M anipulation  |                                                 |
\*---------------------------------------------------------------------------*/
FoamFile
{
    version     2.0;
    format      ascii;
    class       surfaceScalarField;
    location    "16.2";
    object      phi;
}
// * * * * * * * * * * * * * * * * * * * * * * * * * * * * * * * * * * * * * //

dimensions      [0 3 -1 0 0 0 0];
oriented        oriented;


internalField   nonuniform List<scalar> 
1890
(
0.0093061958
0.00069380425
0.0082843931
0.0010218027
0.0073298986
0.00095449446
0.0064869553
0.00084294331
0.0057695845
0.00071737078
0.00518986
0.00057972443
0.004738168
0.00045169205
0.00439519
0.00034297802
0.0041390268
0.00025616318
0.003949107
0.00018991983
0.003807888
0.00014121897
0.0037013782
0.0001065098
0.003619058
8.2320219e-05
0.0035534117
6.5646243e-05
0.0034992845
5.4127248e-05
0.0034532444
4.6040037e-05
0.0034130502
4.0194282e-05
0.0033772574
3.5792747e-05
0.0033449386
3.2318757e-05
0.0033154894
2.9449283e-05
0.0032885008
2.6988585e-05
0.0032636805
2.4820309e-05
0.003240805
2.2875488e-05
0.0032196926
2.1112421e-05
0.0032001879
1.9504655e-05
0.0031821539
1.8034011e-05
0.0031654672
1.6686722e-05
0.0031500158
1.5451358e-05
0.0031356979
1.4317863e-05
0.0031224209
1.3277072e-05
0.0031101003
1.2320597e-05
0.0030986596
1.1440728e-05
0.0030880291
1.0630442e-05
0.0030781458
9.8833723e-06
0.003068952
9.1937748e-06
0.0030603955
8.5564952e-06
0.0030524285
7.9669129e-06
0.0030450076
7.4208962e-06
0.0030380929
6.9147415e-06
0.0030316478
6.4451202e-06
0.0030256387
6.009055e-06
0.0030200349
5.6038471e-06
0.0030148078
5.2270765e-06
0.0030099313
4.8765424e-06
0.003005381
4.5502531e-06
0.0030011346
4.2464043e-06
0.0029971713
3.9633382e-06
0.0029934717
3.6995588e-06
0.002990018
3.4536788e-06
0.0029867936
3.2244197e-06
0.002983783
3.0106184e-06
0.0029809718
2.8111757e-06
0.0029783467
2.6250945e-06
0.0029758953
2.4514442e-06
0.002973606
2.2893593e-06
0.0029714679
2.1380631e-06
0.0029694711
1.9968112e-06
0.0029676061
1.8649545e-06
0.0029658642
1.741859e-06
0.0029642372
1.6269397e-06
0.0029627176
1.519652e-06
0.0029612982
1.419467e-06
0.0029599723
1.3259067e-06
0.0029587338
1.2385117e-06
0.002957577
1.1568619e-06
0.0029564964
1.0805849e-06
0.002955487
1.009325e-06
0.0029545442
9.4276814e-07
0.0029536635
8.8063414e-07
0.0029528409
8.2261814e-07
0.0029520724
7.6846654e-07
0.0029513546
7.1789739e-07
0.002950684
6.706488e-07
0.0029500575
6.2648512e-07
0.0029494724
5.8519204e-07
0.0029489258
5.465804e-07
0.0029484152
5.1051272e-07
0.0029479383
4.7681404e-07
0.0029474929
4.4539918e-07
0.0029470768
4.1607759e-07
0.002946688
3.8875226e-07
0.0029463249
3.6320903e-07
0.0029459856
3.3935578e-07
0.0029456687
3.1698363e-07
0.0029453726
2.9608196e-07
0.0029450962
2.7642332e-07
0.0029448379
2.5821388e-07
0.0029445967
2.4105958e-07
0.0029443712
2.253288e-07
0.0029441609
2.1041309e-07
0.0029439642
1.9684775e-07
0.0029437803
1.8377543e-07
0.0029436083
1.7211537e-07
0.002943448
1.6037764e-07
0.0029432978
1.5018687e-07
0.0029431574
1.4029551e-07
0.0029430254
1.321111e-07
0.0029429003
1.2511345e-07
0.0029427808
1.1941556e-07
1.2577351e-07
0.010339525
0.00035427931
0.010570754
0.00079057333
0.010606301
0.00091894817
0.010547572
0.00090167133
0.010422317
0.0008426262
0.010244356
0.00075768557
0.010039421
0.00065662743
0.0098287427
0.00055365586
0.009625135
0.00045977083
0.0094353013
0.00037975353
0.0092624277
0.00031409258
0.0091075333
0.00026140425
0.008970154
0.00021969948
0.0088489024
0.00018689785
0.0087419716
0.00016105801
0.0086474927
0.00014051893
0.008563694
0.00012399295
0.0084890108
0.00011047599
0.0084221097
9.9219865e-05
0.0083618776
8.9681403e-05
0.0083073955
8.1470667e-05
0.0082579079
7.4307848e-05
0.0082127929
6.7990496e-05
0.0081715353
6.2369987e-05
0.008133705
5.7335012e-05
0.0080989388
5.2800182e-05
0.0080669272
4.8698265e-05
0.0080374037
4.4974958e-05
0.0080101361
4.1585394e-05
0.0079849213
3.8491853e-05
0.0079615798
3.566216e-05
0.0079399519
3.3068617e-05
0.0079198952
3.0687177e-05
0.0079012817
2.8496854e-05
0.0078839962
2.6479244e-05
0.0078679345
2.4618144e-05
0.0078530022
2.2899243e-05
0.0078391132
2.1309846e-05
0.0078261893
1.9838662e-05
0.0078141589
1.8475614e-05
0.0078029562
1.7211668e-05
0.0077925214
1.6038728e-05
0.007782799
1.4949481e-05
0.0077737382
1.3937339e-05
0.0077652921
1.2996322e-05
0.0077574175
1.2121002e-05
0.0077500744
1.1306451e-05
0.0077432258
1.0548147e-05
0.0077368375
9.841971e-06
0.0077308778
9.1841346e-06
0.0077253173
8.5711463e-06
0.0077201286
7.9998147e-06
0.0077152866
7.4671669e-06
0.0077107675
6.9704846e-06
0.0077065496
6.507249e-06
0.0077026125
6.0751334e-06
0.0076989373
5.6720128e-06
0.0076955064
5.2958957e-06
0.0076923033
4.9449559e-06
0.0076893128
4.6174701e-06
0.0076865206
4.3118344e-06
0.0076839135
4.0265681e-06
0.0076814792
3.7602632e-06
0.007679206
3.5116416e-06
0.0076770834
3.2795024e-06
0.0076751012
3.0627407e-06
0.0076732501
2.8603519e-06
0.0076715215
2.67139e-06
0.0076699072
2.4949735e-06
0.0076683996
2.3302874e-06
0.0076669915
2.1765262e-06
0.0076656765
2.0329415e-06
0.0076644483
1.8988385e-06
0.0076633013
1.7735433e-06
0.0076622299
1.6564934e-06
0.0076612293
1.5471305e-06
0.0076602948
1.4450052e-06
0.007659422
1.3496359e-06
0.0076586068
1.2606471e-06
0.0076578453
1.1775487e-06
0.0076571341
1.1000386e-06
0.0076564698
1.0275353e-06
0.0076558492
9.5989925e-07
0.0076552697
8.9649819e-07
0.0076547283
8.3743442e-07
0.0076542228
7.8189086e-07
0.0076537505
7.3046165e-07
0.0076533094
6.8214162e-07
0.0076528972
6.3761155e-07
0.0076525127
5.9497066e-07
0.0076521529
5.567095e-07
0.0076518171
5.1954028e-07
0.0076515027
4.8640919e-07
0.0076512105
4.5245175e-07
0.0076509356
4.2509768e-07
0.0076506807
3.9525783e-07
0.0076504386
3.7433115e-07
0.0076502165
3.4709599e-07
0.0076499999
3.3607252e-07
3.1077958e-07
0.010188704
0.00016557515
0.010530487
0.00044879097
0.010851453
0.00059798174
0.011124174
0.00062895021
0.011350581
0.00061621883
0.011524486
0.00058378053
0.01164633
0.00053478419
0.011724155
0.00047583049
0.011767999
0.00041592665
0.011786639
0.00036111399
0.011787114
0.0003136171
0.011775058
0.00027346024
0.011754861
0.00023989717
0.011729768
0.00021199029
0.011702054
0.00018877259
0.011673239
0.00016933387
0.011644339
0.00015289295
0.011616003
0.00013881182
0.011588629
0.00012659379
0.011562446
0.00011586444
0.011537572
0.00010634493
0.011514052
9.7826987e-05
0.01149189
9.015335e-05
0.011471056
8.3203356e-05
0.011451509
7.6882607e-05
0.011433193
7.111556e-05
0.011416051
6.5840298e-05
0.011400021
6.1004914e-05
0.011385042
5.6565078e-05
0.011371051
5.2482344e-05
0.01135799
4.8723035e-05
0.011345801
4.5257394e-05
0.01133443
4.2058998e-05
0.011323822
3.9104274e-05
0.011313929
3.6372121e-05
0.011304704
3.3843605e-05
0.011296101
3.1501691e-05
0.01128808
2.9331018e-05
0.011280601
2.7317704e-05
0.011273628
2.5449183e-05
0.011267125
2.3714058e-05
0.011261062
2.210196e-05
0.011255408
2.0603462e-05
0.011250135
1.9209952e-05
0.011245218
1.7913567e-05
0.011240632
1.6707112e-05
0.011236354
1.5583979e-05
0.011232364
1.4538114e-05
0.011228643
1.3563933e-05
0.01122517
1.2656302e-05
0.011221931
1.1810493e-05
0.011218909
1.1022115e-05
0.011216089
1.0287141e-05
0.011213457
9.6018259e-06
0.011211002
8.9627165e-06
0.01120871
8.3666263e-06
0.011206572
7.810593e-06
0.011204576
7.2918808e-06
0.011202713
6.8079232e-06
0.011200974
6.3563505e-06
0.011199351
5.9349614e-06
0.011197836
5.5416811e-06
0.011196421
5.1746181e-06
0.011195101
4.8319827e-06
0.011193868
4.512141e-06
0.011192718
4.2135624e-06
0.011191643
3.9348294e-06
0.01119064
3.6746235e-06
0.011189703
3.4317163e-06
0.011188829
3.2049273e-06
0.011188012
2.9931973e-06
0.011187249
2.7954737e-06
0.011186537
2.6108315e-06
0.011185873
2.4383778e-06
0.011185252
2.2773359e-06
0.011184672
2.1269209e-06
0.01118413
1.9865048e-06
0.011183625
1.8553601e-06
0.011183152
1.7329855e-06
0.011182711
1.6186387e-06
0.011182299
1.5119405e-06
0.011181915
1.4121281e-06
0.011181556
1.3190722e-06
0.01118122
1.2318474e-06
0.011180907
1.1506937e-06
0.011180614
1.0745116e-06
0.011180341
1.0040945e-06
0.011180086
9.3725432e-07
0.011179847
8.7618412e-07
0.011179624
8.1775219e-07
0.011179416
7.6532481e-07
0.011179222
7.1275536e-07
0.01117904
6.6812308e-07
0.011178872
6.2105572e-07
0.011178712
5.8530312e-07
0.011178566
5.4111234e-07
0.011178425
5.1517067e-07
0.0111783
4.7225007e-07
0.011178177
4.590254e-07
4.1608574e-07
0.010097182
6.8393549e-05
0.010346961
0.0001990111
0.010662469
0.00028247385
0.010982753
0.00030866646
0.011290229
0.00030874339
0.011575251
0.00029875786
0.011829022
0.00028101344
0.012047865
0.00025698754
0.012233272
0.00023051981
0.01238924
0.00020514589
0.012520295
0.00018256234
0.012630755
0.00016299955
0.012724428
0.00014622488
0.012804515
0.0001319031
0.012873613
0.00011967425
0.012933772
0.0001091746
0.012986596
0.00010006906
0.013033332
9.2076359e-05
0.01307495
8.4975244e-05
0.013112216
7.8598601e-05
0.013145739
7.2822287e-05
0.013176012
6.7553921e-05
0.013203441
6.2723906e-05
0.013228366
5.827888e-05
0.013251071
5.4176978e-05
0.013271802
5.0384429e-05
0.01329077
4.6873165e-05
0.013308155
4.3619185e-05
0.013324119
4.0601467e-05
0.0133388
3.7801289e-05
0.013352321
3.5201761e-05
0.013364791
3.2787538e-05
0.013376306
3.0544598e-05
0.01338695
2.8460091e-05
0.0133968
2.6522222e-05
0.013405923
2.4720137e-05
0.013414381
2.3043845e-05
0.013422228
2.1484147e-05
0.013429513
2.0032564e-05
0.013436281
1.8681276e-05
0.013442572
1.7423068e-05
0.013448423
1.6251284e-05
0.013453866
1.5159766e-05
0.013458933
1.4142833e-05
0.013463652
1.3195223e-05
0.013468047
1.2312071e-05
0.013472142
1.1488871e-05
0.013475959
1.072144e-05
0.013479517
1.0005913e-05
0.013482834
9.3386925e-06
0.013485928
8.7164425e-06
0.013488814
8.1360765e-06
0.013491507
7.5947079e-06
0.013494019
7.0896749e-06
0.013496363
6.6185023e-06
0.013498551
6.1788905e-06
0.013500593
5.7686972e-06
0.013502499
5.3859207e-06
0.013504278
5.0287089e-06
0.013505939
4.695331e-06
0.01350749
4.3841685e-06
0.013508938
4.0937337e-06
0.01351029
3.8226201e-06
0.013511552
3.5695395e-06
0.013512731
3.3332826e-06
0.013513832
3.1127282e-06
0.01351486
2.9068329e-06
0.01351582
2.714609e-06
0.013516716
2.5351464e-06
0.013517554
2.3675884e-06
0.013518336
2.2111216e-06
0.013519066
2.0650098e-06
0.013519749
1.9285727e-06
0.013520386
1.8011516e-06
0.013520981
1.6821912e-06
0.013521537
1.5710913e-06
0.013522056
1.4673832e-06
0.013522541
1.3705119e-06
0.013522994
1.2800984e-06
0.013523417
1.1955833e-06
0.013523812
1.1167271e-06
0.013524181
1.0429406e-06
0.013524526
9.7419018e-07
0.013524848
9.0972418e-07
0.013525149
8.4992887e-07
0.013525429
7.9367468e-07
0.013525692
7.4160063e-07
0.013525938
6.9213841e-07
0.013526166
6.4738884e-07
0.01352638
6.0398443e-07
0.01352658
5.6506336e-07
0.013526767
5.2577589e-07
0.013526941
4.9378759e-07
0.013527103
4.5852639e-07
0.013527257
4.3261927e-07
0.013527399
3.9882733e-07
0.013527533
3.8078528e-07
0.013527658
3.4709661e-07
0.013527779
3.3799818e-07
3.0563333e-07
0.010068394
-5.0923802e-12
0.010267405
-1.3200499e-11
0.010549879
-1.4257395e-11
0.010858545
-1.2209525e-11
0.011167288
-9.5874718e-12
0.011466046
-9.7594617e-12
0.01174706
-1.0647511e-11
0.012004047
-1.1907072e-11
0.012234567
-1.3019563e-11
0.012439713
-1.4764666e-11
0.012622275
-1.5745587e-11
0.012785275
-1.5189561e-11
0.0129315
-1.413568e-11
0.013063403
-1.2319096e-11
0.013183077
-1.0693256e-11
0.013292252
-9.7147842e-12
0.013392321
-8.5960665e-12
0.013484397
-7.6178527e-12
0.013569373
-7.0873687e-12
0.013647971
-8.8206725e-12
0.013720793
-1.2888172e-11
0.013788347
-1.6908513e-11
0.013851071
-1.6937953e-11
0.01390935
-1.540935e-11
0.013963527
-1.1514026e-11
0.014013912
-5.8238606e-12
0.014060785
-1.3413807e-12
0.014104404
2.1680149e-12
0.014145005
6.054726e-12
0.014182807
7.2087342e-12
0.014218009
7.0306393e-12
0.014250796
4.1259694e-12
0.014281341
6.585883e-13
0.014309801
-3.4268146e-12
0.014336323
-5.6739698e-12
0.014361043
-4.1268802e-12
0.014384087
6.8493835e-13
0.014405571
6.1753603e-12
0.014425604
1.0569169e-11
0.014444285
1.2917176e-11
0.014461708
1.2267063e-11
0.014477959
7.4849607e-12
0.014493119
2.4917622e-12
0.014507262
-3.6456486e-12
0.014520457
-7.5835091e-12
0.014532769
-8.0899038e-12
0.014544258
-6.396217e-12
0.014554979
-2.2308291e-12
0.014564985
5.6264518e-12
0.014574324
1.5235848e-11
0.01458304
2.037972e-11
0.014591177
1.6018565e-11
0.014598771
8.603465e-12
0.014605861
-1.2586518e-12
0.014612479
-1.295803e-11
0.014618658
-1.5699329e-11
0.014624427
-8.8178363e-12
0.014629813
-2.6847462e-13
0.014634842
1.3817884e-11
0.014639537
2.2218047e-11
0.014643921
2.2510342e-11
0.014648015
1.4691198e-11
0.014651837
5.0802755e-12
0.014655407
-6.9125541e-12
0.01465874
-1.679085e-11
0.014661853
-1.6764099e-11
0.01466476
-1.0004991e-11
0.014667474
1.6085762e-12
0.01467001
2.1287174e-11
0.014672377
3.1576995e-11
0.014674588
3.2334126e-11
0.014676653
1.76736e-11
0.014678582
1.7114305e-12
0.014680383
-2.0033296e-11
0.014682065
-3.4643912e-11
0.014683636
-2.6519142e-11
0.014685104
-6.9749169e-12
0.014686474
1.9416571e-11
0.014687754
4.3105528e-11
0.01468895
4.0011297e-11
0.014690067
1.8740019e-11
0.014691109
4.8023615e-13
0.014692083
-2.913411e-11
0.014692994
-4.5849883e-11
0.014693844
-1.8487346e-11
0.014694636
8.5145775e-12
0.014695378
1.4069613e-11
0.014696072
3.3519313e-11
0.014696719
9.8342235e-11
0.01469732
4.9383942e-11
0.014697886
-7.0503612e-11
0.014698415
-1.0762938e-10
0.014698907
-8.9710281e-11
0.014699364
5.6547358e-11
0.014699797
1.6632002e-10
0.014700198
5.9948298e-11
0.014700578
-5.0063173e-11
0.014700924
-7.8416115e-11
0.014701262
-9.5385579e-11
-7.3437436e-11
0.010068394
-6.8393558e-05
0.010267405
-0.00019901113
0.010549879
-0.00028247388
0.010858545
-0.00030866649
0.011167288
-0.00030874342
0.011466046
-0.00029875789
0.01174706
-0.00028101346
0.012004047
-0.00025698756
0.012234567
-0.00023051983
0.012439713
-0.00020514591
0.012622275
-0.00018256236
0.012785275
-0.00016299958
0.0129315
-0.00014622492
0.013063403
-0.00013190313
0.013183077
-0.00011967427
0.013292252
-0.00010917462
0.013392321
-0.00010006908
0.013484397
-9.2076367e-05
0.013569373
-8.4975254e-05
0.013647971
-7.8598618e-05
0.013720793
-7.2822311e-05
0.013788347
-6.7553947e-05
0.013851071
-6.2723935e-05
0.01390935
-5.8278907e-05
0.013963527
-5.4176996e-05
0.014013912
-5.0384439e-05
0.014060785
-4.6873167e-05
0.014104404
-4.3619178e-05
0.014145005
-4.0601456e-05
0.014182807
-3.7801274e-05
0.014218009
-3.5201751e-05
0.014250796
-3.2787532e-05
0.014281341
-3.0544597e-05
0.014309801
-2.8460098e-05
0.014336323
-2.6522229e-05
0.014361043
-2.4720138e-05
0.014384087
-2.3043841e-05
0.014405571
-2.1484138e-05
0.014425604
-2.0032547e-05
0.014444285
-1.8681254e-05
0.014461708
-1.742305e-05
0.014477959
-1.625127e-05
0.014493119
-1.515976e-05
0.014507262
-1.4142836e-05
0.014520457
-1.3195235e-05
0.014532769
-1.2312087e-05
0.014544258
-1.1488883e-05
0.014554979
-1.0721445e-05
0.014564985
-1.0005901e-05
0.014574324
-9.3386674e-06
0.01458304
-8.7164173e-06
0.014591177
-8.1360504e-06
0.014598771
-7.594694e-06
0.014605861
-7.089677e-06
0.014612479
-6.6185161e-06
0.014618658
-6.1789064e-06
0.014624427
-5.7687049e-06
0.014629813
-5.385922e-06
0.014634842
-5.0286961e-06
0.014639537
-4.6952989e-06
0.014643921
-4.3841368e-06
0.014648015
-4.0937067e-06
0.014651837
-3.8226096e-06
0.014655407
-3.5695443e-06
0.01465874
-3.3333063e-06
0.014661853
-3.1127585e-06
0.01466476
-2.9068494e-06
0.014667475
-2.7146073e-06
0.01467001
-2.535124e-06
0.014672377
-2.3675399e-06
0.014674588
-2.211083e-06
0.014676653
-2.0649841e-06
0.014678582
-1.9285709e-06
0.014680383
-1.801179e-06
0.014682065
-1.6822248e-06
0.014683636
-1.5711174e-06
0.014685104
-1.4673866e-06
0.014686474
-1.3704904e-06
0.014687754
-1.2800651e-06
0.01468895
-1.1955461e-06
0.014690067
-1.1167086e-06
0.014691109
-1.0429504e-06
0.014692083
-9.7421206e-07
0.014692994
-9.0976369e-07
0.014693844
-8.4994729e-07
0.014694637
-7.9365554e-07
0.014695378
-7.4159047e-07
0.014696072
-6.9212771e-07
0.014696719
-6.4728745e-07
0.01469732
-6.0382684e-07
0.014697886
-5.6525436e-07
0.014698415
-5.2610023e-07
0.014698907
-4.9357625e-07
0.014699364
-4.5816739e-07
0.014699798
-4.3274957e-07
0.014700198
-3.9912572e-07
0.014700578
-3.8081845e-07
0.014700924
-3.4701212e-07
0.014701262
-3.3804446e-07
-3.0572049e-07
0.010097182
-0.00016557515
0.010346961
-0.000448791
0.010662469
-0.00059798177
0.010982753
-0.00062895025
0.011290229
-0.00061621886
0.011575251
-0.00058378055
0.011829022
-0.0005347842
0.012047865
-0.0004758305
0.012233272
-0.00041592666
0.01238924
-0.000361114
0.012520295
-0.00031361712
0.012630755
-0.00027346026
0.012724428
-0.00023989719
0.012804515
-0.00021199032
0.012873613
-0.00018877261
0.012933772
-0.00016933388
0.012986596
-0.00015289296
0.013033332
-0.00013881183
0.01307495
-0.00012659379
0.013112216
-0.00011586445
0.013145739
-0.00010634494
0.013176012
-9.7827006e-05
0.013203441
-9.0153369e-05
0.013228366
-8.3203372e-05
0.013251071
-7.688262e-05
0.013271802
-7.1115566e-05
0.01329077
-6.5840295e-05
0.013308155
-6.1004907e-05
0.013324119
-5.6565067e-05
0.0133388
-5.2482336e-05
0.013352321
-4.8723025e-05
0.013364791
-4.5257388e-05
0.013376305
-4.2058996e-05
0.01338695
-3.9104273e-05
0.0133968
-3.6372123e-05
0.013405923
-3.384361e-05
0.013414381
-3.1501694e-05
0.013422228
-2.9331014e-05
0.013429513
-2.7317695e-05
0.013436281
-2.5449171e-05
0.013442572
-2.371404e-05
0.013448423
-2.2101947e-05
0.013453866
-2.0603456e-05
0.013458933
-1.9209954e-05
0.013463652
-1.7913576e-05
0.013468047
-1.6707122e-05
0.013472142
-1.558399e-05
0.013475959
-1.4538115e-05
0.013479517
-1.3563929e-05
0.013482834
-1.2656295e-05
0.013485928
-1.1810473e-05
0.013488814
-1.1022097e-05
0.013491507
-1.0287124e-05
0.013494019
-9.6018172e-06
0.013496363
-8.9627206e-06
0.013498551
-8.3666407e-06
0.013500593
-7.8106167e-06
0.013502499
-7.2918914e-06
0.013504278
-6.8079215e-06
0.013505939
-6.3563385e-06
0.01350749
-5.9349305e-06
0.013508938
-5.5416508e-06
0.01351029
-5.1745946e-06
0.013511552
-4.8319806e-06
0.013512731
-4.5121519e-06
0.013513832
-4.2135827e-06
0.01351486
-3.9348568e-06
0.01351582
-3.6746402e-06
0.013516716
-3.431714e-06
0.013517554
-3.2049178e-06
0.013518336
-2.9931645e-06
0.013519066
-2.7954393e-06
0.013519749
-2.6108083e-06
0.013520386
-2.4383703e-06
0.013520981
-2.2773483e-06
0.013521537
-2.1269545e-06
0.013522056
-1.9865475e-06
0.013522541
-1.8553916e-06
0.013522994
-1.732987e-06
0.013523417
-1.6186124e-06
0.013523812
-1.511896e-06
0.013524181
-1.4120804e-06
0.013524526
-1.3190442e-06
0.013524848
-1.2318487e-06
0.013525149
-1.1507653e-06
0.013525429
-1.0745668e-06
0.013525692
-1.0040567e-06
0.013525938
-9.3724419e-07
0.013526166
-8.7630681e-07
0.01352638
-8.1778476e-07
0.01352658
-7.6502292e-07
0.013526767
-7.1250977e-07
0.013526941
-6.6834888e-07
0.013527104
-6.2134023e-07
0.013527257
-5.8526405e-07
0.013527399
-5.4103645e-07
0.013527533
-5.1516204e-07
0.013527658
-4.72221e-07
0.013527779
-4.5901899e-07
-4.1607463e-07
0.010188704
-0.00035427932
0.010530487
-0.00079057335
0.010851453
-0.0009189482
0.011124174
-0.00090167137
0.011350581
-0.00084262623
0.011524486
-0.00075768559
0.01164633
-0.00065662744
0.011724155
-0.00055365586
0.011767999
-0.00045977083
0.011786639
-0.00037975354
0.011787114
-0.00031409259
0.011775058
-0.00026140427
0.011754861
-0.00021969949
0.011729768
-0.00018689787
0.011702054
-0.00016105802
0.011673239
-0.00014051894
0.011644339
-0.00012399295
0.011616003
-0.00011047599
0.011588629
-9.9219868e-05
0.011562446
-8.9681405e-05
0.011537572
-8.1470673e-05
0.011514052
-7.4307852e-05
0.011491889
-6.7990502e-05
0.011471056
-6.2369993e-05
0.011451509
-5.7335016e-05
0.011433193
-5.2800185e-05
0.011416051
-4.8698265e-05
0.011400021
-4.4974953e-05
0.011385041
-4.158539e-05
0.011371051
-3.8491847e-05
0.01135799
-3.5662155e-05
0.011345801
-3.306861e-05
0.01133443
-3.0687171e-05
0.011323822
-2.8496849e-05
0.011313929
-2.6479241e-05
0.011304704
-2.4618147e-05
0.011296101
-2.2899248e-05
0.01128808
-2.1309851e-05
0.011280601
-1.9838665e-05
0.011273628
-1.847561e-05
0.011267125
-1.7211662e-05
0.011261062
-1.6038715e-05
0.011255408
-1.4949471e-05
0.011250135
-1.3937332e-05
0.011245218
-1.2996321e-05
0.011240632
-1.212101e-05
0.011236354
-1.1306458e-05
0.011232364
-1.0548157e-05
0.011228643
-9.8419786e-06
0.01122517
-9.1841364e-06
0.011221931
-8.5711467e-06
0.011218909
-7.9998024e-06
0.011216089
-7.4671505e-06
0.011213457
-6.9704653e-06
0.011211002
-6.507235e-06
0.01120871
-6.0751386e-06
0.011206572
-5.6720294e-06
0.011204576
-5.295923e-06
0.011202713
-4.9449772e-06
0.011200974
-4.6174785e-06
0.011199351
-4.3118297e-06
0.011197836
-4.0265415e-06
0.011196422
-3.7602327e-06
0.011195101
-3.5116127e-06
0.011193868
-3.2794867e-06
0.011192718
-3.062747e-06
0.011191643
-2.8603761e-06
0.01119064
-2.6714257e-06
0.011189703
-2.4950141e-06
0.011188829
-2.3303064e-06
0.011188012
-2.176523e-06
0.011187249
-2.0329092e-06
0.011186537
-1.8987874e-06
0.011185873
-1.7734973e-06
0.011185252
-1.656471e-06
0.011184672
-1.5471443e-06
0.01118413
-1.4450608e-06
0.011183625
-1.3497079e-06
0.011183152
-1.2607112e-06
0.011182711
-1.1775669e-06
0.0111823
-1.1000018e-06
0.011181915
-1.0274638e-06
0.011181556
-9.5980982e-07
0.01118122
-8.9644177e-07
0.011180907
-8.3743649e-07
0.011180614
-7.8196375e-07
0.011180341
-7.3056179e-07
0.011180086
-6.8219902e-07
0.011179847
-6.3766875e-07
0.011179624
-5.9502734e-07
0.011179416
-5.5653658e-07
0.011179223
-5.1915926e-07
0.01117904
-4.8629859e-07
0.011178872
-4.5279979e-07
0.011178712
-4.2542063e-07
0.011178566
-3.9517857e-07
0.011178425
-3.7415044e-07
0.0111783
-3.4705336e-07
0.011178177
-3.3599464e-07
-3.1069814e-07
0.010339525
-0.00069380425
0.010570754
-0.0010218027
0.010606301
-0.00095449448
0.010547572
-0.00084294333
0.010422317
-0.0007173708
0.010244356
-0.00057972444
0.010039421
-0.00045169205
0.0098287427
-0.00034297801
0.009625135
-0.00025616318
0.0094353013
-0.00018991983
0.0092624277
-0.00014121897
0.0091075332
-0.0001065098
0.008970154
-8.2320226e-05
0.0088489023
-6.5646249e-05
0.0087419716
-5.4127255e-05
0.0086474927
-4.6040044e-05
0.008563694
-4.0194286e-05
0.0084890108
-3.5792751e-05
0.0084221096
-3.2318757e-05
0.0083618775
-2.9449283e-05
0.0083073954
-2.698858e-05
0.0082579079
-2.4820304e-05
0.0082127929
-2.2875483e-05
0.0081715353
-2.1112419e-05
0.0081337049
-1.9504656e-05
0.0080989388
-1.8034017e-05
0.0080669272
-1.6686726e-05
0.0080374036
-1.5451364e-05
0.0080101361
-1.4317863e-05
0.0079849213
-1.3277072e-05
0.0079615798
-1.2320591e-05
0.0079399519
-1.1440719e-05
0.0079198951
-1.0630432e-05
0.0079012817
-9.8833633e-06
0.0078839962
-9.1937707e-06
0.0078679345
-8.5564977e-06
0.0078530022
-7.9669224e-06
0.0078391133
-7.4209081e-06
0.0078261894
-6.9147505e-06
0.0078141589
-6.4451266e-06
0.0078029563
-6.0090515e-06
0.0077925214
-5.6038384e-06
0.007782799
-5.2270619e-06
0.0077737382
-4.8765276e-06
0.0077652921
-4.5502447e-06
0.0077574175
-4.2464021e-06
0.0077500744
-3.9633481e-06
0.0077432258
-3.6995737e-06
0.0077368375
-3.453695e-06
0.0077308778
-3.2244367e-06
0.0077253173
-3.0106232e-06
0.0077201286
-2.8111705e-06
0.0077152866
-2.6250769e-06
0.0077107675
-2.451417e-06
0.0077065496
-2.2893376e-06
0.0077026126
-2.1380508e-06
0.0076989374
-1.9968246e-06
0.0076955064
-1.8649812e-06
0.0076923033
-1.7418922e-06
0.0076893128
-1.6269696e-06
0.0076865206
-1.5196624e-06
0.0076839135
-1.4194569e-06
0.0076814792
-1.325875e-06
0.007679206
-1.2384692e-06
0.0076770834
-1.1568266e-06
0.0076751012
-1.0805672e-06
0.0076732502
-1.0093386e-06
0.0076715216
-9.4281333e-07
0.0076699072
-8.8068758e-07
0.0076683996
-8.2266962e-07
0.0076669915
-7.6848684e-07
0.0076656765
-7.1787598e-07
0.0076644483
-6.7059679e-07
0.0076633012
-6.2641702e-07
0.0076622299
-5.8513967e-07
0.0076612294
-5.4656886e-07
0.0076602949
-5.105466e-07
0.007659422
-4.7689442e-07
0.0076586068
-4.4548558e-07
0.0076578453
-4.1613701e-07
0.0076571341
-3.8875507e-07
0.0076564698
-3.6314822e-07
0.0076558492
-3.3926399e-07
0.0076552697
-3.1687975e-07
0.0076547283
-2.9604359e-07
0.0076542229
-2.7645991e-07
0.0076537506
-2.5827265e-07
0.0076533094
-2.4117162e-07
0.0076528971
-2.254837e-07
0.0076525126
-2.1041785e-07
0.0076521529
-1.9666672e-07
0.0076518172
-1.8360882e-07
0.0076515028
-1.7205692e-07
0.0076512105
-1.6040655e-07
0.0076509355
-1.5028703e-07
0.0076506807
-1.4040335e-07
0.0076504386
-1.3208718e-07
0.0076502165
-1.2500259e-07
0.0076499999
-1.1933696e-07
-1.2571496e-07
0.0093061957
0.0082843931
0.0073298986
0.0064869553
0.0057695845
0.00518986
0.004738168
0.00439519
0.0041390268
0.003949107
0.003807888
0.0037013782
0.003619058
0.0035534117
0.0034992845
0.0034532444
0.0034130501
0.0033772574
0.0033449386
0.0033154893
0.0032885008
0.0032636805
0.003240805
0.0032196926
0.0032001879
0.0031821539
0.0031654672
0.0031500158
0.0031356979
0.0031224208
0.0031101003
0.0030986595
0.0030880291
0.0030781458
0.003068952
0.0030603955
0.0030524286
0.0030450076
0.0030380929
0.0030316478
0.0030256387
0.0030200349
0.0030148078
0.0030099313
0.0030053811
0.0030011347
0.0029971713
0.0029934717
0.002990018
0.0029867936
0.0029837829
0.0029809718
0.0029783467
0.0029758953
0.002973606
0.002971468
0.0029694711
0.0029676061
0.0029658642
0.0029642372
0.0029627175
0.0029612981
0.0029599722
0.0029587338
0.002957577
0.0029564965
0.0029554871
0.0029545443
0.0029536635
0.0029528408
0.0029520723
0.0029513545
0.0029506839
0.0029500575
0.0029494724
0.0029489259
0.0029484153
0.0029479384
0.0029474928
0.0029470767
0.0029466879
0.0029463248
0.0029459856
0.0029456687
0.0029453727
0.0029450963
0.002944838
0.0029445965
0.0029443711
0.002944161
0.0029439642
0.0029437802
0.0029436083
0.0029434482
0.002943298
0.0029431574
0.0029430253
0.0029429003
0.0029427809
)
;

boundaryField
{
    top
    {
        type            calculated;
        value           uniform 0;
    }
    inlet
    {
        type            calculated;
        value           nonuniform List<scalar> 10(-0.01 -0.01 -0.01 -0.01 -0.01 -0.01 -0.01 -0.01 -0.01 -0.01);
    }
    outlet
    {
        type            calculated;
        value           nonuniform List<scalar> 10(0.002942655 0.0076498148 0.011178072 0.01352789 0.014701568 0.014701568 0.01352789 0.011178072 0.0076498149 0.0029426552);
    }
    bottom
    {
        type            calculated;
        value           uniform 0;
    }
    back
    {
        type            empty;
        value           nonuniform 0();
    }
    front
    {
        type            empty;
        value           nonuniform 0();
    }
}


// ************************************************************************* //
