/*--------------------------------*- C++ -*----------------------------------*\
| =========                 |                                                 |
| \\      /  F ield         | OpenFOAM: The Open Source CFD Toolbox           |
|  \\    /   O peration     | Version:  v1812                                 |
|   \\  /    A nd           | Web:      www.OpenFOAM.com                      |
|    \\/     M anipulation  |                                                 |
\*---------------------------------------------------------------------------*/
FoamFile
{
    version     2.0;
    format      ascii;
    class       volVectorField;
    location    "16.2";
    object      U;
}
// * * * * * * * * * * * * * * * * * * * * * * * * * * * * * * * * * * * * * //

dimensions      [0 1 -1 0 0 0 0];


internalField   nonuniform List<vector> 
1000
(
(0.91890839 0.035821912 0)
(0.86271384 0.062195638 0)
(0.7870597 0.062510089 0)
(0.69536033 0.054550394 0)
(0.61089745 0.04453165 0)
(0.54411592 0.034015971 0)
(0.49343012 0.02418754 0)
(0.45479414 0.01614423 0)
(0.42544583 0.010265786 0)
(0.40347313 0.0063041453 0)
(0.38715767 0.0037976293 0)
(0.3749622 0.0023103382 0)
(0.36566193 0.001493015 0)
(0.35836272 0.0010851183 0)
(0.35244268 0.00090607199 0)
(0.34748201 0.00084105105 0)
(0.34320348 0.00082372348 0)
(0.33942726 0.00081930992 0)
(0.33603793 0.00081185203 0)
(0.33296114 0.00079580164 0)
(0.33014778 0.00077081235 0)
(0.32756384 0.00073871037 0)
(0.3251842 0.00070188994 0)
(0.32298902 0.00066256583 0)
(0.32096172 0.00062249924 0)
(0.31908785 0.0005829566 0)
(0.31735449 0.00054477078 0)
(0.31574995 0.00050843343 0)
(0.3142636 0.00047419149 0)
(0.31288574 0.00044212486 0)
(0.31160755 0.00041221025 0)
(0.31042101 0.00038436261 0)
(0.30931883 0.00035846585 0)
(0.30829438 0.00033439082 0)
(0.30734165 0.00031200654 0)
(0.30645515 0.00029118683 0)
(0.30562991 0.000271813 0)
(0.30486136 0.00025377551 0)
(0.30414535 0.00023697364 0)
(0.30347807 0.00022131474 0)
(0.30285601 0.00020671501 0)
(0.30227596 0.0001930968 0)
(0.30173496 0.00018039004 0)
(0.30123029 0.00016852996 0)
(0.30075942 0.00015745733 0)
(0.30032002 0.00014711827 0)
(0.29990993 0.00013746233 0)
(0.29952715 0.00012844405 0)
(0.29916983 0.00012002049 0)
(0.29883624 0.00011215134 0)
(0.29852478 0.00010480008 0)
(0.29823397 9.7931152e-05 0)
(0.29796241 9.1512425e-05 0)
(0.29770882 8.5513699e-05 0)
(0.29747201 7.9906501e-05 0)
(0.29725084 7.4665982e-05 0)
(0.29704429 6.9767583e-05 0)
(0.29685137 6.5190807e-05 0)
(0.2966712 6.091473e-05 0)
(0.29650291 5.691977e-05 0)
(0.29634572 5.3187684e-05 0)
(0.2961989 4.9700035e-05 0)
(0.29606176 4.6440413e-05 0)
(0.29593366 4.3392891e-05 0)
(0.295814 4.0542947e-05 0)
(0.29570223 3.7878455e-05 0)
(0.29559783 3.5387604e-05 0)
(0.29550031 3.3060303e-05 0)
(0.29540922 3.0887947e-05 0)
(0.29532413 2.8859673e-05 0)
(0.29524465 2.6966777e-05 0)
(0.2951704 2.5198745e-05 0)
(0.29510104 2.3545431e-05 0)
(0.29503625 2.1998345e-05 0)
(0.29497572 2.054991e-05 0)
(0.29491918 1.9194147e-05 0)
(0.29486637 1.7927516e-05 0)
(0.29481705 1.6744372e-05 0)
(0.29477097 1.5643041e-05 0)
(0.29472793 1.4616396e-05 0)
(0.29468773 1.3660573e-05 0)
(0.29465016 1.2766831e-05 0)
(0.29461507 1.1930741e-05 0)
(0.29458229 1.1144736e-05 0)
(0.29455167 1.0407861e-05 0)
(0.29452308 9.7133153e-06 0)
(0.29449636 9.0725902e-06 0)
(0.29447142 8.470356e-06 0)
(0.2944481 7.9182898e-06 0)
(0.29442633 7.3969294e-06 0)
(0.29440598 6.926112e-06 0)
(0.294387 6.4727029e-06 0)
(0.2943692 6.0618695e-06 0)
(0.29435259 5.6504814e-06 0)
(0.29433714 5.289223e-06 0)
(0.29432249 4.9686669e-06 0)
(0.29430918 4.6878654e-06 0)
(0.29429569 4.5388912e-06 0)
(0.29428502 4.4055909e-06 0)
(0.29426874 5.0574786e-06 0)
(1.0016583 0.05381943 0)
(1.0359761 0.10128443 0)
(1.0597199 0.11073663 0)
(1.0628947 0.10592201 0)
(1.0515569 0.096228725 0)
(1.0340529 0.083934059 0)
(1.0142795 0.070327062 0)
(0.99360703 0.056981334 0)
(0.97292577 0.045107479 0)
(0.9531074 0.03523675 0)
(0.93479539 0.02740165 0)
(0.91829012 0.021387227 0)
(0.90362379 0.016884499 0)
(0.89068068 0.013569709 0)
(0.87928175 0.011147748 0)
(0.86923242 0.0093736578 0)
(0.86034424 0.0080569271 0)
(0.85244667 0.0070571264 0)
(0.84539242 0.0062752378 0)
(0.83905793 0.0056438285 0)
(0.83334127 0.0051180916 0)
(0.82815884 0.0046686731 0)
(0.82344213 0.0042764179 0)
(0.81913467 0.0039287389 0)
(0.81518962 0.0036172031 0)
(0.81156765 0.0033359694 0)
(0.80823544 0.0030808029 0)
(0.8051644 0.0028484679 0)
(0.80232979 0.0026363688 0)
(0.79970999 0.0024423385 0)
(0.79728597 0.0022645194 0)
(0.79504086 0.0021012909 0)
(0.79295963 0.0019512266 0)
(0.7910288 0.0018130641 0)
(0.78923627 0.0016856841 0)
(0.7875711 0.0015680922 0)
(0.78602338 0.0014594046 0)
(0.78458411 0.0013588342 0)
(0.78324511 0.0012656791 0)
(0.78199889 0.0011793109 0)
(0.7808386 0.0010991673 0)
(0.77975799 0.0010247423 0)
(0.77875128 0.00095558028 0)
(0.77781318 0.00089126985 0)
(0.77693881 0.00083143803 0)
(0.77612368 0.00077574673 0)
(0.77536362 0.00072388783 0)
(0.77465481 0.00067558038 0)
(0.77399367 0.00063056706 0)
(0.77337693 0.000588611 0)
(0.77280153 0.00054949482 0)
(0.77226464 0.00051301743 0)
(0.77176363 0.00047899308 0)
(0.77129606 0.00044725065 0)
(0.77085967 0.00041763119 0)
(0.77045234 0.00038998932 0)
(0.77007212 0.0003641899 0)
(0.76971717 0.00034010945 0)
(0.76938581 0.00031763251 0)
(0.76907644 0.00029665107 0)
(0.7687876 0.00027706439 0)
(0.76851791 0.00025877767 0)
(0.7682661 0.00024170221 0)
(0.76803096 0.00022575566 0)
(0.76781139 0.00021086129 0)
(0.76760635 0.00019694919 0)
(0.76741488 0.00018395496 0)
(0.76723608 0.00017181925 0)
(0.7670691 0.0001604879 0)
(0.76691315 0.00014990807 0)
(0.76676752 0.00014003061 0)
(0.7666315 0.00013080677 0)
(0.76650447 0.00012219092 0)
(0.76638582 0.00011413971 0)
(0.76627501 0.00010661542 0)
(0.76617152 9.9582155e-05 0)
(0.76607486 9.3012257e-05 0)
(0.76598458 8.6874727e-05 0)
(0.76590026 8.1148705e-05 0)
(0.76582151 7.5802631e-05 0)
(0.76574794 7.0817763e-05 0)
(0.76567924 6.6157636e-05 0)
(0.76561504 6.1808857e-05 0)
(0.76555512 5.7732601e-05 0)
(0.7654991 5.393042e-05 0)
(0.76544684 5.0355269e-05 0)
(0.76539796 4.7038162e-05 0)
(0.76535239 4.3921391e-05 0)
(0.7653097 4.1053714e-05 0)
(0.76526997 3.8323371e-05 0)
(0.76523272 3.5844661e-05 0)
(0.76519804 3.3463877e-05 0)
(0.76516555 3.1332041e-05 0)
(0.76513516 2.9189341e-05 0)
(0.76510713 2.7363995e-05 0)
(0.76507998 2.5517523e-05 0)
(0.76505663 2.4071735e-05 0)
(0.76503057 2.2555112e-05 0)
(0.76501446 2.1597259e-05 0)
(0.76498346 2.0993476e-05 0)
(1.0014244 0.026824854 0)
(1.0291272 0.06279135 0)
(1.0654292 0.077736549 0)
(1.098962 0.080597196 0)
(1.1253149 0.078285167 0)
(1.145053 0.073153897 0)
(1.1594858 0.066111277 0)
(1.1694287 0.058162063 0)
(1.1755354 0.050296754 0)
(1.1785738 0.043150707 0)
(1.1793571 0.036972824 0)
(1.178595 0.031771631 0)
(1.1768304 0.027451838 0)
(1.1744518 0.023886766 0)
(1.1717287 0.020947618 0)
(1.1688444 0.018515779 0)
(1.1659195 0.016488084 0)
(1.1630317 0.014779502 0)
(1.1602295 0.013322984 0)
(1.1575415 0.012067132 0)
(1.1549828 0.010973 0)
(1.1525601 0.010011061 0)
(1.1502747 0.0091587462 0)
(1.1481246 0.0083986036 0)
(1.1461059 0.0077169499 0)
(1.1442134 0.0071028877 0)
(1.1424414 0.0065475916 0)
(1.1407838 0.0060437954 0)
(1.1392344 0.0055854264 0)
(1.1377869 0.0051673452 0)
(1.1364353 0.0047851578 0)
(1.1351738 0.0044350771 0)
(1.1339968 0.0041138175 0)
(1.1328987 0.0038185134 0)
(1.1318746 0.0035466532 0)
(1.1309195 0.0032960268 0)
(1.1300289 0.0030646826 0)
(1.1291985 0.00285089 0)
(1.1284242 0.0026531099 0)
(1.1277022 0.0024699684 0)
(1.1270291 0.0023002359 0)
(1.1264014 0.0021428077 0)
(1.1258161 0.001996689 0)
(1.1252702 0.0018609815 0)
(1.1247612 0.0017348716 0)
(1.1242865 0.0016176209 0)
(1.1238437 0.0015085572 0)
(1.1234307 0.0014070674 0)
(1.1230455 0.0013125909 0)
(1.1226861 0.0012246136 0)
(1.1223509 0.001142664 0)
(1.1220381 0.001066308 0)
(1.1217462 0.00099514587 0)
(1.1214739 0.00092880926 0)
(1.1212198 0.00086695838 0)
(1.1209827 0.00080927984 0)
(1.1207614 0.00075548448 0)
(1.1205548 0.00070530479 0)
(1.1203621 0.00065849239 0)
(1.1201821 0.00061481632 0)
(1.1200142 0.00057406208 0)
(1.1198574 0.00053602967 0)
(1.1197111 0.00050053325 0)
(1.1195745 0.00046739999 0)
(1.1194469 0.00043647012 0)
(1.1193278 0.00040759529 0)
(1.1192167 0.00038063858 0)
(1.1191129 0.00035547266 0)
(1.119016 0.00033197921 0)
(1.1189255 0.00031004618 0)
(1.118841 0.00028956961 0)
(1.1187621 0.00027044925 0)
(1.1186884 0.00025259417 0)
(1.1186197 0.00023591669 0)
(1.1185554 0.00022034086 0)
(1.1184954 0.00020579102 0)
(1.1184394 0.00019220557 0)
(1.1183871 0.00017951686 0)
(1.1183382 0.00016767556 0)
(1.1182926 0.00015661414 0)
(1.11825 0.00014629456 0)
(1.1182103 0.00013664362 0)
(1.118173 0.00012764311 0)
(1.1181384 0.00011921024 0)
(1.1181059 0.0001113586 0)
(1.1180757 0.00010398381 0)
(1.1180473 9.7151905e-05 0)
(1.1180211 9.0703648e-05 0)
(1.1179963 8.4786186e-05 0)
(1.1179734 7.9129551e-05 0)
(1.1179516 7.4028641e-05 0)
(1.1179318 6.9017841e-05 0)
(1.1179128 6.4662486e-05 0)
(1.1178955 6.0141694e-05 0)
(1.117879 5.6560233e-05 0)
(1.1178635 5.2423464e-05 0)
(1.11785 4.9743696e-05 0)
(1.1178349 4.5807268e-05 0)
(1.1178261 4.4319796e-05 0)
(1.1178083 4.057587e-05 0)
(1.0007347 0.011814721 0)
(1.0178472 0.030860924 0)
(1.0462163 0.041434438 0)
(1.0799018 0.045193566 0)
(1.1132664 0.045502348 0)
(1.143782 0.044080305 0)
(1.1708941 0.04143998 0)
(1.1945687 0.037973676 0)
(1.2148582 0.034195728 0)
(1.2319652 0.030536886 0)
(1.2462683 0.027222043 0)
(1.2582339 0.024313918 0)
(1.2683135 0.021797886 0)
(1.2768875 0.019633657 0)
(1.2842554 0.017773824 0)
(1.2906479 0.01616965 0)
(1.296243 0.014775589 0)
(1.3011791 0.013552297 0)
(1.3055645 0.012467863 0)
(1.3094838 0.011497465 0)
(1.3130042 0.01062216 0)
(1.3161792 0.0098275114 0)
(1.3190526 0.009102409 0)
(1.3216607 0.008438175 0)
(1.3240343 0.0078279027 0)
(1.3261995 0.007265974 0)
(1.3281786 0.006747709 0)
(1.3299913 0.0062691175 0)
(1.3316544 0.0058267284 0)
(1.3331829 0.0054174743 0)
(1.3345896 0.005038613 0)
(1.3358862 0.0046876742 0)
(1.3370827 0.0043624196 0)
(1.3381882 0.0040608143 0)
(1.3392108 0.0037810038 0)
(1.3401576 0.0035212946 0)
(1.3410349 0.0032801384 0)
(1.3418486 0.0030561179 0)
(1.3426038 0.0028479347 0)
(1.3433051 0.0026543985 0)
(1.3439569 0.0024744169 0)
(1.3445629 0.0023069869 0)
(1.3451267 0.0021511862 0)
(1.3456513 0.0020061668 0)
(1.3461398 0.0018711475 0)
(1.3465947 0.0017454089 0)
(1.3470185 0.001628287 0)
(1.3474135 0.0015191687 0)
(1.3477816 0.0014174876 0)
(1.3481249 0.0013227198 0)
(1.3484449 0.0012343805 0)
(1.3487435 0.0011520206 0)
(1.349022 0.0010752241 0)
(1.3492818 0.0010036056 0)
(1.3495242 0.00093680787 0)
(1.3497505 0.00087450029 0)
(1.3499616 0.00081637565 0)
(1.3501587 0.0007621485 0)
(1.3503427 0.00071155295 0)
(1.3505145 0.00066434158 0)
(1.3506748 0.00062028429 0)
(1.3508245 0.00057916668 0)
(1.3509643 0.00054078981 0)
(1.3510948 0.00050496831 0)
(1.3512167 0.00047153059 0)
(1.3513305 0.0004403169 0)
(1.3514368 0.00041117915 0)
(1.3515361 0.00038397841 0)
(1.3516288 0.00035858598 0)
(1.3517153 0.00033487965 0)
(1.3517962 0.0003127465 0)
(1.3518717 0.00029207879 0)
(1.3519422 0.00027277977 0)
(1.3520081 0.00025475551 0)
(1.3520696 0.00023792577 0)
(1.3521271 0.0002222077 0)
(1.3521807 0.00020753492 0)
(1.3522309 0.00019383064 0)
(1.3522777 0.00018104192 0)
(1.3523215 0.00016909123 0)
(1.3523623 0.00015794153 0)
(1.3524005 0.00014751026 0)
(1.352436 0.00013778797 0)
(1.3524695 0.00012867361 0)
(1.3525004 0.0001202026 0)
(1.3525296 0.00011223953 0)
(1.3525564 0.0001048819 0)
(1.3525823 9.7898015e-05 0)
(1.3526054 9.153103e-05 0)
(1.3526281 8.5399975e-05 0)
(1.3526479 7.9932731e-05 0)
(1.3526685 7.4427511e-05 0)
(1.352685 6.9804304e-05 0)
(1.3527036 6.4833062e-05 0)
(1.3527169 6.1122904e-05 0)
(1.352735 5.6437005e-05 0)
(1.3527447 5.3737833e-05 0)
(1.3527628 4.914149e-05 0)
(1.3527683 4.7702444e-05 0)
(1.3527889 4.2957302e-05 0)
(1.0005903 0.0034629152 0)
(1.0136865 0.009366018 0)
(1.0370283 0.013046804 0)
(1.0674202 0.014563259 0)
(1.1000315 0.014854523 0)
(1.1316428 0.014564989 0)
(1.1610745 0.013888337 0)
(1.1880674 0.012919244 0)
(1.2125205 0.011806505 0)
(1.2343939 0.010696425 0)
(1.2538077 0.0096727405 0)
(1.2710339 0.0087628201 0)
(1.286401 0.0079659715 0)
(1.3002111 0.0072722127 0)
(1.3127102 0.006668807 0)
(1.3240903 0.0061419241 0)
(1.3345036 0.0056780713 0)
(1.3440716 0.0052653203 0)
(1.3528927 0.0048939344 0)
(1.3610463 0.0045563947 0)
(1.3685975 0.0042470682 0)
(1.3756004 0.0039617739 0)
(1.3821012 0.0036973955 0)
(1.3881402 0.0034515807 0)
(1.3937533 0.0032225173 0)
(1.3989728 0.0030087693 0)
(1.403828 0.002809158 0)
(1.4083456 0.0026226796 0)
(1.4125503 0.0024484503 0)
(1.4164646 0.0022856714 0)
(1.4201094 0.0021336079 0)
(1.423504 0.0019915764 0)
(1.426666 0.0018589362 0)
(1.4296121 0.0017350855 0)
(1.4323573 0.0016194582 0)
(1.4349159 0.0015115213 0)
(1.4373007 0.0014107733 0)
(1.4395241 0.0013167428 0)
(1.441597 0.0012289874 0)
(1.4435301 0.0011470919 0)
(1.4453328 0.0010706676 0)
(1.4470143 0.00099935065 0)
(1.4485827 0.00093280068 0)
(1.4500459 0.00087069953 0)
(1.451411 0.00081274998 0)
(1.4526846 0.00075867435 0)
(1.4538731 0.00070821323 0)
(1.4549822 0.00066112419 0)
(1.4560172 0.00061718109 0)
(1.4569831 0.0005761728 0)
(1.4578847 0.00053790182 0)
(1.4587262 0.00050218433 0)
(1.4595117 0.00046884874 0)
(1.460245 0.00043773531 0)
(1.4609295 0.00040869545 0)
(1.4615685 0.00038159091 0)
(1.4621651 0.0003562925 0)
(1.4627221 0.00033267895 0)
(1.4632422 0.00031063724 0)
(1.4637278 0.0002900617 0)
(1.4641812 0.00027085345 0)
(1.4646045 0.00025292095 0)
(1.4649998 0.00023617895 0)
(1.4653689 0.00022054822 0)
(1.4657136 0.000205955 0)
(1.4660355 0.0001923307 0)
(1.4663361 0.00017961141 0)
(1.4666168 0.00016773658 0)
(1.466879 0.00015664998 0)
(1.4671238 0.00014629815 0)
(1.4673524 0.00013663142 0)
(1.467566 0.00012760303 0)
(1.4677654 0.00011917151 0)
(1.4679516 0.00011129657 0)
(1.4681256 0.00010394396 0)
(1.468288 9.7077941e-05 0)
(1.4684397 9.0669951e-05 0)
(1.4685815 8.4684917e-05 0)
(1.4687138 7.90998e-05 0)
(1.4688375 7.3878169e-05 0)
(1.4689529 6.9005539e-05 0)
(1.4690609 6.4444871e-05 0)
(1.4691613 6.0196055e-05 0)
(1.4692556 5.6210172e-05 0)
(1.4693434 5.2513084e-05 0)
(1.4694257 4.9035752e-05 0)
(1.4695018 4.5826186e-05 0)
(1.4695741 4.2767815e-05 0)
(1.4696403 3.999883e-05 0)
(1.4697038 3.7312567e-05 0)
(1.4697604 3.492439e-05 0)
(1.4698173 3.2491185e-05 0)
(1.4698655 3.0496712e-05 0)
(1.4699166 2.831133e-05 0)
(1.4699558 2.6727402e-05 0)
(1.4700046 2.4635571e-05 0)
(1.4700342 2.3487259e-05 0)
(1.4700831 2.1420435e-05 0)
(1.4701 2.080937e-05 0)
(1.4701556 1.864903e-05 0)
(1.0005903 -0.0034629162 0)
(1.0136865 -0.0093660206 0)
(1.0370283 -0.013046807 0)
(1.0674202 -0.014563262 0)
(1.1000315 -0.014854525 0)
(1.1316428 -0.014564991 0)
(1.1610745 -0.013888338 0)
(1.1880674 -0.012919246 0)
(1.2125205 -0.011806507 0)
(1.2343939 -0.010696428 0)
(1.2538077 -0.0096727436 0)
(1.2710339 -0.0087628234 0)
(1.286401 -0.0079659747 0)
(1.3002111 -0.0072722154 0)
(1.3127102 -0.0066688092 0)
(1.3240903 -0.006141926 0)
(1.3345036 -0.0056780729 0)
(1.3440716 -0.0052653216 0)
(1.3528927 -0.0048939356 0)
(1.3610463 -0.0045563965 0)
(1.3685975 -0.0042470708 0)
(1.3756004 -0.0039617771 0)
(1.3821012 -0.003697399 0)
(1.3881402 -0.0034515838 0)
(1.3937533 -0.0032225196 0)
(1.3989728 -0.0030087705 0)
(1.403828 -0.0028091582 0)
(1.4083456 -0.0026226791 0)
(1.4125503 -0.0024484491 0)
(1.4164646 -0.0022856699 0)
(1.4201094 -0.0021336067 0)
(1.423504 -0.0019915756 0)
(1.426666 -0.001858936 0)
(1.4296121 -0.0017350861 0)
(1.4323573 -0.0016194592 0)
(1.4349159 -0.001511522 0)
(1.4373007 -0.0014107732 0)
(1.4395241 -0.0013167418 0)
(1.441597 -0.0012289854 0)
(1.4435301 -0.0011470894 0)
(1.4453328 -0.0010706652 0)
(1.4470143 -0.00099934894 0)
(1.4485827 -0.00093280003 0)
(1.4500459 -0.00087070007 0)
(1.451411 -0.00081275143 0)
(1.4526846 -0.00075867615 0)
(1.4538731 -0.00070821466 0)
(1.4549822 -0.00066112474 0)
(1.4560172 -0.00061718019 0)
(1.4569831 -0.00057617016 0)
(1.4578847 -0.00053789824 0)
(1.4587262 -0.00050218091 0)
(1.4595117 -0.00046884661 0)
(1.460245 -0.0004377353 0)
(1.4609295 -0.00040869747 0)
(1.4615685 -0.00038159378 0)
(1.4621651 -0.00035629451 0)
(1.4627221 -0.00033267922 0)
(1.4632422 -0.00031063525 0)
(1.4637278 -0.00029005766 0)
(1.4641812 -0.00027084884 0)
(1.4646045 -0.00025291739 0)
(1.4649998 -0.00023617753 0)
(1.4653689 -0.00022054915 0)
(1.4657136 -0.00020595802 0)
(1.4660355 -0.00019233448 0)
(1.4663361 -0.00017961397 0)
(1.4666168 -0.00016773656 0)
(1.466879 -0.00015664678 0)
(1.4671238 -0.00014629229 0)
(1.4673524 -0.00013662514 0)
(1.467566 -0.00012759869 0)
(1.4677654 -0.00011917074 0)
(1.4679516 -0.00011129963 0)
(1.4681256 -0.00010394969 0)
(1.468288 -9.7083502e-05 0)
(1.4684397 -9.0672187e-05 0)
(1.4685815 -8.468241e-05 0)
(1.4687138 -7.9093089e-05 0)
(1.4688375 -7.3870507e-05 0)
(1.4689529 -6.9000701e-05 0)
(1.4690609 -6.4444263e-05 0)
(1.4691614 -6.0199947e-05 0)
(1.4692556 -5.6218271e-05 0)
(1.4693434 -5.2518426e-05 0)
(1.4694257 -4.9034637e-05 0)
(1.4695018 -4.5823149e-05 0)
(1.4695741 -4.2764096e-05 0)
(1.4696403 -3.998468e-05 0)
(1.4697038 -3.7296821e-05 0)
(1.4697604 -3.4932599e-05 0)
(1.4698173 -3.2518006e-05 0)
(1.4698655 -3.0511198e-05 0)
(1.4699165 -2.8298163e-05 0)
(1.4699558 -2.6705925e-05 0)
(1.4700046 -2.4629658e-05 0)
(1.4700342 -2.3492525e-05 0)
(1.4700831 -2.1428123e-05 0)
(1.4701 -2.0823811e-05 0)
(1.4701556 -1.8663246e-05 0)
(1.0007347 -0.011814722 0)
(1.0178472 -0.030860927 0)
(1.0462163 -0.041434442 0)
(1.0799018 -0.04519357 0)
(1.1132664 -0.045502351 0)
(1.143782 -0.044080308 0)
(1.1708941 -0.041439982 0)
(1.1945687 -0.037973678 0)
(1.2148582 -0.03419573 0)
(1.2319652 -0.030536888 0)
(1.2462683 -0.027222046 0)
(1.2582339 -0.024313921 0)
(1.2683135 -0.021797889 0)
(1.2768875 -0.01963366 0)
(1.2842554 -0.017773826 0)
(1.2906479 -0.016169652 0)
(1.296243 -0.01477559 0)
(1.3011791 -0.013552298 0)
(1.3055645 -0.012467864 0)
(1.3094838 -0.011497466 0)
(1.3130042 -0.010622162 0)
(1.3161792 -0.0098275137 0)
(1.3190526 -0.0091024115 0)
(1.3216607 -0.0084381772 0)
(1.3240343 -0.0078279043 0)
(1.3261995 -0.0072659748 0)
(1.3281786 -0.006747709 0)
(1.3299913 -0.0062691168 0)
(1.3316544 -0.0058267273 0)
(1.3331829 -0.005417473 0)
(1.3345896 -0.005038612 0)
(1.3358862 -0.0046876735 0)
(1.3370827 -0.0043624194 0)
(1.3381882 -0.0040608147 0)
(1.3392108 -0.0037810044 0)
(1.3401576 -0.0035212951 0)
(1.3410349 -0.0032801383 0)
(1.3418486 -0.0030561171 0)
(1.3426038 -0.0028479333 0)
(1.3433051 -0.0026543967 0)
(1.3439569 -0.0024744151 0)
(1.3445629 -0.0023069854 0)
(1.3451267 -0.0021511856 0)
(1.3456513 -0.0020061671 0)
(1.3461398 -0.0018711486 0)
(1.3465947 -0.0017454104 0)
(1.3470185 -0.0016282883 0)
(1.3474135 -0.0015191691 0)
(1.3477816 -0.0014174868 0)
(1.3481249 -0.0013227179 0)
(1.3484449 -0.001234378 0)
(1.3487435 -0.0011520182 0)
(1.349022 -0.0010752225 0)
(1.3492818 -0.0010036053 0)
(1.3495242 -0.00093680902 0)
(1.3497505 -0.00087450214 0)
(1.3499616 -0.00081637741 0)
(1.3501587 -0.00076214918 0)
(1.3503427 -0.00071155205 0)
(1.3505145 -0.00066433914 0)
(1.3506748 -0.00062028095 0)
(1.3508245 -0.00057916355 0)
(1.3509643 -0.00054078786 0)
(1.3510948 -0.00050496828 0)
(1.3512167 -0.00047153242 0)
(1.3513305 -0.00044031977 0)
(1.3514368 -0.00041118174 0)
(1.3515361 -0.00038397946 0)
(1.3516288 -0.00035858477 0)
(1.3517153 -0.00033487638 0)
(1.3517962 -0.00031274235 0)
(1.3518717 -0.00029207531 0)
(1.3519422 -0.00027277822 0)
(1.3520081 -0.00025475672 0)
(1.3520696 -0.00023792889 0)
(1.3521271 -0.00022221134 0)
(1.3521807 -0.00020753756 0)
(1.3522309 -0.00019383093 0)
(1.3522777 -0.00018103975 0)
(1.3523215 -0.00016908753 0)
(1.3523623 -0.0001579379 0)
(1.3524005 -0.00014750805 0)
(1.352436 -0.00013778819 0)
(1.3524695 -0.00012867599 0)
(1.3525004 -0.00012020646 0)
(1.3525297 -0.00011224239 0)
(1.3525565 -0.00010488208 0)
(1.3525822 -9.7895008e-05 0)
(1.3526054 -9.1527696e-05 0)
(1.3526281 -8.5396836e-05 0)
(1.3526479 -7.9930915e-05 0)
(1.3526684 -7.442992e-05 0)
(1.352685 -6.9805148e-05 0)
(1.3527036 -6.4828607e-05 0)
(1.352717 -6.1121824e-05 0)
(1.3527349 -5.6444612e-05 0)
(1.3527447 -5.3744212e-05 0)
(1.3527628 -4.9142967e-05 0)
(1.3527683 -4.7706052e-05 0)
(1.3527888 -4.29606e-05 0)
(1.0014244 -0.026824855 0)
(1.0291272 -0.062791352 0)
(1.0654292 -0.077736552 0)
(1.098962 -0.0805972 0)
(1.1253149 -0.07828517 0)
(1.145053 -0.073153899 0)
(1.1594858 -0.066111278 0)
(1.1694287 -0.058162063 0)
(1.1755354 -0.050296754 0)
(1.1785738 -0.043150708 0)
(1.1793571 -0.036972825 0)
(1.1785949 -0.031771633 0)
(1.1768304 -0.02745184 0)
(1.1744518 -0.023886768 0)
(1.1717287 -0.02094762 0)
(1.1688444 -0.01851578 0)
(1.1659195 -0.016488084 0)
(1.1630317 -0.014779502 0)
(1.1602295 -0.013322985 0)
(1.1575415 -0.012067133 0)
(1.1549828 -0.010973001 0)
(1.1525601 -0.010011062 0)
(1.1502747 -0.0091587473 0)
(1.1481246 -0.0083986045 0)
(1.1461059 -0.0077169506 0)
(1.1442134 -0.007102888 0)
(1.1424414 -0.0065475915 0)
(1.1407838 -0.0060437948 0)
(1.1392344 -0.0055854256 0)
(1.1377869 -0.0051673444 0)
(1.1364353 -0.004785157 0)
(1.1351738 -0.0044350764 0)
(1.1339968 -0.0041138172 0)
(1.1328987 -0.0038185132 0)
(1.1318746 -0.0035466531 0)
(1.1309195 -0.003296027 0)
(1.1300289 -0.0030646828 0)
(1.1291985 -0.00285089 0)
(1.1284242 -0.0026531095 0)
(1.1277022 -0.0024699678 0)
(1.1270291 -0.0023002349 0)
(1.1264014 -0.0021428066 0)
(1.1258161 -0.0019966882 0)
(1.1252702 -0.0018609812 0)
(1.1247612 -0.001734872 0)
(1.1242865 -0.0016176217 0)
(1.1238437 -0.0015085581 0)
(1.1234307 -0.0014070679 0)
(1.1230455 -0.0013125908 0)
(1.1226861 -0.0012246132 0)
(1.1223509 -0.0011426631 0)
(1.1220381 -0.0010663068 0)
(1.1217462 -0.00099514467 0)
(1.1214739 -0.00092880827 0)
(1.1212198 -0.00086695792 0)
(1.1209827 -0.00080928032 0)
(1.1207614 -0.00075548595 0)
(1.1205548 -0.00070530639 0)
(1.1203621 -0.00065849331 0)
(1.1201821 -0.00061481631 0)
(1.1200142 -0.00057406085 0)
(1.1198574 -0.00053602742 0)
(1.1197111 -0.0005005308 0)
(1.1195745 -0.00046739842 0)
(1.1194469 -0.00043646979 0)
(1.1193278 -0.00040759621 0)
(1.1192167 -0.00038064061 0)
(1.1191129 -0.00035547488 0)
(1.119016 -0.00033198078 0)
(1.1189255 -0.00031004675 0)
(1.118841 -0.00028956857 0)
(1.1187621 -0.00027044687 0)
(1.1186884 -0.00025259133 0)
(1.1186197 -0.00023591443 0)
(1.1185554 -0.00022033998 0)
(1.1184954 -0.00020579208 0)
(1.1184394 -0.00019220886 0)
(1.1183871 -0.0001795212 0)
(1.1183383 -0.00016767926 0)
(1.1182927 -0.00015661537 0)
(1.11825 -0.00014629242 0)
(1.1182103 -0.00013663916 0)
(1.118173 -0.00012763785 0)
(1.1181384 -0.0001192059 0)
(1.1181059 -0.00011135927 0)
(1.1180757 -0.00010398914 0)
(1.1180473 -9.7156161e-05 0)
(1.1180211 -9.0705168e-05 0)
(1.1179963 -8.4791789e-05 0)
(1.1179734 -7.9137798e-05 0)
(1.1179516 -7.4020016e-05 0)
(1.1179318 -6.8990117e-05 0)
(1.1179128 -6.4647376e-05 0)
(1.1178955 -6.0157513e-05 0)
(1.117879 -5.6584521e-05 0)
(1.1178635 -5.2431424e-05 0)
(1.11785 -4.9737204e-05 0)
(1.1178349 -4.5800698e-05 0)
(1.1178261 -4.4314029e-05 0)
(1.1178083 -4.0569923e-05 0)
(1.0016583 -0.05381943 0)
(1.0359761 -0.10128444 0)
(1.0597199 -0.11073663 0)
(1.0628947 -0.10592202 0)
(1.0515569 -0.096228728 0)
(1.0340529 -0.083934061 0)
(1.0142795 -0.070327063 0)
(0.99360703 -0.056981334 0)
(0.97292577 -0.045107479 0)
(0.9531074 -0.03523675 0)
(0.93479538 -0.02740165 0)
(0.91829012 -0.021387228 0)
(0.90362379 -0.0168845 0)
(0.89068067 -0.01356971 0)
(0.87928174 -0.011147749 0)
(0.86923242 -0.0093736586 0)
(0.86034423 -0.0080569274 0)
(0.85244667 -0.0070571267 0)
(0.84539241 -0.006275238 0)
(0.83905793 -0.0056438287 0)
(0.83334126 -0.0051180914 0)
(0.82815884 -0.0046686728 0)
(0.82344212 -0.0042764176 0)
(0.81913467 -0.0039287387 0)
(0.81518961 -0.0036172031 0)
(0.81156765 -0.0033359698 0)
(0.80823544 -0.0030808032 0)
(0.8051644 -0.0028484681 0)
(0.80232979 -0.0026363687 0)
(0.79970999 -0.0024423383 0)
(0.79728597 -0.0022645189 0)
(0.79504086 -0.0021012902 0)
(0.79295963 -0.0019512257 0)
(0.7910288 -0.0018130632 0)
(0.78923627 -0.0016856835 0)
(0.7875711 -0.0015680922 0)
(0.78602338 -0.0014594053 0)
(0.78458412 -0.0013588352 0)
(0.78324511 -0.0012656799 0)
(0.78199889 -0.0011793114 0)
(0.78083861 -0.0010991671 0)
(0.77975799 -0.0010247414 0)
(0.77875128 -0.00095557907 0)
(0.77781318 -0.00089126857 0)
(0.77693881 -0.00083143723 0)
(0.77612368 -0.00077574658 0)
(0.77536362 -0.0007238884 0)
(0.77465481 -0.00067558145 0)
(0.77399368 -0.00063056834 0)
(0.77337694 -0.00058861241 0)
(0.77280153 -0.00054949566 0)
(0.77226464 -0.00051301722 0)
(0.77176363 -0.00047899181 0)
(0.77129606 -0.00044724828 0)
(0.77085967 -0.00041762888 0)
(0.77045234 -0.00038998802 0)
(0.77007212 -0.00036419067 0)
(0.76971717 -0.00034011176 0)
(0.76938581 -0.00031763548 0)
(0.76907645 -0.00029665382 0)
(0.7687876 -0.00027706571 0)
(0.76851791 -0.00025877686 0)
(0.7682661 -0.00024169964 0)
(0.76803096 -0.000225752 0)
(0.76781139 -0.00021085791 0)
(0.76760635 -0.00019694728 0)
(0.76741489 -0.00018395556 0)
(0.76723608 -0.00017182262 0)
(0.7670691 -0.00016049283 0)
(0.76691316 -0.00014991302 0)
(0.76676752 -0.00014003338 0)
(0.7666315 -0.00013080582 0)
(0.76650446 -0.00012218663 0)
(0.76638582 -0.00011413343 0)
(0.76627501 -0.00010660982 0)
(0.76617152 -9.9580009e-05 0)
(0.76607486 -9.3014872e-05 0)
(0.76598459 -8.6881979e-05 0)
(0.76590026 -8.1157579e-05 0)
(0.76582151 -7.58092e-05 0)
(0.76574794 -7.0818952e-05 0)
(0.76567924 -6.6152695e-05 0)
(0.76561504 -6.1799761e-05 0)
(0.76555512 -5.7722295e-05 0)
(0.76549911 -5.3925571e-05 0)
(0.76544685 -5.0358158e-05 0)
(0.76539796 -4.7043999e-05 0)
(0.7653524 -4.3930036e-05 0)
(0.76530971 -4.10692e-05 0)
(0.76526996 -3.8332611e-05 0)
(0.7652327 -3.5828442e-05 0)
(0.76519805 -3.3433044e-05 0)
(0.76516559 -3.131838e-05 0)
(0.76513517 -2.9204092e-05 0)
(0.76510711 -2.7385861e-05 0)
(0.76507997 -2.5524337e-05 0)
(0.76505664 -2.4063723e-05 0)
(0.76503057 -2.2545111e-05 0)
(0.76501445 -2.1587665e-05 0)
(0.76498347 -2.0984808e-05 0)
(0.91890839 -0.035821913 0)
(0.86271384 -0.062195638 0)
(0.7870597 -0.06251009 0)
(0.69536033 -0.054550395 0)
(0.61089745 -0.044531651 0)
(0.54411592 -0.034015972 0)
(0.49343012 -0.02418754 0)
(0.45479413 -0.01614423 0)
(0.42544582 -0.010265785 0)
(0.40347313 -0.006304145 0)
(0.38715766 -0.0037976294 0)
(0.3749622 -0.0023103384 0)
(0.36566192 -0.0014930154 0)
(0.35836272 -0.0010851186 0)
(0.35244268 -0.0009060723 0)
(0.34748201 -0.00084105135 0)
(0.34320348 -0.00082372362 0)
(0.33942726 -0.00081931007 0)
(0.33603793 -0.000811852 0)
(0.33296114 -0.00079580154 0)
(0.33014778 -0.00077081195 0)
(0.32756384 -0.00073870994 0)
(0.3251842 -0.00070188955 0)
(0.32298902 -0.00066256562 0)
(0.32096172 -0.00062249929 0)
(0.31908785 -0.00058295702 0)
(0.31735449 -0.00054477113 0)
(0.31574995 -0.00050843387 0)
(0.3142636 -0.00047419163 0)
(0.31288574 -0.00044212489 0)
(0.31160755 -0.00041220985 0)
(0.31042101 -0.00038436199 0)
(0.30931883 -0.00035846513 0)
(0.30829438 -0.00033439017 0)
(0.30734165 -0.00031200628 0)
(0.30645515 -0.00029118708 0)
(0.30562991 -0.00027181374 0)
(0.30486136 -0.00025377642 0)
(0.30414535 -0.00023697433 0)
(0.30347807 -0.0002213152 0)
(0.30285601 -0.00020671477 0)
(0.30227596 -0.00019309616 0)
(0.30173496 -0.00018038902 0)
(0.30123029 -0.0001685289 0)
(0.30075942 -0.00015745672 0)
(0.30032002 -0.00014711811 0)
(0.29990993 -0.000137463 0)
(0.29952715 -0.00012844517 0)
(0.29916983 -0.00012002175 0)
(0.29883624 -0.00011215265 0)
(0.29852478 -0.00010480052 0)
(0.29823397 -9.793073e-05 0)
(0.29796241 -9.1511072e-05 0)
(0.29770882 -8.5511647e-05 0)
(0.29747201 -7.9904883e-05 0)
(0.29725084 -7.4665195e-05 0)
(0.29704429 -6.9768598e-05 0)
(0.29685138 -6.5192834e-05 0)
(0.2966712 -6.091719e-05 0)
(0.29650291 -5.6921951e-05 0)
(0.29634572 -5.3188441e-05 0)
(0.2961989 -4.9699252e-05 0)
(0.29606176 -4.6438128e-05 0)
(0.29593366 -4.3389782e-05 0)
(0.29581401 -4.0540332e-05 0)
(0.29570224 -3.7877193e-05 0)
(0.29559784 -3.5388641e-05 0)
(0.29550032 -3.3063702e-05 0)
(0.29540922 -3.0892053e-05 0)
(0.29532413 -2.8863454e-05 0)
(0.29524464 -2.6968224e-05 0)
(0.29517039 -2.5197016e-05 0)
(0.29510103 -2.3541375e-05 0)
(0.29503624 -2.1993226e-05 0)
(0.29497573 -2.0546092e-05 0)
(0.29491919 -1.9193529e-05 0)
(0.29486638 -1.7930361e-05 0)
(0.29481706 -1.6750418e-05 0)
(0.29477097 -1.5649351e-05 0)
(0.29472793 -1.4620407e-05 0)
(0.29468771 -1.3660371e-05 0)
(0.29465016 -1.2762062e-05 0)
(0.29461507 -1.1923773e-05 0)
(0.2945823 -1.113752e-05 0)
(0.29455168 -1.0405462e-05 0)
(0.29452309 -9.7161564e-06 0)
(0.29449637 -9.07704e-06 0)
(0.29447142 -8.4789532e-06 0)
(0.29444808 -7.9300216e-06 0)
(0.29442632 -7.3960568e-06 0)
(0.29440599 -6.9097215e-06 0)
(0.294387 -6.4602414e-06 0)
(0.2943692 -6.062817e-06 0)
(0.29435259 -5.6565928e-06 0)
(0.29433715 -5.2937077e-06 0)
(0.2943225 -4.9715891e-06 0)
(0.29430919 -4.6856172e-06 0)
(0.29429569 -4.5322449e-06 0)
(0.29428502 -4.4000967e-06 0)
(0.29426875 -5.0535858e-06 0)
)
;

boundaryField
{
    top
    {
        type            fixedValue;
        value           uniform (0 0 0);
    }
    inlet
    {
        type            fixedValue;
        value           uniform (1 0 0);
    }
    outlet
    {
        type            zeroGradient;
    }
    bottom
    {
        type            fixedValue;
        value           uniform (0 0 0);
    }
    back
    {
        type            empty;
    }
    front
    {
        type            empty;
    }
}


// ************************************************************************* //
