/*--------------------------------*- C++ -*----------------------------------*\
| =========                 |                                                 |
| \\      /  F ield         | OpenFOAM: The Open Source CFD Toolbox           |
|  \\    /   O peration     | Version:  2112                                  |
|   \\  /    A nd           | Website:  www.openfoam.com                      |
|    \\/     M anipulation  |                                                 |
\*---------------------------------------------------------------------------*/
FoamFile
{
    version     2.0;
    format      ascii;
    arch        "LSB;label=32;scalar=64";
    class       volScalarField;
    location    "80";
    object      T;
}
// * * * * * * * * * * * * * * * * * * * * * * * * * * * * * * * * * * * * * //

dimensions      [0 0 0 1 0 0 0];

internalField   nonuniform List<scalar> 
10000
(
1.45263
1.45263
1.45263
1.45263
1.45263
1.45263
1.45263
1.45263
1.45263
1.45263
1.35819
1.35819
1.35819
1.35819
1.35819
1.35819
1.35819
1.35819
1.35819
1.35819
1.26463
1.26463
1.26463
1.26463
1.26463
1.26463
1.26463
1.26463
1.26463
1.26463
1.17254
1.17254
1.17254
1.17254
1.17254
1.17254
1.17254
1.17254
1.17254
1.17254
1.08244
1.08244
1.08244
1.08244
1.08244
1.08244
1.08244
1.08244
1.08244
1.08244
0.994857
0.994857
0.994857
0.994856
0.994856
0.994856
0.994856
0.994856
0.994856
0.994856
0.910245
0.910245
0.910245
0.910245
0.910245
0.910244
0.910244
0.910244
0.910245
0.910245
0.829017
0.829017
0.829017
0.829017
0.829016
0.829016
0.829016
0.829016
0.829016
0.829016
0.751525
0.751525
0.751524
0.751524
0.751524
0.751523
0.751523
0.751523
0.751524
0.751523
0.678058
0.678058
0.678057
0.678057
0.678057
0.678056
0.678056
0.678056
0.678056
0.678056
0.608842
0.608843
0.608842
0.608841
0.608841
0.608841
0.608841
0.608841
0.608841
0.60884
0.544039
0.544039
0.544039
0.544038
0.544038
0.544037
0.544037
0.544037
0.544037
0.544036
0.483745
0.483745
0.483745
0.483744
0.483743
0.483742
0.483742
0.483742
0.483741
0.483741
0.427996
0.427996
0.427995
0.427994
0.427993
0.427992
0.427991
0.42799
0.42799
0.42799
0.376769
0.376769
0.376768
0.376766
0.376765
0.376763
0.376762
0.376761
0.376761
0.37676
0.32999
0.32999
0.329988
0.329986
0.329984
0.329982
0.32998
0.329979
0.329977
0.329977
0.287538
0.287537
0.287535
0.287532
0.287529
0.287526
0.287523
0.28752
0.287519
0.287518
0.24925
0.249249
0.249246
0.249242
0.249237
0.249232
0.249228
0.249224
0.249221
0.249219
0.214931
0.214929
0.214925
0.214919
0.214912
0.214905
0.214898
0.214892
0.214888
0.214885
0.184358
0.184355
0.184349
0.184341
0.184331
0.18432
0.184309
0.1843
0.184293
0.18429
0.15729
0.157285
0.157277
0.157264
0.15725
0.157234
0.157218
0.157204
0.157193
0.157188
0.133469
0.133463
0.133451
0.133433
0.133412
0.133388
0.133364
0.133343
0.133327
0.133318
0.112635
0.112626
0.112609
0.112584
0.112552
0.112517
0.112481
0.112449
0.112424
0.11241
0.094522
0.0945098
0.0944853
0.0944498
0.094405
0.0943536
0.0942999
0.0942499
0.0942106
0.0941887
0.0788699
0.0788532
0.0788196
0.0787702
0.0787065
0.0786317
0.0785515
0.0784744
0.0784121
0.0783765
0.0654261
0.0654038
0.0653586
0.065291
0.065202
0.0650943
0.0649748
0.0648554
0.0647547
0.0646953
0.0539494
0.0539203
0.0538612
0.053771
0.053649
0.0534966
0.0533198
0.0531339
0.0529675
0.0528636
0.0442129
0.0441763
0.0441013
0.0439846
0.0438225
0.0436118
0.0433544
0.0430645
0.0427821
0.0425878
0.0360056
0.0359615
0.03587
0.0357251
0.0355178
0.0352371
0.0348731
0.0344266
0.0339357
0.0335368
0.0291339
0.029083
0.0289765
0.0288053
0.0285541
0.0282004
0.0277127
0.0270526
0.0261966
0.025271
1.45263
1.45263
1.45263
1.45263
1.45263
1.45263
1.45263
1.45263
1.45263
1.45263
1.35819
1.35819
1.35819
1.35819
1.35819
1.35819
1.35819
1.35819
1.35819
1.35819
1.26463
1.26463
1.26463
1.26463
1.26463
1.26463
1.26463
1.26463
1.26463
1.26463
1.17254
1.17254
1.17254
1.17254
1.17254
1.17254
1.17254
1.17254
1.17254
1.17254
1.08244
1.08244
1.08244
1.08244
1.08244
1.08244
1.08244
1.08244
1.08244
1.08244
0.994857
0.994857
0.994857
0.994856
0.994856
0.994856
0.994856
0.994856
0.994856
0.994856
0.910245
0.910245
0.910245
0.910245
0.910244
0.910244
0.910244
0.910244
0.910245
0.910245
0.829017
0.829017
0.829017
0.829016
0.829016
0.829016
0.829016
0.829016
0.829016
0.829016
0.751525
0.751525
0.751524
0.751524
0.751524
0.751523
0.751523
0.751523
0.751524
0.751524
0.678058
0.678058
0.678057
0.678057
0.678057
0.678056
0.678056
0.678056
0.678057
0.678056
0.608843
0.608843
0.608842
0.608841
0.608841
0.608841
0.608841
0.608841
0.608841
0.608841
0.54404
0.544039
0.544039
0.544038
0.544037
0.544037
0.544037
0.544037
0.544037
0.544037
0.483746
0.483745
0.483744
0.483744
0.483743
0.483742
0.483742
0.483742
0.483742
0.483741
0.427996
0.427996
0.427995
0.427994
0.427993
0.427992
0.427991
0.427991
0.42799
0.42799
0.376769
0.376769
0.376768
0.376766
0.376765
0.376763
0.376762
0.376761
0.376761
0.37676
0.329991
0.32999
0.329988
0.329986
0.329984
0.329982
0.32998
0.329979
0.329978
0.329977
0.287538
0.287537
0.287535
0.287532
0.287529
0.287526
0.287523
0.28752
0.287519
0.287518
0.24925
0.249249
0.249246
0.249242
0.249237
0.249232
0.249228
0.249224
0.249221
0.24922
0.214931
0.214929
0.214925
0.214919
0.214912
0.214905
0.214898
0.214892
0.214888
0.214885
0.184358
0.184355
0.184349
0.184341
0.184331
0.18432
0.184309
0.1843
0.184294
0.18429
0.15729
0.157285
0.157276
0.157264
0.15725
0.157234
0.157218
0.157204
0.157193
0.157188
0.133469
0.133463
0.133451
0.133433
0.133412
0.133388
0.133364
0.133343
0.133327
0.133318
0.112635
0.112626
0.112609
0.112583
0.112552
0.112517
0.112481
0.112449
0.112424
0.11241
0.0945221
0.0945097
0.0944853
0.0944498
0.0944049
0.0943535
0.0942999
0.0942499
0.0942107
0.0941887
0.07887
0.0788532
0.0788196
0.0787702
0.0787065
0.0786317
0.0785514
0.0784744
0.0784121
0.0783766
0.0654262
0.0654038
0.0653586
0.065291
0.0652019
0.0650943
0.0649748
0.0648554
0.0647548
0.0646954
0.0539495
0.0539203
0.0538611
0.053771
0.053649
0.0534966
0.0533198
0.0531339
0.0529675
0.0528636
0.0442129
0.0441763
0.0441012
0.0439846
0.0438225
0.0436118
0.0433543
0.0430645
0.0427821
0.0425878
0.0360057
0.0359615
0.0358699
0.0357251
0.0355178
0.0352371
0.0348731
0.0344266
0.0339357
0.0335369
0.0291339
0.029083
0.0289765
0.0288053
0.0285541
0.0282004
0.0277127
0.0270526
0.0261966
0.025271
1.45263
1.45263
1.45263
1.45263
1.45263
1.45263
1.45263
1.45263
1.45263
1.45263
1.35819
1.35819
1.35819
1.35819
1.35819
1.35819
1.35819
1.35819
1.35819
1.35819
1.26463
1.26463
1.26463
1.26463
1.26463
1.26463
1.26463
1.26463
1.26463
1.26463
1.17254
1.17254
1.17254
1.17254
1.17254
1.17254
1.17254
1.17254
1.17254
1.17254
1.08244
1.08244
1.08244
1.08244
1.08244
1.08244
1.08244
1.08244
1.08244
1.08244
0.994857
0.994857
0.994856
0.994856
0.994856
0.994856
0.994856
0.994856
0.994856
0.994856
0.910245
0.910245
0.910245
0.910244
0.910244
0.910244
0.910244
0.910244
0.910244
0.910244
0.829017
0.829017
0.829016
0.829016
0.829016
0.829016
0.829016
0.829016
0.829016
0.829016
0.751524
0.751524
0.751524
0.751523
0.751523
0.751523
0.751523
0.751523
0.751523
0.751523
0.678058
0.678057
0.678057
0.678056
0.678056
0.678056
0.678056
0.678056
0.678056
0.678056
0.608842
0.608842
0.608841
0.608841
0.60884
0.60884
0.60884
0.60884
0.60884
0.60884
0.544039
0.544039
0.544038
0.544037
0.544037
0.544037
0.544036
0.544036
0.544037
0.544036
0.483745
0.483745
0.483744
0.483743
0.483742
0.483742
0.483741
0.483741
0.483741
0.483741
0.427996
0.427995
0.427994
0.427993
0.427992
0.427991
0.427991
0.42799
0.42799
0.42799
0.376769
0.376768
0.376767
0.376766
0.376764
0.376763
0.376762
0.376761
0.37676
0.37676
0.32999
0.329989
0.329988
0.329986
0.329984
0.329982
0.32998
0.329978
0.329977
0.329977
0.287538
0.287537
0.287535
0.287532
0.287529
0.287525
0.287522
0.28752
0.287519
0.287518
0.24925
0.249248
0.249245
0.249241
0.249237
0.249232
0.249227
0.249224
0.249221
0.249219
0.214931
0.214929
0.214924
0.214918
0.214912
0.214904
0.214897
0.214892
0.214887
0.214885
0.184358
0.184355
0.184349
0.18434
0.18433
0.18432
0.184309
0.1843
0.184293
0.18429
0.157289
0.157285
0.157276
0.157264
0.157249
0.157233
0.157217
0.157203
0.157193
0.157188
0.133469
0.133463
0.13345
0.133433
0.133411
0.133388
0.133364
0.133343
0.133327
0.133318
0.112635
0.112626
0.112608
0.112583
0.112552
0.112517
0.112481
0.112449
0.112424
0.11241
0.0945218
0.0945095
0.094485
0.0944495
0.0944047
0.0943533
0.0942997
0.0942497
0.0942106
0.0941887
0.0788698
0.078853
0.0788194
0.07877
0.0787063
0.0786315
0.0785513
0.0784743
0.0784121
0.0783766
0.065426
0.0654036
0.0653584
0.0652908
0.0652018
0.0650941
0.0649746
0.0648553
0.0647547
0.0646953
0.0539493
0.0539202
0.053861
0.0537708
0.0536489
0.0534965
0.0533197
0.0531338
0.0529675
0.0528636
0.0442128
0.0441762
0.0441011
0.0439845
0.0438223
0.0436116
0.0433542
0.0430644
0.0427821
0.0425878
0.0360056
0.0359614
0.0358698
0.035725
0.0355177
0.035237
0.034873
0.0344265
0.0339357
0.0335368
0.0291339
0.0290829
0.0289764
0.0288052
0.028554
0.0282003
0.0277126
0.0270525
0.0261966
0.025271
1.45263
1.45263
1.45263
1.45263
1.45263
1.45263
1.45263
1.45263
1.45263
1.45263
1.35819
1.35819
1.35819
1.35819
1.35819
1.35819
1.35819
1.35819
1.35819
1.35819
1.26463
1.26463
1.26463
1.26463
1.26463
1.26463
1.26463
1.26463
1.26463
1.26463
1.17254
1.17254
1.17254
1.17254
1.17254
1.17254
1.17254
1.17254
1.17254
1.17254
1.08244
1.08244
1.08244
1.08244
1.08244
1.08244
1.08244
1.08244
1.08244
1.08244
0.994857
0.994856
0.994856
0.994856
0.994856
0.994856
0.994856
0.994856
0.994856
0.994856
0.910245
0.910245
0.910244
0.910244
0.910244
0.910244
0.910244
0.910244
0.910244
0.910244
0.829017
0.829017
0.829016
0.829016
0.829015
0.829015
0.829015
0.829016
0.829016
0.829016
0.751524
0.751524
0.751523
0.751523
0.751523
0.751523
0.751523
0.751523
0.751523
0.751523
0.678057
0.678057
0.678057
0.678056
0.678056
0.678056
0.678056
0.678056
0.678056
0.678056
0.608842
0.608842
0.608841
0.608841
0.60884
0.60884
0.60884
0.60884
0.60884
0.60884
0.544039
0.544039
0.544038
0.544037
0.544037
0.544036
0.544036
0.544036
0.544036
0.544036
0.483745
0.483744
0.483744
0.483743
0.483742
0.483742
0.483741
0.483741
0.483741
0.483741
0.427995
0.427995
0.427994
0.427993
0.427992
0.427991
0.42799
0.42799
0.42799
0.42799
0.376769
0.376768
0.376767
0.376765
0.376764
0.376763
0.376761
0.376761
0.37676
0.37676
0.32999
0.329989
0.329987
0.329986
0.329983
0.329981
0.329979
0.329978
0.329977
0.329977
0.287538
0.287537
0.287534
0.287531
0.287528
0.287525
0.287522
0.28752
0.287518
0.287517
0.24925
0.249248
0.249245
0.249241
0.249236
0.249232
0.249227
0.249223
0.249221
0.249219
0.214931
0.214928
0.214924
0.214918
0.214911
0.214904
0.214897
0.214891
0.214887
0.214885
0.184358
0.184355
0.184349
0.18434
0.18433
0.184319
0.184309
0.1843
0.184293
0.18429
0.157289
0.157285
0.157276
0.157264
0.157249
0.157233
0.157217
0.157203
0.157193
0.157188
0.133469
0.133463
0.13345
0.133433
0.133411
0.133387
0.133364
0.133342
0.133326
0.133318
0.112635
0.112626
0.112608
0.112583
0.112552
0.112517
0.112481
0.112449
0.112424
0.11241
0.0945217
0.0945094
0.0944849
0.0944494
0.0944046
0.0943532
0.0942996
0.0942497
0.0942105
0.0941887
0.0788697
0.0788529
0.0788193
0.0787699
0.0787062
0.0786314
0.0785512
0.0784742
0.078412
0.0783766
0.0654259
0.0654035
0.0653583
0.0652907
0.0652017
0.0650941
0.0649745
0.0648552
0.0647547
0.0646953
0.0539492
0.0539201
0.0538609
0.0537707
0.0536488
0.0534964
0.0533196
0.0531337
0.0529675
0.0528636
0.0442127
0.0441761
0.044101
0.0439844
0.0438223
0.0436116
0.0433542
0.0430643
0.0427821
0.0425878
0.0360055
0.0359613
0.0358698
0.0357249
0.0355177
0.035237
0.034873
0.0344265
0.0339356
0.0335368
0.0291338
0.0290828
0.0289764
0.0288051
0.028554
0.0282002
0.0277126
0.0270525
0.0261966
0.025271
1.45263
1.45263
1.45263
1.45263
1.45263
1.45263
1.45263
1.45263
1.45263
1.45263
1.35819
1.35819
1.35819
1.35819
1.35819
1.35819
1.35819
1.35819
1.35819
1.35819
1.26463
1.26463
1.26463
1.26463
1.26463
1.26463
1.26463
1.26463
1.26463
1.26463
1.17254
1.17254
1.17254
1.17254
1.17254
1.17254
1.17254
1.17254
1.17254
1.17254
1.08244
1.08244
1.08244
1.08244
1.08244
1.08244
1.08244
1.08244
1.08244
1.08244
0.994856
0.994856
0.994856
0.994856
0.994855
0.994855
0.994855
0.994856
0.994856
0.994856
0.910245
0.910245
0.910244
0.910244
0.910244
0.910244
0.910244
0.910244
0.910244
0.910244
0.829016
0.829016
0.829016
0.829016
0.829015
0.829015
0.829015
0.829016
0.829016
0.829016
0.751524
0.751524
0.751523
0.751523
0.751523
0.751523
0.751523
0.751523
0.751523
0.751523
0.678057
0.678057
0.678056
0.678056
0.678056
0.678055
0.678055
0.678056
0.678056
0.678056
0.608842
0.608842
0.608841
0.60884
0.60884
0.60884
0.60884
0.60884
0.60884
0.60884
0.544039
0.544038
0.544038
0.544037
0.544037
0.544036
0.544036
0.544036
0.544036
0.544036
0.483745
0.483744
0.483743
0.483743
0.483742
0.483741
0.483741
0.483741
0.483741
0.483741
0.427995
0.427995
0.427994
0.427993
0.427992
0.427991
0.42799
0.42799
0.42799
0.42799
0.376769
0.376768
0.376767
0.376765
0.376764
0.376763
0.376761
0.376761
0.37676
0.37676
0.32999
0.329989
0.329987
0.329985
0.329983
0.329981
0.329979
0.329978
0.329977
0.329977
0.287537
0.287536
0.287534
0.287531
0.287528
0.287525
0.287522
0.28752
0.287518
0.287518
0.24925
0.249248
0.249245
0.249241
0.249236
0.249232
0.249227
0.249223
0.249221
0.249219
0.21493
0.214928
0.214924
0.214918
0.214911
0.214904
0.214897
0.214891
0.214887
0.214885
0.184358
0.184355
0.184348
0.18434
0.18433
0.184319
0.184309
0.1843
0.184293
0.18429
0.157289
0.157285
0.157276
0.157264
0.157249
0.157233
0.157217
0.157203
0.157193
0.157188
0.133469
0.133463
0.13345
0.133433
0.133411
0.133387
0.133364
0.133342
0.133327
0.133318
0.112635
0.112626
0.112608
0.112583
0.112552
0.112517
0.112481
0.112449
0.112424
0.11241
0.0945217
0.0945093
0.0944848
0.0944494
0.0944046
0.0943532
0.0942996
0.0942497
0.0942106
0.0941887
0.0788697
0.0788528
0.0788192
0.0787698
0.0787061
0.0786314
0.0785512
0.0784743
0.0784121
0.0783766
0.0654259
0.0654034
0.0653583
0.0652907
0.0652016
0.0650941
0.0649745
0.0648552
0.0647547
0.0646954
0.0539492
0.0539201
0.0538609
0.0537707
0.0536488
0.0534964
0.0533197
0.0531337
0.0529675
0.0528636
0.0442127
0.0441761
0.044101
0.0439844
0.0438223
0.0436116
0.0433542
0.0430644
0.0427821
0.0425878
0.0360055
0.0359613
0.0358698
0.0357249
0.0355177
0.035237
0.034873
0.0344265
0.0339357
0.0335369
0.0291338
0.0290828
0.0289763
0.0288051
0.028554
0.0282002
0.0277126
0.0270525
0.0261966
0.025271
1.45263
1.45263
1.45263
1.45263
1.45263
1.45263
1.45263
1.45263
1.45263
1.45263
1.35819
1.35819
1.35819
1.35819
1.35819
1.35819
1.35819
1.35819
1.35819
1.35819
1.26463
1.26463
1.26463
1.26463
1.26463
1.26463
1.26463
1.26463
1.26463
1.26463
1.17254
1.17254
1.17254
1.17254
1.17254
1.17254
1.17254
1.17254
1.17254
1.17254
1.08244
1.08244
1.08244
1.08244
1.08244
1.08244
1.08244
1.08244
1.08244
1.08244
0.994856
0.994856
0.994856
0.994856
0.994855
0.994855
0.994855
0.994856
0.994856
0.994856
0.910245
0.910245
0.910244
0.910244
0.910244
0.910244
0.910244
0.910244
0.910244
0.910244
0.829016
0.829016
0.829016
0.829016
0.829015
0.829015
0.829015
0.829016
0.829016
0.829016
0.751524
0.751524
0.751523
0.751523
0.751523
0.751523
0.751523
0.751523
0.751523
0.751523
0.678057
0.678057
0.678056
0.678056
0.678056
0.678056
0.678056
0.678056
0.678056
0.678056
0.608842
0.608842
0.608841
0.60884
0.60884
0.60884
0.60884
0.60884
0.60884
0.60884
0.544039
0.544038
0.544038
0.544037
0.544037
0.544036
0.544036
0.544036
0.544036
0.544036
0.483745
0.483744
0.483743
0.483743
0.483742
0.483741
0.483741
0.483741
0.483741
0.483741
0.427995
0.427995
0.427994
0.427993
0.427992
0.427991
0.42799
0.42799
0.42799
0.42799
0.376769
0.376768
0.376767
0.376765
0.376764
0.376763
0.376762
0.376761
0.37676
0.37676
0.32999
0.329989
0.329987
0.329985
0.329983
0.329981
0.329979
0.329978
0.329977
0.329977
0.287537
0.287536
0.287534
0.287531
0.287528
0.287525
0.287522
0.28752
0.287519
0.287518
0.24925
0.249248
0.249245
0.249241
0.249236
0.249232
0.249227
0.249223
0.249221
0.24922
0.21493
0.214928
0.214924
0.214918
0.214911
0.214904
0.214897
0.214892
0.214888
0.214885
0.184358
0.184355
0.184349
0.18434
0.18433
0.184319
0.184309
0.1843
0.184293
0.18429
0.157289
0.157285
0.157276
0.157264
0.157249
0.157233
0.157217
0.157204
0.157193
0.157188
0.133469
0.133463
0.13345
0.133433
0.133411
0.133388
0.133364
0.133343
0.133327
0.133318
0.112635
0.112626
0.112608
0.112583
0.112552
0.112517
0.112481
0.112449
0.112424
0.11241
0.0945217
0.0945094
0.0944849
0.0944494
0.0944046
0.0943533
0.0942997
0.0942498
0.0942107
0.0941888
0.0788697
0.0788529
0.0788193
0.0787699
0.0787062
0.0786315
0.0785513
0.0784743
0.0784122
0.0783767
0.0654259
0.0654035
0.0653583
0.0652908
0.0652017
0.0650941
0.0649746
0.0648553
0.0647548
0.0646955
0.0539492
0.0539201
0.0538609
0.0537708
0.0536488
0.0534965
0.0533197
0.0531338
0.0529676
0.0528637
0.0442127
0.0441761
0.044101
0.0439844
0.0438223
0.0436116
0.0433543
0.0430644
0.0427822
0.0425879
0.0360055
0.0359613
0.0358698
0.0357249
0.0355177
0.035237
0.034873
0.0344266
0.0339357
0.0335369
0.0291338
0.0290828
0.0289764
0.0288052
0.028554
0.0282003
0.0277127
0.0270526
0.0261966
0.0252711
1.45263
1.45263
1.45263
1.45263
1.45263
1.45263
1.45263
1.45263
1.45263
1.45263
1.35819
1.35819
1.35819
1.35819
1.35819
1.35819
1.35819
1.35819
1.35819
1.35819
1.26463
1.26463
1.26463
1.26463
1.26463
1.26463
1.26463
1.26463
1.26463
1.26463
1.17254
1.17254
1.17254
1.17254
1.17254
1.17254
1.17254
1.17254
1.17254
1.17254
1.08244
1.08244
1.08244
1.08244
1.08244
1.08244
1.08244
1.08244
1.08244
1.08244
0.994856
0.994856
0.994856
0.994856
0.994856
0.994856
0.994856
0.994856
0.994856
0.994856
0.910245
0.910245
0.910244
0.910244
0.910244
0.910244
0.910244
0.910244
0.910244
0.910244
0.829016
0.829016
0.829016
0.829016
0.829015
0.829015
0.829016
0.829016
0.829016
0.829016
0.751524
0.751524
0.751523
0.751523
0.751523
0.751523
0.751523
0.751523
0.751523
0.751524
0.678057
0.678057
0.678056
0.678056
0.678056
0.678056
0.678056
0.678056
0.678056
0.678056
0.608842
0.608842
0.608841
0.608841
0.60884
0.60884
0.60884
0.60884
0.608841
0.608841
0.544039
0.544039
0.544038
0.544037
0.544037
0.544036
0.544036
0.544036
0.544037
0.544037
0.483745
0.483744
0.483744
0.483743
0.483742
0.483742
0.483741
0.483741
0.483742
0.483741
0.427995
0.427995
0.427994
0.427993
0.427992
0.427991
0.427991
0.42799
0.42799
0.42799
0.376769
0.376768
0.376767
0.376766
0.376764
0.376763
0.376762
0.376761
0.376761
0.37676
0.32999
0.329989
0.329988
0.329986
0.329984
0.329982
0.32998
0.329978
0.329978
0.329977
0.287538
0.287537
0.287534
0.287532
0.287529
0.287525
0.287523
0.28752
0.287519
0.287518
0.24925
0.249248
0.249245
0.249241
0.249237
0.249232
0.249227
0.249224
0.249221
0.24922
0.214931
0.214928
0.214924
0.214918
0.214912
0.214904
0.214898
0.214892
0.214888
0.214885
0.184358
0.184355
0.184349
0.18434
0.18433
0.18432
0.184309
0.1843
0.184294
0.18429
0.157289
0.157285
0.157276
0.157264
0.157249
0.157233
0.157218
0.157204
0.157194
0.157188
0.133469
0.133463
0.13345
0.133433
0.133411
0.133388
0.133364
0.133343
0.133327
0.133318
0.112635
0.112626
0.112608
0.112583
0.112552
0.112517
0.112481
0.112449
0.112424
0.11241
0.0945218
0.0945095
0.094485
0.0944496
0.0944048
0.0943535
0.0942999
0.09425
0.0942109
0.094189
0.0788698
0.078853
0.0788194
0.07877
0.0787064
0.0786316
0.0785515
0.0784745
0.0784123
0.0783769
0.065426
0.0654036
0.0653584
0.0652909
0.0652019
0.0650943
0.0649748
0.0648555
0.0647549
0.0646956
0.0539493
0.0539202
0.053861
0.0537709
0.053649
0.0534966
0.0533199
0.053134
0.0529677
0.0528638
0.0442128
0.0441762
0.0441011
0.0439845
0.0438224
0.0436118
0.0433544
0.0430646
0.0427823
0.042588
0.0360056
0.0359614
0.0358699
0.035725
0.0355178
0.0352371
0.0348731
0.0344267
0.0339358
0.033537
0.0291339
0.0290829
0.0289765
0.0288053
0.0285541
0.0282004
0.0277128
0.0270527
0.0261967
0.0252712
1.45263
1.45263
1.45263
1.45263
1.45263
1.45263
1.45263
1.45263
1.45263
1.45263
1.35819
1.35819
1.35819
1.35819
1.35819
1.35819
1.35819
1.35819
1.35819
1.35819
1.26463
1.26463
1.26463
1.26463
1.26463
1.26463
1.26463
1.26463
1.26463
1.26463
1.17254
1.17254
1.17254
1.17254
1.17254
1.17254
1.17254
1.17254
1.17254
1.17254
1.08244
1.08244
1.08244
1.08244
1.08244
1.08244
1.08244
1.08244
1.08244
1.08244
0.994856
0.994856
0.994856
0.994856
0.994856
0.994856
0.994856
0.994856
0.994856
0.994856
0.910245
0.910245
0.910244
0.910244
0.910244
0.910244
0.910244
0.910244
0.910245
0.910245
0.829017
0.829017
0.829016
0.829016
0.829016
0.829016
0.829016
0.829016
0.829016
0.829017
0.751524
0.751524
0.751524
0.751523
0.751523
0.751523
0.751523
0.751523
0.751524
0.751524
0.678057
0.678057
0.678057
0.678056
0.678056
0.678056
0.678056
0.678056
0.678057
0.678057
0.608842
0.608842
0.608841
0.608841
0.608841
0.60884
0.60884
0.608841
0.608841
0.608841
0.544039
0.544039
0.544038
0.544038
0.544037
0.544037
0.544037
0.544037
0.544037
0.544037
0.483745
0.483745
0.483744
0.483743
0.483743
0.483742
0.483742
0.483742
0.483742
0.483742
0.427996
0.427995
0.427994
0.427993
0.427993
0.427992
0.427991
0.427991
0.427991
0.427991
0.376769
0.376768
0.376767
0.376766
0.376765
0.376763
0.376762
0.376761
0.376761
0.376761
0.32999
0.329989
0.329988
0.329986
0.329984
0.329982
0.32998
0.329979
0.329978
0.329978
0.287538
0.287537
0.287535
0.287532
0.287529
0.287526
0.287523
0.287521
0.287519
0.287518
0.24925
0.249248
0.249245
0.249242
0.249237
0.249232
0.249228
0.249224
0.249222
0.24922
0.214931
0.214929
0.214924
0.214919
0.214912
0.214905
0.214898
0.214892
0.214888
0.214886
0.184358
0.184355
0.184349
0.184341
0.184331
0.18432
0.18431
0.184301
0.184294
0.18429
0.157289
0.157285
0.157276
0.157264
0.15725
0.157234
0.157218
0.157204
0.157194
0.157188
0.133469
0.133463
0.133451
0.133433
0.133412
0.133388
0.133364
0.133343
0.133327
0.133318
0.112635
0.112626
0.112609
0.112584
0.112552
0.112517
0.112482
0.112449
0.112424
0.112411
0.094522
0.0945097
0.0944853
0.0944499
0.0944051
0.0943537
0.0943002
0.0942503
0.0942111
0.0941893
0.0788699
0.0788532
0.0788196
0.0787703
0.0787066
0.0786319
0.0785517
0.0784748
0.0784126
0.0783771
0.0654262
0.0654037
0.0653586
0.0652911
0.0652021
0.0650945
0.064975
0.0648557
0.0647552
0.0646958
0.0539495
0.0539203
0.0538612
0.0537711
0.0536492
0.0534968
0.0533201
0.0531342
0.0529679
0.052864
0.0442129
0.0441763
0.0441013
0.0439847
0.0438226
0.0436119
0.0433546
0.0430647
0.0427825
0.0425882
0.0360057
0.0359615
0.03587
0.0357252
0.035518
0.0352373
0.0348733
0.0344268
0.033936
0.0335372
0.029134
0.029083
0.0289766
0.0288054
0.0285542
0.0282005
0.0277129
0.0270528
0.0261969
0.0252713
1.45263
1.45263
1.45263
1.45263
1.45263
1.45263
1.45263
1.45263
1.45263
1.45263
1.35819
1.35819
1.35819
1.35819
1.35819
1.35819
1.35819
1.35819
1.35819
1.35819
1.26463
1.26463
1.26463
1.26463
1.26463
1.26463
1.26463
1.26463
1.26463
1.26463
1.17254
1.17254
1.17254
1.17254
1.17254
1.17254
1.17254
1.17254
1.17254
1.17254
1.08244
1.08244
1.08244
1.08244
1.08244
1.08244
1.08244
1.08244
1.08244
1.08244
0.994857
0.994857
0.994856
0.994856
0.994856
0.994856
0.994856
0.994856
0.994857
0.994857
0.910245
0.910245
0.910245
0.910244
0.910244
0.910244
0.910244
0.910245
0.910245
0.910245
0.829017
0.829017
0.829016
0.829016
0.829016
0.829016
0.829016
0.829017
0.829017
0.829017
0.751524
0.751524
0.751524
0.751524
0.751524
0.751524
0.751524
0.751524
0.751524
0.751524
0.678057
0.678058
0.678057
0.678057
0.678057
0.678057
0.678057
0.678057
0.678057
0.678057
0.608842
0.608842
0.608842
0.608841
0.608841
0.608841
0.608841
0.608841
0.608841
0.608841
0.544039
0.544039
0.544039
0.544038
0.544038
0.544037
0.544037
0.544037
0.544038
0.544038
0.483745
0.483745
0.483744
0.483744
0.483743
0.483743
0.483742
0.483742
0.483742
0.483742
0.427996
0.427996
0.427995
0.427994
0.427993
0.427992
0.427992
0.427991
0.427991
0.427991
0.376769
0.376769
0.376768
0.376767
0.376765
0.376764
0.376763
0.376762
0.376762
0.376761
0.32999
0.32999
0.329988
0.329987
0.329985
0.329983
0.329981
0.329979
0.329979
0.329978
0.287538
0.287537
0.287535
0.287533
0.28753
0.287526
0.287524
0.287521
0.28752
0.287519
0.24925
0.249249
0.249246
0.249242
0.249238
0.249233
0.249228
0.249225
0.249222
0.249221
0.214931
0.214929
0.214925
0.214919
0.214913
0.214905
0.214899
0.214893
0.214889
0.214886
0.184358
0.184355
0.184349
0.184341
0.184331
0.184321
0.18431
0.184301
0.184295
0.184291
0.15729
0.157285
0.157277
0.157265
0.15725
0.157234
0.157218
0.157205
0.157194
0.157189
0.13347
0.133463
0.133451
0.133434
0.133412
0.133389
0.133365
0.133344
0.133328
0.133319
0.112635
0.112626
0.112609
0.112584
0.112553
0.112518
0.112482
0.11245
0.112425
0.112411
0.0945221
0.0945099
0.0944856
0.0944502
0.0944054
0.0943541
0.0943005
0.0942506
0.0942115
0.0941896
0.0788701
0.0788534
0.0788199
0.0787706
0.0787069
0.0786322
0.078552
0.0784751
0.0784129
0.0783774
0.0654263
0.0654039
0.0653589
0.0652914
0.0652024
0.0650948
0.0649753
0.064856
0.0647554
0.064696
0.0539496
0.0539205
0.0538614
0.0537713
0.0536494
0.0534971
0.0533203
0.0531344
0.0529681
0.0528642
0.044213
0.0441765
0.0441015
0.0439849
0.0438228
0.0436122
0.0433548
0.0430649
0.0427827
0.0425884
0.0360058
0.0359617
0.0358702
0.0357254
0.0355182
0.0352375
0.0348735
0.034427
0.0339362
0.0335373
0.029134
0.0290831
0.0289767
0.0288056
0.0285544
0.0282007
0.0277131
0.027053
0.026197
0.0252714
1.45263
1.45263
1.45263
1.45263
1.45263
1.45263
1.45263
1.45263
1.45263
1.45263
1.35819
1.35819
1.35819
1.35819
1.35819
1.35819
1.35819
1.35819
1.35819
1.35819
1.26463
1.26463
1.26463
1.26463
1.26463
1.26463
1.26463
1.26463
1.26463
1.26463
1.17254
1.17254
1.17254
1.17254
1.17254
1.17254
1.17254
1.17254
1.17254
1.17254
1.08244
1.08244
1.08244
1.08244
1.08244
1.08244
1.08244
1.08244
1.08244
1.08244
0.994856
0.994857
0.994856
0.994856
0.994856
0.994856
0.994856
0.994856
0.994857
0.994857
0.910245
0.910245
0.910245
0.910245
0.910244
0.910244
0.910245
0.910245
0.910245
0.910245
0.829017
0.829017
0.829017
0.829016
0.829016
0.829016
0.829016
0.829017
0.829017
0.829017
0.751524
0.751524
0.751524
0.751524
0.751524
0.751524
0.751524
0.751524
0.751524
0.751524
0.678057
0.678057
0.678057
0.678057
0.678057
0.678057
0.678057
0.678057
0.678057
0.678057
0.608842
0.608842
0.608842
0.608842
0.608841
0.608841
0.608841
0.608841
0.608842
0.608841
0.544039
0.544039
0.544039
0.544038
0.544038
0.544038
0.544037
0.544037
0.544038
0.544037
0.483745
0.483745
0.483745
0.483744
0.483743
0.483743
0.483743
0.483742
0.483743
0.483742
0.427996
0.427996
0.427995
0.427994
0.427993
0.427992
0.427992
0.427991
0.427991
0.427991
0.376769
0.376769
0.376768
0.376767
0.376765
0.376764
0.376763
0.376762
0.376762
0.376761
0.32999
0.32999
0.329988
0.329987
0.329985
0.329983
0.329981
0.32998
0.329979
0.329978
0.287538
0.287537
0.287535
0.287533
0.28753
0.287527
0.287524
0.287521
0.28752
0.287519
0.24925
0.249249
0.249246
0.249242
0.249238
0.249233
0.249229
0.249225
0.249222
0.24922
0.214931
0.214929
0.214925
0.214919
0.214913
0.214906
0.214899
0.214893
0.214889
0.214886
0.184358
0.184355
0.184349
0.184341
0.184331
0.184321
0.18431
0.184301
0.184295
0.184291
0.15729
0.157285
0.157277
0.157265
0.15725
0.157234
0.157219
0.157205
0.157194
0.157188
0.13347
0.133463
0.133451
0.133434
0.133412
0.133389
0.133365
0.133344
0.133328
0.133319
0.112635
0.112626
0.112609
0.112584
0.112553
0.112518
0.112482
0.11245
0.112425
0.112411
0.0945221
0.0945099
0.0944856
0.0944503
0.0944055
0.0943542
0.0943006
0.0942507
0.0942115
0.0941895
0.0788701
0.0788534
0.07882
0.0787706
0.078707
0.0786323
0.0785521
0.0784752
0.0784129
0.0783773
0.0654263
0.0654039
0.0653589
0.0652914
0.0652024
0.0650949
0.0649754
0.064856
0.0647554
0.064696
0.0539496
0.0539205
0.0538615
0.0537714
0.0536495
0.0534971
0.0533204
0.0531345
0.0529682
0.0528641
0.044213
0.0441765
0.0441015
0.043985
0.0438229
0.0436122
0.0433548
0.043065
0.0427827
0.0425883
0.0360058
0.0359617
0.0358702
0.0357254
0.0355182
0.0352375
0.0348735
0.034427
0.0339362
0.0335373
0.0291341
0.0290831
0.0289768
0.0288056
0.0285544
0.0282007
0.0277131
0.027053
0.026197
0.0252714
0.0234209
0.023365
0.0232477
0.023057
0.0227725
0.0223611
0.0217672
0.0208895
0.0195086
0.0170266
0.0187061
0.0186481
0.0185259
0.0183269
0.018029
0.0175966
0.0169724
0.0160607
0.0146995
0.0126314
0.0148447
0.0147874
0.0146672
0.0144721
0.0141821
0.0137666
0.0131803
0.012359
0.0112209
0.00969528
0.0117064
0.0116526
0.0115402
0.0113593
0.0110939
0.0107212
0.0102107
0.0095265
0.00863516
0.00753068
0.00917527
0.00912694
0.00902651
0.00886653
0.00863551
0.00831811
0.00789616
0.00735181
0.0066748
0.00587577
0.00714901
0.00710723
0.007021
0.00688517
0.00669218
0.00643268
0.00609694
0.00567746
0.00517354
0.00459718
0.00553854
0.00550367
0.00543218
0.00532085
0.00516518
0.00496018
0.00470152
0.00438736
0.0040207
0.00361115
0.00426734
0.00423912
0.00418169
0.00409326
0.0039716
0.00381469
0.00362169
0.00339414
0.00313702
0.00285834
0.00327048
0.0032483
0.00320346
0.00313522
0.00304289
0.00292643
0.00278731
0.00262957
0.00246085
0.0022921
0.00249361
0.00247662
0.00244251
0.00239122
0.00232302
0.00223907
0.00214219
0.00203814
0.001938
0.0018643
0.0234209
0.023365
0.0232477
0.023057
0.0227725
0.0223611
0.0217672
0.0208895
0.0195086
0.0170266
0.0187061
0.018648
0.0185259
0.0183269
0.018029
0.0175966
0.0169724
0.0160607
0.0146995
0.0126314
0.0148447
0.0147874
0.0146672
0.0144721
0.0141821
0.0137666
0.0131803
0.012359
0.0112208
0.00969528
0.0117064
0.0116526
0.0115402
0.0113593
0.0110939
0.0107211
0.0102107
0.00952649
0.00863515
0.00753068
0.00917528
0.00912693
0.00902651
0.00886653
0.0086355
0.0083181
0.00789616
0.0073518
0.0066748
0.00587577
0.00714902
0.00710723
0.007021
0.00688517
0.00669217
0.00643268
0.00609693
0.00567745
0.00517354
0.00459717
0.00553855
0.00550366
0.00543217
0.00532084
0.00516518
0.00496018
0.00470151
0.00438736
0.0040207
0.00361115
0.00426734
0.00423912
0.00418168
0.00409326
0.0039716
0.00381469
0.00362168
0.00339414
0.00313702
0.00285833
0.00327048
0.0032483
0.00320345
0.00313521
0.00304288
0.00292643
0.00278731
0.00262957
0.00246085
0.0022921
0.00249362
0.00247662
0.00244251
0.00239122
0.00232302
0.00223907
0.00214219
0.00203814
0.001938
0.0018643
0.0234208
0.0233649
0.0232476
0.0230569
0.0227725
0.022361
0.0217672