/*--------------------------------*- C++ -*----------------------------------*\
| =========                 |                                                 |
| \\      /  F ield         | OpenFOAM: The Open Source CFD Toolbox           |
|  \\    /   O peration     | Version:  v1812                                 |
|   \\  /    A nd           | Web:      www.OpenFOAM.com                      |
|    \\/     M anipulation  |                                                 |
\*---------------------------------------------------------------------------*/
FoamFile
{
    version     2.0;
    format      ascii;
    class       volVectorField;
    location    "16";
    object      U;
}
// * * * * * * * * * * * * * * * * * * * * * * * * * * * * * * * * * * * * * //

dimensions      [0 1 -1 0 0 0 0];


internalField   nonuniform List<vector> 
1000
(
(0.32059189 0.00015824053 0)
(0.32025349 0.0004758655 0)
(0.31948522 0.00053709393 0)
(0.31869069 0.0004225161 0)
(0.31803486 0.00028247129 0)
(0.31752507 0.00018889148 0)
(0.31711856 0.00014121042 0)
(0.31677741 0.00011660914 0)
(0.31648112 9.930685e-05 0)
(0.31622102 8.4376761e-05 0)
(0.31599248 7.1959934e-05 0)
(0.31579103 6.2584884e-05 0)
(0.31561196 5.5827466e-05 0)
(0.31545101 5.0767612e-05 0)
(0.31530497 4.6625985e-05 0)
(0.31517158 4.2986778e-05 0)
(0.31504924 3.9703465e-05 0)
(0.3149367 3.6736491e-05 0)
(0.31483292 3.4057386e-05 0)
(0.31473699 3.1626708e-05 0)
(0.31464814 2.9404413e-05 0)
(0.31456572 2.7359815e-05 0)
(0.31448916 2.5472612e-05 0)
(0.31441798 2.3728514e-05 0)
(0.31435174 2.211559e-05 0)
(0.31429005 2.0622448e-05 0)
(0.31423256 1.923845e-05 0)
(0.31417896 1.795382e-05 0)
(0.31412896 1.6760041e-05 0)
(0.3140823 1.564947e-05 0)
(0.31403874 1.4615421e-05 0)
(0.31399808 1.3651732e-05 0)
(0.31396011 1.2752982e-05 0)
(0.31392464 1.1914124e-05 0)
(0.31389152 1.1130752e-05 0)
(0.31386058 1.0398721e-05 0)
(0.31383168 9.7144246e-06 0)
(0.31380469 9.0744231e-06 0)
(0.31377948 8.475732e-06 0)
(0.31375593 7.9154552e-06 0)
(0.31373395 7.3910961e-06 0)
(0.31371343 6.9001964e-06 0)
(0.31369427 6.4406505e-06 0)
(0.31367639 6.010346e-06 0)
(0.31365971 5.6074901e-06 0)
(0.31364415 5.2302567e-06 0)
(0.31362963 4.8771098e-06 0)
(0.3136161 4.5464537e-06 0)
(0.31360349 4.236963e-06 0)
(0.31359174 3.9472393e-06 0)
(0.31358079 3.6761356e-06 0)
(0.3135706 3.4224154e-06 0)
(0.31356111 3.1850814e-06 0)
(0.31355228 2.9630413e-06 0)
(0.31354407 2.7554283e-06 0)
(0.31353643 2.5612699e-06 0)
(0.31352933 2.3798112e-06 0)
(0.31352274 2.2101897e-06 0)
(0.31351662 2.0517494e-06 0)
(0.31351093 1.9037195e-06 0)
(0.31350566 1.7655292e-06 0)
(0.31350077 1.6364933e-06 0)
(0.31349624 1.5161171e-06 0)
(0.31349204 1.4037857e-06 0)
(0.31348816 1.2990696e-06 0)
(0.31348456 1.2014203e-06 0)
(0.31348123 1.110467e-06 0)
(0.31347816 1.0257149e-06 0)
(0.31347532 9.4684284e-07 0)
(0.3134727 8.7340793e-07 0)
(0.31347029 8.0513431e-07 0)
(0.31346806 7.4162033e-07 0)
(0.31346601 6.826284e-07 0)
(0.31346412 6.277977e-07 0)
(0.31346239 5.7692648e-07 0)
(0.3134608 5.2968566e-07 0)
(0.31345933 4.8590414e-07 0)
(0.31345799 4.452851e-07 0)
(0.31345676 4.0768734e-07 0)
(0.31345563 3.7283721e-07 0)
(0.3134546 3.406208e-07 0)
(0.31345366 3.1078677e-07 0)
(0.31345281 2.8325146e-07 0)
(0.31345203 2.577731e-07 0)
(0.31345131 2.3430242e-07 0)
(0.31345067 2.1259802e-07 0)
(0.31345008 1.9266038e-07 0)
(0.31344955 1.7421965e-07 0)
(0.31344907 1.5735229e-07 0)
(0.31344864 1.4172229e-07 0)
(0.31344825 1.2753206e-07 0)
(0.3134479 1.1430973e-07 0)
(0.31344758 1.0244956e-07 0)
(0.3134473 9.1269443e-08 0)
(0.31344705 8.1381942e-08 0)
(0.31344682 7.194766e-08 0)
(0.31344662 6.3609414e-08 0)
(0.31344644 5.6088418e-08 0)
(0.31344631 4.8816899e-08 0)
(0.31344612 4.7375234e-08 0)
(0.80389478 0.000174513 0)
(0.80420218 0.00078741959 0)
(0.8037494 0.0011330896 0)
(0.80310021 0.0011381648 0)
(0.80251672 0.00097353139 0)
(0.80201973 0.00079660369 0)
(0.80156547 0.00066692911 0)
(0.80112964 0.00057856682 0)
(0.80071265 0.00051051878 0)
(0.80032261 0.00045085793 0)
(0.79996419 0.00039756518 0)
(0.79963688 0.000351947 0)
(0.79933751 0.0003143374 0)
(0.79906259 0.00028350464 0)
(0.79880932 0.000257683 0)
(0.79857559 0.00023544527 0)
(0.79835962 0.00021591858 0)
(0.79815981 0.00019860873 0)
(0.79797468 0.00018318267 0)
(0.7978029 0.00016935861 0)
(0.79764328 0.0001568873 0)
(0.7974948 0.00014556242 0)
(0.79735655 0.0001352238 0)
(0.79722775 0.00012574847 0)
(0.79710766 0.0001170385 0)
(0.79699563 0.00010901207 0)
(0.79689107 0.00010159896 0)
(0.79679345 9.4738459e-05 0)
(0.79670229 8.8378226e-05 0)
(0.79661713 8.2472862e-05 0)
(0.79653756 7.6982788e-05 0)
(0.79646321 7.1873056e-05 0)
(0.79639373 6.7112697e-05 0)
(0.79632881 6.2674001e-05 0)
(0.79626813 5.8532202e-05 0)
(0.79621142 5.4664943e-05 0)
(0.79615844 5.1052102e-05 0)
(0.79610893 4.7675361e-05 0)
(0.79606268 4.4518123e-05 0)
(0.79601947 4.1565152e-05 0)
(0.79597912 3.8802571e-05 0)
(0.79594144 3.6217559e-05 0)
(0.79590626 3.3798392e-05 0)
(0.79587342 3.1534163e-05 0)
(0.79584278 2.9414865e-05 0)
(0.79581419 2.7431145e-05 0)
(0.79578753 2.5574397e-05 0)
(0.79576267 2.3836535e-05 0)
(0.79573949 2.2210105e-05 0)
(0.7957179 2.0688076e-05 0)
(0.79569778 1.9263964e-05 0)
(0.79567905 1.7931623e-05 0)
(0.79566161 1.6685381e-05 0)
(0.79564539 1.5519851e-05 0)
(0.79563029 1.4430063e-05 0)
(0.79561626 1.3411277e-05 0)
(0.79560322 1.2459124e-05 0)
(0.7955911 1.1569429e-05 0)
(0.79557985 1.0738353e-05 0)
(0.7955694 9.962209e-06 0)
(0.79555971 9.2376142e-06 0)
(0.79555073 8.561316e-06 0)
(0.7955424 7.9303372e-06 0)
(0.79553469 7.3418012e-06 0)
(0.79552755 6.7930806e-06 0)
(0.79552094 6.2816352e-06 0)
(0.79551483 5.8051528e-06 0)
(0.79550919 5.3613833e-06 0)
(0.79550397 4.9482847e-06 0)
(0.79549916 4.5638685e-06 0)
(0.79549472 4.2063381e-06 0)
(0.79549063 3.8739293e-06 0)
(0.79548687 3.5650557e-06 0)
(0.7954834 3.2781571e-06 0)
(0.79548021 3.0118409e-06 0)
(0.79547728 2.7647208e-06 0)
(0.79547459 2.5355706e-06 0)
(0.79547213 2.3231618e-06 0)
(0.79546987 2.1264269e-06 0)
(0.7954678 1.9442665e-06 0)
(0.79546591 1.7757569e-06 0)
(0.79546419 1.6199066e-06 0)
(0.79546261 1.4759456e-06 0)
(0.79546118 1.3429467e-06 0)
(0.79545987 1.2203098e-06 0)
(0.79545868 1.1071143e-06 0)
(0.79545761 1.0029992e-06 0)
(0.79545663 9.0692931e-07 0)
(0.79545575 8.1891162e-07 0)
(0.79545496 7.3758673e-07 0)
(0.79545424 6.636085e-07 0)
(0.79545359 5.9488476e-07 0)
(0.79545301 5.3323306e-07 0)
(0.79545249 4.7507041e-07 0)
(0.79545203 4.244005e-07 0)
(0.79545162 3.747241e-07 0)
(0.79545126 3.3442583e-07 0)
(0.79545091 2.9111424e-07 0)
(0.79545069 2.6303279e-07 0)
(0.79545031 2.2538859e-07 0)
(1.1464206 0.00013847196 0)
(1.147291 0.00072738398 0)
(1.147303 0.0011613407 0)
(1.1471061 0.0012916527 0)
(1.1470114 0.0012189198 0)
(1.1470156 0.001088336 0)
(1.1470276 0.00097762458 0)
(1.1469964 0.0008968962 0)
(1.1469227 0.00083040348 0)
(1.1468268 0.00076620639 0)
(1.1467249 0.00070254595 0)
(1.1466234 0.00064249075 0)
(1.1465229 0.00058852866 0)
(1.1464233 0.00054096908 0)
(1.1463247 0.0004988109 0)
(1.1462283 0.00046091374 0)
(1.1461351 0.00042651188 0)
(1.1460455 0.00039517349 0)
(1.1459598 0.000366603 0)
(1.1458781 0.0003405213 0)
(1.1458003 0.00031664781 0)
(1.1457264 0.00029472427 0)
(1.1456564 0.00027453158 0)
(1.1455901 0.00025588941 0)
(1.1455274 0.00023864654 0)
(1.1454683 0.00022267219 0)
(1.1454125 0.00020785088 0)
(1.1453599 0.00019408041 0)
(1.1453104 0.00018127038 0)
(1.1452639 0.00016934097 0)
(1.1452201 0.00015822118 0)
(1.1451789 0.00014784769 0)
(1.1451403 0.00013816349 0)
(1.145104 0.00012911725 0)
(1.1450699 0.00012066239 0)
(1.145038 0.0001127567 0)
(1.145008 0.00010536164 0)
(1.1449799 9.8442075e-05 0)
(1.1449537 9.1965708e-05 0)
(1.144929 8.5902936e-05 0)
(1.144906 8.022641e-05 0)
(1.1448844 7.4910948e-05 0)
(1.1448642 6.9933178e-05 0)
(1.1448454 6.5271504e-05 0)
(1.1448277 6.0905794e-05 0)
(1.1448112 5.6817402e-05 0)
(1.1447958 5.2988881e-05 0)
(1.1447815 4.9404033e-05 0)
(1.1447681 4.6047658e-05 0)
(1.1447555 4.2905621e-05 0)
(1.1447439 3.9964626e-05 0)
(1.144733 3.7212292e-05 0)
(1.1447228 3.4636946e-05 0)
(1.1447134 3.2227715e-05 0)
(1.1447046 2.9974329e-05 0)
(1.1446964 2.7867217e-05 0)
(1.1446887 2.5897323e-05 0)
(1.1446817 2.4056212e-05 0)
(1.1446751 2.2335894e-05 0)
(1.1446689 2.0728927e-05 0)
(1.1446632 1.9228249e-05 0)
(1.144658 1.7827293e-05 0)
(1.1446531 1.651982e-05 0)
(1.1446485 1.5300029e-05 0)
(1.1446443 1.4162402e-05 0)
(1.1446404 1.3101819e-05 0)
(1.1446368 1.2113402e-05 0)
(1.1446334 1.1192628e-05 0)
(1.1446303 1.0335181e-05 0)
(1.1446275 9.5370684e-06 0)
(1.1446248 8.794477e-06 0)
(1.1446224 8.10388e-06 0)
(1.1446201 7.4619021e-06 0)
(1.1446181 6.8654304e-06 0)
(1.1446162 6.3114876e-06 0)
(1.1446144 5.7973225e-06 0)
(1.1446128 5.3203082e-06 0)
(1.1446113 4.8780122e-06 0)
(1.1446099 4.4681326e-06 0)
(1.1446087 4.0885026e-06 0)
(1.1446075 3.7371254e-06 0)
(1.1446065 3.412045e-06 0)
(1.1446055 3.1115857e-06 0)
(1.1446047 2.8339086e-06 0)
(1.1446039 2.5777202e-06 0)
(1.1446031 2.3411424e-06 0)
(1.1446025 2.1234462e-06 0)
(1.1446019 1.9223897e-06 0)
(1.1446013 1.7382225e-06 0)
(1.1446008 1.5676713e-06 0)
(1.1446004 1.4129088e-06 0)
(1.1446 1.2681811e-06 0)
(1.1445996 1.1396548e-06 0)
(1.1445993 1.0159513e-06 0)
(1.144599 9.1186188e-07 0)
(1.1445987 8.0363679e-07 0)
(1.1445985 7.2474529e-07 0)
(1.1445982 6.2480418e-07 0)
(1.1445981 5.7701351e-07 0)
(1.1445978 4.7737921e-07 0)
(1.3645333 8.6509258e-05 0)
(1.3657592 0.00049155586 0)
(1.36605 0.00082508679 0)
(1.3661296 0.00095849227 0)
(1.3663716 0.00093785857 0)
(1.3667718 0.00086209801 0)
(1.3672005 0.00079324347 0)
(1.3675728 0.00074408566 0)
(1.3678766 0.00070437181 0)
(1.368134 0.00066443051 0)
(1.3683656 0.00062225495 0)
(1.3685801 0.00058029318 0)
(1.3687779 0.00054103289 0)
(1.3689582 0.00050528919 0)
(1.3691217 0.00047266936 0)
(1.3692702 0.0004425138 0)
(1.3694059 0.00041438674 0)
(1.3695305 0.00038809558 0)
(1.3696451 0.00036354417 0)
(1.3697506 0.00034063109 0)
(1.3698478 0.00031923093 0)
(1.3699376 0.00029921509 0)
(1.3700206 0.00028046977 0)
(1.3700974 0.0002629001 0)
(1.3701686 0.00024642488 0)
(1.3702346 0.00023097145 0)
(1.3702959 0.00021647253 0)
(1.3703528 0.00020286583 0)
(1.3704058 0.00019009367 0)
(1.370455 0.00017810318 0)
(1.3705008 0.00016684532 0)
(1.3705435 0.00015627483 0)
(1.3705833 0.00014634934 0)
(1.3706203 0.00013702958 0)
(1.3706548 0.00012827859 0)
(1.370687 0.00012006208 0)
(1.370717 0.0001123477 0)
(1.370745 0.00010510543 0)
(1.370771 9.8306857e-05 0)
(1.3707954 9.1925572e-05 0)
(1.370818 8.5936543e-05 0)
(1.3708392 8.0316516e-05 0)
(1.3708589 7.5043379e-05 0)
(1.3708773 7.0096613e-05 0)
(1.3708944 6.5456659e-05 0)
(1.3709104 6.1105383e-05 0)
(1.3709253 5.702546e-05 0)
(1.3709392 5.3200846e-05 0)
(1.3709521 4.9616178e-05 0)
(1.3709641 4.6257252e-05 0)
(1.3709753 4.3110432e-05 0)
(1.3709857 4.0163137e-05 0)
(1.3709954 3.7403258e-05 0)
(1.3710044 3.4819647e-05 0)
(1.3710128 3.2401548e-05 0)
(1.3710205 3.0139085e-05 0)
(1.3710278 2.8022703e-05 0)
(1.3710345 2.6043652e-05 0)
(1.3710407 2.4193444e-05 0)
(1.3710465 2.2464332e-05 0)
(1.3710518 2.0848777e-05 0)
(1.3710568 1.9339924e-05 0)
(1.3710614 1.7931075e-05 0)
(1.3710656 1.6616168e-05 0)
(1.3710696 1.5389258e-05 0)
(1.3710732 1.4244986e-05 0)
(1.3710766 1.3178072e-05 0)
(1.3710797 1.2183785e-05 0)
(1.3710826 1.1257437e-05 0)
(1.3710852 1.0394853e-05 0)
(1.3710876 9.591871e-06 0)
(1.3710899 8.8448124e-06 0)
(1.371092 8.1499871e-06 0)
(1.3710938 7.5041461e-06 0)
(1.3710956 6.9040202e-06 0)
(1.3710972 6.3467461e-06 0)
(1.3710987 5.8294347e-06 0)
(1.3711 5.3495553e-06 0)
(1.3711012 4.9045685e-06 0)
(1.3711024 4.49222e-06 0)
(1.3711034 4.1103132e-06 0)
(1.3711043 3.7567939e-06 0)
(1.3711052 3.4298391e-06 0)
(1.371106 3.1274688e-06 0)
(1.3711067 2.8483516e-06 0)
(1.3711073 2.5903375e-06 0)
(1.3711079 2.3528862e-06 0)
(1.3711084 2.1331682e-06 0)
(1.3711089 1.9321332e-06 0)
(1.3711093 1.745185e-06 0)
(1.3711097 1.5763027e-06 0)
(1.37111 1.4168168e-06 0)
(1.3711103 1.2770047e-06 0)
(1.3711106 1.1393749e-06 0)
(1.3711109 1.0272581e-06 0)
(1.3711111 9.0497224e-07 0)
(1.3711113 8.2191514e-07 0)
(1.3711115 7.0674313e-07 0)
(1.3711116 6.5827295e-07 0)
(1.3711118 5.4099587e-07 0)
(1.4703792 2.9230184e-05 0)
(1.4717778 0.00017177631 0)
(1.472194 0.0002945266 0)
(1.4723921 0.00034842176 0)
(1.4727845 0.00034556835 0)
(1.473374 0.00032064994 0)
(1.474013 0.00029715908 0)
(1.4745975 0.00028076209 0)
(1.4751066 0.00026793734 0)
(1.4755624 0.00025492451 0)
(1.4759877 0.00024078717 0)
(1.4763917 0.00022639289 0)
(1.4767743 0.00021272585 0)
(1.4771335 0.00020015788 0)
(1.4774693 0.00018858058 0)
(1.4777832 0.00017776288 0)
(1.4780775 0.00016755218 0)
(1.4783537 0.00015789036 0)
(1.4786132 0.00014875883 0)
(1.4788569 0.00014013727 0)
(1.4790857 0.00013199479 0)
(1.4793005 0.00012429729 0)
(1.4795021 0.00011701479 0)
(1.4796913 0.00011012311 0)
(1.4798689 0.00010360218 0)
(1.4800356 9.743396e-05 0)
(1.480192 9.1601318e-05 0)
(1.4803388 8.6087864e-05 0)
(1.4804764 8.0877964e-05 0)
(1.4806055 7.5956801e-05 0)
(1.4807265 7.1310275e-05 0)
(1.4808399 6.6924917e-05 0)
(1.4809462 6.2787769e-05 0)
(1.4810458 5.8886388e-05 0)
(1.4811391 5.5208801e-05 0)
(1.4812264 5.1743538e-05 0)
(1.4813082 4.8479575e-05 0)
(1.4813848 4.5406371e-05 0)
(1.4814564 4.2513814e-05 0)
(1.4815235 3.9792261e-05 0)
(1.4815861 3.7232475e-05 0)
(1.4816447 3.482566e-05 0)
(1.4816995 3.2563412e-05 0)
(1.4817507 3.043775e-05 0)
(1.4817985 2.8441056e-05 0)
(1.4818431 2.6566105e-05 0)
(1.4818848 2.480601e-05 0)
(1.4819237 2.3154259e-05 0)
(1.48196 2.1604647e-05 0)
(1.4819938 2.0151312e-05 0)
(1.4820253 1.8788672e-05 0)
(1.4820547 1.7511471e-05 0)
(1.4820821 1.6314705e-05 0)
(1.4821076 1.519366e-05 0)
(1.4821313 1.4143857e-05 0)
(1.4821534 1.3161087e-05 0)
(1.482174 1.2241347e-05 0)
(1.482193 1.1380878e-05 0)
(1.4822108 1.0576108e-05 0)
(1.4822273 9.8236923e-06 0)
(1.4822425 9.1204499e-06 0)
(1.4822567 8.4634006e-06 0)
(1.4822699 7.8497121e-06 0)
(1.4822821 7.2767406e-06 0)
(1.4822934 6.7419695e-06 0)
(1.4823039 6.2430471e-06 0)
(1.4823135 5.777737e-06 0)
(1.4823225 5.3439571e-06 0)
(1.4823308 4.9397239e-06 0)
(1.4823384 4.5631873e-06 0)
(1.4823455 4.2125886e-06 0)
(1.482352 3.8862893e-06 0)
(1.482358 3.5827324e-06 0)
(1.4823635 3.3004695e-06 0)
(1.4823686 3.0381213e-06 0)
(1.4823733 2.7944071e-06 0)
(1.4823776 2.5681127e-06 0)
(1.4823815 2.3580968e-06 0)
(1.4823851 2.1632977e-06 0)
(1.4823885 1.9826946e-06 0)
(1.4823915 1.8153811e-06 0)
(1.4823943 1.6604102e-06 0)
(1.4823968 1.5170505e-06 0)
(1.4823991 1.3843703e-06 0)
(1.4824012 1.2618841e-06 0)
(1.4824031 1.1485345e-06 0)
(1.4824049 1.044249e-06 0)
(1.4824065 9.4757541e-07 0)
(1.4824079 8.5923728e-07 0)
(1.4824092 7.7679951e-07 0)
(1.4824104 7.0259282e-07 0)
(1.4824114 6.3200579e-07 0)
(1.4824124 5.7064403e-07 0)
(1.4824132 5.0938645e-07 0)
(1.482414 4.6038074e-07 0)
(1.4824147 4.0561357e-07 0)
(1.4824152 3.6961662e-07 0)
(1.4824159 3.1772499e-07 0)
(1.4824162 2.9673172e-07 0)
(1.4824169 2.4350476e-07 0)
(1.4703791 -2.9229422e-05 0)
(1.4717777 -0.00017177381 0)
(1.4721939 -0.00029452765 0)
(1.4723921 -0.00034842425 0)
(1.4727844 -0.00034556459 0)
(1.473374 -0.00032063279 0)
(1.474013 -0.00029712883 0)
(1.4745974 -0.00028072305 0)
(1.4751066 -0.00026789432 0)
(1.4755624 -0.00025487971 0)
(1.4759877 -0.00024074155 0)
(1.4763917 -0.00022634692 0)
(1.4767743 -0.0002126805 0)
(1.4771335 -0.00020011418 0)
(1.4774693 -0.00018853945 0)
(1.4777832 -0.00017772496 0)
(1.4780775 -0.00016751785 0)
(1.4783538 -0.00015785991 0)
(1.4786133 -0.00014873235 0)
(1.478857 -0.00014011487 0)
(1.4790857 -0.00013197633 0)
(1.4793005 -0.00012428276 0)
(1.4795021 -0.00011700389 0)
(1.4796913 -0.00011011572 0)
(1.479869 -0.00010359792 0)
(1.4800357 -9.743269e-05 0)
(1.4801921 -9.1602602e-05 0)
(1.4803388 -8.6091517e-05 0)
(1.4804764 -8.0883546e-05 0)
(1.4806055 -7.5964199e-05 0)
(1.4807265 -7.131909e-05 0)
(1.4808399 -6.693507e-05 0)
(1.4809462 -6.2798892e-05 0)
(1.4810458 -5.8898464e-05 0)
(1.4811391 -5.5221511e-05 0)
(1.4812265 -5.1756905e-05 0)
(1.4813082 -4.8493315e-05 0)
(1.4813848 -4.5420555e-05 0)
(1.4814564 -4.2528186e-05 0)
(1.4815235 -3.9806906e-05 0)
(1.4815861 -3.7247146e-05 0)
(1.4816447 -3.4840461e-05 0)
(1.4816995 -3.2578105e-05 0)
(1.4817507 -3.0452433e-05 0)
(1.4817985 -2.8455489e-05 0)
(1.4818431 -2.6580394e-05 0)
(1.4818848 -2.4819926e-05 0)
(1.4819237 -2.3167905e-05 0)
(1.48196 -2.1617797e-05 0)
(1.4819938 -2.0164085e-05 0)
(1.4820253 -1.8800861e-05 0)
(1.4820547 -1.75232e-05 0)
(1.4820821 -1.6325778e-05 0)
(1.4821076 -1.5204222e-05 0)
(1.4821313 -1.4153731e-05 0)
(1.4821534 -1.3170421e-05 0)
(1.4821739 -1.2249974e-05 0)
(1.482193 -1.138896e-05 0)
(1.4822108 -1.0583491e-05 0)
(1.4822272 -9.8305344e-06 0)
(1.4822425 -9.1265976e-06 0)
(1.4822567 -8.4690186e-06 0)
(1.4822699 -7.8546549e-06 0)
(1.4822821 -7.2811646e-06 0)
(1.4822934 -6.7457276e-06 0)
(1.4823038 -6.2463016e-06 0)
(1.4823135 -5.7803485e-06 0)
(1.4823225 -5.3460825e-06 0)
(1.4823307 -4.9412253e-06 0)
(1.4823384 -4.564232e-06 0)
(1.4823454 -4.2130484e-06 0)
(1.482352 -3.8863355e-06 0)
(1.482358 -3.5822487e-06 0)
(1.4823635 -3.2996323e-06 0)
(1.4823686 -3.0368232e-06 0)
(1.4823732 -2.7928236e-06 0)
(1.4823775 -2.5661404e-06 0)
(1.4823815 -2.3559204e-06 0)
(1.4823851 -2.1608214e-06 0)
(1.4823884 -1.9800971e-06 0)
(1.4823915 -1.8125635e-06 0)
(1.4823942 -1.6575558e-06 0)
(1.4823968 -1.514061e-06 0)
(1.4823991 -1.3814201e-06 0)
(1.4824012 -1.2588651e-06 0)
(1.4824031 -1.1456253e-06 0)
(1.4824049 -1.041336e-06 0)
(1.4824065 -9.448321e-07 0)
(1.4824079 -8.5653572e-07 0)
(1.4824092 -7.743261e-07 0)
(1.4824103 -7.0021849e-07 0)
(1.4824114 -6.2994805e-07 0)
(1.4824123 -5.6877552e-07 0)
(1.4824132 -5.0791665e-07 0)
(1.482414 -4.5912289e-07 0)
(1.4824147 -4.0460727e-07 0)
(1.4824152 -3.6879362e-07 0)
(1.4824159 -3.1697743e-07 0)
(1.4824162 -2.9664169e-07 0)
(1.4824169 -2.4404699e-07 0)
(1.3645333 -8.6509719e-05 0)
(1.3657592 -0.00049156647 0)
(1.3660499 -0.00082510611 0)
(1.3661296 -0.00095851246 0)
(1.3663716 -0.00093787103 0)
(1.3667718 -0.00086209872 0)
(1.3672005 -0.00079323273 0)
(1.3675728 -0.00074406653 0)
(1.3678766 -0.00070434693 0)
(1.368134 -0.00066440172 0)
(1.3683656 -0.00062222326 0)
(1.3685801 -0.00058025967 0)
(1.3687779 -0.00054099867 0)
(1.3689583 -0.00050525542 0)
(1.3691217 -0.00047263699 0)
(1.3692703 -0.00044248352 0)
(1.369406 -0.00041435909 0)
(1.3695305 -0.00038807087 0)
(1.3696451 -0.00036352266 0)
(1.3697506 -0.00034061283 0)
(1.3698479 -0.00031921599 0)
(1.3699377 -0.00029920332 0)
(1.3700207 -0.00028046111 0)
(1.3700975 -0.00026289427 0)
(1.3701687 -0.00024642175 0)
(1.3702347 -0.0002309707 0)
(1.370296 -0.00021647399 0)
(1.3703529 -0.00020286917 0)
(1.3704058 -0.00019009876 0)
(1.3704551 -0.00017810967 0)
(1.3705009 -0.0001668531 0)
(1.3705435 -0.00015628358 0)
(1.3705833 -0.00014635901 0)
(1.3706203 -0.00013703988 0)
(1.3706548 -0.00012828951 0)
(1.370687 -0.00012007337 0)
(1.370717 -0.0001123594 0)
(1.370745 -0.00010511733 0)
(1.3707711 -9.8318995e-05 0)
(1.3707954 -9.1937759e-05 0)
(1.3708181 -8.5948843e-05 0)
(1.3708392 -8.032875e-05 0)
(1.3708589 -7.5055613e-05 0)
(1.3708773 -7.0108663e-05 0)
(1.3708944 -6.5468598e-05 0)
(1.3709104 -6.1117037e-05 0)
(1.3709253 -5.7036897e-05 0)
(1.3709391 -5.3211892e-05 0)
(1.3709521 -4.9626913e-05 0)
(1.3709641 -4.6267517e-05 0)
(1.3709753 -4.3120312e-05 0)
(1.3709857 -4.0172479e-05 0)
(1.3709954 -3.7412163e-05 0)
(1.3710044 -3.4827983e-05 0)
(1.3710127 -3.2409421e-05 0)
(1.3710205 -3.0146369e-05 0)
(1.3710277 -2.8029516e-05 0)
(1.3710344 -2.6049883e-05 0)
(1.3710407 -2.4199211e-05 0)
(1.3710464 -2.2469524e-05 0)
(1.3710518 -2.0853518e-05 0)
(1.3710568 -1.934411e-05 0)
(1.3710613 -1.7934825e-05 0)
(1.3710656 -1.6619376e-05 0)
(1.3710695 -1.5392044e-05 0)
(1.3710732 -1.424725e-05 0)
(1.3710765 -1.3179932e-05 0)
(1.3710796 -1.2185139e-05 0)
(1.3710825 -1.125841e-05 0)
(1.3710852 -1.0395354e-05 0)
(1.3710876 -9.5920263e-06 0)
(1.3710898 -8.8445287e-06 0)
(1.3710919 -8.1493934e-06 0)
(1.3710938 -7.5031669e-06 0)
(1.3710955 -6.9027877e-06 0)
(1.3710971 -6.3451865e-06 0)
(1.3710986 -5.8276865e-06 0)
(1.3711 -5.3475535e-06 0)
(1.3711012 -4.9024479e-06 0)
(1.3711023 -4.4899127e-06 0)
(1.3711033 -4.1079562e-06 0)
(1.3711043 -3.7543233e-06 0)
(1.3711051 -3.427384e-06 0)
(1.3711059 -3.1249586e-06 0)
(1.3711066 -2.8459144e-06 0)
(1.3711073 -2.5879038e-06 0)
(1.3711078 -2.3505754e-06 0)
(1.3711084 -2.1309032e-06 0)
(1.3711088 -1.9300332e-06 0)
(1.3711093 -1.7431773e-06 0)
(1.3711097 -1.5745084e-06 0)
(1.37111 -1.4151677e-06 0)
(1.3711103 -1.2756264e-06 0)
(1.3711106 -1.1382069e-06 0)
(1.3711108 -1.0263372e-06 0)
(1.3711111 -9.0422498e-07 0)
(1.3711112 -8.2128463e-07 0)
(1.3711114 -7.0613698e-07 0)
(1.3711115 -6.5789133e-07 0)
(1.3711117 -5.4085706e-07 0)
(1.1464206 -0.00013847147 0)
(1.147291 -0.00072737436 0)
(1.1473029 -0.0011613268 0)
(1.147106 -0.0012916437 0)
(1.1470114 -0.0012189176 0)
(1.1470156 -0.0010883383 0)
(1.1470276 -0.00097762643 0)
(1.1469964 -0.00089689437 0)
(1.1469227 -0.00083039638 0)
(1.1468268 -0.00076619458 0)
(1.1467249 -0.00070253039 0)
(1.1466234 -0.00064247268 0)
(1.146523 -0.00058850897 0)
(1.1464233 -0.00054094869 0)
(1.1463248 -0.00049879059 0)
(1.1462284 -0.00046089423 0)
(1.1461351 -0.00042649379 0)
(1.1460455 -0.00039515717 0)
(1.1459599 -0.00036658878 0)
(1.1458781 -0.00034050922 0)
(1.1458003 -0.00031663803 0)
(1.1457265 -0.00029471662 0)
(1.1456564 -0.00027452612 0)
(1.1455901 -0.00025588586 0)
(1.1455275 -0.0002386449 0)
(1.1454684 -0.00022267211 0)
(1.1454126 -0.00020785236 0)
(1.14536 -0.00019408309 0)
(1.1453105 -0.00018127429 0)
(1.1452639 -0.00016934572 0)
(1.1452201 -0.0001582268 0)
(1.145179 -0.00014785384 0)
(1.1451403 -0.00013817025 0)
(1.145104 -0.00012912429 0)
(1.14507 -0.00012066983 0)
(1.145038 -0.00011276426 0)
(1.1450081 -0.00010536946 0)
(1.14498 -9.8449885e-05 0)
(1.1449537 -9.1973671e-05 0)
(1.1449291 -8.5910798e-05 0)
(1.144906 -8.0234354e-05 0)
(1.1448844 -7.4918723e-05 0)
(1.1448642 -6.9940962e-05 0)
(1.1448454 -6.5279049e-05 0)
(1.1448277 -6.091329e-05 0)
(1.1448112 -5.68246e-05 0)
(1.1447958 -5.299596e-05 0)
(1.1447815 -4.9410753e-05 0)
(1.144768 -4.605421e-05 0)
(1.1447555 -4.2911769e-05 0)
(1.1447438 -3.9970558e-05 0)
(1.1447329 -3.7217784e-05 0)
(1.1447228 -3.4642202e-05 0)
(1.1447133 -3.2232519e-05 0)
(1.1447045 -2.997888e-05 0)
(1.1446963 -2.7871313e-05 0)
(1.1446887 -2.5901176e-05 0)
(1.1446816 -2.4059625e-05 0)
(1.144675 -2.233907e-05 0)
(1.1446689 -2.0731675e-05 0)
(1.1446632 -1.9230782e-05 0)
(1.1446579 -1.7829419e-05 0)
(1.144653 -1.6521738e-05 0)
(1.1446485 -1.5301554e-05 0)
(1.1446442 -1.4163739e-05 0)
(1.1446403 -1.3102782e-05 0)
(1.1446367 -1.2114184e-05 0)
(1.1446334 -1.1193049e-05 0)
(1.1446303 -1.0335443e-05 0)
(1.1446274 -9.5369937e-06 0)
(1.1446248 -8.7942562e-06 0)
(1.1446223 -8.1033422e-06 0)
(1.1446201 -7.4612507e-06 0)
(1.144618 -6.8645016e-06 0)
(1.1446161 -6.3104766e-06 0)
(1.1446143 -5.7960726e-06 0)
(1.1446127 -5.3190242e-06 0)
(1.1446112 -4.8765379e-06 0)
(1.1446099 -4.4666623e-06 0)
(1.1446086 -4.086885e-06 0)
(1.1446075 -3.7355617e-06 0)
(1.1446064 -3.410381e-06 0)
(1.1446055 -3.1100102e-06 0)
(1.1446046 -2.8322686e-06 0)
(1.1446038 -2.5762106e-06 0)
(1.1446031 -2.3396042e-06 0)
(1.1446024 -2.1220634e-06 0)
(1.1446018 -1.921002e-06 0)
(1.1446013 -1.7370242e-06 0)
(1.1446008 -1.5664948e-06 0)
(1.1446003 -1.4119475e-06 0)
(1.1445999 -1.2672499e-06 0)
(1.1445995 -1.1389564e-06 0)
(1.1445992 -1.0152868e-06 0)
(1.1445989 -9.1139821e-07 0)
(1.1445987 -8.0326443e-07 0)
(1.1445984 -7.2439539e-07 0)
(1.1445982 -6.2444275e-07 0)
(1.1445981 -5.7639626e-07 0)
(1.1445978 -4.7653213e-07 0)
(0.80389481 -0.00017450783 0)
(0.80420222 -0.00078740096 0)
(0.80374944 -0.001133068 0)
(0.80310025 -0.001138154 0)
(0.80251677 -0.00097353969 0)
(0.80201978 -0.00079662818 0)
(0.80156552 -0.00066696027 0)
(0.80112968 -0.00057859495 0)
(0.80071268 -0.0005105392 0)
(0.80032264 -0.00045087037 0)
(0.79996421 -0.00039757155 0)
(0.79963691 -0.00035194906 0)
(0.79933754 -0.00031433638 0)
(0.79906262 -0.0002835014 0)
(0.79880936 -0.00025767834 0)
(0.79857563 -0.00023544002 0)
(0.79835966 -0.00021591333 0)
(0.79815986 -0.00019860397 0)
(0.79797474 -0.00018317859 0)
(0.79780296 -0.00016935542 0)
(0.79764334 -0.00015688496 0)
(0.79749486 -0.00014556102 0)
(0.79735662 -0.00013522321 0)
(0.79722781 -0.00012574871 0)
(0.79710772 -0.0001170394 0)
(0.79699569 -0.00010901363 0)
(0.79689113 -0.00010160098 0)
(0.79679351 -9.4740977e-05 0)
(0.79670234 -8.8381033e-05 0)
(0.79661718 -8.2475988e-05 0)
(0.79653761 -7.6986037e-05 0)
(0.79646326 -7.1876497e-05 0)
(0.79639378 -6.7116153e-05 0)
(0.79632885 -6.2677551e-05 0)
(0.79626816 -5.8535682e-05 0)
(0.79621146 -5.4668463e-05 0)
(0.79615846 -5.1055513e-05 0)
(0.79610895 -4.7678775e-05 0)
(0.79606269 -4.4521397e-05 0)
(0.79601949 -4.1568416e-05 0)
(0.79597913 -3.8805688e-05 0)
(0.79594144 -3.6220649e-05 0)
(0.79590626 -3.3801317e-05 0)
(0.79587342 -3.1537053e-05 0)
(0.79584277 -2.9417581e-05 0)
(0.79581418 -2.7433804e-05 0)
(0.79578751 -2.5576861e-05 0)
(0.79576265 -2.3838929e-05 0)
(0.79573947 -2.2212294e-05 0)
(0.79571788 -2.0690177e-05 0)
(0.79569776 -1.9265844e-05 0)
(0.79567902 -1.7933412e-05 0)
(0.79566158 -1.6686953e-05 0)
(0.79564535 -1.5521328e-05 0)
(0.79563026 -1.4431325e-05 0)
(0.79561622 -1.3412457e-05 0)
(0.79560318 -1.2460106e-05 0)
(0.79559106 -1.1570338e-05 0)
(0.7955798 -1.0739074e-05 0)
(0.79556936 -9.9628747e-06 0)
(0.79555967 -9.2381115e-06 0)
(0.79555068 -8.5617646e-06 0)
(0.79554236 -7.930623e-06 0)
(0.79553464 -7.3420497e-06 0)
(0.7955275 -6.7931792e-06 0)
(0.7955209 -6.281697e-06 0)
(0.79551479 -5.8050644e-06 0)
(0.79550914 -5.361265e-06 0)
(0.79550393 -4.9480261e-06 0)
(0.79549911 -4.5635797e-06 0)
(0.79549468 -4.2059103e-06 0)
(0.79549059 -3.8734826e-06 0)
(0.79548682 -3.5644864e-06 0)
(0.79548335 -3.2775775e-06 0)
(0.79548017 -3.0111494e-06 0)
(0.79547724 -2.764039e-06 0)
(0.79547455 -2.534801e-06 0)
(0.79547209 -2.3224171e-06 0)
(0.79546983 -2.1256107e-06 0)
(0.79546776 -1.9434993e-06 0)
(0.79546587 -1.7749444e-06 0)
(0.79546415 -1.6191587e-06 0)
(0.79546257 -1.4751671e-06 0)
(0.79546114 -1.3422535e-06 0)
(0.79545983 -1.2196076e-06 0)
(0.79545865 -1.1065075e-06 0)
(0.79545757 -1.0023926e-06 0)
(0.7954566 -9.0643214e-07 0)
(0.79545572 -8.1843254e-07 0)
(0.79545492 -7.3722288e-07 0)
(0.7954542 -6.6326134e-07 0)
(0.79545356 -5.9463453e-07 0)
(0.79545298 -5.3296587e-07 0)
(0.79545246 -4.7483988e-07 0)
(0.795452 -4.2419907e-07 0)
(0.79545159 -3.7456946e-07 0)
(0.79545123 -3.3422412e-07 0)
(0.79545088 -2.9090998e-07 0)
(0.79545066 -2.6230554e-07 0)
(0.79545028 -2.2430595e-07 0)
(0.32059202 -0.00015823324 0)
(0.32025358 -0.00047585323 0)
(0.31948527 -0.00053708674 0)
(0.31869072 -0.00042252026 0)
(0.31803489 -0.00028248908 0)
(0.31752509 -0.00018891756 0)
(0.31711857 -0.00014123697 0)
(0.31677741 -0.00011663 0)
(0.3164811 -9.93208e-05 0)
(0.31622099 -8.438526e-05 0)
(0.31599245 -7.1965265e-05 0)
(0.31579101 -6.2588335e-05 0)
(0.31561194 -5.5829709e-05 0)
(0.315451 -5.0768944e-05 0)
(0.31530496 -4.6626729e-05 0)
(0.31517158 -4.2987266e-05 0)
(0.31504924 -3.9703889e-05 0)
(0.31493671 -3.6737022e-05 0)
(0.31483293 -3.4057998e-05 0)
(0.314737 -3.1627484e-05 0)
(0.31464816 -2.9405246e-05 0)
(0.31456574 -2.7360798e-05 0)
(0.31448918 -2.5473614e-05 0)
(0.314418 -2.372964e-05 0)
(0.31435176 -2.2116681e-05 0)
(0.31429007 -2.0623625e-05 0)
(0.31423258 -1.9239553e-05 0)
(0.31417898 -1.7954986e-05 0)
(0.31412898 -1.6761095e-05 0)
(0.31408232 -1.5650561e-05 0)
(0.31403876 -1.4616379e-05 0)
(0.3139981 -1.3652721e-05 0)
(0.31396012 -1.2753821e-05 0)
(0.31392466 -1.1914986e-05 0)
(0.31389153 -1.1131464e-05 0)
(0.31386059 -1.0399463e-05 0)
(0.31383169 -9.715016e-06 0)
(0.31380469 -9.0750473e-06 0)
(0.31377948 -8.4762166e-06 0)
(0.31375594 -7.9159872e-06 0)
(0.31373395 -7.3914929e-06 0)
(0.31371343 -6.9006426e-06 0)
(0.31369427 -6.4409707e-06 0)
(0.31367639 -6.0107245e-06 0)
(0.31365971 -5.6077418e-06 0)
(0.31364414 -5.2305619e-06 0)
(0.31362963 -4.8772922e-06 0)
(0.3136161 -4.5466936e-06 0)
(0.31360348 -4.2370771e-06 0)
(0.31359173 -3.9474051e-06 0)
(0.31358078 -3.676181e-06 0)
(0.31357059 -3.4225188e-06 0)
(0.3135611 -3.1850657e-06 0)
(0.31355227 -2.9630823e-06 0)
(0.31354405 -2.7553601e-06 0)
(0.31353642 -2.5612686e-06 0)
(0.31352932 -2.3797054e-06 0)
(0.31352272 -2.2101511e-06 0)
(0.3135166 -2.0516167e-06 0)
(0.31351092 -1.9036629e-06 0)
(0.31350564 -1.765381e-06 0)
(0.31350075 -1.6364183e-06 0)
(0.31349622 -1.5159565e-06 0)
(0.31349202 -1.4037023e-06 0)
(0.31348814 -1.2988984e-06 0)
(0.31348454 -1.2013195e-06 0)
(0.31348122 -1.1102808e-06 0)
(0.31347815 -1.0256004e-06 0)
(0.31347531 -9.4663931e-07 0)
(0.31347269 -8.7326927e-07 0)
(0.31347027 -8.0490972e-07 0)
(0.31346805 -7.414638e-07 0)
(0.313466 -6.8238482e-07 0)
(0.31346411 -6.2761887e-07 0)
(0.31346237 -5.7666733e-07 0)
(0.31346078 -5.2949844e-07 0)
(0.31345932 -4.8563925e-07 0)
(0.31345798 -4.4509223e-07 0)
(0.31345675 -4.0742595e-07 0)
(0.31345562 -3.7265693e-07 0)
(0.31345459 -3.4037576e-07 0)
(0.31345365 -3.1062335e-07 0)
(0.31345279 -2.8303171e-07 0)
(0.31345201 -2.576427e-07 0)
(0.3134513 -2.3411762e-07 0)
(0.31345066 -2.1250109e-07 0)
(0.31345007 -1.925149e-07 0)
(0.31344954 -1.7416738e-07 0)
(0.31344906 -1.5725247e-07 0)
(0.31344863 -1.417107e-07 0)
(0.31344824 -1.2746456e-07 0)
(0.31344788 -1.1430939e-07 0)
(0.31344757 -1.0234849e-07 0)
(0.31344729 -9.1219835e-08 0)
(0.31344704 -8.1290094e-08 0)
(0.31344681 -7.1868641e-08 0)
(0.31344662 -6.3510644e-08 0)
(0.31344644 -5.5949762e-08 0)
(0.3134463 -4.8366015e-08 0)
(0.31344612 -4.6826562e-08 0)
)
;

boundaryField
{
    top
    {
        type            fixedValue;
        value           uniform (0 0 0);
    }
    inlet
    {
        type            pressureNormalInletOutletVelocity;
        phi             phi;
        rho             rho;
        value           nonuniform List<vector> 10((0.32063567 0 0) (0.80402038 0 0) (1.1466712 0 0) (1.3648943 0 0) (1.4708023 0 0) (1.4708022 -0 0) (1.3648943 -0 0) (1.1466712 -0 0) (0.80402042 -0 0) (0.3206358 -0 0));
    }
    outlet