/*--------------------------------*- C++ -*----------------------------------*\
| =========                 |                                                 |
| \\      /  F ield         | OpenFOAM: The Open Source CFD Toolbox           |
|  \\    /   O peration     | Version:  v1812                                 |
|   \\  /    A nd           | Web:      www.OpenFOAM.com                      |
|    \\/     M anipulation  |                                                 |
\*---------------------------------------------------------------------------*/
FoamFile
{
    version     2.0;
    format      ascii;
    class       volScalarField;
    location    "30";
    object      T;
}
// * * * * * * * * * * * * * * * * * * * * * * * * * * * * * * * * * * * * * //

dimensions      [0 0 0 1 0 0 0];


internalField   nonuniform List<scalar> 
10000
(
1.42248
1.42248
1.42248
1.42248
1.42248
1.42248
1.42248
1.42248
1.42248
1.42248
1.26875
1.26876
1.26875
1.26875
1.26875
1.26875
1.26875
1.26875
1.26875
1.26875
1.11887
1.11887
1.11887
1.11887
1.11887
1.11887
1.11887
1.11887
1.11887
1.11887
0.975185
0.975185
0.975184
0.975184
0.975183
0.975183
0.975183
0.975184
0.975184
0.975184
0.839739
0.83974
0.839739
0.839738
0.839738
0.839738
0.839738
0.839738
0.839739
0.839738
0.714194
0.714195
0.714194
0.714193
0.714192
0.714192
0.714193
0.714193
0.714193
0.714193
0.599764
0.599764
0.599763
0.599762
0.599762
0.599762
0.599762
0.599763
0.599763
0.599763
0.497197
0.497197
0.497196
0.497195
0.497195
0.497195
0.497195
0.497196
0.497196
0.497196
0.406786
0.406786
0.406785
0.406785
0.406784
0.406784
0.406785
0.406785
0.406786
0.406786
0.328407
0.328407
0.328406
0.328405
0.328405
0.328405
0.328405
0.328406
0.328407
0.328407
0.261575
0.261575
0.261574
0.261573
0.261573
0.261573
0.261574
0.261574
0.261575
0.261575
0.205522
0.205522
0.205522
0.205521
0.205521
0.205521
0.205521
0.205522
0.205523
0.205523
0.159277
0.159277
0.159276
0.159276
0.159276
0.159276
0.159276
0.159277
0.159277
0.159277
0.121741
0.121741
0.121741
0.12174
0.12174
0.12174
0.121741
0.121741
0.121742
0.121742
0.0917663
0.0917664
0.0917659
0.0917656
0.0917655
0.0917657
0.091766
0.0917665
0.0917671
0.0917671
0.0682132
0.0682133
0.0682129
0.0682126
0.0682126
0.0682127
0.068213
0.0682135
0.068214
0.068214
0.0500009
0.050001
0.0500007
0.0500005
0.0500005
0.0500006
0.0500009
0.0500012
0.0500017
0.0500017
0.0361413
0.0361414
0.0361411
0.036141
0.036141
0.0361411
0.0361413
0.0361417
0.036142
0.0361421
0.02576
0.02576
0.0257598
0.0257597
0.0257597
0.0257598
0.02576
0.0257603
0.0257606
0.0257606
0.0181054
0.0181054
0.0181052
0.0181052
0.0181052
0.0181052
0.0181054
0.0181056
0.0181058
0.0181059
0.0125487
0.0125487
0.0125486
0.0125485
0.0125485
0.0125486
0.0125487
0.0125489
0.0125491
0.0125491
0.00857694
0.00857694
0.00857686
0.00857681
0.00857682
0.00857686
0.00857695
0.00857707
0.00857721
0.00857723
0.00578135
0.00578135
0.00578128
0.00578125
0.00578124
0.00578127
0.00578132
0.0057814
0.00578149
0.0057815
0.00384336
0.00384336
0.00384331
0.00384327
0.00384325
0.00384325
0.00384326
0.00384328
0.00384332
0.00384331
0.00252003
0.00252002
0.00251997
0.00251993
0.00251988
0.00251984
0.00251979
0.00251974
0.0025197
0.00251965
0.00162981
0.0016298
0.00162975
0.00162969
0.00162961
0.0016295
0.00162935
0.00162917
0.001629
0.00162887
0.00103978
0.00103976
0.0010397
0.0010396
0.00103946
0.00103925
0.00103894
0.00103853
0.00103809
0.00103776
0.000654399
0.000654368
0.000654291
0.000654158
0.000653933
0.000653562
0.000652979
0.000652145
0.000651136
0.000650297
0.000406323
0.000406283
0.000406185
0.000406002
0.000405671
0.000405086
0.000404089
0.000402497
0.000400266
0.000398023
0.000248916
0.000248869
0.00024875
0.000248518
0.000248078
0.000247253
0.000245725
0.00024296
0.000238251
0.000231761
1.42248
1.42248
1.42248
1.42248
1.42248
1.42248
1.42248
1.42248
1.42248
1.42248
1.26876
1.26876
1.26875
1.26875
1.26875
1.26875
1.26875
1.26875
1.26875
1.26875
1.11887
1.11887
1.11887
1.11887
1.11887
1.11887
1.11887
1.11887
1.11887
1.11887
0.975185
0.975185
0.975184
0.975184
0.975183
0.975183
0.975183
0.975184
0.975184
0.975184
0.83974
0.83974
0.839739
0.839738
0.839738
0.839738
0.839738
0.839738
0.839739
0.839739
0.714195
0.714195
0.714194
0.714193
0.714192
0.714192
0.714193
0.714193
0.714194
0.714194
0.599764
0.599764
0.599763
0.599762
0.599762
0.599762
0.599762
0.599763
0.599764
0.599763
0.497197
0.497197
0.497196
0.497195
0.497195
0.497195
0.497195
0.497196
0.497197
0.497197
0.406786
0.406786
0.406785
0.406784
0.406784
0.406784
0.406785
0.406785
0.406786
0.406786
0.328407
0.328407
0.328406
0.328405
0.328405
0.328405
0.328405
0.328406
0.328407
0.328407
0.261575
0.261575
0.261574
0.261573
0.261573
0.261573
0.261574
0.261574
0.261575
0.261575
0.205522
0.205522
0.205521
0.205521
0.205521
0.205521
0.205521
0.205522
0.205523
0.205523
0.159277
0.159277
0.159276
0.159276
0.159275
0.159276
0.159276
0.159277
0.159278
0.159278
0.121741
0.121741
0.12174
0.12174
0.12174
0.12174
0.121741
0.121741
0.121742
0.121742
0.0917664
0.0917663
0.0917658
0.0917655
0.0917654
0.0917656
0.091766
0.0917666
0.0917673
0.0917673
0.0682133
0.0682132
0.0682128
0.0682125
0.0682125
0.0682126
0.068213
0.0682135
0.0682141
0.0682142
0.050001
0.0500009
0.0500006
0.0500004
0.0500004
0.0500005
0.0500008
0.0500013
0.0500018
0.0500018
0.0361414
0.0361413
0.0361411
0.0361409
0.0361409
0.036141
0.0361413
0.0361417
0.0361421
0.0361422
0.02576
0.02576
0.0257598
0.0257597
0.0257597
0.0257598
0.02576
0.0257603
0.0257607
0.0257607
0.0181054
0.0181053
0.0181052
0.0181051
0.0181051
0.0181052
0.0181054
0.0181056
0.0181059
0.018106
0.0125487
0.0125487
0.0125485
0.0125485
0.0125485
0.0125486
0.0125487
0.0125489
0.0125491
0.0125491
0.00857694
0.00857692
0.00857683
0.00857678
0.00857679
0.00857684
0.00857693
0.00857707
0.00857724
0.00857727
0.00578135
0.00578133
0.00578126
0.00578123
0.00578122
0.00578125
0.00578131
0.0057814
0.00578151
0.00578153
0.00384337
0.00384335
0.00384329
0.00384326
0.00384324
0.00384324
0.00384325
0.00384328
0.00384334
0.00384333
0.00252003
0.00252001
0.00251996
0.00251991
0.00251987
0.00251983
0.00251978
0.00251974
0.00251971
0.00251967
0.00162981
0.00162979
0.00162974
0.00162968
0.0016296
0.00162949
0.00162934
0.00162917
0.00162901
0.00162888
0.00103978
0.00103975
0.00103969
0.0010396
0.00103946
0.00103924
0.00103893
0.00103853
0.0010381
0.00103777
0.000654398
0.000654365
0.000654287
0.000654154
0.000653929
0.000653558
0.000652976
0.000652144
0.00065114
0.000650301
0.000406322
0.000406281
0.000406182
0.000405999
0.000405668
0.000405084
0.000404087
0.000402497
0.000400268
0.000398025
0.000248916
0.000248867
0.000248748
0.000248516
0.000248076
0.000247252
0.000245724
0.00024296
0.000238252
0.000231763
1.42248
1.42248
1.42248
1.42248
1.42248
1.42248
1.42248
1.42248
1.42248
1.42248
1.26875
1.26875
1.26875
1.26875
1.26875
1.26875
1.26875
1.26875
1.26875
1.26875
1.11887
1.11887
1.11887
1.11887
1.11887
1.11887
1.11887
1.11887
1.11887
1.11887
0.975184
0.975184
0.975183
0.975183
0.975182
0.975182
0.975182
0.975183
0.975183
0.975184
0.839739
0.839739
0.839738
0.839737
0.839737
0.839736
0.839737
0.839737
0.839738
0.839738
0.714194
0.714194
0.714192
0.714191
0.714191
0.714191
0.714191
0.714192
0.714193
0.714193
0.599763
0.599763
0.599762
0.599761
0.59976
0.59976
0.599761
0.599762
0.599763
0.599763
0.497196
0.497196
0.497195
0.497194
0.497193
0.497194
0.497194
0.497195
0.497196
0.497196
0.406785
0.406785
0.406784
0.406783
0.406783
0.406783
0.406784
0.406784
0.406786
0.406786
0.328406
0.328406
0.328405
0.328404
0.328404
0.328404
0.328404
0.328405
0.328407
0.328407
0.261574
0.261574
0.261573
0.261572
0.261572
0.261572
0.261573
0.261574
0.261575
0.261575
0.205522
0.205521
0.20552
0.20552
0.20552
0.20552
0.20552
0.205521
0.205523
0.205523
0.159276
0.159276
0.159275
0.159275
0.159275
0.159275
0.159275
0.159276
0.159277
0.159277
0.121741
0.12174
0.12174
0.121739
0.121739
0.12174
0.12174
0.121741
0.121742
0.121742
0.0917659
0.0917658
0.0917652
0.0917649
0.0917649
0.0917651
0.0917655
0.0917662
0.0917671
0.0917672
0.0682129
0.0682128
0.0682123
0.0682121
0.068212
0.0682122
0.0682126
0.0682132
0.068214
0.0682141
0.0500007
0.0500006
0.0500002
0.05
0.05
0.0500002
0.0500005
0.050001
0.0500017
0.0500018
0.0361411
0.0361411
0.0361408
0.0361406
0.0361406
0.0361408
0.0361411
0.0361415
0.036142
0.0361422
0.0257598
0.0257598
0.0257596
0.0257595
0.0257595
0.0257596
0.0257598
0.0257602
0.0257606
0.0257607
0.0181052
0.0181052
0.018105
0.0181049
0.018105
0.0181051
0.0181052
0.0181055
0.0181059
0.0181059
0.0125486
0.0125485
0.0125484
0.0125484
0.0125484
0.0125484
0.0125486
0.0125488
0.0125491
0.0125491
0.00857686
0.00857683
0.00857674
0.0085767
0.0085767
0.00857676
0.00857686
0.00857702
0.00857722
0.00857727
0.00578129
0.00578127
0.0057812
0.00578116
0.00578116
0.00578119
0.00578126
0.00578136
0.0057815
0.00578153
0.00384332
0.0038433
0.00384325
0.00384321
0.00384319
0.0038432
0.00384321
0.00384326
0.00384333
0.00384334
0.00252
0.00251998
0.00251993
0.00251988
0.00251984
0.0025198
0.00251976
0.00251972
0.00251971
0.00251967
0.00162979
0.00162977
0.00162972
0.00162966
0.00162958
0.00162947
0.00162933
0.00162916
0.00162901
0.00162888
0.00103976
0.00103974
0.00103968
0.00103958
0.00103945
0.00103923
0.00103892
0.00103852
0.0010381
0.00103777
0.000654389
0.000654355
0.000654277
0.000654145
0.00065392
0.00065355
0.00065297
0.00065214
0.000651139
0.000650303
0.000406317
0.000406275
0.000406176
0.000405993
0.000405663
0.000405078
0.000404083
0.000402494
0.000400268
0.000398026
0.000248912
0.000248863
0.000248744
0.000248513
0.000248073
0.000247249
0.000245721
0.000242958
0.000238252
0.000231763
1.42248
1.42248
1.42248
1.42248
1.42248
1.42248
1.42248
1.42248
1.42248
1.42248
1.26875
1.26875
1.26875
1.26875
1.26875
1.26875
1.26875
1.26875
1.26875
1.26875
1.11887
1.11887
1.11887
1.11887
1.11887
1.11887
1.11887
1.11887
1.11887
1.11887
0.975184
0.975184
0.975183
0.975182
0.975182
0.975182
0.975182
0.975182
0.975183
0.975183
0.839738
0.839738
0.839737
0.839736
0.839736
0.839736
0.839736
0.839737
0.839738
0.839738
0.714193
0.714193
0.714191
0.714191
0.71419
0.71419
0.714191
0.714192
0.714193
0.714193
0.599762
0.599762
0.599761
0.59976
0.59976
0.59976
0.59976
0.599761
0.599762
0.599763
0.497195
0.497195
0.497194
0.497193
0.497193
0.497193
0.497193
0.497194
0.497196
0.497196
0.406785
0.406784
0.406783
0.406782
0.406782
0.406782
0.406783
0.406784
0.406785
0.406786
0.328405
0.328405
0.328404
0.328403
0.328403
0.328403
0.328404
0.328405
0.328406
0.328407
0.261573
0.261573
0.261572
0.261572
0.261571
0.261572
0.261572
0.261573
0.261575
0.261575
0.205521
0.205521
0.20552
0.205519
0.205519
0.20552
0.20552
0.205521
0.205522
0.205523
0.159276
0.159276
0.159275
0.159274
0.159274
0.159274
0.159275
0.159276
0.159277
0.159277
0.12174
0.12174
0.121739
0.121739
0.121739
0.121739
0.12174
0.121741
0.121742
0.121742
0.0917656
0.0917655
0.0917649
0.0917646
0.0917646
0.0917648
0.0917653
0.0917661
0.091767
0.0917673
0.0682126
0.0682125
0.0682121
0.0682118
0.0682118
0.068212
0.0682125
0.0682131
0.068214
0.0682142
0.0500005
0.0500004
0.05
0.0499998
0.0499999
0.05
0.0500004
0.050001
0.0500017
0.0500018
0.036141
0.0361409
0.0361406
0.0361405
0.0361405
0.0361407
0.036141
0.0361414
0.036142
0.0361422
0.0257597
0.0257597
0.0257595
0.0257594
0.0257594
0.0257595
0.0257598
0.0257601
0.0257606
0.0257607
0.0181052
0.0181051
0.0181049
0.0181049
0.0181049
0.018105
0.0181052
0.0181055
0.0181059
0.018106
0.0125485
0.0125485
0.0125484
0.0125483
0.0125483
0.0125484
0.0125486
0.0125488
0.0125491
0.0125492
0.00857682
0.00857679
0.0085767
0.00857666
0.00857667
0.00857674
0.00857685
0.00857702
0.00857724
0.0085773
0.00578127
0.00578124
0.00578117
0.00578114
0.00578114
0.00578118
0.00578125
0.00578136
0.00578151
0.00578155
0.00384331
0.00384329
0.00384323
0.0038432
0.00384318
0.00384319
0.00384321
0.00384326
0.00384334
0.00384335
0.00251999
0.00251997
0.00251992
0.00251987
0.00251983
0.00251979
0.00251975
0.00251972
0.00251971
0.00251968
0.00162979
0.00162977
0.00162971
0.00162965
0.00162957
0.00162947
0.00162933
0.00162916
0.00162901
0.00162889
0.00103976
0.00103973
0.00103967
0.00103958
0.00103944
0.00103923
0.00103892
0.00103853
0.0010381
0.00103778
0.000654387
0.000654353
0.000654275
0.000654143
0.000653919
0.000653549
0.00065297
0.000652142
0.000651143
0.000650308
0.000406315
0.000406273
0.000406175
0.000405992
0.000405662
0.000405078
0.000404083
0.000402495
0.00040027
0.00039803
0.000248911
0.000248862
0.000248743
0.000248512
0.000248073
0.000247248
0.000245722
0.000242959
0.000238253
0.000231765
1.42248
1.42248
1.42248
1.42248
1.42248
1.42248
1.42248
1.42248
1.42248
1.42248
1.26875
1.26875
1.26875
1.26875
1.26875
1.26875
1.26875
1.26875
1.26875
1.26875
1.11887
1.11887
1.11887
1.11887
1.11887
1.11887
1.11887
1.11887
1.11887
1.11887
0.975183
0.975183
0.975182
0.975182
0.975181
0.975181
0.975182
0.975182
0.975183
0.975183
0.839738
0.839738
0.839737
0.839736
0.839735
0.839735
0.839736
0.839737
0.839738
0.839738
0.714192
0.714192
0.714191
0.71419
0.71419
0.71419
0.714191
0.714191
0.714193
0.714193
0.599762
0.599762
0.59976
0.59976
0.599759
0.599759
0.59976
0.599761
0.599762
0.599763
0.497195
0.497195
0.497193
0.497193
0.497192
0.497193
0.497193
0.497194
0.497196
0.497196
0.406784
0.406784
0.406783
0.406782
0.406782
0.406782
0.406783
0.406784
0.406786
0.406786
0.328405
0.328405
0.328404
0.328403
0.328403
0.328403
0.328404
0.328405
0.328406
0.328407
0.261573
0.261573
0.261572
0.261571
0.261571
0.261572
0.261572
0.261573
0.261575
0.261575
0.205521
0.205521
0.20552
0.205519
0.205519
0.205519
0.20552
0.205521
0.205523
0.205523
0.159276
0.159275
0.159275
0.159274
0.159274
0.159274
0.159275
0.159276
0.159277
0.159278
0.12174
0.12174
0.121739
0.121739
0.121739
0.121739
0.12174
0.121741
0.121742
0.121742
0.0917655
0.0917654
0.0917649
0.0917646
0.0917646
0.0917649
0.0917654
0.0917662
0.0917672
0.0917675
0.0682126
0.0682125
0.068212
0.0682118
0.0682118
0.0682121
0.0682125
0.0682132
0.0682141
0.0682143
0.0500005
0.0500004
0.05
0.0499999
0.0499999
0.0500001
0.0500005
0.0500011
0.0500018
0.050002
0.036141
0.0361409
0.0361406
0.0361405
0.0361406
0.0361407
0.0361411
0.0361415
0.0361421
0.0361423
0.0257597
0.0257597
0.0257595
0.0257594
0.0257594
0.0257596
0.0257598
0.0257602
0.0257607
0.0257609
0.0181052
0.0181051
0.018105
0.0181049
0.0181049
0.018105
0.0181053
0.0181056
0.018106
0.0181061
0.0125485
0.0125485
0.0125484
0.0125483
0.0125484
0.0125484
0.0125486
0.0125488
0.0125492
0.0125492
0.00857684
0.00857681
0.00857672
0.00857668
0.0085767
0.00857677
0.00857689
0.00857706
0.00857729
0.00857735
0.00578128
0.00578125
0.00578119
0.00578116
0.00578116
0.0057812
0.00578128
0.0057814
0.00578155
0.0057816
0.00384332
0.0038433
0.00384324
0.00384321
0.0038432
0.00384321
0.00384323
0.00384329
0.00384337
0.00384339
0.00251999
0.00251997
0.00251993
0.00251989
0.00251985
0.00251981
0.00251977
0.00251974
0.00251974
0.00251971
0.00162979
0.00162977
0.00162972
0.00162966
0.00162958
0.00162948
0.00162934
0.00162918
0.00162903
0.00162891
0.00103976
0.00103974
0.00103968
0.00103959
0.00103945
0.00103924
0.00103893
0.00103854
0.00103811
0.00103779
0.00065439
0.000654357
0.000654279
0.000654148
0.000653924
0.000653556
0.000652977
0.000652149
0.000651152
0.000650317
0.000406318
0.000406276
0.000406178
0.000405996
0.000405666
0.000405082
0.000404088
0.000402501
0.000400276
0.000398036
0.000248913
0.000248864
0.000248746
0.000248514
0.000248075
0.000247252
0.000245725
0.000242963
0.000238257
0.000231769
1.42248
1.42248
1.42248
1.42248
1.42248
1.42248
1.42248
1.42248
1.42248
1.42248
1.26875
1.26875
1.26875
1.26875
1.26875
1.26875
1.26875
1.26875
1.26875
1.26875
1.11887
1.11887
1.11887
1.11887
1.11887
1.11887
1.11887
1.11887
1.11887
1.11887
0.975183
0.975183
0.975182
0.975182
0.975181
0.975181
0.975182
0.975182
0.975183
0.975183
0.839738
0.839738
0.839736
0.839736
0.839735
0.839736
0.839736
0.839737
0.839738
0.839738
0.714192
0.714192
0.714191
0.71419
0.71419
0.71419
0.714191
0.714192
0.714193
0.714193
0.599762
0.599762
0.59976
0.59976
0.599759
0.59976
0.59976
0.599761
0.599763
0.599763
0.497195
0.497195
0.497194
0.497193
0.497193
0.497193
0.497194
0.497195
0.497196
0.497197
0.406784
0.406784
0.406783
0.406782
0.406782
0.406782
0.406783
0.406784
0.406786
0.406786
0.328405
0.328405
0.328404
0.328403
0.328403
0.328403
0.328404
0.328405
0.328407
0.328407
0.261573
0.261573
0.261572
0.261572
0.261572
0.261572
0.261573
0.261574
0.261575
0.261576
0.205521
0.205521
0.20552
0.20552
0.205519
0.20552
0.205521
0.205522
0.205523
0.205523
0.159276
0.159276
0.159275
0.159274
0.159274
0.159275
0.159275
0.159276
0.159278
0.159278
0.12174
0.12174
0.12174
0.121739
0.121739
0.12174
0.12174
0.121741
0.121742
0.121743
0.0917657
0.0917656
0.0917651
0.0917648
0.0917649
0.0917651
0.0917657
0.0917665
0.0917675
0.0917678
0.0682127
0.0682126
0.0682122
0.068212
0.0682121
0.0682123
0.0682128
0.0682135
0.0682144
0.0682147
0.0500006
0.0500005
0.0500002
0.05
0.0500001
0.0500003
0.0500007
0.0500013
0.0500021
0.0500023
0.0361411
0.036141
0.0361408
0.0361407
0.0361407
0.0361409
0.0361413
0.0361418
0.0361424
0.0361425
0.0257598
0.0257598
0.0257596
0.0257595
0.0257596
0.0257597
0.02576
0.0257604
0.0257609
0.025761
0.0181053
0.0181052
0.0181051
0.018105
0.018105
0.0181052
0.0181054
0.0181057
0.0181061
0.0181062
0.0125486
0.0125486
0.0125485
0.0125484
0.0125484
0.0125485
0.0125487
0.012549
0.0125493
0.0125494
0.00857689
0.00857687
0.00857678
0.00857675
0.00857678
0.00857685
0.00857697
0.00857715
0.00857738
0.00857745
0.00578132
0.0057813
0.00578124
0.00578121
0.00578122
0.00578127
0.00578135
0.00578147
0.00578162
0.00578167
0.00384335
0.00384333
0.00384328
0.00384325
0.00384324
0.00384325
0.00384328
0.00384334
0.00384343
0.00384344
0.00252002
0.00252
0.00251996
0.00251992
0.00251988
0.00251985
0.00251981
0.00251978
0.00251978
0.00251975
0.00162981
0.00162979
0.00162974
0.00162969
0.00162961
0.0016295
0.00162937
0.00162921
0.00162906
0.00162894
0.00103978
0.00103975
0.00103969
0.0010396
0.00103947
0.00103926
0.00103895
0.00103856
0.00103813
0.00103781
0.0006544
0.000654367
0.00065429
0.000654159
0.000653937
0.000653569
0.00065299
0.000652163
0.000651166
0.000650331
0.000406325
0.000406284
0.000406186
0.000406004
0.000405674
0.000405091
0.000404098
0.00040251
0.000400286
0.000398046
0.000248918
0.000248869
0.000248751
0.00024852
0.000248081
0.000247258
0.000245731
0.000242969
0.000238263
0.000231775
1.42248
1.42248
1.42248
1.42248
1.42248
1.42248
1.42248
1.42248
1.42248
1.42248
1.26875
1.26875
1.26875
1.26875
1.26875
1.26875
1.26875
1.26875
1.26875
1.26875
1.11887
1.11887
1.11887
1.11887
1.11887
1.11887
1.11887
1.11887
1.11887
1.11887
0.975183
0.975183
0.975182
0.975182
0.975182
0.975182
0.975182
0.975183
0.975184
0.975184
0.839738
0.839738
0.839737
0.839736
0.839736
0.839736
0.839736
0.839737
0.839738
0.839739
0.714193
0.714193
0.714191
0.714191
0.714191
0.714191
0.714191
0.714192
0.714194
0.714194
0.599762
0.599762
0.599761
0.59976
0.59976
0.59976
0.599761
0.599762
0.599763
0.599764
0.497195
0.497195
0.497194
0.497193
0.497193
0.497194
0.497194
0.497195
0.497197
0.497197
0.406785
0.406785
0.406784
0.406783
0.406783
0.406783
0.406784
0.406785
0.406787
0.406787
0.328405
0.328405
0.328404
0.328404
0.328404
0.328404
0.328405
0.328406
0.328408
0.328408
0.261574
0.261574
0.261573
0.261572
0.261572
0.261573
0.261573
0.261575
0.261576
0.261576
0.205521
0.205521
0.20552
0.20552
0.20552
0.205521
0.205521
0.205522
0.205524
0.205524
0.159276
0.159276
0.159275
0.159275
0.159275
0.159275
0.159276
0.159277
0.159278
0.159279
0.121741
0.121741
0.12174
0.12174
0.12174
0.12174
0.121741
0.121742
0.121743
0.121743
0.091766
0.091766
0.0917655
0.0917653
0.0917654
0.0917657
0.0917662
0.0917671
0.0917681
0.0917684
0.068213
0.068213
0.0682126
0.0682125
0.0682125
0.0682128
0.0682133
0.068214
0.0682149
0.0682151
0.0500009
0.0500008
0.0500005
0.0500004
0.0500005
0.0500007
0.0500011
0.0500017
0.0500025
0.0500027
0.0361413
0.0361413
0.0361411
0.036141
0.0361411
0.0361413
0.0361416
0.0361421
0.0361427
0.0361429
0.02576
0.02576
0.0257598
0.0257598
0.0257598
0.02576
0.0257603
0.0257607
0.0257612
0.0257613
0.0181054
0.0181054
0.0181052
0.0181052
0.0181053
0.0181054
0.0181056
0.0181059
0.0181063
0.0181064
0.0125487
0.0125487
0.0125486
0.0125486
0.0125486
0.0125487
0.0125489
0.0125491
0.0125495
0.0125495
0.00857699
0.00857697
0.0085769
0.00857688
0.00857691
0.00857698
0.00857711
0.00857729
0.00857752
0.00857758
0.0057814
0.00578138
0.00578133
0.00578131
0.00578132
0.00578137
0.00578145
0.00578157
0.00578173
0.00578177
0.00384341
0.00384339
0.00384335
0.00384332
0.00384332
0.00384333
0.00384336
0.00384342
0.0038435
0.00384352
0.00252006
0.00252005
0.00252
0.00251997
0.00251994
0.0025199
0.00251987
0.00251984
0.00251983
0.0025198
0.00162984
0.00162983
0.00162978
0.00162972
0.00162965
0.00162955
0.00162941
0.00162925
0.0016291
0.00162898
0.0010398
0.00103978
0.00103972
0.00103963
0.0010395
0.00103929
0.00103898
0.00103859
0.00103816
0.00103784
0.000654416
0.000654384
0.000654308
0.000654178
0.000653957
0.000653589
0.000653011
0.000652183
0.000651186
0.00065035
0.000406336
0.000406295
0.000406198
0.000406017
0.000405688
0.000405105
0.000404111
0.000402524
0.000400299
0.000398059
0.000248926
0.000248877
0.000248759
0.000248529
0.00024809
0.000247267
0.000245741
0.000242978
0.000238272
0.000231784
1.42248
1.42248
1.42248
1.42248
1.42248
1.42248
1.42248
1.42248
1.42248
1.42248
1.26875
1.26875
1.26875
1.26875
1.26875
1.26875
1.26875
1.26875
1.26875
1.26875
1.11887
1.11887
1.11887
1.11887
1.11887
1.11887
1.11887
1.11887
1.11887
1.11887
0.975184
0.975184
0.975183
0.975182
0.975182
0.975182
0.975183
0.975183
0.975184
0.975184
0.839738
0.839738
0.839737
0.839737
0.839737
0.839737
0.839737
0.839738
0.839739
0.839739
0.714193
0.714193
0.714192
0.714192
0.714191
0.714192
0.714192
0.714193
0.714194
0.714195
0.599763
0.599763
0.599762
0.599761
0.599761
0.599761
0.599762
0.599763
0.599765
0.599765
0.497196
0.497196
0.497195
0.497194
0.497194
0.497195
0.497195
0.497197
0.497198
0.497198
0.406785
0.406785
0.406784
0.406784
0.406784
0.406784
0.406785
0.406786
0.406788
0.406788
0.328406
0.328406
0.328405
0.328405
0.328405
0.328405
0.328406
0.328407
0.328409
0.328409
0.261574
0.261574
0.261574
0.261573
0.261573
0.261574
0.261575
0.261576
0.261577
0.261577
0.205522
0.205522
0.205521
0.205521
0.205521
0.205522
0.205522
0.205523
0.205525
0.205525
0.159277
0.159277
0.159276
0.159276
0.159276
0.159276
0.159277
0.159278
0.159279
0.15928
0.121741
0.121741
0.121741
0.121741
0.121741
0.121741
0.121742
0.121743
0.121744
0.121744
0.0917665
0.0917666
0.0917662
0.0917661
0.0917662
0.0917665
0.0917671
0.0917679
0.0917689
0.0917691
0.0682135
0.0682135
0.0682132
0.0682131
0.0682132
0.0682135
0.068214
0.0682147
0.0682156
0.0682158
0.0500012
0.0500013
0.050001
0.050001
0.0500011
0.0500013
0.0500017
0.0500023
0.050003
0.0500032
0.0361417
0.0361417
0.0361415
0.0361415
0.0361415
0.0361418
0.0361421
0.0361426
0.0361432
0.0361433
0.0257603
0.0257603
0.0257602
0.0257601
0.0257602
0.0257604
0.0257607
0.0257611
0.0257616
0.0257617
0.0181056
0.0181056
0.0181055
0.0181055
0.0181056
0.0181057
0.0181059
0.0181063
0.0181066
0.0181067
0.0125489
0.0125489
0.0125488
0.0125488
0.0125489
0.012549
0.0125492
0.0125494
0.0125497
0.0125498
0.00857712
0.00857712
0.00857707
0.00857706
0.0085771
0.00857718
0.0085773
0.00857748
0.0085777
0.00857776
0.0057815
0.0057815
0.00578146
0.00578145
0.00578147
0.00578152
0.0057816
0.00578171
0.00578186
0.0057819
0.00384349
0.00384348
0.00384344
0.00384343
0.00384342
0.00384344
0.00384347
0.00384352
0.0038436
0.00384361
0.00252012
0.00252011
0.00252007
0.00252004
0.00252001
0.00251998
0.00251994
0.00251991
0.00251991
0.00251987
0.00162989
0.00162987
0.00162983
0.00162978
0.0016297
0.0016296
0.00162946
0.0016293
0.00162915
0.00162903
0.00103983
0.00103981
0.00103975
0.00103967
0.00103953
0.00103933
0.00103902
0.00103862
0.0010382
0.00103787
0.000654436
0.000654406
0.000654333
0.000654204
0.000653984
0.000653616
0.000653038
0.00065221
0.000651211
0.000650375
0.00040635
0.000406311
0.000406215
0.000406035
0.000405706
0.000405124
0.00040413
0.000402542
0.000400316
0.000398075
0.000248935
0.000248887
0.000248771
0.000248541
0.000248103
0.000247279
0.000245753
0.00024299
0.000238284
0.000231794
1.42248
1.42248
1.42248
1.42248
1.42248
1.42248
1.42248
1.42248
1.42248
1.42248
1.26875
1.26875
1.26875
1.26875
1.26875
1.26875
1.26875
1.26875
1.26875
1.26875
1.11887
1.11887
1.11887
1.11887
1.11887
1.11887
1.11887
1.11887
1.11887
1.11887
0.975184
0.975184
0.975183
0.975183
0.975183
0.975183
0.975184
0.975184
0.975185
0.975185
0.839739
0.839739
0.839738
0.839738
0.839738
0.839738
0.839738
0.839739
0.83974
0.83974
0.714193
0.714194
0.714193
0.714193
0.714193
0.714193
0.714194
0.714194
0.714196
0.714196
0.599763
0.599764
0.599763
0.599762
0.599762
0.599763
0.599763
0.599765
0.599766
0.599766
0.497196
0.497197
0.497196
0.497196
0.497196
0.497196
0.497197
0.497198
0.497199
0.4972
0.406786
0.406786
0.406786
0.406785
0.406786
0.406786
0.406787
0.406788
0.406789
0.406789
0.328407
0.328407
0.328407
0.328406
0.328406
0.328407
0.328408
0.328409
0.32841
0.32841
0.261575
0.261575
0.261575
0.261575
0.261575
0.261575
0.261576
0.261577
0.261579
0.261579
0.205523
0.205523
0.205523
0.205522
0.205523
0.205523
0.205524
0.205525
0.205526
0.205526
0.159277
0.159278
0.159277
0.159277
0.159277
0.159278
0.159278
0.159279
0.159281
0.159281
0.121742
0.121742
0.121742
0.121742
0.121742
0.121742
0.121743
0.121744
0.121745
0.121745
0.0917671
0.0917673
0.0917671
0.091767
0.0917672
0.0917675
0.0917681
0.0917689
0.0917698
0.0917699
0.068214
0.0682141
0.068214
0.068214
0.0682141
0.0682144
0.0682149
0.0682156
0.0682164
0.0682165
0.0500017
0.0500018
0.0500017
0.0500017
0.0500018
0.0500021
0.0500025
0.050003
0.0500037
0.0500038
0.036142
0.0361421
0.036142
0.036142
0.0361422
0.0361424
0.0361427
0.0361432
0.0361437
0.0361438
0.0257606
0.0257607
0.0257606
0.0257606
0.0257607
0.0257609
0.0257612
0.0257616
0.025762
0.0257621
0.0181059
0.0181059
0.0181059
0.0181059
0.018106
0.0181061
0.0181063
0.0181066
0.018107
0.0181071
0.0125491
0.0125491
0.0125491
0.0125491
0.0125492
0.0125493
0.0125495
0.0125497
0.01255
0.01255
0.00857727
0.00857731
0.00857728
0.00857729
0.00857733
0.00857742
0.00857754
0.00857771
0.00857791
0.00857794
0.00578161
0.00578164
0.00578162
0.00578162
0.00578164
0.0057817
0.00578178
0.00578189
0.00578203
0.00578204
0.00384357
0.00384358
0.00384356
0.00384355
0.00384356
0.00384357
0.0038436
0.00384365
0.00384372
0.00384372
0.00252018
0.00252019
0.00252016
0.00252014
0.00252011
0.00252008
0.00252004
0.00252001
0.00251999
0.00251995
0.00162993
0.00162993
0.00162989
0.00162984
0.00162977
0.00162967
0.00162953
0.00162937
0.00162921
0.00162908
0.00103986
0.00103985
0.0010398
0.00103972
0.00103958
0.00103937
0.00103907
0.00103867
0.00103824
0.00103791
0.000654459
0.000654433
0.000654364
0.000654237
0.000654017
0.00065365
0.000653071
0.000652242
0.000651241
0.000650401
0.000406365
0.000406329
0.000406236
0.000406057
0.000405729
0.000405147
0.000404153
0.000402564
0.000400337
0.000398093
0.000248946
0.0002489
0.000248785
0.000248556
0.000248118
0.000247295
0.000245768
0.000243005
0.000238297
0.000231806
1.42248
1.42248
1.42248
1.42248
1.42248
1.42248
1.42248
1.42248
1.42248
1.42248
1.26875
1.26875
1.26875
1.26875
1.26875
1.26875
1.26875
1.26875
1.26875
1.26875
1.11887
1.11887
1.11887
1.11887
1.11887
1.11887
1.11887
1.11887
1.11887
1.11887
0.975184
0.975184
0.975184
0.975183
0.975183
0.975183
0.975184
0.975184
0.975185
0.975185
0.839738
0.839739
0.839738
0.839738
0.839738
0.839738
0.839739
0.839739
0.83974
0.83974
0.714193
0.714194
0.714193
0.714193
0.714193
0.714193
0.714194
0.714195
0.714196
0.714195
0.599763
0.599763
0.599763
0.599763
0.599763
0.599763
0.599764
0.599765
0.599766
0.599766
0.497196
0.497197
0.497196
0.497196
0.497196
0.497197
0.497197
0.497198
0.4972
0.497199
0.406786
0.406786
0.406786
0.406786
0.406786
0.406786
0.406787
0.406788
0.406789
0.406789
0.328407
0.328407
0.328407
0.328407
0.328407
0.328407
0.328408
0.328409
0.32841
0.32841
0.261575
0.261575
0.261575
0.261575
0.261575
0.261576
0.261576
0.261577
0.261579
0.261578
0.205523
0.205523
0.205523
0.205523
0.205523
0.205523
0.205524
0.205525
0.205526
0.205526
0.159277
0.159278
0.159277
0.159277
0.159278
0.159278
0.159279
0.15928
0.159281
0.15928
0.121742
0.121742
0.121742
0.121742
0.121742
0.121743
0.121743
0.121744
0.121745
0.121745
0.0917671
0.0917673
0.0917672
0.0917673
0.0917675
0.0917678
0.0917684
0.0917691
0.0917699
0.0917696
0.068214
0.0682142
0.0682141
0.0682142
0.0682143
0.0682147
0.0682151
0.0682158
0.0682165
0.0682162
0.0500017
0.0500018
0.0500018
0.0500019
0.050002
0.0500023
0.0500027
0.0500032
0.0500038
0.0500036
0.0361421
0.0361422
0.0361422
0.0361422
0.0361423
0.0361426
0.0361429
0.0361433
0.0361438
0.0361437
0.0257606
0.0257607
0.0257607
0.0257608
0.0257609
0.025761
0.0257613
0.0257617
0.0257621
0.025762
0.0181059
0.018106
0.018106
0.018106
0.0181061
0.0181062
0.0181065
0.0181067
0.0181071
0.018107
0.0125491
0.0125492
0.0125492
0.0125492
0.0125493
0.0125494
0.0125496
0.0125498
0.01255
0.0125499
0.0085773
0.00857734
0.00857734
0.00857736
0.0085774
0.00857749
0.00857761
0.00857777
0.00857795
0.00857789
0.00578164
0.00578166
0.00578166
0.00578167
0.0057817
0.00578175
0.00578183
0.00578193
0.00578205
0.005782
0.00384359
0.0038436
0.0038436
0.00384359
0.0038436
0.00384361
0.00384364
0.00384369
0.00384375
0.00384369
0.0025202
0.0025202
0.00252019
0.00252017
0.00252014
0.00252011
0.00252007
0.00252003
0.00252001
0.00251993
0.00162994
0.00162994
0.00162991
0.00162986
0.0016298
0.00162969
0.00162955
0.00162939
0.00162923
0.00162907
0.00103987
0.00103986
0.00103981
0.00103973
0.0010396
0.00103939
0.00103909
0.00103869
0.00103825
0.0010379
0.000654466
0.000654441
0.000654373
0.000654248
0.000654029
0.000653661
0.000653083
0.000652253
0.000651248
0.000650396
0.00040637
0.000406334
0.000406243
0.000406064
0.000405737
0.000405155
0.000404161
0.000402571
0.000400341
0.000398089
0.000248949
0.000248904
0.000248789
0.000248561
0.000248123
0.0002473
0.000245773