/*--------------------------------*- C++ -*----------------------------------*\
| =========                 |                                                 |
| \\      /  F ield         | OpenFOAM: The Open Source CFD Toolbox           |
|  \\    /   O peration     | Version:  v1812                                 |
|   \\  /    A nd           | Web:      www.OpenFOAM.com                      |
|    \\/     M anipulation  |                                                 |
\*---------------------------------------------------------------------------*/
FoamFile
{
    version     2.0;
    format      ascii;
    class       volScalarField;
    location    "90";
    object      T;
}
// * * * * * * * * * * * * * * * * * * * * * * * * * * * * * * * * * * * * * //

dimensions      [0 0 0 1 0 0 0];


internalField   nonuniform List<scalar> 
10000
(
1.45535
1.45535
1.45535
1.45535
1.45535
1.45535
1.45535
1.45535
1.45535
1.45535
1.36629
1.36629
1.36629
1.36629
1.36629
1.36629
1.36629
1.36629
1.36629
1.36629
1.27797
1.27797
1.27797
1.27797
1.27797
1.27797
1.27797
1.27797
1.27797
1.27797
1.19088
1.19088
1.19088
1.19088
1.19088
1.19088
1.19088
1.19088
1.19088
1.19088
1.10547
1.10547
1.10547
1.10547
1.10547
1.10547
1.10547
1.10547
1.10547
1.10547
1.02218
1.02218
1.02218
1.02218
1.02218
1.02218
1.02218
1.02218
1.02218
1.02218
0.941402
0.941402
0.941402
0.941402
0.941401
0.941401
0.941401
0.941401
0.941401
0.941401
0.863503
0.863503
0.863503
0.863503
0.863502
0.863502
0.863502
0.863502
0.863502
0.863502
0.788795
0.788795
0.788795
0.788794
0.788794
0.788794
0.788793
0.788793
0.788793
0.788793
0.717545
0.717545
0.717545
0.717544
0.717544
0.717543
0.717543
0.717543
0.717543
0.717543
0.64997
0.64997
0.649969
0.649969
0.649968
0.649967
0.649967
0.649967
0.649967
0.649966
0.586236
0.586236
0.586235
0.586234
0.586233
0.586232
0.586231
0.586231
0.58623
0.58623
0.526456
0.526456
0.526455
0.526454
0.526453
0.526451
0.52645
0.526449
0.526449
0.526449
0.470697
0.470697
0.470695
0.470694
0.470692
0.47069
0.470688
0.470687
0.470686
0.470686
0.418975
0.418974
0.418972
0.41897
0.418967
0.418964
0.418962
0.41896
0.418958
0.418958
0.371261
0.37126
0.371257
0.371254
0.37125
0.371246
0.371242
0.371239
0.371237
0.371236
0.327487
0.327486
0.327482
0.327477
0.327472
0.327466
0.32746
0.327455
0.327452
0.32745
0.287548
0.287546
0.287541
0.287534
0.287526
0.287517
0.287509
0.287502
0.287497
0.287494
0.251307
0.251304
0.251296
0.251286
0.251275
0.251262
0.25125
0.251239
0.251232
0.251227
0.2186
0.218595
0.218585
0.218571
0.218553
0.218535
0.218517
0.218501
0.21849
0.218483
0.189243
0.189235
0.189221
0.1892
0.189175
0.189148
0.189122
0.189099
0.189081
0.189072
0.163033
0.163022
0.163002
0.162973
0.162937
0.162898
0.162859
0.162824
0.162798
0.162783
0.139759
0.139744
0.139715
0.139674
0.139623
0.139567
0.139509
0.139457
0.139417
0.139395
0.119202
0.119182
0.119142
0.119085
0.119013
0.118931
0.118846
0.118767
0.118706
0.118672
0.101141
0.101114
0.10106
0.100982
0.100881
0.100763
0.100638
0.100519
0.100424
0.10037
0.0853601
0.0853243
0.0852525
0.0851458
0.0850063
0.0848394
0.084656
0.0844748
0.0843234
0.0842347
0.0716455
0.0715994
0.0715061
0.071365
0.0711761
0.0709427
0.0706753
0.0703974
0.0701516
0.0699994
0.0597944
0.0597368
0.0596192
0.0594381
0.0591892
0.0588699
0.0584854
0.0580584
0.057648
0.0573687
0.049614
0.0495447
0.0494021
0.0491784
0.0488624
0.0484407
0.0479024
0.0472528
0.0465496
0.0459861
0.0409236
0.0408439
0.0406784
0.0404149
0.0400336
0.0395051
0.0387892
0.0378377
0.0366261
0.0353374
1.45535
1.45535
1.45535
1.45535
1.45535
1.45535
1.45535
1.45535
1.45535
1.45535
1.36629
1.36629
1.36629
1.36629
1.36629
1.36629
1.36629
1.36629
1.36629
1.36629
1.27797
1.27797
1.27797
1.27797
1.27797
1.27797
1.27797
1.27797
1.27797
1.27797
1.19088
1.19088
1.19088
1.19088
1.19088
1.19088
1.19088
1.19088
1.19088
1.19088
1.10547
1.10547
1.10547
1.10547
1.10547
1.10547
1.10547
1.10547
1.10547
1.10547
1.02218
1.02218
1.02218
1.02218
1.02218
1.02218
1.02218
1.02218
1.02218
1.02218
0.941402
0.941402
0.941402
0.941402
0.941401
0.941401
0.941401
0.941401
0.941401
0.941401
0.863503
0.863503
0.863503
0.863503
0.863502
0.863502
0.863502
0.863502
0.863502
0.863502
0.788795
0.788795
0.788795
0.788794
0.788794
0.788794
0.788793
0.788793
0.788794
0.788793
0.717545
0.717545
0.717545
0.717544
0.717544
0.717543
0.717543
0.717543
0.717543
0.717543
0.64997
0.64997
0.649969
0.649969
0.649968
0.649967
0.649967
0.649967
0.649967
0.649966
0.586236
0.586236
0.586235
0.586234
0.586233
0.586232
0.586231
0.586231
0.586231
0.58623
0.526457
0.526456
0.526455
0.526454
0.526453
0.526451
0.52645
0.526449
0.526449
0.526449
0.470697
0.470697
0.470695
0.470694
0.470692
0.47069
0.470688
0.470687
0.470686
0.470686
0.418975
0.418974
0.418972
0.41897
0.418967
0.418964
0.418962
0.41896
0.418958
0.418958
0.371261
0.37126
0.371257
0.371254
0.37125
0.371246
0.371242
0.371239
0.371237
0.371236
0.327487
0.327486
0.327482
0.327477
0.327471
0.327466
0.32746
0.327455
0.327452
0.32745
0.287548
0.287546
0.287541
0.287534
0.287526
0.287517
0.287509
0.287502
0.287497
0.287494
0.251307
0.251304
0.251296
0.251286
0.251275
0.251262
0.25125
0.251239
0.251232
0.251228
0.2186
0.218595
0.218585
0.21857
0.218553
0.218535
0.218517
0.218501
0.21849
0.218484
0.189243
0.189235
0.189221
0.1892
0.189175
0.189148
0.189122
0.189099
0.189081
0.189072
0.163033
0.163022
0.163002
0.162973
0.162937
0.162898
0.162859
0.162824
0.162798
0.162783
0.139759
0.139744
0.139715
0.139674
0.139623
0.139567
0.139509
0.139457
0.139417
0.139395
0.119202
0.119182
0.119142
0.119085
0.119013
0.118931
0.118846
0.118767
0.118706
0.118672
0.101141
0.101114
0.10106
0.100982
0.100881
0.100763
0.100638
0.100519
0.100424
0.10037
0.0853601
0.0853243
0.0852525
0.0851457
0.0850062
0.0848394
0.084656
0.0844748
0.0843235
0.0842348
0.0716456
0.0715994
0.0715061
0.071365
0.071176
0.0709426
0.0706753
0.0703974
0.0701516
0.0699994
0.0597944
0.0597367
0.0596192
0.0594381
0.0591891
0.0588699
0.0584853
0.0580584
0.0576481
0.0573687
0.049614
0.0495447
0.049402
0.0491784
0.0488624
0.0484407
0.0479024
0.0472528
0.0465497
0.0459861
0.0409236
0.0408439
0.0406784
0.0404149
0.0400335
0.039505
0.0387891
0.0378377
0.0366261
0.0353374
1.45535
1.45535
1.45535
1.45535
1.45535
1.45535
1.45535
1.45535
1.45535
1.45535
1.36629
1.36629
1.36629
1.36629
1.36629
1.36629
1.36629
1.36629
1.36629
1.36629
1.27797
1.27797
1.27797
1.27797
1.27797
1.27797
1.27797
1.27797
1.27797
1.27797
1.19088
1.19088
1.19088
1.19088
1.19088
1.19088
1.19088
1.19088
1.19088
1.19088
1.10547
1.10547
1.10547
1.10547
1.10547
1.10547
1.10547
1.10547
1.10547
1.10547
1.02218
1.02218
1.02218
1.02218
1.02218
1.02218
1.02218
1.02218
1.02218
1.02218
0.941402
0.941402
0.941402
0.941401
0.941401
0.941401
0.941401
0.941401
0.941401
0.941401
0.863503
0.863503
0.863503
0.863502
0.863502
0.863502
0.863502
0.863502
0.863502
0.863502
0.788795
0.788795
0.788794
0.788794
0.788794
0.788793
0.788793
0.788793
0.788793
0.788793
0.717545
0.717545
0.717544
0.717544
0.717543
0.717543
0.717542
0.717542
0.717543
0.717542
0.64997
0.64997
0.649969
0.649968
0.649967
0.649967
0.649967
0.649966
0.649966
0.649966
0.586235
0.586235
0.586234
0.586233
0.586232
0.586231
0.586231
0.58623
0.58623
0.58623
0.526456
0.526456
0.526455
0.526453
0.526452
0.526451
0.52645
0.526449
0.526449
0.526448
0.470697
0.470696
0.470695
0.470693
0.470691
0.470689
0.470688
0.470687
0.470686
0.470686
0.418974
0.418973
0.418972
0.418969
0.418966
0.418964
0.418961
0.418959
0.418958
0.418957
0.371261
0.371259
0.371257
0.371253
0.371249
0.371246
0.371242
0.371239
0.371237
0.371236
0.327487
0.327485
0.327481
0.327477
0.327471
0.327465
0.32746
0.327455
0.327452
0.32745
0.287548
0.287546
0.28754
0.287533
0.287525
0.287517
0.287509
0.287502
0.287497
0.287494
0.251307
0.251303
0.251296
0.251286
0.251274
0.251262
0.25125
0.251239
0.251232
0.251227
0.2186
0.218595
0.218584
0.21857
0.218553
0.218535
0.218517
0.218501
0.21849
0.218483
0.189242
0.189235
0.18922
0.1892
0.189175
0.189148
0.189122
0.189098
0.189081
0.189072
0.163033
0.163022
0.163001
0.162972
0.162937
0.162898
0.162858
0.162824
0.162798
0.162783
0.139758
0.139744
0.139715
0.139674
0.139623
0.139566
0.139509
0.139457
0.139417
0.139395
0.119201
0.119181
0.119142
0.119084
0.119012
0.11893
0.118845
0.118767
0.118706
0.118672
0.101141
0.101114
0.10106
0.100981
0.10088
0.100763
0.100638
0.100519
0.100424
0.10037
0.08536
0.0853241
0.0852523
0.0851455
0.085006
0.0848392
0.0846559
0.0844747
0.0843234
0.0842348
0.0716454
0.0715992
0.0715059
0.0713648
0.0711759
0.0709425
0.0706751
0.0703973
0.0701516
0.0699994
0.0597943
0.0597366
0.059619
0.059438
0.059189
0.0588698
0.0584852
0.0580583
0.057648
0.0573687
0.0496139
0.0495446
0.0494019
0.0491783
0.0488623
0.0484405
0.0479023
0.0472527
0.0465496
0.0459861
0.0409235
0.0408438
0.0406783
0.0404148
0.0400334
0.0395049
0.0387891
0.0378376
0.036626
0.0353374
1.45535
1.45535
1.45535
1.45535
1.45535
1.45535
1.45535
1.45535
1.45535
1.45535
1.36629
1.36629
1.36629
1.36629
1.36629
1.36629
1.36629
1.36629
1.36629
1.36629
1.27797
1.27797
1.27797
1.27797
1.27797
1.27797
1.27797
1.27797
1.27797
1.27797
1.19088
1.19088
1.19088
1.19088
1.19088
1.19088
1.19088
1.19088
1.19088
1.19088
1.10547
1.10547
1.10547
1.10547
1.10547
1.10547
1.10547
1.10547
1.10547
1.10547
1.02218
1.02218
1.02218
1.02218
1.02218
1.02218
1.02218
1.02218
1.02218
1.02218
0.941402
0.941402
0.941401
0.941401
0.941401
0.941401
0.941401
0.941401
0.941401
0.941401
0.863503
0.863503
0.863502
0.863502
0.863502
0.863501
0.863501
0.863501
0.863502
0.863502
0.788795
0.788795
0.788794
0.788794
0.788793
0.788793
0.788793
0.788793
0.788793
0.788793
0.717545
0.717545
0.717544
0.717543
0.717543
0.717542
0.717542
0.717542
0.717542
0.717542
0.64997
0.649969
0.649969
0.649968
0.649967
0.649967
0.649966
0.649966
0.649966
0.649966
0.586235
0.586235
0.586234
0.586233
0.586232
0.586231
0.586231
0.58623
0.58623
0.58623
0.526456
0.526456
0.526454
0.526453
0.526452
0.526451
0.52645
0.526449
0.526449
0.526448
0.470697
0.470696
0.470695
0.470693
0.470691
0.470689
0.470688
0.470687
0.470686
0.470685
0.418974
0.418973
0.418971
0.418969
0.418966
0.418964
0.418961
0.418959
0.418958
0.418957
0.37126
0.371259
0.371256
0.371253
0.371249
0.371245
0.371242
0.371239
0.371237
0.371236
0.327487
0.327485
0.327481
0.327476
0.327471
0.327465
0.32746
0.327455
0.327452
0.32745
0.287548
0.287545
0.28754
0.287533
0.287525
0.287516
0.287508
0.287501
0.287497
0.287494
0.251307
0.251303
0.251296
0.251286
0.251274
0.251261
0.251249
0.251239
0.251232
0.251227
0.2186
0.218595
0.218584
0.21857
0.218553
0.218534
0.218517
0.218501
0.21849
0.218483
0.189242
0.189235
0.18922
0.1892
0.189175
0.189148
0.189121
0.189098
0.189081
0.189072
0.163032
0.163022
0.163001
0.162972
0.162937
0.162897
0.162858
0.162824
0.162797
0.162783
0.139758
0.139744
0.139715
0.139674
0.139623
0.139566
0.139509
0.139456
0.139417
0.139395
0.119201
0.119181
0.119142
0.119084
0.119012
0.11893
0.118845
0.118767
0.118706
0.118672
0.101141
0.101114
0.10106
0.100981
0.10088
0.100763
0.100638
0.100519
0.100424
0.10037
0.0853599
0.085324
0.0852522
0.0851454
0.0850059
0.0848391
0.0846558
0.0844746
0.0843234
0.0842347
0.0716453
0.0715991
0.0715058
0.0713647
0.0711758
0.0709424
0.0706751
0.0703973
0.0701516
0.0699994
0.0597942
0.0597365
0.0596189
0.0594379
0.0591889
0.0588697
0.0584852
0.0580583
0.057648
0.0573687
0.0496138
0.0495445
0.0494018
0.0491782
0.0488622
0.0484405
0.0479022
0.0472527
0.0465496
0.0459861
0.0409235
0.0408437
0.0406782
0.0404147
0.0400334
0.0395049
0.038789
0.0378376
0.036626
0.0353374
1.45535
1.45535
1.45535
1.45535
1.45535
1.45535
1.45535
1.45535
1.45535
1.45535
1.36629
1.36629
1.36629
1.36629
1.36629
1.36629
1.36629
1.36629
1.36629
1.36629
1.27797
1.27797
1.27797
1.27797
1.27797
1.27797
1.27797
1.27797
1.27797
1.27797
1.19088
1.19088
1.19088
1.19088
1.19088
1.19088
1.19088
1.19088
1.19088
1.19088
1.10547
1.10547
1.10547
1.10547
1.10547
1.10547
1.10547
1.10547
1.10547
1.10547
1.02218
1.02218
1.02218
1.02218
1.02218
1.02218
1.02218
1.02218
1.02218
1.02218
0.941402
0.941402
0.941401
0.941401
0.941401
0.941401
0.941401
0.941401
0.941401
0.941401
0.863503
0.863503
0.863502
0.863502
0.863501
0.863501
0.863501
0.863501
0.863502
0.863502
0.788795
0.788794
0.788794
0.788793
0.788793
0.788793
0.788793
0.788793
0.788793
0.788793
0.717545
0.717544
0.717544
0.717543
0.717543
0.717542
0.717542
0.717542
0.717542
0.717542
0.649969
0.649969
0.649968
0.649968
0.649967
0.649967
0.649966
0.649966
0.649966
0.649966
0.586235
0.586235
0.586234
0.586233
0.586232
0.586231
0.586231
0.58623
0.58623
0.58623
0.526456
0.526455
0.526454
0.526453
0.526452
0.526451
0.52645
0.526449
0.526449
0.526448
0.470697
0.470696
0.470694
0.470693
0.470691
0.470689
0.470688
0.470686
0.470686
0.470685
0.418974
0.418973
0.418971
0.418969
0.418966
0.418963
0.418961
0.418959
0.418958
0.418957
0.37126
0.371259
0.371256
0.371253
0.371249
0.371245
0.371242
0.371239
0.371237
0.371236
0.327487
0.327485
0.327481
0.327476
0.327471
0.327465
0.32746
0.327455
0.327452
0.32745
0.287548
0.287545
0.28754
0.287533
0.287525
0.287516
0.287508
0.287501
0.287497
0.287494
0.251307
0.251303
0.251296
0.251286
0.251274
0.251261
0.251249
0.251239
0.251232
0.251227
0.2186
0.218595
0.218584
0.21857
0.218553
0.218534
0.218516
0.218501
0.21849
0.218483
0.189242
0.189235
0.18922
0.189199
0.189175
0.189148
0.189121
0.189098
0.189081
0.189072
0.163032
0.163022
0.163001
0.162972
0.162937
0.162897
0.162858
0.162824
0.162797
0.162783
0.139758
0.139744
0.139715
0.139674
0.139623
0.139566
0.139509
0.139456
0.139417
0.139395
0.119201
0.119181
0.119141
0.119084
0.119012
0.11893
0.118845
0.118767
0.118706
0.118672
0.101141
0.101114
0.10106
0.100981
0.10088
0.100763
0.100638
0.100519
0.100424
0.10037
0.0853598
0.0853239
0.0852521
0.0851454
0.0850059
0.0848391
0.0846558
0.0844747
0.0843234
0.0842348
0.0716453
0.0715991
0.0715058
0.0713647
0.0711758
0.0709424
0.0706751
0.0703973
0.0701516
0.0699994
0.0597942
0.0597365
0.0596189
0.0594379
0.0591889
0.0588697
0.0584852
0.0580583
0.057648
0.0573687
0.0496138
0.0495445
0.0494018
0.0491782
0.0488622
0.0484405
0.0479022
0.0472527
0.0465496
0.0459861
0.0409235
0.0408437
0.0406782
0.0404147
0.0400334
0.0395049
0.038789
0.0378376
0.036626
0.0353374
1.45535
1.45535
1.45535
1.45535
1.45535
1.45535
1.45535
1.45535
1.45535
1.45535
1.36629
1.36629
1.36629
1.36629
1.36629
1.36629
1.36629
1.36629
1.36629
1.36629
1.27797
1.27797
1.27797
1.27797
1.27797
1.27797
1.27797
1.27797
1.27797
1.27797
1.19088
1.19088
1.19088
1.19088
1.19088
1.19088
1.19088
1.19088
1.19088
1.19088
1.10547
1.10547
1.10547
1.10547
1.10547
1.10547
1.10547
1.10547
1.10547
1.10547
1.02218
1.02218
1.02218
1.02218
1.02218
1.02218
1.02218
1.02218
1.02218
1.02218
0.941402
0.941402
0.941401
0.941401
0.941401
0.941401
0.941401
0.941401
0.941401
0.941401
0.863503
0.863503
0.863502
0.863502
0.863501
0.863501
0.863501
0.863501
0.863502
0.863502
0.788795
0.788794
0.788794
0.788793
0.788793
0.788793
0.788793
0.788793
0.788793
0.788793
0.717545
0.717544
0.717544
0.717543
0.717543
0.717542
0.717542
0.717542
0.717542
0.717542
0.649969
0.649969
0.649968
0.649968
0.649967
0.649967
0.649966
0.649966
0.649966
0.649966
0.586235
0.586235
0.586234
0.586233
0.586232
0.586231
0.586231
0.58623
0.58623
0.58623
0.526456
0.526455
0.526454
0.526453
0.526452
0.526451
0.52645
0.526449
0.526449
0.526449
0.470697
0.470696
0.470694
0.470693
0.470691
0.470689
0.470688
0.470687
0.470686
0.470686
0.418974
0.418973
0.418971
0.418969
0.418966
0.418964
0.418961
0.418959
0.418958
0.418958
0.37126
0.371259
0.371256
0.371253
0.371249
0.371245
0.371242
0.371239
0.371237
0.371236
0.327487
0.327485
0.327481
0.327476
0.327471
0.327465
0.32746
0.327455
0.327452
0.32745
0.287548
0.287545
0.28754
0.287533
0.287525
0.287517
0.287508
0.287502
0.287497
0.287494
0.251307
0.251303
0.251296
0.251286
0.251274
0.251261
0.251249
0.251239
0.251232
0.251228
0.2186
0.218595
0.218584
0.21857
0.218553
0.218534
0.218517
0.218501
0.21849
0.218484
0.189242
0.189235
0.18922
0.1892
0.189175
0.189148
0.189122
0.189098
0.189081
0.189072
0.163032
0.163022
0.163001
0.162972
0.162937
0.162897
0.162858
0.162824
0.162798
0.162783
0.139758
0.139744
0.139715
0.139674
0.139623
0.139566
0.139509
0.139457
0.139417
0.139395
0.119201
0.119181
0.119142
0.119084
0.119012
0.11893
0.118845
0.118767
0.118706
0.118672
0.101141
0.101114
0.10106
0.100981
0.10088
0.100763
0.100638
0.100519
0.100424
0.10037
0.0853599
0.085324
0.0852522
0.0851454
0.085006
0.0848392
0.0846559
0.0844747
0.0843235
0.0842349
0.0716453
0.0715991
0.0715058
0.0713647
0.0711758
0.0709424
0.0706751
0.0703974
0.0701517
0.0699995
0.0597942
0.0597365
0.059619
0.0594379
0.059189
0.0588698
0.0584852
0.0580584
0.0576481
0.0573688
0.0496138
0.0495445
0.0494019
0.0491782
0.0488622
0.0484405
0.0479023
0.0472527
0.0465497
0.0459862
0.0409235
0.0408437
0.0406782
0.0404148
0.0400334
0.0395049
0.0387891
0.0378376
0.0366261
0.0353375
1.45535
1.45535
1.45535
1.45535
1.45535
1.45535
1.45535
1.45535
1.45535
1.45535
1.36629
1.36629
1.36629
1.36629
1.36629
1.36629
1.36629
1.36629
1.36629
1.36629
1.27797
1.27797
1.27797
1.27797
1.27797
1.27797
1.27797
1.27797
1.27797
1.27797
1.19088
1.19088
1.19088
1.19088
1.19088
1.19088
1.19088
1.19088
1.19088
1.19088
1.10547
1.10547
1.10547
1.10547
1.10547
1.10547
1.10547
1.10547
1.10547
1.10547
1.02218
1.02218
1.02218
1.02218
1.02218
1.02218
1.02218
1.02218
1.02218
1.02218
0.941402
0.941402
0.941401
0.941401
0.941401
0.941401
0.941401
0.941401
0.941401
0.941401
0.863503
0.863503
0.863502
0.863502
0.863502
0.863501
0.863501
0.863502
0.863502
0.863502
0.788795
0.788795
0.788794
0.788794
0.788793
0.788793
0.788793
0.788793
0.788793
0.788793
0.717545
0.717544
0.717544
0.717543
0.717543
0.717543
0.717542
0.717542
0.717543
0.717543
0.649969
0.649969
0.649969
0.649968
0.649967
0.649967
0.649966
0.649966
0.649966
0.649966
0.586235
0.586235
0.586234
0.586233
0.586232
0.586231
0.586231
0.586231
0.586231
0.58623
0.526456
0.526455
0.526454
0.526453
0.526452
0.526451
0.52645
0.526449
0.526449
0.526449
0.470697
0.470696
0.470695
0.470693
0.470691
0.470689
0.470688
0.470687
0.470686
0.470686
0.418974
0.418973
0.418971
0.418969
0.418966
0.418964
0.418961
0.41896
0.418959
0.418958
0.37126
0.371259
0.371257
0.371253
0.371249
0.371246
0.371242
0.371239
0.371237
0.371236
0.327487
0.327485
0.327481
0.327477
0.327471
0.327465
0.32746
0.327455
0.327452
0.327451
0.287548
0.287545
0.28754
0.287533
0.287525
0.287517
0.287509
0.287502
0.287497
0.287494
0.251307
0.251303
0.251296
0.251286
0.251274
0.251262
0.25125
0.251239
0.251232
0.251228
0.2186
0.218595
0.218584
0.21857
0.218553
0.218535
0.218517
0.218501
0.21849
0.218484
0.189242
0.189235
0.18922
0.1892
0.189175
0.189148
0.189122
0.189099
0.189081
0.189072
0.163032
0.163022
0.163001
0.162972
0.162937
0.162898
0.162859
0.162824
0.162798
0.162784
0.139758
0.139744
0.139715
0.139674
0.139623
0.139566
0.139509
0.139457
0.139417
0.139395
0.119201
0.119181
0.119142
0.119084
0.119012
0.11893
0.118846
0.118767
0.118706
0.118672
0.101141
0.101114
0.10106
0.100981
0.10088
0.100763
0.100638
0.100519
0.100424
0.10037
0.0853599
0.0853241
0.0852523
0.0851456
0.0850061
0.0848393
0.084656
0.0844749
0.0843236
0.084235
0.0716454
0.0715992
0.0715059
0.0713648
0.0711759
0.0709426
0.0706753
0.0703975
0.0701518
0.0699997
0.0597943
0.0597366
0.0596191
0.059438
0.0591891
0.0588699
0.0584854
0.0580585
0.0576482
0.0573689
0.0496139
0.0495446
0.0494019
0.0491783
0.0488623
0.0484406
0.0479024
0.0472529
0.0465498
0.0459863
0.0409235
0.0408438
0.0406783
0.0404149
0.0400335
0.039505
0.0387892
0.0378377
0.0366262
0.0353376
1.45535
1.45535
1.45535
1.45535
1.45535
1.45535
1.45535
1.45535
1.45535
1.45535
1.36629
1.36629
1.36629
1.36629
1.36629
1.36629
1.36629
1.36629
1.36629
1.36629
1.27797
1.27797
1.27797
1.27797
1.27797
1.27797
1.27797
1.27797
1.27797
1.27797
1.19088
1.19088
1.19088
1.19088
1.19088
1.19088
1.19088
1.19088
1.19088
1.19088
1.10547
1.10547
1.10547
1.10547
1.10547
1.10547
1.10547
1.10547
1.10547
1.10547
1.02218
1.02218
1.02218
1.02218
1.02218
1.02218
1.02218
1.02218
1.02218
1.02218
0.941402
0.941402
0.941401
0.941401
0.941401
0.941401
0.941401
0.941401
0.941401
0.941401
0.863503
0.863503
0.863502
0.863502
0.863502
0.863502
0.863502
0.863502
0.863502
0.863502
0.788795
0.788795
0.788794
0.788794
0.788794
0.788793
0.788793
0.788793
0.788794
0.788794
0.717545
0.717545
0.717544
0.717544
0.717543
0.717543
0.717543
0.717543
0.717543
0.717543
0.64997
0.649969
0.649969
0.649968
0.649968
0.649967
0.649967
0.649967
0.649967
0.649967
0.586235
0.586235
0.586234
0.586233
0.586232
0.586232
0.586231
0.586231
0.586231
0.586231
0.526456
0.526456
0.526455
0.526453
0.526452
0.526451
0.52645
0.52645
0.526449
0.526449
0.470697
0.470696
0.470695
0.470693
0.470692
0.47069
0.470688
0.470687
0.470687
0.470686
0.418974
0.418973
0.418972
0.418969
0.418967
0.418964
0.418962
0.41896
0.418959
0.418958
0.371261
0.371259
0.371257
0.371254
0.37125
0.371246
0.371242
0.371239
0.371238
0.371236
0.327487
0.327485
0.327482
0.327477
0.327471
0.327466
0.32746
0.327456
0.327453
0.327451
0.287548
0.287546
0.28754
0.287534
0.287526
0.287517
0.287509
0.287502
0.287497
0.287495
0.251307
0.251303
0.251296
0.251286
0.251275
0.251262
0.25125
0.25124
0.251232
0.251228
0.2186
0.218595
0.218585
0.21857
0.218553
0.218535
0.218517
0.218502
0.21849
0.218484
0.189242
0.189235
0.18922
0.1892
0.189175
0.189149
0.189122
0.189099
0.189082
0.189072
0.163033
0.163022
0.163002
0.162973
0.162937
0.162898
0.162859
0.162824
0.162798
0.162784
0.139759
0.139744
0.139715
0.139674
0.139624
0.139567
0.139509
0.139457
0.139417
0.139395
0.119202
0.119181
0.119142
0.119085
0.119013
0.118931
0.118846
0.118767
0.118706
0.118672
0.101141
0.101114
0.10106
0.100982
0.100881
0.100763
0.100638
0.100519
0.100424
0.10037
0.0853601
0.0853242
0.0852525
0.0851458
0.0850063
0.0848396
0.0846563
0.0844751
0.0843239
0.0842352
0.0716455
0.0715993
0.0715061
0.071365
0.0711761
0.0709428
0.0706755
0.0703977
0.070152
0.0699998
0.0597944
0.0597367
0.0596192
0.0594382
0.0591893
0.0588701
0.0584856
0.0580587
0.0576484
0.0573691
0.049614
0.0495447
0.0494021
0.0491785
0.0488625
0.0484408
0.0479026
0.047253
0.0465499
0.0459865
0.0409236
0.0408439
0.0406784
0.040415
0.0400337
0.0395052
0.0387893
0.0378379
0.0366263
0.0353377
1.45535
1.45535
1.45535
1.45535
1.45535
1.45535
1.45535
1.45535
1.45535
1.45535
1.36629
1.36629
1.36629
1.36629
1.36629
1.36629
1.36629
1.36629
1.36629
1.36629
1.27797
1.27797
1.27797
1.27797
1.27797
1.27797
1.27797
1.27797
1.27797
1.27797
1.19088
1.19088
1.19088
1.19088
1.19088
1.19088
1.19088
1.19088
1.19088
1.19088
1.10547
1.10547
1.10547
1.10547
1.10547
1.10547
1.10547
1.10547
1.10547
1.10547
1.02218
1.02218
1.02218
1.02218
1.02218
1.02218
1.02218
1.02218
1.02218
1.02218
0.941402
0.941402
0.941402
0.941401
0.941401
0.941401
0.941401
0.941401
0.941402
0.941402
0.863503
0.863503
0.863503
0.863502
0.863502
0.863502
0.863502
0.863502
0.863502
0.863502
0.788795
0.788795
0.788795
0.788794
0.788794
0.788794
0.788794
0.788794
0.788794
0.788794
0.717545
0.717545
0.717544
0.717544
0.717544
0.717543
0.717543
0.717543
0.717543
0.717543
0.64997
0.64997
0.649969
0.649969
0.649968
0.649968
0.649967
0.649967
0.649967
0.649967
0.586235
0.586235
0.586235
0.586234
0.586233
0.586232
0.586232
0.586231
0.586231
0.586231
0.526456
0.526456
0.526455
0.526454
0.526453
0.526452
0.526451
0.52645
0.52645
0.52645
0.470697
0.470697
0.470695
0.470694
0.470692
0.47069
0.470689
0.470688
0.470687
0.470687
0.418974
0.418974
0.418972
0.41897
0.418967
0.418965
0.418962
0.418961
0.418959
0.418959
0.371261
0.37126
0.371257
0.371254
0.37125
0.371246
0.371243
0.37124
0.371238
0.371237
0.327487
0.327486
0.327482
0.327477
0.327472
0.327466
0.327461
0.327456
0.327453
0.327451
0.287548
0.287546
0.287541
0.287534
0.287526
0.287518
0.28751
0.287503
0.287498
0.287495
0.251307
0.251304
0.251297
0.251287
0.251275
0.251263
0.251251
0.25124
0.251233
0.251229
0.2186
0.218595
0.218585
0.218571
0.218554
0.218535
0.218518
0.218502
0.218491
0.218485
0.189243
0.189235
0.189221
0.1892
0.189176
0.189149
0.189123
0.189099
0.189082
0.189073
0.163033
0.163022
0.163002
0.162973
0.162938
0.162898
0.162859
0.162825
0.162798
0.162784
0.139759
0.139744
0.139716
0.139675
0.139624
0.139567
0.13951
0.139457
0.139418
0.139396
0.119202
0.119182
0.119142
0.119085
0.119013
0.118931
0.118846
0.118768
0.118707
0.118672
0.101142
0.101114
0.101061
0.100982
0.100881
0.100764
0.100639
0.10052
0.100424
0.10037
0.0853602
0.0853244
0.0852527
0.0851461
0.0850066
0.0848399
0.0846566
0.0844754
0.0843241
0.0842355
0.0716457
0.0715995
0.0715063
0.0713653
0.0711764
0.0709431
0.0706758
0.070398
0.0701522
0.0700001
0.0597945
0.0597369
0.0596194
0.0594384
0.0591895
0.0588703
0.0584858
0.0580589
0.0576486
0.0573693
0.0496141
0.0495449
0.0494023
0.0491787
0.0488627
0.048441
0.0479028
0.0472532
0.0465501
0.0459866
0.0409237
0.040844
0.0406786
0.0404152
0.0400339
0.0395054
0.0387895
0.0378381
0.0366265
0.0353378
1.45535
1.45535
1.45535
1.45535
1.45535
1.45535
1.45535
1.45535
1.45535
1.45535
1.36629
1.36629
1.36629
1.36629
1.36629
1.36629
1.36629
1.36629
1.36629
1.36629
1.27797
1.27797
1.27797
1.27797
1.27797
1.27797
1.27797
1.27797
1.27797
1.27797
1.19088
1.19088
1.19088
1.19088
1.19088
1.19088
1.19088
1.19088
1.19088
1.19088
1.10547
1.10547
1.10547
1.10547
1.10547
1.10547
1.10547
1.10547
1.10547
1.10547
1.02218
1.02218
1.02218
1.02218
1.02218
1.02218
1.02218
1.02218
1.02218
1.02218
0.941402
0.941402
0.941402
0.941401
0.941401
0.941401
0.941401
0.941401
0.941402
0.941401
0.863503
0.863503
0.863503
0.863502
0.863502
0.863502
0.863502
0.863502
0.863502
0.863502
0.788795
0.788795
0.788795
0.788794
0.788794
0.788794
0.788794
0.788794
0.788794
0.788794
0.717545
0.717545
0.717544
0.717544
0.717544
0.717543
0.717543
0.717543
0.717543
0.717543
0.64997
0.64997
0.649969
0.649969
0.649968
0.649968
0.649967
0.649967
0.649967
0.649967
0.586235
0.586235
0.586235
0.586234
0.586233
0.586232
0.586232
0.586231
0.586231
0.586231
0.526456
0.526456
0.526455
0.526454
0.526453
0.526452
0.526451
0.52645
0.52645
0.526449
0.470697
0.470697
0.470695
0.470694
0.470692
0.47069
0.470689
0.470688
0.470687
0.470686
0.418974
0.418974
0.418972
0.41897
0.418967
0.418965
0.418962
0.418961
0.418959
0.418958
0.371261
0.37126
0.371257
0.371254
0.37125
0.371247
0.371243
0.37124
0.371238
0.371237
0.327487
0.327486
0.327482
0.327477
0.327472
0.327466
0.327461
0.327456
0.327453
0.327451
0.287548
0.287546
0.287541
0.287534
0.287526
0.287518
0.28751
0.287503
0.287498
0.287495
0.251307
0.251304
0.251297
0.251287
0.251275
0.251263
0.251251
0.25124
0.251233
0.251228
0.2186
0.218595
0.218585
0.218571
0.218554
0.218536
0.218518
0.218502
0.218491
0.218484
0.189243
0.189235
0.189221
0.189201
0.189176
0.189149
0.189123
0.189099
0.189082
0.189073
0.163033
0.163022
0.163002
0.162973
0.162938
0.162899
0.162859
0.162825
0.162799
0.162784
0.139759
0.139744
0.139716
0.139675
0.139624
0.139567
0.13951
0.139458
0.139418
0.139396
0.119202
0.119182
0.119142
0.119085
0.119013
0.118931
0.118846
0.118768
0.118707
0.118672
0.101142
0.101114
0.101061
0.100982
0.100881
0.100764
0.100639
0.10052
0.100424
0.10037
0.0853602
0.0853244
0.0852528
0.0851461
0.0850067
0.0848399
0.0846566
0.0844755
0.0843242
0.0842354
0.0716457
0.0715995
0.0715064
0.0713653
0.0711765
0.0709431
0.0706758
0.070398
0.0701523
0.07
0.0597945
0.0597369
0.0596195
0.0594385
0.0591896
0.0588704
0.0584859
0.058059
0.0576486
0.0573692
0.0496141
0.0495449
0.0494023
0.0491787
0.0488628
0.0484411
0.0479028
0.0472533
0.0465501
0.0459866
0.0409237
0.040844
0.0406786
0.0404152
0.0400339
0.0395054
0.0387895
0.0378381
0.0366265
0.0353378
0.0335545
0.0334671
0.0332847
0.0329914
0.0325599
0.0319461
0.0310765
0.029817
0.0278765
0.0244594
0.0273495
0.0272585
0.0270681
0.0267611
0.0263078
0.0256605
0.0247422
0.0234253
0.0214933
0.0186024
0.0221626
0.0220723
0.0218839
0.0215812
0.0211371
0.0205102
0.0196395
0.018439
0.0167993
0.0146265
0.0178581
0.0177727
0.0175953
0.0173124
0.0169022
0.0163338
0.0155663
0.0145513
0.0132448
0.0116397
0.0143117
0.0142343
0.0140743
0.0138216
0.0134605
0.0129704
0.0123269
0.0115064
0.0104957
0.00931041
0.01141
0.0113424
0.0112036
0.0109866
0.0106812
0.010275
0.00975522
0.00911226
0.00834608
0.00747394
0.00905157
0.00899451
0.00887807
0.00869799
0.00844841
0.00812292
0.00771627
0.0072268
0.00665951
0.00602827
0.0071466
0.00709988
0.00700516
0.00686025
0.0066625
0.00640973
0.00610168
0.00574158
0.00533746
0.00490109
0.00561691
0.0055797
0.00550477
0.00539142
0.0052392
0.00504884
0.00482347
0.00457013
0.00430129
0.00403401
0.00439527
0.00436639
0.0043086
0.00422219
0.00410811
0.00396882
0.00380948
0.00363989
0.00347824
0.00336096
0.0335545
0.0334671
0.0332847
0.0329913
0.0325599
0.0319461
0.0310765
0.029817
0.0278765
0.0244594
0.0273496
0.0272584
0.0270681
0.0267611
0.0263078
0.0256605
0.0247422
0.0234253
0.0214933
0.0186024
0.0221626
0.0220723
0.0218839
0.0215812
0.0211371
0.0205102
0.0196395
0.018439
0.0167993
0.0146265
0.0178581
0.0177727
0.0175953
0.0173123
0.0169021
0.0163338
0.0155663
0.0145513
0.0132448
0.0116396
0.0143117
0.0142343
0.0140743
0.0138216
0.0134605
0.0129704
0.0123269
0.0115063
0.0104956
0.0093104
0.01141
0.0113424
0.0112036
0.0109866
0.0106812
0.010275
0.00975521
0.00911225
0.00834607
0.00747394
0.00905158
0.0089945
0.00887807
0.00869798
0.0084484
0.00812292
0.00771626
0.0072268
0.00665951
0.00602826
0.00714661
0.00709988
0.00700515
0.00686025
0.00666249
0.00640973
0.00610168
0.00574157
0.00533745
0.00490109
0.00561691
0.0055797
0.00550477
0.00539141
0.0052392
0.00504884
0.00482346
0.00457013
0.00430129
0.00403401
0.00439528
0.00436639
0.0043086
0.00422219
0.00410811
0.00396881
0.00380948
0.00363989
0.00347824
0.00336097
0.0335544
0.033467
0.0332846
0.0329913
0.0325598
0.031946
0.0310764
0.0298169
0.0278765
0.0244593
0.0273495
0.0272584
0.027068
0.026761
0.0263077
0.0256604
0.0247421
0.0234252
0.0214932
0.0186024
0.0221625
0.0220722
0.0218838
0.0215812
0.0211371
0.0205101
0.0196394
0.0184389
0.0167992
0.0146264
0.0178581
0.0177727
0.0175953
0.0173123
0.0169021
0.0163337
0.0155662
0.0145513
0.0132447
0.0116396
0.0143117
0.0142342