/*--------------------------------*- C++ -*----------------------------------*\
| =========                 |                                                 |
| \\      /  F ield         | OpenFOAM: The Open Source CFD Toolbox           |
|  \\    /   O peration     | Version:  v1812                                 |
|   \\  /    A nd           | Web:      www.OpenFOAM.com                      |
|    \\/     M anipulation  |                                                 |
\*---------------------------------------------------------------------------*/
FoamFile
{
    version     2.0;
    format      ascii;
    class       volScalarField;
    location    "11";
    object      p;
}
// * * * * * * * * * * * * * * * * * * * * * * * * * * * * * * * * * * * * * //

dimensions      [0 2 -2 0 0 0 0];


internalField   nonuniform List<scalar> 
1000
(
1.6755935
1.5545156
1.4585351
1.394879
1.3463695
1.3038974
1.2663622
1.2341905
1.2067901
1.1829525
1.1615582
1.1417943
1.1231172
1.1051777
1.0877624
1.0707482
1.0540673
1.0376831
1.0215749
1.005729
0.990134
0.97477889
0.9596522
0.94474196
0.93003596
0.91552197
0.901188
0.8870225
0.87301444
0.85915344
0.84542972
0.83183418
0.81835828
0.80499411
0.79173428
0.77857191
0.76550061
0.75251441
0.73960774
0.72677542
0.71401262
0.7013148
0.68867776
0.67609754
0.66357046
0.65109307
0.63866214
0.62627466
0.61392781
0.60161895
0.58934562
0.57710552
0.56489648
0.5527165
0.54056367
0.52843624
0.51633254
0.50425103
0.49219026
0.48014888
0.46812562
0.45611932
0.44412886
0.43215322
0.42019141
0.40824255
0.39630576
0.38438027
0.37246532
0.36056024
0.34866438
0.33677713
0.32489795
0.31302631
0.3011617
0.28930366
0.27745175
0.26560557
0.25376475
0.24192893
0.2300978
0.21827105
0.20644841
0.19462961
0.18281439
0.17100251
0.15919375
0.14738791
0.1355848
0.12378427
0.11198614
0.10019028
0.088396533
0.076604776
0.064814868
0.053026696
0.04124018
0.02945516
0.017671777
0.0058894702
1.5583738
1.5034447
1.4424922
1.3909245
1.3476545
1.3086862
1.2730999
1.2413273
1.2133664
1.1885885
1.1661866
1.1454853
1.1260036
1.1074156
1.089502
1.0721173
1.0551654
1.038584
1.0223313
1.0063779
0.99070082
0.97528128
0.96010243
0.94514877
0.93040572
0.9158595
0.90149709
0.88730623
0.87327539
0.8593938
0.84565144
0.83203893
0.81854757
0.80516928
0.79189654
0.77872233
0.76564016
0.75264396
0.73972808
0.72688728
0.71411663
0.70141157
0.68876782
0.67618139
0.66364855
0.65116582
0.63872994
0.62633785
0.61398672
0.60167389
0.58939685
0.5771533
0.56494106
0.55275808
0.54060247
0.52847245
0.51636634
0.50428257
0.49221971
0.48017636
0.46815128
0.45614327
0.44415122
0.43217409
0.4202109
0.40826075
0.39632276
0.38439615
0.37248015
0.36057409
0.34867731
0.3367892
0.32490922
0.31303683
0.30117152
0.28931284
0.27746033
0.26561359
0.25377223
0.24193592
0.23010431
0.21827713
0.20645408
0.1946349
0.18281933
0.17100712
0.15919805
0.14739192
0.13558853
0.12378773
0.11198935
0.10019326
0.088399288
0.076607326
0.064817228
0.053028854
0.041242172
0.029456864
0.017673288
0.0058901936
1.4975525
1.4713774
1.4329806
1.3918477
1.3527624
1.3161716
1.281874
1.2501564
1.2213003
1.1951992
1.1714452
1.1495552
1.1291054
1.1097645
1.0912844
1.0734833
1.0562315
1.0394359
1.0230298
1.0069647
0.99120432
0.97572063
0.96049076
0.94549526
0.930717
0.91614052
0.90175169
0.88753752
0.87348597
0.85958591
0.84582698
0.8321996
0.81869487
0.80530451
0.79202085
0.77883677
0.76574564
0.75274129
0.739818
0.72697042
0.71419358
0.70148285
0.68883389
0.67624268
0.66370545
0.65121866
0.63877904
0.62638351
0.61402919
0.6017134
0.58943363
0.57718754
0.56497294
0.55278779
0.54063015
0.52849824
0.51639038
0.504305
0.49224062
0.48019587
0.46816948
0.45616024
0.44416705
0.43218885
0.42022468
0.4082736
0.39633476
0.38440735
0.37249062
0.36058386
0.34868643
0.33679772
0.32491716
0.31304423
0.30117844
0.2893193
0.27746637
0.26561923
0.25377751
0.24194084
0.23010891
0.21828141
0.20645807
0.19463862
0.18282279
0.17101036
0.15920108
0.14739476
0.13559117
0.1237902
0.11199163
0.10019537
0.088401239
0.076609138
0.064818882
0.053030371
0.041243484
0.029457987
0.017673954
0.0058906273
1.468144
1.4526459
1.425776
1.3918521
1.3560511
1.3210998
1.2877979
1.2564448
1.2273141
1.2005226
1.1759351
1.1532429
1.1320911
1.1121623
1.0932041
1.0750244
1.0574787
1.0404577
1.0238791
1.0076811
0.99181706
0.97625131
0.96095535
0.94590567
0.93108224
0.91646751
0.90204588
0.88780325
0.8737268
0.85980479
0.84602641
0.83238171
0.81886149
0.80545724
0.79216108
0.77896572
0.76586438
0.75285077
0.73991906
0.72706381
0.71427997
0.70156282
0.68890799
0.67631139
0.66376919
0.65127784
0.63883401
0.6264346
0.61407669
0.60175759
0.58947475
0.57722582
0.56500858
0.55282097
0.54066107
0.52852705
0.51641723
0.50433003
0.49226396
0.48021764
0.46818978
0.45617918
0.44418471
0.43220533
0.42024004
0.40828794
0.39634814
0.38441984
0.37250228
0.36059475
0.3486966
0.33680721
0.32492602
0.3130525
0.30118614
0.28932649
0.27747308
0.26562551
0.25378338
0.24194633
0.23011404
0.2182862
0.20646253
0.19464278
0.18282668
0.17101399
0.15920447
0.14739794
0.13559415
0.12379299
0.11199423
0.1001978
0.088403477
0.076611237
0.064820775
0.053032161
0.041244978
0.029459414
0.017674846
0.0058916477
1.4554125
1.4434591
1.4212247
1.3909372
1.357076
1.3230804
1.2903829
1.2593773
1.2302799
1.203268
1.178341
1.1552914
1.1338099
1.1135922
1.0943886
1.0760064
1.0582975
1.0411471
1.0244662
1.0081871
0.9922581
0.97663954
0.96130002
0.94621386
0.9313594
0.91671793
0.90227295
0.88800976
0.87391507
0.85997678
0.84618381
0.83252598
0.81899391
0.80557894
0.79227307
0.77906889
0.76595953
0.75293862
0.74000023
0.72713888
0.71434944
0.70162717
0.68896764
0.6763667
0.66382053
0.65132551
0.63887829
0.62647575
0.61411496
0.60179319
0.58950787
0.57725665
0.56503728
0.5528477
0.54068596
0.52855024
0.51643884
0.50435017
0.49228274
0.48023516
0.46820612
0.45619442
0.44419892
0.43221858
0.42025241
0.40829947
0.39635891
0.38442989
0.37251166
0.36060351
0.34870478
0.33681485
0.32493315
0.31305915
0.30119235
0.28933227
0.27747848
0.26563056
0.2537881
0.24195075
0.23011816
0.21829006
0.20646613
0.19464614
0.1828298
0.17101691
0.1592072
0.1474005
0.13559655
0.12379524
0.11199633
0.10019978
0.088405298
0.076612954
0.064822318
0.05303364
0.041246218
0.029460659
0.017675712
0.005892663
1.4554125
1.4434591
1.4212247
1.3909372
1.357076
1.3230804
1.2903829
1.2593773
1.2302799
1.203268
1.178341
1.1552914
1.1338099
1.1135922
1.0943886
1.0760064
1.0582975
1.0411471
1.0244662
1.0081871
0.9922581
0.97663954
0.96130002
0.94621386
0.9313594
0.91671793
0.90227295
0.88800976
0.87391507
0.85997678
0.84618381
0.83252598
0.81899391
0.80557894
0.79227307
0.77906889
0.76595953
0.75293862
0.74000023
0.72713888
0.71434944
0.70162717
0.68896764
0.6763667
0.66382052
0.65132551
0.63887829
0.62647576
0.61411496
0.60179319
0.58950788
0.57725665
0.56503728
0.5528477
0.54068596
0.52855024
0.51643884
0.50435018
0.49228274
0.48023516
0.46820612
0.45619442
0.44419892
0.43221858
0.42025241
0.40829947
0.39635891
0.38442989
0.37251167
0.36060352
0.34870478
0.33681485
0.32493314
0.31305914
0.30119234
0.28933227
0.27747848
0.26563056
0.2537881
0.24195075
0.23011817
0.21829006
0.20646613
0.19464613
0.1828298
0.17101691
0.1592072
0.1474005
0.13559655
0.12379525
0.11199633
0.10019978
0.088405292
0.076612948
0.064822312
0.053033637
0.041246215
0.029460659
0.017675713
0.0058926651
1.468144
1.4526459
1.425776
1.3918521
1.3560511
1.3210998
1.2877979
1.2564448
1.2273141
1.2005226
1.1759351
1.1532429
1.1320911
1.1121623
1.0932041
1.0750244
1.0574787
1.0404577
1.0238791
1.0076811
0.99181706
0.97625131
0.96095534
0.94590567
0.93108224
0.91646751
0.90204588
0.88780325
0.8737268
0.85980479
0.84602641
0.83238171
0.81886148
0.80545723
0.79216108
0.77896572
0.76586438
0.75285078
0.73991907
0.72706381
0.71427997
0.70156282
0.68890799
0.67631138
0.66376918
0.65127784
0.63883402
0.6264346
0.6140767
0.60175759
0.58947475
0.57722582
0.56500858
0.55282097
0.54066106
0.52852704
0.51641723
0.50433003
0.49226396
0.48021764
0.46818978
0.45617917
0.4441847
0.43220532
0.42024003
0.40828793
0.39634815
0.38441985
0.3725023
0.36059477
0.34869661
0.33680721
0.32492601
0.31305248
0.30118613
0.28932648
0.27747308
0.26562552
0.25378339
0.24194634
0.23011404
0.21828619
0.20646252
0.19464276
0.18282666
0.17101398
0.15920447
0.14739794
0.13559416
0.12379299
0.11199422
0.10019779
0.088403459
0.076611218
0.064820761
0.053032154
0.041244977
0.029459418
0.017674852
0.0058916512
1.4975525
1.4713774
1.4329806
1.3918477
1.3527624
1.3161716
1.281874
1.2501564
1.2213003
1.1951992
1.1714452
1.1495552
1.1291054
1.1097645
1.0912844
1.0734833
1.0562315
1.0394359
1.0230298
1.0069647
0.99120431
0.97572062
0.96049075
0.94549526
0.930717
0.91614052
0.9017517
0.88753752
0.87348598
0.85958591
0.84582698
0.8321996
0.81869486
0.8053045
0.79202085
0.77883677
0.76574565
0.7527413
0.73981801
0.72697042
0.71419358
0.70148284
0.68883389
0.67624268
0.66370544
0.65121867
0.63877905
0.62638352
0.6140292
0.6017134
0.58943363
0.57718754
0.56497293
0.55278778
0.54063015
0.52849825
0.51639039
0.50430501
0.49224063
0.48019587
0.46816947
0.45616023
0.44416703
0.43218884
0.42022467
0.40827361
0.39633478
0.38440737
0.37249064
0.36058387
0.34868643
0.3367977
0.32491714
0.31304422
0.30117842
0.28931929
0.27746637
0.26561924
0.25377752
0.24194084
0.2301089
0.21828139
0.20645804
0.19463859
0.18282278
0.17101035
0.15920108
0.14739476
0.13559117
0.12379018
0.11199161
0.10019535
0.088401211
0.076609114
0.064818866
0.053030363
0.041243482
0.029457985
0.017673952
0.005890626
1.5583738
1.5034447
1.4424922
1.3909245
1.3476545
1.3086862
1.2730999
1.2413273
1.2133664
1.1885885
1.1661866
1.1454853
1.1260036
1.1074156
1.089502
1.0721173
1.0551654
1.038584
1.0223313
1.0063779
0.99070081
0.97528127
0.96010243
0.94514877
0.93040572
0.91585951
0.9014971
0.88730623
0.87327539
0.8593938
0.84565143
0.83203892
0.81854757
0.80516928
0.79189654
0.77872234
0.76564017
0.75264396
0.73972809
0.72688727
0.71411662
0.70141156
0.68876781
0.67618138
0.66364855
0.65116583
0.63872994
0.62633786
0.61398673
0.60167388
0.58939684
0.57715329
0.56494105
0.55275808
0.54060248
0.52847246
0.51636635
0.50428259
0.49221971
0.48017636
0.46815127
0.45614325
0.44415121
0.43217408
0.42021091
0.40826076
0.39632278
0.38439617
0.37248016
0.36057409
0.34867729
0.33678918
0.3249092
0.31303682
0.30117153
0.28931285
0.27746035
0.2656136
0.25377223
0.2419359
0.23010429
0.2182771
0.20645406
0.19463488
0.18281932
0.17100712
0.15919804
0.14739191
0.13558851
0.1237877
0.11198931
0.10019322
0.088399256
0.076607302
0.064817211
0.053028841
0.041242158
0.029456848
0.017673273
0.005890187
1.6755934
1.5545156
1.4585351
1.394879
1.3463695
1.3038974
1.2663622
1.2341904
1.2067901
1.1829525
1.1615582
1.1417943
1.1231172
1.1051777
1.0877624
1.0707482
1.0540673
1.0376831
1.0215749
1.005729
0.99013399
0.97477889
0.9596522
0.94474197
0.93003597
0.91552198
0.90118801
0.8870225
0.87301444
0.85915343
0.84542972
0.83183417
0.81835828
0.80499411
0.79173428
0.77857192
0.76550062
0.75251441
0.73960774
0.72677542
0.71401261
0.70131479
0.68867775
0.67609754
0.66357047
0.65109308
0.63866215
0.62627467
0.61392781
0.60161894
0.58934561
0.57710551
0.56489648
0.5527165
0.54056368
0.52843625
0.51633255
0.50425104
0.49219026
0.48014887
0.46812561
0.4561193
0.44412885
0.43215322
0.42019143
0.40824257
0.39630578
0.38438028
0.37246533
0.36056023
0.34866436
0.33677712
0.32489794
0.31302631
0.30116171
0.28930368
0.27745177
0.26560558
0.25376474
0.24192891
0.23009777
0.21827103
0.2064484
0.1946296
0.18281439
0.17100251
0.15919374
0.14738789
0.13558477
0.12378423
0.1119861
0.10019024
0.088396504
0.076604755
0.064814852
0.05302668
0.041240159
0.029455137
0.01767176
0.0058894622
)
;

boundaryField
{
    top
    {
        type            zeroGradient;
    }
    inlet
    {
        type            zeroGradient;
    }
    outlet
    {
        type            fixedValue;
        value           uniform 0;
    }
    bottom
    {
        type            zeroGradient;
    }
    back
    {
        type            empty;
    }
    front
    {
        type            empty;
    }
}


// ************************************************************************* //
