/*--------------------------------*- C++ -*----------------------------------*\
| =========                 |                                                 |
| \\      /  F ield         | OpenFOAM: The Open Source CFD Toolbox           |
|  \\    /   O peration     | Version:  v1812                                 |
|   \\  /    A nd           | Web:      www.OpenFOAM.com                      |
|    \\/     M anipulation  |                                                 |
\*---------------------------------------------------------------------------*/
FoamFile
{
    version     2.0;
    format      ascii;
    class       volScalarField;
    location    "8";
    object      p;
}
// * * * * * * * * * * * * * * * * * * * * * * * * * * * * * * * * * * * * * //

dimensions      [0 2 -2 0 0 0 0];


internalField   nonuniform List<scalar> 
1000
(
1.5142038
1.4971438
1.4806826
1.4646085
1.4487618
1.433058
1.4174556
1.4019318
1.3864702
1.3710577
1.3556837
1.3403409
1.3250243
1.3097302
1.2944559
1.279199
1.2639575
1.2487298
1.2335143
1.2183098
1.2031151
1.1879291
1.172751
1.1575798
1.1424149
1.1272555
1.112101
1.0969509
1.0818046
1.0666615
1.0515213
1.0363834
1.0212475
1.0061133
0.99098035
0.97584843
0.96071729
0.94558673
0.93045658
0.91532674
0.90019709
0.88506757
0.86993812
0.85480873
0.83967936
0.82455
0.80942065
0.7942913
0.77916195
0.76403259
0.74890324
0.73377388
0.71864452
0.70351516
0.6883858
0.67325644
0.65812709
0.64299773
0.62786837
0.61273901
0.59760965
0.58248029
0.56735094
0.55222158
0.53709222
0.52196286
0.5068335
0.49170414
0.47657478
0.46144542
0.44631607
0.43118671
0.41605735
0.40092799
0.38579863
0.37066927
0.35553991
0.34041055
0.32528119
0.31015183
0.29502247
0.27989312
0.26476376
0.2496344
0.23450504
0.21937568
0.20424632
0.18911696
0.1739876
0.15885825
0.14372889
0.12859953
0.11347017
0.098340811
0.083211452
0.068082094
0.052952736
0.037823379
0.022694023
0.0075646717
1.5137786
1.496699
1.4805666
1.4647305
1.4489399
1.4332062
1.4175687
1.4020248
1.3865511
1.3711273
1.3557422
1.3403895
1.325065
1.3097647
1.2944855
1.2792245
1.2639795
1.2487488
1.2335307
1.218324
1.2031273
1.1879396
1.1727599
1.1575874
1.1424213
1.1272608
1.1121054
1.0969545
1.0818074
1.0666637
1.051523
1.0363847
1.0212485
1.006114
0.99098081
0.97584874
0.96071748
0.94558684
0.93045665
0.91532677
0.9001971
0.88506757
0.86993812
0.85480873
0.83967936
0.82455
0.80942065
0.7942913
0.77916194
0.76403259
0.74890323
0.73377388
0.71864452
0.70351516
0.6883858
0.67325644
0.65812709
0.64299773
0.62786837
0.61273901
0.59760965
0.58248029
0.56735094
0.55222158
0.53709222
0.52196286
0.5068335
0.49170414
0.47657478
0.46144542
0.44631607
0.43118671
0.41605735
0.40092799
0.38579863
0.37066927
0.35553991
0.34041055
0.32528119
0.31015183
0.29502247
0.27989312
0.26476376
0.2496344
0.23450504
0.21937568
0.20424632
0.18911696
0.1739876
0.15885825
0.14372889
0.12859953
0.11347017
0.098340811
0.083211452
0.068082093
0.052952735
0.037823377
0.02269402
0.007564669
1.5130561
1.4958387
1.4801526
1.4647191
1.4490753
1.4333295
1.4176514
1.4020883
1.3866108
1.371184
1.355792
1.3404309
1.3250992
1.3097935
1.2945101
1.2792457
1.2639978
1.2487646
1.2335444
1.2183358
1.2031375
1.1879484
1.1727675
1.157594
1.1424269
1.1272656
1.1121095
1.0969579
1.0818102
1.066666
1.0515248
1.0363862
1.0212496
1.0061148
0.99098147
0.97584922
0.96071783
0.94558709
0.93045682
0.91532688
0.90019717
0.88506761
0.86993815
0.85480874
0.83967936
0.82455
0.80942065
0.7942913
0.77916194
0.76403259
0.74890323
0.73377388
0.71864452
0.70351516
0.6883858
0.67325644
0.65812709
0.64299773
0.62786837
0.61273901
0.59760965
0.58248029
0.56735094
0.55222158
0.53709222
0.52196286
0.5068335
0.49170414
0.47657478
0.46144542
0.44631607
0.43118671
0.41605735
0.40092799
0.38579863
0.37066927
0.35553991
0.34041055
0.32528119
0.31015183
0.29502247
0.27989312
0.26476376
0.2496344
0.23450504
0.21937568
0.20424632
0.18911696
0.1739876
0.15885825
0.14372889
0.12859953
0.11347017
0.09834081
0.083211451
0.068082092
0.052952732
0.037823374
0.022694015
0.0075646656
1.5123796
1.4949655
1.4796581
1.464636
1.4491771
1.4334418
1.417728
1.4021467
1.3866685
1.3712423
1.3558453
1.3404762
1.3251369
1.3098255
1.2945377
1.2792696
1.2640185
1.2487825
1.2335599
1.2183494
1.2031494
1.1879589
1.1727767
1.157602
1.142434
1.1272718
1.1121149
1.0969625
1.0818142
1.0666694
1.0515277
1.0363885
1.0212516
1.0061164
0.99098272
0.97585019
0.96071857
0.94558763
0.93045721
0.91532716
0.90019736
0.88506774
0.86993823
0.85480879
0.8396794
0.82455002
0.80942066
0.7942913
0.77916195
0.76403259
0.74890323
0.73377388
0.71864452
0.70351516
0.6883858
0.67325644
0.65812709
0.64299773
0.62786837
0.61273901
0.59760965
0.58248029
0.56735094
0.55222158
0.53709222
0.52196286
0.5068335
0.49170414
0.47657478
0.46144542
0.44631607
0.43118671
0.41605735
0.40092799
0.38579863
0.37066927
0.35553991
0.34041055
0.32528119
0.31015183
0.29502247
0.27989312
0.26476376
0.2496344
0.23450504
0.21937568
0.20424632
0.18911696
0.1739876
0.15885825
0.14372889
0.12859953
0.11347017
0.09834081
0.08321145
0.06808209
0.052952729
0.03782337
0.02269401
0.0075646627
1.5119899
1.4944407
1.47934
1.4645674
1.4492329
1.4335114
1.4177768
1.4021838
1.3867058
1.3712812
1.355882
1.3405081
1.3251639
1.3098486
1.2945578
1.2792872
1.2640339
1.248796
1.2335718
1.2183598
1.2031587
1.1879671
1.172784
1.1576084
1.1424396
1.1272768
1.1121192
1.0969663
1.0818175
1.0666723
1.0515301
1.0363906
1.0212533
1.0061178
0.99098384
0.97585107
0.96071925
0.94558815
0.93045759
0.91532743
0.90019755
0.88506787
0.86993832
0.85480885
0.83967943
0.82455004
0.80942067
0.79429131
0.77916195
0.76403259
0.74890323
0.73377388
0.71864452
0.70351516
0.6883858
0.67325644
0.65812709
0.64299773
0.62786837
0.61273901
0.59760965
0.58248029
0.56735094
0.55222158
0.53709222
0.52196286
0.5068335
0.49170414
0.47657478
0.46144542
0.44631607
0.43118671
0.41605735
0.40092799
0.38579863
0.37066927
0.35553991
0.34041055
0.32528119
0.31015183
0.29502247
0.27989312
0.26476376
0.2496344
0.23450504
0.21937568
0.20424632
0.18911696
0.1739876
0.15885825
0.14372889
0.12859953
0.11347017
0.098340809
0.083211449
0.068082089
0.052952727
0.037823368
0.022694007
0.0075646609
1.5119899
1.4944407
1.47934
1.4645674
1.4492329
1.4335114
1.4177768
1.4021838
1.3867058
1.3712812
1.355882
1.3405081
1.3251639
1.3098486
1.2945578
1.2792872
1.2640339
1.248796
1.2335718
1.2183598
1.2031587
1.1879671
1.172784
1.1576084
1.1424396
1.1272768
1.1121192
1.0969663
1.0818175
1.0666723
1.0515301
1.0363906
1.0212533
1.0061178
0.99098384
0.97585107
0.96071925
0.94558815
0.93045759
0.91532743
0.90019755
0.88506787
0.86993832
0.85480885
0.83967943
0.82455004
0.80942067
0.79429131
0.77916195
0.76403259
0.74890323
0.73377388
0.71864452
0.70351516
0.6883858
0.67325644
0.65812709
0.64299773
0.62786837
0.61273901
0.59760965
0.58248029
0.56735094
0.55222158
0.53709222
0.52196286
0.5068335
0.49170414
0.47657478
0.46144542
0.44631607
0.43118671
0.41605735
0.40092799
0.38579863
0.37066927
0.35553991
0.34041055
0.32528119
0.31015183
0.29502247
0.27989312
0.26476376
0.2496344
0.23450504
0.21937568
0.20424632
0.18911696
0.1739876
0.15885825
0.14372889
0.12859953
0.11347017
0.098340809
0.083211448
0.068082088
0.052952727
0.037823368
0.022694007
0.0075646605
1.5123796
1.4949655
1.4796581
1.464636
1.4491771
1.4334419
1.417728
1.4021467
1.3866685
1.3712423
1.3558453
1.3404762
1.3251369
1.3098255
1.2945377
1.2792696
1.2640185
1.2487825
1.2335599
1.2183494
1.2031494
1.1879589
1.1727767
1.157602
1.142434
1.1272718
1.1121148
1.0969625
1.0818142
1.0666694
1.0515277
1.0363885
1.0212516
1.0061164
0.99098272
0.97585019
0.96071857
0.94558763
0.93045721
0.91532716
0.90019737
0.88506774
0.86993823
0.85480879
0.8396794
0.82455002
0.80942066
0.7942913
0.77916195
0.76403259
0.74890323
0.73377388
0.71864452
0.70351516
0.6883858
0.67325644
0.65812709
0.64299773
0.62786837
0.61273901
0.59760965
0.58248029
0.56735094
0.55222158
0.53709222
0.52196286
0.5068335
0.49170414
0.47657478
0.46144542
0.44631607
0.43118671
0.41605735
0.40092799
0.38579863
0.37066927
0.35553991
0.34041055
0.32528119
0.31015183
0.29502247
0.27989312
0.26476376
0.2496344
0.23450504
0.21937568
0.20424632
0.18911696
0.1739876
0.15885825
0.14372889
0.12859953
0.11347017
0.098340809
0.083211449
0.068082089
0.052952729
0.03782337
0.02269401
0.0075646619
1.5130561
1.4958387
1.4801526
1.4647191
1.4490753
1.4333295
1.4176514
1.4020883
1.3866108
1.371184
1.355792
1.3404309
1.3250992
1.3097935
1.2945101
1.2792457
1.2639978
1.2487646
1.2335444
1.2183358
1.2031375
1.1879484
1.1727675
1.157594
1.1424269
1.1272656
1.1121095
1.0969578
1.0818102
1.066666
1.0515248
1.0363862
1.0212496
1.0061148
0.99098147
0.97584922
0.96071783
0.94558709
0.93045682
0.91532688
0.90019717
0.88506761
0.86993815
0.85480874
0.83967937
0.82455001
0.80942065
0.7942913
0.77916195
0.76403259
0.74890324
0.73377388
0.71864452
0.70351516
0.6883858
0.67325644
0.65812709
0.64299773
0.62786837
0.61273901
0.59760965
0.58248029
0.56735094
0.55222158
0.53709222
0.52196286
0.5068335
0.49170414
0.47657478
0.46144542
0.44631607
0.43118671
0.41605735
0.40092799
0.38579863
0.37066927
0.35553991
0.34041055
0.32528119
0.31015183
0.29502247
0.27989312
0.26476376
0.2496344
0.23450504
0.21937568
0.20424632
0.18911696
0.1739876
0.15885825
0.14372889
0.12859953
0.11347017
0.098340809
0.08321145
0.068082091
0.052952732
0.037823374
0.022694014
0.0075646647
1.5137786
1.496699
1.4805666
1.4647305
1.4489399
1.4332062
1.4175687
1.4020248
1.3865511
1.3711273
1.3557422
1.3403895
1.325065
1.3097647
1.2944855
1.2792245
1.2639795
1.2487488
1.2335307
1.218324
1.2031273
1.1879396
1.1727599
1.1575874
1.1424213
1.1272608
1.1121054
1.0969545
1.0818074
1.0666637
1.051523
1.0363847
1.0212485
1.006114
0.99098081
0.97584874
0.96071748
0.94558685
0.93045665
0.91532677
0.9001971
0.88506757
0.86993813
0.85480873
0.83967936
0.82455
0.80942065
0.7942913
0.77916195
0.76403259
0.74890324
0.73377388
0.71864452
0.70351516
0.6883858
0.67325644
0.65812709
0.64299773
0.62786837
0.61273901
0.59760965
0.58248029
0.56735093
0.55222158
0.53709222
0.52196286
0.5068335
0.49170414
0.47657478
0.46144542
0.44631607
0.43118671
0.41605735
0.40092799
0.38579863
0.37066927
0.35553991
0.34041055
0.32528119
0.31015183
0.29502247
0.27989312
0.26476376
0.2496344
0.23450504
0.21937568
0.20424632
0.18911696
0.1739876
0.15885825
0.14372889
0.12859953
0.11347017
0.09834081
0.083211451
0.068082092
0.052952734
0.037823377
0.022694019
0.0075646684
1.5142038
1.4971438
1.4806826
1.4646085
1.4487618
1.433058
1.4174556
1.4019318
1.3864702
1.3710577
1.3556837
1.3403409
1.3250243
1.3097302
1.2944559
1.279199
1.2639575
1.2487298
1.2335143
1.2183098
1.2031151
1.1879291
1.172751
1.1575798
1.1424149
1.1272555
1.112101
1.0969509
1.0818045
1.0666615
1.0515213
1.0363834
1.0212475
1.0061133
0.99098035
0.97584843
0.96071729
0.94558673
0.93045659
0.91532674
0.90019709
0.88506757
0.86993813
0.85480873
0.83967936
0.82455001
0.80942065
0.7942913
0.77916195
0.76403259
0.74890324
0.73377388
0.71864452
0.70351516
0.6883858
0.67325644
0.65812709
0.64299773
0.62786837
0.61273901
0.59760965
0.58248029
0.56735093
0.55222158
0.53709222
0.52196286
0.5068335
0.49170414
0.47657478
0.46144542
0.44631607
0.43118671
0.41605735
0.40092799
0.38579863
0.37066927
0.35553991
0.34041055
0.32528119
0.31015183
0.29502247
0.27989312
0.26476376
0.2496344
0.23450504
0.21937568
0.20424632
0.18911696
0.1739876
0.15885825
0.14372889
0.12859953
0.11347017
0.09834081
0.083211451
0.068082093
0.052952735
0.037823379
0.022694023
0.0075646714
)
;

boundaryField
{
    top
    {
        type            zeroGradient;
    }
    inlet
    {
        type            fixedValue;
        value           uniform 1.523;
    }
    outlet
    {
        type            fixedValue;
        value           uniform 0;
    }
    bottom
    {
        type            zeroGradient;
    }
    back
    {
        type            empty;
    }
    front
    {
        type            empty;
    }
}


// ************************************************************************* //
