/*--------------------------------*- C++ -*----------------------------------*\
| =========                 |                                                 |
| \\      /  F ield         | OpenFOAM: The Open Source CFD Toolbox           |
|  \\    /   O peration     | Version:  v1812                                 |
|   \\  /    A nd           | Web:      www.OpenFOAM.com                      |
|    \\/     M anipulation  |                                                 |
\*---------------------------------------------------------------------------*/
FoamFile
{
    version     2.0;
    format      ascii;
    class       volScalarField;
    location    "2";
    object      p;
}
// * * * * * * * * * * * * * * * * * * * * * * * * * * * * * * * * * * * * * //

dimensions      [0 2 -2 0 0 0 0];


internalField   nonuniform List<scalar> 
1000
(
1.7731673
1.652088
1.5561063
1.4924505
1.4439406
1.4014707
1.36396
1.331845
1.3045312
1.2808279
1.2596489
1.2402045
1.2219636
1.2045925
1.1878917
1.1717383
1.1560493
1.1407621
1.1258233
1.1111802
1.0967779
1.0825643
1.0684931
1.0545255
1.0406302
1.0267831
1.0129668
0.99916934
0.98538111
0.9715972
0.95781586
0.94403551
0.93025527
0.91647477
0.90269394
0.8889128
0.87513143
0.86134991
0.8475683
0.83378664
0.82000495
0.80622326
0.79244156
0.77865985
0.76487815
0.75109645
0.73731476
0.72353306
0.70975137
0.69596967
0.68218798
0.66840629
0.65462459
0.6408429
0.62706121
0.61327952
0.59949783
0.58571614
0.57193444
0.55815275
0.54437106
0.53058937
0.51680768
0.50302599
0.4892443
0.47546261
0.46168091
0.44789922
0.43411753
0.42033584
0.40655415
0.39277246
0.37899076
0.36520909
0.35142737
0.33764571
0.32386398
0.31008233
0.29630061
0.28251894
0.26873725
0.25495553
0.2411739
0.2273921
0.21361054
0.19982873
0.18604711
0.17226543
0.15848362
0.14470213
0.13092022
0.11713868
0.10335699
0.089575186
0.075793697
0.062011968
0.048230348
0.03444911
0.020667937
0.0068882832
1.6559489
1.6010208
1.5400697
1.4885064
1.4452437
1.4062768
1.3706924
1.3389543
1.3110751
1.286418
1.2641872
1.2437446
1.2246428
1.2065708
1.1893151
1.1727331
1.1567243
1.141207
1.1261062
1.1113505
1.0968728
1.0826113
1.0685118
1.0545288
1.0406261
1.0267762
1.0129593
0.99916137
0.98537444
0.97159304
0.95781342
0.94403411
0.93025449
0.91647435
0.90269372
0.8889127
0.87513139
0.86134991
0.84756831
0.83378665
0.82000497
0.80622327
0.79244156
0.77865986
0.76487816
0.75109646
0.73731476
0.72353306
0.70975137
0.69596967
0.68218798
0.66840629
0.65462459
0.6408429
0.62706121
0.61327952
0.59949783
0.58571614
0.57193444
0.55815275
0.54437106
0.53058937
0.51680768
0.50302599
0.4892443
0.47546261
0.46168091
0.44789923
0.43411753
0.42033585
0.40655414
0.39277247
0.37899075
0.3652091
0.35142736
0.33764572
0.32386397
0.31008234
0.2963006
0.28251894
0.26873726
0.2549555
0.24117394
0.22739206
0.21361058
0.1998287
0.18604711
0.17226545
0.15848359
0.14470214
0.13092024
0.1171386
0.10335702
0.089575091
0.075793542
0.062011954
0.048229984
0.034448687
0.02066714
0.0068873354
1.5951307
1.5689593
1.5305682
1.4894419
1.4503714
1.4137913
1.3794868
1.3477894
1.3190353
1.2930978
1.2695248
1.2478595
1.2277509
1.2089041
1.1910604
1.1740258
1.1576712
1.1418972
1.1266087
1.111714
1.0971317
1.082792
1.0686354
1.0546115
1.04068
1.0268101
1.0129799
0.9991737
0.98538137
0.97159636
0.95781477
0.94403448
0.93025442
0.91647413
0.90269348
0.88891249
0.87513124
0.8613498
0.84756824
0.83378661
0.82000494
0.80622325
0.79244155
0.77865985
0.76487815
0.75109646
0.73731476
0.72353306
0.70975137
0.69596967
0.68218798
0.66840629
0.6546246
0.6408429
0.62706121
0.61327952
0.59949783
0.58571614
0.57193444
0.55815275
0.54437106
0.53058937
0.51680768
0.50302599
0.4892443
0.47546261
0.46168091
0.44789923
0.43411753
0.42033585
0.40655414
0.39277248
0.37899074
0.36520911
0.35142734
0.33764574
0.32386395
0.31008236
0.29630059
0.28251894
0.26873727
0.25495547
0.24117399
0.227392
0.21361065
0.19982863
0.18604716
0.1722654
0.15848359
0.14470213
0.13092014
0.11713861
0.10335676
0.089575015
0.075793152
0.062011453
0.048229312
0.034447445
0.020665715
0.0068863687
1.565726
1.5502333
1.5233719
1.4894561
1.4536733
1.4187394
1.3854302
1.3540951
1.3250889
1.2985053
1.2741236
1.2516471
1.2308253
1.211397
1.193079
1.1756429
1.1589487
1.1428971
1.1273855
1.1123091
1.0975776
1.0831178
1.0688677
1.0547731
1.0407893
1.0268819
1.0130254
0.99920153
0.98539768
0.97160543
0.9578195
0.94403671
0.93025529
0.91647433
0.9026934
0.88891232
0.87513107
0.86134966
0.84756814
0.83378654
0.8200049
0.80622323
0.79244154
0.77865985
0.76487815
0.75109645
0.73731476
0.72353306
0.70975137
0.69596967
0.68218798
0.66840629
0.6546246
0.6408429
0.62706121
0.61327952
0.59949783
0.58571614
0.57193444
0.55815275
0.54437106
0.53058937
0.51680768
0.50302599
0.4892443
0.47546261
0.46168091
0.44789923
0.43411752
0.42033585
0.40655413
0.39277248
0.37899073
0.36520912
0.35142733
0.33764576
0.32386393
0.31008238
0.29630057
0.28251895
0.26873727
0.25495545
0.24117403
0.22739193
0.21361073
0.19982852
0.18604725
0.17226532
0.15848357
0.14470218
0.1309199
0.11713874
0.10335642
0.089574824
0.075792867
0.062010652
0.048228662
0.034446364
0.020664369
0.0068856959
1.5529969
1.5410496
1.5188252
1.4885464
1.4547041
1.4207281
1.3880254
1.3570412
1.3280812
1.3012968
1.2765849
1.2537452
1.2325876
1.2128734
1.1943105
1.1766568
1.1597709
1.1435577
1.1279126
1.1127243
1.097898
1.0833595
1.0690458
1.0549014
1.0408794
1.0269433
1.013066
0.99922743
0.98541362
0.97161483
0.95782475
0.94403946
0.93025661
0.91647488
0.90269354
0.88891229
0.87513098
0.86134957
0.84756807
0.83378649
0.82000486
0.8062232
0.79244153
0.77865984
0.76487815
0.75109645
0.73731476
0.72353306
0.70975137
0.69596967
0.68218798
0.66840629
0.6546246
0.6408429
0.62706121
0.61327952
0.59949783
0.58571614
0.57193444
0.55815275
0.54437106
0.53058937
0.51680768
0.50302599
0.4892443
0.47546261
0.46168091
0.44789923
0.43411752
0.42033585
0.40655413
0.39277249
0.37899073
0.36520913
0.35142732
0.33764577
0.32386392
0.31008239
0.29630056
0.28251895
0.26873728
0.25495543
0.24117406
0.22739188
0.21361079
0.19982845
0.1860473
0.17226528
0.15848352
0.14470224
0.13091972
0.11713882
0.10335622
0.089574642
0.075792775
0.062010123
0.048228266
0.03444586
0.020663627
0.0068853513
1.5529969
1.5410496
1.5188252
1.4885464
1.454704
1.4207281
1.3880253
1.3570412
1.3280812
1.3012968
1.2765849
1.2537452
1.2325876
1.2128734
1.1943105
1.1766568
1.1597709
1.1435577
1.1279126
1.1127243
1.097898
1.0833594
1.0690458
1.0549014
1.0408794
1.0269433
1.0130659
0.99922743
0.98541361
0.97161482
0.95782475
0.94403946
0.9302566
0.91647487
0.90269354
0.88891229
0.87513098
0.86134957
0.84756806
0.83378649
0.82000486
0.8062232
0.79244153
0.77865984
0.76487815
0.75109645
0.73731476
0.72353306
0.70975137
0.69596967
0.68218798
0.66840629
0.6546246
0.6408429
0.62706121
0.61327952
0.59949783
0.58571614
0.57193444
0.55815275
0.54437106
0.53058937
0.51680768
0.50302599
0.4892443
0.47546261
0.46168091
0.44789923
0.43411752
0.42033585
0.40655413
0.39277249
0.37899073
0.36520913
0.35142732
0.33764577
0.32386392
0.31008239
0.29630056
0.28251895
0.26873728
0.25495543
0.24117406
0.22739188
0.21361079
0.19982845
0.1860473
0.17226528
0.15848352
0.14470224
0.13091972
0.11713882
0.10335622
0.089574641
0.075792775
0.062010124
0.048228267
0.03444586
0.020663626
0.0068853513
1.565726
1.5502333
1.5233719
1.489456
1.4536733
1.4187393
1.3854302
1.3540951
1.3250889
1.2985053
1.2741236
1.2516471
1.2308253
1.211397
1.193079
1.1756429
1.1589487
1.1428971
1.1273855
1.1123091
1.0975776
1.0831178
1.0688677
1.0547731
1.0407893
1.0268819
1.0130254
0.99920152
0.98539766
0.97160542
0.95781948
0.94403669
0.93025528
0.91647432
0.90269339
0.88891231
0.87513106
0.86134965
0.84756814
0.83378654
0.8200049
0.80622322
0.79244154
0.77865985
0.76487815
0.75109645
0.73731476
0.72353306
0.70975137
0.69596968
0.68218798
0.66840629
0.6546246
0.6408429
0.62706121
0.61327952
0.59949783
0.58571614
0.57193445
0.55815275
0.54437106
0.53058937
0.51680768
0.50302599
0.4892443
0.47546261
0.46168091
0.44789923
0.43411752
0.42033585
0.40655413
0.39277248
0.37899073
0.36520912
0.35142733
0.33764576
0.32386393
0.31008238
0.29630057
0.28251894
0.26873727
0.25495545
0.24117403
0.22739193
0.21361073
0.19982852
0.18604725
0.17226532
0.15848357
0.14470218
0.1309199
0.11713874
0.10335641
0.089574823
0.075792868
0.062010654
0.048228663
0.034446363
0.020664369
0.006885696
1.5951307
1.5689593
1.5305682
1.4894419
1.4503714
1.4137913
1.3794868
1.3477894
1.3190353
1.2930978
1.2695248
1.2478595
1.2277509
1.2089041
1.1910604
1.1740258
1.1576712
1.1418972
1.1266087
1.111714
1.0971317
1.082792
1.0686354
1.0546115
1.04068
1.0268101
1.0129799
0.99917369
0.98538135
0.97159634
0.95781475
0.94403446
0.9302544
0.91647411
0.90269346
0.88891248
0.87513123
0.86134979
0.84756823
0.83378661
0.82000494
0.80622325
0.79244155
0.77865985
0.76487815
0.75109646
0.73731476
0.72353306
0.70975137
0.69596968
0.68218798
0.66840629
0.6546246
0.6408429
0.62706121
0.61327952
0.59949783
0.58571614
0.57193445
0.55815275
0.54437106
0.53058937
0.51680768
0.50302599
0.4892443
0.47546261
0.46168091
0.44789923
0.43411753
0.42033585
0.40655414
0.39277248
0.37899074
0.36520911
0.35142734
0.33764574
0.32386395
0.31008236
0.29630059
0.28251894
0.26873727
0.25495547
0.24117398
0.227392
0.21361065
0.19982863
0.18604716
0.17226541
0.15848359
0.14470213
0.13092014
0.11713861
0.10335676
0.089575013
0.075793154
0.062011456
0.048229313
0.034447444
0.020665714
0.0068863688
1.6559489
1.6010208
1.5400697
1.4885064
1.4452436
1.4062767
1.3706924
1.3389543
1.3110751
1.286418
1.2641872
1.2437446
1.2246428
1.2065708
1.1893151
1.1727331
1.1567243
1.141207
1.1261062
1.1113505
1.0968728
1.0826113
1.0685118
1.0545288
1.0406261
1.0267762
1.0129593
0.99916136
0.98537442
0.97159301
0.9578134
0.94403409
0.93025446
0.91647433
0.9026937
0.88891268
0.87513138
0.8613499
0.84756831
0.83378665
0.82000496
0.80622326
0.79244156
0.77865986
0.76487816
0.75109646
0.73731476
0.72353306
0.70975137
0.69596968
0.68218798
0.66840629
0.6546246
0.6408429
0.62706121
0.61327952
0.59949783
0.58571614
0.57193445
0.55815275
0.54437106
0.53058937
0.51680768
0.50302599
0.4892443
0.47546261
0.46168091
0.44789923
0.43411753
0.42033585
0.40655414
0.39277247
0.37899075
0.36520909
0.35142736
0.33764572
0.32386397
0.31008234
0.2963006
0.28251893
0.26873726
0.2549555
0.24117394
0.22739206
0.21361058
0.1998287
0.18604711
0.17226545
0.15848359
0.14470214
0.13092024
0.11713859
0.10335701
0.08957509
0.075793545
0.062011959
0.048229986
0.034448686
0.020667138
0.006887335
1.7731673
1.652088
1.5561063
1.4924505
1.4439406
1.4014706
1.3639599
1.331845
1.3045312
1.2808279
1.2596489
1.2402045
1.2219636
1.2045925
1.1878917
1.1717383
1.1560493
1.1407621
1.1258233
1.1111802
1.0967779
1.0825643
1.0684931
1.0545255
1.0406302
1.0267831
1.0129668
0.99916932
0.98538109
0.97159718
0.95781584
0.94403549
0.93025525
0.91647476
0.90269392
0.88891278
0.87513142
0.86134991
0.8475683
0.83378664
0.82000495
0.80622326
0.79244156
0.77865985
0.76487815
0.75109646
0.73731476
0.72353306
0.70975137
0.69596968
0.68218798
0.66840629
0.6546246
0.6408429
0.62706121
0.61327952
0.59949783
0.58571614
0.57193445
0.55815275
0.54437106
0.53058937
0.51680768
0.50302599
0.4892443
0.47546261
0.46168091
0.44789922
0.43411753
0.42033584
0.40655415
0.39277246
0.37899076
0.36520909
0.35142737
0.33764571
0.32386398
0.31008233
0.29630061
0.28251894
0.26873725
0.25495552
0.2411739
0.2273921
0.21361054
0.19982872
0.18604711
0.17226543
0.15848362
0.14470213
0.13092022
0.11713868
0.10335698
0.089575188
0.075793702
0.062011971
0.048230347
0.034449106
0.020667934
0.0068882828
)
;

boundaryField
{
    top
    {
        type            zeroGradient;
    }
    inlet
    {
        type            zeroGradient;
    }
    outlet
    {
        type            fixedValue;
        value           uniform 0;
    }
    bottom
    {
        type            zeroGradient;
    }
    back
    {
        type            empty;
    }
    front
    {
        type            empty;
    }
}


// ************************************************************************* //
