/*--------------------------------*- C++ -*----------------------------------*\
| =========                 |                                                 |
| \\      /  F ield         | OpenFOAM: The Open Source CFD Toolbox           |
|  \\    /   O peration     | Version:  v1812                                 |
|   \\  /    A nd           | Web:      www.OpenFOAM.com                      |
|    \\/     M anipulation  |                                                 |
\*---------------------------------------------------------------------------*/
FoamFile
{
    version     2.0;
    format      ascii;
    class       surfaceScalarField;
    location    "16.65";
    object      phi;
}
// * * * * * * * * * * * * * * * * * * * * * * * * * * * * * * * * * * * * * //

dimensions      [0 3 -1 0 0 0 0];
oriented        oriented;


internalField   nonuniform List<scalar> 
1890
(
0.0093061958
0.00069380425
0.0082843931
0.0010218027
0.0073298986
0.00095449446
0.0064869553
0.00084294331
0.0057695845
0.00071737078
0.00518986
0.00057972443
0.004738168
0.00045169205
0.00439519
0.00034297802
0.0041390268
0.00025616318
0.003949107
0.00018991983
0.003807888
0.00014121897
0.0037013782
0.0001065098
0.003619058
8.2320219e-05
0.0035534117
6.5646243e-05
0.0034992845
5.4127247e-05
0.0034532444
4.6040037e-05
0.0034130502
4.0194282e-05
0.0033772574
3.5792748e-05
0.0033449386
3.2318757e-05
0.0033154894
2.9449283e-05
0.0032885008
2.6988584e-05
0.0032636805
2.4820307e-05
0.003240805
2.2875484e-05
0.0032196926
2.1112418e-05
0.0032001879
1.9504652e-05
0.0031821539
1.8034008e-05
0.0031654672
1.6686721e-05
0.0031500158
1.5451358e-05
0.0031356979
1.4317863e-05
0.0031224209
1.3277073e-05
0.0031101003
1.2320598e-05
0.0030986596
1.1440728e-05
0.0030880291
1.0630443e-05
0.0030781458
9.8833722e-06
0.003068952
9.1937745e-06
0.0030603955
8.5564949e-06
0.0030524285
7.9669128e-06
0.0030450076
7.4208964e-06
0.0030380929
6.9147421e-06
0.0030316478
6.445121e-06
0.0030256387
6.0090557e-06
0.0030200349
5.6038477e-06
0.0030148078
5.2270767e-06
0.0030099313
4.8765423e-06
0.003005381
4.5502527e-06
0.0030011346
4.2464038e-06
0.0029971713
3.9633377e-06
0.0029934717
3.6995585e-06
0.002990018
3.4536789e-06
0.0029867936
3.22442e-06
0.002983783
3.0106188e-06
0.0029809718
2.8111762e-06
0.0029783467
2.6250949e-06
0.0029758953
2.4514444e-06
0.002973606
2.2893594e-06
0.0029714679
2.138063e-06
0.0029694711
1.9968109e-06
0.0029676061
1.8649543e-06
0.0029658642
1.7418588e-06
0.0029642372
1.6269398e-06
0.0029627176
1.5196522e-06
0.0029612982
1.4194673e-06
0.0029599723
1.325907e-06
0.0029587338
1.2385118e-06
0.002957577
1.1568618e-06
0.0029564964
1.0805846e-06
0.002955487
1.0093246e-06
0.0029545442
9.4276777e-07
0.0029536635
8.8063384e-07
0.0029528409
8.2261799e-07
0.0029520724
7.6846661e-07
0.0029513546
7.1789767e-07
0.002950684
6.7064922e-07
0.0029500575
6.2648551e-07
0.0029494724
5.8519222e-07
0.0029489258
5.4658028e-07
0.0029484152
5.1051228e-07
0.0029479383
4.7681341e-07
0.0029474929
4.4539861e-07
0.0029470768
4.160773e-07
0.002946688
3.887523e-07
0.0029463249
3.632094e-07
0.0029459856
3.3935641e-07
0.0029456687
3.1698421e-07
0.0029453726
2.9608211e-07
0.0029450962
2.7642299e-07
0.0029448379
2.5821319e-07
0.0029445967
2.4105834e-07
0.0029443712
2.253273e-07
0.0029441609
2.1041222e-07
0.0029439642
1.968476e-07
0.0029437803
1.8377587e-07
0.0029436083
1.721159e-07
0.002943448
1.6037833e-07
0.0029432978
1.5018833e-07
0.0029431574
1.4029523e-07
0.0029430254
1.3210905e-07
0.0029429003
1.2511186e-07
0.0029427808
1.1941403e-07
1.2577345e-07
0.010339525
0.00035427931
0.010570754
0.00079057333
0.010606301
0.00091894817
0.010547572
0.00090167133
0.010422317
0.0008426262
0.010244356
0.00075768557
0.010039421
0.00065662743
0.0098287427
0.00055365586
0.009625135
0.00045977083
0.0094353013
0.00037975353
0.0092624277
0.00031409258
0.0091075333
0.00026140425
0.008970154
0.00021969948
0.0088489024
0.00018689785
0.0087419716
0.00016105801
0.0086474927
0.00014051893
0.008563694
0.00012399295
0.0084890108
0.00011047599
0.0084221097
9.9219866e-05
0.0083618776
8.9681405e-05
0.0083073955
8.1470669e-05
0.0082579079
7.4307848e-05
0.0082127929
6.7990493e-05
0.0081715354
6.2369981e-05
0.008133705
5.7335003e-05
0.0080989388
5.2800172e-05
0.0080669273
4.8698257e-05
0.0080374037
4.4974953e-05
0.0080101362
4.1585392e-05
0.0079849214
3.8491853e-05
0.0079615798
3.5662162e-05
0.0079399519
3.306862e-05
0.0079198952
3.0687179e-05
0.0079012817
2.8496855e-05
0.0078839962
2.6479244e-05
0.0078679345
2.4618143e-05
0.0078530022
2.2899242e-05
0.0078391133
2.1309844e-05
0.0078261893
1.9838662e-05
0.0078141589
1.8475614e-05
0.0078029563
1.7211669e-05
0.0077925214
1.603873e-05
0.007782799
1.4949484e-05
0.0077737382
1.3937341e-05
0.0077652921
1.2996323e-05
0.0077574175
1.2121002e-05
0.0077500744
1.130645e-05
0.0077432258
1.0548145e-05
0.0077368375
9.8419694e-06
0.0077308778
9.1841332e-06
0.0077253173
8.5711454e-06
0.0077201286
7.9998147e-06
0.0077152866
7.4671678e-06
0.0077107675
6.9704862e-06
0.0077065496
6.5072509e-06
0.0077026125
6.0751352e-06
0.0076989373
5.6720139e-06
0.0076955064
5.2958959e-06
0.0076923033
4.9449551e-06
0.0076893128
4.6174686e-06
0.0076865206
4.3118328e-06
0.0076839135
4.026567e-06
0.0076814792
3.760263e-06
0.007679206
3.5116423e-06
0.0076770834
3.2795038e-06
0.0076751012
3.0627423e-06
0.0076732501
2.8603533e-06
0.0076715215
2.6713907e-06
0.0076699072
2.4949731e-06
0.0076683996
2.3302857e-06
0.0076669915
2.1765236e-06
0.0076656765
2.0329389e-06
0.0076644483
1.898837e-06
0.0076633013
1.7735437e-06
0.0076622299
1.6564956e-06
0.0076612293
1.5471339e-06
0.0076602948
1.4450085e-06
0.007659422
1.3496377e-06
0.0076586068
1.2606464e-06
0.0076578453
1.1775459e-06
0.0076571341
1.1000345e-06
0.0076564698
1.027531e-06
0.0076558493
9.5989665e-07
0.0076552697
8.9649901e-07
0.0076547283
8.3743801e-07
0.0076542228
7.8189552e-07
0.0076537505
7.3046689e-07
0.0076533094
6.8214529e-07
0.0076528972
6.3760964e-07
0.0076525127
5.9496428e-07
0.0076521529
5.5670183e-07
0.0076518171
5.1953417e-07
0.0076515027
4.8640572e-07
0.0076512105
4.5244897e-07
0.0076509355
4.2510443e-07
0.0076506807
3.9527196e-07
0.0076504386
3.7433624e-07
0.0076502165
3.4709684e-07
0.0076499999
3.3606627e-07
3.1077177e-07
0.010188704
0.00016557515
0.010530487
0.00044879097
0.010851453
0.00059798174
0.011124174
0.00062895021
0.011350581
0.00061621883
0.011524486
0.00058378053
0.01164633
0.00053478419
0.011724155
0.00047583049
0.011767999
0.00041592665
0.011786639
0.00036111399
0.011787114
0.0003136171
0.011775058
0.00027346024
0.011754861
0.00023989717
0.011729768
0.00021199029
0.011702054
0.00018877259
0.011673239
0.00016933387
0.011644339
0.00015289295
0.011616003
0.00013881182
0.011588629
0.00012659378
0.011562446
0.00011586444
0.011537572
0.00010634493
0.011514052
9.7826993e-05
0.01149189
9.0153354e-05
0.011471056
8.3203354e-05
0.011451509
7.6882597e-05
0.011433193
7.1115545e-05
0.011416051
6.5840282e-05
0.011400021
6.1004899e-05
0.011385042
5.6565067e-05
0.011371051
5.2482338e-05
0.01135799
4.8723034e-05
0.011345801
4.5257396e-05
0.01133443
4.2059002e-05
0.011323822
3.9104279e-05
0.011313929
3.6372124e-05
0.011304704
3.3843606e-05
0.011296101
3.150169e-05
0.01128808
2.9331016e-05
0.011280601
2.7317701e-05
0.011273628
2.544918e-05
0.011267125
2.3714057e-05
0.011261062
2.2101961e-05
0.011255408
2.0603466e-05
0.011250135
1.9209956e-05
0.011245218
1.7913571e-05
0.011240632
1.6707115e-05
0.011236354
1.5583981e-05
0.011232364
1.4538114e-05
0.011228643
1.3563931e-05
0.01122517
1.2656299e-05
0.011221931
1.1810489e-05
0.011218909
1.1022111e-05
0.011216089
1.0287139e-05
0.011213457
9.6018263e-06
0.011211002
8.9627191e-06
0.01120871
8.3666306e-06
0.011206572
7.8105978e-06
0.011204576
7.2918846e-06
0.011202713
6.807925e-06
0.011200974
6.3563497e-06
0.011199351
5.9349582e-06
0.011197836
5.5416768e-06
0.011196421
5.1746143e-06
0.011195101
4.8319807e-06
0.011193868
4.5121414e-06
0.011192718
4.2135651e-06
0.011191643
3.9348338e-06
0.01119064
3.6746284e-06
0.011189703
3.4317201e-06
0.011188829
3.2049282e-06
0.011188012
2.9931943e-06
0.011187249
2.7954674e-06
0.011186537
2.6108237e-06
0.011185873
2.4383717e-06
0.011185252
2.2773343e-06
0.011184672
2.1269249e-06
0.01118413
1.9865134e-06
0.011183625
1.8553704e-06
0.011183152
1.7329926e-06
0.011182711
1.61864e-06
0.011182299
1.511936e-06
0.011181915
1.4121181e-06
0.011181556
1.3190589e-06
0.01118122
1.231838e-06
0.011180907
1.1506931e-06
0.011180614
1.0745172e-06
0.011180341
1.0041055e-06
0.011180086
9.372722e-07
0.011179847
8.7619823e-07
0.011179625
8.1775236e-07
0.011179416
7.6531203e-07
0.011179222
7.1273731e-07
0.01117904
6.6811083e-07
0.011178872
6.2103656e-07
0.011178712
5.8528735e-07
0.011178566
5.4113563e-07
0.011178425
5.1520157e-07
0.0111783
4.7227064e-07
0.011178177
4.5903146e-07
4.1607399e-07
0.010097182
6.8393549e-05
0.010346961
0.0001990111
0.010662469
0.00028247385
0.010982753
0.00030866646
0.011290229
0.00030874339
0.011575251
0.00029875786
0.011829022
0.00028101344
0.012047865
0.00025698755
0.012233272
0.00023051981
0.01238924
0.00020514589
0.012520295
0.00018256234
0.012630755
0.00016299955
0.012724428
0.00014622489
0.012804515
0.0001319031
0.012873613
0.00011967425
0.012933772
0.0001091746
0.012986596
0.00010006906
0.013033332
9.2076356e-05
0.01307495
8.4975242e-05
0.013112216
7.8598601e-05
0.013145739
7.2822293e-05
0.013176012
6.755393e-05
0.013203441
6.2723915e-05
0.013228366
5.8278884e-05
0.013251071
5.4176974e-05
0.013271802
5.0384416e-05
0.01329077
4.6873146e-05
0.013308155
4.3619165e-05
0.013324119
4.060145e-05
0.0133388
3.7801278e-05
0.013352321
3.5201755e-05
0.013364791
3.2787538e-05
0.013376306
3.0544601e-05
0.01338695
2.8460096e-05
0.0133968
2.6522226e-05
0.013405923
2.4720139e-05
0.013414381
2.3043845e-05
0.013422228
2.1484144e-05
0.013429513
2.003256e-05
0.013436281
1.8681271e-05
0.013442572
1.7423064e-05
0.013448423
1.6251283e-05
0.013453866
1.5159768e-05
0.013458933
1.4142837e-05
0.013463652
1.3195229e-05
0.013468047
1.2312077e-05
0.013472142
1.1488876e-05
0.013475958
1.0721443e-05
0.013479517
1.0005913e-05
0.013482834
9.3386902e-06
0.013485928
8.7164378e-06
0.013488814
8.1360708e-06
0.013491507
7.5947026e-06
0.013494019
7.0896713e-06
0.013496363
6.6185019e-06
0.013498551
6.1788939e-06
0.013500593
5.7687035e-06
0.013502499
5.3859283e-06
0.013504278
5.0287155e-06
0.013505939
4.6953345e-06
0.01350749
4.3841675e-06
0.013508938
4.0937289e-06
0.01351029
3.8226135e-06
0.013511552
3.5695333e-06
0.013512731
3.3332787e-06
0.013513832
3.1127276e-06
0.01351486
2.9068362e-06
0.01351582
2.7146159e-06
0.013516716
2.535155e-06
0.013517554
2.3675957e-06
0.013518336
2.2111243e-06
0.013519066
2.0650058e-06
0.013519748
1.9285624e-06
0.013520386
1.8011384e-06
0.013520981
1.6821806e-06
0.013521537
1.5710878e-06
0.013522056
1.4673893e-06
0.013522541
1.3705265e-06
0.013522994
1.2801149e-06
0.013523417
1.1955948e-06
0.013523812
1.1167312e-06
0.013524181
1.0429347e-06
0.013524526
9.7417232e-07
0.013524848
9.0970227e-07
0.013525148
8.4991591e-07
0.01352543
7.9367151e-07
0.013525692
7.4160498e-07
0.013525937
6.9216001e-07
0.013526166
6.4742129e-07
0.013526381
6.0400545e-07
0.01352658
5.6506143e-07
0.013526766
5.2575498e-07
0.013526941
4.9377344e-07
0.013527105
4.5850029e-07
0.013527257
4.3256523e-07
0.013527398
3.988247e-07
0.013527533
3.808295e-07
0.013527659
3.4713833e-07
0.01352778
3.3802887e-07
3.0563132e-07
0.010068394
-5.0972401e-12
0.010267405
-1.3169058e-11
0.010549879
-1.4236129e-11
0.010858545
-1.2308956e-11
0.011167288
-9.7278014e-12
0.011466046
-9.6381128e-12
0.01174706
-1.0213744e-11
0.012004047
-1.1663802e-11
0.012234567
-1.3510798e-11
0.012439713
-1.5768075e-11
0.012622275
-1.6235883e-11
0.012785275
-1.4415903e-11
0.0129315
-1.2596357e-11
0.013063403
-1.122935e-11
0.013183077
-1.0682779e-11
0.013292252
-1.0585749e-11
0.013392321
-1.0426918e-11
0.013484397
-1.0708981e-11
0.013569373
-1.0118334e-11
0.013647971
-9.0096939e-12
0.013720793
-8.1946472e-12
0.013788347
-8.4926494e-12
0.013851071
-8.5515908e-12
0.01390935
-1.0953176e-11
0.013963527
-1.3814249e-11
0.014013912
-1.5371108e-11
0.014060785
-1.6455157e-11
0.014104404
-1.4722172e-11
0.014145005
-9.2052029e-12
0.014182807
-3.9026822e-12
0.014218009
8.2877667e-13
0.014250796
2.6568024e-12
0.014281341
2.1540502e-12
0.014309801
-2.6457337e-13
0.014336323
-2.7556785e-12
0.014361043
-2.4516761e-12
0.014384087
1.6824769e-13
0.014405571
3.5992308e-12
0.014425604
6.806269e-12
0.014444285
8.8593924e-12
0.014461708
8.9618158e-12
0.014477959
5.9654599e-12
0.014493119
3.2141077e-12
0.014507262
2.5923891e-13
0.014520457
-2.6080718e-12
0.014532769
-2.8328669e-12
0.014544258
-1.6732284e-12
0.014554979
1.1979186e-12
0.014564985
7.3698332e-12
0.014574324
1.446608e-11
0.01458304
1.708068e-11
0.014591177
1.1235041e-11
0.014598771
3.625365e-12
0.014605861
-6.8369423e-12
0.014612479
-1.5349341e-11
0.014618658
-1.4395489e-11
0.014624427
-4.2236447e-12
0.014629813
8.535287e-12
0.014634842
2.1979673e-11
0.014639537
2.7818894e-11
0.014643921
2.4035811e-11
0.014648015
1.224932e-11
0.014651837
5.3640421e-13
0.014655407
-1.3902216e-11
0.01465874
-2.2351282e-11
0.014661853
-1.9881972e-11
0.01466476
-9.6145108e-12
0.014667474
8.4892942e-12
0.01467001
3.0191472e-11
0.014672377
4.032945e-11
0.014674588
3.800378e-11
0.014676653
1.7770752e-11
0.014678582
-7.7539678e-12
0.014680383
-3.3437615e-11
0.014682065
-4.7629651e-11
0.014683637
-3.4130341e-11
0.014685104
-6.322732e-12
0.014686474
3.3062269e-11
0.014687755
6.0417816e-11
0.01468895
5.4014161e-11
0.014690066
2.6973875e-11
0.014691109
-6.1065965e-13
0.014692084
-4.4978931e-11
0.014692994
-6.7814685e-11
0.014693842
-3.3171132e-11
0.014694637
6.4294988e-13
0.01469538
1.1757944e-11
0.014696071
5.2477267e-11
0.014696717
1.3164155e-10
0.014697322
7.344127e-11
0.014697889
-6.5683495e-11
0.014698412
-1.2269288e-10
0.014698905
-1.0109092e-10
0.014699366
4.0490902e-11
0.0146998
9.7885023e-11
0.014700196
4.2513669e-11
0.014700576
-5.8864768e-12
0.014700925
-2.2129946e-11
0.014701263
-5.9232877e-11
-7.0066895e-11
0.010068394
-6.8393558e-05
0.010267405
-0.00019901113
0.010549879
-0.00028247388
0.010858545
-0.00030866649
0.011167288
-0.00030874342
0.011466046
-0.00029875789
0.01174706
-0.00028101346
0.012004047
-0.00025698756
0.012234567
-0.00023051983
0.012439713
-0.00020514591
0.012622275
-0.00018256237
0.012785275
-0.00016299958
0.0129315
-0.00014622491
0.013063403
-0.00013190313
0.013183077
-0.00011967427
0.013292252
-0.00010917462
0.013392321
-0.00010006908
0.013484397
-9.2076369e-05
0.013569373
-8.4975256e-05
0.013647971
-7.8598617e-05
0.013720793
-7.2822307e-05
0.013788347
-6.7553941e-05
0.013851071
-6.272393e-05
0.01390935
-5.8278905e-05
0.013963527
-5.4176998e-05
0.014013912
-5.0384445e-05
0.014060785
-4.6873177e-05
0.014104404
-4.3619189e-05
0.014145005
-4.0601465e-05
0.014182807
-3.7801281e-05
0.014218008
-3.5201755e-05
0.014250796
-3.2787533e-05
0.014281341
-3.0544597e-05
0.014309801
-2.8460097e-05
0.014336323
-2.6522229e-05
0.014361043
-2.4720139e-05
0.014384087
-2.3043843e-05
0.014405571
-2.148414e-05
0.014425604
-2.0032549e-05
0.014444285
-1.8681256e-05
0.014461708
-1.7423051e-05
0.014477959
-1.6251269e-05
0.014493119
-1.5159759e-05
0.014507262
-1.4142833e-05
0.014520457
-1.3195232e-05
0.014532769
-1.2312084e-05
0.014544258
-1.148888e-05
0.014554979
-1.0721442e-05
0.014564985
-1.0005899e-05
0.014574324
-9.3386676e-06
0.014583041
-8.7164191e-06
0.014591177
-8.1360533e-06
0.014598771
-7.5946975e-06
0.014605861
-7.0896802e-06
0.014612479
-6.6185177e-06
0.014618658
-6.1789054e-06
0.014624427
-5.7687014e-06
0.014629813
-5.3859168e-06
0.014634842
-5.0286908e-06
0.014639537
-4.6952951e-06
0.014643921
-4.3841358e-06
0.014648015
-4.0937084e-06
0.014651837
-3.8226132e-06
0.014655407
-3.5695485e-06
0.01465874
-3.3333102e-06
0.014661853
-3.1127608e-06
0.01466476
-2.906849e-06
0.014667475
-2.7146039e-06
0.01467001
-2.5351185e-06
0.014672377
-2.3675343e-06
0.014674588
-2.2110796e-06
0.014676653
-2.0649847e-06
0.014678582
-1.9285761e-06
0.014680383
-1.8011872e-06
0.014682065
-1.6822328e-06
0.014683637
-1.5711217e-06
0.014685104
-1.4673847e-06
0.014686474
-1.3704824e-06
0.014687755
-1.2800547e-06
0.01468895
-1.1955378e-06
0.014690066
-1.1167043e-06
0.014691109
-1.0429519e-06
0.014692084
-9.7422129e-07
0.014692994
-9.0977686e-07
0.014693842
-8.4995617e-07
0.014694637
-7.9365887e-07
0.01469538
-7.4159026e-07
0.014696071
-6.9211801e-07
0.014696717
-6.4726883e-07
0.014697322
-6.03811e-07
0.014697889
-5.652526e-07
0.014698412
-5.2611199e-07
0.014698905
-4.9358296e-07
0.014699366
-4.5818062e-07
0.0146998
-4.3278426e-07
0.014700196
-3.9913383e-07
0.014700576
-3.8079428e-07
0.014700925
-3.4698716e-07
0.014701263
-3.3802714e-07
-3.0572092e-07
0.010097182
-0.00016557515
0.010346961
-0.000448791
0.010662469
-0.00059798177
0.010982753
-0.00062895025
0.011290229
-0.00061621886
0.011575251
-0.00058378055
0.011829022
-0.0005347842
0.012047865
-0.0004758305
0.012233272
-0.00041592666
0.01238924
-0.000361114
0.012520295
-0.00031361712
0.012630755
-0.00027346026
0.012724428
-0.00023989719
0.012804515
-0.00021199031
0.012873613
-0.00018877261
0.012933772
-0.00016933388
0.012986596
-0.00015289296
0.013033332
-0.00013881183
0.01307495
-0.00012659379
0.013112216
-0.00011586445
0.013145739
-0.00010634494
0.013176012
-9.7827003e-05
0.013203441
-9.0153367e-05
0.013228366
-8.3203372e-05
0.013251071
-7.6882621e-05
0.013271802
-7.1115569e-05
0.01329077
-6.5840299e-05
0.013308155
-6.1004912e-05
0.013324119
-5.6565071e-05
0.0133388
-5.2482338e-05
0.013352321
-4.8723026e-05
0.013364791
-4.5257388e-05
0.013376305
-4.2058997e-05
0.01338695
-3.9104274e-05
0.0133968
-3.6372125e-05
0.013405923
-3.3843611e-05
0.013414381
-3.1501695e-05
0.013422228
-2.9331015e-05
0.013429513
-2.7317695e-05
0.013436281
-2.5449171e-05
0.013442572
-2.3714039e-05
0.013448423
-2.2101946e-05
0.013453866
-2.0603454e-05
0.013458933
-1.9209953e-05
0.013463652
-1.7913575e-05
0.013468047
-1.6707121e-05
0.013472142
-1.5583989e-05
0.013475959
-1.4538114e-05
0.013479517
-1.3563928e-05
0.013482834
-1.2656295e-05
0.013485928
-1.1810474e-05
0.013488814
-1.1022099e-05
0.013491507
-1.0287126e-05
0.013494019
-9.6018183e-06
0.013496363
-8.9627207e-06
0.013498551
-8.3666395e-06
0.013500593
-7.8106144e-06
0.013502499
-7.2918887e-06
0.013504278
-6.8079192e-06
0.013505939
-6.3563373e-06
0.01350749
-5.9349306e-06
0.013508938
-5.5416521e-06
0.01351029
-5.1745965e-06
0.013511552
-4.8319827e-06
0.013512731
-4.5121535e-06
0.013513832
-4.2135834e-06
0.01351486
-3.934856e-06
0.01351582
-3.6746381e-06
0.013516716
-3.4317114e-06
0.013517554
-3.2049158e-06
0.013518336
-2.9931638e-06
0.013519066
-2.7954405e-06
0.013519748
-2.6108113e-06
0.013520386
-2.4383739e-06
0.013520981
-2.277351e-06
0.013521537
-2.126955e-06
0.013522056
-1.9865453e-06
0.013522541
-1.8553875e-06
0.013522994
-1.7329829e-06
0.013523417
-1.6186099e-06
0.013523812
-1.5118957e-06
0.013524181
-1.4120826e-06
0.013524526
-1.3190488e-06
0.013524848
-1.2318534e-06
0.013525148
-1.1507676e-06
0.01352543
-1.074567e-06
0.013525693
-1.0040551e-06
0.013525937
-9.372391e-07
0.013526166
-8.7630005e-07
0.01352638
-8.17781e-07
0.01352658
-7.6502534e-07
0.013526766
-7.1251544e-07
0.013526941
-6.6835254e-07
0.013527105
-6.213483e-07
0.013527257
-5.8527495e-07
0.013527398
-5.4103294e-07
0.013527533
-5.1515128e-07
0.013527659
-4.7221419e-07
0.01352778
-4.5901609e-07
-4.160764e-07
0.010188704
-0.00035427932
0.010530487
-0.00079057335
0.010851453
-0.0009189482
0.011124174
-0.00090167137
0.011350581
-0.00084262623
0.011524486
-0.00075768559
0.01164633
-0.00065662744
0.011724155
-0.00055365586
0.011767999
-0.00045977083
0.011786639
-0.00037975354
0.011787114
-0.00031409259
0.011775058
-0.00026140427
0.011754861
-0.00021969949
0.011729768
-0.00018689787
0.011702054
-0.00016105802
0.011673239
-0.00014051894
0.011644339
-0.00012399295
0.011616003
-0.00011047599
0.011588629
-9.9219868e-05
0.011562446
-8.9681405e-05
0.011537572
-8.1470672e-05
0.011514052
-7.4307851e-05
0.011491889
-6.7990502e-05
0.011471056
-6.2369994e-05
0.011451509
-5.7335017e-05
0.011433193
-5.2800186e-05
0.011416051
-4.8698267e-05
0.011400021
-4.4974955e-05
0.011385041
-4.1585392e-05
0.011371051
-3.8491848e-05
0.01135799
-3.5662156e-05
0.011345801
-3.3068611e-05
0.01133443
-3.0687172e-05
0.011323822
-2.849685e-05
0.011313929
-2.6479242e-05
0.011304704
-2.4618147e-05
0.011296101
-2.2899248e-05
0.01128808
-2.1309851e-05
0.011280601
-1.9838664e-05
0.011273628
-1.8475609e-05
0.011267125
-1.7211661e-05
0.011261062
-1.6038715e-05
0.011255408
-1.4949471e-05
0.011250135
-1.3937332e-05
0.011245218
-1.299632e-05
0.011240632
-1.2121009e-05
0.011236354
-1.1306457e-05
0.011232364
-1.0548156e-05
0.011228643
-9.8419786e-06
0.01122517
-9.1841366e-06
0.011221931
-8.5711471e-06
0.011218909
-7.9998028e-06
0.011216089
-7.4671508e-06
0.011213457
-6.9704652e-06
0.011211002
-6.5072344e-06
0.01120871
-6.0751377e-06
0.011206572
-5.6720284e-06
0.011204576
-5.2959222e-06
0.011202713
-4.9449768e-06
0.011200974
-4.6174787e-06
0.011199351
-4.3118302e-06
0.011197836
-4.0265423e-06
0.011196422
-3.7602334e-06
0.011195101
-3.5116133e-06
0.011193868
-3.2794869e-06
0.011192718
-3.0627466e-06
0.011191643
-2.8603754e-06
0.01119064
-2.6714249e-06
0.011189703
-2.4950136e-06
0.011188829
-2.3303064e-06
0.011188012
-2.1765235e-06
0.011187249
-2.0329102e-06
0.011186537
-1.8987885e-06
0.011185873
-1.773498e-06
0.011185252
-1.656471e-06
0.011184672
-1.5471436e-06
0.01118413
-1.4450595e-06
0.011183625
-1.3497067e-06
0.011183152
-1.2607106e-06
0.011182711
-1.1775671e-06
0.0111823
-1.1000026e-06
0.011181915
-1.027465e-06
0.011181556
-9.5981109e-07
0.01118122
-8.964425e-07
0.011180907
-8.3743645e-07
0.011180614
-7.8196334e-07
0.011180341
-7.30561e-07
0.011180086
-6.8219776e-07
0.011179847
-6.3766795e-07
0.011179624
-5.9502802e-07
0.011179416
-5.5653858e-07
0.011179222
-5.1916114e-07
0.01117904
-4.8630019e-07
0.011178872
-4.5280211e-07
0.011178712
-4.2542143e-07
0.011178566
-3.9517596e-07
0.011178425
-3.7414864e-07
0.0111783
-3.470533e-07
0.011178177
-3.3599477e-07
-3.1069873e-07
0.010339525
-0.00069380425
0.010570754
-0.0010218027
0.010606301
-0.00095449448
0.010547572
-0.00084294333
0.010422317
-0.0007173708
0.010244356
-0.00057972444
0.010039421
-0.00045169205
0.0098287427
-0.00034297801
0.009625135
-0.00025616318
0.0094353013
-0.00018991983
0.0092624277
-0.00014121897
0.0091075332
-0.0001065098
0.008970154
-8.2320226e-05
0.0088489023
-6.5646249e-05
0.0087419716
-5.4127255e-05
0.0086474927
-4.6040044e-05
0.008563694
-4.0194286e-05
0.0084890108
-3.5792751e-05
0.0084221096
-3.2318757e-05
0.0083618775
-2.9449282e-05
0.0083073954
-2.698858e-05
0.0082579079
-2.4820304e-05
0.0082127929
-2.2875483e-05
0.0081715353
-2.1112419e-05
0.0081337049
-1.9504656e-05
0.0080989388
-1.8034017e-05
0.0080669272
-1.6686727e-05
0.0080374036
-1.5451365e-05
0.0080101361
-1.4317864e-05
0.0079849213
-1.3277072e-05
0.0079615798
-1.2320591e-05
0.0079399519
-1.1440719e-05
0.0079198951
-1.0630432e-05
0.0079012816
-9.8833633e-06
0.0078839962
-9.1937706e-06
0.0078679345
-8.5564975e-06
0.0078530022
-7.9669222e-06
0.0078391133
-7.4209079e-06
0.0078261893
-6.9147504e-06
0.0078141589
-6.4451265e-06
0.0078029563
-6.0090513e-06
0.0077925214
-5.6038381e-06
0.007782799
-5.2270616e-06
0.0077737382
-4.8765273e-06
0.0077652921
-4.5502444e-06
0.0077574175
-4.2464019e-06
0.0077500744
-3.9633481e-06
0.0077432258
-3.6995738e-06
0.0077368375
-3.4536951e-06
0.0077308778
-3.2244369e-06
0.0077253173
-3.0106234e-06
0.0077201286
-2.8111704e-06
0.0077152866
-2.6250767e-06
0.0077107675
-2.4514167e-06
0.0077065496
-2.2893373e-06
0.0077026126
-2.1380505e-06
0.0076989374
-1.9968245e-06
0.0076955064
-1.8649812e-06
0.0076923033
-1.7418925e-06
0.0076893128
-1.62697e-06
0.0076865206
-1.5196627e-06
0.0076839135
-1.4194572e-06
0.0076814792
-1.3258751e-06
0.007679206
-1.238469e-06
0.0076770834
-1.1568263e-06
0.0076751012
-1.0805669e-06
0.0076732502
-1.0093384e-06
0.0076715216
-9.4281331e-07
0.0076699072
-8.8068778e-07
0.0076683996
-8.2266998e-07
0.0076669915
-7.6848725e-07
0.0076656765
-7.1787629e-07
0.0076644483
-6.7059687e-07
0.0076633012
-6.2641681e-07
0.0076622299
-5.8513924e-07
0.0076612294
-5.4656839e-07
0.0076602949
-5.1054628e-07
0.007659422
-4.768944e-07
0.0076586068
-4.4548588e-07
0.0076578453
-4.1613753e-07
0.0076571341
-3.8875565e-07
0.0076564698
-3.6314867e-07
0.0076558492
-3.3926418e-07
0.0076552697
-3.1687963e-07
0.0076547283
-2.9604326e-07
0.0076542229
-2.7645957e-07
0.0076537506
-2.5827244e-07
0.0076533094
-2.4117171e-07
0.0076528971
-2.2548423e-07
0.0076525126
-2.1041874e-07
0.0076521529
-1.9666769e-07
0.0076518172
-1.8360957e-07
0.0076515028
-1.7205731e-07
0.0076512105
-1.6040645e-07
0.0076509355
-1.5028637e-07
0.0076506807
-1.4040263e-07
0.0076504386
-1.3208711e-07
0.0076502165
-1.2500248e-07
0.0076499999
-1.1933715e-07
-1.2571546e-07
0.0093061957
0.0082843931
0.0073298986
0.0064869553
0.0057695845
0.00518986
0.004738168
0.00439519
0.0041390268
0.003949107
0.003807888
0.0037013782
0.003619058
0.0035534117
0.0034992845
0.0034532444
0.0034130501
0.0033772574
0.0033449386
0.0033154893
0.0032885008
0.0032636805
0.003240805
0.0032196926
0.0032001879
0.0031821539
0.0031654672
0.0031500158
0.0031356979
0.0031224208
0.0031101003
0.0030986595
0.0030880291
0.0030781458
0.003068952
0.0030603955
0.0030524286
0.0030450076
0.0030380929
0.0030316478
0.0030256387
0.0030200349
0.0030148078
0.0030099313
0.0030053811
0.0030011347
0.0029971713
0.0029934717
0.002990018
0.0029867936
0.0029837829
0.0029809718
0.0029783467
0.0029758953
0.002973606
0.002971468
0.0029694711
0.0029676061
0.0029658642
0.0029642372
0.0029627175
0.0029612981
0.0029599722
0.0029587338
0.002957577
0.0029564965
0.0029554871
0.0029545443
0.0029536635
0.0029528408
0.0029520723
0.0029513545
0.0029506839
0.0029500575
0.0029494724
0.0029489259
0.0029484153
0.0029479384
0.0029474928
0.0029470767
0.0029466879
0.0029463248
0.0029459856
0.0029456687
0.0029453727
0.0029450963
0.002944838
0.0029445965
0.0029443711
0.002944161
0.0029439642
0.0029437802
0.0029436083
0.0029434482
0.002943298
0.0029431574
0.0029430253
0.0029429003
0.0029427809
)
;

boundaryField
{
    top
    {
        type            calculated;
        value           uniform 0;
    }
    inlet
    {
        type            calculated;
        value           nonuniform List<scalar> 10(-0.01 -0.01 -0.01 -0.01 -0.01 -0.01 -0.01 -0.01 -0.01 -0.01);
    }
    outlet
    {
        type            calculated;
        value           nonuniform List<scalar> 10(0.002942655 0.0076498149 0.011178072 0.01352789 0.014701569 0.014701569 0.01352789 0.011178072 0.0076498149 0.0029426552);
    }
    bottom
    {
        type            calculated;
        value           uniform 0;
    }
    back
    {
        type            empty;
        value           nonuniform 0();
    }
    front
    {
        type            empty;
        value           nonuniform 0();
    }
}


// ************************************************************************* //
