/*--------------------------------*- C++ -*----------------------------------*\
| =========                 |                                                 |
| \\      /  F ield         | OpenFOAM: The Open Source CFD Toolbox           |
|  \\    /   O peration     | Version:  2112                                  |
|   \\  /    A nd           | Website:  www.openfoam.com                      |
|    \\/     M anipulation  |                                                 |
\*---------------------------------------------------------------------------*/
FoamFile
{
    version     2.0;
    format      ascii;
    arch        "LSB;label=32;scalar=64";
    class       surfaceScalarField;
    location    "3";
    object      phi;
}
// * * * * * * * * * * * * * * * * * * * * * * * * * * * * * * * * * * * * * //

dimensions      [0 3 -1 0 0 0 0];

oriented        oriented;

internalField   nonuniform List<scalar> 
1890
(
0.0093061957
0.00069380426
0.0082843938
0.0010218019
0.0073299014
0.00095449245
0.0064869642
0.0008429372
0.005769607
0.00071735725
0.0051899015
0.00057970551
0.0047382383
0.00045166324
0.004395304
0.0003429344
0.0041392004
0.00025610364
0.0039493606
0.00018983996
0.0038082557
0.0001411051
0.0037019151
0.00010634082
0.0036198419
8.2073565e-05
0.0035545417
6.5300563e-05
0.003500884
5.3657992e-05
0.003455476
4.5408478e-05
0.0034161325
3.9344029e-05
0.0033814755
3.4657442e-05
0.003350648
3.0827826e-05
0.0033231213
2.7526942e-05
0.003298568
2.4553346e-05
0.0032767755
2.1792582e-05
0.0032575856
1.9189751e-05
0.0032408581
1.6727437e-05
0.0032264493
1.4408631e-05
0.0032142025
1.2246754e-05
0.0032039432
1.0259156e-05
0.0031954808
8.4622787e-06
0.0031886133
6.8674982e-06
0.0031831337
5.4794406e-06
0.0031788376
4.2958952e-06
0.0031755298
3.3076241e-06
0.0031730297
2.4998155e-06
0.0031711758
1.8535863e-06
0.0031698276
1.3477958e-06
0.0031688667
9.605191e-07
0.0031681958
6.7054184e-07
0.0031677372
4.5822627e-07
0.0031674305
3.0630958e-07
0.0031672301
2.0008055e-07
0.0031671024
1.2756391e-07
0.0031670229
7.9237075e-08
0.0031669749
4.7859117e-08
0.0031669468
2.8009892e-08
0.003166931
1.5825361e-08
0.0031669224
8.5620626e-09
0.003166918
4.3974629e-09
0.0031669159
2.0946874e-09
0.003166915
8.9495494e-10
0.0031669147
3.0156357e-10
0.0031669147
5.6875823e-11
0.0031669148
-4.3964832e-11
0.0031669149
-5.9180619e-11
0.0031669149
-5.7196877e-11
0.003166915
-3.406566e-11
0.003166915
-2.5990251e-11
0.0031669151
-6.8149353e-12
0.0031669151
-9.3048167e-12
0.0031669151
4.9325234e-12
0.0031669151
-6.4363224e-12
0.0031669151
1.0465053e-11
0.0031669151
-1.0955217e-11
0.0031669151
1.3833029e-11
0.0031669151
-1.8022038e-11
0.0031669151
1.8662516e-11
0.0031669151
-2.4929552e-11
0.0031669151
2.2021604e-11
0.0031669151
-2.7189407e-11
0.0031669151
2.0411525e-11
0.0031669151
-1.9330595e-11
0.0031669151
6.3932513e-12
0.0031669151
3.7049883e-12
0.0031669151
-2.1071952e-11
0.0031669151
3.813028e-11
0.0031669152
-5.4411657e-11
0.0031669151
6.8173727e-11
0.0031669152
-7.060539e-11
0.0031669151
6.7748119e-11
0.0031669151
-4.7739655e-11
0.0031669151
2.6544163e-11
0.0031669151
6.3520455e-12
0.0031669151
-2.9420153e-11
0.0031669151
6.1279004e-11
0.0031669151
-6.3414143e-11
0.0031669151
7.7920669e-11
0.0031669151
-4.9336714e-11
0.003166915
8.0022808e-11
0.0031669151
-2.0733659e-11
0.0031669149
1.3001362e-10
0.0031669149
2.8857312e-11
0.0031669146
2.6859855e-10
0.0031669144
1.973053e-10
0.0031669139
5.8431781e-10
0.0031669131
7.7802137e-10
0.0031669116
1.6535847e-09
0.003166909
2.8069491e-09
0.0031669037
5.2497001e-09
0.0031668944
9.0265501e-09
0.0031668785
1.5609098e-08
2.2846045e-08
0.010339525
0.00035427912
0.010570755
0.00079057177
0.010606305
0.00091894309
0.010547579
0.0009016628
0.010422327
0.00084260926
0.010244377
0.0007576551
0.010039463
0.00065657816
0.0098288188
0.0005535782
0.0096252702
0.0004596522
0.0094355299
0.00037958033
0.0092627951
0.00031384004
0.0091081109
0.00026102525
0.0089710538
0.00021913085
0.0088502831
0.00018607147
0.0087440371
0.00015990424
0.0086505102
0.0001389357
0.0085680312
0.00012182339
0.0084951539
0.00010753496
0.0084306748
9.5307027e-05
0.0083736209
8.4580784e-05
0.0083232217
7.495248e-05
0.0082788659
6.6148167e-05
0.0082400539
5.8001532e-05
0.0082063554
5.0425639e-05
0.0081773773
4.3386524e-05
0.0081527393
3.6884538e-05
0.0081320585
3.0939715e-05
0.0081149427
2.557798e-05
0.0081009907
2.0819352e-05
0.0080897996
1.66704e-05
0.0080809741
1.3121159e-05
0.0080741365
1.0145011e-05
0.0080689355
7.7005552e-06
0.0080650537
5.7350537e-06
0.0080622126
4.1885174e-06
0.0080601747
2.9981436e-06
0.0080587427
2.102117e-06
0.0080577578
1.4427554e-06
0.0080570953
9.6854913e-07
0.0080566597
6.3540392e-07
0.0080563801
4.0686504e-07
0.0080562053
2.5389491e-07
0.008056099
1.5408131e-07
0.0080560362
9.0677122e-08
0.0080560005
5.1538587e-08
0.0080559809
2.8114118e-08
0.0080559708
1.4563918e-08
0.0080559659
7.0461218e-09
0.0080559637
3.0698652e-09
0.008055963
1.0922661e-09
0.0080559628
2.1854135e-10
0.0080559629
-1.2017671e-10
0.0080559631
-2.1038776e-10
0.0080559633
-1.9760473e-10
0.0080559634
-1.4729051e-10
0.0080559635
-1.0451264e-10
0.0080559636
-6.1417182e-11
0.0080559636
-4.6665582e-11
0.0080559637
-1.797393e-11
0.0080559637
-2.9285337e-11
0.0080559637
1.274133e-12
0.0080559637
-3.2733776e-11
0.0080559637
1.2228245e-11
0.0080559638
-4.3216294e-11
0.0080559638
2.2619394e-11
0.0080559638
-5.2358147e-11
0.0080559638
2.8106392e-11
0.0080559638
-4.9317047e-11
0.0080559638
1.8164526e-11
0.0080559638
-2.2461941e-11
0.0080559638
-1.8525468e-11
0.0080559638
3.4980643e-11
0.0080559639
-8.0655255e-11
0.0080559638
1.0760332e-10
0.0080559639
-1.4002678e-10
0.0080559638
1.5122875e-10
0.0080559639
-1.4195913e-10
0.0080559638
1.1014699e-10
0.0080559638
-4.6862962e-11
0.0080559639
-2.0686585e-11
0.0080559638
1.0656261e-10
0.0080559639
-1.5627565e-10
0.0080559638
2.0468137e-10
0.0080559639
-1.768409e-10
0.0080559638
1.7439925e-10
0.0080559638
-7.4192842e-11
0.0080559638
1.1055407e-10
0.0080559638
2.8041765e-11
0.0080559637
1.9114626e-10
0.0080559636
1.1141272e-10
0.0080559634
4.7615882e-10
0.0080559632
4.2918441e-10
0.0080559627
1.0659684e-09
0.008055962
1.5578222e-09
0.0080559609
2.8790205e-09
0.0080559588
5.10471e-09
0.0080559555
8.5113589e-09
0.0080559498
1.4431928e-08
0.0080559444
2.0618376e-08
2.8682166e-08
0.010188704
0.0001655748
0.010530486
0.00044878984
0.010851452
0.0005979774
0.011124172
0.00062894258
0.011350576
0.00061620532
0.011524477
0.00058375409
0.011646316
0.0005347394
0.011724135
0.00047575907
0.011767975
0.00041581197
0.011786618
0.00036093776
0.011787101
0.00031335697
0.011775055
0.00027307126
0.011754877
0.00023930869
0.011729824
0.00021112474
0.01170218
0.00018754832
0.011673482
0.00016763377
0.011644762
0.00015054387
0.011616695
0.00013560219
0.01158971
0.00012229276
0.01156407
0.00011022077
0.011539938
9.9083847e-05
0.011517419
8.866724e-05
0.011496581
7.883883e-05
0.011477475
6.953242e-05
0.011460132
6.072914e-05
0.011444571
5.2445117e-05
0.01143079
4.4720924e-05
0.011418759
3.760878e-05
0.01140842
3.11588e-05
0.011399682
2.5408401e-05
0.011392427
2.037592e-05
0.011386514
1.6057639e-05
0.011381787
1.2427704e-05
0.011378082
9.4404586e-06
0.011375235
7.0348799e-06
0.011373093
5.1399349e-06
0.011371515
3.6802231e-06
0.011370377
2.5808871e-06
0.011369573
1.7716692e-06
0.011369019
1.1896125e-06
0.011368645
7.8066693e-07
0.011368399
5.0012677e-07
0.01136824
3.1234642e-07
0.011368141
1.8979979e-07
0.011368081
1.1192609e-07
0.011368045
6.380528e-08
0.011368025
3.4964985e-08
0.011368014
1.8254043e-08
0.011368008
8.9397882e-09
0.011368005
3.9805333e-09
0.011368004
1.50159e-09
0.011368003
3.5417046e-10
0.011368003
-1.0458419e-10
0.011368003
-2.4298883e-10
0.011368004
-2.3492951e-10
0.011368004
-1.9614776e-10
0.011368004
-1.3477809e-10
0.011368004
-1.0906762e-10
0.011368004
-6.0620564e-11
0.011368004
-6.9616017e-11
0.011368004
-2.319109e-11
0.011368004
-6.3385098e-11
0.011368004
-3.401383e-12
0.011368004
-6.9428325e-11
0.011368004
1.0500478e-11
0.011368004
-7.2872037e-11
0.011368004
1.3031707e-11
0.011368004
-5.8000335e-11
0.011368004
-6.9215529e-12
0.011368004
-1.1534541e-11
0.011368004
-6.0849993e-11
0.011368004
6.7996506e-11
0.011368004
-1.3498999e-10
0.011368004
1.4908133e-10
0.011368004
-1.8405463e-10
0.011368004
1.6784304e-10
0.011368004
-1.3701612e-10
0.011368004
6.5339614e-11
0.011368004
3.282957e-11
0.011368004
-1.3274533e-10
0.011368004
2.3501451e-10
0.011368004
-2.745196e-10
0.011368004
2.9504218e-10
0.011368004
-2.1088288e-10
0.011368004
1.6322511e-10
0.011368004
1.7026608e-12
0.011368004
2.348578e-11
0.011368004
1.4145558e-10
0.011368004
1.3157909e-10
0.011368004
1.7987403e-10
0.011368004
4.9007033e-10
0.011368004
4.7664891e-10
0.011368004
1.0930365e-09
0.011368004
1.7162334e-09
0.011368004
2.8370661e-09
0.011368004
5.235733e-09
0.011368005
7.8862113e-09
0.011368006
1.3038683e-08
0.011368009
1.7136112e-08
2.315858e-08
0.010097181
6.8393335e-05
0.010346961
0.00019901049
0.010662466
0.00028247186
0.010982746
0.00030866238
0.011290216
0.00030873617
0.011575226
0.00029874344
0.011828977
0.00028098847
0.012047789
0.00025694747
0.012233147
0.00023045369
0.012389043
0.0002050417
0.012519992
0.00018240737
0.012630295
0.00016276887
0.012723728
0.0001458756
0.012803467
0.00013138555
0.01287208
0.00011893569
0.012931572
0.00010814222
0.01298348
9.8636147e-05
0.013028972
9.0110011e-05
0.013068936
8.2329064e-05
0.013104044
7.5112443e-05
0.01313481
6.831836e-05
0.013161632
6.1844961e-05
0.013184839
5.5631671e-05
0.013204719
4.9652049e-05
0.013221543
4.3904935e-05
0.013235579
3.8408986e-05
0.013247102
3.3198786e-05
0.013256392
2.831812e-05
0.013263739
2.3812072e-05
0.013269428
1.9719776e-05
0.013273734
1.6069561e-05
0.013276916
1.2875727e-05
0.013279207
1.0137137e-05
0.01328081
7.8375489e-06
0.013281897
5.9475484e-06
0.013282609
4.4277369e-06
0.013283057
3.2323145e-06
0.013283325
2.3128296e-06
0.013283475
1.6213147e-06
0.013283552
1.112925e-06
0.013283585
7.4760832e-07
0.013283594
4.9111055e-07
0.013283591
3.1519095e-07
0.013283583
1.9739661e-07
0.013283575
1.2044106e-07
0.013283567
7.1436452e-08
0.013283561
4.1061078e-08
0.013283557
2.2764678e-08
0.013283554
1.2088096e-08
0.013283552
6.0738511e-09
0.013283551
2.8257996e-09
0.01328355
1.156507e-09
0.013283549
3.5612106e-10
0.013283549
1.748171e-12
0.013283549
-1.1773137e-10
0.013283549
-1.5070273e-10
0.013283549
-1.2989714e-10
0.013283549
-1.2038492e-10
0.013283549
-8.369436e-11
0.013283549
-8.901729e-11
0.013283549
-5.1343337e-11
0.013283549
-7.7635064e-11
0.013283549
-3.1231338e-11
0.013283549
-7.4846602e-11
0.013283549
-1.9249604e-11
0.013283549
-7.02563e-11
0.013283549
-1.6956542e-11
0.013283549
-5.1602286e-11
0.013283549
-3.1940859e-11
0.013283549
-1.1322879e-11
0.013283549
-6.8420967e-11
0.013283549
4.8821738e-11
0.013283549
-1.1384522e-10
0.013283549
9.9952459e-11
0.013283549
-1.2983709e-10
0.013283549
9.5539905e-11
0.013283549
-7.0378624e-11
0.013283549
1.534198e-12
0.013283549
7.1646442e-11
0.013283549
-1.4184475e-10
0.013283549
2.0407539e-10
0.013283549
-2.0954157e-10
0.01328355
2.0562363e-10
0.013283549
-1.123153e-10
0.01328355
7.0251001e-11
0.013283549
7.3628066e-11
0.013283549
-3.208954e-11
0.013283549
1.5353439e-10
0.01328355
9.0132815e-11
0.01328355
1.3692997e-10
0.01328355
3.5833201e-10
0.01328355
3.2028107e-10
0.01328355
7.0855941e-10
0.013283551
1.1320665e-09
0.013283552
1.7150421e-09
0.013283554
3.2131259e-09
0.013283558
4.5862943e-09
0.013283563
7.3771593e-09
0.01328357
9.3756113e-09
1.2533521e-08
0.010068393
5.1609667e-11
0.010267403
2.0928428e-10
0.010549875
3.3108874e-10
0.010858537
4.0646443e-10
0.011167273
4.5342428e-10
0.011466015
4.814071e-10
0.011747003
4.8861414e-10
0.01200395
4.6752464e-10
0.012234403
4.2836599e-10
0.012439444
3.7052555e-10
0.012621851
3.0905476e-10
0.01278462
2.2007212e-10
0.012930496
1.2560761e-10
0.013061881
2.2301407e-11
0.013180817
-8.0701042e-11
0.013288959
-1.8662601e-10
0.013387596
-2.73581e-10
0.013477706
-3.7527006e-10
0.013560036
-4.5251076e-10
0.013635149
-5.1938799e-10
0.013703468
-5.4426354e-10
0.013765313
-5.4647679e-10
0.013820945
-5.1810663e-10
0.013870598
-4.7303996e-10
0.013914503
-4.1294862e-10
0.013952912
-3.4504316e-10
0.013986111
-2.8458545e-10
0.014014429
-2.3485546e-10
0.014038242
-2.0809e-10
0.014057962
-1.9461564e-10
0.014074032
-1.9972322e-10
0.014086908
-2.0939176e-10
0.014097045
-2.2929902e-10
0.014104883
-2.4230841e-10
0.01411083
-2.5913745e-10
0.014115258
-2.6168501e-10
0.014118491
-2.6867022e-10
0.014120804
-2.6133967e-10
0.014122425
-2.6339297e-10
0.014123539
-2.5118055e-10
0.014124286
-2.5320274e-10
0.014124778
-2.3843153e-10
0.014125093
-2.3958445e-10
0.014125291
-2.2126602e-10
0.014125412
-2.2082175e-10
0.014125484
-1.9778198e-10
0.014125525
-1.9346422e-10
0.014125548
-1.6793128e-10
0.01412556
-1.6296263e-10
0.014125567
-1.3696618e-10
0.01412557
-1.3417959e-10
0.014125571
-1.1292646e-10
0.014125571
-1.1368884e-10
0.014125572
-9.5466121e-11
0.014125572
-9.9559874e-11
0.014125572
-8.2867704e-11
0.014125572
-8.8438647e-11
0.014125572
-7.341233e-11
0.014125572
-7.897125e-11
0.014125572
-6.4569399e-11
0.014125572
-7.0688147e-11
0.014125572
-5.6643354e-11
0.014125572
-6.2461648e-11
0.014125572
-4.8696243e-11
0.014125572
-5.4801329e-11
0.014125572
-4.1047651e-11
0.014125572
-4.6803344e-11
0.014125572
-3.3124752e-11
0.014125572
-3.8733341e-11
0.014125572
-2.5644299e-11
0.014125572
-3.0297499e-11
0.014125572
-1.7892763e-11
0.014125572
-2.2103152e-11
0.014125572
-1.1333691e-11
0.014125572
-1.4854435e-11
0.014125572
-5.3598588e-12
0.014125572
-8.7206861e-12
0.014125572
-7.3111457e-13
0.014125572
-2.958215e-12
0.014125572
5.1708842e-12
0.014125572
2.142051e-12
0.014125572
1.0804349e-11
0.014125572
7.844721e-12
0.014125572
1.9132961e-11
0.014125572
1.6280525e-11
0.014125572
3.052981e-11
0.014125572
2.8762272e-11
0.014125572
4.8582376e-11
0.014125572
5.1370211e-11
0.014125572
7.3585182e-11
0.014125572
6.7803533e-11
0.014125572
7.6960667e-11
0.014125573
5.4502747e-11
0.014125574
5.4546752e-11
0.014125576
3.5852935e-11
0.014125579
4.3737371e-11
0.014125584
4.0076558e-11
0.014125591
2.4209412e-11
0.0141256
-1.3269866e-11
-1.0526302e-11
0.010068393
-6.8393237e-05
0.010267403
-0.0001990101
0.010549875
-0.00028247124
0.010858537
-0.00030866162
0.011167273
-0.00030873532
0.011466016
-0.00029874254
0.011747003
-0.00028098756
0.01200395
-0.0002569466
0.012234403
-0.00023045289
0.012439445
-0.00020504099
0.012621852
-0.00018240679
0.01278462
-0.00016276843
0.012930495
-0.00014587531
0.013061881
-0.00013138543
0.013180817
-0.00011893574
0.013288959
-0.00010814242
0.013387595
-9.863651e-05
0.013477706
-9.011052e-05
0.013560035
-8.2329721e-05
0.013635148
-7.5113183e-05
0.013703467
-6.8319174e-05
0.013765313
-6.1845765e-05
0.013820945
-5.5632472e-05
0.013870597
-4.9652774e-05
0.013914502
-4.3905604e-05
0.013952911
-3.8409557e-05
0.013986111
-3.3199297e-05
0.014014429
-2.8318573e-05
0.014038241
-2.3812508e-05
0.014057961
-1.9720215e-05
0.014074031
-1.6070016e-05
0.014086907
-1.2876218e-05
0.014097045
-1.0137648e-05
0.014104883
-7.8380945e-06
0.01411083
-5.948093e-06
0.014115258
-4.4282961e-06
0.014118491
-3.2328524e-06
0.014120804
-2.3133666e-06
0.014122425
-1.6218214e-06
0.014123539
-1.1134286e-06
0.014124286
-7.4808363e-07
0.014124778
-4.9158237e-07
0.014125093
-3.1563341e-07
0.014125291
-1.9783257e-07
0.014125412
-1.2084439e-07
0.014125484
-7.182581e-08
0.014125525
-4.1410481e-08
0.014125548
-2.3096426e-08
0.01412556
-1.2380197e-08
0.014125567
-6.3463372e-09
0.01412557
-3.061841e-09
0.014125571
-1.3817646e-09
0.014125572
-5.5200512e-10
0.014125572
-1.9370981e-10
0.014125572
-5.1671261e-11
0.014125572
-1.6025373e-11
0.014125572
-1.6786246e-11
0.014125572
-2.8071582e-11
0.014125572
-4.3567493e-11
0.014125572
-4.189075e-11
0.014125572
-5.9985754e-11
0.014125572
-3.7655968e-11
0.014125572
-6.4426954e-11
0.014125572
-2.5175606e-11
0.014125572
-6.3134418e-11
0.014125572
-1.4742315e-11
0.014125572
-5.1266332e-11
0.014125572
-1.8963487e-11
0.014125572
-2.1915914e-11
0.014125572
-4.5643485e-11
0.014125572
2.9348937e-11
0.014125572
-9.198331e-11
0.014125572
8.9724808e-11
0.014125572
-1.3132763e-10
0.014125572
1.1786071e-10
0.014125572
-1.1521786e-10
0.014125572
6.7682883e-11
0.014125572
-1.0249818e-11
0.014125572
-6.6450798e-11
0.014125571
1.430798e-10
0.014125572
-1.8731233e-10
0.014125571
2.1827884e-10
0.014125572
-1.770653e-10
0.014125572
1.3570368e-10
0.014125572
-2.7005212e-11
0.014125572
-2.7857698e-11
0.014125572
9.9293063e-11
0.014125572
-7.8229244e-11
0.014125572
1.6801651e-11
0.014125572
-9.6960609e-12
0.014125572
-2.2150481e-10
0.014125572
-1.9192882e-10
0.014125573
-5.9372059e-10
0.014125574
-1.0502516e-09
0.014125576
-1.6331575e-09
0.014125579
-3.1305152e-09
0.014125584
-4.5152904e-09
0.014125591
-7.3521594e-09
0.0141256
-9.3591461e-09
-1.2535844e-08
0.010097181
-0.00016557472
0.010346961
-0.00044878952
0.010662466
-0.0005979769
0.010982747
-0.00062894197
0.011290216
-0.00061620465
0.011575226
-0.00058375339
0.011828977
-0.00053473869
0.012047789
-0.00047575839
0.012233147
-0.00041581135
0.012389043
-0.0003609372
0.012519993
-0.0003133565
0.012630295
-0.00027307085
0.012723728
-0.00023930837
0.012803467
-0.00021112449
0.01287208
-0.00018754818
0.012931571
-0.00016763368
0.012983479
-0.00015054387
0.013028971
-0.00013560226
0.013068935
-0.00012229291
0.013104043
-0.00011022099
0.013134808
-9.9084115e-05
0.01316163
-8.8667567e-05
0.013184837
-7.8839172e-05
0.013204718
-6.9532814e-05
0.013221542
-6.0729537e-05
0.013235578
-5.2445566e-05
0.0132471
-4.4721386e-05
0.013256391
-3.7609298e-05
0.013263738
-3.115935e-05
0.013269427
-2.5409002e-05
0.013273734
-2.0376555e-05
0.013276916
-1.6058297e-05
0.013279206
-1.2428374e-05
0.013280809
-9.4411145e-06
0.013281897
-7.0355185e-06
0.013282609
-5.140534e-06
0.013283057
-3.6807882e-06
0.013283325
-2.5814082e-06
0.013283475
-1.7721565e-06
0.013283552
-1.1900667e-06
0.013283585
-7.8109343e-07
0.013283594
-5.0053022e-07
0.013283591
-3.1272621e-07
0.013283584
-1.9016328e-07
0.013283575
-1.1226221e-07
0.013283568
-6.4122205e-08
0.013283562
-3.5254622e-08
0.013283557
-1.852085e-08
0.013283554
-9.1749707e-09
0.013283552
-4.1976049e-09
0.013283551
-1.6906692e-09
0.01328355
-5.3903894e-10
0.01328355
-4.8440248e-11
0.01328355
9.6019623e-11
0.01328355
1.0524666e-10
0.01328355
7.1200657e-11
0.01328355
2.5020484e-11
0.01328355
2.3256467e-12
0.01328355
-3.1677496e-11
0.01328355
-2.1725504e-11
0.01328355
-5.4257135e-11
0.01328355
-1.4182123e-11
0.01328355
-6.1939928e-11
0.013283549
3.4779825e-12
0.013283549
-6.4642503e-11
0.013283549
1.7791676e-11
0.013283549
-5.6933922e-11
0.013283549
1.2965332e-11
0.013283549
-2.6761149e-11
0.013283549
-2.319359e-11
0.013283549
3.6473606e-11
0.013283549
-9.3161842e-11
0.013283549
1.2181124e-10
0.013283549
-1.6577464e-10
0.013283549
1.7803447e-10
0.013283549
-1.7673148e-10
0.013283549
1.3803476e-10
0.013283549
-6.7055156e-11
0.013283549
-2.6139127e-11
0.013283549
1.3750386e-10
0.013283549
-2.2001719e-10
0.013283549
2.8663822e-10
0.013283549
-2.7321371e-10
0.013283549
2.328469e-10
0.013283549
-1.2858148e-10
0.013283549
3.593113e-11
0.013283549
3.2980299e-11
0.013283549
-8.3318674e-11
0.01328355
-4.9296444e-11
0.01328355
-8.6043803e-11
0.01328355
-3.8827052e-10
0.01328355
-3.832611e-10
0.01328355
-1.0171472e-09
0.013283551
-1.664893e-09
0.013283552
-2.7979094e-09
0.013283554
-5.196786e-09
0.013283558
-7.8229336e-09
0.013283563
-1.297602e-08
0.01328357
-1.7122184e-08
-2.3147198e-08
0.010188704
-0.00035427907
0.010530486
-0.00079057157
0.010851452
-0.00091894278
0.011124172
-0.00090166241
0.011350576
-0.00084260884
0.011524477
-0.00075765467
0.011646316
-0.00065657773
0.011724135
-0.00055357779
0.011767976
-0.00045965183
0.011786618
-0.00037958
0.011787101
-0.00031383973
0.011775055
-0.00026102495
0.011754877
-0.00021913055
0.011729824
-0.0001860712
0.01170218
-0.00015990396
0.011673482
-0.00013893543
0.011644761
-0.00012182312
0.011616694
-0.00010753473
0.011589708
-9.5306807e-05
0.011564068
-8.4580652e-05
0.011539937
-7.4952384e-05
0.011517418
-6.6148176e-05
0.01149658
-5.800159e-05
0.011477473
-5.0425799e-05
0.01146013
-4.3386746e-05
0.01144457
-3.6884855e-05
0.011430788
-3.0940107e-05
0.011418758
-2.5578447e-05
0.011408418
-2.0819892e-05
0.01139968
-1.6670987e-05
0.011392426
-1.3121802e-05
0.011386513
-1.014566e-05
0.011381786
-7.7012255e-06
0.011378081
-5.7356899e-06
0.011375235
-4.1891428e-06
0.011373093
-2.9987097e-06
0.011371515
-2.1026548e-06
0.011370377
-1.443226e-06
0.011369573
-9.6899262e-07
0.011369019
-6.3578742e-07
0.011368645
-4.0722493e-07
0.011368399
-2.5420549e-07
0.011368241
-1.5437422e-07
0.011368142
-9.0935029e-08
0.011368082
-5.1779642e-08
0.011368046
-2.8318164e-08
0.011368026
-1.4766703e-08
0.011368014
-7.217681e-09
0.011368009
-3.225347e-09
0.011368006
-1.2237194e-09
0.011368005
-3.1971482e-10
0.011368004
1.3480552e-11
0.011368004
1.0949819e-10
0.011368004
1.1667322e-10
0.011368004
6.7678167e-11
0.011368004
4.0774801e-11
0.011368004
-3.7271475e-12
0.011368004
-2.5321617e-12
0.011368004
-3.6116495e-11
0.011368004
-9.4365154e-12
0.011368004
-4.4371967e-11
0.011368004
2.2506789e-12
0.011368004
-4.915195e-11
0.011368004
2.0248879e-11
0.011368004
-5.344662e-11
0.011368004
3.5331107e-11
0.011368004
-5.4178581e-11
0.011368004
3.7187828e-11
0.011368004
-3.8758558e-11
0.011368004
1.4957272e-11
0.011368004
3.5144712e-12
0.011368004
-3.8646484e-11
0.011368004
7.0596046e-11
0.011368004
-1.0487536e-10
0.011368004
1.3150991e-10
0.011368004
-1.4435482e-10
0.011368004
1.3763188e-10
0.011368004
-9.9720512e-11
0.011368004
4.6389663e-11
0.011368004
3.1376848e-11
0.011368004
-1.0190133e-10
0.011368004
1.7461777e-10
0.011368004
-1.9799824e-10
0.011368004
1.9968127e-10
0.011368004
-1.5905782e-10
0.011368004
1.0622544e-10
0.011368004
-8.5149894e-11
0.011368004
1.3285441e-11
0.011368004
-1.5085354e-10
0.011368004
-5.6867728e-11
0.011368004
-4.3168249e-10
0.011368004
-3.7459756e-10
0.011368004
-1.0342118e-09
0.011368004
-1.5430527e-09
0.011368004
-2.8692718e-09
0.011368004
-5.066558e-09
0.011368005
-8.466906e-09
0.011368006
-1.4421086e-08
0.011368009
-2.0630868e-08
-2.8693524e-08
0.010339525
-0.00069380426
0.010570755
-0.0010218018
0.010606305
-0.00095449235
0.010547579
-0.00084293707
0.010422327
-0.0007173571
0.010244378
-0.00057970537
0.010039463
-0.00045166309
0.0098288193
-0.00034293426
0.0096252707
-0.00025610349
0.0094355303
-0.00018983982
0.0092627954
-0.00014110493
0.0091081109
-0.00010634063
0.0089710537
-8.2073329e-05
0.0088502828
-6.5300296e-05
0.0087440367
-5.365769e-05
0.0086505098
-4.5408147e-05
0.0085680307
-3.9343689e-05
0.0084951534
-3.4657095e-05
0.0084306743
-3.0827542e-05
0.0083736205
-2.7526694e-05
0.0083232212
-2.4553213e-05
0.0082788653
-2.1792484e-05
0.0082400531
-1.9189757e-05
0.0082063545
-1.6727454e-05
0.0081773762
-1.4408721e-05
0.008152738
-1.224685e-05
0.0081320571
-1.0259295e-05
0.0081149412
-8.4624335e-06
0.0081009892
-6.8676808e-06
0.0080897981
-5.4796654e-06
0.0080809728
-4.2961416e-06
0.0080741353
-3.3079233e-06
0.0080689346
-2.5001208e-06
0.008065053
-1.8539344e-06
0.0080622122
-1.3481291e-06
0.0080601744
-9.6087311e-07
0.0080587427
-6.7086055e-07
0.008057758
-4.5854432e-07
0.0080570956
-3.0658132e-07
0.0080566601
-2.0033777e-07
0.0080563807
-1.2777216e-07
0.008056206
-7.9429007e-08
0.0080560997
-4.8008293e-08
0.008056037
-2.8144918e-08
0.0080560012
-1.592487e-08
0.0080559816
-8.6535647e-09
0.0080559715
-4.463796e-09
0.0080559665
-2.1575369e-09
0.0080559644
-9.3967995e-10
0.0080559636
-3.4828778e-10
0.0080559634
-7.6118078e-11
0.0080559635
1.1564691e-11
0.0080559637
4.1400108e-11
0.0080559638
3.1765959e-11
0.0080559639
2.0514411e-11
0.0080559639
6.2637825e-12
0.008055964
-2.0050486e-12
0.008055964
-7.0118334e-12
0.008055964
-1.0900613e-11
0.008055964
-6.8090001e-12
0.008055964
-1.349712e-11
0.008055964
-3.5832673e-13
0.008055964
-1.5412796e-11
0.008055964
7.2235748e-12
0.008055964
-1.8034168e-11
0.008055964
1.4426288e-11
0.008055964
-2.0432319e-11
0.008055964
1.7837309e-11
0.008055964
-1.7224044e-11
0.0080559639
1.1028034e-11
0.008055964
-3.1928364e-12
0.0080559639
-8.0697091e-12
0.008055964
2.4798157e-11
0.0080559639
-4.2653605e-11
0.008055964
6.0540656e-11
0.0080559639
-7.2273374e-11
0.008055964
7.9114463e-11
0.0080559639
-7.1573477e-11
0.008055964
5.6938493e-11
0.008055964
-2.8023956e-11
0.0080559639
9.3747693e-13
0.008055964
3.1144944e-11
0.0080559639
-5.0717267e-11
0.008055964
6.4535524e-11
0.0080559639
-6.4385025e-11
0.008055964
5.5396117e-11
0.008055964
-6.5792605e-11
0.0080559639
2.7414461e-11
0.0080559639
-1.1951607e-10
0.0080559638
-2.6427436e-11
0.0080559636
-2.6125372e-10
0.0080559633
-1.9229288e-10
0.0080559628
-5.6686109e-10
0.0080559621
-7.5193996e-10
0.0080559611
-1.6073769e-09
0.008055959
-2.7747842e-09
0.0080559556
-5.2547532e-09
0.0080559499
-9.0730554e-09
0.0080559446
-1.5672016e-08
-2.2874374e-08
0.0093061957
0.0082843938
0.0073299014
0.0064869643
0.0057696071
0.0051899016
0.0047382384
0.0043953041
0.0041392005
0.0039493606
0.0038082556
0.003701915
0.0036198417
0.0035545415
0.003500884
0.003455476
0.0034161325
0.0033814756
0.0033506481
0.0033231213
0.003298568
0.0032767753
0.0032575854
0.0032408577
0.0032264488
0.0032142019
0.0032039426
0.0031954802
0.0031886127
0.0031831332
0.0031788373
0.0031755295
0.0031730295
0.0031711757
0.0031698277
0.0031688668
0.003168196
0.0031677374
0.0031674308
0.0031672305
0.0031671027
0.0031670233
0.0031669753
0.0031669472
0.0031669313
0.0031669227
0.0031669183
0.0031669162
0.0031669153
0.003166915
0.0031669149
0.003166915
0.003166915
0.0031669151
0.0031669151
0.0031669152
0.0031669152
0.0031669152
0.0031669152
0.0031669152
0.0031669152
0.0031669152
0.0031669152
0.0031669152
0.0031669152
0.0031669152
0.0031669151
0.0031669152
0.0031669151
0.0031669152
0.0031669152
0.0031669152
0.0031669152
0.0031669151
0.0031669152
0.0031669151
0.0031669152
0.0031669151
0.0031669152
0.0031669152
0.0031669152
0.0031669152
0.0031669151
0.0031669152
0.0031669151
0.0031669152
0.0031669151
0.0031669152
0.003166915
0.003166915
0.0031669147
0.0031669144
0.0031669139
0.0031669132
0.0031669117
0.003166909
0.0031669036
0.0031668943
0.0031668786
)
;

boundaryField
{
    top
    {
        type            calculated;
        value           uniform 0;
    }
    inlet
    {
        type            calculated;
        value           nonuniform List<scalar> 10(-0.01 -0.01 -0.01 -0.01 -0.01 -0.01 -0.01 -0.01 -0.01 -0.01);
    }
    outlet
    {
        type            calculated;
        value           nonuniform List<scalar> 10(0.0031668555 0.0080559385 0.011368014 0.013283581 0.014125612 0.014125612 0.013283581 0.011368015 0.0080559388 0.0031668557);
    }
    bottom
    {
        type            calculated;
        value           uniform 0;
    }
    back
    {
        type            empty;
        value           nonuniform List<scalar> 0();
    }
    front
    {
        type            empty;
        value           nonuniform List<scalar> 0();
    }
}


// ************************************************************************* //
