/*--------------------------------*- C++ -*----------------------------------*\
| =========                 |                                                 |
| \\      /  F ield         | OpenFOAM: The Open Source CFD Toolbox           |
|  \\    /   O peration     | Version:  2112                                  |
|   \\  /    A nd           | Website:  www.openfoam.com                      |
|    \\/     M anipulation  |                                                 |
\*---------------------------------------------------------------------------*/
FoamFile
{
    version     2.0;
    format      ascii;
    arch        "LSB;label=32;scalar=64";
    class       volScalarField;
    location    "105";
    object      T;
}
// * * * * * * * * * * * * * * * * * * * * * * * * * * * * * * * * * * * * * //

dimensions      [0 0 0 1 0 0 0];

internalField   nonuniform List<scalar> 
10000
(
1.45867
1.45867
1.45867
1.45867
1.45867
1.45867
1.45867
1.45867
1.45867
1.45867
1.37621
1.3762
1.3762
1.3762
1.3762
1.3762
1.3762
1.3762
1.3762
1.3762
1.29434
1.29433
1.29432
1.29432
1.29431
1.29431
1.29431
1.29432
1.29432
1.29433
1.21344
1.21342
1.21341
1.21341
1.2134
1.2134
1.2134
1.21341
1.21341
1.21342
1.13387
1.13386
1.13384
1.13384
1.13383
1.13383
1.13384
1.13384
1.13385
1.13386
1.056
1.05598
1.05597
1.05596
1.05596
1.05596
1.05596
1.05596
1.05597
1.05598
0.98015
0.980127
0.980112
0.980103
0.980098
0.980097
0.9801
0.980106
0.980117
0.98013
0.906614
0.906589
0.906573
0.906563
0.906557
0.906556
0.90656
0.906567
0.906579
0.906594
0.835665
0.835638
0.835621
0.835609
0.835603
0.835602
0.835606
0.835614
0.835627
0.835644
0.767536
0.767508
0.767489
0.767477
0.76747
0.767469
0.767473
0.767482
0.767496
0.767514
0.702426
0.702396
0.702377
0.702364
0.702356
0.702355
0.702359
0.702368
0.702383
0.702402
0.640496
0.640465
0.640444
0.640431
0.640423
0.640421
0.640424
0.640434
0.640449
0.640469
0.58187
0.581838
0.581816
0.581802
0.581793
0.58179
0.581793
0.581802
0.581818
0.581838
0.526633
0.5266
0.526578
0.526562
0.526553
0.526549
0.526551
0.526559
0.526574
0.526595
0.474834
0.474801
0.474778
0.474761
0.47475
0.474745
0.474745
0.474753
0.474767
0.474787
0.426489
0.426455
0.426431
0.426413
0.426399
0.426392
0.42639
0.426395
0.426408
0.426428
0.381577
0.381544
0.381518
0.381497
0.381481
0.381469
0.381464
0.381467
0.381477
0.381495
0.34005
0.340016
0.339988
0.339963
0.339943
0.339927
0.339917
0.339915
0.339922
0.339938
0.30183
0.301795
0.301764
0.301734
0.301707
0.301684
0.301668
0.301659
0.301661
0.301675
0.266816
0.266779
0.266743
0.266707
0.266671
0.266638
0.266611
0.266593
0.266588
0.266597
0.234885
0.234846
0.234804
0.234757
0.234709
0.234661
0.23462
0.234589
0.234573
0.234576
0.205899
0.205856
0.205805
0.205744
0.205678
0.20561
0.205547
0.205497
0.205466
0.20546
0.179705
0.179656
0.179593
0.179513
0.179421
0.179325
0.179231
0.179152
0.179099
0.179079
0.156141
0.156085
0.156004
0.155898
0.155773
0.155635
0.155498
0.155377
0.155288
0.155249
0.13504
0.134974
0.134871
0.134731
0.134559
0.134364
0.134164
0.133978
0.133836
0.133765
0.116231
0.116153
0.116022
0.115838
0.115605
0.115333
0.115041
0.114759
0.11453
0.114405
0.0995475
0.0994543
0.0992894
0.0990508
0.09874
0.0983644
0.0979428
0.0975133
0.0971419
0.0969205
0.0848228
0.0847126
0.0845099
0.0842084
0.0838038
0.0832956
0.0826952
0.0820412
0.0814246
0.0810152
0.0718974
0.07177
0.0715279
0.0711596
0.0706507
0.069985
0.0691521
0.0681663
0.0671193
0.0662965
0.0606177
0.0604747
0.0601968
0.0597658
0.0591549
0.0583253
0.0572246
0.0557918
0.0540044
0.0521396
1.45867
1.45867
1.45867
1.45866
1.45866
1.45866
1.45866
1.45866
1.45866
1.45867
1.3762
1.3762
1.37619
1.37619
1.37619
1.37619
1.37619
1.37619
1.37619
1.3762
1.29433
1.29432
1.29431
1.29431
1.2943
1.2943
1.2943
1.29431
1.29431
1.29432
1.21342
1.21341
1.2134
1.21339
1.21339
1.21339
1.21339
1.2134
1.2134
1.21341
1.13386
1.13384
1.13383
1.13382
1.13382
1.13382
1.13382
1.13382
1.13383
1.13384
1.05598
1.05596
1.05595
1.05594
1.05594
1.05594
1.05594
1.05595
1.05596
1.05597
0.980127
0.980105
0.980091
0.980082
0.980077
0.980076
0.980079
0.980086
0.980098
0.980115
0.90659
0.906566
0.90655
0.90654
0.906534
0.906533
0.906537
0.906545
0.906559
0.906578
0.835638
0.835613
0.835596
0.835585
0.835579
0.835578
0.835582
0.835591
0.835605
0.835627
0.767508
0.767481
0.767463
0.76745
0.767444
0.767443
0.767447
0.767457
0.767472
0.767495
0.702397
0.702368
0.702349
0.702336
0.702329
0.702328
0.702332
0.702342
0.702358
0.702383
0.640466
0.640436
0.640416
0.640402
0.640395
0.640393
0.640397
0.640407
0.640424
0.640449
0.581838
0.581808
0.581787
0.581773
0.581764
0.581762
0.581765
0.581775
0.581792
0.581818
0.526601
0.52657
0.526549
0.526533
0.526524
0.52652
0.526522
0.526532
0.526549
0.526575
0.474803
0.474772
0.474749
0.474732
0.474721
0.474716
0.474717
0.474725
0.474741
0.474767
0.426458
0.426426
0.426402
0.426384
0.426371
0.426363
0.426362
0.426368
0.426383
0.426408
0.381547
0.381515
0.38149
0.381469
0.381453
0.381442
0.381437
0.38144
0.381453
0.381476
0.340021
0.339988
0.33996
0.339936
0.339916
0.3399
0.33989
0.339889
0.339898
0.33992
0.301802
0.301768
0.301737
0.301708
0.301681
0.301658
0.301642
0.301634
0.301638
0.301657
0.266788
0.266753
0.266718
0.266682
0.266646
0.266613
0.266586
0.26657
0.266566
0.26658
0.234859
0.234821
0.23478
0.234733
0.234685
0.234638
0.234596
0.234566
0.234552
0.23456
0.205874
0.205833
0.205782
0.205722
0.205655
0.205588
0.205525
0.205476
0.205446
0.205445
0.179682
0.179635
0.179571
0.179492
0.179401
0.179304
0.179211
0.179133
0.179081
0.179066
0.15612
0.156065
0.155985
0.155879
0.155753
0.155616
0.155479
0.155358
0.155271
0.155236
0.13502
0.134956
0.134853
0.134713
0.134541
0.134347
0.134146
0.133962
0.133821
0.133753
0.116214
0.116136
0.116006
0.115821
0.115588
0.115317
0.115025
0.114744
0.114516
0.114394
0.0995314
0.0994391
0.0992745
0.0990361
0.0987254
0.09835
0.0979287
0.0974997
0.0971294
0.0969111
0.0848083
0.0846989
0.0844964
0.0841952
0.0837908
0.0832828
0.0826827
0.0820292
0.0814136
0.081007
0.0718844
0.0717577
0.0715159
0.0711478
0.0706391
0.0699737
0.0691411
0.0681558
0.0671098
0.0662895
0.0606062
0.0604639
0.0601862
0.0597554
0.0591447
0.0583154
0.057215
0.0557828
0.0539963
0.0521335
1.45867
1.45867
1.45866
1.45866
1.45866
1.45866
1.45866
1.45866
1.45866
1.45866
1.3762
1.37619
1.37619
1.37619
1.37619
1.37619
1.37619
1.37619
1.37619
1.37619
1.29432
1.29431
1.2943
1.2943
1.2943
1.2943
1.2943
1.2943
1.29431
1.29431
1.21341
1.2134
1.21339
1.21338
1.21338
1.21338
1.21338
1.21339
1.21339
1.2134
1.13384
1.13383
1.13382
1.13381
1.13381
1.13381
1.13381
1.13381
1.13382
1.13384
1.05597
1.05595
1.05594
1.05593
1.05593
1.05593
1.05593
1.05593
1.05595
1.05596
0.980112
0.980091
0.980077
0.980068
0.980063
0.980063
0.980066
0.980074
0.980086
0.980105
0.906574
0.90655
0.906535
0.906525
0.906519
0.906519
0.906523
0.906531
0.906546
0.906566
0.835621
0.835596
0.835579
0.835568
0.835563
0.835562
0.835566
0.835576
0.835591
0.835614
0.76749
0.767463
0.767445
0.767433
0.767427
0.767426
0.767431
0.767441
0.767458
0.767482
0.702378
0.70235
0.702331
0.702318
0.702311
0.70231
0.702315
0.702325
0.702343
0.702369
0.640446
0.640417
0.640397
0.640384
0.640377
0.640375
0.640379
0.64039
0.640408
0.640435
0.581819
0.581789
0.581768
0.581754
0.581746
0.581743
0.581747
0.581758
0.581776
0.581804
0.526581
0.526551
0.526529
0.526514
0.526505
0.526502
0.526504
0.526514
0.526533
0.52656
0.474783
0.474752
0.47473
0.474713
0.474703
0.474698
0.474699
0.474708
0.474725
0.474753
0.426438
0.426407
0.426384
0.426365
0.426353
0.426345
0.426344
0.426351
0.426367
0.426394
0.381528
0.381496
0.381471
0.381451
0.381435
0.381424
0.38142
0.381424
0.381437
0.381463
0.340002
0.33997
0.339942
0.339919
0.339898
0.339883
0.339874
0.339873
0.339883
0.339906
0.301783
0.30175
0.30172
0.301691
0.301664
0.301642
0.301626
0.301619
0.301624
0.301644
0.266771
0.266736
0.266702
0.266666
0.26663
0.266597
0.266571
0.266555
0.266553
0.266568
0.234843
0.234805
0.234764
0.234718
0.23467
0.234623
0.234582
0.234552
0.23454
0.234549
0.205859
0.205818
0.205767
0.205707
0.205641
0.205574
0.205512
0.205462
0.205434
0.205434
0.179668
0.179621
0.179558
0.179478
0.179387
0.179291
0.179198
0.17912
0.179069
0.179056
0.156106
0.156052
0.155972
0.155866
0.155741
0.155604
0.155467
0.155347
0.155261
0.155227
0.135008
0.134944
0.134841
0.134701
0.134529
0.134336
0.134136
0.133951
0.133811
0.133744
0.116202
0.116126
0.115995
0.115811
0.115578
0.115307
0.115015
0.114734
0.114508
0.114387
0.0995213
0.0994292
0.0992648
0.0990266
0.0987161
0.0983409
0.0979199
0.0974913
0.0971217
0.0969043
0.0847991
0.08469
0.0844877
0.0841867
0.0837824
0.0832747
0.0826748
0.0820218
0.0814069
0.0810011
0.0718762
0.0717498
0.0715082
0.0711403
0.0706317
0.0699665
0.0691342
0.0681493
0.0671039
0.0662843
0.0605989
0.0604568
0.0601793
0.0597487
0.0591382
0.0583091
0.057209
0.0557772
0.0539912
0.0521291
1.45867
1.45866
1.45866
1.45866
1.45866
1.45866
1.45866
1.45866
1.45866
1.45866
1.3762
1.37619
1.37619
1.37618
1.37618
1.37618
1.37618
1.37619
1.37619
1.37619
1.29432
1.29431
1.2943
1.2943
1.29429
1.29429
1.29429
1.2943
1.2943
1.29431
1.21341
1.21339
1.21338
1.21338
1.21338
1.21338
1.21338
1.21338
1.21339
1.2134
1.13384
1.13382
1.13381
1.1338
1.1338
1.1338
1.1338
1.13381
1.13382
1.13383
1.05596
1.05594
1.05593
1.05592
1.05592
1.05592
1.05592
1.05593
1.05594
1.05595
0.980103
0.980082
0.980068
0.980059
0.980055
0.980054
0.980058
0.980066
0.980079
0.980098
0.906563
0.90654
0.906525
0.906515
0.90651
0.906509
0.906514
0.906523
0.906538
0.906559
0.83561
0.835585
0.835569
0.835558
0.835552
0.835552
0.835556
0.835567
0.835583
0.835606
0.767478
0.767452
0.767434
0.767422
0.767416
0.767416
0.767421
0.767431
0.767449
0.767474
0.702366
0.702338
0.702319
0.702307
0.7023
0.702299
0.702304
0.702315
0.702334
0.70236
0.640434
0.640405
0.640385
0.640372
0.640365
0.640364
0.640368
0.64038
0.640399
0.640426
0.581806
0.581776
0.581756
0.581742
0.581734
0.581732
0.581736
0.581747
0.581767
0.581795
0.526568
0.526538
0.526517
0.526502
0.526493
0.52649
0.526493
0.526504
0.526523
0.526551
0.47477
0.47474
0.474718
0.474702
0.474691
0.474686
0.474688
0.474697
0.474716
0.474744
0.426426
0.426395
0.426372
0.426354
0.426341
0.426334
0.426334
0.426341
0.426358
0.426385
0.381515
0.381484
0.381459
0.381439
0.381423
0.381413
0.381409
0.381413
0.381428
0.381454
0.33999
0.339958
0.339931
0.339907
0.339887
0.339872
0.339863
0.339863
0.339874
0.339898
0.301772
0.301739
0.301709
0.30168
0.301654
0.301632
0.301616
0.301609
0.301615
0.301636
0.26676
0.266726
0.266691
0.266655
0.26662
0.266588
0.266562
0.266546
0.266544
0.26656
0.234833
0.234795
0.234754
0.234708
0.23466
0.234614
0.234573
0.234544
0.234532
0.234541
0.205849
0.205808
0.205758
0.205698
0.205632
0.205565
0.205503
0.205455
0.205427
0.205427
0.179659
0.179612
0.179549
0.17947
0.179379
0.179283
0.179191
0.179113
0.179062
0.179049
0.156098
0.156044
0.155964
0.155859
0.155733
0.155597
0.15546
0.15534
0.155255
0.155221
0.135
0.134936
0.134834
0.134694
0.134522
0.134329
0.134129
0.133945
0.133806
0.133739
0.116195
0.116119
0.115988
0.115804
0.115572
0.1153
0.115009
0.114729
0.114503
0.114382
0.0995149
0.099423
0.0992588
0.0990207
0.0987104
0.0983354
0.0979145
0.0974863
0.0971171
0.0969001
0.0847934
0.0846844
0.0844823
0.0841814
0.0837773
0.0832697
0.0826701
0.0820173
0.0814028
0.0809973
0.0718711
0.0717448
0.0715033
0.0711356
0.0706272
0.0699622
0.06913
0.0681454
0.0671003
0.066281
0.0605944
0.0604524
0.060175
0.0597446
0.0591342
0.0583053
0.0572054
0.0557738
0.0539881
0.0521263
1.45867
1.45866
1.45866
1.45866
1.45866
1.45866
1.45866
1.45866
1.45866
1.45866
1.3762
1.37619
1.37619
1.37618
1.37618
1.37618
1.37618
1.37618
1.37619
1.37619
1.29431
1.2943
1.2943
1.29429
1.29429
1.29429
1.29429
1.2943
1.2943
1.29431
1.2134
1.21339
1.21338
1.21338
1.21337
1.21337
1.21338
1.21338
1.21339
1.2134
1.13383
1.13382
1.13381
1.1338
1.1338
1.1338
1.1338
1.13381
1.13382
1.13383
1.05596
1.05594
1.05593
1.05592
1.05591
1.05591
1.05592
1.05592
1.05594
1.05595
0.980098
0.980077
0.980064
0.980055
0.98005
0.98005
0.980054
0.980062
0.980076
0.980095
0.906558
0.906535
0.90652
0.90651
0.906505
0.906505
0.90651
0.906519
0.906534
0.906555
0.835605
0.83558
0.835564
0.835553
0.835548
0.835547
0.835552
0.835562
0.835579
0.835602
0.767472
0.767446
0.767429
0.767417
0.767411
0.767411
0.767416
0.767427
0.767445
0.76747
0.70236
0.702332
0.702313
0.702301
0.702295
0.702294
0.702299
0.702311
0.70233
0.702356
0.640428
0.640399
0.64038
0.640367
0.64036
0.640359
0.640364
0.640375
0.640395
0.640422
0.5818
0.58177
0.58175
0.581737
0.581729
0.581727
0.581732
0.581743
0.581763
0.581791
0.526562
0.526532
0.526511
0.526497
0.526488
0.526485
0.526489
0.526499
0.526519
0.526548
0.474764
0.474734
0.474712
0.474696
0.474686
0.474681
0.474683
0.474693
0.474712
0.47474
0.42642
0.426389
0.426366
0.426348
0.426336
0.426329
0.426329
0.426337
0.426354
0.426381
0.38151
0.381478
0.381454
0.381434
0.381418
0.381408
0.381405
0.381409
0.381424
0.38145
0.339984
0.339952
0.339926
0.339902
0.339883
0.339867
0.339859
0.339859
0.339871
0.339895
0.301767
0.301734
0.301704
0.301676
0.301649
0.301627
0.301612
0.301606
0.301612
0.301633
0.266755
0.266721
0.266686
0.266651
0.266616
0.266584
0.266558
0.266542
0.266541
0.266558
0.234828
0.234791
0.23475
0.234704
0.234656
0.23461
0.234569
0.23454
0.234529
0.234539
0.205845
0.205804
0.205754
0.205694
0.205628
0.205562
0.2055
0.205452
0.205424
0.205425
0.179654
0.179608
0.179545
0.179466
0.179375
0.17928
0.179187
0.17911
0.17906
0.179047
0.156094
0.15604
0.15596
0.155855
0.15573
0.155594
0.155457
0.155338
0.155252
0.155219
0.134997
0.134933
0.13483
0.134691
0.13452
0.134326
0.134126
0.133943
0.133803
0.133737
0.116192
0.116116
0.115985
0.115802
0.115569
0.115298
0.115007
0.114727
0.114501
0.11438
0.0995121
0.0994202
0.0992561
0.0990181
0.098708
0.0983331
0.0979125
0.0974845
0.0971155
0.0968986
0.0847909
0.084682
0.0844799
0.0841791
0.0837752
0.0832677
0.0826683
0.0820157
0.0814014
0.0809961
0.0718689
0.0717426
0.0715012
0.0711336
0.0706253
0.0699604
0.0691284
0.068144
0.0670991
0.0662799
0.0605924
0.0604505
0.0601732
0.0597428
0.0591326
0.0583038
0.057204
0.0557726
0.0539871
0.0521253
1.45867
1.45866
1.45866
1.45866
1.45866
1.45866
1.45866
1.45866
1.45866
1.45866
1.3762
1.37619
1.37619
1.37618
1.37618
1.37618
1.37618
1.37618
1.37619
1.37619
1.29431
1.2943
1.2943
1.29429
1.29429
1.29429
1.29429
1.2943
1.2943
1.29431
1.2134
1.21339
1.21338
1.21338
1.21337
1.21337
1.21338
1.21338
1.21339
1.2134
1.13383
1.13382
1.13381
1.1338
1.1338
1.1338
1.1338
1.13381
1.13382
1.13383
1.05596
1.05594
1.05593
1.05592
1.05591
1.05591
1.05592
1.05592
1.05594
1.05595
0.980098
0.980077
0.980063
0.980055
0.98005
0.98005
0.980054
0.980063
0.980076
0.980095
0.906558
0.906535
0.90652
0.90651
0.906506
0.906505
0.90651
0.90652
0.906535
0.906556
0.835604
0.83558
0.835563
0.835553
0.835548
0.835548
0.835553
0.835563
0.83558
0.835604
0.767472
0.767446
0.767428
0.767417
0.767412
0.767412
0.767417
0.767428
0.767446
0.767471
0.702359
0.702332
0.702314
0.702302
0.702296
0.702295
0.7023
0.702312
0.702331
0.702358
0.640427
0.640399
0.64038
0.640367
0.64036
0.64036
0.640365
0.640377
0.640396
0.640424
0.5818
0.58177
0.581751
0.581737
0.58173
0.581728
0.581733
0.581744
0.581764
0.581793
0.526562
0.526532
0.526512
0.526497
0.526489
0.526486
0.52649
0.526501
0.526521
0.526549
0.474764
0.474734
0.474712
0.474697
0.474687
0.474683
0.474685
0.474695
0.474713
0.474742
0.42642
0.426389
0.426366
0.426349
0.426337
0.42633
0.42633
0.426338
0.426356
0.426384
0.38151
0.381479
0.381454
0.381435
0.381419
0.38141
0.381406
0.381411
0.381426
0.381453
0.339985
0.339953
0.339926
0.339903
0.339884
0.339869
0.339861
0.339861
0.339873
0.339897
0.301767
0.301734
0.301705
0.301676
0.301651
0.301629
0.301613
0.301607
0.301614
0.301635
0.266756
0.266721
0.266687
0.266652
0.266617
0.266585
0.266559
0.266544
0.266543
0.26656
0.234828
0.234791
0.23475
0.234705
0.234657
0.234611
0.234571
0.234542
0.234531
0.234541
0.205845
0.205805
0.205755
0.205695
0.20563
0.205563
0.205501
0.205453
0.205426
0.205427
0.179655
0.179609
0.179546
0.179467
0.179377
0.179281
0.179189
0.179112
0.179062
0.179049
0.156094
0.156041
0.155961
0.155856
0.155731
0.155595
0.155459
0.155339
0.155254
0.155221
0.134997
0.134933
0.134831
0.134692
0.134521
0.134327
0.134128
0.133944
0.133805
0.133739
0.116193
0.116116
0.115986
0.115802
0.11557
0.115299
0.115008
0.114728
0.114502
0.114382
0.0995124
0.0994206
0.0992568
0.0990189
0.0987089
0.0983342
0.0979137
0.0974858
0.0971169
0.0969001
0.0847912
0.0846824
0.0844805
0.0841799
0.083776
0.0832687
0.0826694
0.0820169
0.0814027
0.0809974
0.0718692
0.071743
0.0715018
0.0711343
0.0706261
0.0699613
0.0691294
0.0681451
0.0671002
0.0662811
0.0605927
0.0604509
0.0601737
0.0597435
0.0591333
0.0583046
0.0572049
0.0557736
0.0539881
0.0521263
1.45867
1.45866
1.45866
1.45866
1.45866
1.45866
1.45866
1.45866
1.45866
1.45866
1.3762
1.37619
1.37619
1.37618
1.37618
1.37618
1.37618
1.37619
1.37619
1.37619
1.29431
1.2943
1.2943
1.29429
1.29429
1.29429
1.29429
1.2943
1.2943
1.29431
1.2134
1.21339
1.21338
1.21338
1.21338
1.21338
1.21338
1.21338
1.21339
1.2134
1.13384
1.13382
1.13381
1.1338
1.1338
1.1338
1.1338
1.13381
1.13382
1.13383
1.05596
1.05594
1.05593
1.05592
1.05592
1.05592
1.05592
1.05593
1.05594
1.05596
0.980101
0.98008
0.980067
0.980059
0.980055
0.980055
0.980059
0.980068
0.980081
0.9801
0.906561
0.906539
0.906524
0.906515
0.90651
0.90651
0.906515
0.906525
0.90654
0.906562
0.835608
0.835584
0.835568
0.835558
0.835553
0.835553
0.835558
0.835569
0.835586
0.83561
0.767477
0.767451
0.767434
0.767423
0.767418
0.767418
0.767423
0.767434
0.767453
0.767478
0.702364
0.702337
0.702319
0.702308
0.702302
0.702302
0.702307
0.702319
0.702338
0.702365
0.640432
0.640404
0.640386
0.640373
0.640367
0.640366
0.640372
0.640384
0.640404
0.640432
0.581805
0.581776
0.581757
0.581744
0.581736
0.581735
0.58174
0.581752
0.581772
0.581801
0.526568
0.526538
0.526518
0.526504
0.526496
0.526493
0.526497
0.526509
0.526528
0.526558
0.47477
0.47474
0.474719
0.474704
0.474694
0.47469
0.474692
0.474703
0.474721
0.47475
0.426426
0.426395
0.426373
0.426356
0.426344
0.426338
0.426338
0.426346
0.426364
0.426392
0.381515
0.381485
0.381461
0.381442
0.381427
0.381417
0.381414
0.381419
0.381434
0.381461
0.33999
0.339959
0.339933
0.33991
0.339891
0.339876
0.339868
0.339869
0.33988
0.339905
0.301773
0.30174
0.301711
0.301683
0.301657
0.301636
0.301621
0.301615
0.301622
0.301643
0.266761
0.266727
0.266693
0.266658
0.266623
0.266592
0.266566
0.266551
0.266551
0.266567
0.234833
0.234797
0.234756
0.234711
0.234664
0.234618
0.234578
0.234549
0.234538
0.234548
0.20585
0.20581
0.20576
0.205701
0.205636
0.205569
0.205508
0.20546
0.205433
0.205434
0.179659
0.179614
0.179551
0.179473
0.179382
0.179287
0.179195
0.179118
0.179068
0.179055
0.156099
0.156045
0.155966
0.155861
0.155737
0.1556
0.155465
0.155345
0.15526
0.155227
0.135001
0.134938
0.134836
0.134697
0.134526
0.134333
0.134133
0.13395
0.133811
0.133745
0.116197
0.11612
0.11599
0.115807
0.115575
0.115304
0.115013
0.114733
0.114507
0.114387
0.099516
0.0994244
0.0992607
0.0990231
0.0987132
0.0983386
0.0979182
0.0974904
0.0971216
0.0969049
0.0847945
0.0846859
0.0844842
0.0841837
0.08378
0.0832727
0.0826735
0.0820211
0.0814069
0.0810017
0.0718722
0.0717461
0.0715051
0.0711377
0.0706297
0.0699649
0.0691331
0.0681488
0.067104
0.0662849
0.0605954
0.0604537
0.0601767
0.0597466
0.0591365
0.0583078
0.0572081
0.0557768
0.0539913
0.0521295
1.45867
1.45866
1.45866
1.45866
1.45866
1.45866
1.45866
1.45866
1.45866
1.45866
1.3762
1.37619
1.37619
1.37619
1.37618
1.37618
1.37619
1.37619
1.37619
1.37619
1.29432
1.29431
1.2943
1.2943
1.2943
1.2943
1.2943
1.2943
1.29431
1.29431
1.21341
1.2134
1.21339
1.21338
1.21338
1.21338
1.21338
1.21339
1.21339
1.2134
1.13384
1.13383
1.13382
1.13381
1.13381
1.13381
1.13381
1.13382
1.13383
1.13384
1.05596
1.05595
1.05594
1.05593
1.05593
1.05593
1.05593
1.05594
1.05595
1.05596
0.980108
0.980088
0.980075
0.980067
0.980063
0.980063
0.980068
0.980077
0.98009
0.980109
0.906569
0.906547
0.906533
0.906524
0.90652
0.90652
0.906525
0.906535
0.906551
0.906572
0.835617
0.835593
0.835578
0.835569
0.835564
0.835564
0.83557
0.835581
0.835598
0.835621
0.767486
0.767461
0.767445
0.767434
0.767429
0.76743
0.767435
0.767447
0.767465
0.767491
0.702374
0.702348
0.702331
0.70232
0.702314
0.702314
0.70232
0.702332
0.702351
0.702379
0.640443
0.640416
0.640398
0.640386
0.64038
0.64038
0.640385
0.640398
0.640417
0.640446
0.581816
0.581788
0.581769
0.581757
0.58175
0.581749
0.581754
0.581766
0.581786
0.581815
0.526579
0.52655
0.526531
0.526518
0.52651
0.526508
0.526512
0.526523
0.526543
0.526572
0.474782
0.474752
0.474732
0.474717
0.474708
0.474704
0.474707
0.474717
0.474736
0.474765
0.426437
0.426408
0.426386
0.42637
0.426358
0.426352
0.426353
0.426361
0.426379
0.426407
0.381527
0.381497
0.381474
0.381455
0.381441
0.381431
0.381428
0.381434
0.381449
0.381476
0.340002
0.339971
0.339946
0.339923
0.339904
0.33989
0.339882
0.339883
0.339895
0.33992
0.301784
0.301752
0.301724
0.301696
0.301671
0.301649
0.301634
0.301629
0.301636
0.301657
0.266772
0.266738
0.266705
0.266671
0.266636
0.266605
0.26658
0.266565
0.266564
0.266581
0.234844
0.234808
0.234768
0.234723
0.234676
0.23463
0.23459
0.234562
0.234551
0.234561
0.20586
0.20582
0.205771
0.205713
0.205647
0.205581
0.20552
0.205472
0.205445
0.205446
0.179669
0.179623
0.179562
0.179484
0.179393
0.179298
0.179206
0.17913
0.17908
0.179067
0.156108
0.156055
0.155976
0.155871
0.155747
0.155611
0.155475
0.155356
0.155271
0.155238
0.135009
0.134946
0.134845
0.134706
0.134535
0.134342
0.134143
0.13396
0.133821
0.133755
0.116204
0.116128
0.115999
0.115816
0.115584
0.115313
0.115022
0.114742
0.114517
0.114397
0.0995229
0.0994317
0.0992684
0.0990311
0.0987214
0.0983469
0.0979265
0.0974988
0.0971301
0.0969134
0.0848008
0.0846925
0.0844912
0.0841909
0.0837874
0.0832802
0.082681
0.0820286
0.0814145
0.0810093
0.0718779
0.0717522
0.0715114
0.0711442
0.0706363
0.0699716
0.0691398
0.0681555
0.0671107
0.0662915
0.0606005
0.0604591
0.0601824
0.0597524
0.0591424
0.0583138
0.0572141
0.0557827
0.053997
0.0521351
1.45867
1.45867
1.45866
1.45866
1.45866
1.45866
1.45866
1.45866
1.45866
1.45867
1.3762
1.37619
1.37619
1.37619
1.37619
1.37619
1.37619
1.37619
1.37619
1.3762
1.29432
1.29431
1.29431
1.2943
1.2943
1.2943
1.2943
1.29431
1.29431
1.29432
1.21341
1.2134
1.21339
1.21339
1.21339
1.21339
1.21339
1.21339
1.2134
1.21341
1.13385
1.13383
1.13382
1.13382
1.13382
1.13382
1.13382
1.13383
1.13384
1.13385
1.05597
1.05596
1.05595
1.05594
1.05594
1.05594
1.05594
1.05595
1.05596
1.05598
0.980118
0.9801
0.980088
0.98008
0.980077
0.980077
0.980082
0.98009
0.980104
0.980124
0.906581
0.906561
0.906548
0.906539
0.906535
0.906536
0.906541
0.906551
0.906567
0.906588
0.835631
0.835608
0.835594
0.835585
0.835581
0.835581
0.835587
0.835598
0.835615
0.835639
0.767501
0.767477
0.767462
0.767452
0.767448
0.767448
0.767454
0.767466
0.767484
0.76751
0.70239
0.702365
0.702349
0.702339
0.702334
0.702334
0.70234
0.702352
0.702372
0.702399
0.64046
0.640434
0.640417
0.640406
0.6404
0.6404
0.640406
0.640419
0.640439
0.640467
0.581833
0.581807
0.581789
0.581778
0.581771
0.58177
0.581776
0.581788
0.581808
0.581837
0.526596
0.52657
0.526551
0.526539
0.526531
0.526529
0.526534
0.526545
0.526566
0.526595
0.474799
0.474772
0.474753
0.474739
0.47473
0.474726
0.474729
0.47474
0.474759
0.474788
0.426455
0.426427
0.426407
0.426391
0.42638
0.426374
0.426375
0.426383
0.426401
0.42643
0.381544
0.381516
0.381494
0.381476
0.381462
0.381453
0.38145
0.381456
0.381471
0.381498
0.340019
0.33999
0.339966
0.339944
0.339925
0.339911
0.339904
0.339905
0.339917
0.339942
0.3018
0.30177
0.301743
0.301716
0.301691
0.30167
0.301655
0.30165
0.301657
0.301679
0.266788
0.266756
0.266724
0.26669
0.266656
0.266625
0.2666
0.266585
0.266585
0.266602
0.234859
0.234825
0.234786
0.234742
0.234695
0.23465
0.23461
0.234582
0.234571
0.234581
0.205875
0.205836
0.205788
0.20573
0.205666
0.205599
0.205538
0.205491
0.205464
0.205465
0.179683
0.179639
0.179578
0.1795
0.17941
0.179315
0.179224
0.179147
0.179098
0.179085
0.156121
0.156069
0.155991
0.155887
0.155763
0.155627
0.155491
0.155372
0.155288
0.155254
0.135021
0.13496
0.134859
0.134721
0.13455
0.134357
0.134158
0.133975
0.133836
0.13377
0.116215
0.11614
0.116012
0.115829
0.115597
0.115327
0.115036
0.114756
0.114531
0.114411
0.0995331
0.099443
0.0992804
0.0990433
0.0987338
0.0983594
0.0979391
0.0975115
0.0971428
0.0969263
0.0848101
0.0847028
0.084502
0.0842021
0.0837987
0.0832916
0.0826924
0.08204
0.0814259
0.0810208
0.0718863
0.0717614
0.0715212
0.0711543
0.0706464
0.0699818
0.0691499
0.0681656
0.0671207
0.0663016
0.0606081
0.0604674
0.0601911
0.0597614
0.0591515
0.0583228
0.057223
0.0557915
0.0540057
0.0521436
1.45867
1.45867
1.45866
1.45866
1.45866
1.45866
1.45866
1.45866
1.45867
1.45867
1.3762
1.3762
1.37619
1.37619
1.37619
1.37619
1.37619
1.37619
1.3762
1.3762
1.29433
1.29432
1.29431
1.29431
1.29431
1.29431
1.29431
1.29431
1.29432
1.29433
1.21342
1.21341
1.2134
1.2134
1.2134
1.2134
1.2134
1.2134
1.21341
1.21342
1.13386
1.13385
1.13384
1.13383
1.13383
1.13383
1.13383
1.13384
1.13385
1.13386
1.05598
1.05597
1.05596
1.05596
1.05595
1.05595
1.05596
1.05596
1.05598
1.05599
0.980132
0.980117
0.980106
0.980099
0.980096
0.980096
0.980101
0.98011
0.980124
0.980144
0.906596
0.90658
0.906568
0.90656
0.906557
0.906557
0.906563
0.906573
0.906589
0.906611
0.835647
0.83563
0.835617
0.835609
0.835605
0.835605
0.835611
0.835622
0.835639
0.835664
0.767519
0.7675
0.767487
0.767477
0.767473
0.767474
0.76748
0.767491
0.76751
0.767537
0.702409
0.70239
0.702375
0.702366
0.702361
0.702361
0.702367
0.70238
0.702399
0.702428
0.64048
0.64046
0.640445
0.640434
0.640429
0.640429
0.640435
0.640447
0.640468
0.640497
0.581854
0.581834
0.581818
0.581807
0.5818
0.5818
0.581805
0.581818
0.581838
0.581868
0.526618
0.526597
0.52658
0.526568
0.526561
0.526559
0.526564
0.526576
0.526596
0.526627
0.474821
0.474799
0.474782
0.474769
0.47476
0.474757
0.47476
0.47477
0.47479
0.47482
0.426476
0.426455
0.426436
0.426421
0.42641
0.426404
0.426405
0.426414
0.426432
0.426462
0.381566
0.381544
0.381523
0.381506
0.381492
0.381483
0.38148
0.381486
0.381502
0.38153
0.34004
0.340017
0.339994
0.339973
0.339955
0.339941
0.339933
0.339935
0.339947
0.339973
0.301821
0.301796
0.301771
0.301745
0.30172
0.301699
0.301684
0.301679
0.301686
0.301709
0.266808
0.266781
0.266751
0.266717
0.266684
0.266653
0.266628
0.266613
0.266613
0.266631
0.234878
0.234849
0.234812
0.234768
0.234722
0.234676
0.234636
0.234608
0.234598
0.234609
0.205893
0.205859
0.205813
0.205755
0.205691
0.205625
0.205564
0.205516
0.20549
0.205492
0.1797
0.17966
0.179601
0.179524
0.179434
0.179339
0.179248
0.179171
0.179122
0.17911
0.156137
0.156089
0.156012
0.155909
0.155785
0.155649
0.155514
0.155395
0.15531
0.155278
0.135037
0.134979
0.134879
0.134741
0.134571
0.134378
0.134179
0.133996
0.133857
0.133792
0.116229
0.116158
0.11603
0.115848
0.115616
0.115346
0.115055
0.114775
0.11455
0.114431
0.0995459
0.099459
0.0992972
0.0990605
0.0987511
0.0983767
0.0979564
0.0975288
0.0971602
0.0969442
0.0848218
0.0847173
0.0845173
0.0842176
0.0838143
0.0833072
0.082708
0.0820556
0.0814415
0.0810368
0.0718968
0.0717745
0.071535
0.0711683
0.0706605
0.0699958
0.0691639
0.0681794
0.0671345
0.0663157
0.0606175
0.0604791
0.0602035
0.0597739
0.059164
0.0583353
0.0572353
0.0558036
0.0540176
0.0521555
0.050836
0.0506817
0.0503769
0.0498982
0.049208
0.0482457
0.0469112
0.0450209
0.0421757
0.0372772
0.0424099
0.0422504
0.0419324
0.0414304
0.040703
0.039684
0.0382668
0.0362748
0.0334084
0.0291903
0.0352014
0.0350435
0.0347277
0.0342301
0.0335125
0.032517
0.0311588
0.0293183
0.0268436
0.0236046
0.0290767
0.0289269
0.0286275
0.0281584
0.027489
0.0265759
0.0253621
0.0237804
0.0217698
0.0193219
0.0239076
0.0237709
0.0234984
0.023075
0.0224788
0.0216807
0.020647
0.0193451
0.0177579
0.0159085
0.0195727
0.0194522
0.0192131
0.0188451
0.018334
0.0176627
0.0168139
0.0157752
0.0145475
0.0131564
0.0159588
0.0158558
0.0156528
0.0153433
0.0149196
0.0143734
0.0136984
0.0128935
0.0119672
0.01094
0.0129624
0.0128769
0.0127095
0.0124569
0.0121163
0.0116855
0.0111658
0.0105638
0.00989276
0.00917058
0.0104904
0.0104213
0.0102869
0.0100864
0.00982014
0.00949065
0.00910442
0.00867431
0.00822159
0.0077741
0.00846026
0.00840565
0.00830036
0.00814515
0.00794248
0.00769755
0.00742016
0.00712787
0.00685217
0.00665544
0.0508259
0.0506721
0.0503676
0.049889
0.0491991
0.0482371
0.046903
0.0450132
0.0421687
0.0372714
0.042401
0.042242
0.0419242
0.0414224
0.0406953
0.0396766
0.0382597
0.0362682
0.0334024
0.0291851
0.0351936
0.0350362
0.0347206
0.0342232
0.0335058
0.0325106
0.0311527
0.0293127
0.0268385
0.0236001
0.0290699
0.0289206
0.0286213
0.0281524
0.0274832
0.0265704
0.0253569
0.0237755
0.0217653
0.0193178
0.0239018
0.0237655
0.0234931
0.0230699
0.0224738
0.021676
0.0206425
0.0193409
0.017754
0.015905
0.0195677
0.0194475
0.0192086
0.0188407
0.0183297
0.0176586
0.01681
0.0157715
0.0145441
0.0131533
0.0159545
0.0158518
0.0156489
0.0153396
0.014916
0.0143699
0.013695
0.0128903
0.0119643
0.0109372
0.0129588
0.0128735
0.0127062
0.0124537
0.0121131
0.0116825
0.0111629
0.010561
0.00989018
0.00916816
0.0104873
0.0104184
0.0102841
0.0100836
0.00981749
0.00948809
0.00910196
0.00867196
0.00821934
0.00777199
0.00845767
0.00840321
0.008298
0.00814285
0.00794024
0.00769537
0.00741806
0.00712585
0.00685025
0.00665368
0.0508194
0.0506659
0.0503615
0.0498832
0.0491934
0.0482316
0.0468977
0.0450084
0.0421644
0.0372676
0.0423954
0.0422366
0.0419189
0.0414173
0.0406904
0.0396718
0.0382552
0.0362641
0.0333987
0.0291818
0.0351887
0.0350315
0.034716
0.0342187
0.0335015
0.0325065
0.0311489
0.0293091
0.0268352
0.0235972
0.0290657
0.0289165
0.0286174
0.0281486
0.0274795
0.0265669
0.0253536
0.0237724
0.0217624
0.0193153
0.0238982
0.0237619
0.0234897
0.0230666
0.0224706
0.0216729
0.0206396
0.0193383
0.0177516
0.0159028
0.0195646
0.0194445
0.0192056
0.0188378
0.018327
0.017656
0.0168076
0.0157692
0.014542
0.0131514
0.0159519
0.0158493
0.0156464
0.0153371
0.0149137
0.0143677
0.0136929
0.0128883
0.0119624