/*--------------------------------*- C++ -*----------------------------------*\
| =========                 |                                                 |
| \\      /  F ield         | OpenFOAM: The Open Source CFD Toolbox           |
|  \\    /   O peration     | Version:  v1812                                 |
|   \\  /    A nd           | Web:      www.OpenFOAM.com                      |
|    \\/     M anipulation  |                                                 |
\*---------------------------------------------------------------------------*/
FoamFile
{
    version     2.0;
    format      ascii;
    class       surfaceScalarField;
    location    "12.85";
    object      phi;
}
// * * * * * * * * * * * * * * * * * * * * * * * * * * * * * * * * * * * * * //

dimensions      [0 3 -1 0 0 0 0];
oriented        oriented;


internalField   nonuniform List<scalar> 
1890
(
0.0093061957
0.00069380425
0.0082843931
0.0010218027
0.0073298986
0.00095449448
0.0064869553
0.00084294334
0.0057695845
0.0007173708
0.00518986
0.00057972444
0.004738168
0.00045169205
0.00439519
0.00034297802
0.0041390268
0.00025616318
0.003949107
0.00018991984
0.003807888
0.00014121897
0.0037013782
0.00010650979
0.003619058
8.2320207e-05
0.0035534117
6.5646233e-05
0.0034992845
5.412725e-05
0.0034532444
4.6040053e-05
0.0034130501
4.0194304e-05
0.0033772574
3.579277e-05
0.0033449386
3.231877e-05
0.0033154893
2.9449284e-05
0.0032885008
2.6988571e-05
0.0032636805
2.4820288e-05
0.003240805
2.2875466e-05
0.0032196926
2.1112406e-05
0.0032001879
1.9504651e-05
0.0031821539
1.8034023e-05
0.0031654672
1.668674e-05
0.0031500158
1.5451381e-05
0.0031356979
1.4317877e-05
0.0031224209
1.3277079e-05
0.0031101003
1.2320589e-05
0.0030986595
1.1440709e-05
0.0030880291
1.0630417e-05
0.0030781458
9.8833493e-06
0.003068952
9.1937616e-06
0.0030603955
8.5564971e-06
0.0030524286
7.9669307e-06
0.0030450077
7.4209239e-06
0.0030380929
6.9147676e-06
0.0030316478
6.4451403e-06
0.0030256387
6.0090569e-06
0.0030200349
5.6038329e-06
0.0030148078
5.2270471e-06
0.0030099313
4.8765078e-06
0.0030053811
4.550227e-06
0.0030011347
4.2463935e-06
0.0029971713
3.963353e-06
0.0029934717
3.6995921e-06
0.002990018
3.4537193e-06
0.0029867936
3.2244592e-06
0.002983783
3.0106358e-06
0.0029809718
2.8111675e-06
0.0029783467
2.6250592e-06
0.0029758953
2.45139e-06
0.002973606
2.2893114e-06
0.0029714679
2.138034e-06
0.0029694711
1.9968248e-06
0.0029676061
1.8650016e-06
0.0029658642
1.7419259e-06
0.0029642372
1.6270053e-06
0.0029627176
1.5196873e-06
0.0029612981
1.4194601e-06
0.0029599722
1.3258536e-06
0.0029587338
1.238429e-06
0.0029575769
1.1567848e-06
0.0029564964
1.0805385e-06
0.0029554871
1.0093366e-06
0.0029545443
9.4284107e-07
0.0029536636
8.8073527e-07
0.0029528409
8.2271998e-07
0.0029520724
7.6852058e-07
0.0029513545
7.178781e-07
0.0029506839
6.705656e-07
0.0029500575
6.2636394e-07
0.0029494724
5.8508487e-07
0.0029489258
5.4653234e-07
0.0029484153
5.1054428e-07
0.0029479384
4.7692795e-07
0.0029474929
4.4554393e-07
0.0029470767
4.1619935e-07
0.0029466879
3.8879793e-07
0.0029463248
3.6315041e-07
0.0029459855
3.3922583e-07
0.0029456686
3.16818e-07
0.0029453726
2.9597541e-07
0.0029450962
2.7642096e-07
0.0029448379
2.5830845e-07
0.0029445967
2.4122368e-07
0.0029443713
2.2549186e-07
0.0029441608
2.1049274e-07
0.002943964
1.968375e-07
0.0029437803
1.8362252e-07
0.0029436084
1.7187204e-07
0.0029434481
1.6027388e-07
0.0029432978
1.5029463e-07
0.0029431574
1.4038979e-07
0.0029430253
1.3210529e-07
0.0029429003
1.2507085e-07
0.0029427809
1.1943181e-07
1.2566728e-07
0.010339525
0.00035427932
0.010570754
0.00079057334
0.010606301
0.0009189482
0.010547572
0.00090167137
0.010422317
0.00084262624
0.010244356
0.0007576856
0.010039421
0.00065662745
0.0098287427
0.00055365587
0.009625135
0.00045977083
0.0094353013
0.00037975353
0.0092624277
0.00031409257
0.0091075332
0.00026140424
0.008970154
0.00021969947
0.0088489023
0.00018689786
0.0087419716
0.00016105803
0.0086474927
0.00014051897
0.008563694
0.00012399299
0.0084890107
0.00011047602
0.0084221096
9.9219879e-05
0.0083618775
8.9681397e-05
0.0083073954
8.1470649e-05
0.0082579079
7.4307821e-05
0.0082127929
6.7990473e-05
0.0081715353
6.2369976e-05
0.0081337049
5.7335016e-05
0.0080989388
5.28002e-05
0.0080669272
4.8698292e-05
0.0080374036
4.4974982e-05
0.0080101361
4.1585411e-05
0.0079849213
3.8491853e-05
0.0079615798
3.5662145e-05
0.0079399519
3.3068589e-05
0.0079198951
3.0687143e-05
0.0079012817
2.8496825e-05
0.0078839962
2.6479231e-05
0.0078679345
2.4618153e-05
0.0078530022
2.289927e-05
0.0078391133
2.1309882e-05
0.0078261893
1.9838696e-05
0.0078141589
1.8475631e-05
0.0078029562
1.7211665e-05
0.0077925214
1.60387e-05
0.007782799
1.494944e-05
0.0077737382
1.3937295e-05
0.0077652921
1.2996292e-05
0.0077574175
1.2121002e-05
0.0077500744
1.1306477e-05
0.0077432258
1.0548197e-05
0.0077368375
9.8420281e-06
0.0077308778
9.184176e-06
0.0077253172
8.5711616e-06
0.0077201286
7.9997879e-06
0.0077152865
7.4671087e-06
0.0077107675
6.9704116e-06
0.0077065496
6.5071884e-06
0.0077026126
6.0751177e-06
0.0076989374
5.6720473e-06
0.0076955064
5.2959765e-06
0.0076923033
4.945051e-06
0.0076893128
4.6175459e-06
0.0076865206
4.3118646e-06
0.0076839135
4.0265313e-06
0.0076814791
3.7601746e-06
0.007679206
3.5115275e-06
0.0076770834
3.2794075e-06
0.0076751012
3.0627104e-06
0.0076732502
2.8604019e-06
0.0076715215
2.6715074e-06
0.0076699072
2.4951251e-06
0.0076683995
2.3304032e-06
0.0076669914
2.1765642e-06
0.0076656764
2.0328811e-06
0.0076644482
1.8986968e-06
0.0076633012
1.7733799e-06
0.0076622299
1.6563753e-06
0.0076612293
1.5471096e-06
0.0076602948
1.4451031e-06
0.007659422
1.3498137e-06
0.0076586067
1.2608449e-06
0.0076578452
1.1776777e-06
0.007657134
1.1000378e-06
0.0076564697
1.0274123e-06
0.0076558491
9.5969548e-07
0.0076552696
8.9629807e-07
0.0076547283
8.3732841e-07
0.0076542228
7.8198789e-07
0.0076537504
7.307025e-07
0.0076533094
6.822843e-07
0.0076528972
6.3773141e-07
0.0076525125
5.9518375e-07
0.0076521526
5.5663753e-07
0.0076518172
5.1902886e-07
0.0076515029
4.8611056e-07
0.0076512105
4.5264465e-07
0.0076509355
4.2531718e-07
0.0076506808
3.9512876e-07
0.0076504387
3.7424028e-07
0.0076502167
3.4708373e-07
0.0076500002
3.3597389e-07
3.1050749e-07
0.010188704
0.00016557515
0.010530487
0.00044879099
0.010851453
0.00059798177
0.011124174
0.00062895026
0.011350581
0.00061621887
0.011524486
0.00058378056
0.01164633
0.00053478421
0.011724155
0.0004758305
0.011767999
0.00041592665
0.011786639
0.00036111398
0.011787114
0.0003136171
0.011775058
0.00027346024
0.011754861
0.00023989718
0.011729768
0.00021199031
0.011702054
0.00018877262
0.011673239
0.0001693339
0.011644339
0.00015289298
0.011616003
0.00013881184
0.011588629
0.00012659379
0.011562446
0.00011586444
0.011537572
0.00010634492
0.011514052
9.7826982e-05
0.011491889
9.0153347e-05
0.011471056
8.3203359e-05
0.011451509
7.6882616e-05
0.011433193
7.1115573e-05
0.011416051
6.5840311e-05
0.011400021
6.1004927e-05
0.011385042
5.6565083e-05
0.011371051
5.2482341e-05
0.01135799
4.8723021e-05
0.011345801
4.5257374e-05
0.01133443
4.2058977e-05
0.011323822
3.9104259e-05
0.011313929
3.6372118e-05
0.011304704
3.3843615e-05
0.011296101
3.1501709e-05
0.01128808
2.9331037e-05
0.011280601
2.7317718e-05
0.011273628
2.5449187e-05
0.011267125
2.3714046e-05
0.011261062
2.2101938e-05
0.011255408
2.0603434e-05
0.011250135
1.9209929e-05
0.011245218
1.7913559e-05
0.011240632
1.670712e-05
0.011236354
1.5584006e-05
0.011232364
1.4538149e-05
0.011228643
1.3563966e-05
0.01122517
1.2656322e-05
0.011221931
1.1810484e-05
0.011218909
1.1022084e-05
0.011216089
1.0287093e-05
0.011213457
9.60178e-06
0.011211002
8.9626953e-06
0.01120871
8.3666386e-06
0.011206572
7.8106388e-06
0.011204576
7.2919397e-06
0.011202713
6.8079798e-06
0.011200974
6.3563846e-06
0.011199351
5.9349517e-06
0.011197836
5.5416367e-06
0.011196421
5.1745478e-06
0.011195101
4.8319173e-06
0.011193868
4.5121062e-06
0.011192718
4.2135768e-06
0.011191643
3.934896e-06
0.01119064
3.6747201e-06
0.011189703
3.4318021e-06
0.011188829
3.2049769e-06
0.011188012
2.993179e-06
0.011187249
2.7953981e-06
0.011186537
2.6107312e-06
0.011185872
2.4382932e-06
0.011185252
2.2773048e-06
0.011184672
2.1269652e-06
0.01118413
1.9866102e-06
0.011183625
1.855489e-06
0.011183152
1.7330795e-06
0.011182711
1.6186574e-06
0.011182299
1.511885e-06
0.011181915
1.4120133e-06
0.011181556
1.3189451e-06
0.01118122
1.2317793e-06
0.011180907
1.1507583e-06
0.011180614
1.0746081e-06
0.011180341
1.0041649e-06
0.011180086
9.3743288e-07
0.011179847
8.7634281e-07
0.011179624
8.1755448e-07
0.011179416
7.6498432e-07
0.011179222
7.127164e-07
0.01117904
6.6832279e-07
0.011178872
6.2106193e-07
0.011178712
5.851693e-07
0.011178566
5.4103875e-07
0.011178425
5.1515118e-07
0.0111783
4.7206158e-07
0.011178177
4.58869e-07
4.1580714e-07
0.010097182
6.8393557e-05
0.010346961
0.00019901112
0.010662469
0.00028247388
0.010982753
0.0003086665
0.011290229
0.00030874343
0.011575251
0.00029875788
0.011829022
0.00028101345
0.012047865
0.00025698754
0.012233272
0.00023051981
0.01238924
0.00020514589
0.012520295
0.00018256236
0.012630755
0.00016299958
0.012724428
0.00014622492
0.012804515
0.00013190313
0.012873613
0.00011967427
0.012933772
0.00010917461
0.012986596
0.00010006907
0.013033332
9.2076366e-05
0.01307495
8.4975253e-05
0.013112216
7.8598613e-05
0.013145739
7.2822302e-05
0.013176012
6.7553936e-05
0.013203441
6.2723921e-05
0.013228366
5.8278893e-05
0.013251071
5.4176984e-05
0.013271802
5.038443e-05
0.01329077
4.6873164e-05
0.013308155
4.3619182e-05
0.013324119
4.0601465e-05
0.0133388
3.7801286e-05
0.013352321
3.5201758e-05
0.013364791
3.2787534e-05
0.013376306
3.0544596e-05
0.01338695
2.8460092e-05
0.0133968
2.6522224e-05
0.013405923
2.4720137e-05
0.013414381
2.3043844e-05
0.013422228
2.1484143e-05
0.013429513
2.0032557e-05
0.013436281
1.8681267e-05
0.013442572
1.7423059e-05
0.013448423
1.6251276e-05
0.013453866
1.5159764e-05
0.013458933
1.4142836e-05
0.013463652
1.3195231e-05
0.013468047
1.2312082e-05
0.013472142
1.148888e-05
0.013475959
1.0721447e-05
0.013479517
1.0005913e-05
0.013482834
9.3386834e-06
0.013485928
8.7164286e-06
0.013488814
8.136057e-06
0.013491507
7.5946951e-06
0.013494019
7.0896759e-06
0.013496363
6.6185176e-06
0.013498551
6.1789128e-06
0.013500593
5.7687171e-06
0.013502499
5.3859342e-06
0.013504278
5.0287097e-06
0.013505939
4.6953163e-06
0.01350749
4.3841484e-06
0.013508938
4.0937114e-06
0.01351029
3.8226101e-06
0.013511552
3.5695459e-06
0.013512731
3.3333068e-06
0.013513832
3.1127635e-06
0.01351486
2.9068657e-06
0.01351582
2.7146295e-06
0.013516716
2.5351479e-06
0.013517554
2.3675618e-06
0.013518336
2.2110888e-06
0.013519066
2.064983e-06
0.013519748
1.9285666e-06
0.013520386
1.8011751e-06
0.013520981
1.6822336e-06
0.013521537
1.57114e-06
0.013522056
1.4674188e-06
0.013522541
1.3705166e-06
0.013522994
1.2800698e-06
0.013523417
1.1955344e-06
0.013523812
1.1166856e-06
0.013524181
1.042925e-06
0.013524526
9.7421872e-07
0.013524848
9.0980795e-07
0.013525149
8.4998075e-07
0.01352543
7.9364635e-07
0.013525692
7.4164769e-07
0.013525937
6.9222617e-07
0.013526166
6.4723038e-07
0.01352638
6.036332e-07
0.01352658
5.6510798e-07
0.013526767
5.2615152e-07
0.013526941
4.9385263e-07
0.013527104
4.5830699e-07
0.013527257
4.3254871e-07
0.013527399
3.9875257e-07
0.013527533
3.8065009e-07
0.013527658
3.4698453e-07
0.013527779
3.3793657e-07
3.0546848e-07
0.010068394
6.3788569e-12
0.010267405
7.3420252e-12
0.010549879
6.783067e-12
0.010858545
3.7568447e-12
0.011167288
-1.3188004e-12
0.011466046
-5.8860155e-12
0.01174706
-8.888854e-12
0.012004047
-7.1889856e-12
0.012234567
-3.7959676e-12
0.012439713
-5.9467881e-13
0.012622275
3.5420949e-12
0.012785275
7.7957207e-12
0.0129315
7.646939e-12
0.013063403
4.8622251e-12
0.013183077
2.7524113e-12
0.013292252
-7.123133e-13
0.013392321
-3.5350681e-12
0.013484397
-3.9837129e-12
0.013569373
-1.5205136e-12
0.013647971
-3.1246105e-13
0.013720794
6.752892e-14
0.013788347
5.6665118e-13
0.013851071
9.0081328e-13
0.01390935
-1.8260956e-12
0.013963527
-3.8888716e-12
0.014013912
-3.9295263e-12
0.014060785
-3.9330094e-12
0.014104404
-2.3393641e-12
0.014145005
-5.3026213e-13
0.014182807
2.9972884e-12
0.014218009
4.6600996e-12
0.014250796
4.8006611e-12
0.014281341
5.1247208e-12
0.014309801
4.4633783e-12
0.014336323
6.5329723e-13
0.014361043
-1.9466698e-12
0.014384087
-3.9074907e-12
0.014405571
-5.0408224e-12
0.014425604
-5.1519346e-12
0.014444285
-2.2102724e-12
0.014461708
1.9140814e-12
0.014477959
4.9427936e-12
0.014493119
7.6336617e-12
0.014507262
9.2367502e-12
0.014520457
8.3893494e-12
0.014532769
3.6236504e-12
0.014544258
-9.5172985e-13
0.014554979
-4.2195515e-12
0.014564985
-6.6338333e-12
0.014574324
-6.3461649e-12
0.01458304
-2.0126708e-12
0.014591177
4.2056745e-12
0.014598771
1.085945e-11
0.014605861
1.361035e-11
0.014612479
1.786754e-11
0.014618658
1.3506344e-11
0.014624427
6.3308482e-12
0.014629813
-3.5031348e-13
0.014634842
-8.5838153e-12
0.014639537
-9.4151317e-12
0.014643921
-4.5670001e-12
0.014648015
4.3458655e-12
0.014651837
1.4694707e-11
0.014655407
2.1510194e-11
0.01465874
2.7361486e-11
0.014661853
2.107242e-11
0.01466476
1.1144577e-11
0.014667475
5.1794916e-13
0.01467001
-1.1770887e-11
0.014672377
-1.3626824e-11
0.014674588
-6.3390922e-12
0.014676653
6.478081e-12
0.014678582
2.1587213e-11
0.014680383
3.0172636e-11
0.014682065
3.3784073e-11
0.014683636
2.2762317e-11
0.014685104
4.3311071e-12
0.014686474
-1.1961093e-11
0.014687754
-2.3916018e-11
0.01468895
-2.7036389e-11
0.014690067
-1.0887183e-11
0.014691109
1.0489913e-11
0.014692084
2.8907157e-11
0.014692994
3.6048808e-11
0.014693844
3.0000945e-11
0.014694637
7.2217581e-12
0.014695379
-2.2171835e-11
0.014696071
-4.5479648e-11
0.014696718
-5.5674055e-11
0.014697322
-3.945478e-11
0.014697887
-2.0256545e-11
0.014698413
-1.3847282e-11
0.014698907
1.8783526e-11
0.014699365
3.5043939e-11
0.014699798
-3.2568676e-11
0.014700197
-9.4978045e-11
0.014700577
-5.8960205e-11
0.014700924
-4.9454773e-11
0.014701263
-6.7533274e-11
-6.795082e-11
0.010068394
-6.8393548e-05
0.010267405
-0.00019901111
0.010549879
-0.00028247387
0.010858545
-0.00030866649
0.011167288
-0.00030874343
0.011466046
-0.00029875789
0.01174706
-0.00028101346
0.012004047
-0.00025698755
0.012234567
-0.00023051981
0.012439713
-0.00020514589
0.012622275
-0.00018256236
0.012785275
-0.00016299957
0.0129315
-0.00014622491
0.013063403
-0.00013190312
0.013183077
-0.00011967426
0.013292252
-0.00010917461
0.013392321
-0.00010006907
0.013484397
-9.2076366e-05
0.013569373
-8.4975254e-05
0.013647971
-7.8598615e-05
0.013720794
-7.2822307e-05
0.013788347
-6.7553942e-05
0.013851071
-6.2723928e-05
0.01390935
-5.8278899e-05
0.013963527
-5.417699e-05
0.014013912
-5.0384434e-05
0.014060785
-4.6873165e-05
0.014104404
-4.3619179e-05
0.014145005
-4.0601459e-05
0.014182807
-3.7801279e-05
0.014218009
-3.5201751e-05
0.014250796
-3.278753e-05
0.014281341
-3.0544594e-05
0.014309801
-2.8460093e-05
0.014336323
-2.6522227e-05
0.014361043
-2.4720142e-05
0.014384087
-2.3043848e-05
0.014405571
-2.1484145e-05
0.014425604
-2.0032556e-05
0.014444285
-1.8681263e-05
0.014461708
-1.7423054e-05
0.014477959
-1.6251269e-05
0.014493119
-1.5159757e-05
0.014507262
-1.4142829e-05
0.014520457
-1.3195227e-05
0.014532769
-1.2312081e-05
0.014544258
-1.1488881e-05
0.014554979
-1.0721449e-05
0.014564985
-1.0005912e-05
0.014574324
-9.3386814e-06
0.01458304
-8.7164238e-06
0.014591177
-8.1360479e-06
0.014598771
-7.5946832e-06
0.014605861
-7.0896611e-06
0.014612479
-6.6185027e-06
0.014618658
-6.1789014e-06
0.014624427
-5.7687093e-06
0.014629813
-5.3859299e-06
0.014634842
-5.028706e-06
0.014639537
-4.695312e-06
0.014643921
-4.3841413e-06
0.014648015
-4.0936979e-06
0.014651837
-3.8225918e-06
0.014655407
-3.5695232e-06
0.01465874
-3.333284e-06
0.014661853
-3.112745e-06
0.01466476
-2.9068533e-06
0.014667475
-2.7146221e-06
0.01467001
-2.5351407e-06
0.014672377
-2.3675551e-06
0.014674588
-2.2110781e-06
0.014676653
-2.0649633e-06
0.014678582
-1.9285411e-06
0.014680383
-1.8011486e-06
0.014682065
-1.6822094e-06
0.014683636
-1.5711258e-06
0.014685104
-1.4674153e-06
0.014686474
-1.3705217e-06
0.014687754
-1.2800775e-06
0.01468895
-1.1955398e-06
0.014690067
-1.1166798e-06
0.014691109
-1.0429056e-06
0.014692084
-9.7419191e-07
0.014692994
-9.0978772e-07
0.014693844
-8.4997312e-07
0.014694637
-7.9365864e-07
0.014695379
-7.4168098e-07
0.014696071
-6.9227492e-07
0.014696718
-6.4727959e-07
0.014697322
-6.0367024e-07
0.014697887
-5.6514265e-07
0.014698413
-5.2616977e-07
0.014698907
-4.9385862e-07
0.014699366
-4.583456e-07
0.014699798
-4.3264351e-07
0.014700197
-3.9886054e-07
0.014700577
-3.8072144e-07
0.014700924
-3.4706522e-07
0.014701262
-3.3805408e-07
-3.0558177e-07
0.010097182
-0.00016557515
0.010346961
-0.00044879099
0.010662469
-0.00059798178
0.010982753
-0.00062895026
0.011290229
-0.00061621887
0.011575251
-0.00058378055
0.011829022
-0.0005347842
0.012047865
-0.00047583049
0.012233272
-0.00041592665
0.01238924
-0.00036111399
0.012520295
-0.00031361711
0.012630755
-0.00027346025
0.012724428
-0.00023989718
0.012804515
-0.00021199031
0.012873613
-0.00018877261
0.012933772
-0.00016933389
0.012986596
-0.00015289297
0.013033332
-0.00013881183
0.01307495
-0.00012659379
0.013112216
-0.00011586444
0.013145739
-0.00010634493
0.013176012
-9.7826997e-05
0.013203441
-9.0153363e-05
0.013228366
-8.3203372e-05
0.013251071
-7.6882622e-05
0.013271802
-7.1115571e-05
0.01329077
-6.5840301e-05
0.013308155
-6.1004913e-05
0.013324119
-5.6565068e-05
0.0133388
-5.248233e-05
0.013352321
-4.8723017e-05
0.013364791
-4.5257377e-05
0.013376306
-4.2058987e-05
0.01338695
-3.9104272e-05
0.0133968
-3.637213e-05
0.013405923
-3.3843621e-05
0.013414381
-3.1501707e-05
0.013422228
-2.9331027e-05
0.013429513
-2.7317702e-05
0.013436281
-2.544917e-05
0.013442572
-2.3714034e-05
0.013448423
-2.2101935e-05
0.013453866
-2.0603439e-05
0.013458933
-1.9209942e-05
0.013463652
-1.7913574e-05
0.013468047
-1.670713e-05
0.013472142
-1.5584007e-05
0.013475959
-1.4538138e-05
0.013479517
-1.3563947e-05
0.013482834
-1.2656299e-05
0.013485928
-1.1810464e-05
0.013488814
-1.1022074e-05
0.013491507
-1.0287093e-05
0.013494019
-9.601792e-06
0.013496363
-8.9627128e-06
0.013498551
-8.3666517e-06
0.013500593
-7.8106404e-06
0.013502499
-7.2919243e-06
0.013504278
-6.8079491e-06
0.013505939
-6.3563456e-06
0.01350749
-5.9349169e-06
0.013508938
-5.5416177e-06
0.01351029
-5.1745465e-06
0.013511552
-4.8319347e-06
0.013512731
-4.5121329e-06
0.013513832
-4.2135973e-06
0.01351486
-3.9348972e-06
0.01351582
-3.6746958e-06
0.013516716
-3.431757e-06
0.013517554
-3.2049214e-06
0.013518336
-2.9931306e-06
0.013519066
-2.7953741e-06
0.013519749
-2.6107354e-06
0.013520386
-2.4383219e-06
0.013520981
-2.2773455e-06
0.013521537
-2.1269956e-06
0.013522056
-1.986616e-06
0.013522541
-1.8554639e-06
0.013522994
-1.7330272e-06
0.013523417
-1.6185964e-06
0.013523812
-1.5118387e-06
0.013524181
-1.4120009e-06
0.013524526
-1.3189723e-06
0.013524848
-1.2318345e-06
0.013525149
-1.1508223e-06
0.01352543
-1.0746538e-06
0.013525692
-1.0041788e-06
0.013525937
-9.3741424e-07
0.013526166
-8.7630523e-07
0.01352638
-8.1752842e-07
0.01352658
-7.6499201e-07
0.013526767
-7.1275975e-07
0.013526941
-6.6841029e-07
0.013527104
-6.2119246e-07
0.013527257
-5.8526585e-07
0.013527399
-5.4105219e-07
0.013527533
-5.1515426e-07
0.013527658
-4.7213098e-07
0.013527779
-4.5895344e-07
-4.1587358e-07
0.010188704
-0.00035427932
0.010530487
-0.00079057335
0.010851453
-0.00091894821
0.011124174
-0.00090167137
0.011350581
-0.00084262624
0.011524486
-0.00075768559
0.01164633
-0.00065662744
0.011724155
-0.00055365586
0.011767999
-0.00045977083
0.011786639
-0.00037975353
0.011787114
-0.00031409258
0.011775058
-0.00026140425
0.011754861
-0.00021969948
0.011729768
-0.00018689787
0.011702054
-0.00016105803
0.011673239
-0.00014051896
0.011644339
-0.00012399297
0.011616003
-0.000110476
0.011588629
-9.9219867e-05
0.011562446
-8.9681393e-05
0.011537572
-8.1470655e-05
0.011514052
-7.4307835e-05
0.011491889
-6.7990491e-05
0.011471056
-6.2369993e-05
0.011451509
-5.7335027e-05
0.011433193
-5.2800202e-05
0.011416051
-4.8698283e-05
0.011400021
-4.4974966e-05
0.011385042
-4.1585392e-05
0.011371051
-3.8491838e-05
0.01135799
-3.5662138e-05
0.011345801
-3.3068591e-05
0.01133443
-3.0687156e-05
0.011323822
-2.8496844e-05
0.011313929
-2.6479249e-05
0.011304704
-2.4618164e-05
0.011296101
-2.289927e-05
0.01128808
-2.1309872e-05
0.011280601
-1.9838677e-05
0.011273628
-1.8475609e-05
0.011267125
-1.7211649e-05
0.011261062
-1.6038694e-05
0.011255408
-1.4949447e-05
0.011250135
-1.3937313e-05
0.011245218
-1.2996314e-05
0.011240632
-1.212102e-05
0.011236354
-1.1306483e-05
0.011232364
-1.0548189e-05
0.011228643
-9.8420059e-06
0.01122517
-9.184147e-06
0.011221931
-8.5711352e-06
0.011218909
-7.9997719e-06
0.011216089
-7.4671102e-06
0.011213457
-6.97043e-06
0.011211002
-6.5072168e-06
0.01120871
-6.0751445e-06
0.011206572
-5.67206e-06
0.011204576
-5.295968e-06
0.011202713
-4.9450199e-06
0.011200974
-4.6175016e-06
0.011199351
-4.3118223e-06
0.011197836
-4.0265035e-06
0.011196422
-3.7601732e-06
0.011195101
-3.5115522e-06
0.011193868
-3.2794488e-06
0.011192718
-3.0627498e-06
0.011191643
-2.8604216e-06
0.01119064
-2.671497e-06
0.011189703
-2.4950826e-06
0.011188829
-2.3303413e-06
0.011188012
-2.1765048e-06
0.01118725
-2.0328439e-06
0.011186537
-1.8986967e-06
0.011185873
-1.7734172e-06
0.011185252
-1.6564338e-06
0.011184672
-1.5471657e-06
0.01118413
-1.4451319e-06
0.011183625
-1.3498007e-06
0.011183152
-1.2607915e-06
0.011182711
-1.1776032e-06
0.0111823
-1.0999732e-06
0.011181915
-1.0273837e-06
0.011181556
-9.5971606e-07
0.01118122
-8.963622e-07
0.011180907
-8.3740907e-07
0.011180614
-7.8205533e-07
0.011180341
-7.3073137e-07
0.011180086
-6.8226457e-07
0.011179847
-6.3767875e-07
0.011179625
-5.951299e-07
0.011179416
-5.5660726e-07
0.011179223
-5.1904162e-07
0.01117904
-4.8618914e-07
0.011178872
-4.5275504e-07
0.011178712
-4.2538746e-07
0.011178566
-3.9516738e-07
0.011178425
-3.7428079e-07
0.0111783
-3.471071e-07
0.011178177
-3.3597208e-07
-3.1052228e-07
0.010339525
-0.00069380426
0.010570754
-0.0010218027
0.010606301
-0.00095449448
0.010547572
-0.00084294334
0.010422317
-0.0007173708
0.010244356
-0.00057972444
0.010039421
-0.00045169204
0.0098287427
-0.00034297801
0.009625135
-0.00025616318
0.0094353013
-0.00018991983
0.0092624277
-0.00014121897
0.0091075332
-0.00010650979
0.008970154
-8.2320218e-05
0.0088489023
-6.5646242e-05
0.0087419716
-5.4127254e-05
0.0086474927
-4.604005e-05
0.008563694
-4.0194296e-05
0.0084890108
-3.5792759e-05
0.0084221096
-3.231876e-05
0.0083618775
-2.9449279e-05
0.0083073954
-2.6988571e-05
0.0082579079
-2.4820295e-05
0.0082127929
-2.2875477e-05
0.0081715353
-2.1112417e-05
0.0081337049
-1.950466e-05
0.0080989388
-1.8034025e-05
0.0080669272
-1.6686737e-05
0.0080374036
-1.5451372e-05
0.0080101361
-1.4317866e-05
0.0079849213
-1.3277069e-05
0.0079615798
-1.2320583e-05
0.0079399519
-1.1440709e-05
0.0079198952
-1.0630424e-05
0.0079012817
-9.8833596e-06
0.0078839962
-9.1937728e-06
0.0078679345
-8.556505e-06
0.0078530022
-7.9669332e-06
0.0078391133
-7.420919e-06
0.0078261893
-6.9147575e-06
0.0078141589
-6.4451274e-06
0.0078029563
-6.0090459e-06
0.0077925214
-5.6038277e-06
0.007782799
-5.2270495e-06
0.0077737382
-4.8765174e-06
0.0077652921
-4.5502401e-06
0.0077574175
-4.2464055e-06
0.0077500744
-3.9633598e-06
0.0077432258
-3.69959e-06
0.0077368375
-3.453709e-06
0.0077308778
-3.2244429e-06
0.0077253173
-3.0106191e-06
0.0077201286
-2.8111567e-06
0.0077152866
-2.6250579e-06
0.0077107676
-2.4513998e-06
0.0077065497
-2.2893282e-06
0.0077026126
-2.1380518e-06
0.0076989374
-1.9968369e-06
0.0076955064
-1.8650017e-06
0.0076923033
-1.7419129e-06
0.0076893128
-1.6269821e-06
0.0076865206
-1.5196616e-06
0.0076839135
-1.4194417e-06
0.0076814792
-1.325849e-06
0.0076792061
-1.2384417e-06
0.0076770835
-1.1568084e-06
0.0076751013
-1.0805651e-06
0.0076732502
-1.0093552e-06
0.0076715216
-9.4284286e-07
0.0076699072
-8.8071766e-07
0.0076683996
-8.2268774e-07
0.0076669915
-7.6848473e-07
0.0076656765
-7.178526e-07
0.0076644484
-6.7056024e-07
0.0076633013
-6.2638166e-07
0.00766223
-5.8511931e-07
0.0076612294
-5.4657036e-07
0.0076602949
-5.1056965e-07
0.007659422
-4.7692945e-07
0.0076586068
-4.4551903e-07
0.0076578453
-4.1615838e-07
0.0076571341
-3.8875688e-07
0.0076564698
-3.631263e-07
0.0076558493
-3.3922947e-07
0.0076552698
-3.1684852e-07
0.0076547284
-2.9602163e-07
0.0076542228
-2.7646514e-07
0.0076537505
-2.583322e-07
0.0076533094
-2.412188e-07
0.0076528972
-2.2546277e-07
0.0076525125
-2.1045471e-07
0.0076521527
-1.9680865e-07
0.0076518173
-1.8361829e-07
0.007651503
-1.7190078e-07
0.0076512105
-1.60318e-07
0.0076509355
-1.5033169e-07
0.0076506808
-1.4042973e-07
0.0076504386
-1.321338e-07
0.0076502166
-1.2506354e-07
0.00765
-1.1940456e-07
-1.2566485e-07
0.0093061957
0.0082843931
0.0073298986
0.0064869553
0.0057695845
0.00518986
0.004738168
0.00439519
0.0041390268
0.003949107
0.003807888
0.0037013782
0.003619058
0.0035534117
0.0034992845
0.0034532444
0.0034130501
0.0033772574
0.0033449386
0.0033154893
0.0032885008
0.0032636805
0.003240805
0.0032196926
0.0032001879
0.0031821539
0.0031654672
0.0031500158
0.0031356979
0.0031224208
0.0031101003
0.0030986596
0.0030880291
0.0030781458
0.003068952
0.0030603955
0.0030524286
0.0030450076
0.0030380929
0.0030316478
0.0030256387
0.0030200349
0.0030148078
0.0030099313
0.0030053811
0.0030011347
0.0029971713
0.0029934717
0.002990018
0.0029867936
0.002983783
0.0029809718
0.0029783467
0.0029758953
0.002973606
0.002971468
0.0029694711
0.0029676061
0.0029658642
0.0029642372
0.0029627176
0.0029612981
0.0029599723
0.0029587338
0.002957577
0.0029564964
0.0029554871
0.0029545443
0.0029536635
0.0029528409
0.0029520724
0.0029513545
0.0029506839
0.0029500576
0.0029494724
0.0029489259
0.0029484153
0.0029479384
0.0029474929
0.0029470767
0.002946688
0.0029463248
0.0029459856
0.0029456687
0.0029453727
0.0029450963
0.0029448379
0.0029445967
0.0029443713
0.0029441608
0.002943964
0.0029437803
0.0029436084
0.0029434481
0.0029432978
0.0029431574
0.0029430253
0.0029429002
0.0029427808
)
;

boundaryField
{
    top
    {
        type            calculated;
        value           uniform 0;
    }
    inlet
    {
        type            calculated;
        value           nonuniform List<scalar> 10(-0.01 -0.01 -0.01 -0.01 -0.01 -0.01 -0.01 -0.01 -0.01 -0.01);
    }
    outlet
    {
        type            calculated;
        value           nonuniform List<scalar> 10(0.0029426552 0.0076498153 0.011178072 0.01352789 0.014701568 0.014701568 0.01352789 0.011178072 0.0076498152 0.0029426551);
    }
    bottom
    {
        type            calculated;
        value           uniform 0;
    }
    back
    {
        type            empty;
        value           nonuniform 0();
    }
    front
    {
        type            empty;
        value           nonuniform 0();
    }
}


// ************************************************************************* //
