/*--------------------------------*- C++ -*----------------------------------*\
| =========                 |                                                 |
| \\      /  F ield         | OpenFOAM: The Open Source CFD Toolbox           |
|  \\    /   O peration     | Version:  v1812                                 |
|   \\  /    A nd           | Web:      www.OpenFOAM.com                      |
|    \\/     M anipulation  |                                                 |
\*---------------------------------------------------------------------------*/
FoamFile
{
    version     2.0;
    format      ascii;
    class       volScalarField;
    location    "8.15";
    object      p;
}
// * * * * * * * * * * * * * * * * * * * * * * * * * * * * * * * * * * * * * //

dimensions      [0 2 -2 0 0 0 0];


internalField   nonuniform List<scalar> 
1000
(
1.6754229
1.554345
1.4583646
1.3947085
1.3461989
1.3037269
1.2661917
1.2340199
1.2066195
1.182782
1.1613877
1.1416238
1.1229467
1.1050071
1.0875918
1.0705776
1.0538967
1.0375126
1.0214044
1.0055585
0.9899635
0.9746084
0.95948171
0.94457147
0.92986545
0.91535145
0.90101746
0.88685195
0.8728439
0.85898291
0.84525922
0.83166368
0.8181878
0.80482363
0.79156379
0.7784014
0.76533008
0.75234386
0.73943718
0.72660487
0.71384208
0.70114428
0.68850726
0.67592706
0.66339998
0.65092257
0.63849162
0.62610411
0.61375724
0.60144838
0.58917508
0.57693502
0.56472604
0.55254614
0.54039343
0.52826613
0.51616263
0.50408138
0.49202099
0.47998013
0.46795758
0.45595218
0.44396287
0.43198864
0.42002856
0.40808175
0.39614742
0.38422483
0.3723133
0.36041216
0.3485208
0.33663863
0.32476507
0.31289957
0.30104158
0.28919063
0.27734625
0.26550802
0.25367551
0.24184832
0.23002602
0.21820819
0.20639439
0.19458422
0.18277732
0.17097335
0.15917204
0.14737314
0.1355764
0.12378158
0.11198842
0.10019668
0.088406107
0.076616503
0.064827713
0.053039635
0.04125218
0.029465279
0.017678851
0.0058927945
1.5582033
1.5032742
1.4423217
1.390754
1.3474839
1.3085156
1.2729294
1.2411567
1.2131958
1.188418
1.1660161
1.1453148
1.1258331
1.1072451
1.0893315
1.0719467
1.0549949
1.0384135
1.0221608
1.0062073
0.99053032
0.97511079
0.95993194
0.94497828
0.93023521
0.91568898
0.90132656
0.88713568
0.87310484
0.85922327
0.84548092
0.83186843
0.8183771
0.80499881
0.79172605
0.77855183
0.76546963
0.75247341
0.73955752
0.72671672
0.71394608
0.70124105
0.68859732
0.67601091
0.66347807
0.65099533
0.63855942
0.6261673
0.61381615
0.60150331
0.58922629
0.57698278
0.56477059
0.55258769
0.54043218
0.52830227
0.51619632
0.50411279
0.49205025
0.48000737
0.46798293
0.45597575
0.44398476
0.43200894
0.42004736
0.40809914
0.39616346
0.3842396
0.37232684
0.36042455
0.34853211
0.33664891
0.32477438
0.31290797
0.30104913
0.28919738
0.27735226
0.26551332
0.25368016
0.24185238
0.23002954
0.21821122
0.206397
0.19458646
0.18277923
0.17097496
0.15917338
0.14737424
0.13557728
0.12378228
0.11198899
0.10019713
0.088406474
0.076616805
0.064827957
0.053039825
0.041252317
0.029465366
0.017678909
0.0058927967
1.497382
1.4712069
1.4328101
1.3916772
1.3525919
1.3160011
1.2817034
1.2499859
1.2211298
1.1950287
1.1712747
1.1493847
1.1289349
1.109594
1.0911138
1.0733128
1.0560609
1.0392654
1.0228593
1.0067942
0.99103382
0.97555014
0.96032028
0.94532478
0.9305465
0.91597
0.90158115
0.88736697
0.87331542
0.85941537
0.84565646
0.83202911
0.81852439
0.80513404
0.79185038
0.77866628
0.76557512
0.75257075
0.73964744
0.72679986
0.71402303
0.70131232
0.68866339
0.6760722
0.66353497
0.65104818
0.63860853
0.62621297
0.61385862
0.60154282
0.58926306
0.57701701
0.56480247
0.55261738
0.54045984
0.52832805
0.51622035
0.50413518
0.49207111
0.48002681
0.46800103
0.4559926
0.44400044
0.43202353
0.42006091
0.40811172
0.39617514
0.3842504
0.37233682
0.36043375
0.34854057
0.33665667
0.32478149
0.31291445
0.30105504
0.28920274
0.27735709
0.26551766
0.25368403
0.2418558
0.23003255
0.21821387
0.20639933
0.1945885
0.18278101
0.17097651
0.15917471
0.14737535
0.1355782
0.12378303
0.11198959
0.10019763
0.088406892
0.076617162
0.064828257
0.053040069
0.041252497
0.029465483
0.017678959
0.0058928059
1.4679735
1.4524754
1.4256055
1.3916816
1.3558806
1.3209293
1.2876273
1.2562743
1.2271436
1.2003521
1.1757646
1.1530724
1.1319206
1.1119918
1.0930336
1.0748539
1.0573081
1.0402871
1.0237085
1.0075105
0.99164656
0.97608082
0.96078487
0.94573519
0.93091174
0.916297
0.90187534
0.8876327
0.87355624
0.85963424
0.84585588
0.83221121
0.81869101
0.80528677
0.79199061
0.77879523
0.76569386
0.75268023
0.7397485
0.72689324
0.7141094
0.70139228
0.68873748
0.6761409
0.66359872
0.65110736
0.63866351
0.62626407
0.61390613
0.60158701
0.58930418
0.57705528
0.56483811
0.55265059
0.54049079
0.5283569
0.51624725
0.50416028
0.49209453
0.48004867
0.46802144
0.45601166
0.44401825
0.43204017
0.42007648
0.40812628
0.39618875
0.38426313
0.37234871
0.36044485
0.34855092
0.33666632
0.32479047
0.31292281
0.3010628
0.28920993
0.27736373
0.26552376
0.25368961
0.24186088
0.23003717
0.21821805
0.2064031
0.19459191
0.18278407
0.17097924
0.15917712
0.14737746
0.13558003
0.12378461
0.11199093
0.10019878
0.088407872
0.076618004
0.064828974
0.053040674
0.041252982
0.029465869
0.017679205
0.0058929812
1.4552419
1.4432886
1.4210542
1.3907666
1.3569055
1.3229099
1.2902123
1.2592067
1.2301094
1.2030975
1.1781705
1.1551209
1.1336394
1.1134217
1.0942181
1.0758359
1.058127
1.0409765
1.0242957
1.0080166
0.99208759
0.97646905
0.96112954
0.94604338
0.93118891
0.91654741
0.90210242
0.88783921
0.87374451
0.85980623
0.84601328
0.83235547
0.81882343
0.80540848
0.79210261
0.77889841
0.76578902
0.75276808
0.73982967
0.7269683
0.71417888
0.70145663
0.68879712
0.67619622
0.66365006
0.65115503
0.6387078
0.62630523
0.6139444
0.60162261
0.58933731
0.57708612
0.56486682
0.55267734
0.54051572
0.52838015
0.51626894
0.50418051
0.49211343
0.48006632
0.46803792
0.45602708
0.44403267
0.43205368
0.42008913
0.40813814
0.39619987
0.38427356
0.3723585
0.36045403
0.34855952
0.33667438
0.32479803
0.31292988
0.3010694
0.28921609
0.27736945
0.26552906
0.25369451
0.24186539
0.2300413
0.21822182
0.20640654
0.19459503
0.18278689
0.17098177
0.15917938
0.14737946
0.13558178
0.12378612
0.11199225
0.10019991
0.088408845
0.076618843
0.064829689
0.053041283
0.041253476
0.029466279
0.017679482
0.0058931945
1.4552419
1.4432886
1.4210542
1.3907666
1.3569055
1.3229099
1.2902123
1.2592067
1.2301094
1.2030975
1.1781705
1.1551209
1.1336394
1.1134217
1.0942181
1.0758359
1.058127
1.0409765
1.0242957
1.0080166
0.99208759
0.97646905
0.96112954
0.94604338
0.93118891
0.91654742
0.90210242
0.88783921
0.87374451
0.85980623
0.84601328
0.83235547
0.81882343
0.80540848
0.79210261
0.77889842
0.76578902
0.75276808
0.73982966
0.7269683
0.71417887
0.70145663
0.68879712
0.67619622
0.66365006
0.65115504
0.6387078
0.62630523
0.6139444
0.60162261
0.5893373
0.57708612
0.56486682
0.55267734
0.54051572
0.52838015
0.51626894
0.50418052
0.49211343
0.48006632
0.46803793
0.45602708
0.44403268
0.43205368
0.42008914
0.40813814
0.39619987
0.38427355
0.37235849
0.36045402
0.34855952
0.33667439
0.32479803
0.31292989
0.30106941
0.28921609
0.27736945
0.26552905
0.25369449
0.24186537
0.23004129
0.21822182
0.20640654
0.19459503
0.18278689
0.17098178
0.15917938
0.14737946
0.13558177
0.12378611
0.11199224
0.1001999
0.088408844
0.076618844
0.064829691
0.053041286
0.041253478
0.02946628
0.017679483
0.0058931947
1.4679735
1.4524754
1.4256055
1.3916816
1.3558806
1.3209293
1.2876273
1.2562743
1.2271436
1.2003521
1.1757646
1.1530724
1.1319206
1.1119918
1.0930336
1.0748539
1.0573081
1.0402871
1.0237085
1.0075105
0.99164656
0.97608083
0.96078487
0.94573519
0.93091175
0.916297
0.90187534
0.88763269
0.87355623
0.85963423
0.84585588
0.83221121
0.81869101
0.80528678
0.79199062
0.77879524
0.76569387
0.75268023
0.73974849
0.72689323
0.7141094
0.70139228
0.68873748
0.6761409
0.66359872
0.65110737
0.63866352
0.62626407
0.61390613
0.60158701
0.58930418
0.57705528
0.56483811
0.55265059
0.54049079
0.52835691
0.51624726
0.50416029
0.49209454
0.48004868
0.46802144
0.45601167
0.44401826
0.43204019
0.42007649
0.40812628
0.39618874
0.38426311
0.3723487
0.36044484
0.34855091
0.33666633
0.32479049
0.31292283
0.30106281
0.28920993
0.27736371
0.26552373
0.25368957
0.24186085
0.23003715
0.21821805
0.20640311
0.19459193
0.18278409
0.17097925
0.15917712
0.14737745
0.13558001
0.12378458
0.11199091
0.10019876
0.088407868
0.076618008
0.064828981
0.053040683
0.041252988
0.029465874
0.017679206
0.005892981
1.497382
1.4712069
1.4328101
1.3916772
1.3525919
1.3160011
1.2817034
1.2499859
1.2211298
1.1950287
1.1712747
1.1493847
1.1289349
1.109594
1.0911138
1.0733128
1.0560609
1.0392653
1.0228593
1.0067942
0.99103382
0.97555015
0.96032029
0.94532479
0.93054651
0.91597
0.90158115
0.88736696
0.87331541
0.85941536
0.84565646
0.83202911
0.8185244
0.80513405
0.79185039
0.77866629
0.76557512
0.75257074
0.73964743
0.72679984
0.71402302
0.70131231
0.68866339
0.67607221
0.66353499
0.65104819
0.63860855
0.62621298
0.61385862
0.60154281
0.58926306
0.577017
0.56480247
0.55261739
0.54045985
0.52832806
0.51622036
0.50413519
0.49207112
0.48002682
0.46800104
0.45599261
0.44400045
0.43202354
0.42006093
0.40811173
0.39617513
0.38425038
0.3723368
0.36043373
0.34854056
0.33665668
0.32478151
0.31291448
0.30105506
0.28920273
0.27735706
0.2655176
0.25368397
0.24185574
0.23003252
0.21821387
0.20639935
0.19458854
0.18278104
0.17097652
0.1591747
0.14737532
0.13557816
0.12378299
0.11198956
0.10019762
0.088406892
0.076617172
0.064828271
0.053040081
0.041252505
0.029465487
0.017678959
0.0058928051
1.5582033
1.5032742
1.4423217
1.390754
1.3474839
1.3085156
1.2729294
1.2411567
1.2131958
1.188418
1.1660161
1.1453148
1.1258331
1.1072451
1.0893315
1.0719467
1.0549949
1.0384135
1.0221608
1.0062073
0.99053032
0.9751108
0.95993196
0.94497829
0.93023522
0.91568898
0.90132655
0.88713566
0.87310482
0.85922326
0.84548092
0.83186844
0.81837711
0.80499883
0.79172607
0.77855184
0.76546963
0.7524734
0.73955751
0.7267167
0.71394607
0.70124104
0.68859732
0.67601092
0.66347809
0.65099534
0.63855943
0.62616731
0.61381615
0.6015033
0.58922628
0.57698277
0.56477059
0.5525877
0.54043219
0.52830228
0.51619633
0.5041128
0.49205026
0.48000738
0.46798294
0.45597577
0.44398478
0.43200896
0.42004737
0.40809913
0.39616344
0.38423957
0.37232682
0.36042454
0.34853211
0.33664894
0.32477442
0.312908
0.30104914
0.28919736
0.27735221
0.26551325
0.25368009
0.24185232
0.23002952
0.21821124
0.20639704
0.19458651
0.18277926
0.17097497
0.15917336
0.14737419
0.13557723
0.12378224
0.11198896
0.10019712
0.088406479
0.076616817
0.064827971
0.053039837
0.041252325
0.02946537
0.01767891
0.0058927971
1.6754229
1.554345
1.4583646
1.3947085
1.3461989
1.3037269
1.2661917
1.2340199
1.2066196
1.182782
1.1613877
1.1416239
1.1229467
1.1050071
1.0875918
1.0705776
1.0538967
1.0375126
1.0214044
1.0055585
0.9899635
0.97460841
0.95948172
0.94457147
0.92986545
0.91535144
0.90101745
0.88685194
0.87284389
0.8589829
0.84525921
0.83166369
0.81818781
0.80482364
0.7915638
0.77840141
0.76533008
0.75234385
0.73943717
0.72660485
0.71384207
0.70114428
0.68850727
0.67592707
0.66339999
0.65092258
0.63849163
0.62610412
0.61375724
0.60144838
0.58917507
0.57693502
0.56472605
0.55254615
0.54039344
0.52826614
0.51616263
0.50408139
0.492021
0.47998015
0.4679576
0.45595221
0.44396289
0.43198865
0.42002856
0.40808174
0.3961474
0.3842248
0.37231327
0.36041215
0.34852082
0.33663866
0.32476511
0.31289958
0.30104158
0.2891906
0.2773462
0.26550796
0.25367546
0.24184829
0.23002602
0.21820821
0.20639442
0.19458425
0.18277733
0.17097334
0.15917202
0.1473731
0.13557636
0.12378155
0.11198841
0.10019667
0.088406099
0.0766165
0.064827718
0.053039646
0.041252195
0.029465293
0.01767886
0.0058927985
)
;

boundaryField
{
    top
    {
        type            zeroGradient;
    }
    inlet
    {
        type            zeroGradient;
    }
    outlet
    {
        type            fixedValue;
        value           uniform 0;
    }
    bottom
    {
        type            zeroGradient;
    }
    back
    {
        type            empty;
    }
    front
    {
        type            empty;
    }
}


// ************************************************************************* //
