/*--------------------------------*- C++ -*----------------------------------*\
| =========                 |                                                 |
| \\      /  F ield         | OpenFOAM: The Open Source CFD Toolbox           |
|  \\    /   O peration     | Version:  v1812                                 |
|   \\  /    A nd           | Web:      www.OpenFOAM.com                      |
|    \\/     M anipulation  |                                                 |
\*---------------------------------------------------------------------------*/
FoamFile
{
    version     2.0;
    format      ascii;
    class       volVectorField;
    location    "0.75";
    object      U;
}
// * * * * * * * * * * * * * * * * * * * * * * * * * * * * * * * * * * * * * //

dimensions      [0 1 -1 0 0 0 0];


internalField   nonuniform List<vector> 
1000
(
(0.91964159 0.035911896 0)
(0.86185089 0.062303463 0)
(0.78455277 0.060407061 0)
(0.7004679 0.049882051 0)
(0.62582838 0.0384287 0)
(0.56720733 0.026054731 0)
(0.52822678 0.014423111 0)
(0.5059525 0.0063909206 0)
(0.49405553 0.0022350205 0)
(0.48794121 0.00040076342 0)
(0.4852119 -0.00035370343 0)
(0.4843738 -0.00057554861 0)
(0.48442177 -0.00051248419 0)
(0.484746 -0.0003637193 0)
(0.48507992 -0.00023454904 0)
(0.4853416 -0.00014220761 0)
(0.48552269 -8.2159838e-05 0)
(0.48563843 -4.5449225e-05 0)
(0.48570821 -2.4111723e-05 0)
(0.48574834 -1.2279944e-05 0)
(0.48577054 -5.9986052e-06 0)
(0.4857824 -2.7953703e-06 0)
(0.48578853 -1.2245291e-06 0)
(0.48579159 -4.8662398e-07 0)
(0.48579306 -1.5888146e-07 0)
(0.48579373 -2.5291431e-08 0)
(0.48579401 2.1130205e-08 0)
(0.48579411 3.1416104e-08 0)
(0.48579414 2.8799685e-08 0)
(0.48579414 2.27546e-08 0)
(0.48579412 1.6192287e-08 0)
(0.48579411 1.1436482e-08 0)
(0.48579409 8.3785738e-09 0)
(0.48579408 6.4050379e-09 0)
(0.48579407 5.140579e-09 0)
(0.48579406 4.2876061e-09 0)
(0.48579406 3.7211564e-09 0)
(0.48579405 3.2915374e-09 0)
(0.48579404 2.9486163e-09 0)
(0.48579404 2.6222624e-09 0)
(0.48579403 2.3457765e-09 0)
(0.48579403 2.075935e-09 0)
(0.48579402 1.8298624e-09 0)
(0.48579402 1.5744005e-09 0)
(0.48579402 1.3612545e-09 0)
(0.48579401 1.1593447e-09 0)
(0.48579401 9.87636e-10 0)
(0.48579401 8.1273097e-10 0)
(0.48579401 6.8296306e-10 0)
(0.48579401 5.6541868e-10 0)
(0.485794 4.7580512e-10 0)
(0.485794 3.7304483e-10 0)
(0.485794 3.1356761e-10 0)
(0.485794 2.5077654e-10 0)
(0.485794 2.1124174e-10 0)
(0.485794 1.5343854e-10 0)
(0.485794 1.3506606e-10 0)
(0.485794 1.1114053e-10 0)
(0.485794 1.0678639e-10 0)
(0.485794 7.7982531e-11 0)
(0.485794 8.3017107e-11 0)
(0.485794 7.9972257e-11 0)
(0.485794 9.1350502e-11 0)
(0.485794 7.5314245e-11 0)
(0.485794 9.7714365e-11 0)
(0.485794 1.1496322e-10 0)
(0.485794 1.515108e-10 0)
(0.485794 1.6573744e-10 0)
(0.485794 2.0660543e-10 0)
(0.485794 2.3318778e-10 0)
(0.485794 2.6044521e-10 0)
(0.485794 2.4477667e-10 0)
(0.485794 2.4925013e-10 0)
(0.485794 1.8815055e-10 0)
(0.48579399 1.9822297e-10 0)
(0.48579399 -9.8004106e-11 0)
(0.48579399 3.3675426e-10 0)
(0.485794 -9.3550247e-10 0)
(0.48579399 2.4730492e-09 0)
(0.48579401 -5.4892982e-09 0)
(0.48579396 1.4920266e-08 0)
(0.48579407 -3.2032005e-08 0)
(0.48579379 7.937219e-08 0)
(0.48579443 -1.6589042e-07 0)
(0.48579297 3.7557142e-07 0)
(0.48579612 -7.5094872e-07 0)
(0.48578939 1.5334098e-06 0)
(0.48580306 -2.862433e-06 0)
(0.48577597 5.2117665e-06 0)
(0.48582706 -8.5784109e-06 0)
(0.48573365 1.3451115e-05 0)
(0.48589509 -1.7242625e-05 0)
(0.48562291 1.9949891e-05 0)
(0.4860522 -7.8479497e-06 0)
(0.48537496 -1.2437621e-05 0)
(0.48635324 7.1314768e-05 0)
(0.48491152 -0.00011890065 0)
(0.48670012 8.42111e-05 0)
(0.48467512 -9.9943227e-05 0)
(0.48649951 -0.00035540327 0)
(1.0024869 0.053716514 0)
(1.0357494 0.10123122 0)
(1.0547266 0.10781458 0)
(1.0615471 0.098904959 0)
(1.0569506 0.086044783 0)
(1.0411662 0.068906596 0)
(1.0231443 0.048533848 0)
(1.0096805 0.030166987 0)
(1.0004738 0.017102589 0)
(0.99376735 0.0089177917 0)
(0.98918711 0.0040769337 0)
(0.98654767 0.001432575 0)
(0.98527109 0.00020019314 0)
(0.98470473 -0.00025048584 0)
(0.98448986 -0.00033420582 0)
(0.98444711 -0.00028612296 0)
(0.98447252 -0.00020841704 0)
(0.98451481 -0.00013817418 0)
(0.98455311 -8.5755974e-05 0)
(0.98458164 -5.0620019e-05 0)
(0.98460085 -2.8699994e-05 0)
(0.98461298 -1.5723727e-05 0)
(0.98462028 -8.3494802e-06 0)
(0.98462452 -4.2989743e-06 0)
(0.98462689 -2.1412188e-06 0)
(0.98462819 -1.025429e-06 0)
(0.98462887 -4.6589369e-07 0)
(0.98462922 -1.9483226e-07 0)
(0.98462939 -6.8891055e-08 0)
(0.98462947 -1.3690746e-08 0)
(0.9846295 7.9753561e-09 0)
(0.98462951 1.5000595e-08 0)
(0.98462951 1.6289922e-08 0)
(0.98462951 1.5533906e-08 0)
(0.9846295 1.4304941e-08 0)
(0.98462949 1.305463e-08 0)
(0.98462948 1.1981849e-08 0)
(0.98462947 1.1015588e-08 0)
(0.98462947 1.01635e-08 0)
(0.98462946 9.3116054e-09 0)
(0.98462945 8.5102082e-09 0)
(0.98462945 7.6954641e-09 0)
(0.98462944 6.928294e-09 0)
(0.98462944 6.1432424e-09 0)
(0.98462943 5.4191531e-09 0)
(0.98462943 4.7135869e-09 0)
(0.98462942 4.0927822e-09 0)
(0.98462942 3.4879024e-09 0)
(0.98462942 2.9749515e-09 0)
(0.98462942 2.4926624e-09 0)
(0.98462941 2.1145948e-09 0)
(0.98462941 1.7414331e-09 0)
(0.98462941 1.4548621e-09 0)
(0.98462941 1.1847022e-09 0)
(0.98462941 9.9156572e-10 0)
(0.98462941 7.972438e-10 0)
(0.98462941 6.6308276e-10 0)
(0.98462941 5.3705452e-10 0)
(0.98462941 4.7578494e-10 0)
(0.98462941 3.9440632e-10 0)
(0.98462941 3.6579072e-10 0)
(0.98462941 3.2916612e-10 0)
(0.9846294 3.5011275e-10 0)
(0.98462941 3.4256181e-10 0)
(0.9846294 3.8794799e-10 0)
(0.98462941 4.2459833e-10 0)
(0.9846294 5.204901e-10 0)
(0.9846294 5.9911806e-10 0)
(0.9846294 7.2933963e-10 0)
(0.9846294 8.4353029e-10 0)
(0.9846294 9.921099e-10 0)
(0.9846294 1.0690832e-09 0)
(0.9846294 1.1919018e-09 0)
(0.9846294 1.1138156e-09 0)
(0.9846294 1.3700523e-09 0)
(0.9846294 5.0988156e-10 0)
(0.98462939 2.2534602e-09 0)
(0.9846294 -2.7063719e-09 0)
(0.98462937 9.6560435e-09 0)
(0.98462946 -2.0246679e-08 0)
(0.98462923 5.3182865e-08 0)
(0.98462977 -1.1611234e-07 0)
(0.98462849 2.7403192e-07 0)
(0.98463142 -5.7496318e-07 0)
(0.98462485 1.2466855e-06 0)
(0.98463912 -2.4433388e-06 0)
(0.98460899 4.7828001e-06 0)
(0.98467027 -8.503359e-06 0)
(0.98454996 1.4492686e-05 0)
(0.98477617 -2.1808941e-05 0)
(0.98436947 2.9561858e-05 0)
(0.98506284 -2.9857294e-05 0)
(0.98394678 1.7411937e-05 0)
(0.98561826 2.7468475e-05 0)
(0.98330154 -9.434645e-05 0)
(0.98617188 0.00016531838 0)
(0.98298869 -0.00018907964 0)
(0.98579407 -1.5782018e-05 0)
(0.98377381 -3.1363665e-06 0)
(0.98473649 -0.00043225722 0)
(1.0022832 0.026508989 0)
(1.0286034 0.062190913 0)
(1.0586812 0.075012925 0)
(1.0946373 0.074752943 0)
(1.1253825 0.069299443 0)
(1.1403966 0.059151838 0)
(1.145943 0.045093509 0)
(1.1498644 0.030948173 0)
(1.1524052 0.019701549 0)
(1.1524588 0.011790745 0)
(1.1511577 0.0065302547 0)
(1.1498798 0.0032528326 0)
(1.1490072 0.0013953304 0)
(1.1484357 0.00045491965 0)
(1.1480637 4.4236548e-05 0)
(1.1478316 -0.00010099767 0)
(1.1477043 -0.00012751037 0)
(1.1476415 -0.00010909049 0)
(1.1476126 -7.9765739e-05 0)
(1.1476004 -5.3276166e-05 0)
(1.147596 -3.3466541e-05 0)
(1.1475949 -2.0076666e-05 0)
(1.1475951 -1.1601549e-05 0)
(1.1475956 -6.4904718e-06 0)
(1.1475961 -3.5248653e-06 0)
(1.1475965 -1.8589889e-06 0)
(1.1475968 -9.4957871e-07 0)
(1.1475969 -4.6629147e-07 0)
(1.147597 -2.1617746e-07 0)
(1.1475971 -9.03374e-08 0)
(1.1475971 -2.8660234e-08 0)
(1.1475971 1.3382666e-10 0)
(1.1475971 1.2651463e-08 0)
(1.1475971 1.7558988e-08 0)
(1.1475971 1.905129e-08 0)
(1.1475971 1.9001429e-08 0)
(1.1475971 1.8321509e-08 0)
(1.1475971 1.7341503e-08 0)
(1.1475971 1.626718e-08 0)
(1.1475971 1.5103365e-08 0)
(1.1475971 1.3924671e-08 0)
(1.1475971 1.2705448e-08 0)
(1.1475971 1.1516108e-08 0)
(1.1475971 1.0321116e-08 0)
(1.1475971 9.1815772e-09 0)
(1.1475971 8.0737611e-09 0)
(1.1475971 7.0603271e-09 0)
(1.1475971 6.1000949e-09 0)
(1.1475971 5.2427577e-09 0)
(1.1475971 4.4488833e-09 0)
(1.1475971 3.7753809e-09 0)
(1.1475971 3.1647367e-09 0)
(1.1475971 2.6525558e-09 0)
(1.1475971 2.1902102e-09 0)
(1.1475971 1.83123e-09 0)
(1.1475971 1.5036474e-09 0)
(1.147597 1.2511469e-09 0)
(1.147597 1.0216561e-09 0)
(1.147597 8.715327e-10 0)
(1.147597 7.4055427e-10 0)
(1.147597 6.691555e-10 0)
(1.147597 6.1255426e-10 0)
(1.147597 6.2649301e-10 0)
(1.147597 6.5186112e-10 0)
(1.147597 7.2826602e-10 0)
(1.147597 8.1287746e-10 0)
(1.147597 9.666884e-10 0)
(1.147597 1.1365482e-09 0)
(1.147597 1.3670148e-09 0)
(1.147597 1.5973554e-09 0)
(1.147597 1.8719257e-09 0)
(1.147597 2.0942173e-09 0)
(1.147597 2.3582709e-09 0)
(1.147597 2.3766971e-09 0)
(1.147597 2.7564996e-09 0)
(1.147597 1.7990426e-09 0)
(1.147597 3.8396401e-09 0)
(1.1475971 -1.8817332e-09 0)
(1.147597 1.1805101e-08 0)
(1.1475972 -2.079514e-08 0)
(1.1475967 5.701083e-08 0)
(1.1475977 -1.1687998e-07 0)
(1.1475954 2.7319195e-07 0)
(1.1476006 -5.4419791e-07 0)
(1.1475892 1.1507125e-06 0)
(1.1476135 -2.1318118e-06 0)
(1.1475634 4.0141936e-06 0)
(1.1476631 -6.6549878e-06 0)
(1.1474723 1.0697339e-05 0)
(1.1478219 -1.4517195e-05 0)
(1.1472114 1.751251e-05 0)
(1.1482204 -1.34571e-05 0)
(1.1466554 -6.7489069e-07 0)
(1.1489025 2.9203746e-05 0)
(1.1459417 -7.36729e-05 0)
(1.14938 7.6511447e-05 0)
(1.145854 -0.000112689 0)
(1.1485947 -9.6944896e-05 0)
(1.1468776 -6.2350781e-05 0)
(1.1473865 -0.00032376396 0)
(1.0016922 0.011552099 0)
(1.0169929 0.030208228 0)
(1.0385326 0.039879854 0)
(1.0752867 0.042276158 0)
(1.113656 0.040837454 0)
(1.1384252 0.036399872 0)
(1.1538973 0.029362719 0)
(1.1672323 0.02150731 0)
(1.1776968 0.014624474 0)
(1.1835096 0.0093637023 0)
(1.1859593 0.00561642 0)
(1.1869822 0.0031147933 0)
(1.1874472 0.0015764877 0)
(1.1875873 0.00071506219 0)
(1.1875478 0.00026842276 0)
(1.1874519 6.0731937e-05 0)
(1.187363 -2.0904884e-05 0)
(1.1872976 -4.3076507e-05 0)
(1.1872539 -4.1019302e-05 0)
(1.1872262 -3.1562292e-05 0)
(1.1872094 -2.1785951e-05 0)
(1.1871996 -1.4026413e-05 0)
(1.1871942 -8.5826169e-06 0)
(1.1871912 -5.0435868e-06 0)
(1.1871897 -2.8638129e-06 0)
(1.1871889 -1.5754808e-06 0)
(1.1871885 -8.3899313e-07 0)
(1.1871883 -4.2993663e-07 0)
(1.1871882 -2.0859025e-07 0)
(1.1871882 -9.1837002e-08 0)
(1.1871882 -3.1726973e-08 0)
(1.1871882 -1.7880889e-09 0)
(1.1871882 1.2416803e-08 0)
(1.1871882 1.8667618e-08 0)
(1.1871882 2.0998287e-08 0)
(1.1871882 2.1390321e-08 0)
(1.1871882 2.0891467e-08 0)
(1.1871882 1.9921856e-08 0)
(1.1871882 1.8755702e-08 0)
(1.1871882 1.7464923e-08 0)
(1.1871882 1.6154336e-08 0)
(1.1871882 1.4792796e-08 0)
(1.1871882 1.345068e-08 0)
(1.1871882 1.2108249e-08 0)
(1.1871882 1.0837968e-08 0)
(1.1871882 9.5989583e-09 0)
(1.1871882 8.4389606e-09 0)
(1.1871882 7.3475031e-09 0)
(1.1871882 6.3614551e-09 0)
(1.1871882 5.4601022e-09 0)
(1.1871882 4.6441817e-09 0)
(1.1871882 3.9229762e-09 0)
(1.1871882 3.3043195e-09 0)
(1.1871882 2.7652214e-09 0)
(1.1871882 2.3100953e-09 0)
(1.1871882 1.9150907e-09 0)
(1.1871882 1.6072696e-09 0)
(1.1871882 1.350783e-09 0)
(1.1871882 1.1465464e-09 0)
(1.1871882 9.8338944e-10 0)
(1.1871882 8.9117915e-10 0)
(1.1871882 8.2608021e-10 0)
(1.1871882 8.1419558e-10 0)
(1.1871882 8.4115853e-10 0)
(1.1871882 9.3816994e-10 0)
(1.1871882 1.0611904e-09 0)
(1.1871882 1.2449728e-09 0)
(1.1871882 1.4705284e-09 0)
(1.1871882 1.7706163e-09 0)
(1.1871882 2.0893731e-09 0)
(1.1871882 2.4368078e-09 0)
(1.1871882 2.760943e-09 0)
(1.1871882 3.1056525e-09 0)
(1.1871882 3.2575362e-09 0)
(1.1871882 3.5449557e-09 0)
(1.1871882 2.9301901e-09 0)
(1.1871882 4.160784e-09 0)
(1.1871882 4.758476e-10 0)
(1.1871881 8.8180155e-09 0)
(1.1871883 -1.0914029e-08 0)
(1.1871878 3.5252221e-08 0)
(1.187189 -6.4947975e-08 0)
(1.1871862 1.5723867e-07 0)
(1.1871925 -2.9219089e-07 0)
(1.1871788 6.2339504e-07 0)
(1.1872077 -1.0824333e-06 0)
(1.187149 2.0177037e-06 0)
(1.1872643 -3.1108965e-06 0)
(1.1870466 4.8430732e-06 0)
(1.1874401 -5.8681605e-06 0)
(1.1867625 6.317998e-06 0)
(1.1878657 -3.1311968e-06 0)
(1.1861776 -5.7947132e-06 0)
(1.1885631 1.4377596e-05 0)
(1.1854581 -3.9718095e-05 0)
(1.188995 1.6319745e-05 0)
(1.1854073 -5.6668099e-05 0)
(1.1881167 -8.013444e-05 0)
(1.1864575 -5.5278208e-05 0)
(1.1868622 -0.00016963839 0)
(1.0015991 0.003372377 0)
(1.012784 0.0091175948 0)
(1.0290088 0.012612884 0)
(1.0628484 0.013811494 0)
(1.1012798 0.013596292 0)
(1.1277871 0.012371551 0)
(1.1459683 0.01026006 0)
(1.162676 0.0077415472 0)
(1.1765837 0.0054084354 0)
(1.1853062 0.003553213 0)
(1.1899116 0.0021946765 0)
(1.1924191 0.001263416 0)
(1.1938507 0.00067276282 0)
(1.1945766 0.00032816223 0)
(1.1948641 0.00014157767 0)
(1.1949379 4.82487e-05 0)
(1.1949303 6.8659121e-06 0)
(1.1948991 -7.9855221e-06 0)
(1.1948665 -1.1057291e-05 0)
(1.1948402 -9.6639957e-06 0)
(1.1948214 -7.1401356e-06 0)
(1.1948092 -4.8035154e-06 0)
(1.1948016 -3.0339252e-06 0)
(1.1947971 -1.826903e-06 0)
(1.1947945 -1.0572172e-06 0)
(1.1947931 -5.8950929e-07 0)
(1.1947923 -3.1552713e-07 0)
(1.1947919 -1.5956872e-07 0)
(1.1947917 -7.2980537e-08 0)
(1.1947916 -2.5977512e-08 0)
(1.1947916 -1.0877337e-09 0)
(1.1947916 1.163283e-08 0)
(1.1947915 1.7797652e-08 0)
(1.1947915 2.0390313e-08 0)
(1.1947915 2.1026151e-08 0)
(1.1947915 2.071282e-08 0)
(1.1947916 1.9878096e-08 0)
(1.1947916 1.8803976e-08 0)
(1.1947916 1.7567036e-08 0)
(1.1947916 1.6325698e-08 0)
(1.1947916 1.5071029e-08 0)
(1.1947916 1.382751e-08 0)
(1.1947916 1.2561551e-08 0)
(1.1947916 1.1366969e-08 0)
(1.1947916 1.0212013e-08 0)
(1.1947916 9.1168176e-09 0)
(1.1947916 8.0352423e-09 0)
(1.1947916 7.0611483e-09 0)
(1.1947916 6.1548175e-09 0)
(1.1947916 5.3406293e-09 0)
(1.1947916 4.541518e-09 0)
(1.1947916 3.8708776e-09 0)
(1.1947916 3.2713908e-09 0)
(1.1947916 2.779865e-09 0)
(1.1947916 2.2954974e-09 0)
(1.1947916 1.9384563e-09 0)
(1.1947916 1.629624e-09 0)
(1.1947916 1.4020402e-09 0)
(1.1947916 1.1640516e-09 0)
(1.1947916 1.0310326e-09 0)
(1.1947916 9.3098367e-10 0)
(1.1947916 8.950822e-10 0)
(1.1947916 8.4196838e-10 0)
(1.1947916 8.9215091e-10 0)
(1.1947916 9.9167016e-10 0)
(1.1947916 1.1632498e-09 0)
(1.1947916 1.3431985e-09 0)
(1.1947916 1.6237485e-09 0)
(1.1947916 1.9414624e-09 0)
(1.1947916 2.3043896e-09 0)
(1.1947916 2.646482e-09 0)
(1.1947916 3.0094691e-09 0)
(1.1947916 3.3676607e-09 0)
(1.1947916 3.5983553e-09 0)
(1.1947916 3.7306458e-09 0)
(1.1947916 3.5431194e-09 0)
(1.1947916 3.7656597e-09 0)
(1.1947916 2.4729773e-09 0)
(1.1947915 4.8737997e-09 0)
(1.1947917 -1.4629127e-09 0)
(1.1947912 1.2917116e-08 0)
(1.1947925 -1.7410607e-08 0)
(1.1947895 5.1146202e-08 0)
(1.1947962 -8.045658e-08 0)
(1.1947818 1.9238641e-07 0)
(1.194812 -2.9592155e-07 0)
(1.1947508 5.8217564e-07 0)
(1.1948704 -8.250782e-07 0)
(1.1946458 1.2865758e-06 0)
(1.1950497 -1.4101036e-06 0)
(1.1943575 1.3772282e-06 0)
(1.1954786 -3.4277255e-07 0)
(1.1937683 -2.5090194e-06 0)
(1.1961739 3.5249094e-06 0)
(1.1930454 -1.2376115e-05 0)
(1.1965984 5.7915257e-07 0)
(1.1929869 -1.6966486e-05 0)
(1.1957082 -2.7659573e-05 0)
(1.1940386 -2.0189744e-05 0)
(1.1944281 -5.1718284e-05 0)
(1.0015991 -0.0033723896 0)
(1.012784 -0.0091176305 0)
(1.0290088 -0.01261289 0)
(1.0628484 -0.013811444 0)
(1.1012798 -0.013596228 0)
(1.1277872 -0.012371531 0)
(1.1459683 -0.010260098 0)
(1.1626761 -0.0077416187 0)
(1.1765837 -0.0054085077 0)
(1.1853062 -0.0035532754 0)
(1.1899116 -0.0021947452 0)
(1.1924191 -0.0012635161 0)
(1.1938507 -0.00067290893 0)
(1.1945766 -0.00032835103 0)
(1.194864 -0.0001417829 0)
(1.1949378 -4.8444073e-05 0)
(1.1949303 -7.0203539e-06 0)
(1.1948991 7.8865399e-06 0)
(1.1948664 1.1012991e-05 0)
(1.1948401 9.663267e-06 0)
(1.1948214 7.1673452e-06 0)
(1.1948091 4.8444197e-06 0)
(1.1948015 3.0776187e-06 0)
(1.194797 1.8675562e-06 0)
(1.1947945 1.093389e-06 0)
(1.194793 6.2244262e-07 0)
(1.1947923 3.4735144e-07 0)
(1.1947919 1.9242497e-07 0)
(1.1947917 1.08097e-07 0)
(1.1947916 6.371623e-08 0)
(1.1947915 4.0938015e-08 0)
(1.1947915 2.9562926e-08 0)
(1.1947915 2.3781183e-08 0)
(1.1947915 2.0568022e-08 0)
(1.1947915 1.8462724e-08 0)
(1.1947915 1.6905667e-08 0)
(1.1947915 1.5540661e-08 0)
(1.1947915 1.4276862e-08 0)
(1.1947915 1.3077007e-08 0)
(1.1947915 1.2022889e-08 0)
(1.1947915 1.1040296e-08 0)
(1.1947916 1.010224e-08 0)
(1.1947916 9.1893374e-09 0)
(1.1947916 8.3739044e-09 0)
(1.1947916 7.5912953e-09 0)
(1.1947916 6.8142112e-09 0)
(1.1947916 6.0564225e-09 0)
(1.1947916 5.3771928e-09 0)
(1.1947916 4.7534105e-09 0)
(1.1947916 4.1268748e-09 0)
(1.1947916 3.5518116e-09 0)
(1.1947916 3.0599026e-09 0)
(1.1947916 2.6457562e-09 0)
(1.1947916 2.2349959e-09 0)
(1.1947916 1.8756028e-09 0)
(1.1947916 1.5958494e-09 0)
(1.1947916 1.3821298e-09 0)
(1.1947916 1.1583868e-09 0)
(1.1947916 9.8179601e-10 0)
(1.1947916 8.7931921e-10 0)
(1.1947916 8.2896223e-10 0)
(1.1947916 7.8153505e-10 0)
(1.1947916 7.6525238e-10 0)
(1.1947916 8.2917598e-10 0)
(1.1947916 9.4524122e-10 0)
(1.1947916 1.08408e-09 0)
(1.1947916 1.2622894e-09 0)
(1.1947916 1.5443492e-09 0)
(1.1947916 1.8750951e-09 0)
(1.1947916 2.1998149e-09 0)
(1.1947916 2.5342022e-09 0)
(1.1947916 2.8798721e-09 0)
(1.1947916 3.2192489e-09 0)
(1.1947916 3.4137531e-09 0)
(1.1947916 3.4084022e-09 0)
(1.1947916 3.5690694e-09 0)
(1.1947916 2.8646998e-09 0)
(1.1947916 3.8050941e-09 0)
(1.1947915 7.008736e-10 0)
(1.1947918 6.5970368e-09 0)
(1.1947912 -7.6327049e-09 0)
(1.1947925 2.3599022e-08 0)
(1.1947895 -4.1609357e-08 0)
(1.1947962 9.6553244e-08 0)
(1.1947818 -1.6761568e-07 0)
(1.194812 3.2855537e-07 0)
(1.1947508 -5.4862422e-07 0)
(1.1948704 8.501028e-07 0)
(1.1946459 -1.2765998e-06 0)
(1.1950497 1.406251e-06 0)
(1.1943575 -1.3871518e-06 0)
(1.1954786 3.3587288e-07 0)
(1.1937683 2.5084704e-06 0)
(1.1961739 -3.5208046e-06 0)
(1.1930454 1.2381195e-05 0)
(1.1965984 -5.7113404e-07 0)
(1.1929869 1.6971125e-05 0)
(1.1957082 2.7662596e-05 0)
(1.1940386 2.0185843e-05 0)
(1.1944281 5.1698417e-05 0)
(1.0016922 -0.011552099 0)
(1.0169929 -0.030208245 0)
(1.0385326 -0.03987987 0)
(1.0752867 -0.042276163 0)
(1.1136561 -0.040837473 0)
(1.1384252 -0.036399923 0)
(1.1538974 -0.029362785 0)
(1.1672324 -0.021507354 0)
(1.1776969 -0.014624479 0)
(1.1835097 -0.0093636874 0)
(1.1859593 -0.0056164229 0)
(1.1869821 -0.003114851 0)
(1.1874471 -0.0015766138 0)
(1.1875872 -0.00071524612 0)
(1.1875477 -0.00026863552 0)
(1.1874518 -6.0927814e-05 0)
(1.1873628 2.0757165e-05 0)
(1.1872974 4.2987829e-05 0)
(1.1872537 4.0987402e-05 0)
(1.187226 3.1574071e-05 0)
(1.1872092 2.1823129e-05 0)
(1.1871994 1.4072696e-05 0)
(1.187194 8.6271754e-06 0)
(1.187191 5.0812994e-06 0)
(1.1871895 2.8944664e-06 0)
(1.1871887 1.6013881e-06 0)
(1.1871883 8.6335677e-07 0)
(1.1871882 4.5530957e-07 0)
(1.1871881 2.3659807e-07 0)
(1.1871881 1.2281104e-07 0)
(1.1871881 6.5338443e-08 0)
(1.1871881 3.7040987e-08 0)
(1.1871881 2.3312394e-08 0)
(1.1871881 1.6451374e-08 0)
(1.1871881 1.2821928e-08 0)
(1.1871881 1.059204e-08 0)
(1.1871881 9.0399934e-09 0)
(1.1871881 7.7520682e-09 0)
(1.1871881 6.7566356e-09 0)
(1.1871881 5.9589669e-09 0)
(1.1871881 5.3348426e-09 0)
(1.1871881 4.779864e-09 0)
(1.1871881 4.3580574e-09 0)
(1.1871881 4.015559e-09 0)
(1.1871881 3.7210226e-09 0)
(1.1871882 3.3827182e-09 0)
(1.1871882 3.0927076e-09 0)
(1.1871882 2.823162e-09 0)
(1.1871882 2.569272e-09 0)
(1.1871882 2.254932e-09 0)
(1.1871882 2.0104956e-09 0)
(1.1871882 1.7833454e-09 0)
(1.1871882 1.5913204e-09 0)
(1.1871882 1.3359133e-09 0)
(1.1871882 1.1607459e-09 0)
(1.1871882 1.0088399e-09 0)
(1.1871882 8.9973442e-10 0)
(1.1871882 7.4711814e-10 0)
(1.1871882 6.722984e-10 0)
(1.1871882 6.2079155e-10 0)
(1.1871882 6.2348406e-10 0)
(1.1871882 5.7450818e-10 0)
(1.1871882 6.1772709e-10 0)
(1.1871882 6.8047873e-10 0)
(1.1871882 7.9861612e-10 0)
(1.1871882 8.8609692e-10 0)
(1.1871882 1.0518393e-09 0)
(1.1871882 1.2565584e-09 0)
(1.1871882 1.5165951e-09 0)
(1.1871882 1.7500333e-09 0)
(1.1871882 2.0134588e-09 0)
(1.1871882 2.3264396e-09 0)
(1.1871882 2.5561e-09 0)
(1.1871882 2.7121608e-09 0)
(1.1871882 2.608988e-09 0)
(1.1871882 3.0315562e-09 0)
(1.1871882 1.5679636e-09 0)
(1.1871882 4.7179878e-09 0)
(1.1871881 -4.0184345e-09 0)
(1.1871883 1.5502713e-08 0)
(1.1871878 -3.0550004e-08 0)
(1.187189 7.0840638e-08 0)
(1.1871862 -1.4822195e-07 0)
(1.1871925 3.0681934e-07 0)
(1.1871788 -6.0121436e-07 0)
(1.1872077 1.1103557e-06 0)
(1.187149 -1.9900008e-06 0)
(1.1872643 3.1294784e-06 0)
(1.1870466 -4.8389082e-06 0)
(1.1874402 5.8593863e-06 0)
(1.1867625 -6.3307455e-06 0)
(1.1878657 3.1233751e-06 0)
(1.1861776 5.7949612e-06 0)
(1.1885632 -1.4370399e-05 0)
(1.1854581 3.9727747e-05 0)
(1.188995 -1.63085e-05 0)
(1.1854074 5.6674499e-05 0)
(1.1881167 8.0137118e-05 0)
(1.1864575 5.526895e-05 0)
(1.1868622 0.00016961465 0)
(1.0022832 -0.026508979 0)
(1.0286034 -0.062190917 0)
(1.0586812 -0.075012927 0)
(1.0946373 -0.074752946 0)
(1.1253824 -0.069299486 0)
(1.1403966 -0.059151933 0)
(1.145943 -0.045093614 0)
(1.1498644 -0.030948231 0)
(1.1524052 -0.019701537 0)
(1.1524588 -0.011790689 0)
(1.1511577 -0.0065302075 0)
(1.1498798 -0.0032528409 0)
(1.1490072 -0.0013954157 0)
(1.1484357 -0.00045506488 0)
(1.1480635 -4.4407586e-05 0)
(1.1478314 0.0001008429 0)
(1.147704 0.00012739439 0)
(1.1476412 0.00010902698 0)
(1.1476123 7.9752047e-05 0)
(1.1476001 5.3298572e-05 0)
(1.1475957 3.3508087e-05 0)
(1.1475946 2.0121873e-05 0)
(1.1475948 1.1640859e-05 0)
(1.1475954 6.5202364e-06 0)
(1.1475959 3.5457278e-06 0)
(1.1475963 1.8739979e-06 0)
(1.1475965 9.6242056e-07 0)
(1.1475967 4.7986231e-07 0)
(1.1475968 2.3223201e-07 0)
(1.1475969 1.0943009e-07 0)
(1.1475969 5.058391e-08 0)
(1.1475969 2.3573348e-08 0)
(1.147597 1.1584515e-08 0)
(1.147597 6.3071072e-09 0)
(1.147597 3.8669829e-09 0)
(1.147597 2.5120524e-09 0)
(1.147597 1.5543531e-09 0)
(1.147597 8.2698387e-10 0)
(1.147597 2.9603092e-10 0)
(1.147597 -5.3392006e-11 0)
(1.147597 -2.9019017e-10 0)
(1.147597 -3.7774977e-10 0)
(1.147597 -3.4808068e-10 0)
(1.147597 -2.3886511e-10 0)
(1.147597 -1.3758826e-10 0)
(1.147597 -1.1185212e-11 0)
(1.147597 1.1608676e-10 0)
(1.147597 2.4456445e-10 0)
(1.147597 2.9952635e-10 0)
(1.147597 3.5466692e-10 0)
(1.147597 3.9019052e-10 0)
(1.147597 4.280217e-10 0)
(1.147597 3.9693508e-10 0)
(1.147597 3.7769496e-10 0)
(1.147597 3.5555797e-10 0)
(1.147597 3.5459025e-10 0)
(1.147597 3.0664462e-10 0)
(1.147597 2.8779368e-10 0)
(1.147597 2.7741133e-10 0)
(1.147597 3.0524215e-10 0)
(1.147597 2.928753e-10 0)
(1.147597 3.170223e-10 0)
(1.147597 3.6479641e-10 0)
(1.147597 4.5154203e-10 0)
(1.1475971 5.038251e-10 0)
(1.147597 5.9648433e-10 0)
(1.1475971 7.0701738e-10 0)
(1.147597 8.5541915e-10 0)
(1.1475971 9.6483863e-10 0)
(1.147597 1.1288617e-09 0)
(1.1475971 1.2543305e-09 0)
(1.1475971 1.484359e-09 0)
(1.1475971 1.5261693e-09 0)
(1.1475971 1.7260422e-09 0)
(1.1475971 1.4968554e-09 0)
(1.1475971 2.2888783e-09 0)
(1.1475971 1.5289049e-10 0)
(1.1475971 5.4708497e-09 0)
(1.147597 -8.3533857e-09 0)
(1.1475972 2.4347873e-08 0)
(1.1475968 -5.3222141e-08 0)
(1.1475978 1.218984e-07 0)
(1.1475955 -2.6587606e-07 0)
(1.1476007 5.5531811e-07 0)
(1.1475893 -1.134722e-06 0)
(1.1476136 2.1503965e-06 0)
(1.1475635 -3.9968185e-06 0)
(1.1476631 6.665334e-06 0)
(1.1474724 -1.0698573e-05 0)
(1.147822 1.4506107e-05 0)
(1.1472115 -1.7525517e-05 0)
(1.1482204 1.3449379e-05 0)
(1.1466555 6.7521132e-07 0)
(1.1489025 -2.9196435e-05 0)
(1.1459417 7.368235e-05 0)
(1.14938 -7.650241e-05 0)
(1.1458541 0.00011269352 0)
(1.1485948 9.6945646e-05 0)
(1.1468777 6.2339202e-05 0)
(1.1473866 0.00032374109 0)
(1.0024869 -0.053716524 0)
(1.0357494 -0.10123124 0)
(1.0547266 -0.10781455 0)
(1.061547 -0.09890487 0)
(1.0569505 -0.086044699 0)
(1.0411661 -0.068906585 0)
(1.0231443 -0.048533918 0)
(1.0096805 -0.030167085 0)
(1.0004738 -0.017102659 0)
(0.99376741 -0.0089178076 0)
(0.98918717 -0.0040769122 0)
(0.98654771 -0.001432549 0)
(0.98527108 -0.00020019529 0)
(0.98470465 0.000250449 0)
(0.98448971 0.00033414818 0)
(0.98444689 0.00028605521 0)
(0.98447224 0.00020835994 0)
(0.9845145 0.00013814163 0)
(0.9845528 8.5749253e-05 0)
(0.98458133 5.0633095e-05 0)
(0.98460056 2.8724297e-05 0)
(0.9846127 1.5750523e-05 0)
(0.98462003 8.3727732e-06 0)
(0.98462428 4.3161465e-06 0)
(0.98462667 2.1522662e-06 0)
(0.98462797 1.0321453e-06 0)
(0.98462867 4.7054812e-07 0)
(0.98462902 1.9934265e-07 0)
(0.98462921 7.4415027e-08 0)
(0.9846293 2.0749565e-08 0)
(0.98462934 4.6946221e-10 0)
(0.98462936 -5.616479e-09 0)
(0.98462938 -6.3709824e-09 0)
(0.98462938 -5.5149608e-09 0)
(0.98462939 -4.639481e-09 0)
(0.98462939 -4.0637263e-09 0)
(0.98462939 -3.8106874e-09 0)
(0.98462939 -3.6273629e-09 0)
(0.9846294 -3.5503581e-09 0)
(0.9846294 -3.4264568e-09 0)
(0.9846294 -3.275343e-09 0)
(0.9846294 -2.992161e-09 0)
(0.9846294 -2.7019007e-09 0)
(0.9846294 -2.386936e-09 0)
(0.9846294 -2.0829282e-09 0)
(0.9846294 -1.7237534e-09 0)
(0.9846294 -1.4302279e-09 0)
(0.9846294 -1.1657885e-09 0)
(0.9846294 -9.5919932e-10 0)
(0.9846294 -7.2179435e-10 0)
(0.9846294 -5.6477406e-10 0)
(0.9846294 -4.3223348e-10 0)
(0.98462941 -3.5140806e-10 0)
(0.9846294 -2.2379745e-10 0)
(0.98462941 -1.6629825e-10 0)
(0.9846294 -1.1735628e-10 0)
(0.98462941 -1.0194807e-10 0)
(0.9846294 -2.7915413e-11 0)
(0.98462941 -6.1238128e-12 0)
(0.9846294 2.5587122e-11 0)
(0.98462941 2.413699e-11 0)
(0.98462941 9.783955e-11 0)
(0.98462941 1.1762994e-10 0)
(0.98462941 1.6028458e-10 0)
(0.98462941 1.6341871e-10 0)
(0.98462941 2.3685458e-10 0)
(0.98462941 2.6048427e-10 0)
(0.98462941 2.9955299e-10 0)
(0.98462941 3.0412829e-10 0)
(0.98462941 3.5329386e-10 0)
(0.98462941 3.7330008e-10 0)
(0.98462941 4.0393592e-10 0)
(0.98462941 3.6574646e-10 0)
(0.98462941 6.0308078e-10 0)
(0.98462941 4.5127391e-10 0)
(0.98462941 1.3839429e-09 0)
(0.98462941 -3.2916394e-10 0)
(0.98462942 4.6755839e-09 0)
(0.98462939 -7.5747941e-09 0)
(0.98462948 2.2576115e-08 0)
(0.98462926 -5.0427805e-08 0)
(0.98462979 1.1947864e-07 0)
(0.98462852 -2.7002834e-07 0)
(0.98463145 5.7914913e-07 0)
(0.9846249 -1.2427257e-06 0)
(0.98463918 2.4466193e-06 0)
(0.98460905 -4.779966e-06 0)
(0.98467033 8.5061415e-06 0)
(0.98455002 -1.4490511e-05 0)
(0.98477623 2.1811084e-05 0)
(0.98436953 -2.9560458e-05 0)
(0.98506289 2.9856602e-05 0)
(0.98394682 -1.7413442e-05 0)
(0.98561831 -2.7470016e-05 0)
(0.9833016 9.434528e-05 0)
(0.98617195 -0.00016531671 0)
(0.98298876 0.00018908223 0)
(0.98579414 1.5784572e-05 0)
(0.98377386 3.1326912e-06 0)
(0.98473653 0.00043224445 0)
(0.91964158 -0.035911913 0)
(0.86185086 -0.062303478 0)
(0.78455277 -0.060407018 0)
(0.70046798 -0.04988197 0)
(0.62582852 -0.038428655 0)
(0.56720747 -0.026054764 0)
(0.52822686 -0.014423203 0)
(0.50595249 -0.0063910153 0)
(0.49405544 -0.002235071 0)
(0.4879411 -0.00040075821 0)
(0.48521181 0.00035374558 0)
(0.48437375 0.00057559921 0)
(0.48442175 0.00051251729 0)
(0.48474599 0.00036372636 0)
(0.48507988 0.00023453538 0)
(0.48534153 0.00014218551 0)
(0.48552257 8.2140449e-05 0)
(0.48563829 4.5438444e-05 0)
(0.48570805 2.4110075e-05 0)
(0.48574818 1.2285102e-05 0)
(0.4857704 6.007209e-06 0)
(0.48578227 2.8042211e-06 0)
(0.48578842 1.2317883e-06 0)
(0.48579149 4.915981e-07 0)
(0.48579297 1.6160668e-07 0)
(0.48579365 2.6395368e-08 0)
(0.48579393 -2.0836078e-08 0)
(0.48579404 -3.1207019e-08 0)
(0.48579407 -2.8261543e-08 0)
(0.48579407 -2.1946018e-08 0)
(0.48579406 -1.5372205e-08 0)
(0.48579405 -1.0275827e-08 0)
(0.48579404 -6.8214577e-09 0)
(0.48579403 -4.679919e-09 0)
(0.48579403 -3.5195565e-09 0)
(0.48579403 -2.8563963e-09 0)
(0.48579402 -2.4620404e-09 0)
(0.48579402 -2.1960562e-09 0)
(0.48579402 -2.0440081e-09 0)
(0.48579402 -1.8700479e-09 0)
(0.48579401 -1.6793166e-09 0)
(0.48579401 -1.4773082e-09 0)
(0.48579401 -1.3270834e-09 0)
(0.48579401 -1.1530225e-09 0)
(0.48579401 -9.6870643e-10 0)
(0.485794 -7.9733733e-10 0)
(0.485794 -6.9460541e-10 0)
(0.485794 -5.7655405e-10 0)
(0.485794 -4.6024194e-10 0)
(0.485794 -3.5173991e-10 0)
(0.485794 -3.1181552e-10 0)
(0.485794 -2.5450316e-10 0)
(0.485794 -1.9171732e-10 0)
(0.485794 -1.3292833e-10 0)
(0.485794 -1.3540459e-10 0)
(0.485794 -1.094063e-10 0)
(0.485794 -7.2659971e-11 0)
(0.485794 -3.4727495e-11 0)
(0.485794 -5.6220753e-11 0)
(0.485794 -3.6192122e-11 0)
(0.485794 -5.9526649e-12 0)
(0.485794 2.355046e-11 0)
(0.485794 -5.2986802e-12 0)
(0.485794 1.1394555e-12 0)
(0.485794 1.8751145e-11 0)
(0.485794 2.7856315e-11 0)
(0.485794 -2.3382312e-11 0)
(0.485794 -5.2649271e-11 0)
(0.485794 -7.2427625e-11 0)
(0.485794 -9.1793425e-11 0)
(0.485794 -1.3324087e-10 0)
(0.485794 -1.7517182e-10 0)
(0.485794 -1.0432559e-10 0)
(0.485794 7.9151232e-11 0)
(0.485794 1.7176729e-10 0)
(0.485794 6.173821e-10 0)
(0.485794 3.4064352e-10 0)
(0.48579401 1.8462223e-09 0)
(0.485794 -1.4165782e-09 0)
(0.48579402 6.6724423e-09 0)
(0.48579397 -1.3722519e-08 0)
(0.48579409 3.2763146e-08 0)
(0.48579381 -8.0010168e-08 0)
(0.48579445 1.6301946e-07 0)
(0.48579299 -3.799481e-07 0)
(0.48579613 7.4734035e-07 0)
(0.48578941 -1.5330952e-06 0)
(0.48580307 2.869227e-06 0)
(0.485776 -5.1998852e-06 0)
(0.48582709 8.5890814e-06 0)
(0.48573368 -1.3449016e-05 0)
(0.48589512 1.7235739e-05 0)
(0.48562293 -1.9959727e-05 0)
(0.48605221 7.8411108e-06 0)
(0.48537497 1.2437556e-05 0)
(0.48635326 -7.130942e-05 0)
(0.48491154 0.00011890589 0)
(0.48670015 -8.4208225e-05 0)
(0.48467514 9.9941191e-05 0)
(0.48649953 0.00035539736 0)
)
;

boundaryField
{
    top
    {
        type            fixedValue;
        value           uniform (0 0 0);
    }
    inlet
    {
        type            fixedValue;
        value           uniform (1 0 0);
    }
    outlet
    {
        type            zeroGradient;
    }
    bottom
    {
        type            fixedValue;
        value           uniform (0 0 0);
    }
    back
    {
        type            empty;
    }
    front
    {
        type            empty;
    }
}


// ************************************************************************* //
