/*--------------------------------*- C++ -*----------------------------------*\
| =========                 |                                                 |
| \\      /  F ield         | OpenFOAM: The Open Source CFD Toolbox           |
|  \\    /   O peration     | Version:  v1812                                 |
|   \\  /    A nd           | Web:      www.OpenFOAM.com                      |
|    \\/     M anipulation  |                                                 |
\*---------------------------------------------------------------------------*/
FoamFile
{
    version     2.0;
    format      ascii;
    class       surfaceScalarField;
    location    "15";
    object      phi;
}
// * * * * * * * * * * * * * * * * * * * * * * * * * * * * * * * * * * * * * //

dimensions      [0 3 -1 0 0 0 0];
oriented        oriented;


internalField   nonuniform List<scalar> 
1890
(
0.0093061958
0.00069380425
0.0082843931
0.0010218027
0.0073298986
0.00095449446
0.0064869553
0.00084294331
0.0057695845
0.00071737078
0.00518986
0.00057972443
0.004738168
0.00045169205
0.00439519
0.00034297802
0.0041390268
0.00025616318
0.003949107
0.00018991983
0.003807888
0.00014121897
0.0037013782
0.0001065098
0.003619058
8.2320224e-05
0.0035534117
6.5646248e-05
0.0034992845
5.4127253e-05
0.0034532444
4.6040042e-05
0.0034130501
4.0194286e-05
0.0033772574
3.5792751e-05
0.0033449386
3.231876e-05
0.0033154893
2.9449285e-05
0.0032885008
2.6988586e-05
0.0032636805
2.482031e-05
0.003240805
2.2875488e-05
0.0032196926
2.1112421e-05
0.0032001879
1.9504655e-05
0.0031821539
1.803401e-05
0.0031654672
1.6686721e-05
0.0031500158
1.5451357e-05
0.0031356979
1.4317861e-05
0.0031224209
1.327707e-05
0.0031101003
1.2320595e-05
0.0030986596
1.1440727e-05
0.0030880291
1.0630442e-05
0.0030781458
9.8833728e-06
0.003068952
9.1937758e-06
0.0030603955
8.5564963e-06
0.0030524285
7.9669137e-06
0.0030450076
7.4208963e-06
0.0030380929
6.9147409e-06
0.0030316478
6.4451189e-06
0.0030256387
6.0090533e-06
0.0030200349
5.6038456e-06
0.0030148078
5.2270757e-06
0.0030099313
4.8765426e-06
0.003005381
4.5502541e-06
0.0030011346
4.2464059e-06
0.0029971713
3.9633397e-06
0.0029934717
3.6995597e-06
0.002990018
3.4536786e-06
0.0029867936
3.2244183e-06
0.002983783
3.0106162e-06
0.0029809718
2.8111734e-06
0.0029783467
2.6250929e-06
0.0029758953
2.451444e-06
0.002973606
2.2893606e-06
0.0029714679
2.1380656e-06
0.0029694711
1.9968141e-06
0.0029676061
1.8649569e-06
0.0029658642
1.7418599e-06
0.0029642373
1.6269388e-06
0.0029627176
1.5196493e-06
0.0029612982
1.4194637e-06
0.0029599723
1.3259039e-06
0.0029587338
1.2385107e-06
0.002957577
1.1568634e-06
0.0029564964
1.0805885e-06
0.002955487
1.0093295e-06
0.0029545442
9.4277203e-07
0.0029536635
8.8063581e-07
0.0029528409
8.2261679e-07
0.0029520724
7.684625e-07
0.0029513546
7.1789212e-07
0.002950684
6.7064438e-07
0.0029500575
6.2648351e-07
0.0029494723
5.8519429e-07
0.0029489257
5.465861e-07
0.0029484152
5.1052003e-07
0.0029479383
4.7682033e-07
0.0029474929
4.4540209e-07
0.0029470768
4.16076e-07
0.002946688
3.8874685e-07
0.0029463249
3.6320214e-07
0.0029459856
3.3935061e-07
0.0029456687
3.1698283e-07
0.0029453726
2.9608645e-07
0.0029450961
2.7643186e-07
0.0029448379
2.5822375e-07
0.0029445967
2.4106692e-07
0.0029443712
2.2533014e-07
0.0029441609
2.10408e-07
0.0029439642
1.9683915e-07
0.0029437803
1.8376712e-07
0.0029436083
1.7210975e-07
0.002943448
1.6037745e-07
0.0029432978
1.5019395e-07
0.0029431574
1.4030629e-07
0.0029430254
1.3211895e-07
0.0029429003
1.2511466e-07
0.0029427808
1.1940643e-07
1.2576318e-07
0.010339525
0.00035427931
0.010570754
0.00079057333
0.010606301
0.00091894817
0.010547572
0.00090167133
0.010422317
0.0008426262
0.010244356
0.00075768557
0.010039421
0.00065662743
0.0098287427
0.00055365586
0.009625135
0.00045977083
0.0094353013
0.00037975353
0.0092624277
0.00031409258
0.0091075333
0.00026140425
0.008970154
0.00021969948
0.0088489023
0.00018689786
0.0087419716
0.00016105802
0.0086474927
0.00014051894
0.008563694
0.00012399296
0.0084890107
0.000110476
0.0084221096
9.9219874e-05
0.0083618775
8.9681411e-05
0.0083073954
8.1470674e-05
0.0082579079
7.4307853e-05
0.0082127929
6.79905e-05
0.0081715353
6.236999e-05
0.0081337049
5.7335013e-05
0.0080989388
5.2800182e-05
0.0080669272
4.8698264e-05
0.0080374036
4.4974957e-05
0.0080101361
4.1585392e-05
0.0079849213
3.849185e-05
0.0079615798
3.5662157e-05
0.0079399519
3.3068614e-05
0.0079198952
3.0687175e-05
0.0079012817
2.8496853e-05
0.0078839962
2.6479244e-05
0.0078679345
2.4618145e-05
0.0078530022
2.2899244e-05
0.0078391133
2.1309847e-05
0.0078261893
1.9838663e-05
0.0078141589
1.8475613e-05
0.0078029563
1.7211666e-05
0.0077925214
1.6038726e-05
0.007782799
1.4949479e-05
0.0077737382
1.3937337e-05
0.0077652921
1.2996321e-05
0.0077574175
1.2121003e-05
0.0077500744
1.1306453e-05
0.0077432258
1.0548149e-05
0.0077368375
9.8419726e-06
0.0077308778
9.1841345e-06
0.0077253173
8.5711442e-06
0.0077201286
7.9998112e-06
0.0077152866
7.4671629e-06
0.0077107675
6.9704814e-06
0.0077065496
6.5072479e-06
0.0077026125
6.0751349e-06
0.0076989373
5.6720165e-06
0.0076955064
5.2959007e-06
0.0076923033
4.9449605e-06
0.0076893128
4.6174726e-06
0.0076865206
4.3118337e-06
0.0076839135
4.0265643e-06
0.0076814792
3.7602574e-06
0.0076792061
3.5116361e-06
0.0076770834
3.2794994e-06
0.0076751012
3.0627418e-06
0.0076732501
2.8603572e-06
0.0076715215
2.6713979e-06
0.0076699072
2.4949811e-06
0.0076683995
2.3302917e-06
0.0076669915
2.1765252e-06
0.0076656765
2.0329352e-06
0.0076644483
1.898829e-06
0.0076633013
1.7735343e-06
0.0076622299
1.6564886e-06
0.0076612293
1.5471324e-06
0.0076602948
1.4450139e-06
0.007659422
1.3496487e-06
0.0076586067
1.2606594e-06
0.0076578453
1.1775558e-06
0.0076571341
1.1000377e-06
0.0076564698
1.0275265e-06
0.0076558492
9.5988656e-07
0.0076552697
8.964873e-07
0.0076547283
8.3743043e-07
0.0076542228
7.8189694e-07
0.0076537505
7.3047721e-07
0.0076533094
6.8216067e-07
0.0076528971
6.3762608e-07
0.0076525127
5.949762e-07
0.0076521528
5.567035e-07
0.0076518171
5.1952477e-07
0.0076515027
4.863908e-07
0.0076512105
4.5243854e-07
0.0076509355
4.2509913e-07
0.0076506807
3.9527268e-07
0.0076504386
3.7434827e-07
0.0076502165
3.4711589e-07
0.0076499998
3.3607638e-07
3.1076499e-07
0.010188704
0.00016557515
0.010530487
0.00044879097
0.010851453
0.00059798174
0.011124174
0.00062895021
0.011350581
0.00061621883
0.011524486
0.00058378053
0.01164633
0.00053478419
0.011724155
0.00047583049
0.011767999
0.00041592665
0.011786639
0.00036111398
0.011787114
0.0003136171
0.011775058
0.00027346024
0.011754861
0.00023989717
0.011729768
0.0002119903
0.011702054
0.0001887726
0.011673239
0.00016933388
0.011644339
0.00015289297
0.011616003
0.00013881184
0.011588629
0.0001265938
0.011562446
0.00011586445
0.011537572
0.00010634494
0.011514052
9.7827001e-05
0.011491889
9.0153362e-05
0.011471056
8.3203365e-05
0.011451509
7.6882612e-05
0.011433193
7.1115562e-05
0.011416051
6.5840298e-05
0.011400021
6.1004913e-05
0.011385042
5.6565075e-05
0.011371051
5.2482341e-05
0.01135799
4.8723031e-05
0.011345801
4.525739e-05
0.01133443
4.2058995e-05
0.011323822
3.9104272e-05
0.011313929
3.6372119e-05
0.011304704
3.3843605e-05
0.011296101
3.1501691e-05
0.01128808
2.9331019e-05
0.011280601
2.7317705e-05
0.011273628
2.5449182e-05
0.011267125
2.3714057e-05
0.011261062
2.2101958e-05
0.011255408
2.060346e-05
0.011250135
1.9209949e-05
0.011245218
1.7913565e-05
0.011240632
1.6707111e-05
0.011236354
1.5583979e-05
0.011232364
1.4538116e-05
0.011228643
1.3563935e-05
0.01122517
1.2656303e-05
0.011221931
1.1810493e-05
0.011218909
1.1022112e-05
0.011216089
1.0287137e-05
0.011213457
9.6018214e-06
0.011211002
8.9627127e-06
0.01120871
8.3666244e-06
0.011206572
7.8105937e-06
0.011204576
7.2918841e-06
0.011202713
6.8079282e-06
0.011200974
6.3563558e-06
0.011199351
5.934965e-06
0.011197836
5.5416816e-06
0.011196422
5.1746148e-06
0.011195101
4.8319765e-06
0.011193868
4.5121341e-06
0.011192718
4.2135575e-06
0.011191643
3.934829e-06
0.01119064
3.6746282e-06
0.011189703
3.4317248e-06
0.011188829
3.2049365e-06
0.011188012
2.9932034e-06
0.011187249
2.795474e-06
0.011186537
2.6108251e-06
0.011185873
2.4383669e-06
0.011185252
2.2773243e-06
0.011184672
2.1269134e-06
0.01118413
1.9865049e-06
0.011183625
1.8553686e-06
0.011183152
1.7329997e-06
0.011182711
1.6186541e-06
0.011182299
1.5119511e-06
0.011181915
1.4121288e-06
0.011181556
1.3190627e-06
0.01118122
1.2318324e-06
0.011180907
1.1506793e-06
0.011180614
1.0745033e-06
0.011180341
1.0040989e-06
0.011180086
9.3727441e-07
0.011179847
8.7620917e-07
0.011179624
8.1777044e-07
0.011179416
7.6533299e-07
0.011179222
7.1275315e-07
0.01117904
6.6810811e-07
0.011178872
6.2102542e-07
0.011178712
5.852805e-07
0.011178566
5.4112036e-07
0.011178425
5.151855e-07
0.0111783
4.722766e-07
0.011178177
4.5905729e-07
4.1608325e-07
0.010097182
6.8393549e-05
0.010346961
0.0001990111
0.010662469
0.00028247385
0.010982753
0.00030866646
0.011290229
0.00030874339
0.011575251
0.00029875786
0.011829022
0.00028101344
0.012047865
0.00025698754
0.012233272
0.00023051981
0.01238924
0.00020514589
0.012520295
0.00018256234
0.012630755
0.00016299955
0.012724428
0.00014622489
0.012804515
0.00013190311
0.012873613
0.00011967426
0.012933772
0.00010917461
0.012986596
0.00010006908
0.013033332
9.2076375e-05
0.01307495
8.497526e-05
0.013112216
7.8598617e-05
0.013145739
7.2822305e-05
0.013176012
6.7553939e-05
0.013203441
6.2723923e-05
0.013228366
5.8278895e-05
0.013251071
5.4176989e-05
0.013271802
5.0384435e-05
0.01329077
4.6873168e-05
0.013308155
4.3619185e-05
0.013324119
4.0601466e-05
0.0133388
3.7801287e-05
0.013352321
3.5201758e-05
0.013364791
3.2787535e-05
0.013376306
3.0544595e-05
0.01338695
2.8460089e-05
0.0133968
2.652222e-05
0.013405923
2.4720136e-05
0.013414381
2.3043844e-05
0.013422228
2.1484146e-05
0.013429513
2.0032563e-05
0.013436281
1.8681275e-05
0.013442572
1.7423066e-05
0.013448423
1.6251282e-05
0.013453866
1.5159765e-05
0.013458933
1.4142831e-05
0.013463652
1.3195221e-05
0.013468047
1.231207e-05
0.013472142
1.1488871e-05
0.013475959
1.0721441e-05
0.013479517
1.0005914e-05
0.013482834
9.3386936e-06
0.013485928
8.7164425e-06
0.013488814
8.1360748e-06
0.013491507
7.5947045e-06
0.013494019
7.0896702e-06
0.013496363
6.6184978e-06
0.013498551
6.1788874e-06
0.013500593
5.7686963e-06
0.013502499
5.3859226e-06
0.013504278
5.0287131e-06
0.013505939
4.6953362e-06
0.01350749
4.384173e-06
0.013508938
4.093736e-06
0.01351029
3.8226192e-06
0.013511552
3.5695349e-06
0.013512731
3.3332757e-06
0.013513832
3.1127214e-06
0.01351486
2.9068291e-06
0.01351582
2.7146103e-06
0.013516716
2.5351528e-06
0.013517554
2.3675977e-06
0.013518336
2.2111302e-06
0.013519066
2.0650137e-06
0.013519748
1.9285697e-06
0.013520386
1.8011422e-06
0.013520981
1.6821786e-06
0.013521537
1.5710802e-06
0.013522056
1.4673783e-06
0.013522541
1.3705157e-06
0.013522994
1.2801097e-06
0.013523417
1.1955991e-06
0.013523812
1.1167421e-06
0.013524181
1.0429473e-06
0.013524526
9.7418511e-07
0.013524848
9.0971116e-07
0.013525149
8.4991259e-07
0.01352543
7.9365896e-07
0.013525692
7.4159569e-07
0.013525937
6.9215431e-07
0.013526166
6.4741499e-07
0.01352638
6.0400581e-07
0.01352658
5.6507938e-07
0.013526766
5.257854e-07
0.01352694
4.9378208e-07
0.013527104
4.5849184e-07
0.013527258
4.3258012e-07
0.013527398
3.9883095e-07
0.013527533
3.808002e-07
0.013527659
3.4711355e-07
0.01352778
3.3803775e-07
3.0564268e-07
0.010068394
-5.0793014e-12
0.010267405
-1.3191311e-11
0.010549879
-1.4350267e-11
0.010858545
-1.2315257e-11
0.011167288
-9.4304779e-12
0.011466046
-9.2802923e-12
0.01174706
-1.0355071e-11
0.012004047
-1.2475293e-11
0.012234567
-1.4535649e-11
0.012439713
-1.6430571e-11
0.012622275
-1.6269113e-11
0.012785275
-1.3514662e-11
0.0129315
-9.81992e-12
0.013063403
-5.4624404e-12
0.013183077
-1.3914269e-12
0.013292252
1.3480323e-12
0.013392321
2.6168291e-12
0.013484397
3.2192345e-12
0.013569373
3.8157203e-12
0.013647971
3.6708736e-12
0.013720794
1.8917095e-12
0.013788347
1.4283774e-14
0.013851071
-7.5385011e-13
0.01390935
-1.0162457e-12
0.013963527
-7.726485e-15
0.014013912
1.9699866e-12
0.014060785
2.9123003e-12
0.014104404
3.7245829e-12
0.014145006
5.650347e-12
0.014182807
5.7403205e-12
0.014218009
5.1991865e-12
0.014250796
2.3912599e-12
0.014281341
-9.8157154e-13
0.014309801
-4.7615226e-12
0.014336323
-6.7088753e-12
0.014361043
-5.1491018e-12
0.014384087
-6.7563946e-13
0.014405571
4.6406508e-12
0.014425604
8.8657207e-12
0.014444285
1.0995794e-11
0.014461708
1.0202936e-11
0.014477959
5.5693072e-12
0.014493119
9.3496105e-13
0.014507262
-5.5012561e-12
0.014520457
-9.0522334e-12
0.014532769
-9.0275782e-12
0.014544258
-6.601713e-12
0.014554979
-1.7388839e-12
0.014564985
6.5006302e-12
0.014574324
1.5669856e-11
0.01458304
1.9799881e-11
0.014591177
1.4180353e-11
0.014598771
5.5536136e-12
0.014605861
-6.5827527e-12
0.014612479
-1.7168137e-11
0.014618658
-1.8341171e-11
0.014624427
-9.4193971e-12
0.014629813
2.2122237e-12
0.014634842
1.7964817e-11
0.014639537
2.6655148e-11
0.014643921
2.6097499e-11
0.014648015
1.6463813e-11
0.014651837
4.5312652e-12
0.014655407
-1.1162805e-11
0.01465874
-2.2500169e-11
0.014661853
-2.2245779e-11
0.01466476
-1.3068685e-11
0.014667475
3.7676571e-12
0.01467001
2.6948755e-11
0.014672377
3.9067559e-11
0.014674588
3.9079141e-11
0.014676653
2.0650708e-11
0.014678582
-1.7677953e-12
0.014680383
-2.890705e-11
0.014682065
-4.5525262e-11
0.014683636
-3.5462722e-11
0.014685104
-1.0376792e-11
0.014686474
2.4342944e-11
0.014687754
5.3236214e-11
0.01468895
5.2633652e-11
0.014690066
3.0205069e-11
0.014691109
4.7536442e-12
0.014692084
-3.5448052e-11
0.014692993
-5.6758736e-11
0.014693843
-2.9274067e-11
0.014694637
-3.8045444e-12
0.014695379
9.4493595e-12
0.014696071
5.1261896e-11
0.014696718
1.2290831e-10
0.014697322
6.417846e-11
0.014697888
-5.7355685e-11
0.014698412
-1.0013478e-10
0.014698906
-9.272586e-11
0.014699366
3.099897e-11
0.014699799
1.2849393e-10
0.014700196
7.1399813e-11
0.014700576
-2.4655371e-11
0.014700925
-6.321106e-11
0.014701263
-6.6833118e-11
-6.6603424e-11
0.010068394
-6.8393558e-05
0.010267405
-0.00019901113
0.010549879
-0.00028247388
0.010858545
-0.00030866649
0.011167288
-0.00030874342
0.011466046
-0.00029875789
0.01174706
-0.00028101346
0.012004047
-0.00025698756
0.012234567
-0.00023051983
0.012439713
-0.00020514591
0.012622275
-0.00018256236
0.012785275
-0.00016299958
0.0129315
-0.00014622491
0.013063403
-0.00013190313
0.013183077
-0.00011967427
0.013292252
-0.00010917461
0.013392321
-0.00010006907
0.013484397
-9.2076363e-05
0.013569373
-8.4975249e-05
0.013647971
-7.8598611e-05
0.013720793
-7.2822302e-05
0.013788347
-6.7553936e-05
0.013851071
-6.2723924e-05
0.01390935
-5.8278897e-05
0.013963527
-5.4176988e-05
0.014013912
-5.0384433e-05
0.014060785
-4.6873164e-05
0.014104404
-4.3619177e-05
0.014145006
-4.0601455e-05
0.014182807
-3.7801275e-05
0.014218009
-3.5201752e-05
0.014250796
-3.2787533e-05
0.014281341
-3.0544598e-05
0.014309801
-2.8460099e-05
0.014336323
-2.652223e-05
0.014361043
-2.472014e-05
0.014384087
-2.3043843e-05
0.014405571
-2.148414e-05
0.014425604
-2.0032549e-05
0.014444285
-1.8681256e-05
0.014461708
-1.7423052e-05
0.014477959
-1.6251272e-05
0.014493119
-1.5159762e-05
0.014507262
-1.4142837e-05
0.014520457
-1.3195236e-05
0.014532769
-1.2312088e-05
0.014544258
-1.1488883e-05
0.014554979
-1.0721444e-05
0.014564985
-1.0005901e-05
0.014574324
-9.3386679e-06
0.014583041
-8.7164185e-06
0.014591177
-8.1360525e-06
0.014598771
-7.5946968e-06
0.014605861
-7.0896799e-06
0.014612479
-6.6185182e-06
0.014618658
-6.1789071e-06
0.014624427
-5.768704e-06
0.014629813
-5.3859198e-06
0.014634842
-5.0286933e-06
0.014639537
-4.6952965e-06
0.014643921
-4.3841356e-06
0.014648015
-4.0937069e-06
0.014651837
-3.8226113e-06
0.014655407
-3.569547e-06
0.01465874
-3.3333093e-06
0.014661853
-3.1127604e-06
0.01466476
-2.9068492e-06
0.014667475
-2.7146049e-06
0.01467001
-2.5351201e-06
0.014672377
-2.3675361e-06
0.014674588
-2.211081e-06
0.014676653
-2.0649853e-06
0.014678582
-1.9285753e-06
0.014680383
-1.801185e-06
0.014682065
-1.6822301e-06
0.014683636
-1.5711198e-06
0.014685104
-1.4673848e-06
0.014686474
-1.370485e-06
0.014687754
-1.2800582e-06
0.01468895
-1.1955398e-06
0.014690067
-1.1167049e-06
0.014691109
-1.0429517e-06
0.014692084
-9.7421775e-07
0.014692993
-9.0976984e-07
0.014693843
-8.4995159e-07
0.014694637
-7.9365698e-07
0.014695379
-7.4158569e-07
0.014696071
-6.9211529e-07
0.014696718
-6.4727439e-07
0.014697322
-6.0381907e-07
0.014697888
-5.6525116e-07
0.014698412
-5.261017e-07
0.014698906
-4.9358312e-07
0.014699366
-4.5818263e-07
0.014699799
-4.3275847e-07
0.014700196
-3.9911144e-07
0.014700577
-3.8080428e-07
0.014700925
-3.4700704e-07
0.014701263
-3.3803734e-07
-3.0572353e-07
0.010097182
-0.00016557515
0.010346961
-0.000448791
0.010662469
-0.00059798177
0.010982753
-0.00062895025
0.011290229
-0.00061621886
0.011575251
-0.00058378055
0.011829022
-0.0005347842
0.012047865
-0.0004758305
0.012233272
-0.00041592666
0.01238924
-0.000361114
0.012520295
-0.00031361712
0.012630755
-0.00027346026
0.012724428
-0.00023989719
0.012804515
-0.00021199031
0.012873613
-0.00018877261
0.012933772
-0.00016933388
0.012986596
-0.00015289296
0.013033332
-0.00013881183
0.01307495
-0.00012659379
0.013112216
-0.00011586445
0.013145739
-0.00010634494
0.013176012
-9.7827e-05
0.013203441
-9.0153362e-05
0.013228366
-8.3203366e-05
0.013251071
-7.6882615e-05
0.013271802
-7.1115563e-05
0.01329077
-6.5840293e-05
0.013308155
-6.1004907e-05
0.013324119
-5.6565067e-05
0.0133388
-5.2482336e-05
0.013352321
-4.8723024e-05
0.013364791
-4.5257388e-05
0.013376306
-4.2058996e-05
0.01338695
-3.9104274e-05
0.0133968
-3.6372124e-05
0.013405923
-3.3843611e-05
0.013414381
-3.1501696e-05
0.013422228
-2.9331016e-05
0.013429513
-2.7317697e-05
0.013436281
-2.5449173e-05
0.013442572
-2.3714042e-05
0.013448423
-2.2101948e-05
0.013453866
-2.0603456e-05
0.013458933
-1.9209954e-05
0.013463652
-1.7913576e-05
0.013468047
-1.6707123e-05
0.013472142
-1.5583991e-05
0.013475959
-1.4538116e-05
0.013479517
-1.356393e-05
0.013482834
-1.2656296e-05
0.013485928
-1.1810475e-05
0.013488814
-1.1022099e-05
0.013491507
-1.0287125e-05
0.013494019
-9.6018174e-06
0.013496363
-8.96272e-06
0.013498551
-8.3666396e-06
0.013500593
-7.8106154e-06
0.013502499
-7.2918905e-06
0.013504278
-6.8079212e-06
0.013505939
-6.356339e-06
0.01350749
-5.9349314e-06
0.013508938
-5.5416518e-06
0.01351029
-5.1745951e-06
0.013511552
-4.8319806e-06
0.013512731
-4.5121511e-06
0.013513832
-4.2135814e-06
0.01351486
-3.9348552e-06
0.01351582
-3.674639e-06
0.013516716
-3.4317138e-06
0.013517554
-3.2049188e-06
0.013518336
-2.9931666e-06
0.013519066
-2.7954418e-06
0.013519748
-2.6108103e-06
0.013520386
-2.4383708e-06
0.013520981
-2.2773468e-06
0.013521537
-2.1269513e-06
0.013522056
-1.9865437e-06
0.013522541
-1.8553888e-06
0.013522994
-1.7329862e-06
0.013523417
-1.6186135e-06
0.013523812
-1.5118985e-06
0.013524181
-1.412083e-06
0.013524526
-1.3190449e-06
0.013524848
-1.2318465e-06
0.013525149
-1.1507608e-06
0.01352543
-1.0745608e-06
0.013525692
-1.00405e-06
0.013525937
-9.3723953e-07
0.013526166
-8.7630566e-07
0.01352638
-8.1778597e-07
0.01352658
-7.6502666e-07
0.013526766
-7.1251462e-07
0.013526941
-6.6834962e-07
0.013527104
-6.2133727e-07
0.013527257
-5.8525668e-07
0.013527398
-5.4102774e-07
0.013527533
-5.1516013e-07
0.013527659
-4.722242e-07
0.013527779
-4.590259e-07
-4.1608289e-07
0.010188704
-0.00035427932
0.010530487
-0.00079057335
0.010851453
-0.0009189482
0.011124174
-0.00090167137
0.011350581
-0.00084262623
0.011524486
-0.00075768559
0.01164633
-0.00065662744
0.011724155
-0.00055365586
0.011767999
-0.00045977083
0.011786639
-0.00037975354
0.011787114
-0.00031409259
0.011775058
-0.00026140427
0.011754861
-0.0002196995
0.011729768
-0.00018689787
0.011702054
-0.00016105802
0.011673239
-0.00014051894
0.011644339
-0.00012399295
0.011616003
-0.00011047599
0.011588629
-9.9219867e-05
0.011562446
-8.9681403e-05
0.011537572
-8.147067e-05
0.011514052
-7.4307849e-05
0.01149189
-6.7990498e-05
0.011471056
-6.236999e-05
0.011451509
-5.7335015e-05
0.011433193
-5.2800184e-05
0.011416051
-4.8698265e-05
0.011400021
-4.4974954e-05
0.011385042
-4.158539e-05
0.011371051
-3.8491846e-05
0.01135799
-3.5662155e-05
0.011345801
-3.306861e-05
0.01133443
-3.0687171e-05
0.011323822
-2.849685e-05
0.011313929
-2.6479243e-05
0.011304704
-2.4618149e-05
0.011296101
-2.289925e-05
0.01128808
-2.1309853e-05
0.011280601
-1.9838666e-05
0.011273628
-1.847561e-05
0.011267125
-1.7211662e-05
0.011261062
-1.6038715e-05
0.011255408
-1.4949471e-05
0.011250135
-1.3937332e-05
0.011245218
-1.2996321e-05
0.011240632
-1.2121011e-05
0.011236354
-1.1306459e-05
0.011232364
-1.0548158e-05
0.011228643
-9.8419798e-06
0.01122517
-9.184137e-06
0.011221931
-8.5711466e-06
0.011218909
-7.9998016e-06
0.011216089
-7.4671492e-06
0.011213457
-6.970464e-06
0.011211002
-6.507234e-06
0.01120871
-6.0751384e-06
0.011206572
-5.6720301e-06
0.011204576
-5.2959243e-06
0.011202713
-4.9449786e-06
0.011200974
-4.6174794e-06
0.011199351
-4.3118296e-06
0.011197836
-4.0265404e-06
0.011196422
-3.7602307e-06
0.011195101
-3.5116106e-06
0.011193868
-3.2794851e-06
0.011192718
-3.0627465e-06
0.011191643
-2.860377e-06
0.01119064
-2.6714278e-06
0.011189703
-2.4950167e-06
0.011188829
-2.3303084e-06
0.011188012
-2.1765236e-06
0.011187249
-2.032908e-06
0.011186537
-1.8987846e-06
0.011185873
-1.7734936e-06
0.011185252
-1.6564678e-06
0.011184672
-1.5471428e-06
0.01118413
-1.4450614e-06
0.011183625
-1.3497104e-06
0.011183152
-1.2607143e-06
0.011182711
-1.177569e-06
0.0111823
-1.1000016e-06
0.011181915
-1.0274607e-06
0.011181556
-9.5980428e-07
0.01118122
-8.9643543e-07
0.011180907
-8.3743142e-07
0.011180614
-7.8196134e-07
0.011180341
-7.3056261e-07
0.011180086
-6.8220247e-07
0.011179847
-6.3767316e-07
0.011179624
-5.9503052e-07
0.011179416
-5.5653642e-07
0.011179223
-5.1915572e-07
0.01117904
-4.862929e-07
0.011178872
-4.52794e-07
0.011178712
-4.2541619e-07
0.011178566
-3.9518031e-07
0.011178425
-3.7415816e-07
0.0111783
-3.4706396e-07
0.011178177
-3.3600435e-07
-3.1070293e-07
0.010339525
-0.00069380425
0.010570754
-0.0010218027
0.010606301
-0.00095449448
0.010547572
-0.00084294333
0.010422317
-0.0007173708
0.010244356
-0.00057972444
0.010039421
-0.00045169205
0.0098287427
-0.00034297801
0.009625135
-0.00025616318
0.0094353013
-0.00018991983
0.0092624277
-0.00014121897
0.0091075332
-0.0001065098
0.008970154
-8.2320226e-05
0.0088489023
-6.5646249e-05
0.0087419716
-5.4127255e-05
0.0086474927
-4.6040044e-05
0.008563694
-4.0194286e-05
0.0084890108
-3.5792751e-05
0.0084221096
-3.2318757e-05
0.0083618775
-2.9449282e-05
0.0083073954
-2.6988578e-05
0.0082579079
-2.4820303e-05
0.0082127929
-2.2875482e-05
0.0081715353
-2.1112418e-05
0.0081337049
-1.9504656e-05
0.0080989388
-1.8034017e-05
0.0080669272
-1.6686727e-05
0.0080374036
-1.5451364e-05
0.0080101361
-1.4317863e-05
0.0079849213
-1.3277072e-05
0.0079615798
-1.232059e-05
0.0079399519
-1.1440719e-05
0.0079198951
-1.0630433e-05
0.0079012817
-9.8833642e-06
0.0078839962
-9.1937719e-06
0.0078679345
-8.5564989e-06
0.0078530022
-7.9669234e-06
0.0078391133
-7.4209087e-06
0.0078261894
-6.9147506e-06
0.0078141589
-6.4451263e-06
0.0078029563
-6.009051e-06
0.0077925214
-5.6038379e-06
0.007782799
-5.2270617e-06
0.0077737382
-4.8765279e-06
0.0077652921
-4.5502454e-06
0.0077574175
-4.246403e-06
0.0077500744
-3.963349e-06
0.0077432258
-3.6995743e-06
0.0077368375
-3.4536951e-06
0.0077308778
-3.2244362e-06
0.0077253173
-3.0106223e-06
0.0077201286
-2.8111694e-06
0.0077152866
-2.625076e-06
0.0077107675
-2.4514166e-06
0.0077065496
-2.2893379e-06
0.0077026126
-2.1380517e-06
0.0076989374
-1.9968258e-06
0.0076955064
-1.8649821e-06
0.0076923033
-1.7418926e-06
0.0076893128
-1.6269692e-06
0.0076865206
-1.5196612e-06
0.0076839135
-1.4194553e-06
0.0076814792
-1.3258736e-06
0.007679206
-1.2384684e-06
0.0076770834
-1.1568268e-06
0.0076751012
-1.0805683e-06
0.0076732502
-1.0093403e-06
0.0076715216
-9.4281498e-07
0.0076699072
-8.8068847e-07
0.0076683996
-8.2266927e-07
0.0076669915
-7.6848521e-07
0.0076656765
-7.1787352e-07
0.0076644483
-6.7059431e-07
0.0076633012
-6.2641541e-07
0.0076622299
-5.8513954e-07
0.0076612294
-5.4657022e-07
0.0076602949
-5.1054882e-07
0.007659422
-4.7689642e-07
0.0076586068
-4.454863e-07
0.0076578453
-4.1613582e-07
0.0076571341
-3.8875214e-07
0.0076564698
-3.631443e-07
0.0076558492
-3.3926029e-07
0.0076552697
-3.1687754e-07
0.0076547283
-2.960435e-07
0.0076542229
-2.7646161e-07
0.0076537506
-2.5827557e-07
0.0076533094
-2.4117473e-07
0.0076528971
-2.2548508e-07
0.0076525126
-2.1041631e-07
0.0076521529
-1.9666345e-07
0.0076518173
-1.8360592e-07
0.0076515028
-1.7205499e-07
0.0076512105
-1.6040589e-07
0.0076509355
-1.5028841e-07
0.0076506807
-1.4040814e-07
0.0076504386
-1.3209354e-07
0.0076502165
-1.2500918e-07
0.0076499999
-1.1934059e-07
-1.2571567e-07
0.0093061957
0.0082843931
0.0073298986
0.0064869553
0.0057695845
0.00518986
0.004738168
0.00439519
0.0041390268
0.003949107
0.003807888
0.0037013782
0.003619058
0.0035534117
0.0034992845
0.0034532444
0.0034130501
0.0033772574
0.0033449386
0.0033154893
0.0032885008
0.0032636805
0.003240805
0.0032196926
0.0032001879
0.0031821539
0.0031654672
0.0031500158
0.0031356979
0.0031224209
0.0031101003
0.0030986595
0.0030880291
0.0030781458
0.003068952
0.0030603955
0.0030524286
0.0030450076
0.0030380929
0.0030316478
0.0030256387
0.0030200349
0.0030148078
0.0030099313
0.0030053811
0.0030011347
0.0029971713
0.0029934717
0.002990018
0.0029867936
0.0029837829
0.0029809718
0.0029783467
0.0029758953
0.002973606
0.0029714679
0.0029694711
0.0029676061
0.0029658642
0.0029642372
0.0029627175
0.0029612981
0.0029599722
0.0029587338
0.002957577
0.0029564965
0.0029554871
0.0029545443
0.0029536635
0.0029528408
0.0029520723
0.0029513545
0.0029506839
0.0029500575
0.0029494724
0.0029489259
0.0029484153
0.0029479384
0.0029474928
0.0029470767
0.0029466879
0.0029463248
0.0029459856
0.0029456687
0.0029453727
0.0029450963
0.002944838
0.0029445965
0.0029443711
0.002944161
0.0029439642
0.0029437803
0.0029436083
0.0029434482
0.002943298
0.0029431574
0.0029430253
0.0029429003
0.0029427809
)
;

boundaryField
{
    top
    {
        type            calculated;
        value           uniform 0;
    }
    inlet
    {
        type            calculated;
        value           nonuniform List<scalar> 10(-0.01 -0.01 -0.01 -0.01 -0.01 -0.01 -0.01 -0.01 -0.01 -0.01);
    }
    outlet
    {
        type            calculated;
        value           nonuniform List<scalar> 10(0.0029426551 0.0076498148 0.011178072 0.01352789 0.014701569 0.014701569 0.01352789 0.011178072 0.0076498149 0.0029426552);
    }
    bottom
    {
        type            calculated;
        value           uniform 0;
    }
    back
    {
        type            empty;
        value           nonuniform 0();
    }
    front
    {
        type            empty;
        value           nonuniform 0();
    }
}


// ************************************************************************* //
