/*--------------------------------*- C++ -*----------------------------------*\
| =========                 |                                                 |
| \\      /  F ield         | OpenFOAM: The Open Source CFD Toolbox           |
|  \\    /   O peration     | Version:  v1812                                 |
|   \\  /    A nd           | Web:      www.OpenFOAM.com                      |
|    \\/     M anipulation  |                                                 |
\*---------------------------------------------------------------------------*/
FoamFile
{
    version     2.0;
    format      ascii;
    class       volVectorField;
    location    "7.55";
    object      U;
}
// * * * * * * * * * * * * * * * * * * * * * * * * * * * * * * * * * * * * * //

dimensions      [0 1 -1 0 0 0 0];


internalField   nonuniform List<vector> 
1000
(
(0.91890839 0.035821913 0)
(0.86271384 0.062195638 0)
(0.7870597 0.06251009 0)
(0.69536033 0.054550395 0)
(0.61089745 0.044531651 0)
(0.54411592 0.034015971 0)
(0.49343012 0.024187539 0)
(0.45479413 0.01614423 0)
(0.42544582 0.010265786 0)
(0.40347313 0.0063041453 0)
(0.38715766 0.0037976295 0)
(0.3749622 0.0023103381 0)
(0.36566193 0.0014930149 0)
(0.35836272 0.0010851182 0)
(0.35244268 0.00090607241 0)
(0.34748201 0.00084105195 0)
(0.34320348 0.00082372444 0)
(0.33942726 0.00081931072 0)
(0.33603793 0.00081185222 0)
(0.33296114 0.00079580134 0)
(0.33014778 0.00077081146 0)
(0.32756384 0.00073870941 0)
(0.3251842 0.00070188923 0)
(0.32298902 0.00066256568 0)
(0.32096172 0.00062249976 0)
(0.31908785 0.00058295785 0)
(0.31735449 0.0005447722 0)
(0.31574995 0.00050843494 0)
(0.31426359 0.00047419247 0)
(0.31288573 0.00044212549 0)
(0.31160754 0.00041221035 0)
(0.310421 0.00038436256 0)
(0.30931882 0.00035846608 0)
(0.30829437 0.00033439185 0)
(0.30734163 0.00031200896 0)
(0.30645514 0.000291191 0)
(0.30562989 0.00027181913 0)
(0.30486133 0.00025378348 0)
(0.30414531 0.0002369832 0)
(0.30347801 0.00022132615 0)
(0.30285593 0.00020672818 0)
(0.30227587 0.00019311241 0)
(0.30173485 0.00018040848 0)
(0.30123016 0.00016855175 0)
(0.30075927 0.00015748271 0)
(0.30031984 0.00014714632 0)
(0.29990974 0.00013749149 0)
(0.29952695 0.00012847057 0)
(0.29916964 0.00012003899 0)
(0.2988361 0.00011215488 0)
(0.29852475 0.00010477891 0)
(0.29823412 9.7873884e-05 0)
(0.29796287 9.1404852e-05 0)
(0.29770974 8.5338706e-05 0)
(0.29747358 7.9644459e-05 0)
(0.29725334 7.4292769e-05 0)
(0.29704804 6.925642e-05 0)
(0.29685678 6.4509841e-05 0)
(0.29667875 6.0029717e-05 0)
(0.29651319 5.5794436e-05 0)
(0.29635941 5.1784894e-05 0)
(0.29621677 4.7983809e-05 0)
(0.29608469 4.4376615e-05 0)
(0.29596261 4.095059e-05 0)
(0.29585003 3.7695721e-05 0)
(0.29574647 3.4603639e-05 0)
(0.29565146 3.1668328e-05 0)
(0.29556457 2.8884959e-05 0)
(0.29548536 2.6250537e-05 0)
(0.29541343 2.3762644e-05 0)
(0.29534837 2.1420135e-05 0)
(0.29528976 1.9221939e-05 0)
(0.29523721 1.7167697e-05 0)
(0.29519031 1.5256666e-05 0)
(0.29514866 1.3488063e-05 0)
(0.29511187 1.1860342e-05 0)
(0.29507953 1.0371164e-05 0)
(0.29505128 9.0170635e-06 0)
(0.29502674 7.7935222e-06 0)
(0.29500555 6.6949115e-06 0)
(0.29498737 5.7149697e-06 0)
(0.29497188 4.8467513e-06 0)
(0.29495876 4.0831179e-06 0)
(0.29494773 3.4167767e-06 0)
(0.2949385 2.8401169e-06 0)
(0.29493083 2.3454636e-06 0)
(0.2949245 1.9246286e-06 0)
(0.2949193 1.5693509e-06 0)
(0.29491507 1.2714418e-06 0)
(0.29491166 1.0228645e-06 0)
(0.29490892 8.1687205e-07 0)
(0.29490676 6.4694589e-07 0)
(0.29490505 5.0877861e-07 0)
(0.29490371 3.9720725e-07 0)
(0.29490266 3.1020235e-07 0)
(0.29490184 2.4222125e-07 0)
(0.29490119 1.9337494e-07 0)
(0.29490069 1.5743732e-07 0)
(0.29490027 1.3989289e-07 0)
(0.29489992 1.2598139e-07 0)
(1.0016583 0.05381943 0)
(1.0359761 0.10128444 0)
(1.0597199 0.11073663 0)
(1.0628947 0.10592202 0)
(1.0515569 0.096228728 0)
(1.0340529 0.083934061 0)
(1.0142795 0.070327063 0)
(0.99360703 0.056981333 0)
(0.97292577 0.045107479 0)
(0.9531074 0.03523675 0)
(0.93479538 0.02740165 0)
(0.91829012 0.021387227 0)
(0.90362379 0.016884499 0)
(0.89068067 0.013569709 0)
(0.87928174 0.011147749 0)
(0.86923242 0.0093736596 0)
(0.86034423 0.0080569292 0)
(0.85244667 0.0070571285 0)
(0.84539241 0.0062752392 0)
(0.83905792 0.0056438289 0)
(0.83334126 0.0051180909 0)
(0.82815883 0.0046686719 0)
(0.82344212 0.0042764168 0)
(0.81913467 0.0039287385 0)
(0.81518961 0.0036172039 0)
(0.81156765 0.0033359717 0)
(0.80823543 0.003080806 0)
(0.80516439 0.0028484715 0)
(0.80232978 0.002636372 0)
(0.79970997 0.0024423412 0)
(0.79728595 0.0022645212 0)
(0.79504084 0.0021012921 0)
(0.79295961 0.0019512277 0)
(0.79102878 0.0018130662 0)
(0.78923625 0.001685688 0)
(0.78757107 0.0015680989 0)
(0.78602335 0.0014594143 0)
(0.78458408 0.0013588467 0)
(0.78324507 0.0012656933 0)
(0.78199884 0.001179326 0)
(0.78083855 0.0010991819 0)
(0.77975793 0.0010247547 0)
(0.77875123 0.00095558821 0)
(0.77781316 0.00089126952 0)
(0.77693883 0.00083142357 0)
(0.77612377 0.00077570833 0)
(0.77536382 0.00072381062 0)
(0.77465517 0.0006754424 0)
(0.77399429 0.00063033773 0)
(0.77337791 0.00058825015 0)
(0.77280304 0.00054895053 0)
(0.77226688 0.00051222522 0)
(0.77176689 0.00047787475 0)
(0.77130069 0.00044571262 0)
(0.77086611 0.00041556473 0)
(0.77046115 0.00038726857 0)
(0.77008397 0.00036067327 0)
(0.76973287 0.00033563922 0)
(0.76940632 0.00031203852 0)
(0.76910288 0.00028975482 0)
(0.76882125 0.00026868394 0)
(0.76856022 0.00024873374 0)
(0.76831868 0.00022982458 0)
(0.76809558 0.00021188876 0)
(0.76788998 0.00019487052 0)
(0.76770094 0.00017872495 0)
(0.76752761 0.00016341726 0)
(0.76736916 0.00014892119 0)
(0.76722478 0.00013521791 0)
(0.76709371 0.00012229414 0)
(0.76697517 0.00011014097 0)
(0.76686841 9.8751986e-05 0)
(0.76677268 8.8122161e-05 0)
(0.76668725 7.8245863e-05 0)
(0.76661138 6.9115964e-05 0)
(0.76654435 6.072199e-05 0)
(0.76648543 5.304958e-05 0)
(0.76643394 4.6079356e-05 0)
(0.76638921 3.978708e-05 0)
(0.76635057 3.4143688e-05 0)
(0.76631741 2.9116351e-05 0)
(0.76628913 2.4668849e-05 0)
(0.76626517 2.0763204e-05 0)
(0.76624499 1.7359315e-05 0)
(0.76622811 1.4416621e-05 0)
(0.76621409 1.1892817e-05 0)
(0.7662025 9.7459906e-06 0)
(0.766193 7.9332365e-06 0)
(0.76618526 6.4142268e-06 0)
(0.76617902 5.1490078e-06 0)
(0.76617401 4.1037446e-06 0)
(0.76617004 3.2447777e-06 0)
(0.76616689 2.5481001e-06 0)
(0.76616443 1.9853441e-06 0)
(0.76616249 1.5424525e-06 0)
(0.76616101 1.1906029e-06 0)
(0.76615982 9.2836487e-07 0)
(0.76615894 7.1747113e-07 0)
(0.76615822 5.9120658e-07 0)
(0.76615765 4.5597318e-07 0)
(1.0014244 0.026824855 0)
(1.0291272 0.062791352 0)
(1.0654292 0.077736553 0)
(1.098962 0.0805972 0)
(1.1253149 0.078285171 0)
(1.145053 0.0731539 0)
(1.1594858 0.066111278 0)
(1.1694287 0.058162063 0)
(1.1755354 0.050296754 0)
(1.1785738 0.043150708 0)
(1.1793571 0.036972825 0)
(1.1785949 0.031771632 0)
(1.1768304 0.027451839 0)
(1.1744518 0.023886768 0)
(1.1717287 0.02094762 0)
(1.1688444 0.018515781 0)
(1.1659195 0.016488086 0)
(1.1630317 0.014779504 0)
(1.1602295 0.013322986 0)
(1.1575415 0.012067133 0)
(1.1549828 0.010973001 0)
(1.1525601 0.010011062 0)
(1.1502747 0.0091587472 0)
(1.1481246 0.008398605 0)
(1.1461059 0.007716952 0)
(1.1442134 0.0071028905 0)
(1.1424414 0.0065475951 0)
(1.1407838 0.0060437994 0)
(1.1392343 0.0055854306 0)
(1.1377869 0.0051673494 0)
(1.1364353 0.0047851619 0)
(1.1351738 0.0044350812 0)
(1.1339968 0.0041138222 0)
(1.1328987 0.0038185193 0)
(1.1318746 0.0035466609 0)
(1.1309195 0.0032960372 0)
(1.1300289 0.0030646956 0)
(1.1291985 0.0028509053 0)
(1.1284242 0.0026531268 0)
(1.1277022 0.0024699856 0)
(1.127029 0.0023002512 0)
(1.1264013 0.002142818 0)
(1.125816 0.0019966895 0)
(1.1252702 0.0018609644 0)
(1.1247613 0.0017348252 0)
(1.1242866 0.0016175272 0)
(1.1238439 0.0015083902 0)
(1.123431 0.0014067901 0)
(1.1230459 0.0013121528 0)
(1.1226866 0.0012239479 0)
(1.1223516 0.0011416842 0)
(1.1220391 0.0010649052 0)
(1.1217477 0.00099318571 0)
(1.1214759 0.00092612965 0)
(1.1212225 0.00086336705 0)
(1.1209862 0.00080455318 0)
(1.1207661 0.000749367 0)
(1.1205609 0.0006975112 0)
(1.1203699 0.00064871144 0)
(1.1201921 0.00060271715 0)
(1.1200268 0.00055930119 0)
(1.1198732 0.00051826086 0)
(1.1197306 0.0004794175 0)
(1.1195984 0.00044261694 0)
(1.1194761 0.00040772849 0)
(1.1193631 0.00037464438 0)
(1.1192589 0.00034327779 0)
(1.119163 0.00031356124 0)
(1.119075 0.0002854437 0)
(1.1189946 0.00025888829 0)
(1.1189212 0.00023386896 0)
(1.1188545 0.00021036764 0)
(1.1187941 0.00018837104 0)
(1.1187396 0.00016786731 0)
(1.1186907 0.0001488435 0)
(1.118647 0.00013128222 0)
(1.1186081 0.00011516005 0)
(1.1185737 0.00010044521 0)
(1.1185434 8.709729e-05 0)
(1.1185169 7.5066581e-05 0)
(1.1184939 6.4295451e-05 0)
(1.118474 5.4718363e-05 0)
(1.1184569 4.6264573e-05 0)
(1.1184423 3.8857414e-05 0)
(1.1184298 3.2417904e-05 0)
(1.1184194 2.6862714e-05 0)
(1.1184106 2.2108921e-05 0)
(1.1184033 1.807133e-05 0)
(1.1183973 1.4669314e-05 0)
(1.1183924 1.1822247e-05 0)
(1.1183884 9.4600417e-06 0)
(1.1183851 7.5115647e-06 0)
(1.1183825 5.9241232e-06 0)
(1.1183805 4.6337317e-06 0)
(1.1183788 3.6111641e-06 0)
(1.1183776 2.7842072e-06 0)
(1.1183765 2.1675974e-06 0)
(1.1183758 1.6389605e-06 0)
(1.1183751 1.3341899e-06 0)
(1.1183747 9.4328142e-07 0)
(1.0007347 0.011814721 0)
(1.0178472 0.030860927 0)
(1.0462163 0.041434441 0)
(1.0799018 0.04519357 0)
(1.1132664 0.045502351 0)
(1.143782 0.044080308 0)
(1.1708941 0.041439982 0)
(1.1945687 0.037973678 0)
(1.2148582 0.034195729 0)
(1.2319652 0.030536887 0)
(1.2462683 0.027222045 0)
(1.2582339 0.02431392 0)
(1.2683135 0.021797888 0)
(1.2768875 0.01963366 0)
(1.2842554 0.017773827 0)
(1.2906479 0.016169653 0)
(1.296243 0.014775591 0)
(1.3011791 0.013552299 0)
(1.3055645 0.012467865 0)
(1.3094838 0.011497467 0)
(1.3130042 0.010622163 0)
(1.3161792 0.0098275143 0)
(1.3190526 0.0091024123 0)
(1.3216607 0.0084381785 0)
(1.3240343 0.0078279062 0)
(1.3261995 0.0072659776 0)
(1.3281786 0.0067477128 0)
(1.3299913 0.0062691216 0)
(1.3316544 0.0058267329 0)
(1.3331828 0.0054174793 0)
(1.3345896 0.0050386186 0)
(1.3358861 0.0046876804 0)
(1.3370827 0.0043624268 0)
(1.3381882 0.004060823 0)
(1.3392108 0.0037810143 0)
(1.3401576 0.003521307 0)
(1.3410349 0.0032801526 0)
(1.3418486 0.0030561338 0)
(1.3426038 0.0028479519 0)
(1.3433051 0.0026544162 0)
(1.3439569 0.0024744336 0)
(1.3445629 0.0023069998 0)
(1.3451267 0.002151191 0)
(1.3456513 0.0020061565 0)
(1.3461397 0.0018711116 0)
(1.3465946 0.0017453312 0)
(1.3470184 0.0016281446 0)
(1.3474132 0.0015189296 0)
(1.3477813 0.0014171083 0)
(1.3481243 0.0013221425 0)
(1.3484441 0.0012335305 0)
(1.3487422 0.0011508031 0)
(1.3490201 0.0010735213 0)
(1.3492792 0.001001274 0)
(1.3495206 0.00093367563 0)
(1.3497455 0.00087036538 0)
(1.3499549 0.00081100539 0)
(1.3501497 0.00075528101 0)
(1.3503308 0.0007028997 0)
(1.3504989 0.0006535921 0)
(1.3506549 0.00060711126 0)
(1.3507993 0.00056323414 0)
(1.3509328 0.00052176068 0)
(1.351056 0.00048251529 0)
(1.3511692 0.00044534522 0)
(1.3512732 0.00041012136 0)
(1.3513683 0.00037673582 0)
(1.3514549 0.00034510179 0)
(1.3515337 0.00031515023 0)
(1.3516049 0.000286829 0)
(1.351669 0.00026009875 0)
(1.3517265 0.00023493156 0)
(1.3517778 0.00021130638 0)
(1.3518232 0.00018920722 0)
(1.3518634 0.0001686189 0)
(1.3518986 0.00014952503 0)
(1.3519293 0.00013190503 0)
(1.3519559 0.00011573223 0)
(1.3519788 0.00010097268 0)
(1.3519984 8.7583728e-05 0)
(1.352015 7.5515127e-05 0)
(1.352029 6.4708354e-05 0)
(1.3520408 5.5098485e-05 0)
(1.3520506 4.6613707e-05 0)
(1.3520586 3.9178203e-05 0)
(1.3520652 3.2710523e-05 0)
(1.3520706 2.7128578e-05 0)
(1.3520749 2.2346184e-05 0)
(1.3520783 1.8281581e-05 0)
(1.352081 1.485027e-05 0)
(1.3520832 1.1979453e-05 0)
(1.3520849 9.5902764e-06 0)
(1.3520862 7.6284776e-06 0)
(1.3520872 6.0152536e-06 0)
(1.3520879 4.7294746e-06 0)
(1.3520886 3.6668602e-06 0)
(1.3520889 2.8796575e-06 0)
(1.3520893 2.1690011e-06 0)
(1.3520894 1.7759372e-06 0)
(1.3520898 1.2231588e-06 0)
(1.0005903 0.0034629158 0)
(1.0136865 0.0093660197 0)
(1.0370283 0.013046806 0)
(1.0674202 0.014563261 0)
(1.1000315 0.014854525 0)
(1.1316428 0.014564991 0)
(1.1610745 0.013888338 0)
(1.1880674 0.012919245 0)
(1.2125205 0.011806506 0)
(1.2343939 0.010696427 0)
(1.2538077 0.0096727421 0)
(1.2710339 0.0087628222 0)
(1.286401 0.007965974 0)
(1.3002112 0.0072722152 0)
(1.3127102 0.0066688094 0)
(1.3240903 0.0061419262 0)
(1.3345036 0.0056780732 0)
(1.3440716 0.005265322 0)
(1.3528927 0.0048939362 0)
(1.3610463 0.0045563969 0)
(1.3685975 0.004247071 0)
(1.3756004 0.0039617773 0)
(1.3821012 0.0036973994 0)
(1.3881402 0.0034515848 0)
(1.3937533 0.0032225215 0)
(1.3989728 0.0030087734 0)
(1.403828 0.0028091622 0)
(1.4083456 0.002622684 0)
(1.4125503 0.002448455 0)
(1.4164646 0.0022856765 0)
(1.4201094 0.0021336137 0)
(1.423504 0.0019915829 0)
(1.426666 0.0018589438 0)
(1.4296121 0.0017350945 0)
(1.4323573 0.0016194686 0)
(1.4349159 0.001511533 0)
(1.4373007 0.0014107861 0)
(1.4395241 0.0013167567 0)
(1.441597 0.001229002 0)
(1.4435301 0.0011471071 0)
(1.4453328 0.0010706829 0)
(1.4470143 0.00099936495 0)
(1.4485827 0.00093281225 0)
(1.4500458 0.00087070556 0)
(1.4514109 0.000812746 0)
(1.4526845 0.00075865374 0)
(1.4538728 0.00070816658 0)
(1.4549816 0.00066103865 0)
(1.4560163 0.00061703929 0)
(1.4569819 0.00057595181 0)
(1.4578828 0.00053757253 0)
(1.4587235 0.00050170973 0)
(1.4595078 0.00046818312 0)
(1.4602395 0.00043682261 0)
(1.4609219 0.00040746806 0)
(1.4615582 0.0003799687 0)
(1.4621512 0.00035418296 0)
(1.4627036 0.00032997808 0)
(1.4632179 0.00030723033 0)
(1.4636963 0.00028582485 0)
(1.4641409 0.00026565598 0)
(1.4645537 0.00024662733 0)
(1.4649363 0.00022865197 0)
(1.4652904 0.00021165257 0)
(1.4656176 0.00019556122 0)
(1.4659193 0.00018031944 0)
(1.4661967 0.00016587771 0)
(1.4664512 0.00015219513 0)
(1.466684 0.00013923869 0)
(1.4668963 0.00012698254 0)
(1.4670891 0.00011540686 0)
(1.4672637 0.00010449701 0)
(1.467421 9.4241759e-05 0)
(1.4675623 8.4632555e-05 0)
(1.4676885 7.5661643e-05 0)
(1.4678008 6.7321378e-05 0)
(1.4679001 5.9602966e-05 0)
(1.4679874 5.2495492e-05 0)
(1.4680639 4.5985725e-05 0)
(1.4681305 4.0057605e-05 0)
(1.4681881 3.4691874e-05 0)
(1.4682376 2.9866127e-05 0)
(1.46828 2.555498e-05 0)
(1.468316 2.1730185e-05 0)
(1.4683463 1.8361183e-05 0)
(1.4683718 1.5414907e-05 0)
(1.4683929 1.2857544e-05 0)
(1.4684104 1.0653335e-05 0)
(1.4684248 8.76829e-06 0)
(1.4684365 7.1667695e-06 0)
(1.468446 5.8184652e-06 0)
(1.4684537 4.6888338e-06 0)
(1.4684598 3.7560771e-06 0)
(1.4684647 2.9825332e-06 0)
(1.4684684 2.3637906e-06 0)
(1.4684716 1.8447015e-06 0)
(1.4684737 1.4615734e-06 0)
(1.4684757 1.1050808e-06 0)
(1.4684766 9.1186183e-07 0)
(1.4684785 6.2783317e-07 0)
(1.0005903 -0.0034629159 0)
(1.0136865 -0.0093660197 0)
(1.0370283 -0.013046806 0)
(1.0674202 -0.014563261 0)
(1.1000315 -0.014854524 0)
(1.1316428 -0.014564991 0)
(1.1610745 -0.013888338 0)
(1.1880674 -0.012919245 0)
(1.2125205 -0.011806506 0)
(1.2343939 -0.010696427 0)
(1.2538077 -0.009672742 0)
(1.2710339 -0.0087628219 0)
(1.286401 -0.0079659734 0)
(1.3002112 -0.0072722141 0)
(1.3127102 -0.0066688079 0)
(1.3240903 -0.0061419244 0)
(1.3345036 -0.0056780712 0)
(1.3440716 -0.0052653199 0)
(1.3528927 -0.004893934 0)
(1.3610463 -0.0045563947 0)
(1.3685975 -0.0042470686 0)
(1.3756004 -0.0039617745 0)
(1.3821012 -0.0036973958 0)
(1.3881402 -0.0034515802 0)
(1.3937533 -0.0032225157 0)
(1.3989728 -0.0030087663 0)
(1.403828 -0.0028091538 0)
(1.4083456 -0.0026226745 0)
(1.4125503 -0.0024484446 0)
(1.4164646 -0.0022856653 0)
(1.4201094 -0.0021336017 0)
(1.423504 -0.00199157 0)
(1.4266661 -0.0018589297 0)
(1.4296121 -0.0017350788 0)
(1.4323573 -0.0016194509 0)
(1.4349159 -0.001511513 0)
(1.4373007 -0.0014107637 0)
(1.4395241 -0.0013167319 0)
(1.4415971 -0.0012289753 0)
(1.4435301 -0.0011470787 0)
(1.4453329 -0.0010706534 0)
(1.4470143 -0.0009993348 0)
(1.4485827 -0.00093278184 0)
(1.4500459 -0.00087067519 0)
(1.4514109 -0.00081271589 0)
(1.4526845 -0.00075862423 0)
(1.4538728 -0.00070813814 0)
(1.4549817 -0.00066101201 0)
(1.4560164 -0.00061701542 0)
(1.4569819 -0.0005759319 0)
(1.4578829 -0.0005375579 0)
(1.4587235 -0.00050170188 0)
(1.4595079 -0.00046818306 0)
(1.4602396 -0.00043683156 0)
(1.4609219 -0.00040748681 0)
(1.4615582 -0.00037999826 0)
(1.4621512 -0.0003542236 0)
(1.4627036 -0.00033003041 0)
(1.4632179 -0.00030729399 0)
(1.4636963 -0.00028589986 0)
(1.4641409 -0.00026574114 0)
(1.4645537 -0.00024672188 0)
(1.4649363 -0.0002287538 0)
(1.4652904 -0.00021176016 0)
(1.4656176 -0.00019567198 0)
(1.4659192 -0.00018043174 0)
(1.4661967 -0.00016598916 0)
(1.4664512 -0.00015230452 0)
(1.4666839 -0.00013934389 0)
(1.4668962 -0.00012708244 0)
(1.467089 -0.00011549898 0)
(1.4672636 -0.00010457964 0)
(1.4674209 -9.4312165e-05 0)
(1.4675622 -8.4689084e-05 0)
(1.4676884 -7.5702829e-05 0)
(1.4678007 -6.7347081e-05 0)
(1.4678999 -5.9613947e-05 0)
(1.4679873 -5.2493612e-05 0)
(1.4680638 -4.5973375e-05 0)
(1.4681304 -4.0036696e-05 0)
(1.468188 -3.466386e-05 0)
(1.4682375 -2.9831823e-05 0)
(1.4682799 -2.5514749e-05 0)
(1.4683159 -2.1683879e-05 0)
(1.4683462 -1.8309444e-05 0)
(1.4683717 -1.5358108e-05 0)
(1.4683929 -1.2797767e-05 0)
(1.4684104 -1.0592002e-05 0)
(1.4684247 -8.7079633e-06 0)
(1.4684365 -7.1084468e-06 0)
(1.468446 -5.7634378e-06 0)
(1.4684537 -4.6365909e-06 0)
(1.4684598 -3.7065038e-06 0)
(1.4684647 -2.9346916e-06 0)
(1.4684684 -2.3175432e-06 0)
(1.4684715 -1.8004832e-06 0)
(1.4684736 -1.4190395e-06 0)
(1.4684757 -1.0658078e-06 0)
(1.4684766 -8.7497571e-07 0)
(1.4684784 -5.9356292e-07 0)
(1.0007347 -0.011814721 0)
(1.0178472 -0.030860927 0)
(1.0462163 -0.041434441 0)
(1.0799018 -0.04519357 0)
(1.1132664 -0.045502351 0)
(1.143782 -0.044080308 0)
(1.1708941 -0.041439982 0)
(1.1945687 -0.037973678 0)
(1.2148582 -0.034195729 0)
(1.2319652 -0.030536887 0)
(1.2462683 -0.027222045 0)
(1.2582339 -0.02431392 0)
(1.2683135 -0.021797888 0)
(1.2768875 -0.019633659 0)
(1.2842554 -0.017773826 0)
(1.2906479 -0.016169651 0)
(1.296243 -0.014775589 0)
(1.3011791 -0.013552297 0)
(1.3055645 -0.012467863 0)
(1.3094838 -0.011497465 0)
(1.3130042 -0.010622161 0)
(1.3161792 -0.0098275118 0)
(1.3190526 -0.0091024091 0)
(1.3216607 -0.0084381743 0)
(1.3240343 -0.007827901 0)
(1.3261995 -0.0072659712 0)
(1.3281786 -0.0067477053 0)
(1.3299913 -0.0062691132 0)
(1.3316544 -0.0058267239 0)
(1.3331829 -0.0054174697 0)
(1.3345896 -0.0050386084 0)
(1.3358862 -0.0046876695 0)
(1.3370827 -0.0043624148 0)
(1.3381883 -0.0040608096 0)
(1.3392108 -0.0037809991 0)
(1.3401576 -0.0035212899 0)
(1.3410349 -0.0032801335 0)
(1.3418486 -0.0030561128 0)
(1.3426038 -0.0028479294 0)
(1.3433052 -0.0026543926 0)
(1.343957 -0.0024744093 0)
(1.344563 -0.0023069753 0)
(1.3451267 -0.0021511667 0)
(1.3456514 -0.0020061325 0)
(1.3461398 -0.0018710881 0)
(1.3465947 -0.0017453085 0)
(1.3470185 -0.0016281231 0)
(1.3474134 -0.0015189099 0)
(1.3477814 -0.0014170912 0)
(1.3481244 -0.0013221291 0)
(1.3484442 -0.0012335217 0)
(1.3487424 -0.0011507999 0)
(1.3490203 -0.001073525 0)
(1.3492793 -0.0010012854 0)
(1.3495207 -0.0009336955 0)
(1.3497456 -0.00087039399 0)
(1.349955 -0.00081104324 0)
(1.3501498 -0.00075532791 0)
(1.3503309 -0.00070295577 0)
(1.350499 -0.00065365658 0)
(1.350655 -0.0006071837 0)
(1.3507994 -0.00056331305 0)
(1.3509329 -0.00052184497 0)
(1.3510559 -0.00048260293 0)
(1.3511692 -0.00044543483 0)
(1.3512731 -0.00041021102 0)
(1.3513682 -0.00037682446 0)
(1.3514548 -0.00034518787 0)
(1.3515335 -0.00031523302 0)
(1.3516047 -0.00028690689 0)
(1.3516688 -0.00026017058 0)
(1.3517262 -0.00023499521 0)
(1.3517775 -0.0002113602 0)
(1.351823 -0.00018924949 0)
(1.3518631 -0.00016864885 0)
(1.3518983 -0.00014954277 0)
(1.351929 -0.00013191158 0)
(1.3519556 -0.00011572918 0)
(1.3519785 -0.00010096167 0)
(1.3519981 -8.7566504e-05 0)
(1.3520147 -7.5492742e-05 0)
(1.3520287 -6.4681283e-05 0)
(1.3520405 -5.5066527e-05 0)
(1.3520503 -4.6576986e-05 0)
(1.3520584 -3.9136531e-05 0)
(1.352065 -3.2665139e-05 0)
(1.3520703 -2.7080443e-05 0)
(1.3520747 -2.2297562e-05 0)
(1.3520781 -1.823375e-05 0)
(1.3520809 -1.4804838e-05 0)
(1.352083 -1.1936514e-05 0)
(1.3520848 -9.550126e-06 0)
(1.352086 -7.5900354e-06 0)
(1.3520871 -5.9785797e-06 0)
(1.3520878 -4.6936892e-06 0)
(1.3520885 -3.6326625e-06 0)
(1.3520888 -2.8463824e-06 0)
(1.3520893 -2.1380829e-06 0)
(1.3520893 -1.7462377e-06 0)
(1.3520898 -1.1963048e-06 0)
(1.0014244 -0.026824855 0)
(1.0291272 -0.062791352 0)
(1.0654292 -0.077736553 0)
(1.098962 -0.0805972 0)
(1.1253149 -0.078285171 0)
(1.145053 -0.0731539 0)
(1.1594858 -0.066111278 0)
(1.1694287 -0.058162063 0)
(1.1755354 -0.050296754 0)
(1.1785738 -0.043150708 0)
(1.1793571 -0.036972825 0)
(1.1785949 -0.031771632 0)
(1.1768304 -0.027451839 0)
(1.1744518 -0.023886767 0)
(1.1717287 -0.020947619 0)
(1.1688444 -0.01851578 0)
(1.1659195 -0.016488085 0)
(1.1630317 -0.014779503 0)
(1.1602295 -0.013322985 0)
(1.1575415 -0.012067132 0)
(1.1549828 -0.010973 0)
(1.1525601 -0.01001106 0)
(1.1502747 -0.0091587447 0)
(1.1481246 -0.0083986018 0)
(1.1461059 -0.007716948 0)
(1.1442135 -0.0071028858 0)
(1.1424415 -0.0065475897 0)
(1.1407838 -0.0060437935 0)
(1.1392344 -0.0055854245 0)
(1.1377869 -0.005167343 0)
(1.1364353 -0.0047851551 0)
(1.1351738 -0.0044350739 0)
(1.1339968 -0.0041138141 0)
(1.1328988 -0.0038185101 0)
(1.1318746 -0.0035466505 0)
(1.1309196 -0.0032960254 0)
(1.130029 -0.0030646826 0)
(1.1291985 -0.0028508914 0)
(1.1284242 -0.0026531121 0)
(1.1277023 -0.0024699707 0)
(1.1270291 -0.0023002363 0)
(1.1264014 -0.0021428034 0)
(1.1258162 -0.0019966753 0)
(1.1252704 -0.0018609508 0)
(1.1247614 -0.0017348123 0)
(1.1242867 -0.0016175153 0)
(1.123844 -0.0015083795 0)
(1.1234311 -0.0014067811 0)
(1.123046 -0.0013121462 0)
(1.1226868 -0.0012239443 0)
(1.1223518 -0.0011416843 0)
(1.1220393 -0.0010649096 0)
(1.1217479 -0.0009931953 0)
(1.1214761 -0.00092614449 0)
(1.1212226 -0.00086338759 0)
(1.1209864 -0.00080457923 0)
(1.1207662 -0.00074939893 0)
(1.120561 -0.0006975485 0)
(1.12037 -0.00064875427 0)
(1.1201922 -0.00060276451 0)
(1.1200268 -0.00055935291 0)
(1.1198732 -0.0005183154 0)
(1.1197305 -0.00047947435 0)
(1.1195983 -0.00044267434 0)
(1.119476 -0.00040778602 0)
(1.1193629 -0.00037470057 0)
(1.1192587 -0.00034333264 0)
(1.1191628 -0.00031361359 0)
(1.1190748 -0.00028549373 0)
(1.1189943 -0.00025893452 0)
(1.1189208 -0.00023391103 0)
(1.1188541 -0.0002104036 0)
(1.1187937 -0.00018840018 0)
(1.1187392 -0.00016788839 0)
(1.1186903 -0.00014885656 0)
(1.1186466 -0.00013128776 0)
(1.1186077 -0.00011515925 0)
(1.1185733 -0.00010043952 0)
(1.118543 -8.7088049e-05 0)
(1.1185165 -7.505461e-05 0)
(1.1184935 -6.4280968e-05 0)
(1.1184736 -5.4701143e-05 0)
(1.1184565 -4.6244025e-05 0)
(1.1184419 -3.8833773e-05 0)
(1.1184295 -3.2390961e-05 0)
(1.1184191 -2.6834135e-05 0)
(1.1184104 -2.2079259e-05 0)
(1.1184031 -1.8042642e-05 0)
(1.1183971 -1.464181e-05 0)
(1.1183922 -1.1796935e-05 0)
(1.1183882 -9.4361161e-06 0)
(1.118385 -7.4893129e-06 0)
(1.1183824 -5.9024114e-06 0)
(1.1183804 -4.6133251e-06 0)
(1.1183787 -3.5913113e-06 0)
(1.1183775 -2.7652589e-06 0)
(1.1183765 -2.1491562e-06 0)
(1.1183757 -1.6212834e-06 0)
(1.1183751 -1.3167353e-06 0)
(1.1183747 -9.276228e-07 0)
(1.0016583 -0.05381943 0)
(1.0359761 -0.10128444 0)
(1.0597199 -0.11073663 0)
(1.0628947 -0.10592202 0)
(1.0515569 -0.096228728 0)
(1.0340529 -0.083934061 0)
(1.0142795 -0.070327063 0)
(0.99360703 -0.056981333 0)
(0.97292577 -0.045107479 0)
(0.9531074 -0.03523675 0)
(0.93479538 -0.02740165 0)
(0.91829012 -0.021387227 0)
(0.90362379 -0.016884498 0)
(0.89068067 -0.013569708 0)
(0.87928175 -0.011147748 0)
(0.86923242 -0.0093736591 0)
(0.86034423 -0.0080569287 0)
(0.85244667 -0.0070571281 0)
(0.84539241 -0.0062752387 0)
(0.83905793 -0.0056438283 0)
(0.83334127 -0.00511809 0)
(0.82815884 -0.0046686706 0)
(0.82344213 -0.0042764152 0)
(0.81913468 -0.0039287367 0)
(0.81518962 -0.0036172018 0)
(0.81156766 -0.0033359694 0)
(0.80823545 -0.0030808037 0)
(0.80516441 -0.0028484691 0)
(0.80232979 -0.0026363696 0)
(0.79971 -0.0024423385 0)
(0.79728598 -0.0022645182 0)
(0.79504087 -0.0021012888 0)
(0.79295964 -0.0019512239 0)
(0.79102882 -0.0018130618 0)
(0.7892363 -0.0016856832 0)
(0.78757113 -0.0015680938 0)
(0.78602341 -0.0014594091 0)
(0.78458414 -0.0013588414 0)
(0.78324513 -0.0012656882 0)
(0.78199891 -0.0011793211 0)
(0.78083863 -0.0010991771 0)
(0.77975802 -0.0010247501 0)
(0.77875133 -0.00095558381 0)
(0.77781326 -0.00089126543 0)
(0.77693894 -0.00083141991 0)
(0.77612388 -0.00077570533 0)
(0.77536394 -0.00072380851 0)
(0.7746553 -0.00067544146 0)
(0.77399441 -0.00063033815 0)
(0.77337804 -0.00058825215 0)
(0.77280316 -0.00054895411 0)
(0.772267 -0.00051223054 0)
(0.77176699 -0.00047788167 0)
(0.77130078 -0.00044572133 0)
(0.77086619 -0.00041557506 0)
(0.77046121 -0.00038728083 0)
(0.77008401 -0.00036068725 0)
(0.7697329 -0.00033565516 0)
(0.76940632 -0.00031205593 0)
(0.76910285 -0.0002897737 0)
(0.76882119 -0.00026870348 0)
(0.76856013 -0.00024875372 0)
(0.76831855 -0.00022984416 0)
(0.76809543 -0.00021190795 0)
(0.76788979 -0.00019488887 0)
(0.76770072 -0.0001787428 0)
(0.76752736 -0.00016343441 0)
(0.76736888 -0.00014893799 0)
(0.76722448 -0.00013523375 0)
(0.76709339 -0.00012230877 0)
(0.76697483 -0.00011015328 0)
(0.76686806 -9.8761444e-05 0)
(0.76677233 -8.8128135e-05 0)
(0.7666869 -7.8248539e-05 0)
(0.76661103 -6.9115996e-05 0)
(0.76654399 -6.072036e-05 0)
(0.76648508 -5.3047333e-05 0)
(0.7664336 -4.6076964e-05 0)
(0.76638887 -3.9784488e-05 0)
(0.76635025 -3.4140175e-05 0)
(0.76631711 -2.9111089e-05 0)
(0.76628885 -2.4661142e-05 0)
(0.76626491 -2.0753278e-05 0)
(0.76624475 -1.7347668e-05 0)
(0.7662279 -1.440487e-05 0)
(0.76621389 -1.188183e-05 0)
(0.76620232 -9.7369275e-06 0)
(0.76619284 -7.9256024e-06 0)
(0.76618512 -6.4076117e-06 0)
(0.76617889 -5.1419785e-06 0)
(0.76617391 -4.0959028e-06 0)
(0.76616995 -3.2357055e-06 0)
(0.76616681 -2.5390977e-06 0)
(0.76616437 -1.9771641e-06 0)
(0.76616244 -1.5360274e-06 0)
(0.76616097 -1.1852257e-06 0)
(0.76615978 -9.2391689e-07 0)
(0.76615892 -7.125492e-07 0)
(0.7661582 -5.8513457e-07 0)
(0.76615765 -4.4976659e-07 0)
(0.91890839 -0.035821913 0)
(0.86271384 -0.062195638 0)
(0.7870597 -0.06251009 0)
(0.69536033 -0.054550395 0)
(0.61089745 -0.044531651 0)
(0.54411592 -0.034015971 0)
(0.49343012 -0.024187539 0)
(0.45479413 -0.01614423 0)
(0.42544582 -0.010265786 0)
(0.40347313 -0.0063041452 0)
(0.38715767 -0.0037976293 0)
(0.3749622 -0.0023103379 0)
(0.36566193 -0.0014930147 0)
(0.35836272 -0.001085118 0)
(0.35244268 -0.00090607228 0)
(0.34748201 -0.0008410519 0)
(0.34320348 -0.00082372444 0)
(0.33942726 -0.00081931073 0)
(0.33603793 -0.00081185218 0)
(0.33296114 -0.00079580119 0)
(0.33014778 -0.00077081117 0)
(0.32756384 -0.00073870898 0)
(0.3251842 -0.00070188871 0)
(0.32298903 -0.00066256511 0)
(0.32096173 -0.00062249925 0)
(0.31908785 -0.00058295743 0)
(0.31735449 -0.0005447719 0)
(0.31574996 -0.00050843473 0)
(0.3142636 -0.00047419228 0)
(0.31288574 -0.00044212524 0)
(0.31160755 -0.00041220993 0)
(0.31042101 -0.00038436196 0)
(0.30931883 -0.0003584653 0)
(0.30829439 -0.00033439096 0)
(0.30734166 -0.00031200808 0)
(0.30645516 -0.00029119021 0)
(0.30562991 -0.00027181856 0)
(0.30486136 -0.00025378312 0)
(0.30414534 -0.00023698304 0)
(0.30347804 -0.0002213261 0)
(0.30285597 -0.00020672814 0)
(0.3022759 -0.00019311232 0)
(0.30173489 -0.00018040825 0)
(0.3012302 -0.00016855143 0)
(0.30075931 -0.00015748236 0)
(0.30031989 -0.00014714605 0)
(0.29990978 -0.0001374914 0)
(0.299527 -0.00012847073 0)
(0.29916969 -0.00012003936 0)
(0.29883615 -0.00011215545 0)
(0.29852479 -0.00010477948 0)
(0.29823416 -9.7874442e-05 0)
(0.2979629 -9.1405145e-05 0)
(0.29770976 -8.5338891e-05 0)
(0.2974736 -7.9644352e-05 0)
(0.29725335 -7.4292716e-05 0)
(0.29704804 -6.9256228e-05 0)
(0.29685678 -6.4509918e-05 0)
(0.29667873 -6.0029725e-05 0)
(0.29651316 -5.5794722e-05 0)
(0.29635937 -5.178488e-05 0)
(0.29621672 -4.798383e-05 0)
(0.29608463 -4.4376128e-05 0)
(0.29596254 -4.0950128e-05 0)
(0.29584995 -3.7694922e-05 0)
(0.29574638 -3.460323e-05 0)
(0.29565136 -3.1668015e-05 0)
(0.29556445 -2.8885374e-05 0)
(0.29548524 -2.6251019e-05 0)
(0.29541331 -2.3763425e-05 0)
(0.29534824 -2.1420327e-05 0)
(0.29528963 -1.9221673e-05 0)
(0.29523708 -1.7166539e-05 0)
(0.29519018 -1.525509e-05 0)
(0.29514854 -1.3486428e-05 0)
(0.29511174 -1.1859275e-05 0)
(0.29507941 -1.0371037e-05 0)
(0.29505116 -9.0178673e-06 0)
(0.29502662 -7.7947891e-06 0)
(0.29500544 -6.6959109e-06 0)
(0.29498727 -5.7150088e-06 0)
(0.29497179 -4.8453243e-06 0)
(0.29495868 -4.0805984e-06 0)
(0.29494765 -3.4134735e-06 0)
(0.29493844 -2.8374529e-06 0)
(0.29493077 -2.3436967e-06 0)
(0.29492445 -1.9245913e-06 0)
(0.29491926 -1.5701476e-06 0)
(0.29491503 -1.2727236e-06 0)
(0.29491162 -1.0232051e-06 0)
(0.2949089 -8.1615569e-07 0)
(0.29490673 -6.4473167e-07 0)
(0.29490503 -5.064921e-07 0)
(0.29490369 -3.9503486e-07 0)
(0.29490264 -3.0926445e-07 0)
(0.29490183 -2.4211186e-07 0)
(0.29490118 -1.9398492e-07 0)
(0.29490069 -1.5740927e-07 0)
(0.29490028 -1.3885725e-07 0)
(0.29489992 -1.2461735e-07 0)
)
;

boundaryField
{
    top
    {
        type            fixedValue;
        value           uniform (0 0 0);
    }
    inlet
    {
        type            fixedValue;
        value           uniform (1 0 0);
    }
    outlet
    {
        type            zeroGradient;
    }
    bottom
    {
        type            fixedValue;
        value           uniform (0 0 0);
    }
    back
    {
        type            empty;
    }
    front
    {
        type            empty;
    }
}


// ************************************************************************* //
