/*--------------------------------*- C++ -*----------------------------------*\
| =========                 |                                                 |
| \\      /  F ield         | OpenFOAM: The Open Source CFD Toolbox           |
|  \\    /   O peration     | Version:  v1812                                 |
|   \\  /    A nd           | Web:      www.OpenFOAM.com                      |
|    \\/     M anipulation  |                                                 |
\*---------------------------------------------------------------------------*/
FoamFile
{
    version     2.0;
    format      ascii;
    class       volVectorField;
    location    "6";
    object      U;
}
// * * * * * * * * * * * * * * * * * * * * * * * * * * * * * * * * * * * * * //

dimensions      [0 1 -1 0 0 0 0];


internalField   nonuniform List<vector> 
1000
(
(0.91890839 0.035821913 0)
(0.86271384 0.062195638 0)
(0.7870597 0.06251009 0)
(0.69536033 0.054550395 0)
(0.61089745 0.044531651 0)
(0.54411592 0.034015971 0)
(0.49343012 0.024187539 0)
(0.45479413 0.01614423 0)
(0.42544582 0.010265786 0)
(0.40347313 0.0063041454 0)
(0.38715766 0.0037976296 0)
(0.37496219 0.0023103384 0)
(0.36566192 0.0014930151 0)
(0.35836272 0.0010851185 0)
(0.35244267 0.00090607258 0)
(0.347482 0.00084105201 0)
(0.34320347 0.0008237244 0)
(0.33942725 0.00081931064 0)
(0.33603792 0.00081185221 0)
(0.33296113 0.00079580151 0)
(0.33014777 0.00077081197 0)
(0.32756383 0.00073871045 0)
(0.32518418 0.00070189107 0)
(0.322989 0.0006625687 0)
(0.32096169 0.00062250449 0)
(0.31908781 0.0005829649 0)
(0.31735444 0.00054478223 0)
(0.3157499 0.00050844864 0)
(0.31426353 0.00047421042 0)
(0.31288566 0.00044214785 0)
(0.31160745 0.00041223628 0)
(0.31042091 0.00038438948 0)
(0.30931874 0.00035848871 0)
(0.30829434 0.000334401 0)
(0.30734172 0.00031199018 0)
(0.30645545 0.00029112267 0)
(0.30563059 0.0002716709 0)
(0.30486268 0.00025351407 0)
(0.30414768 0.00023653913 0)
(0.3034819 0.00022063966 0)
(0.30286206 0.00020571694 0)
(0.30228515 0.00019167844 0)
(0.30174848 0.00017843967 0)
(0.30124964 0.00016592246 0)
(0.30078646 0.00015405776 0)
(0.30035696 0.00014278358 0)
(0.29995939 0.00013204825 0)
(0.29959215 0.00012180777 0)
(0.29925378 0.0001120292 0)
(0.2989429 0.0001026871 0)
(0.29865824 9.3766404e-05 0)
(0.29839857 8.5258289e-05 0)
(0.29816269 7.7162366e-05 0)
(0.29794942 6.9481933e-05 0)
(0.29775756 6.2225487e-05 0)
(0.2975859 5.5402161e-05 0)
(0.29743321 4.9022702e-05 0)
(0.29729824 4.3095384e-05 0)
(0.29717971 3.762676e-05 0)
(0.29707633 3.2618794e-05 0)
(0.29698681 2.8069477e-05 0)
(0.29690986 2.397126e-05 0)
(0.29684423 2.0311689e-05 0)
(0.29678869 1.7073324e-05 0)
(0.29674208 1.4234153e-05 0)
(0.29670328 1.1768695e-05 0)
(0.29667125 9.6481414e-06 0)
(0.29664504 7.8423732e-06 0)
(0.29662378 6.3194817e-06 0)
(0.29660669 5.0483299e-06 0)
(0.29659307 3.9974427e-06 0)
(0.29658232 3.1378383e-06 0)
(0.2965739 2.441092e-06 0)
(0.29656737 1.882483e-06 0)
(0.29656236 1.4384352e-06 0)
(0.29655855 1.0896059e-06 0)
(0.29655567 8.1765462e-07 0)
(0.29655352 6.0839651e-07 0)
(0.29655193 4.4830399e-07 0)
(0.29655076 3.2771097e-07 0)
(0.29654992 2.3709854e-07 0)
(0.29654931 1.7030392e-07 0)
(0.29654887 1.2091243e-07 0)
(0.29654857 8.5402436e-08 0)
(0.29654835 5.9613107e-08 0)
(0.2965482 4.1643051e-08 0)
(0.2965481 2.8831655e-08 0)
(0.29654803 2.0172725e-08 0)
(0.29654797 1.4102323e-08 0)
(0.29654794 1.0006562e-08 0)
(0.29654792 7.3985337e-09 0)
(0.29654791 5.8377526e-09 0)
(0.29654789 5.9156063e-09 0)
(0.29654789 7.0032595e-09 0)
(0.29654787 1.1554009e-08 0)
(0.29654785 1.8519114e-08 0)
(0.2965478 3.2590952e-08 0)
(0.29654777 5.4857398e-08 0)
(0.2965476 1.0179789e-07 0)
(0.29654748 1.4906837e-07 0)
(1.0016583 0.05381943 0)
(1.0359761 0.10128444 0)
(1.0597199 0.11073663 0)
(1.0628947 0.10592202 0)
(1.0515569 0.096228728 0)
(1.0340529 0.083934061 0)
(1.0142795 0.070327063 0)
(0.99360703 0.056981334 0)
(0.97292577 0.045107479 0)
(0.95310739 0.03523675 0)
(0.93479538 0.027401651 0)
(0.91829011 0.021387228 0)
(0.90362378 0.0168845 0)
(0.89068067 0.01356971 0)
(0.87928174 0.01114775 0)
(0.86923241 0.0093736607 0)
(0.86034422 0.0080569302 0)
(0.85244666 0.0070571295 0)
(0.8453924 0.0062752402 0)
(0.83905792 0.0056438302 0)
(0.83334125 0.0051180923 0)
(0.82815883 0.0046686732 0)
(0.82344211 0.0042764177 0)
(0.81913467 0.0039287381 0)
(0.81518963 0.0036172008 0)
(0.81156768 0.0033359637 0)
(0.8082355 0.0030807901 0)
(0.80516451 0.0028484426 0)
(0.80232997 0.002636322 0)
(0.79971029 0.0024422574 0)
(0.79728645 0.0022643842 0)
(0.79504161 0.0021010722 0)
(0.79296078 0.0019508805 0)
(0.79103054 0.0018125266 0)
(0.78923886 0.0016848643 0)
(0.7875749 0.001566864 0)
(0.78602891 0.0014575975 0)
(0.78459206 0.0013562242 0)
(0.78325639 0.00126198 0)
(0.78201471 0.0011741677 0)
(0.78086051 0.0010921508 0)
(0.77978795 0.0010153482 0)
(0.77879174 0.00094323214 0)
(0.77786713 0.00087532648 0)
(0.77700984 0.00081120794 0)
(0.77621601 0.0007505059 0)
(0.77548216 0.0006929045 0)
(0.77480512 0.00063814184 0)
(0.77418198 0.0005860108 0)
(0.77361007 0.00053635596 0)
(0.77308685 0.00048907124 0)
(0.77260993 0.00044409384 0)
(0.77217698 0.0004013987 0)
(0.77178571 0.00036098967 0)
(0.77143384 0.00032289176 0)
(0.77111908 0.00028714119 0)
(0.77083913 0.0002537773 0)
(0.77059164 0.00022283331 0)
(0.77037426 0.00019432987 0)
(0.77018461 0.0001682685 0)
(0.77002032 0.00014462816 0)
(0.76987905 0.00012336212 0)
(0.76975848 0.00010439817 0)
(0.7696564 8.763907e-05 0)
(0.76957065 7.2965705e-05 0)
(0.76949924 6.0240056e-05 0)
(0.76944024 4.9310181e-05 0)
(0.76939194 4.0014585e-05 0)
(0.76935272 3.2187325e-05 0)
(0.76932118 2.566236e-05 0)
(0.76929602 2.0277756e-05 0)
(0.76927614 1.5879195e-05 0)
(0.76926058 1.2322418e-05 0)
(0.76924851 9.4755282e-06 0)
(0.76923923 7.2198249e-06 0)
(0.76923217 5.4508171e-06 0)
(0.76922684 4.077497e-06 0)
(0.76922286 3.0222648e-06 0)
(0.76921991 2.2195353e-06 0)
(0.76921776 1.6151044e-06 0)
(0.76921618 1.1645522e-06 0)
(0.76921506 8.3197225e-07 0)
(0.76921425 5.8904437e-07 0)
(0.76921369 4.1322533e-07 0)
(0.76921329 2.8776485e-07 0)
(0.76921302 1.9874944e-07 0)
(0.76921282 1.3698231e-07 0)
(0.7692127 9.3591824e-08 0)
(0.7692126 6.4609349e-08 0)
(0.76921256 4.3789398e-08 0)
(0.7692125 3.1272063e-08 0)
(0.7692125 2.2076052e-08 0)
(0.76921245 1.9759594e-08 0)
(0.76921247 1.9564246e-08 0)
(0.7692124 2.7521584e-08 0)
(0.76921244 4.0450589e-08 0)
(0.76921232 6.4349855e-08 0)
(0.76921241 1.0555578e-07 0)
(0.76921209 1.639273e-07 0)
(0.76921237 2.6934429e-07 0)
(1.0014244 0.026824855 0)
(1.0291272 0.062791352 0)
(1.0654292 0.077736553 0)
(1.098962 0.0805972 0)
(1.1253149 0.078285171 0)
(1.145053 0.0731539 0)
(1.1594858 0.066111279 0)
(1.1694287 0.058162064 0)
(1.1755354 0.050296755 0)
(1.1785738 0.043150709 0)
(1.1793571 0.036972826 0)
(1.1785949 0.031771633 0)
(1.1768304 0.027451841 0)
(1.1744518 0.02388677 0)
(1.1717287 0.020947622 0)
(1.1688444 0.018515783 0)
(1.1659195 0.016488088 0)
(1.1630317 0.014779506 0)
(1.1602295 0.013322988 0)
(1.1575415 0.012067135 0)
(1.1549828 0.010973003 0)
(1.1525601 0.010011063 0)
(1.1502747 0.0091587469 0)
(1.1481246 0.0083986015 0)
(1.1461059 0.0077169424 0)
(1.1442134 0.0071028706 0)
(1.1424414 0.0065475586 0)
(1.1407838 0.0060437365 0)
(1.1392344 0.0055853262 0)
(1.137787 0.0051671801 0)
(1.1364355 0.0047848926 0)
(1.1351741 0.00443466 0)
(1.1339973 0.0041131729 0)
(1.1328995 0.0038175325 0)
(1.1318757 0.0035451832 0)
(1.1309212 0.0032938578 0)
(1.1300313 0.0030615317 0)
(1.1292018 0.0028463859 0)
(1.1284288 0.0026467757 0)
(1.1277085 0.0024612072 0)
(1.1270376 0.0022883174 0)
(1.1264128 0.0021268623 0)
(1.1258312 0.0019757059 0)
(1.1252901 0.0018338169 0)
(1.124787 0.0017002657 0)
(1.1243196 0.0015742262 0)
(1.1238859 0.0014549759 0)
(1.1234839 0.001341899 0)
(1.123112 0.0012344856 0)
(1.1227686 0.0011323315 0)
(1.1224521 0.0010351333 0)
(1.1221613 0.00094268217 0)
(1.1218949 0.00085485302 0)
(1.1216517 0.00077159219 0)
(1.1214305 0.00069290157 0)
(1.1212303 0.00061882205 0)
(1.1210499 0.00054941576 0)
(1.1208882 0.00048474856 0)
(1.120744 0.00042487445 0)
(1.1206164 0.0003698209 0)
(1.120504 0.00031957873 0)
(1.1204058 0.00027409313 0)
(1.1203206 0.00023326077 0)
(1.1202471 0.00019692764 0)
(1.1201844 0.00016489303 0)
(1.1201312 0.00013691309 0)
(1.1200864 0.00011270993 0)
(1.1200491 9.197855e-05 0)
(1.1200183 7.43981e-05 0)
(1.119993 5.9639475e-05 0)
(1.1199725 4.737623e-05 0)
(1.119956 3.729049e-05 0)
(1.1199428 2.9081663e-05 0)
(1.1199324 2.2469194e-05 0)
(1.1199243 1.7198472e-05 0)
(1.119918 1.3040429e-05 0)
(1.1199132 9.794948e-06 0)
(1.1199095 7.2874941e-06 0)
(1.1199068 5.3710712e-06 0)
(1.1199047 3.9208096e-06 0)
(1.1199032 2.8355636e-06 0)
(1.1199021 2.030864e-06 0)
(1.1199013 1.4414475e-06 0)
(1.1199007 1.0129908e-06 0)
(1.1199003 7.0633586e-07 0)
(1.1199 4.8762641e-07 0)
(1.1198998 3.3516734e-07 0)
(1.1198997 2.2788914e-07 0)
(1.1198995 1.5550851e-07 0)
(1.1198995 1.0457821e-07 0)
(1.1198994 7.2215984e-08 0)
(1.1198995 4.9957878e-08 0)
(1.1198994 3.8964397e-08 0)
(1.1198994 3.5713967e-08 0)
(1.1198993 3.9774411e-08 0)
(1.1198994 5.6714863e-08 0)
(1.1198993 7.5053623e-08 0)
(1.1198995 1.2463707e-07 0)
(1.1198991 1.6555687e-07 0)
(1.1198996 2.5673597e-07 0)
(1.0007347 0.011814722 0)
(1.0178472 0.030860927 0)
(1.0462163 0.041434442 0)
(1.0799018 0.04519357 0)
(1.1132664 0.045502351 0)
(1.143782 0.044080308 0)
(1.1708941 0.041439982 0)
(1.1945687 0.037973678 0)
(1.2148582 0.03419573 0)
(1.2319652 0.030536888 0)
(1.2462683 0.027222046 0)
(1.2582339 0.024313922 0)
(1.2683135 0.02179789 0)
(1.2768875 0.019633662 0)
(1.2842554 0.017773829 0)
(1.2906479 0.016169655 0)
(1.296243 0.014775594 0)
(1.3011791 0.013552302 0)
(1.3055645 0.012467868 0)
(1.3094838 0.011497471 0)
(1.3130041 0.010622166 0)
(1.3161791 0.0098275177 0)
(1.3190525 0.0091024144 0)
(1.3216607 0.0084381777 0)
(1.3240343 0.0078279002 0)
(1.3261994 0.0072659625 0)
(1.3281785 0.0067476828 0)
(1.3299912 0.0062690679 0)
(1.3316543 0.005826642 0)
(1.3331826 0.0054173303 0)
(1.3345892 0.0050383803 0)
(1.3358857 0.0046873067 0)
(1.337082 0.0043618506 0)
(1.3381872 0.0040599485 0)
(1.3392093 0.0037797075 0)
(1.3401554 0.0035193844 0)
(1.3410318 0.0032773682 0)
(1.3418441 0.0030521646 0)
(1.3425974 0.0028423832 0)
(1.3432962 0.0026467271 0)
(1.3439444 0.0024639841 0)
(1.3445457 0.0022930229 0)
(1.3451032 0.002132788 0)
(1.3456198 0.0019823013 0)
(1.346098 0.001840661 0)
(1.3465399 0.001707048 0)
(1.3469477 0.0015807256 0)
(1.3473231 0.0014610486 0)
(1.3476678 0.0013474613 0)
(1.3479833 0.0012395047 0)
(1.3482709 0.001136811 0)
(1.3485321 0.0010391061 0)
(1.3487682 0.00094619759 0)
(1.3489805 0.00085797217 0)
(1.3491704 0.00077437799 0)
(1.3493391 0.00069541612 0)
(1.349488 0.00062112009 0)
(1.3496186 0.00055154422 0)
(1.3497322 0.00048674347 0)
(1.3498304 0.00042676204 0)
(1.3499145 0.00037161742 0)
(1.3499859 0.0003212922 0)
(1.350046 0.00027572513 0)
(1.3500962 0.00023480792 0)
(1.3501376 0.00019838434 0)
(1.3501716 0.0001662519 0)
(1.3501991 0.00013816809 0)
(1.3502212 0.00011385539 0)
(1.3502388 9.3012175e-05 0)
(1.3502526 7.5318619e-05 0)
(1.3502633 6.0449769e-05 0)
(1.3502715 4.8079782e-05 0)
(1.3502778 3.7894617e-05 0)
(1.3502825 2.9593082e-05 0)
(1.350286 2.2897763e-05 0)
(1.3502886 1.7552253e-05 0)
(1.3502905 1.3330022e-05 0)
(1.3502918 1.0028039e-05 0)
(1.3502928 7.4740824e-06 0)
(1.3502935 5.5174631e-06 0)
(1.3502939 4.0357344e-06 0)
(1.3502942 2.9233558e-06 0)
(1.3502944 2.0988594e-06 0)
(1.3502946 1.4919895e-06 0)
(1.3502946 1.0521787e-06 0)
(1.3502947 7.3446213e-07 0)
(1.3502947 5.0978842e-07 0)
(1.3502948 3.5005138e-07 0)
(1.3502947 2.4016497e-07 0)
(1.3502948 1.6295107e-07 0)
(1.3502947 1.1182584e-07 0)
(1.3502948 7.7300092e-08 0)
(1.3502947 5.6713e-08 0)
(1.3502949 4.7794458e-08 0)
(1.3502947 4.5265374e-08 0)
(1.3502949 5.7069741e-08 0)
(1.3502947 6.6503006e-08 0)
(1.350295 1.0191531e-07 0)
(1.3502946 1.2580106e-07 0)
(1.3502952 1.8046288e-07 0)
(1.0005903 0.0034629159 0)
(1.0136865 0.0093660198 0)
(1.0370283 0.013046806 0)
(1.0674202 0.014563261 0)
(1.1000315 0.014854525 0)
(1.1316428 0.014564991 0)
(1.1610745 0.013888339 0)
(1.1880674 0.012919246 0)
(1.2125205 0.011806507 0)
(1.2343939 0.010696428 0)
(1.2538077 0.0096727436 0)
(1.2710339 0.008762824 0)
(1.286401 0.0079659761 0)
(1.3002112 0.0072722176 0)
(1.3127102 0.0066688121 0)
(1.3240903 0.0061419294 0)
(1.3345036 0.0056780769 0)
(1.3440716 0.0052653264 0)
(1.3528927 0.0048939414 0)
(1.3610463 0.0045564031 0)
(1.3685975 0.0042470781 0)
(1.3756004 0.0039617851 0)
(1.3821011 0.0036974076 0)
(1.3881401 0.0034515928 0)
(1.3937532 0.0032225281 0)
(1.3989727 0.0030087773 0)
(1.4038278 0.002809161 0)
(1.4083454 0.0026226742 0)
(1.41255 0.0024484311 0)
(1.4164642 0.00228563 0)
(1.4201088 0.002133532 0)
(1.423503 0.0019914472 0)
(1.4266646 0.001858727 0)
(1.4296099 0.0017347581 0)
(1.4323542 0.0016189592 0)
(1.4349113 0.0015107777 0)
(1.4372942 0.0014096879 0)
(1.4395148 0.0013151885 0)
(1.4415839 0.0012268015 0)
(1.4435117 0.0011440705 0)
(1.4453074 0.0010665604 0)
(1.4469795 0.0009938571 0)
(1.4485357 0.00092556736 0)
(1.4499831 0.00086132044 0)
(1.4513279 0.00080077004 0)
(1.4525763 0.00074359571 0)
(1.4537333 0.00068950585 0)
(1.4548039 0.00063823963 0)
(1.4557925 0.00058956929 0)
(1.4567032 0.00054330169 0)
(1.4575399 0.00049927879 0)
(1.4583061 0.00045737789 0)
(1.4590052 0.00041750932 0)
(1.4596406 0.00037961477 0)
(1.4602157 0.00034366226 0)
(1.4607335 0.00030964265 0)
(1.4611975 0.00027756241 0)
(1.4616108 0.00024743913 0)
(1.461977 0.00021929349 0)
(1.4622992 0.00019314498 0)
(1.4625809 0.00016900467 0)
(1.4628255 0.00014687206 0)
(1.4630364 0.00012673013 0)
(1.4632168 0.00010854425 0)
(1.46337 9.2260086e-05 0)
(1.4634989 7.7804663e-05 0)
(1.4636067 6.5087008e-05 0)
(1.463696 5.4000933e-05 0)
(1.4637693 4.442801e-05 0)
(1.463829 3.6240973e-05 0)
(1.4638773 2.9307416e-05 0)
(1.4639158 2.3493174e-05 0)
(1.4639464 1.8666183e-05 0)
(1.4639704 1.4698834e-05 0)
(1.4639891 1.1471082e-05 0)
(1.4640035 8.8713511e-06 0)
(1.4640146 6.798876e-06 0)
(1.4640229 5.1632082e-06 0)
(1.4640292 3.8856878e-06 0)
(1.4640338 2.8976663e-06 0)
(1.4640372 2.1416244e-06 0)
(1.4640397 1.5685811e-06 0)
(1.4640415 1.1390645e-06 0)
(1.4640428 8.1988033e-07 0)
(1.4640437 5.8551264e-07 0)
(1.4640443 4.1463242e-07 0)
(1.4640448 2.9178437e-07 0)
(1.4640451 2.038798e-07 0)
(1.4640453 1.42001e-07 0)
(1.4640455 9.8747017e-08 0)
(1.4640455 6.9155195e-08 0)
(1.4640456 4.9808895e-08 0)
(1.4640456 3.7699846e-08 0)
(1.4640457 3.2315984e-08 0)
(1.4640456 3.0196632e-08 0)
(1.4640458 3.3726302e-08 0)
(1.4640456 3.6621961e-08 0)
(1.464046 4.8167842e-08 0)
(1.4640455 5.5874562e-08 0)
(1.4640463 7.255971e-08 0)
(1.0005903 -0.0034629158 0)
(1.0136865 -0.0093660196 0)
(1.0370283 -0.013046806 0)
(1.0674202 -0.014563261 0)
(1.1000315 -0.014854524 0)
(1.1316428 -0.01456499 0)
(1.1610745 -0.013888337 0)
(1.1880674 -0.012919245 0)
(1.2125205 -0.011806505 0)
(1.2343939 -0.010696426 0)
(1.2538077 -0.0096727406 0)
(1.2710339 -0.0087628202 0)
(1.286401 -0.0079659714 0)
(1.3002112 -0.0072722119 0)
(1.3127102 -0.0066688052 0)
(1.3240903 -0.006141921 0)
(1.3345036 -0.0056780669 0)
(1.3440716 -0.0052653145 0)
(1.3528927 -0.0048939272 0)
(1.3610463 -0.0045563862 0)
(1.3685975 -0.0042470582 0)
(1.3756004 -0.0039617619 0)
(1.3821012 -0.0036973807 0)
(1.3881401 -0.0034515619 0)
(1.3937532 -0.0032224931 0)
(1.3989727 -0.0030087378 0)
(1.4038278 -0.0028091171 0)
(1.4083454 -0.0026226257 0)
(1.41255 -0.0024483783 0)
(1.4164642 -0.0022855733 0)
(1.4201088 -0.0021334718 0)
(1.423503 -0.0019913845 0)
(1.4266646 -0.0018586628 0)
(1.42961 -0.001734694 0)
(1.4323542 -0.0016188968 0)
(1.4349114 -0.0015107191 0)
(1.4372943 -0.0014096352 0)
(1.4395148 -0.0013151444 0)
(1.441584 -0.001226768 0)
(1.4435118 -0.0011440505 0)
(1.4453075 -0.0010665551 0)
(1.4469796 -0.00099386833 0)
(1.4485358 -0.00092559524 0)
(1.4499831 -0.00086136677 0)
(1.451328 -0.00080083339 0)
(1.4525763 -0.00074367693 0)
(1.4537333 -0.00068960196 0)
(1.4548039 -0.00063835045 0)
(1.4557925 -0.00058969056 0)
(1.4567032 -0.00054343257 0)
(1.4575398 -0.00049941439 0)
(1.458306 -0.00045751699 0)
(1.4590051 -0.00041764702 0)
(1.4596405 -0.00037975005 0)
(1.4602155 -0.00034379091 0)
(1.4607334 -0.00030976403 0)
(1.4611974 -0.00027767338 0)
(1.4616107 -0.00024753959 0)
(1.4619768 -0.00021938169 0)
(1.4622991 -0.00019322122 0)
(1.4625808 -0.00016906835 0)
(1.4628254 -0.00014692364 0)
(1.4630363 -0.00012677006 0)
(1.4632167 -0.00010857291 0)
(1.4633698 -9.2278617e-05 0)
(1.4634989 -7.7813118e-05 0)
(1.4636066 -6.5087151e-05 0)
(1.4636959 -5.3992769e-05 0)
(1.4637693 -4.4413737e-05 0)
(1.463829 -3.621998e-05 0)
(1.4638772 -2.9282036e-05 0)
(1.4639157 -2.3462641e-05 0)
(1.4639463 -1.8633122e-05 0)
(1.4639704 -1.4662247e-05 0)
(1.4639891 -1.1433707e-05 0)
(1.4640035 -8.8321562e-06 0)
(1.4640145 -6.7607382e-06 0)
(1.4640228 -5.1248222e-06 0)
(1.4640291 -3.8496794e-06 0)
(1.4640338 -2.8624061e-06 0)
(1.4640372 -2.1094746e-06 0)
(1.4640397 -1.5374178e-06 0)
(1.4640415 -1.1110045e-06 0)
(1.4640428 -7.9273651e-07 0)
(1.4640437 -5.6161438e-07 0)
(1.4640443 -3.9170922e-07 0)
(1.4640448 -2.7211634e-07 0)
(1.4640451 -1.8492795e-07 0)
(1.4640453 -1.2589461e-07 0)
(1.4640455 -8.2271456e-08 0)
(1.4640455 -5.4121063e-08 0)
(1.4640456 -3.2459332e-08 0)
(1.4640456 -1.9420356e-08 0)
(1.4640458 -9.9875122e-09 0)
(1.4640456 -5.3241404e-09 0)
(1.4640459 -6.8660961e-09 0)
(1.4640456 -8.3290475e-09 0)
(1.464046 -2.1019612e-08 0)
(1.4640455 -2.8195118e-08 0)
(1.4640463 -4.7516595e-08 0)
(1.0007347 -0.011814722 0)
(1.0178472 -0.030860927 0)
(1.0462163 -0.041434441 0)
(1.0799018 -0.04519357 0)
(1.1132664 -0.045502351 0)
(1.143782 -0.044080307 0)
(1.1708941 -0.041439981 0)
(1.1945687 -0.037973677 0)
(1.2148582 -0.034195728 0)
(1.2319652 -0.030536885 0)
(1.2462683 -0.027222043 0)
(1.2582339 -0.024313919 0)
(1.2683135 -0.021797886 0)
(1.2768875 -0.019633657 0)
(1.2842554 -0.017773823 0)
(1.2906479 -0.016169648 0)
(1.296243 -0.014775585 0)
(1.3011791 -0.013552291 0)
(1.3055645 -0.012467856 0)
(1.3094838 -0.011497456 0)
(1.3130042 -0.010622149 0)
(1.3161792 -0.0098274975 0)
(1.3190526 -0.0091023911 0)
(1.3216607 -0.0084381512 0)
(1.3240343 -0.0078278702 0)
(1.3261994 -0.007265929 0)
(1.3281786 -0.0067476457 0)
(1.3299912 -0.0062690274 0)
(1.3316543 -0.0058265982 0)
(1.3331827 -0.0054172836 0)
(1.3345893 -0.0050383313 0)
(1.3358858 -0.004687256 0)
(1.3370821 -0.0043617994 0)
(1.3381873 -0.0040598978 0)
(1.3392095 -0.0037796588 0)
(1.3401555 -0.0035193392 0)
(1.3410319 -0.0032773284 0)
(1.3418443 -0.0030521315 0)
(1.3425976 -0.0028423589 0)
(1.3432963 -0.0026467124 0)
(1.3439446 -0.0024639813 0)
(1.3445459 -0.0022930326 0)
(1.3451034 -0.0021328117 0)
(1.34562 -0.0019823383 0)
(1.3460981 -0.0018407121 0)
(1.34654 -0.0017071114 0)
(1.3469478 -0.0015808016 0)
(1.3473232 -0.0014611344 0)
(1.3476678 -0.0013475565 0)
(1.3479832 -0.0012396062 0)
(1.3482709 -0.001136918 0)
(1.348532 -0.001039215 0)
(1.3487681 -0.00094630763 0)
(1.3489803 -0.00085808027 0)
(1.3491701 -0.00077448337 0)
(1.3493388 -0.00069551628 0)
(1.3494877 -0.0006212145 0)
(1.3496183 -0.00055163123 0)
(1.3497319 -0.00048682276 0)
(1.3498301 -0.00042683272 0)
(1.3499141 -0.00037167928 0)
(1.3499855 -0.0003213451 0)
(1.3500456 -0.00027576889 0)
(1.3500958 -0.00023484305 0)
(1.3501373 -0.00019841059 0)
(1.3501713 -0.00016627028 0)
(1.3501988 -0.00013817832 0)
(1.3502209 -0.00011385879 0)
(1.3502385 -9.3008326e-05 0)
(1.3502523 -7.5309265e-05 0)
(1.350263 -6.0434539e-05 0)
(1.3502713 -4.8060737e-05 0)
(1.3502776 -3.787128e-05 0)
(1.3502824 -2.9567594e-05 0)
(1.3502859 -2.2869628e-05 0)
(1.3502885 -1.7523785e-05 0)
(1.3502903 -1.3300572e-05 0)
(1.3502917 -9.9997356e-06 0)
(1.3502927 -7.4460137e-06 0)
(1.3502934 -5.4915317e-06 0)
(1.3502938 -4.0105651e-06 0)
(1.3502942 -2.9004761e-06 0)
(1.3502943 -2.0767088e-06 0)
(1.3502945 -1.4722016e-06 0)
(1.3502946 -1.0332009e-06 0)
(1.3502947 -7.1791717e-07 0)
(1.3502947 -4.9407682e-07 0)
(1.3502948 -3.3666073e-07 0)
(1.3502947 -2.2701896e-07 0)
(1.3502948 -1.5119567e-07 0)
(1.3502947 -9.8912579e-08 0)
(1.3502948 -6.4493062e-08 0)
(1.3502947 -4.1223288e-08 0)
(1.3502949 -3.1011535e-08 0)
(1.3502947 -2.5489773e-08 0)
(1.3502949 -3.6372764e-08 0)
(1.3502947 -4.4392272e-08 0)
(1.350295 -8.0847566e-08 0)
(1.3502946 -1.0445383e-07 0)
(1.3502953 -1.6080137e-07 0)
(1.0014244 -0.026824855 0)
(1.0291272 -0.062791352 0)
(1.0654292 -0.077736553 0)
(1.098962 -0.0805972 0)
(1.1253149 -0.078285171 0)
(1.145053 -0.073153899 0)
(1.1594858 -0.066111278 0)
(1.1694287 -0.058162063 0)
(1.1755354 -0.050296753 0)
(1.1785738 -0.043150707 0)
(1.1793571 -0.036972824 0)
(1.1785949 -0.031771631 0)
(1.1768304 -0.027451838 0)
(1.1744518 -0.023886766 0)
(1.1717287 -0.020947618 0)
(1.1688444 -0.018515778 0)
(1.1659195 -0.016488081 0)
(1.1630317 -0.014779498 0)
(1.1602295 -0.013322979 0)
(1.1575415 -0.012067125 0)
(1.1549828 -0.010972991 0)
(1.1525601 -0.010011049 0)
(1.1502747 -0.0091587308 0)
(1.1481247 -0.0083985833 0)
(1.146106 -0.0077169221 0)
(1.1442135 -0.0071028483 0)
(1.1424415 -0.0065475342 0)
(1.1407839 -0.0060437104 0)
(1.1392345 -0.0055852984 0)
(1.1377871 -0.0051671511 0)
(1.1364357 -0.0047848629 0)
(1.1351743 -0.0044346301 0)
(1.1339974 -0.0041131435 0)
(1.1328997 -0.0038175044 0)
(1.1318759 -0.0035451574 0)
(1.1309214 -0.0032938352 0)
(1.1300315 -0.0030615135 0)
(1.1292021 -0.0028463728 0)
(1.128429 -0.002646769 0)
(1.1277088 -0.0024612072 0)
(1.1270378 -0.002288326 0)
(1.126413 -0.0021268789 0)
(1.1258314 -0.0019757318 0)
(1.1252903 -0.0018338506 0)
(1.1247871 -0.0017003087 0)
(1.1243197 -0.0015742761 0)
(1.1238859 -0.0014550338 0)
(1.1234839 -0.001341962 0)
(1.123112 -0.0012345548 0)
(1.1227685 -0.0011324034 0)
(1.1224519 -0.0010352091 0)
(1.1221611 -0.00094275813 0)
(1.1218946 -0.00085493031 0)
(1.1216514 -0.0007716674 0)
(1.1214301 -0.00069297574 0)
(1.1212299 -0.0006188923 0)
(1.1210494 -0.00054948301 0)
(1.1208877 -0.00048481069 0)
(1.1207436 -0.0004249321 0)
(1.1206159 -0.00036987278 0)
(1.1205035 -0.00031962509 0)
(1.1204053 -0.00027413355 0)
(1.1203201 -0.00023329517 0)
(1.1202467 -0.00019695641 0)
(1.1201839 -0.00016491559 0)
(1.1201307 -0.00013693061 0)
(1.120086 -0.00011272151 0)
(1.1200487 -9.1985892e-05 0)
(1.1200179 -7.4399923e-05 0)
(1.1199926 -5.9638098e-05 0)
(1.1199722 -4.7370283e-05 0)
(1.1199557 -3.7282635e-05 0)
(1.1199426 -2.9070154e-05 0)
(1.1199322 -2.2456949e-05 0)
(1.1199241 -1.7183743e-05 0)
(1.1199178 -1.3026286e-05 0)
(1.119913 -9.7792934e-06 0)
(1.1199094 -7.2733549e-06 0)
(1.1199066 -5.3562199e-06 0)
(1.1199046 -3.9080464e-06 0)
(1.1199031 -2.8221334e-06 0)
(1.119902 -2.0194506e-06 0)
(1.1199012 -1.429366e-06 0)
(1.1199006 -1.0030939e-06 0)
(1.1199002 -6.9582688e-07 0)
(1.1199 -4.7944135e-07 0)
(1.1198998 -3.2651793e-07 0)
(1.1198996 -2.2145681e-07 0)
(1.1198995 -1.4786378e-07 0)
(1.1198995 -9.83633e-08 0)
(1.1198994 -6.3773397e-08 0)
(1.1198995 -4.2640376e-08 0)
(1.1198994 -2.8962566e-08 0)
(1.1198994 -2.6702238e-08 0)
(1.1198993 -2.8602467e-08 0)
(1.1198995 -4.503053e-08 0)
(1.1198993 -6.2405944e-08 0)
(1.1198995 -1.1280714e-07 0)
(1.1198991 -1.5365507e-07 0)
(1.1198997 -2.4483032e-07 0)
(1.0016583 -0.05381943 0)
(1.0359761 -0.10128444 0)
(1.0597199 -0.11073663 0)
(1.0628947 -0.10592202 0)
(1.0515569 -0.096228728 0)
(1.0340529 -0.083934061 0)
(1.0142795 -0.070327062 0)
(0.99360703 -0.056981333 0)
(0.97292577 -0.045107478 0)
(0.9531074 -0.035236749 0)
(0.93479539 -0.027401649 0)
(0.91829012 -0.021387227 0)
(0.90362379 -0.016884498 0)
(0.89068068 -0.013569708 0)
(0.87928175 -0.011147748 0)
(0.86923242 -0.0093736578 0)
(0.86034424 -0.0080569269 0)
(0.85244668 -0.0070571256 0)
(0.84539243 -0.0062752358 0)
(0.83905795 -0.005643825 0)
(0.83334129 -0.0051180864 0)
(0.82815887 -0.0046686667 0)
(0.82344216 -0.0042764104 0)
(0.81913473 -0.0039287302 0)
(0.81518969 -0.0036171922 0)
(0.81156775 -0.0033359546 0)
(0.80823558 -0.0030807804 0)
(0.8051646 -0.0028484325 0)
(0.80233008 -0.0026363117 0)
(0.79971041 -0.002442247 0)
(0.79728658 -0.0022643739 0)
(0.79504176 -0.0021010623 0)
(0.79296093 -0.001950871 0)
(0.7910307 -0.0018125182 0)
(0.78923902 -0.0016848568 0)
(0.78757507 -0.001566858 0)
(0.78602908 -0.001457593 0)
(0.78459223 -0.0013562218 0)
(0.78325654 -0.0012619793 0)
(0.78201484 -0.0011741697 0)
(0.78086062 -0.0010921548 0)
(0.77978804 -0.001015355 0)
(0.77879179 -0.00094324081 0)
(0.77786715 -0.00087533811 0)
(0.77700981 -0.00081122134 0)
(0.77621595 -0.0007505221 0)
(0.77548204 -0.0006929221 0)
(0.77480497 -0.00063816203 0)
(0.77418178 -0.00058603212 0)
(0.77360983 -0.00053637938 0)
(0.77308656 -0.0004890953 0)
(0.77260962 -0.0004441195 0)
(0.77217662 -0.00040142461 0)
(0.77178533 -0.00036101651 0)
(0.77143343 -0.00032291837 0)
(0.77111866 -0.00028716805 0)
(0.7708387 -0.00025380351 0)
(0.7705912 -0.00022285904 0)
(0.77037382 -0.00019435454 0)
(0.77018418 -0.00016829197 0)
(0.7700199 -0.00014465018 0)
(0.76987863 -0.00012338236 0)
(0.76975809 -0.00010441675 0)
(0.76965601 -8.7655365e-05 0)
(0.7695703 -7.2980143e-05 0)
(0.76949889 -6.0251963e-05 0)
(0.76943993 -4.9320342e-05 0)
(0.76939164 -4.0022052e-05 0)
(0.76935246 -3.2193147e-05 0)
(0.76932092 -2.5665695e-05 0)
(0.7692958 -2.0279974e-05 0)
(0.76927593 -1.5879191e-05 0)
(0.7692604 -1.2321677e-05 0)
(0.76924834 -9.4730554e-06 0)
(0.76923909 -7.217329e-06 0)
(0.76923203 -5.4470575e-06 0)
(0.76922674 -4.0741485e-06 0)
(0.76922276 -3.0180978e-06 0)
(0.76921984 -2.2161857e-06 0)
(0.76921768 -1.6109316e-06 0)
(0.76921614 -1.1610497e-06 0)
(0.76921501 -8.2764373e-07 0)
(0.76921423 -5.8564038e-07 0)
(0.76921366 -4.0921348e-07 0)
(0.76921328 -2.8493522e-07 0)
(0.769213 -1.9561873e-07 0)
(0.76921282 -1.3508622e-07 0)
(0.76921269 -9.090882e-08 0)
(0.76921261 -6.2318337e-08 0)
(0.76921255 -4.0100277e-08 0)
(0.76921252 -2.7809417e-08 0)
(0.7692125 -1.7603153e-08 0)
(0.76921248 -1.6547119e-08 0)
(0.76921248 -1.679723e-08 0)
(0.76921243 -2.5573044e-08 0)
(0.76921247 -3.7666361e-08 0)
(0.76921235 -6.2037631e-08 0)
(0.76921244 -1.0243875e-07 0)
(0.76921212 -1.589473e-07 0)
(0.7692124 -2.6364925e-07 0)
(0.91890839 -0.035821913 0)
(0.86271384 -0.062195638 0)
(0.7870597 -0.06251009 0)
(0.69536033 -0.054550395 0)
(0.61089745 -0.044531651 0)
(0.54411592 -0.034015971 0)
(0.49343012 -0.024187539 0)
(0.45479413 -0.016144229 0)
(0.42544582 -0.010265785 0)
(0.40347313 -0.0063041451 0)
(0.38715767 -0.0037976292 0)
(0.3749622 -0.0023103379 0)
(0.36566193 -0.0014930146 0)
(0.35836273 -0.0010851179 0)
(0.35244268 -0.00090607197 0)
(0.34748201 -0.00084105133 0)
(0.34320348 -0.00082372365 0)
(0.33942726 -0.00081930981 0)
(0.33603793 -0.0008118513 0)
(0.33296115 -0.00079580052 0)
(0.33014779 -0.00077081092 0)
(0.32756385 -0.00073870934 0)
(0.32518421 -0.00070188992 0)
(0.32298903 -0.00066256752 0)
(0.32096172 -0.00062250328 0)
(0.31908785 -0.00058296368 0)
(0.31735448 -0.000544781 0)
(0.31574994 -0.00050844741 0)
(0.31426358 -0.00047420917 0)
(0.3128857 -0.0004421466 0)
(0.31160751 -0.00041223499 0)
(0.31042096 -0.00038438819 0)
(0.3093188 -0.00035848728 0)
(0.3082944 -0.00033439952 0)
(0.30734178 -0.00031198844 0)
(0.30645551 -0.00029112082 0)
(0.30563065 -0.00027166851 0)
(0.30486273 -0.00025351146 0)
(0.30414772 -0.00023653572 0)
(0.30348194 -0.00022063605 0)
(0.30286209 -0.00020571222 0)
(0.30228517 -0.00019167359 0)
(0.30174849 -0.00017843367 0)
(0.30124964 -0.00016591671 0)
(0.30078643 -0.0001540509 0)
(0.30035692 -0.00014277735 0)
(0.29995934 -0.00013204123 0)
(0.29959209 -0.00012180203 0)
(0.2992537 -0.00011202304 0)
(0.2989428 -0.00010268262 0)
(0.29865813 -9.3761911e-05 0)
(0.29839845 -8.525588e-05 0)
(0.29816256 -7.7160276e-05 0)
(0.29794928 -6.9481916e-05 0)
(0.29775741 -6.2225945e-05 0)
(0.29758575 -5.5404524e-05 0)
(0.29743306 -4.9025613e-05 0)
(0.29729809 -4.309973e-05 0)
(0.29717956 -3.7631522e-05 0)
(0.29707618 -3.2624383e-05 0)
(0.29698666 -2.8075388e-05 0)
(0.29690972 -2.3977388e-05 0)
(0.2968441 -2.0317941e-05 0)
(0.29678857 -1.7079142e-05 0)
(0.29674196 -1.4240036e-05 0)
(0.29670317 -1.1773733e-05 0)
(0.29667115 -9.6531605e-06 0)
(0.29664495 -7.8461335e-06 0)
(0.2966237 -6.3233205e-06 0)
(0.29660661 -5.0508308e-06 0)
(0.296593 -4.0001283e-06 0)
(0.29658225 -3.1390406e-06 0)
(0.29657384 -2.442711e-06 0)
(0.29656733 -1.8827604e-06 0)
(0.29656232 -1.4393268e-06 0)
(0.29655851 -1.0891835e-06 0)
(0.29655564 -8.1810942e-07 0)
(0.2965535 -6.0771695e-07 0)
(0.29655191 -4.4854866e-07 0)
(0.29655075 -3.2668101e-07 0)
(0.2965499 -2.3703273e-07 0)
(0.2965493 -1.6903597e-07 0)
(0.29654887 -1.2069089e-07 0)
(0.29654856 -8.4066104e-08 0)
(0.29654835 -5.9611886e-08 0)
(0.2965482 -4.0746188e-08 0)
(0.2965481 -2.9151273e-08 0)
(0.29654803 -1.9230127e-08 0)
(0.29654798 -1.4018208e-08 0)
(0.29654795 -8.4373734e-09 0)
(0.29654793 -6.7492296e-09 0)
(0.29654792 -4.1765133e-09 0)
(0.2965479 -6.4272747e-09 0)
(0.2965479 -7.0599413e-09 0)
(0.29654787 -1.2861252e-08 0)
(0.29654786 -1.9546237e-08 0)
(0.2965478 -3.4060189e-08 0)
(0.29654777 -5.4311781e-08 0)
(0.29654761 -9.9480808e-08 0)
(0.29654749 -1.4701955e-07 0)
)
;

boundaryField
{
    top
    {
        type            fixedValue;
        value           uniform (0 0 0);
    }
    inlet
    {
        type            fixedValue;
        value           uniform (1 0 0);
    }
    outlet
    {
        type            zeroGradient;
    }
    bottom
    {
        type            fixedValue;
        value           uniform (0 0 0);
    }
    back
    {
        type            empty;
    }
    front
    {
        type            empty;
    }
}


// ************************************************************************* //
