/*--------------------------------*- C++ -*----------------------------------*\
| =========                 |                                                 |
| \\      /  F ield         | OpenFOAM: The Open Source CFD Toolbox           |
|  \\    /   O peration     | Version:  2112                                  |
|   \\  /    A nd           | Website:  www.openfoam.com                      |
|    \\/     M anipulation  |                                                 |
\*---------------------------------------------------------------------------*/
FoamFile
{
    version     2.0;
    format      ascii;
    arch        "LSB;label=32;scalar=64";
    class       volScalarField;
    location    "10";
    object      p;
}
// * * * * * * * * * * * * * * * * * * * * * * * * * * * * * * * * * * * * * //

dimensions      [0 2 -2 0 0 0 0];

internalField   nonuniform List<scalar> 
1000
(
-0.64655722
-0.77410142
-0.84705802
-0.86875415
-0.87259684
-0.87526249
-0.88003757
-0.88396953
-0.88407807
-0.88014386
-0.87325271
-0.86460506
-0.85507189
-0.84516955
-0.83516252
-0.82516694
-0.81522224
-0.80533308
-0.79549108
-0.78568491
-0.77590432
-0.76614129
-0.75639001
-0.74664646
-0.73690792
-0.7271726
-0.71743934
-0.70770739
-0.69797626
-0.68824564
-0.67851535
-0.66878524
-0.65905525
-0.64932532
-0.63959542
-0.62986552
-0.62013563
-0.61040572
-0.6006758
-0.59094586
-0.5812159
-0.57148592
-0.56175593
-0.55202591
-0.54229588
-0.53256584
-0.52283578
-0.5131057
-0.50337562
-0.49364552
-0.48391542
-0.47418531
-0.46445519
-0.45472507
-0.44499494
-0.43526481
-0.42553468
-0.41580454
-0.4060744
-0.39634425
-0.38661411
-0.37688396
-0.36715381
-0.35742365
-0.34769349
-0.33796332
-0.32823314
-0.31850295
-0.30877276
-0.29904256
-0.28931235
-0.27958213
-0.26985191
-0.26012168
-0.25039148
-0.24066131
-0.23093119
-0.22120114
-0.21147117
-0.2017413
-0.1920116
-0.18228203
-0.17255309
-0.16282421
-0.15309808
-0.14336933
-0.13365324
-0.12391419
-0.11423727
-0.10443148
-0.094906534
-0.084829797
-0.075755125
-0.064989856
-0.056514799
-0.04531872
-0.03515298
-0.026285553
-0.0086312734
0.0015626057
-0.78170471
-0.8534321
-0.89637955
-0.90113701
-0.89144842
-0.8840087
-0.88188755
-0.88187539
-0.88052472
-0.87658313
-0.87029196
-0.86237021
-0.85348009
-0.84407792
-0.8344333
-0.82468899
-0.81491344
-0.80513579
-0.79536617
-0.78560643
-0.77585535
-0.76611094
-0.75637133
-0.74663504
-0.73690101
-0.72716847
-0.71743691
-0.707706
-0.69797551
-0.68824527
-0.67851521
-0.66878523
-0.65905532
-0.64932543
-0.63959555
-0.62986566
-0.62013577
-0.61040585
-0.60067593
-0.59094597
-0.58121601
-0.57148602
-0.56175601
-0.55202599
-0.54229595
-0.53256589
-0.52283583
-0.51310574
-0.50337566
-0.49364555
-0.48391545
-0.47418533
-0.46445521
-0.45472508
-0.44499496
-0.43526482
-0.42553469
-0.41580455
-0.40607441
-0.39634427
-0.38661413
-0.37688397
-0.36715383
-0.35742367
-0.34769351
-0.33796334
-0.32823317
-0.31850299
-0.3087728
-0.29904259
-0.28931238
-0.27958215
-0.26985192
-0.26012168
-0.25039145
-0.24066122
-0.23093103
-0.22120085
-0.2114707
-0.2017405
-0.19201037
-0.18227983
-0.1725501
-0.16281811
-0.15309202
-0.14335144
-0.13364618
-0.12385649
-0.11425268
-0.10423866
-0.095038353
-0.084260732
-0.076149624
-0.063821361
-0.056656776
-0.044424889
-0.031990363
-0.02678932
8.5200621e-05
0.0069123928
-0.86069615
-0.90000291
-0.91974602
-0.91030506
-0.88800353
-0.870431
-0.86293032
-0.86208233
-0.86296405
-0.86257233
-0.85989955
-0.85504674
-0.84850412
-0.8407844
-0.83229432
-0.82331893
-0.81404486
-0.80458944
-0.79502466
-0.78539412
-0.77572404
-0.76603017
-0.75632196
-0.74660511
-0.73688305
-0.72715787
-0.71743081
-0.70770263
-0.69797379
-0.68824455
-0.67851507
-0.66878543
-0.6590557
-0.64932591
-0.63959606
-0.62986618
-0.62013626
-0.61040632
-0.60067635
-0.59094636
-0.58121635
-0.57148632
-0.56175628
-0.55202622
-0.54229615
-0.53256607
-0.52283598
-0.51310587
-0.50337576
-0.49364565
-0.48391552
-0.4741854
-0.46445527
-0.45472513
-0.444995
-0.43526486
-0.42553472
-0.41580459
-0.40607445
-0.39634431
-0.38661417
-0.37688403
-0.36715388
-0.35742374
-0.34769359
-0.33796343
-0.32823327
-0.3185031
-0.30877291
-0.29904271
-0.2893125
-0.27958226
-0.26985201
-0.26012174
-0.25039144
-0.24066112
-0.23093076
-0.2212003
-0.2114697
-0.20173875
-0.19200747
-0.18227493
-0.17254255
-0.16280521
-0.15307414
-0.14331827
-0.13360782
-0.12376978
-0.11418027
-0.10400943
-0.094920338
-0.083689843
-0.075936868
-0.062639027
-0.05598299
-0.042710061
-0.029997512
-0.026086628
-0.0005146613
0.0039216171
-0.90107682
-0.92640217
-0.93202789
-0.91244518
-0.88153864
-0.85724547
-0.84628627
-0.84524846
-0.8481476
-0.85071986
-0.85104267
-0.84874802
-0.84418481
-0.83790143
-0.83040861
-0.82210428
-0.81327162
-0.80410174
-0.79471938
-0.7852043
-0.77560677
-0.76595821
-0.75627815
-0.74657872
-0.7368674
-0.72714879
-0.71742574
-0.7077
-0.69797261
-0.68824423
-0.67851524
-0.66878588
-0.65905629
-0.64932655
-0.63959672
-0.62986681
-0.62013686
-0.61040687
-0.60067685
-0.59094681
-0.58121675
-0.57148668
-0.56175659
-0.55202649
-0.54229638
-0.53256627
-0.52283615
-0.51310602
-0.50337588
-0.49364575
-0.48391561
-0.47418547
-0.46445533
-0.45472519
-0.44499505
-0.43526491
-0.42553477
-0.41580463
-0.4060745
-0.39634436
-0.38661423
-0.37688409
-0.36715396
-0.35742383
-0.34769369
-0.33796355
-0.3282334
-0.31850325
-0.30877308
-0.29904289
-0.28931268
-0.27958244
-0.26985218
-0.26012188
-0.25039154
-0.24066114
-0.23093064
-0.22119994
-0.21146896
-0.20173734
-0.19200504
-0.18227079
-0.17253599
-0.16279437
-0.15305819
-0.14329127
-0.13357192
-0.12370313
-0.11410569
-0.10384606
-0.094780867
-0.083309836
-0.075702037
-0.061887243
-0.055618187
-0.041745533
-0.029752507
-0.026427614
-0.0024596346
0.0019095015
-0.91893871
-0.93911222
-0.93819339
-0.91355095
-0.87854212
-0.85104115
-0.83830165
-0.83700854
-0.8407536
-0.84469743
-0.84646755
-0.84544583
-0.84189059
-0.83635274
-0.82938591
-0.82144035
-0.81284638
-0.80383236
-0.79455035
-0.78509916
-0.77554194
-0.76591865
-0.75625433
-0.74656464
-0.7368593
-0.72714436
-0.71742353
-0.70769911
-0.6979725
-0.68824457
-0.67851582
-0.66878658
-0.65905703
-0.64932729
-0.63959742
-0.62986747
-0.62013746
-0.61040742
-0.60067734
-0.59094725
-0.58121714
-0.57148702
-0.56175689
-0.55202675
-0.54229661
-0.53256646
-0.52283631
-0.51310616
-0.503376
-0.49364585
-0.48391569
-0.47418554
-0.46445539
-0.45472524
-0.4449951
-0.43526496
-0.42553482
-0.41580468
-0.40607455
-0.39634442
-0.38661429
-0.37688417
-0.36715405
-0.35742393
-0.34769381
-0.33796369
-0.32823356
-0.31850342
-0.30877326
-0.29904309
-0.28931289
-0.27958266
-0.2698524
-0.2601221
-0.25039175
-0.24066132
-0.23093075
-0.22119994
-0.21146875
-0.20173677
-0.19200388
-0.18226867
-0.17253248
-0.16278854
-0.15304939
-0.14327665
-0.13355172
-0.1236675
-0.11406292
-0.10376118
-0.094700249
-0.08312075
-0.075574421
-0.061538056
-0.055474934
-0.041374635
-0.029807919
-0.026708281
-0.0032360738
0.0012545464
-0.91893983
-0.93911341
-0.93819477
-0.91355257
-0.87854394
-0.8510431
-0.83830369
-0.83701064
-0.84075575
-0.84469963
-0.84646978
-0.84544808
-0.84189285
-0.83635497
-0.82938812
-0.82144251
-0.81284848
-0.80383439
-0.79455232
-0.78510106
-0.77554377
-0.7659204
-0.756256
-0.74656622
-0.73686079
-0.72714576
-0.71742484
-0.70770033
-0.69797364
-0.68824562
-0.67851679
-0.66878747
-0.65905785
-0.64932803
-0.63959809
-0.62986808
-0.62013801
-0.61040791
-0.60067779
-0.59094764
-0.58121749
-0.57148732
-0.56175716
-0.55202698
-0.54229681
-0.53256663
-0.52283646
-0.51310628
-0.50337611
-0.49364594
-0.48391577
-0.47418561
-0.46445545
-0.4547253
-0.44499515
-0.435265
-0.42553486
-0.41580473
-0.4060746
-0.39634448
-0.38661436
-0.37688425
-0.36715414
-0.35742404
-0.34769393
-0.33796383
-0.32823372
-0.31850359
-0.30877345
-0.29904329
-0.28931311
-0.2795829
-0.26985266
-0.26012238
-0.25039205
-0.24066165
-0.23093112
-0.22120034
-0.21146917
-0.20173721
-0.19200431
-0.1822691
-0.1725329
-0.16278896
-0.15304984
-0.14327712
-0.1335522
-0.12366796
-0.11406332
-0.10376152
-0.094700568
-0.083121088
-0.075574796
-0.061538423
-0.05547524
-0.041374839
-0.029808042
-0.026708352
-0.003236111
0.0012545316
-0.90108036
-0.92640571
-0.93203195
-0.91244991
-0.88154393
-0.85725117
-0.84629221
-0.84525455
-0.8481538
-0.85072617
-0.85104907
-0.8487545
-0.84419132
-0.83790791
-0.830415
-0.82211052
-0.81327769
-0.80410762
-0.79472507
-0.78520978
-0.77561204
-0.76596325
-0.75628296
-0.74658328
-0.7368717
-0.72715283
-0.71742953
-0.70770353
-0.69797589
-0.68824727
-0.67851805
-0.66878846
-0.65905866
-0.64932871
-0.63959868
-0.62986858
-0.62013846
-0.6104083
-0.60067813
-0.59094794
-0.58121776
-0.57148756
-0.56175736
-0.55202716
-0.54229697
-0.53256677
-0.52283658
-0.51310638
-0.5033762
-0.49364601
-0.48391584
-0.47418567
-0.46445551
-0.45472534
-0.44499519
-0.43526505
-0.42553491
-0.41580478
-0.40607466
-0.39634454
-0.38661443
-0.37688433
-0.36715424
-0.35742414
-0.34769406
-0.33796396
-0.32823387
-0.31850376
-0.30877364
-0.29904349
-0.28931332
-0.27958313
-0.26985292
-0.26012268
-0.25039242
-0.2406621
-0.2309317
-0.2212011
-0.21147019
-0.20173861
-0.19200629
-0.182272
-0.17253717
-0.16279555
-0.15305944
-0.14329259
-0.13357329
-0.12370445
-0.11410685
-0.10384705
-0.094781787
-0.083310801
-0.075703097
-0.06188828
-0.055619046
-0.041746109
-0.029752854
-0.026427825
-0.0024597609
0.0019094545
-0.86070131
-0.90000848
-0.91975246
-0.91031252
-0.88801185
-0.87043994
-0.86293958
-0.86209174
-0.86297352
-0.86258188
-0.85990923
-0.85505658
-0.84851407
-0.84079437
-0.83230419
-0.82332861
-0.81405426
-0.80459852
-0.7950334
-0.78540252
-0.7757321
-0.76603788
-0.75632931
-0.74661209
-0.73688966
-0.72716409
-0.71743665
-0.70770809
-0.69797886
-0.68824925
-0.67851941
-0.66878942
-0.65905936
-0.64932925
-0.6395991
-0.62986893
-0.62013874
-0.61040854
-0.60067834
-0.59094813
-0.58121792
-0.5714877
-0.56175749
-0.55202728
-0.54229707
-0.53256686
-0.52283666
-0.51310646
-0.50337626
-0.49364607
-0.48391589
-0.47418571
-0.46445555
-0.45472538
-0.44499523
-0.43526509
-0.42553495
-0.41580482
-0.4060747
-0.3963446
-0.3866145
-0.3768844
-0.36715432
-0.35742424
-0.34769416
-0.33796408
-0.32823399
-0.3185039
-0.30877378
-0.29904365
-0.28931349
-0.27958333
-0.26985315
-0.26012297
-0.2503928
-0.24066262
-0.23093241
-0.2212021
-0.21147161
-0.20174069
-0.19200938
-0.18227677
-0.17254433
-0.16280698
-0.15307599
-0.14332025
-0.13360988
-0.12377179
-0.11418208
-0.104011
-0.094921764
-0.083691285
-0.07593839
-0.062640499
-0.055984216
-0.042710914
-0.02999806
-0.026086988
-0.00051487143
0.0039215349
-0.78171113
-0.85343916
-0.89638768
-0.90114629
-0.89145879
-0.88401987
-0.88189917
-0.88188718
-0.88053651
-0.87659491
-0.87030378
-0.86238216
-0.85349216
-0.84409007
-0.83444539
-0.8247009
-0.81492505
-0.80514703
-0.79537699
-0.78561682
-0.77586529
-0.76612044
-0.75638037
-0.74664364
-0.73690914
-0.72717615
-0.71744412
-0.70771275
-0.69798179
-0.68825111
-0.6785206
-0.66879021
-0.65905988
-0.6493296
-0.63959934
-0.62986911
-0.62013887
-0.61040865
-0.60067842
-0.5909482
-0.58121798
-0.57148776
-0.56175754
-0.55202733
-0.54229711
-0.5325669
-0.52283669
-0.5131065
-0.50337629
-0.49364611
-0.48391592
-0.47418575
-0.46445557
-0.45472541
-0.44499526
-0.43526512
-0.42553498
-0.41580486
-0.40607474
-0.39634464
-0.38661454
-0.37688447
-0.36715438
-0.35742431
-0.34769424
-0.33796417
-0.32823408
-0.31850399
-0.30877387
-0.29904375
-0.28931361
-0.27958347
-0.26985333
-0.26012322
-0.25039314
-0.2406631
-0.23093309
-0.22120308
-0.21147303
-0.20174286
-0.19201265
-0.18228203
-0.17255221
-0.16282025
-0.15309429
-0.14335387
-0.1336487
-0.12385893
-0.11425487
-0.10424054
-0.095040034
-0.084262439
-0.076151397
-0.063823094
-0.056658209
-0.044425879
-0.031990985
-0.026789728
8.4933403e-05
0.0069122959
-0.64656472
-0.77410945
-0.84706681
-0.86876378
-0.87260739
-0.8752739
-0.88004964
-0.88398203
-0.88409073
-0.88015652
-0.87326532
-0.86461765
-0.85508448
-0.84518213
-0.83517505
-0.8251793
-0.81523435
-0.80534485
-0.79550245
-0.78569584
-0.77591479
-0.76615128
-0.75639953
-0.74665549
-0.73691647
-0.72718066
-0.71744691
-0.70771447
-0.69798287
-0.68825178
-0.67852103
-0.66879047
-0.65906006
-0.64932971
-0.63959942
-0.62986916
-0.62013891
-0.61040867
-0.60067844
-0.59094822
-0.58121799
-0.57148777
-0.56175755
-0.55202733
-0.54229712
-0.53256691
-0.52283671
-0.5131065
-0.50337631
-0.49364611
-0.48391593
-0.47418575
-0.46445558
-0.45472542
-0.44499527
-0.43526513
-0.42553499
-0.41580487
-0.40607476
-0.39634466
-0.38661457
-0.37688448
-0.36715441
-0.35742433
-0.34769426
-0.33796418
-0.3282341
-0.318504
-0.3087739
-0.29904377
-0.28931365
-0.27958352
-0.26985341
-0.26012333
-0.2503933
-0.24066332
-0.23093338
-0.22120347
-0.21147358
-0.20174369
-0.19201391
-0.18228425
-0.1725553
-0.16282652
-0.15310059
-0.14337202
-0.13365596
-0.1239167
-0.1142394
-0.10443324
-0.094908144
-0.08483154
-0.07575708
-0.064991825
-0.056516432
-0.045319784
-0.035153526
-0.026285811
-0.0086314443
0.0015625108
)
;

boundaryField
{
    top
    {
        type            zeroGradient;
    }
    inlet
    {
        type            zeroGradient;
    }
    outlet
    {
        type            fixedValue;
        value           uniform 0;
    }
    bottom
    {
        type            zeroGradient;
    }
    back
    {
        type            empty;
    }
    front
    {
        type            empty;
    }
}


// ************************************************************************* //
