/*--------------------------------*- C++ -*----------------------------------*\
| =========                 |                                                 |
| \\      /  F ield         | OpenFOAM: The Open Source CFD Toolbox           |
|  \\    /   O peration     | Version:  2112                                  |
|   \\  /    A nd           | Website:  www.openfoam.com                      |
|    \\/     M anipulation  |                                                 |
\*---------------------------------------------------------------------------*/
FoamFile
{
    version     2.0;
    format      ascii;
    arch        "LSB;label=32;scalar=64";
    class       surfaceScalarField;
    location    "10";
    object      phi;
}
// * * * * * * * * * * * * * * * * * * * * * * * * * * * * * * * * * * * * * //

dimensions      [0 3 -1 0 0 0 0];

oriented        oriented;

internalField   nonuniform List<scalar> 
1890
(
0.0092702666
0.00072975557
0.0081927602
0.0010775176
0.0070585434
0.0011342137
0.006026968
0.0010315618
0.0051875539
0.00083939853
0.0045437336
0.00064381341
0.004075433
0.00046830443
0.0037686632
0.00030678254
0.0035848172
0.00018386156
0.0034836689
0.00010116234
0.0034330932
5.0585086e-05
0.0034109332
2.2165277e-05
0.0034033911
7.5440338e-06
0.0034025785
8.1369152e-07
0.0034043473
-1.7677689e-06
0.0034067221
-2.3721129e-06
0.0034088866
-2.1611771e-06
0.0034105935
-1.7022554e-06
0.003411839
-1.2411232e-06
0.0034127067
-8.62907e-07
0.003413292
-5.8148613e-07
0.0034136792
-3.8335862e-07
0.0034139308
-2.4887471e-07
0.0034140933
-1.5958953e-07
0.0034141967
-1.0139243e-07
0.0034142628
-6.3754138e-08
0.0034143042
-3.9737554e-08
0.0034143307
-2.4379191e-08
0.0034143469
-1.474271e-08
0.0034143575
-8.598587e-09
0.0034143635
-4.8342527e-09
0.0034143678
-2.4185067e-09
0.0034143698
-1.0187516e-09
0.0034143715
-9.8368225e-11
0.0034143719
3.6187887e-10
0.0034143726
6.9324388e-10
0.0034143724
7.8248574e-10
0.0034143727
8.8180723e-10
0.0034143722
8.3160181e-10
0.0034143723
8.4792117e-10
0.0034143717
7.4670061e-10
0.0034143718
7.3281358e-10
0.0034143712
6.1918234e-10
0.0034143713
6.0173043e-10
0.0034143707
4.8660706e-10
0.0034143708
4.6956333e-10
0.0034143702
3.610157e-10
0.0034143703
3.5237147e-10
0.0034143698
2.503019e-10
0.00341437
2.4791819e-10
0.0034143695
1.5712173e-10
0.0034143698
1.6744682e-10
0.0034143694
8.7095954e-11
0.0034143697
1.0745167e-10
0.0034143694
4.1520334e-11
0.0034143697
7.7322714e-11
0.0034143694
2.3736086e-11
0.0034143698
7.0795391e-11
0.0034143695
3.1510726e-11
0.0034143699
9.3084764e-11
0.0034143695
6.3694582e-11
0.0034143699
1.332193e-10
0.0034143695
1.1293928e-10
0.0034143698
1.8943536e-10
0.0034143694
1.67374e-10
0.0034143697
2.3526095e-10
0.0034143693
1.9984223e-10
0.0034143696
2.4354515e-10
0.0034143692
1.6444143e-10
0.0034143696
1.4439479e-10
0.0034143693
-1.7820743e-11
0.00341437
-1.4929374e-10
0.0034143703
-4.6079896e-10
0.0034143718
-8.0545389e-10
0.0034143733
-1.4048864e-09
0.0034143764
-2.205325e-09
0.00341438
-3.465665e-09
0.0034143859
-5.4609123e-09
0.0034143931
-8.290796e-09
0.003414406
-1.3923706e-08
0.0034144231
-1.9485017e-08
0.0034144599
-3.7497752e-08
0.0034144999
-3.9719355e-08
0.0034146118
-1.083275e-07
0.0034146608
-4.3969206e-08
0.003415023
-3.5688639e-07
0.0034148699
1.5466001e-07
0.0034161886
-1.3213161e-06
0.0034147881
1.3926316e-06
0.0034195287
-4.7483741e-06
0.0034135705
5.9531448e-06
0.0034271344
-1.3561574e-05
0.0034127145
1.442777e-05
0.0034343353
-2.1610679e-05
0.0034290461
5.29568e-06
0.0034170916
1.1954022e-05
0.0034831391
-6.6053854e-05
0.0034038472
7.9283135e-05
0.0034100211
-6.1789533e-06
-0.00015104114
0.010411823
0.00031795646
0.010570426
0.00091892226
0.010557851
0.0011467862
0.010422757
0.0011666481
0.010230952
0.0010311969
0.010063828
0.00081093431
0.0099563304
0.00057580423
0.0098926603
0.00037045888
0.0098589139
0.00021761554
0.0098432697
0.00011681334
0.0098373058
5.6553876e-05
0.0098358656
2.3608257e-05
0.0098361857
7.2254667e-06
0.0098369722
2.806352e-08
0.0098377164
-2.5107491e-06
0.009838276
-2.9300983e-06
0.0098386535
-2.5366233e-06
0.0098388935
-1.9397903e-06
0.0098390409
-1.3861373e-06
0.0098391305
-9.5006686e-07
0.0098391849
-6.3368057e-07
0.0098392183
-4.1490884e-07
0.0098392392
-2.6810546e-07
0.0098392526
-1.7150059e-07
0.0098392612
-1.0872916e-07
0.0098392669
-6.830485e-08
0.0098392707
-4.2430706e-08
0.0098392733
-2.5966588e-08
0.009839275
-1.5541526e-08
0.0098392764
-8.9844837e-09
0.0098392772
-4.8912759e-09
0.009839278
-2.3653597e-09
0.0098392785
-8.3394811e-10
0.009839279
7.5230455e-11
0.0098392793
5.879473e-10
0.0098392797
8.6080907e-10
0.0098392799
9.7571921e-10
0.0098392803
1.007325e-09
0.0098392804
9.766802e-10
0.0098392807
9.2414997e-10
0.0098392808
8.4482766e-10
0.009839281
7.6997702e-10
0.0098392811
6.8233965e-10
0.0098392813
6.0752079e-10
0.0098392813
5.2276559e-10
0.0098392815
4.5545806e-10
0.0098392815
3.798852e-10
0.0098392816
3.2170553e-10
0.0098392816
2.5453119e-10
0.0098392817
2.0667561e-10
0.0098392817
1.5147729e-10
0.0098392818
1.1509648e-10
0.0098392818
7.1602374e-11
0.009839282
4.8648135e-11
0.009839282
2.0747864e-11
0.0098392821
1.2342869e-11
0.0098392821
-1.0718639e-12
0.0098392823
5.6253578e-12
0.0098392823
8.2297799e-12
0.0098392825
2.8632677e-11
0.0098392825
4.3040311e-11
0.0098392827
7.4821122e-11
0.0098392827
9.8316715e-11
0.0098392828
1.3374794e-10
0.0098392829
1.5301845e-10
0.0098392831
1.786011e-10
0.0098392831
1.7664984e-10
0.0098392833
1.649466e-10
0.0098392834
1.0365093e-10
0.0098392836
1.1750544e-11
0.0098392838
-1.573789e-10
0.0098392842
-3.9199242e-10
0.0098392845
-7.5729417e-10
0.0098392852
-1.2773618e-09
0.0098392861
-2.0631368e-09
0.0098392875
-3.2663138e-09
0.0098392894
-5.0961967e-09
0.0098392921
-8.0946225e-09
0.009839296
-1.2535523e-08
0.009839302
-2.046605e-08
0.009839312
-3.0496204e-08
0.0098393267
-5.2700242e-08
0.0098393563
-6.9263196e-08
0.0098393893
-1.3978328e-07
0.0098394802
-1.3251584e-07
0.0098395259
-4.002193e-07
0.009839825
-1.432978e-07
0.009839765
-1.2625395e-06
0.0098407955
3.5889007e-07
0.0098401218
-4.0783132e-06
0.009843238
2.834507e-06
0.0098412857
-1.1608273e-05
0.0098470951
8.6217815e-06
0.0098488848
-2.3395789e-05
0.0098459312
8.2522259e-06
0.0098773735
-1.9488428e-05
0.0098371671
-2.585023e-05
0.0099008814
1.5565177e-05
0.0099223963
-2.7696269e-05
-6.4959337e-05
0.010213573
0.0001043997
0.01057534
0.00055716052
0.01094837
0.00077375283
0.011281708
0.00083330221
0.011545715
0.00076718203
0.01173543
0.00062121546
0.011860425
0.00045081042
0.011933868
0.00029702073
0.011972118
0.00017937159
0.011989348
9.9589097e-05
0.01199544
5.0464477e-05
0.011996344
2.2706429e-05
0.011995239
8.3307937e-06
0.01199364
1.6274048e-06
0.011992165
-1.0355191e-06
0.011991002
-1.7653071e-06
0.011990153
-1.6865838e-06
0.011989562
-1.347329e-06
0.011989163
-9.8512874e-07
0.011988898
-6.8379776e-07
0.011988725
-4.5927172e-07
0.011988613
-3.0169475e-07
0.011988541
-1.95151e-07
0.011988495
-1.2464614e-07
0.011988466
-7.8747681e-08
0.011988447
-4.9061832e-08
0.011988435
-3.0083619e-08
0.011988428
-1.7936354e-08
0.011988423
-1.0302928e-08
0.01198842
-5.4608562e-09
0.011988418
-2.5170598e-09
0.011988417
-6.77484e-10
0.011988416
3.5309836e-10
0.011988416
9.7920392e-10
0.011988416
1.245615e-09
0.011988415
1.3934288e-09
0.011988415
1.3671516e-09
0.011988415
1.3399037e-09
0.011988415
1.2133456e-09
0.011988415
1.1314982e-09
0.011988415
9.814696e-10
0.011988415
8.9503001e-10
0.011988415
7.5128374e-10
0.011988415
6.7593451e-10
0.011988415
5.4754794e-10
0.011988415
4.8941367e-10
0.011988415
3.7792739e-10
0.011988415
3.3492252e-10
0.011988415
2.3875904e-10
0.011988416
2.1123339e-10
0.011988416
1.2956067e-10
0.011988416
1.1525681e-10
0.011988416
4.7593819e-11
0.011988416
4.8465929e-11
0.011988416
-4.2913499e-12
0.011988416
1.0927666e-11
0.011988416
-2.6535522e-11
0.011988416
5.0634255e-12
0.011988416
-1.6852049e-11
0.011988416
2.9042943e-11
0.011988416
2.1557688e-11
0.011988416
8.1363595e-11
0.011988416
8.4096564e-11
0.011988416
1.4848995e-10
0.011988416
1.5103014e-10
0.011988416
2.0746565e-10
0.011988416
1.8946254e-10
0.011988416
2.0781744e-10
0.011988416
1.3455423e-10
0.011988416
7.8414891e-11
0.011988416
-8.8448187e-11
0.011988416
-2.6517414e-10
0.011988416
-5.9095113e-10
0.011988416
-9.9752889e-10
0.011988416
-1.6741479e-09
0.011988415
-2.6527307e-09
0.011988415
-4.2441397e-09
0.011988413
-6.784444e-09
0.011988411
-1.0752321e-08
0.011988408
-1.7503464e-08
0.011988403
-2.6789163e-08
0.011988394
-4.4780109e-08
0.011988388
-6.279093e-08
0.011988364
-1.1470646e-07
0.011988366
-1.3215176e-07
0.011988275
-3.0716942e-07
0.011988353
-2.2086249e-07
0.011987974
-8.8370766e-07
0.011988474
-1.438435e-07
0.011987014
-2.6215647e-06
0.011989073
7.7383353e-07
0.011984588
-7.1235364e-06
0.011989906
3.306976e-06
0.01198123
-1.4715519e-05
0.011985689
3.7948763e-06
0.011982552
-1.6351133e-05
0.011965461
-8.7617314e-06
0.011984218
-3.1946759e-06
0.011969021
-1.2501237e-05
-1.8483945e-05
0.010077061
2.7359285e-05
0.010379632
0.0002545945
0.010778046
0.00037533469
0.011194756
0.0004165834
0.011569198
0.00039273071
0.011865327
0.00032508165
0.012075061
0.00024107668
0.012209438
0.00016264713
0.012287895
0.00010091907
0.012329612
5.7875996e-05
0.012349487
3.0591039e-05
0.012357524
1.4670324e-05
0.012359755
6.0998462e-06
0.012359497
1.8836193e-06
0.012358415
4.6523722e-08
0.012357247
-5.9749188e-07
0.012356265
-7.0425383e-07
0.012355526
-6.0761371e-07
0.012355002
-4.6132333e-07
0.012354646
-3.2666316e-07
0.012354409
-2.2146791e-07
0.012354253
-1.4576453e-07
0.012354152
-9.3801895e-08
0.012354087
-5.9157172e-08
0.012354045
-3.6492823e-08
0.012354017
-2.1853615e-08
0.012354
-1.2503386e-08
0.012353989
-6.5907391e-09
0.012353981
-2.9070142e-09
0.012353977
-6.5393737e-10
0.012353974
6.7606387e-10
0.012353972
1.4249148e-09
0.01235397
1.8002078e-09
0.012353969
1.9487775e-09
0.012353969
1.9490454e-09
0.012353969
1.8708137e-09
0.012353968
1.7389668e-09
0.012353968
1.5889751e-09
0.012353968
1.4214742e-09
0.012353968
1.2617815e-09
0.012353968
1.1013589e-09
0.012353968
9.5809119e-10
0.012353968
8.1762196e-10
0.012353968
6.9806361e-10
0.012353968
5.8367983e-10
0.012353968
4.8923399e-10
0.012353968
3.969637e-10
0.012353968
3.2362184e-10
0.012353968
2.5243988e-10
0.012353968
1.9764067e-10
0.012353968
1.4218487e-10
0.012353968
1.0229827e-10
0.012353968
6.3207478e-11
0.012353968
3.8087218e-11
0.012353968
1.2828143e-11
0.012353968
1.5254657e-12
0.012353968
-7.0658936e-12
0.012353968
-3.1985106e-12
0.012353968
3.0926876e-12
0.012353968
2.1576479e-11
0.012353968
4.5267361e-11
0.012353968
7.7726996e-11
0.012353968
1.1221232e-10
0.012353968
1.5152202e-10
0.012353969
1.9002601e-10
0.012353968
2.2398556e-10
0.012353968
2.4333248e-10
0.012353968
2.4684541e-10
0.012353968
2.2059813e-10
0.012353968
1.7392708e-10
0.012353968
8.4005057e-11
0.012353967
-2.3800466e-11
0.012353967
-1.9131828e-10
0.012353967
-4.0078754e-10
0.012353966
-7.2770653e-10
0.012353965
-1.221834e-09
0.012353963
-2.0244396e-09
0.012353959
-3.4149761e-09
0.012353954
-5.6313827e-09
0.012353945
-9.4652581e-09
0.012353932
-1.4924213e-08
0.012353911
-2.4817623e-08
0.012353884
-3.59655e-08
0.012353833
-6.2736225e-08
0.012353782
-7.8421734e-08
0.012353639
-1.6195857e-07
0.012353566
-1.4749466e-07
0.012353123
-4.4085534e-07
0.012353169
-1.9283955e-07
0.012351774
-1.229542e-06
0.012352534
1.175613e-08
0.012348593
-3.1825463e-06
0.012351152
7.5111679e-07
0.012342892
-6.4522628e-06
0.012345839
8.5106315e-07
0.012337121
-7.633489e-06
0.012331586
-3.2286156e-06
0.01233222
-3.8323264e-06
0.012324819
-5.1021038e-06
-6.3035866e-06
0.010027356
1.7748647e-08
0.010281939
1.5490302e-08
0.010657259
1.0381238e-08
0.011073826
6.2267687e-09
0.011466542
4.5209028e-09
0.011791612
5.0900713e-09
0.01203268
6.7031206e-09
0.012195321
8.6402764e-09
0.012296232
1.0295353e-08
0.012354099
1.1499086e-08
0.012384679
1.2215996e-08
0.012399337
1.249792e-08
0.012405422
1.2386479e-08
0.012407292
1.2003984e-08
0.012407325
1.1376577e-08
0.012406716
1.0680123e-08
0.012406001
9.9300762e-09
0.012405383
9.2665646e-09
0.012404913
8.6698742e-09
0.012404578
8.1894771e-09
0.012404348
7.7735788e-09
0.012404195
7.4080556e-09
0.012404093
7.0504364e-09
0.012404027
6.6842062e-09
0.012403983
6.294503e-09
0.012403955
5.8806315e-09
0.012403937
5.4503072e-09
0.012403925
5.0162208e-09
0.012403917
4.5886006e-09
0.012403912
4.1758659e-09
0.012403908
3.7850944e-09
0.012403906
3.4203713e-09
0.012403905
3.0823426e-09
0.012403904
2.7672248e-09
0.012403903
2.4762751e-09
0.012403903
2.2061663e-09
0.012403902
1.9577142e-09
0.012403902
1.7246647e-09
0.012403902
1.511431e-09
0.012403902
1.3144257e-09
0.012403902
1.1373834e-09
0.012403902
9.7367603e-10
0.012403902
8.2907941e-10
0.012403902
6.9883085e-10
0.012403902
5.8679085e-10
0.012403902
4.8478012e-10
0.012403902
3.9833164e-10
0.012403902
3.2147754e-10
0.012403902
2.5815613e-10
0.012403902
1.9988792e-10
0.012403902
1.5262666e-10
0.012403902
1.1106607e-10
0.012403902
7.9602495e-11
0.012403902
5.1317588e-11
0.012403902
3.2071312e-11
0.012403902
1.8647528e-11
0.012403902
1.4354013e-11
0.012403902
1.4707868e-11
0.012403902
2.3682142e-11
0.012403902
4.0760408e-11
0.012403902
6.5824227e-11
0.012403902
9.6294895e-11
0.012403902
1.3161477e-10
0.012403902
1.7226682e-10
0.012403902
2.1260098e-10
0.012403902
2.4883827e-10
0.012403902
2.7525662e-10
0.012403902
2.891092e-10
0.012403902
2.9116543e-10
0.012403902
2.788392e-10
0.012403901
2.6874695e-10
0.012403901
2.6059929e-10
0.0124039
2.8101961e-10
0.0124039
3.2772063e-10
0.012403899
4.2419347e-10
0.012403897
5.6929364e-10
0.012403894
7.2396523e-10
0.01240389
8.6319259e-10
0.012403883
9.0273696e-10
0.012403872
8.2807598e-10
0.012403855
6.6810185e-10
0.012403829
4.5747857e-10
0.012403793
3.6471328e-10
0.012403731
4.0255915e-10
0.012403654
5.7951792e-10
0.012403493
8.4013549e-10
0.012403345
9.407939e-10
0.012402902
9.1086478e-10
0.012402706
6.6977122e-10
0.012401473
3.3269556e-10
0.012401482
1.8809025e-10
0.0123983
1.1194211e-10
0.012399054
3.3158563e-10
0.012392605
4.0323837e-10
0.012393458
4.1699559e-10
0.012385825
-4.6668501e-12
0.012382594
-3.2643266e-10
0.01237876
-9.2762618e-10
0.012373657
-1.0900285e-09
-1.1400719e-09
0.010027357
-2.7322506e-05
0.01028194
-0.00025456521
0.010657259
-0.00037531539
0.011073826
-0.00041657194
0.011466542
-0.00039272201
0.011791612
-0.00032507165
0.01203268
-0.0002410634
0.01219532
-0.00016263033
0.012296231
-0.00010089919
0.012354098
-5.785406e-05
0.012384678
-3.0567748e-05
0.012399335
-1.4646667e-05
0.012405421
-6.076293e-06
0.012407291
-1.8609286e-06
0.012407325
-2.4881795e-08
0.012406715
6.1768106e-07
0.012406
7.2314783e-07
0.012405383
6.2513251e-07
0.012404913
4.7782552e-07
0.012404578
3.4215975e-07
0.012404348
2.3628224e-07
0.012404194
1.5980254e-07
0.012404093
1.0726428e-07
0.012404027
7.184124e-08
0.012403983
4.8534035e-08
0.012403955
3.3019706e-08
0.012403937
2.2948326e-08
0.012403925
1.6118e-08
0.012403917
1.1715884e-08
0.012403912
8.5839656e-09
0.012403908
6.6070401e-09
0.012403906
5.0712283e-09
0.012403905
4.1469056e-09
0.012403904
3.3061341e-09
0.012403903
2.8467688e-09
0.012403903
2.3192653e-09
0.012403903
2.0696104e-09
0.012403902
1.6845434e-09
0.012403902
1.53791e-09
0.012403902
1.2318583e-09
0.012403902
1.1440936e-09
0.012403902
8.8513119e-10
0.012403902
8.3980921e-10
0.012403902
6.2146541e-10
0.012403902
6.0918575e-10
0.012403902
4.1946289e-10
0.012403902
4.344758e-10
0.012403902
2.7204979e-10
0.012403902
3.074743e-10
0.012403902
1.6188121e-10
0.012403902
2.1350417e-10
0.012403902
8.5479124e-11
0.012403902
1.493066e-10
0.012403902
3.1987818e-11
0.012403902
1.0761498e-10
0.012403902
5.4859333e-12
0.012403902
9.2185493e-11
0.012403902
1.2095898e-12
0.012403902
1.0085524e-10
0.012403902
2.7109833e-11
0.012403902
1.3867127e-10
0.012403902
7.5750288e-11
0.012403902
1.972156e-10
0.012403902
1.4551823e-10
0.012403902
2.6932354e-10
0.012403902
2.1227092e-10
0.012403902
3.2768382e-10
0.012403902
2.5759972e-10
0.012403902
3.687776e-10
0.012403901
2.9886939e-10
0.012403901
4.5267227e-10
0.012403901
4.5626579e-10
0.0124039
7.4932073e-10
0.0124039
9.696847e-10
0.012403899
1.5833803e-09
0.012403897
2.2858098e-09
0.012403894
3.4953304e-09
0.01240389
5.0803887e-09
0.012403883
7.4595308e-09
0.012403871
1.1057536e-08
0.012403854
1.6234683e-08
0.012403828
2.5591814e-08
0.012403792
3.6580477e-08
0.01240373
6.3268336e-08
0.012403654
7.9436974e-08
0.012403493
1.6336804e-07
0.012403345
1.4935736e-07
0.012402902
4.4266338e-07
0.012402706
1.9430742e-07
0.012401472
1.2304204e-06
0.012401482
-1.1309952e-08
0.0123983
3.1828446e-06
0.012399054
-7.5063586e-07
0.012392605
6.452834e-06
0.012393458
-8.5054921e-07
0.012385825
7.6333439e-06
0.012382594
3.2278839e-06
0.01237876
3.8306053e-06
0.012373657
5.1001881e-06
6.3014926e-06
0.010077061
-0.00010437503
0.010379634
-0.00055713852
0.010778049
-0.00077373769
0.011194758
-0.00083329253
0.0115692
-0.00076717396
0.011865327
-0.00062120603
0.012075059
-0.00045079836
0.012209435
-0.00029700586
0.01228789
-0.00017935458
0.012329607
-9.957043e-05
0.012349482
-5.0445026e-05
0.01235752
-2.2686536e-05
0.012359751
-8.3112088e-06
0.012359495
-1.6083242e-06
0.012358413
1.0535409e-06
0.012357245
1.7823143e-06
0.012356264
1.7023209e-06
0.012355525
1.362109e-06
0.012355002
9.9888342e-07
0.012354645
6.9692251e-07
0.012354408
4.7165896e-07
0.012354253
3.1366167e-07
0.012354151
2.0646526e-07
0.012354086
1.3553576e-07
0.012354044
8.890445e-08
0.012354017
5.8703806e-08
0.012354
3.8911314e-08
0.012353989
2.6205296e-08
0.012353981
1.7748026e-08
0.012353977
1.2379885e-08
0.012353974
8.6741731e-09
0.012353972
6.385594e-09
0.012353971
4.6738373e-09
0.01235397
3.6801274e-09
0.012353969
2.8126802e-09
0.012353969
2.3676095e-09
0.012353969
1.8557113e-09
0.012353969
1.6446131e-09
0.012353968
1.2933314e-09
0.012353968
1.1918605e-09
0.012353968
9.169115e-10
0.012353968
8.727954e-10
0.012353968
6.4760558e-10
0.012353968
6.4320797e-10
0.012353968
4.494812e-10
0.012353968
4.7228927e-10
0.012353968
3.0642241e-10
0.012353968
3.5178453e-10
0.012353968
2.0278365e-10
0.012353968
2.6257543e-10
0.012353968
1.299939e-10
0.012353968
2.0259186e-10
0.012353968
7.8875327e-11
0.012353968
1.5984545e-10
0.012353968
4.8349921e-11
0.012353968
1.3961648e-10
0.012353968
3.6011504e-11
0.012353968
1.3573036e-10
0.012353968
4.5595262e-11
0.012353968
1.563475e-10
0.012353968
7.4443593e-11
0.012353969
1.9132937e-10
0.012353968
1.1915647e-10
0.012353968
2.3966927e-10
0.012353968
1.6512757e-10
0.012353968
2.7816086e-10
0.012353968
1.9582213e-10
0.012353968
3.068293e-10
0.012353968
2.2852957e-10
0.012353967
3.8145475e-10
0.012353967
3.8278951e-10
0.012353967
6.8731893e-10
0.012353966
9.2063766e-10
0.012353966
1.5848632e-09
0.012353965
2.3604162e-09
0.012353964
3.7635096e-09
0.012353962
5.5728943e-09
0.012353959
8.4703508e-09
0.012353953
1.2376942e-08
0.012353944
1.9040305e-08
0.01235393
2.7740822e-08
0.01235391
4.535261e-08
0.012353883
6.2817574e-08
0.012353833
1.1482191e-07
0.012353781
1.3245409e-07
0.012353638
3.0822676e-07
0.012353566
2.224364e-07
0.012353122
8.857725e-07
0.012353168
1.4570097e-07
0.012351773
2.6229758e-06
0.012352533
-7.7325704e-07
0.012348593
7.1235417e-06
0.012351152
-3.3073142e-06
0.012342893
1.4715233e-05
0.012345839
-3.7950156e-06
0.012337121
1.635082e-05
0.012331585
8.7612341e-06
0.01233222
3.1934847e-06
0.012324819
1.2499738e-05
1.8482181e-05
0.010213576
-0.00031793675
0.010575347
-0.0009189058
0.010948379
-0.0011467736
0.011281715
-0.0011666394
0.011545719
-0.0010311893
0.01173543
-0.00081092627
0.011860422
-0.00057579498
0.011933862
-0.00037044786
0.01197211
-0.00021760298
0.011989339
-0.00011679955
0.011995433
-5.6539519e-05
0.011996338
-2.3593831e-05
0.011995235
-7.211366e-06
0.011993637
-1.4598922e-08
0.011992164
2.5234716e-06
0.011991
2.9420225e-06
0.011990152
2.5477871e-06
0.011989561
1.950338e-06
0.011989162
1.3961095e-06
0.011988897
9.5965171e-07
0.011988724
6.4282921e-07
0.011988612
4.237646e-07
0.01198854
2.7653579e-07
0.011988494
1.7959278e-07
0.011988465
1.1632047e-07
0.011988447
7.5483751e-08
0.011988436
4.9056083e-08
0.011988428
3.2149228e-08
0.011988424
2.1168452e-08
0.011988421
1.4199441e-08
0.011988419
9.5981247e-09
0.011988418
6.7157881e-09
0.011988417
4.7288425e-09
0.011988417
3.5233898e-09
0.011988416
2.6087552e-09
0.011988416
2.0867589e-09
0.011988416
1.6079205e-09
0.011988416
1.3707833e-09
0.011988416
1.0786533e-09
0.011988416
9.6303708e-10
0.011988416
7.5304339e-10
0.011988416
6.9988748e-10
0.011988416
5.3812762e-10
0.011988416
5.1927841e-10
0.011988416
3.8481859e-10
0.011988416
3.9196537e-10
0.011988416
2.8115239e-10
0.011988416
3.0385503e-10
0.011988416
2.0621542e-10
0.011988416
2.4234261e-10
0.011988416
1.5851106e-10
0.011988416
2.0114381e-10
0.011988416
1.2404482e-10
0.011988416
1.7424701e-10
0.011988416
1.0762852e-10
0.011988416
1.6133898e-10
0.011988416
1.0046159e-10
0.011988416
1.6067843e-10
0.011988416
1.1034969e-10
0.011988416
1.7270711e-10
0.011988416
1.2548837e-10
0.011988416
1.898121e-10
0.011988416
1.4537514e-10
0.011988416
2.0381194e-10
0.011988416
1.4774883e-10
0.011988416
1.9922826e-10
0.011988415
1.3187943e-10
0.011988415
1.9225681e-10
0.011988415
1.4301126e-10
0.011988415
2.8098437e-10
0.011988415
3.4829203e-10
0.011988414
6.7856723e-10
0.011988414
1.0406001e-09
0.011988414
1.7800064e-09
0.011988414
2.7537758e-09
0.011988414
4.2644983e-09
0.011988414
6.3150509e-09
0.011988412
9.4567007e-09
0.011988409
1.3737738e-08
0.011988405
2.1425636e-08
0.0119884
3.0807869e-08
0.011988392
5.2703967e-08
0.011988386
6.8842658e-08
0.011988363
1.3956281e-07
0.011988365
1.3274143e-07
0.011988275
4.0107372e-07
0.011988353
1.44882e-07
0.011987973
1.2644125e-06
0.011988473
-3.5726561e-07
0.011987013
4.0794304e-06
0.011989072
-2.8346141e-06
0.011984588
1.1607634e-05
0.011989906
-8.6229321e-06
0.01198123
2.339518e-05
0.01198569
-8.2523996e-06
0.011982553
1.948858e-05
0.011965462
2.5850139e-05
0.011984218
-1.5566176e-05
0.011969021
2.769493e-05
6.4957472e-05
0.010411828
-0.00072974072
0.010570437
-0.0010775029
0.010557865
-0.0011342034
0.010422769
-0.0010315564
0.010230958
-0.0008393969
0.010063827
-0.0006438128
0.0099563238
-0.00046830274
0.00989265
-0.00030677774
0.0098589025
-0.00018385351
0.0098432589
-0.00010115278
0.0098372971
-5.0575532e-05
0.0098358595
-2.2156988e-05
0.0098361822
-7.5372909e-06
0.0098369707
-8.0824225e-07
0.0098377161
1.7725366e-06
0.0098382761
2.3766591e-06
0.0098386537
2.1659702e-06
0.0098388932
1.7072191e-06
0.0098390406
1.2464074e-06
0.0098391297
8.6810639e-07
0.0098391842
5.8671367e-07
0.0098392175
3.8821791e-07
0.0098392388
2.5358159e-07
0.0098392523
1.6384707e-07
0.0098392614
1.0548916e-07
0.0098392672
6.74434e-08
0.0098392714
4.3317515e-08
0.009839274
2.7605463e-08
0.009839276
1.7904155e-08
0.0098392772
1.1437297e-08
0.0098392783
7.6288039e-09
0.0098392788
4.9005839e-09
0.0098392794
3.46782e-09
0.0098392797
2.2407559e-09
0.0098392801
1.75425e-09
0.0098392802
1.1218768e-09
0.0098392806
1.0176483e-09
0.0098392806
6.288989e-10
0.0098392809
6.7663094e-10
0.0098392808
3.8471657e-10
0.0098392811
5.0050921e-10
0.009839281
2.5654615e-10
0.0098392812
4.00308e-10
0.0098392811
1.7657378e-10
0.0098392813
3.3875303e-10
0.0098392812
1.3259405e-10
0.0098392814
3.0189262e-10
0.0098392813
1.0348997e-10
0.0098392815
2.8120135e-10
0.0098392814
9.4614086e-11
0.0098392816
2.7375429e-10
0.0098392814
9.1981748e-11
0.0098392816
2.7536477e-10
0.0098392815
1.0331814e-10
0.0098392817
2.841686e-10
0.0098392816
1.1457154e-10
0.0098392818
2.9505717e-10
0.0098392817
1.3209991e-10
0.0098392818
3.0353418e-10
0.0098392817
1.356376e-10
0.0098392818
2.9637289e-10
0.0098392816
1.2172112e-10
0.0098392817
2.6198999e-10
0.0098392814
6.1646735e-11
0.0098392814
1.855011e-10
0.009839281
-4.1345992e-11
0.0098392809
9.0889007e-11
0.0098392805
-1.3415698e-10
0.0098392805
8.1508547e-11
0.0098392803
-5.5062882e-11
0.0098392805
3.1225179e-10
0.0098392807
3.7272381e-10
0.0098392815
9.5072946e-10
0.0098392824
1.3344972e-09
0.0098392839
2.1339756e-09
0.0098392854
2.8703454e-09
0.0098392873
4.0390596e-09
0.0098392893
5.5627454e-09
0.0098392925
8.1009915e-09
0.0098392971
1.3122008e-08
0.009839307
1.8856789e-08
0.0098393217
3.6927612e-08
0.009839353
4.004879e-08
0.0098393876
1.0920381e-07
0.0098394805
4.531484e-08
0.0098395273
3.5800271e-07
0.0098398266
-1.5416179e-07
0.0098397655
1.3210386e-06
0.0098407945
-1.3933082e-06
0.0098401189
4.7472116e-06
0.0098432352
-5.9541195e-06
0.0098412834
1.3560353e-05
0.0098470953
-1.4428011e-05
0.0098488867
2.1611126e-05
0.0098459341
-5.2942276e-06
0.009877376
-1.195279e-05
0.0098371684
6.6053687e-05
0.0099008815
-7.9285125e-05
0.0099223947
6.1767835e-06
0.00015103949
0.0092702709
0.0081927708
0.0070585602
0.0060269884
0.0051875743
0.0045437492
0.0040754414
0.003768665
0.0035848151
0.0034836657
0.0034330909
0.0034109321
0.0034033907
0.0034025776
0.0034043451
0.0034067178
0.0034088804
0.0034105855
0.0034118299
0.0034126967
0.0034132817
0.0034136686
0.0034139204
0.0034140828
0.0034141864
0.0034142524
0.003414294
0.0034143206
0.003414337
0.0034143477
0.0034143542
0.0034143585
0.0034143611
0.003414363
0.003414364
0.0034143649
0.0034143653
0.0034143658
0.0034143659
0.0034143663
0.0034143663
0.0034143666
0.0034143666
0.0034143669
0.003414367
0.0034143673
0.0034143673
0.0034143676
0.0034143676
0.003414368
0.0034143681
0.0034143685
0.0034143686
0.003414369
0.0034143691
0.0034143696
0.0034143698
0.0034143702
0.0034143703
0.0034143707
0.0034143708
0.0034143711
0.003414371
0.0034143711
0.0034143708
0.0034143706
0.0034143701
0.0034143699
0.0034143695
0.0034143696
0.0034143698
0.0034143709
0.0034143722
0.0034143744
0.0034143767
0.0034143794
0.0034143818
0.0034143852
0.00341439
0.003414401
0.0034144185
0.0034144573
0.003414501
0.0034146154
0.0034146648
0.0034150239
0.0034148665
0.0034161812
0.0034147802
0.0034195231
0.0034135687
0.0034271346
0.0034127136
0.0034343311
0.0034290387
0.0034170832
0.0034831313
0.0034038409
0.0034100159
)
;

boundaryField
{
    top
    {
        type            calculated;
        value           uniform 0;
    }
    inlet
    {
        type            calculated;
        value           nonuniform List<scalar> 10(-0.01 -0.01 -0.01 -0.01 -0.01 -0.01 -0.01 -0.01 -0.01 -0.01);
    }
    outlet
    {
        type            calculated;
        value           nonuniform List<scalar> 10(0.0035610609 0.0098363136 0.011922545 0.012312638 0.012367354 0.012367354 0.012312638 0.011922544 0.0098363113 0.0035610554);
    }
    bottom
    {
        type            calculated;
        value           uniform 0;
    }
    back
    {
        type            empty;
        value           nonuniform List<scalar> 0();
    }
    front
    {
        type            empty;
        value           nonuniform List<scalar> 0();
    }
}


// ************************************************************************* //
