/*--------------------------------*- C++ -*----------------------------------*\
| =========                 |                                                 |
| \\      /  F ield         | OpenFOAM: The Open Source CFD Toolbox           |
|  \\    /   O peration     | Version:  2112                                  |
|   \\  /    A nd           | Website:  www.openfoam.com                      |
|    \\/     M anipulation  |                                                 |
\*---------------------------------------------------------------------------*/
FoamFile
{
    version     2.0;
    format      ascii;
    arch        "LSB;label=32;scalar=64";
    class       volVectorField;
    location    "10";
    object      U;
}
// * * * * * * * * * * * * * * * * * * * * * * * * * * * * * * * * * * * * * //

dimensions      [0 1 -1 0 0 0 0];

internalField   nonuniform List<vector> 
1000
(
(0.92341761 0.035923235 0)
(0.86362646 0.068780842 0)
(0.74951975 0.075260668 0)
(0.59748427 0.067669032 0)
(0.44715722 0.053417469 0)
(0.33180152 0.040349759 0)
(0.25676455 0.029880514 0)
(0.21515168 0.020737883 0)
(0.19279615 0.013358509 0)
(0.18092642 0.007966353 0)
(0.17468572 0.0043970557 0)
(0.17148144 0.0022323947 0)
(0.16990042 0.0010191394 0)
(0.16916385 0.00039051629 0)
(0.16884867 9.3452262e-05 0)
(0.16873252 -2.9179872e-05 0)
(0.16870354 -6.7307608e-05 0)
(0.16870845 -6.878976e-05 0)
(0.16872348 -5.7239108e-05 0)
(0.16873908 -4.3249676e-05 0)
(0.16875204 -3.0908376e-05 0)
(0.16876183 -2.1308723e-05 0)
(0.16876883 -1.432813e-05 0)
(0.16877369 -9.457113e-06 0)
(0.16877699 -6.1500358e-06 0)
(0.1687792 -3.9473908e-06 0)
(0.16878067 -2.5008666e-06 0)
(0.16878166 -1.5611429e-06 0)
(0.16878231 -9.5601067e-07 0)
(0.16878276 -5.6902884e-07 0)
(0.16878306 -3.2309769e-07 0)
(0.16878328 -1.6774782e-07 0)
(0.16878342 -7.0492932e-08 0)
(0.16878353 -1.0113921e-08 0)
(0.1687836 2.6711886e-08 0)
(0.16878365 4.8571273e-08 0)
(0.16878368 6.0638414e-08 0)
(0.1687837 6.6639852e-08 0)
(0.1687837 6.8658313e-08 0)
(0.1687837 6.8199995e-08 0)
(0.16878369 6.5894819e-08 0)
(0.16878369 6.2630447e-08 0)
(0.16878367 5.8644022e-08 0)
(0.16878366 5.4295906e-08 0)
(0.16878364 4.9473833e-08 0)
(0.16878362 4.461289e-08 0)
(0.1687836 3.9684541e-08 0)
(0.16878359 3.4883137e-08 0)
(0.16878357 3.0037779e-08 0)
(0.16878356 2.5519886e-08 0)
(0.16878354 2.1313501e-08 0)
(0.16878354 1.7553458e-08 0)
(0.16878352 1.4073234e-08 0)
(0.16878352 1.1145337e-08 0)
(0.16878351 8.7268412e-09 0)
(0.16878351 6.8246684e-09 0)
(0.1687835 5.2250303e-09 0)
(0.1687835 4.0728388e-09 0)
(0.1687835 3.2796935e-09 0)
(0.1687835 2.7692117e-09 0)
(0.16878349 2.299077e-09 0)
(0.16878349 1.9894163e-09 0)
(0.16878348 1.7261201e-09 0)
(0.16878348 1.42637e-09 0)
(0.16878346 7.6134344e-10 0)
(0.16878346 -2.3678038e-10 0)
(0.16878345 -1.892521e-09 0)
(0.16878344 -4.5484708e-09 0)
(0.16878344 -8.8996096e-09 0)
(0.16878344 -1.5402193e-08 0)
(0.16878345 -2.5081876e-08 0)
(0.16878349 -3.9161967e-08 0)
(0.16878355 -5.952726e-08 0)
(0.16878366 -8.8938091e-08 0)
(0.16878383 -1.3149212e-07 0)
(0.16878411 -1.9637011e-07 0)
(0.16878453 -2.9335215e-07 0)
(0.16878515 -4.5040171e-07 0)
(0.16878603 -6.8190461e-07 0)
(0.16878746 -1.0954821e-06 0)
(0.16878937 -1.6277306e-06 0)
(0.16879325 -2.8347104e-06 0)
(0.16879728 -3.7659185e-06 0)
(0.16880977 -7.8466007e-06 0)
(0.16881393 -7.4242175e-06 0)
(0.16885989 -2.3987792e-05 0)
(0.16883296 -7.5202104e-06 0)
(0.16902376 -8.2087526e-05 0)
(0.16878161 2.9443931e-05 0)
(0.1695772 -0.00028928601 0)
(0.16838062 0.00021721272 0)
(0.17118882 -0.00088802495 0)
(0.16731298 0.00062900095 0)
(0.17400019 -0.0018261714 0)
(0.16800661 -1.8149609e-07 0)
(0.17249663 -0.00097611162 0)
(0.18030785 -0.006080185 0)
(0.16022129 0.0010561591 0)
(0.1893881 -0.010424215 0)
(0.19509371 -0.017304843 0)
(1.0047644 0.058226303 0)
(1.0502167 0.12853521 0)
(1.0548835 0.15779778 0)
(1.0245745 0.1625278 0)
(0.98284765 0.14838544 0)
(0.94875831 0.12218564 0)
(0.92850174 0.091802233 0)
(0.91889696 0.063681855 0)
(0.91509455 0.041361671 0)
(0.91389257 0.025455469 0)
(0.91366921 0.014988775 0)
(0.91373157 0.0085097522 0)
(0.91382796 0.0046877825 0)
(0.91388969 0.0025187856 0)
(0.91391326 0.0013258415 0)
(0.91391203 0.0006860991 0)
(0.91389911 0.00034985346 0)
(0.91388309 0.00017588253 0)
(0.91386839 8.6980177e-05 0)
(0.91385665 4.2029491e-05 0)
(0.91384803 1.9555935e-05 0)
(0.91384203 8.4937717e-06 0)
(0.91383804 3.1846998e-06 0)
(0.91383545 7.4849916e-07 0)
(0.91383382 -2.7870466e-07 0)
(0.91383281 -6.3622894e-07 0)
(0.9138322 -6.9439799e-07 0)
(0.91383185 -6.3338189e-07 0)
(0.91383166 -5.3758883e-07 0)
(0.91383156 -4.4246963e-07 0)
(0.91383153 -3.6091119e-07 0)
(0.91383153 -2.948222e-07 0)
(0.91383155 -2.4267618e-07 0)
(0.91383159 -2.0114422e-07 0)
(0.91383162 -1.6786656e-07 0)
(0.91383166 -1.4033917e-07 0)
(0.9138317 -1.174507e-07 0)
(0.91383174 -9.7612187e-08 0)
(0.91383177 -8.0608823e-08 0)
(0.9138318 -6.5522391e-08 0)
(0.91383182 -5.2630821e-08 0)
(0.91383185 -4.1122329e-08 0)
(0.91383187 -3.1502572e-08 0)
(0.91383188 -2.3139219e-08 0)
(0.9138319 -1.6664923e-08 0)
(0.91383191 -1.1289874e-08 0)
(0.91383192 -7.6492247e-09 0)
(0.91383193 -4.9767641e-09 0)
(0.91383194 -3.886823e-09 0)
(0.91383194 -3.3964249e-09 0)
(0.91383195 -4.0541895e-09 0)
(0.91383195 -4.949664e-09 0)
(0.91383196 -6.6308807e-09 0)
(0.91383196 -8.1178392e-09 0)
(0.91383197 -9.9644356e-09 0)
(0.91383197 -1.1438071e-08 0)
(0.91383198 -1.3158238e-08 0)
(0.91383199 -1.4461313e-08 0)
(0.91383199 -1.5988706e-08 0)
(0.913832 -1.7370991e-08 0)
(0.91383201 -1.927314e-08 0)
(0.91383201 -2.1355092e-08 0)
(0.91383202 -2.4254261e-08 0)
(0.91383203 -2.7880819e-08 0)
(0.91383204 -3.2868356e-08 0)
(0.91383204 -3.9161113e-08 0)
(0.91383206 -4.747023e-08 0)
(0.91383207 -5.8176307e-08 0)
(0.91383208 -7.2218602e-08 0)
(0.9138321 -9.033835e-08 0)
(0.91383213 -1.1417984e-07 0)
(0.91383216 -1.4571872e-07 0)
(0.9138322 -1.8844975e-07 0)
(0.91383227 -2.4774625e-07 0)
(0.91383236 -3.3166518e-07 0)
(0.9138325 -4.5687685e-07 0)
(0.91383269 -6.415205e-07 0)
(0.913833 -9.3705708e-07 0)
(0.91383335 -1.3713185e-06 0)
(0.9138342 -2.1369158e-06 0)
(0.91383457 -3.1394964e-06 0)
(0.9138378 -5.3449571e-06 0)
(0.91383578 -7.2359864e-06 0)
(0.91385164 -1.4569033e-05 0)
(0.91382784 -1.5056371e-05 0)
(0.91391355 -4.3734732e-05 0)
(0.91374813 -2.1004537e-05 0)
(0.91419503 -0.00014462937 0)
(0.91329612 2.0906214e-05 0)
(0.9153382 -0.0004931463 0)
(0.91148574 0.00027662446 0)
(0.91890188 -0.0015111868 0)
(0.90691607 0.00092123768 0)
(0.92509159 -0.0034270172 0)
(0.90424632 0.00062311173 0)
(0.92088172 -0.0040451562 0)
(0.92631722 -0.0058364262 0)
(0.88316094 -0.0017254951 0)
(0.96089471 -0.013808662 0)
(0.87943496 -0.017962749 0)
(1.0001525 0.032347284 0)
(1.0434798 0.088107252 0)
(1.0763028 0.11802489 0)
(1.0917903 0.12808729 0)
(1.09873 0.12088331 0)
(1.1055195 0.10146598 0)
(1.1140439 0.077110859 0)
(1.1224143 0.053919458 0)
(1.1289524 0.035210505 0)
(1.1332821 0.021735915 0)
(1.1358109 0.012806144 0)
(1.1371358 0.0072552016 0)
(1.1377548 0.0039761386 0)
(1.1380007 0.0021181202 0)
(1.1380684 0.0011010253 0)
(1.1380613 0.0005600371 0)
(1.1380296 0.00027909442 0)
(1.137995 0.00013608455 0)
(1.1379655 6.4535664e-05 0)
(1.1379429 2.9330471e-05 0)
(1.1379266 1.2345445e-05 0)
(1.1379152 4.3861537e-06 0)
(1.1379074 8.4167598e-07 0)
(1.1379022 -5.8288825e-07 0)
(1.1378987 -1.0230081e-06 0)
(1.1378964 -1.0350437e-06 0)
(1.1378949 -8.8616317e-07 0)
(1.137894 -6.9933237e-07 0)
(1.1378934 -5.258635e-07 0)
(1.137893 -3.8313479e-07 0)
(1.1378927 -2.7271158e-07 0)
(1.1378926 -1.9051713e-07 0)
(1.1378925 -1.3034098e-07 0)
(1.1378924 -8.6842231e-08 0)
(1.1378924 -5.528894e-08 0)
(1.1378924 -3.2532776e-08 0)
(1.1378924 -1.5822023e-08 0)
(1.1378924 -3.6205197e-09 0)
(1.1378924 5.4414419e-09 0)
(1.1378924 1.1952688e-08 0)
(1.1378924 1.6713046e-08 0)
(1.1378924 1.9952483e-08 0)
(1.1378924 2.2044175e-08 0)
(1.1378924 2.2978497e-08 0)
(1.1378924 2.3064907e-08 0)
(1.1378924 2.2301255e-08 0)
(1.1378924 2.0848325e-08 0)
(1.1378924 1.8660437e-08 0)
(1.1378924 1.5997313e-08 0)
(1.1378924 1.2908064e-08 0)
(1.1378925 9.579045e-09 0)
(1.1378925 6.0057225e-09 0)
(1.1378925 2.4722463e-09 0)
(1.1378925 -1.0121714e-09 0)
(1.1378925 -4.2741996e-09 0)
(1.1378925 -7.4609757e-09 0)
(1.1378925 -1.0338632e-08 0)
(1.1378925 -1.3119319e-08 0)
(1.1378925 -1.5680613e-08 0)
(1.1378925 -1.8413618e-08 0)
(1.1378925 -2.1098163e-08 0)
(1.1378925 -2.4184475e-08 0)
(1.1378925 -2.7558962e-08 0)
(1.1378925 -3.1870748e-08 0)
(1.1378925 -3.6934973e-08 0)
(1.1378925 -4.356638e-08 0)
(1.1378925 -5.1856122e-08 0)
(1.1378925 -6.3043832e-08 0)
(1.1378925 -7.7436282e-08 0)
(1.1378925 -9.6777662e-08 0)
(1.1378925 -1.2213278e-07 0)
(1.1378925 -1.5643982e-07 0)
(1.1378925 -2.0260691e-07 0)
(1.1378925 -2.6736602e-07 0)
(1.1378925 -3.5917868e-07 0)
(1.1378924 -4.9670479e-07 0)
(1.1378924 -7.0169605e-07 0)
(1.1378924 -1.0290555e-06 0)
(1.1378921 -1.5240496e-06 0)
(1.1378922 -2.3715305e-06 0)
(1.137891 -3.5695226e-06 0)
(1.1378926 -5.9108682e-06 0)
(1.1378857 -8.5137164e-06 0)
(1.1378995 -1.5571923e-05 0)
(1.1378587 -1.9322766e-05 0)
(1.1379498 -4.3427476e-05 0)
(1.1377194 -3.7873593e-05 0)
(1.1382246 -0.00012906534 0)
(1.1370817 -5.055341e-05 0)
(1.13941 -0.00039436274 0)
(1.1347441 4.0234722e-06 0)
(1.1431389 -0.0011210567 0)
(1.1288993 0.00015841184 0)
(1.1496124 -0.0025542994 0)
(1.1233911 -0.00031023875 0)
(1.1461116 -0.0038731667 0)
(1.1387485 -0.0036668835 0)
(1.1111999 -0.0040442836 0)
(1.1640685 -0.0065552389 0)
(1.1084677 -0.0055956859 0)
(0.99838846 0.014571822 0)
(1.0301498 0.04780925 0)
(1.0594808 0.067676324 0)
(1.0804474 0.075472254 0)
(1.096558 0.072602692 0)
(1.1128433 0.061994942 0)
(1.1297939 0.047919563 0)
(1.1450405 0.0341031 0)
(1.1568125 0.02267233 0)
(1.1648571 0.01424616 0)
(1.1698536 0.0085393684 0)
(1.1727245 0.0049195467 0)
(1.1742657 0.0027410199 0)
(1.1750407 0.0014851418 0)
(1.1754036 0.0007863993 0)
(1.1755584 0.00040876001 0)
(1.1756147 0.00020932564 0)
(1.1756282 0.00010584321 0)
(1.175625 5.2826172e-05 0)
(1.175617 2.5911756e-05 0)
(1.1756088 1.2354192e-05 0)
(1.1756018 5.5974755e-06 0)
(1.1755965 2.2915985e-06 0)
(1.1755926 7.3427421e-07 0)
(1.1755898 5.051793e-08 0)
(1.1755878 -2.0307745e-07 0)
(1.1755864 -2.5905744e-07 0)
(1.1755855 -2.2916412e-07 0)
(1.1755848 -1.7359291e-07 0)
(1.1755844 -1.1428195e-07 0)
(1.1755841 -6.5145142e-08 0)
(1.1755839 -2.5037295e-08 0)
(1.1755838 2.9927805e-09 0)
(1.1755837 2.4295998e-08 0)
(1.1755837 3.7139874e-08 0)
(1.1755837 4.6798573e-08 0)
(1.1755836 5.1081563e-08 0)
(1.1755836 5.4430931e-08 0)
(1.1755836 5.4083131e-08 0)
(1.1755836 5.4067351e-08 0)
(1.1755836 5.1380517e-08 0)
(1.1755836 4.9653057e-08 0)
(1.1755836 4.5676467e-08 0)
(1.1755836 4.3012826e-08 0)
(1.1755836 3.8434474e-08 0)
(1.1755836 3.5312489e-08 0)
(1.1755836 3.0327813e-08 0)
(1.1755836 2.6919901e-08 0)
(1.1755836 2.1816166e-08 0)
(1.1755836 1.8356976e-08 0)
(1.1755836 1.3206014e-08 0)
(1.1755836 9.8136361e-09 0)
(1.1755836 4.8863189e-09 0)
(1.1755836 1.775996e-09 0)
(1.1755836 -2.8929671e-09 0)
(1.1755836 -5.6866607e-09 0)
(1.1755836 -9.9599405e-09 0)
(1.1755836 -1.2408039e-08 0)
(1.1755836 -1.6474902e-08 0)
(1.1755836 -1.8783556e-08 0)
(1.1755836 -2.2757707e-08 0)
(1.1755836 -2.5191619e-08 0)
(1.1755836 -2.9632877e-08 0)
(1.1755836 -3.2870943e-08 0)
(1.1755836 -3.8485803e-08 0)
(1.1755836 -4.3605651e-08 0)
(1.1755836 -5.2041088e-08 0)
(1.1755836 -6.1121792e-08 0)
(1.1755836 -7.4833345e-08 0)
(1.1755836 -9.0819887e-08 0)
(1.1755836 -1.1341206e-07 0)
(1.1755835 -1.4063615e-07 0)
(1.1755835 -1.7813708e-07 0)
(1.1755835 -2.2640145e-07 0)
(1.1755834 -2.9525383e-07 0)
(1.1755833 -3.9344817e-07 0)
(1.1755831 -5.4182684e-07 0)
(1.1755829 -7.757691e-07 0)
(1.1755824 -1.1392573e-06 0)
(1.175582 -1.750036e-06 0)
(1.1755799 -2.6551092e-06 0)
(1.1755805 -4.3009781e-06 0)
(1.1755711 -6.3863062e-06 0)
(1.1755833 -1.1033701e-05 0)
(1.175534 -1.4963899e-05 0)
(1.1756256 -2.9376835e-05 0)
(1.175365 -3.2501574e-05 0)
(1.1758903 -8.166242e-05 0)
(1.1746396 -6.1162452e-05 0)
(1.1770754 -0.00023173059 0)
(1.1720644 -9.2768959e-05 0)
(1.1808306 -0.00062293953 0)
(1.1656927 -0.00014330109 0)
(1.1873104 -0.0014036901 0)
(1.1592615 -0.00050934095 0)
(1.1838599 -0.0022752133 0)
(1.1729923 -0.0018949779 0)
(1.1509003 -0.0024909141 0)
(1.1953652 -0.0024832468 0)
(1.1540812 -0.001791142 0)
(0.99806306 0.0042438959 0)
(1.0247082 0.015209741 0)
(1.0495118 0.021997742 0)
(1.06883 0.02477561 0)
(1.0852734 0.024047307 0)
(1.1031716 0.020749255 0)
(1.1226075 0.016226013 0)
(1.1406946 0.011691257 0)
(1.1551525 0.0078715392 0)
(1.1654095 0.0050093156 0)
(1.1720491 0.0030410125 0)
(1.1760471 0.0017744932 0)
(1.1783156 0.0010018246 0)
(1.1795389 0.0005505133 0)
(1.1801689 0.00029612638 0)
(1.1804791 0.00015678564 0)
(1.1806249 8.2124802e-05 0)
(1.1806896 4.2740873e-05 0)
(1.1807158 2.2165994e-05 0)
(1.1807248 1.1467761e-05 0)
(1.1807265 5.9156591e-06 0)
(1.1807253 3.039259e-06 0)
(1.1807233 1.5575474e-06 0)
(1.1807214 8.0403209e-07 0)
(1.1807197 4.3001941e-07 0)
(1.1807183 2.5157619e-07 0)
(1.1807173 1.7132404e-07 0)
(1.1807165 1.3854852e-07 0)
(1.180716 1.2667691e-07 0)
(1.1807156 1.231105e-07 0)
(1.1807153 1.2158436e-07 0)
(1.1807152 1.2012437e-07 0)
(1.1807151 1.1748193e-07 0)
(1.180715 1.1387582e-07 0)
(1.1807149 1.0912429e-07 0)
(1.1807149 1.0387612e-07 0)
(1.1807149 9.7887472e-08 0)
(1.1807149 9.1600429e-08 0)
(1.1807148 8.4863274e-08 0)
(1.1807148 7.8227634e-08 0)
(1.1807148 7.1409687e-08 0)
(1.1807148 6.4765977e-08 0)
(1.1807148 5.8108301e-08 0)
(1.1807148 5.1906231e-08 0)
(1.1807148 4.5816254e-08 0)
(1.1807148 4.0100985e-08 0)
(1.1807148 3.4498076e-08 0)
(1.1807148 2.9393992e-08 0)
(1.1807148 2.4388092e-08 0)
(1.1807148 1.9692501e-08 0)
(1.1807148 1.5021577e-08 0)
(1.1807148 1.0744109e-08 0)
(1.1807148 6.470902e-09 0)
(1.1807148 2.4194898e-09 0)
(1.1807148 -1.6630737e-09 0)
(1.1807148 -5.4027644e-09 0)
(1.1807148 -9.1541261e-09 0)
(1.1807148 -1.2709452e-08 0)
(1.1807148 -1.6292566e-08 0)
(1.1807148 -1.9555706e-08 0)
(1.1807148 -2.2869835e-08 0)
(1.1807148 -2.6115633e-08 0)
(1.1807148 -2.9610564e-08 0)
(1.1807148 -3.3158275e-08 0)
(1.1807148 -3.7341668e-08 0)
(1.1807148 -4.2279571e-08 0)
(1.1807148 -4.8619612e-08 0)
(1.1807148 -5.643361e-08 0)
(1.1807148 -6.6513338e-08 0)
(1.1807147 -7.8764134e-08 0)
(1.1807147 -9.3704837e-08 0)
(1.1807147 -1.1067362e-07 0)
(1.1807146 -1.3062805e-07 0)
(1.1807146 -1.5314283e-07 0)
(1.1807145 -1.8076421e-07 0)
(1.1807144 -2.156777e-07 0)
(1.1807141 -2.6633878e-07 0)
(1.1807138 -3.466387e-07 0)
(1.1807131 -4.7580463e-07 0)
(1.1807125 -6.9773825e-07 0)
(1.18071 -1.0360507e-06 0)
(1.1807101 -1.6338197e-06 0)
(1.1806995 -2.4270773e-06 0)
(1.1807108 -4.0435301e-06 0)
(1.1806579 -5.6371654e-06 0)
(1.180749 -1.0397819e-05 0)
(1.180476 -1.2521279e-05 0)
(1.181007 -2.7901586e-05 0)
(1.1797138 -2.5531096e-05 0)
(1.1821856 -7.6268489e-05 0)
(1.1770447 -4.6558484e-05 0)
(1.1859345 -0.00019838847 0)
(1.1704893 -8.67499e-05 0)
(1.1923685 -0.00043957786 0)
(1.1638515 -0.000225931 0)
(1.1888015 -0.00071927729 0)
(1.1774814 -0.00060650803 0)
(1.1563541 -0.00080224269 0)
(1.1995575 -0.00067926637 0)
(1.1615029 -0.00048478657 0)
(0.99806307 -0.0042419202 0)
(1.0247082 -0.015208119 0)
(1.0495118 -0.021997159 0)
(1.0688301 -0.024775797 0)
(1.0852735 -0.024047732 0)
(1.1031716 -0.02074951 0)
(1.1226075 -0.016225951 0)
(1.1406945 -0.011690868 0)
(1.1551523 -0.0078708899 0)
(1.1654094 -0.0050084777 0)
(1.1720489 -0.0030400319 0)
(1.1760469 -0.0017734221 0)
(1.1783155 -0.0010006978 0)
(1.1795388 -0.00054938596 0)
(1.1801688 -0.00029503748 0)
(1.1804791 -0.00015577434 0)
(1.1806249 -8.1204033e-05 0)
(1.1806896 -4.1912489e-05 0)
(1.1807158 -2.1411564e-05 0)
(1.1807248 -1.0768961e-05 0)
(1.1807265 -5.2485799e-06 0)
(1.1807253 -2.3935107e-06 0)
(1.1807233 -9.2231547e-07 0)
(1.1807214 -1.8428138e-07 0)
(1.1807197 1.7392953e-07 0)
(1.1807183 3.2464562e-07 0)
(1.1807173 3.7590952e-07 0)
(1.1807165 3.7011723e-07 0)
(1.180716 3.462804e-07 0)
(1.1807156 3.0888409e-07 0)
(1.1807154 2.7626951e-07 0)
(1.1807152 2.4124213e-07 0)
(1.1807151 2.1531673e-07 0)
(1.180715 1.8809469e-07 0)
(1.180715 1.6959116e-07 0)
(1.1807149 1.4886693e-07 0)
(1.1807149 1.3537472e-07 0)
(1.1807149 1.1849541e-07 0)
(1.1807149 1.0809411e-07 0)
(1.1807149 9.3882326e-08 0)
(1.1807148 8.5525854e-08 0)
(1.1807148 7.3030957e-08 0)
(1.1807148 6.6378833e-08 0)
(1.1807148 5.5666362e-08 0)
(1.1807148 5.0524767e-08 0)
(1.1807148 4.1123504e-08 0)
(1.1807148 3.733839e-08 0)
(1.1807148 2.929221e-08 0)
(1.1807148 2.6530422e-08 0)
(1.1807148 1.9191606e-08 0)
(1.1807148 1.7135151e-08 0)
(1.1807148 1.0451383e-08 0)
(1.1807148 8.7505551e-09 0)
(1.1807148 2.1629934e-09 0)
(1.1807148 6.684197e-10 0)
(1.1807148 -5.6346745e-09 0)
(1.1807148 -6.9953324e-09 0)
(1.1807148 -1.3281657e-08 0)
(1.1807148 -1.437424e-08 0)
(1.1807148 -2.0212994e-08 0)
(1.1807148 -2.0985921e-08 0)
(1.1807148 -2.666138e-08 0)
(1.1807148 -2.7200542e-08 0)
(1.1807148 -3.2639454e-08 0)
(1.1807148 -3.3504578e-08 0)
(1.1807148 -3.972199e-08 0)
(1.1807148 -4.1862379e-08 0)
(1.1807148 -4.9545979e-08 0)
(1.1807147 -5.3486393e-08 0)
(1.1807147 -6.2487135e-08 0)
(1.1807147 -6.6014697e-08 0)
(1.1807146 -7.2161525e-08 0)
(1.1807146 -6.8808659e-08 0)
(1.1807145 -6.2745966e-08 0)
(1.1807145 -3.9582066e-08 0)
(1.1807143 -3.1588211e-09 0)
(1.1807141 5.9778209e-08 0)
(1.1807138 1.5388312e-07 0)
(1.1807131 2.9331823e-07 0)
(1.1807125 5.1138285e-07 0)
(1.18071 8.3194889e-07 0)
(1.1807101 1.3946763e-06 0)
(1.1806995 2.1591179e-06 0)
(1.1807108 3.7556862e-06 0)
(1.1806579 5.3607175e-06 0)
(1.180749 1.0161314e-05 0)
(1.180476 1.2334121e-05 0)
(1.181007 2.7757474e-05 0)
(1.1797138 2.5386619e-05 0)
(1.1821856 7.608462e-05 0)
(1.1770447 4.6330686e-05 0)
(1.1859345 0.00019814662 0)
(1.1704893 8.6561722e-05 0)
(1.1923685 0.00043946287 0)
(1.1638515 0.00022587269 0)
(1.1888015 0.00071918259 0)
(1.1774814 0.00060636291 0)
(1.1563541 0.00080199062 0)
(1.1995576 0.00067901574 0)
(1.1615029 0.00048454809 0)
(0.99838845 -0.014570133 0)
(1.0301498 -0.047807773 0)
(1.059481 -0.067675669 0)
(1.0804477 -0.075472259 0)
(1.0965583 -0.07260294 0)
(1.1128433 -0.061995111 0)
(1.1297937 -0.047919509 0)
(1.1450401 -0.034102807 0)
(1.156812 -0.022671832 0)
(1.1648566 -0.014245496 0)
(1.1698531 -0.0085385675 0)
(1.1727241 -0.0049186323 0)
(1.1742654 -0.0027400287 0)
(1.1750405 -0.0014841159 0)
(1.1754035 -0.00078539027 0)
(1.1755583 -0.00040780575 0)
(1.1756147 -0.00020845375 0)
(1.1756281 -0.00010505615 0)
(1.175625 -5.2117038e-05 0)
(1.175617 -2.5258723e-05 0)
(1.1756088 -1.1741276e-05 0)
(1.1756019 -5.005707e-06 0)
(1.1755965 -1.7164465e-06 0)
(1.1755926 -1.6989247e-07 0)
(1.1755898 4.9580673e-07 0)
(1.1755878 7.3039666e-07 0)
(1.1755865 7.5759749e-07 0)
(1.1755855 6.9908488e-07 0)
(1.1755849 6.0796911e-07 0)
(1.1755845 5.1704272e-07 0)
(1.1755842 4.3289894e-07 0)
(1.175584 3.6406012e-07 0)
(1.1755839 3.0510255e-07 0)
(1.1755838 2.5960229e-07 0)
(1.1755838 2.2044633e-07 0)
(1.1755837 1.9064562e-07 0)
(1.1755837 1.633514e-07 0)
(1.1755837 1.4261593e-07 0)
(1.1755837 1.2253157e-07 0)
(1.1755837 1.0742685e-07 0)
(1.1755837 9.164699e-08 0)
(1.1755837 8.0177906e-08 0)
(1.1755837 6.7816542e-08 0)
(1.1755836 5.9349164e-08 0)
(1.1755836 4.9421578e-08 0)
(1.1755836 4.3162952e-08 0)
(1.1755836 3.5442635e-08 0)
(1.1755836 3.1046083e-08 0)
(1.1755836 2.4608072e-08 0)
(1.1755836 2.1234489e-08 0)
(1.1755836 1.5788508e-08 0)
(1.1755836 1.3085519e-08 0)
(1.1755836 7.8003332e-09 0)
(1.1755836 5.1448763e-09 0)
(1.1755836 5.7946721e-11 0)
(1.1755836 -2.4769148e-09 0)
(1.1755836 -7.7100425e-09 0)
(1.1755836 -1.0234396e-08 0)
(1.1755836 -1.5070044e-08 0)
(1.1755836 -1.7091744e-08 0)
(1.1755836 -2.1598414e-08 0)
(1.1755836 -2.3176892e-08 0)
(1.1755836 -2.6944056e-08 0)
(1.1755836 -2.7968218e-08 0)
(1.1755836 -3.1619625e-08 0)
(1.1755836 -3.2871201e-08 0)
(1.1755836 -3.6663968e-08 0)
(1.1755835 -3.8177562e-08 0)
(1.1755835 -4.1617744e-08 0)
(1.1755835 -4.1014206e-08 0)
(1.1755835 -3.8743133e-08 0)
(1.1755834 -2.7455716e-08 0)
(1.1755834 -7.0146645e-09 0)
(1.1755834 3.3846214e-08 0)
(1.1755833 9.979042e-08 0)
(1.1755832 2.0813278e-07 0)
(1.1755831 3.6983544e-07 0)
(1.1755829 6.223217e-07 0)
(1.1755823 9.9336235e-07 0)
(1.1755819 1.6011972e-06 0)
(1.1755798 2.4819656e-06 0)
(1.1755804 4.0950239e-06 0)
(1.1755709 6.1449102e-06 0)
(1.1755832 1.0774574e-05 0)
(1.1755339 1.4712131e-05 0)
(1.1756256 2.9163433e-05 0)
(1.1753651 3.2340646e-05 0)
(1.1758903 8.1550957e-05 0)
(1.1746395 6.1066736e-05 0)
(1.1770753 0.00023161762 0)
(1.1720643 9.2618945e-05 0)
(1.1808306 0.00062277047 0)
(1.1656928 0.00014314728 0)
(1.1873105 0.0014035694 0)
(1.1592616 0.00050924177 0)
(1.18386 0.0022750765 0)
(1.1729923 0.0018948125 0)
(1.1509003 0.00249068 0)
(1.1953653 0.002483029 0)
(1.1540812 0.0017909328 0)
(1.0001526 -0.032346058 0)
(1.0434802 -0.088106138 0)
(1.0763036 -0.11802435 0)
(1.0917912 -0.1280873 0)
(1.0987306 -0.12088357 0)
(1.1055196 -0.10146624 0)
(1.1140435 -0.07711093 0)
(1.1224136 -0.053919265 0)
(1.1289516 -0.035210063 0)
(1.1332812 -0.021735269 0)
(1.1358101 -0.012805376 0)
(1.1371352 -0.0072543657 0)
(1.1377545 -0.0039752932 0)
(1.1380006 -0.0021172961 0)
(1.1380684 -0.0011002482 0)
(1.1380613 -0.0005593155 0)
(1.1380296 -0.00027842956 0)
(1.137995 -0.00013546769 0)
(1.1379655 -6.3957999e-05 0)
(1.1379429 -2.8778631e-05 0)
(1.1379266 -1.1814947e-05 0)
(1.1379152 -3.8682156e-06 0)
(1.1379074 -3.4058507e-07 0)
(1.1379022 1.0702014e-06 0)
(1.1378988 1.4873126e-06 0)
(1.1378965 1.4786413e-06 0)
(1.1378951 1.3003607e-06 0)
(1.1378941 1.0883013e-06 0)
(1.1378935 8.8335937e-07 0)
(1.1378931 7.1586915e-07 0)
(1.1378929 5.7634369e-07 0)
(1.1378927 4.7232883e-07 0)
(1.1378926 3.8638281e-07 0)
(1.1378926 3.2450626e-07 0)
(1.1378926 2.7050435e-07 0)
(1.1378925 2.318917e-07 0)
(1.1378925 1.9490791e-07 0)
(1.1378925 1.6903277e-07 0)
(1.1378925 1.4192348e-07 0)
(1.1378925 1.2355408e-07 0)
(1.1378925 1.0251596e-07 0)
(1.1378925 8.9472939e-08 0)
(1.1378925 7.3251147e-08 0)
(1.1378925 6.424519e-08 0)
(1.1378925 5.1525272e-08 0)
(1.1378925 4.5835675e-08 0)
(1.1378925 3.6126793e-08 0)
(1.1378925 3.277968e-08 0)
(1.1378925 2.4837689e-08 0)
(1.1378925 2.305783e-08 0)
(1.1378924 1.6345943e-08 0)
(1.1378924 1.5180451e-08 0)
(1.1378924 8.6174194e-09 0)
(1.1378924 7.5990403e-09 0)
(1.1378924 1.1157253e-09 0)
(1.1378924 -1.0851032e-10 0)
(1.1378924 -6.8998799e-09 0)
(1.1378924 -8.0496198e-09 0)
(1.1378924 -1.4475979e-08 0)
(1.1378924 -1.5286327e-08 0)
(1.1378924 -2.1288028e-08 0)
(1.1378924 -2.1309167e-08 0)
(1.1378924 -2.6230746e-08 0)
(1.1378924 -2.5528644e-08 0)
(1.1378924 -2.9819895e-08 0)
(1.1378924 -2.8548768e-08 0)
(1.1378924 -3.2041471e-08 0)
(1.1378923 -2.9601335e-08 0)
(1.1378923 -3.0572182e-08 0)
(1.1378923 -2.2158205e-08 0)
(1.1378923 -1.2798923e-08 0)
(1.1378923 1.3020561e-08 0)
(1.1378923 4.9971366e-08 0)
(1.1378923 1.1771035e-07 0)
(1.1378923 2.1814264e-07 0)
(1.1378923 3.7376098e-07 0)
(1.1378922 6.0060371e-07 0)
(1.1378922 9.4356107e-07 0)
(1.137892 1.4415653e-06 0)
(1.137892 2.2733176e-06 0)
(1.1378908 3.4331335e-06 0)
(1.1378923 5.7384396e-06 0)
(1.1378855 8.3051107e-06 0)
(1.1378993 1.5360313e-05 0)
(1.1378585 1.9140201e-05 0)
(1.1379498 4.3294705e-05 0)
(1.1377194 3.7811353e-05 0)
(1.1382247 0.0001290473 0)
(1.1370818 5.0547523e-05 0)
(1.13941 0.00039433873 0)
(1.134744 -4.1035624e-06 0)
(1.1431388 0.0011209452 0)
(1.1288993 -0.00015854343 0)
(1.1496126 0.0025541758 0)
(1.1233912 0.00031012185 0)
(1.1461117 0.0038730287 0)
(1.1387485 0.0036667283 0)
(1.1112 0.004044077 0)
(1.1640687 0.0065550545 0)
(1.1084678 0.005595493 0)
(1.0047645 -0.058225371 0)
(1.0502175 -0.12853436 0)
(1.0548847 -0.15779732 0)
(1.0245757 -0.16252778 0)
(0.9828484 -0.14838572 0)
(0.94875836 -0.122186 0)
(0.92850115 -0.09180249 0)
(0.91889592 -0.063681863 0)
(0.91509335 -0.041361393 0)
(0.91389144 -0.02545496 0)
(0.91366833 -0.014988138 0)
(0.91373102 -0.0085090964 0)
(0.91382773 -0.0046871839 0)
(0.91388971 -0.0025182836 0)
(0.91391342 -0.0013254336 0)
(0.91391225 -0.00068576401 0)
(0.91389931 -0.00034955965 0)
(0.91388324 -0.00017560397 0)
(0.91386849 -8.6699497e-05 0)
(0.91385672 -4.17402e-05 0)
(0.91384809 -1.9259217e-05 0)
(0.91384211 -8.1955267e-06 0)
(0.91383814 -2.8921418e-06 0)
(0.91383559 -4.6853538e-07 0)
(0.91383399 5.4162746e-07 0)
(0.91383301 8.792379e-07 0)
(0.91383242 9.1711375e-07 0)
(0.91383208 8.3598359e-07 0)
(0.91383189 7.2205958e-07 0)
(0.91383179 6.1033611e-07 0)
(0.91383175 5.1434071e-07 0)
(0.91383174 4.348972e-07 0)
(0.91383175 3.7105475e-07 0)
(0.91383177 3.1854751e-07 0)
(0.9138318 2.7526268e-07 0)
(0.91383182 2.3791487e-07 0)
(0.91383184 2.0601986e-07 0)
(0.91383186 1.7759478e-07 0)
(0.91383188 1.5275102e-07 0)
(0.91383189 1.3018763e-07 0)
(0.9138319 1.1070926e-07 0)
(0.91383191 9.3275249e-08 0)
(0.91383191 7.8454125e-08 0)
(0.91383192 6.5244682e-08 0)
(0.91383192 5.449595e-08 0)
(0.91383192 4.5184637e-08 0)
(0.91383192 3.777609e-08 0)
(0.91383192 3.1197228e-08 0)
(0.91383192 2.6178067e-08 0)
(0.91383192 2.1635181e-08 0)
(0.91383192 1.7981032e-08 0)
(0.91383192 1.4152693e-08 0)
(0.91383192 1.0937398e-08 0)
(0.91383192 7.3497163e-09 0)
(0.91383191 3.978408e-09 0)
(0.91383191 -8.0442406e-11 0)
(0.91383191 -3.7719533e-09 0)
(0.9138319 -7.9082418e-09 0)
(0.9138319 -1.1632835e-08 0)
(0.91383189 -1.574572e-08 0)
(0.91383188 -1.9023351e-08 0)
(0.91383187 -2.2237255e-08 0)
(0.91383186 -2.4547113e-08 0)
(0.91383185 -2.6744669e-08 0)
(0.91383183 -2.7805355e-08 0)
(0.91383181 -2.8397693e-08 0)
(0.91383178 -2.7609336e-08 0)
(0.91383176 -2.5472658e-08 0)
(0.91383173 -1.9966019e-08 0)
(0.91383172 -9.9847984e-09 0)
(0.91383172 7.4614588e-09 0)
(0.91383174 3.5754201e-08 0)
(0.91383179 8.0154366e-08 0)
(0.91383188 1.4836208e-07 0)
(0.91383201 2.4744209e-07 0)
(0.91383221 3.9223287e-07 0)
(0.91383243 5.9532144e-07 0)
(0.91383275 8.9867214e-07 0)
(0.91383305 1.3255466e-06 0)
(0.91383382 2.0632127e-06 0)
(0.91383411 3.0248959e-06 0)
(0.91383728 5.1940043e-06 0)
(0.91383529 7.0661408e-06 0)
(0.91385129 1.4421586e-05 0)
(0.91382768 1.4970789e-05 0)
(0.91391365 4.3729155e-05 0)
(0.9137484 2.1075513e-05 0)
(0.91419532 0.00014472023 0)
(0.91329625 -2.0856868e-05 0)
(0.91533808 0.00049310594 0)
(0.91148544 -0.00027676794 0)
(0.91890162 0.001510998 0)
(0.90691603 -0.00092139741 0)
(0.92509184 0.0034269514 0)
(0.90424668 -0.00062308741 0)
(0.92088209 0.0040452067 0)
(0.92631742 0.0058363982 0)
(0.88316108 0.0017253354 0)
(0.96089481 0.013808439 0)
(0.87943488 0.017962515 0)
(0.92341771 -0.035922891 0)
(0.86362723 -0.068780363 0)
(0.74952119 -0.075260284 0)
(0.59748619 -0.067668819 0)
(0.44715923 -0.05341742 0)
(0.33180326 -0.040349743 0)
(0.2567656 -0.029880402 0)
(0.21515214 -0.020737536 0)
(0.1927963 -0.013357911 0)
(0.18092654 -0.0079656224 0)
(0.174686 -0.0043963132 0)
(0.17148194 -0.002231747 0)
(0.16990106 -0.0010186051 0)
(0.16916447 -0.00039007971 0)
(0.16884913 -9.3057911e-05 0)
(0.16873273 2.9570353e-05 0)
(0.16870349 6.7729066e-05 0)
(0.16870817 6.9240836e-05 0)
(0.16872305 5.7719906e-05 0)
(0.16873855 4.373465e-05 0)
(0.16875148 3.1391677e-05 0)
(0.16876125 2.1768199e-05 0)
(0.16876827 1.4767811e-05 0)
(0.16877312 9.8645498e-06 0)
(0.16877642 6.5368233e-06 0)
(0.16877862 4.3055868e-06 0)
(0.16878009 2.843323e-06 0)
(0.16878105 1.8796981e-06 0)
(0.1687817 1.262278e-06 0)
(0.16878214 8.5363402e-07 0)
(0.16878245 5.9635763e-07 0)
(0.16878266 4.195792e-07 0)
(0.16878282 3.1101637e-07 0)
(0.16878294 2.293724e-07 0)
(0.16878303 1.8149193e-07 0)
(0.16878309 1.3888634e-07 0)
(0.16878315 1.1668603e-07 0)
(0.16878319 9.1242182e-08 0)
(0.16878322 8.0453019e-08 0)
(0.16878324 6.2930677e-08 0)
(0.16878327 5.8051037e-08 0)
(0.16878328 4.5037134e-08 0)
(0.16878329 4.3341954e-08 0)
(0.1687833 3.2812075e-08 0)
(0.16878332 3.3334438e-08 0)
(0.16878332 2.472788e-08 0)
(0.16878333 2.6545124e-08 0)
(0.16878334 1.8963294e-08 0)
(0.16878335 2.1798744e-08 0)
(0.16878336 1.5105866e-08 0)
(0.16878337 1.8309562e-08 0)
(0.16878338 1.1822352e-08 0)
(0.16878339 1.531107e-08 0)
(0.1687834 9.1278537e-09 0)
(0.16878342 1.251739e-08 0)
(0.16878343 6.2863206e-09 0)
(0.16878345 9.8518823e-09 0)
(0.16878346 4.071464e-09 0)
(0.16878347 7.7666749e-09 0)
(0.16878348 2.3091501e-09 0)
(0.1687835 6.5089186e-09 0)
(0.1687835 1.7830221e-09 0)
(0.1687835 6.2881095e-09 0)
(0.16878349 1.6675173e-09 0)
(0.16878348 6.4816067e-09 0)
(0.16878345 1.6664602e-09 0)
(0.16878342 6.7786225e-09 0)
(0.16878337 1.9475154e-09 0)
(0.16878334 9.6196412e-09 0)
(0.16878332 8.4101705e-09 0)
(0.16878333 2.2879196e-08 0)
(0.16878337 3.2755614e-08 0)
(0.1687835 6.2620895e-08 0)
(0.16878369 9.815833e-08 0)
(0.16878397 1.575731e-07 0)
(0.16878432 2.372601e-07 0)
(0.16878475 3.5005155e-07 0)
(0.16878529 5.0884711e-07 0)
(0.16878599 7.3462078e-07 0)
(0.16878718 1.1138216e-06 0)
(0.16878892 1.6165194e-06 0)
(0.16879276 2.7805393e-06 0)
(0.16879698 3.7083552e-06 0)
(0.16880979 7.8149456e-06 0)
(0.16881429 7.465302e-06 0)
(0.16886039 2.4124572e-05 0)
(0.16883327 7.7217511e-06 0)
(0.16902362 8.2289238e-05 0)
(0.16878101 -2.9341894e-05 0)
(0.16957644 0.00028922196 0)
(0.16838014 -0.00021741093 0)
(0.17118883 0.000887797 0)
(0.16731331 -0.0006290829 0)
(0.17400038 0.0018262963 0)
(0.16800631 4.5758467e-07 0)
(0.1724959 0.00097636144 0)
(0.18030697 0.0060802296 0)
(0.16022062 -0.0010563351 0)
(0.18938774 0.010423963 0)
(0.1950935 0.017304648 0)
)
;

boundaryField
{
    top
    {
        type            fixedValue;
        value           uniform (0 0 0);
    }
    inlet
    {
        type            fixedValue;
        value           uniform (1 0 0);
    }
    outlet
    {
        type            zeroGradient;
    }
    bottom
    {
        type            fixedValue;
        value           uniform (0 0 0);
    }
    back
    {
        type            empty;
    }
    front
    {
        type            empty;
    }
}


// ************************************************************************* //
