/*--------------------------------*- C++ -*----------------------------------*\
| =========                 |                                                 |
| \\      /  F ield         | OpenFOAM: The Open Source CFD Toolbox           |
|  \\    /   O peration     | Version:  2112                                  |
|   \\  /    A nd           | Website:  www.openfoam.com                      |
|    \\/     M anipulation  |                                                 |
\*---------------------------------------------------------------------------*/
FoamFile
{
    version     2.0;
    format      ascii;
    arch        "LSB;label=32;scalar=64";
    class       volScalarField;
    location    "15";
    object      p;
}
// * * * * * * * * * * * * * * * * * * * * * * * * * * * * * * * * * * * * * //

dimensions      [0 2 -2 0 0 0 0];

internalField   nonuniform List<scalar> 
1000
(
1.5267467
1.5101094
1.4937945
1.4777166
1.4617977
1.4459862
1.4302512
1.4145754
1.398948
1.3833609
1.3678074
1.3522819
1.3367801
1.321299
1.3058363
1.2903903
1.2749594
1.2595423
1.2441379
1.2287452
1.2133631
1.1979911
1.1826282
1.1672738
1.1519274
1.1365883
1.1212561
1.1059303
1.0906104
1.0752961
1.0599869
1.0446826
1.0293828
1.0140871
0.99879542
0.98350737
0.96822275
0.95294133
0.93766289
0.92238725
0.90711421
0.8918436
0.87657526
0.86130905
0.84604481
0.83078242
0.81552176
0.8002627
0.78500515
0.76974899
0.75449413
0.73924048
0.72398797
0.70873651
0.69348602
0.67823645
0.66298773
0.64773979
0.63249258
0.61724605
0.60200015
0.58675484
0.57151007
0.5562658
0.541022
0.52577862
0.51053565
0.49529304
0.48005078
0.46480883
0.44956716
0.43432577
0.41908462
0.4038437
0.38860298
0.37336246
0.35812212
0.34288193
0.32764189
0.31240199
0.29716221
0.28192255
0.26668298
0.25144351
0.23620413
0.22096482
0.20572559
0.19048641
0.17524729
0.16000823
0.14476921
0.12953023
0.11429128
0.099052371
0.083813489
0.068574631
0.053335795
0.038096977
0.022858177
0.0076193863
1.5264622
1.5097905
1.4936809
1.4777789
1.4619205
1.4460974
1.4303359
1.4146429
1.3990073
1.3834149
1.3678557
1.3523241
1.3368168
1.3213311
1.3058649
1.2904161
1.2749828
1.2595636
1.2441574
1.228763
1.2133795
1.1980061
1.1826421
1.1672867
1.1519393
1.1365994
1.1212664
1.1059398
1.0906193
1.0753043
1.0599946
1.0446897
1.0293894
1.0140933
0.99880114
0.98351269
0.9682277
0.95294593
0.93766717
0.92239122
0.9071179
0.89184703
0.87657845
0.861312
0.84604756
0.83078497
0.81552412
0.80026489
0.78500717
0.76975086
0.75449587
0.73924209
0.72398946
0.70873788
0.69348729
0.67823762
0.6629888
0.64774078
0.63249349
0.61724689
0.60200093
0.58675555
0.57151072
0.5562664
0.54102254
0.52577913
0.51053611
0.49529346
0.48005116
0.46480917
0.44956748
0.43432606
0.41908488
0.40384393
0.3886032
0.37336266
0.35812229
0.34288209
0.32764203
0.31240212
0.29716232
0.28192265
0.26668307
0.25144359
0.2362042
0.22096488
0.20572564
0.19048646
0.17524733
0.16000826
0.14476924
0.12953025
0.1142913
0.099052389
0.083813504
0.068574644
0.053335806
0.038096986
0.022858185
0.0076193903
1.5259532
1.5091496
1.4933176
1.4777216
1.4620134
1.4462065
1.4304125
1.4146932
1.3990488
1.3834559
1.3678957
1.3523603
1.3368478
1.3213576
1.3058879
1.2904365
1.2750012
1.2595803
1.2441725
1.2287767
1.213392
1.1980176
1.1826526
1.1672964
1.1519482
1.1366076
1.121274
1.1059469
1.0906258
1.0753103
1.0600002
1.0446949
1.0293942
1.0140977
0.99880528
0.98351654
0.96823128
0.95294925
0.93767026
0.92239409
0.90712057
0.89184951
0.87658075
0.86131415
0.84604955
0.83078682
0.81552584
0.80026648
0.78500865
0.76975223
0.75449714
0.73924327
0.72399054
0.70873889
0.69348822
0.67823848
0.6629896
0.64774152
0.63249417
0.61724752
0.60200151
0.58675608
0.57151121
0.55626685
0.54102296
0.52577951
0.51053646
0.49529378
0.48005145
0.46480944
0.44956772
0.43432628
0.41908508
0.40384412
0.38860337
0.37336281
0.35812243
0.34288221
0.32764215
0.31240222
0.29716242
0.28192273
0.26668314
0.25144366
0.23620426
0.22096493
0.20572568
0.1904865
0.17524737
0.16000829
0.14476926
0.12953027
0.11429132
0.099052407
0.083813519
0.068574657
0.053335817
0.038096996
0.022858193
0.0076193945
1.5254507
1.5084646
1.4928668
1.4775908
1.4620716
1.4463071
1.4304877
1.4147411
1.3990876
1.3834963
1.3679376
1.3523998
1.3368824
1.3213872
1.3059136
1.2904593
1.2750217
1.2595988
1.2441891
1.2287917
1.2134057
1.19803
1.182664
1.1673068
1.1519579
1.1366165
1.1212822
1.1059544
1.0906328
1.0753169
1.0600062
1.0447005
1.0293994
1.0141026
0.99880979
0.98352074
0.96823518
0.95295289
0.93767365
0.92239725
0.90712351
0.89185225
0.8765833
0.86131652
0.84605176
0.83078888
0.81552775
0.80026827
0.78501031
0.76975378
0.75449857
0.7392446
0.72399179
0.70874004
0.6934893
0.67823948
0.66299052
0.64774237
0.63249497
0.61724825
0.60200219
0.58675671
0.57151179
0.55626739
0.54102346
0.52577996
0.51053688
0.49529417
0.48005181
0.46480977
0.44956803
0.43432656
0.41908534
0.40384435
0.38860358
0.37336301
0.35812261
0.34288238
0.3276423
0.31240235
0.29716254
0.28192284
0.26668325
0.25144375
0.23620434
0.22096501
0.20572575
0.19048656
0.17524742
0.16000834
0.14476931
0.12953031
0.11429136
0.099052438
0.083813546
0.068574681
0.053335838
0.038097015
0.022858206
0.0076194049
1.5251496
1.5080384
1.4925681
1.4774892
1.4620981
1.4463688
1.4305364
1.4147721
1.3991123
1.3835225
1.3679657
1.3524271
1.3369068
1.3214083
1.3059321
1.2904759
1.2750368
1.2596125
1.2442016
1.2288031
1.213416
1.1980395
1.1826727
1.1673148
1.1519652
1.1366233
1.1212885
1.1059603
1.0906382
1.0753219
1.0600109
1.0447049
1.0294034
1.0141064
0.99881331
0.98352402
0.96823824
0.95295574
0.93767631
0.92239973
0.90712582
0.89185441
0.87658532
0.8613184
0.84605351
0.83079051
0.81552927
0.80026968
0.78501163
0.76975501
0.75449972
0.73924567
0.72399278
0.70874096
0.69349015
0.67824028
0.66299126
0.64774306
0.63249561
0.61724885
0.60200274
0.58675722
0.57151227
0.55626782
0.54102386
0.52578034
0.51053723
0.49529449
0.48005211
0.46481004
0.44956828
0.43432679
0.41908555
0.40384455
0.38860376
0.37336317
0.35812276
0.34288252
0.32764242
0.31240247
0.29716265
0.28192294
0.26668334
0.25144383
0.23620441
0.22096508
0.20572581
0.19048661
0.17524747
0.16000838
0.14476935
0.12953035
0.11429139
0.099052466
0.083813571
0.068574703
0.053335857
0.038097032
0.022858219
0.0076194155
1.5251496
1.5080384
1.4925681
1.4774892
1.462098
1.4463688
1.4305364
1.4147721
1.3991123
1.3835225
1.3679657
1.3524271
1.3369068
1.3214083
1.3059321
1.2904759
1.2750368
1.2596125
1.2442016
1.2288031
1.213416
1.1980395
1.1826727
1.1673148
1.1519652
1.1366233
1.1212885
1.1059603
1.0906382
1.0753219
1.0600109
1.0447049
1.0294034
1.0141064
0.99881331
0.98352402
0.96823824
0.95295574
0.93767631
0.92239973
0.90712582
0.89185441
0.87658532
0.8613184
0.84605351
0.83079051
0.81552927
0.80026968
0.78501163
0.76975501
0.75449972
0.73924567
0.72399278
0.70874096
0.69349015
0.67824027
0.66299126
0.64774306
0.63249561
0.61724885
0.60200274
0.58675722
0.57151227
0.55626782
0.54102386
0.52578034
0.51053723
0.49529449
0.48005211
0.46481004
0.44956828
0.43432679
0.41908555
0.40384455
0.38860376
0.37336317
0.35812276
0.34288252
0.32764242
0.31240247
0.29716265
0.28192294
0.26668334
0.25144383
0.23620441
0.22096508
0.20572581
0.19048661
0.17524747
0.16000838
0.14476935
0.12953035
0.11429139
0.099052466
0.083813571
0.068574703
0.053335857
0.038097032
0.02285822
0.0076194159
1.5254507
1.5084646
1.4928669
1.4775908
1.4620716
1.4463071
1.4304877
1.4147411
1.3990876
1.3834963
1.3679376
1.3523998
1.3368824
1.3213872
1.3059136
1.2904593
1.2750217
1.2595988
1.2441891
1.2287918
1.2134057
1.19803
1.182664
1.1673068
1.1519579
1.1366165
1.1212822
1.1059544
1.0906328
1.0753169
1.0600062
1.0447005
1.0293994
1.0141026
0.99880979
0.98352074
0.96823518
0.95295289
0.93767365
0.92239725
0.90712351
0.89185225
0.8765833
0.86131652
0.84605176
0.83078888
0.81552775
0.80026827
0.78501031
0.76975378
0.75449857
0.7392446
0.72399178
0.70874004
0.69348929
0.67823948
0.66299052
0.64774237
0.63249497
0.61724825
0.60200218
0.58675671
0.57151179
0.55626739
0.54102346
0.52577996
0.51053688
0.49529417
0.48005181
0.46480977
0.44956803
0.43432656
0.41908534
0.40384435
0.38860358
0.37336301
0.35812261
0.34288238
0.3276423
0.31240235
0.29716254
0.28192284
0.26668325
0.25144375
0.23620434
0.22096501
0.20572575
0.19048656
0.17524742
0.16000834
0.14476931
0.12953031
0.11429136
0.099052439
0.083813547
0.068574682
0.053335838
0.038097016
0.022858207
0.0076194058
1.5259533
1.5091496
1.4933176
1.4777216
1.4620133
1.4462064
1.4304124
1.4146932
1.3990488
1.3834559
1.3678957
1.3523603
1.3368478
1.3213576
1.3058879
1.2904365
1.2750012
1.2595803
1.2441725
1.2287767
1.213392
1.1980176
1.1826526
1.1672964
1.1519482
1.1366076
1.121274
1.1059469
1.0906258
1.0753104
1.0600002
1.0446949
1.0293942
1.0140977
0.99880528
0.98351654
0.96823128
0.95294925
0.93767026
0.92239409
0.90712057
0.89184951
0.87658075
0.86131415
0.84604954
0.83078682
0.81552583
0.80026648
0.78500865
0.76975223
0.75449713
0.73924327
0.72399054
0.70873889
0.69348822
0.67823848
0.6629896
0.64774152
0.63249417
0.61724752
0.6020015
0.58675608
0.57151121
0.55626685
0.54102296
0.5257795
0.51053646
0.49529378
0.48005145
0.46480944
0.44956772
0.43432628
0.41908508
0.40384412
0.38860337
0.37336281
0.35812243
0.34288221
0.32764215
0.31240222
0.29716242
0.28192273
0.26668314
0.25144366
0.23620426
0.22096493
0.20572568
0.1904865
0.17524737
0.16000829
0.14476926
0.12953028
0.11429133
0.099052408
0.08381352
0.068574658
0.053335818
0.038096997
0.022858194
0.0076193954
1.5264622
1.5097905
1.4936809
1.4777789
1.4619205
1.4460974
1.4303359
1.4146429
1.3990073
1.3834149
1.3678557
1.3523241
1.3368168
1.3213311
1.3058649
1.2904161
1.2749828
1.2595636
1.2441574
1.228763
1.2133795
1.1980062
1.1826421
1.1672867
1.1519393
1.1365994
1.1212664
1.1059399
1.0906193
1.0753043
1.0599946
1.0446897
1.0293894
1.0140933
0.99880114
0.98351269
0.9682277
0.95294593
0.93766717
0.92239122
0.9071179
0.89184703
0.87657845
0.861312
0.84604755
0.83078497
0.81552412
0.80026489
0.78500717
0.76975086
0.75449586
0.73924209
0.72398945
0.70873788
0.69348729
0.67823762
0.6629888
0.64774078
0.63249349
0.61724689
0.60200093
0.58675555
0.57151072
0.5562664
0.54102254
0.52577912
0.51053611
0.49529346
0.48005116
0.46480917
0.44956748
0.43432606
0.41908488
0.40384393
0.3886032
0.37336266
0.35812229
0.34288209
0.32764203
0.31240212
0.29716232
0.28192265
0.26668307
0.25144359
0.2362042
0.22096488
0.20572564
0.19048646
0.17524733
0.16000826
0.14476924
0.12953025
0.11429131
0.099052391
0.083813505
0.068574645
0.053335806
0.038096987
0.022858186
0.0076193908
1.5267467
1.5101094
1.4937945
1.4777166
1.4617977
1.4459861
1.4302512
1.4145754
1.398948
1.3833609
1.3678074
1.3522818
1.3367801
1.321299
1.3058363
1.2903903
1.2749594
1.2595424
1.2441379
1.2287452
1.2133632
1.1979911
1.1826282
1.1672738
1.1519274
1.1365883
1.1212561
1.1059303
1.0906104
1.0752961
1.0599869
1.0446826
1.0293828
1.0140871
0.99879542
0.98350737
0.96822275
0.95294133
0.93766289
0.92238725
0.90711421
0.8918436
0.87657526
0.86130905
0.84604481
0.83078242
0.81552176
0.8002627
0.78500514
0.76974898
0.75449413
0.73924048
0.72398797
0.7087365
0.69348602
0.67823645
0.66298772
0.64773978
0.63249258
0.61724605
0.60200015
0.58675484
0.57151007
0.5562658
0.541022
0.52577862
0.51053565
0.49529304
0.48005078
0.46480882
0.44956716
0.43432577
0.41908462
0.4038437
0.38860298
0.37336246
0.35812212
0.34288193
0.32764189
0.31240199
0.29716221
0.28192255
0.26668298
0.25144351
0.23620413
0.22096482
0.20572559
0.19048641
0.17524729
0.16000823
0.14476921
0.12953023
0.11429128
0.099052373
0.08381349
0.068574632
0.053335795
0.038096978
0.022858177
0.0076193867
)
;

boundaryField
{
    top
    {
        type            zeroGradient;
    }
    inlet
    {
        type            fixedValue;
        value           uniform 1.5352;
    }
    outlet
    {
        type            fixedValue;
        value           uniform 0;
    }
    bottom
    {
        type            zeroGradient;
    }
    back
    {
        type            empty;
    }
    front
    {
        type            empty;
    }
}


// ************************************************************************* //
