/*--------------------------------*- C++ -*----------------------------------*\
| =========                 |                                                 |
| \\      /  F ield         | OpenFOAM: The Open Source CFD Toolbox           |
|  \\    /   O peration     | Version:  2112                                  |
|   \\  /    A nd           | Website:  www.openfoam.com                      |
|    \\/     M anipulation  |                                                 |
\*---------------------------------------------------------------------------*/
FoamFile
{
    version     2.0;
    format      ascii;
    arch        "LSB;label=32;scalar=64";
    class       surfaceScalarField;
    location    "15";
    object      phi;
}
// * * * * * * * * * * * * * * * * * * * * * * * * * * * * * * * * * * * * * //

dimensions      [0 3 -1 0 0 0 0];

oriented        oriented;

internalField   nonuniform List<scalar> 
1890
(
0.0031680617
2.0295411e-06
0.0031611672
6.8954837e-06
0.0031525891
8.5782727e-06
0.0031447625
7.8262965e-06
0.0031384949
6.2670532e-06
0.0031335648
4.9296217e-06
0.003129526
4.0384218e-06
0.0031260713
3.4542393e-06
0.0031230561
3.0148625e-06
0.0031204146
2.6411592e-06
0.0031180966
2.3176476e-06
0.003116049
2.0474337e-06
0.0031142207
1.8280665e-06
0.003112571
1.6494766e-06
0.0031110708
1.5000183e-06
0.0031096997
1.3709715e-06
0.0031084423
1.2572626e-06
0.0031072861
1.156128e-06
0.0031062203
1.0657309e-06
0.0031052357
9.8450475e-07
0.0031043246
9.110613e-07
0.0031034802
8.4425448e-07
0.003102697
7.8319908e-07
0.0031019697
7.272106e-07
0.003101294
6.7573879e-07
0.0031006656
6.2831458e-07
0.003100081
5.8453294e-07
0.003099537
5.4403872e-07
0.0030990304
5.0652617e-07
0.0030985587
4.7172644e-07
0.0030981193
4.3940641e-07
0.0030977099
4.0935704e-07
0.0030973285
3.8139503e-07
0.0030969731
3.5535358e-07
0.003096642
3.3108591e-07
0.0030963336
3.0845681e-07
0.0030960462
2.8734704e-07
0.0030957786
2.6764538e-07
0.0030955293
2.4925355e-07
0.0030952972
2.3207871e-07
0.0030950812
2.1603878e-07
0.0030948801
2.010554e-07
0.0030946931
1.8705935e-07
0.0030945191
1.7398372e-07
0.0030943573
1.6176956e-07
0.003094207
1.5035932e-07
0.0030940673
1.3970244e-07
0.0030939376
1.2974897e-07
0.0030938171
1.2045527e-07
0.0030937053
1.1177777e-07
0.0030936017
1.0367864e-07
0.0030935056
9.6119676e-08
0.0030934165
8.9067928e-08
0.003093334
8.2489804e-08
0.0030932577
7.6356585e-08
0.003093187
7.0638612e-08
0.0030931217
6.531079e-08
0.0030930614
6.0346935e-08
0.0030930057
5.572513e-08
0.0030929543
5.1422182e-08
0.0030929069
4.7418927e-08
0.0030928632
4.3694841e-08
0.0030928229
4.02332e-08
0.0030927859
3.701578e-08
0.0030927519
3.4027967e-08
0.0030927207
3.1253603e-08
0.003092692
2.8679955e-08
0.0030926657
2.6292638e-08
0.0030926416
2.4080544e-08
0.0030926196
2.2030896e-08
0.0030925995
2.0134044e-08
0.0030925811
1.8378588e-08
0.0030925644
1.6756144e-08
0.0030925491
1.5256576e-08
0.0030925352
1.3872653e-08
0.0030925227
1.2595331e-08
0.0030925112
1.1418387e-08
0.0030925009
1.0333792e-08
0.0030924916
9.3362613e-09
0.0030924832
8.4186355e-09
0.0030924756
7.5764515e-09
0.0030924688
6.803355e-09
0.0030924627
6.0956582e-09
0.0030924573
5.4476481e-09
0.0030924524
4.8563397e-09
0.0030924481
4.3165311e-09
0.0030924443
3.8259865e-09
0.0030924409
3.3797006e-09
0.0030924379
2.9763323e-09
0.0030924353
2.6106087e-09
0.003092433
2.2826052e-09
0.0030924311
1.9857695e-09
0.0030924293
1.7227122e-09
0.0030924279
1.4836452e-09
0.0030924266
1.2757678e-09
0.0030924255
1.0829235e-09
0.0030924246
9.2081603e-10
0.0030924238
7.6251498e-10
0.0030924232
6.3356498e-10
5.1464439e-10
0.0079156175
2.1758439e-06
0.0079130139
9.5003825e-06
0.0079081424
1.3450192e-05
0.0079023529
1.3615572e-05
0.0078966413
1.1978105e-05
0.0078913022
1.0268305e-05
0.0078863125
9.0277929e-06
0.0078816261
8.1402944e-06
0.0078772473
7.3933538e-06
0.0078731998
6.688444e-06
0.0078694889
6.0282793e-06
0.0078660955
5.4405912e-06
0.0078629882
4.9351429e-06
0.0078601355
4.5020204e-06
0.0078575106
4.1248124e-06
0.0078550912
3.7902495e-06
0.0078528581
3.4902991e-06
0.0078507939
3.2202227e-06
0.0078488831
2.9764349e-06
0.0078471119
2.7556104e-06
0.0078454682
2.5546801e-06
0.0078439414
2.371036e-06
0.007842522
2.2025763e-06
0.0078412015
2.0476158e-06
0.0078399725
1.9047526e-06
0.007838828
1.7727854e-06
0.0078377618
1.6506643e-06
0.0078367683
1.5374752e-06
0.0078358424
1.4324175e-06
0.0078349794
1.3347927e-06
0.0078341748
1.2439814e-06
0.0078334247
1.1594359e-06
0.0078327254
1.0806632e-06
0.0078320735
1.0072233e-06
0.0078314659
9.3871652e-07
0.0078308995
8.7478395e-07
0.0078303718
8.1509639e-07
0.0078298801
7.5935687e-07
0.007829422
7.0729057e-07
0.0078289955
6.5864843e-07
0.0078285983
6.1319823e-07
0.0078282286
5.7072902e-07
0.0078278846
5.3104273e-07
0.0078275647
4.9395898e-07
0.0078272671
4.5930738e-07
0.0078269906
4.2693267e-07
0.0078267336
3.9668736e-07
0.0078264949
3.684369e-07
0.0078262733
3.4205284e-07
0.0078260677
3.1741814e-07
0.0078258769
2.9442054e-07
0.0078257001
2.7295774e-07
0.0078255362
2.5293122e-07
0.0078253845
2.3425145e-07
0.007825244
2.1683181e-07
0.0078251141
2.0059372e-07
0.0078249939
1.8546081e-07
0.0078248829
1.7136413e-07
0.0078247804
1.5823636e-07
0.0078246858
1.4601684e-07
0.0078245986
1.3464613e-07
0.0078245182
1.2407095e-07
0.0078244442
1.1423884e-07
0.0078243762
1.0510294e-07
0.0078243136
9.6616855e-08
0.0078242561
8.8739472e-08
0.0078242033
8.1429818e-08
0.007824155
7.4651725e-08
0.0078241107
6.8368952e-08
0.0078240702
6.2549807e-08
0.0078240332
5.7162291e-08
0.0078239994
5.2178569e-08
0.0078239686
4.7570336e-08
0.0078239405
4.3313284e-08
0.007823915
3.9382464e-08
0.0078238919
3.5756614e-08
0.0078238709
3.2413724e-08
0.0078238519
2.9335354e-08
0.0078238347
2.6502196e-08
0.0078238192
2.3898229e-08
0.0078238053
2.1506524e-08
0.0078237928
1.9313275e-08
0.0078237816
1.7303779e-08
0.0078237716
1.5465995e-08
0.0078237627
1.3787264e-08
0.0078237547
1.2256912e-08
0.0078237477
1.0864476e-08
0.0078237415
9.5997144e-09
0.007823736
8.4549373e-09
0.0078237312
7.4187453e-09
0.007823727
6.4882005e-09
0.0078237233
5.6470188e-09
0.0078237201
4.9018526e-09
0.0078237174
4.2230229e-09
0.007823715
3.6393776e-09
0.007823713
3.0881438e-09
0.0078237113
2.6522417e-09
0.0078237099
2.1863847e-09
0.0078237086
1.9133351e-09
1.465828e-09
0.011257489
1.5676555e-06
0.011259121
7.8686785e-06
0.01126056
1.2012188e-05
0.011261269
1.2905628e-05
0.011261408
1.1838186e-05
0.011261179
1.0497212e-05
0.011260668
9.5384148e-06
0.011259926
8.881973e-06
0.011259011
8.3079387e-06
0.011257988
7.7118884e-06
0.011256907
7.1087479e-06
0.011255804
6.5432434e-06
0.011254701
6.0381134e-06
0.011253612
5.5905921e-06
0.011252549
5.1880121e-06
0.011251519
4.8199303e-06
0.011250529
4.48097e-06
0.01124958
4.1686449e-06
0.011248675
3.8810105e-06
0.011247815
3.615822e-06
0.011246999
3.3707234e-06
0.011246226
3.1436013e-06
0.011245496
2.9327209e-06
0.011244807
2.7366583e-06
0.011244158
2.554193e-06
0.011243546
2.3842317e-06
0.011242971
2.225787e-06
0.011242431
2.0779663e-06
0.011241923
1.9399698e-06
0.011241447
1.8110758e-06
0.011241
1.6906328e-06
0.011240581
1.5780456e-06
0.011240189
1.4727717e-06
0.011239822
1.3743113e-06
0.011239479
1.2822071e-06
0.011239157
1.1960359e-06
0.011238857
1.115409e-06
0.011238576
1.0399646e-06
0.011238314
9.6936939e-07
0.01123807
9.0331175e-07
0.011237841
8.415041e-07
0.011237628
7.8367632e-07
0.01123743
7.2957883e-07
0.011237245
6.7897638e-07
0.011237073
6.3165143e-07
0.011236912
5.8739826e-07
0.011236763
5.4602656e-07
0.011236624
5.0735582e-07
0.011236495
4.7121909e-07
0.011236375
4.3745764e-07
0.011236263
4.0592467e-07
0.01123616
3.7648027e-07
0.011236064
3.4899521e-07
0.011235974
3.2334605e-07
0.011235892
2.9941888e-07
0.011235815
2.7710464e-07
0.011235745
2.5630291e-07
0.011235679
2.3691733e-07
0.011235618
2.1885932e-07
0.011235562
2.0204369e-07
0.011235511
1.8639233e-07
0.011235463
1.7182998e-07
0.011235419
1.5828775e-07
0.011235378
1.4569909e-07
0.011235341
1.3400333e-07
0.011235306
1.2314169e-07
0.011235275
1.1306068e-07
0.011235246
1.0370835e-07
0.011235219
9.5037656e-08
0.011235195
8.7002727e-08
0.011235172
7.9562166e-08
0.011235152
7.2675472e-08
0.011235133
6.6306303e-08
0.011235116
6.0418962e-08
0.0112351
5.4981566e-08
0.011235086
4.9962669e-08
0.011235073
4.5334423e-08
0.011235062
4.1069209e-08
0.011235051
3.7142756e-08
0.011235041
3.3530821e-08
0.011235033
3.0212416e-08
0.011235025
2.7166274e-08
0.011235018
2.4374385e-08
0.011235011
2.1817904e-08
0.011235006
1.9481779e-08
0.011235
1.7348809e-08
0.011234996
1.5407238e-08
0.011234992
1.363995e-08
0.011234988
1.2040062e-08
0.011234985
1.0587222e-08
0.011234982
9.2837834e-09
0.01123498
8.0982725e-09
0.011234978
7.0534843e-09
0.011234976
6.0882922e-09
0.011234974
5.274497e-09
0.011234973
4.4780627e-09
0.011234972
3.8858998e-09
0.011234971
3.193521e-09
0.01123497
2.8520881e-09
2.1974958e-09
0.013373515
7.946083e-07
0.013377099
4.2859583e-06
0.013382304
6.8075195e-06
0.013387658
7.5503271e-06
0.01339243
7.0660109e-06
0.013396584
6.3424738e-06
0.013400282
5.8399099e-06
0.013403642
5.52217e-06
0.013406702
5.2475203e-06
0.013409472
4.9418371e-06
0.013411966
4.6143405e-06
0.013414212
4.2972656e-06
0.013416241
4.0087086e-06
0.013418083
3.7490663e-06
0.013419759
3.5113752e-06
0.013421289
3.2898473e-06
0.013422688
3.0820129e-06
0.013423969
2.8872412e-06
0.013425145
2.7051003e-06
0.013426226
2.5347961e-06
0.013427222
2.3753254e-06
0.013428139
2.2257578e-06
0.013428987
2.0853365e-06
0.01342977
1.9534561e-06
0.013430494
1.8295845e-06
0.013431165
1.7132332e-06
0.013431787
1.6039373e-06
0.013432364
1.5012684e-06
0.013432899
1.404823e-06
0.013433396
1.3142347e-06
0.013433857
1.2291545e-06
0.013434286
1.149263e-06
0.013434685
1.0742522e-06
0.013435055
1.0038398e-06
0.013435399
9.3775267e-07
0.01343572
8.7574117e-07
0.013436018
8.1756253e-07
0.013436295
7.6299556e-07
0.013436552
7.1182402e-07
0.013436792
6.6385173e-07
0.013437014
6.1888599e-07
0.013437221
5.7675267e-07
0.013437413
5.3727991e-07
0.013437592
5.0031332e-07
0.013437758
4.6569966e-07
0.013437912
4.3330192e-07
0.013438055
4.0298343e-07
0.013438188
3.746228e-07
0.013438311
3.4809816e-07
0.013438425
3.2330193e-07
0.013438531
3.0012542e-07
0.013438629
2.7847345e-07
0.01343872
2.5824918e-07
0.013438804
2.3936837e-07
0.013438881
2.217447e-07
0.013438953
2.053038e-07
0.01343902
1.8996884e-07
0.013439081
1.7567412e-07
0.013439137
1.6235122e-07
0.013439189
1.499423e-07
0.013439237
1.3838647e-07
0.013439282
1.276328e-07
0.013439322
1.1762707e-07
0.01343936
1.0832462e-07
0.013439394
9.9677188e-08
0.013439426
9.1645615e-08
0.013439454
8.4186878e-08
0.013439481
7.7266666e-08
0.013439505
7.0846844e-08
0.013439527
6.4897338e-08
0.013439547
5.9384204e-08
0.013439566
5.4281249e-08
0.013439582
4.9558304e-08
0.013439598
4.5192544e-08
0.013439612
4.1157133e-08
0.013439624
3.7432333e-08
0.013439635
3.3994328e-08
0.013439646
3.0826048e-08
0.013439655
2.7906365e-08
0.013439663
2.5220653e-08
0.013439671
2.2750262e-08
0.013439677
2.0482601e-08
0.013439683
1.8401307e-08
0.013439689
1.6495482e-08
0.013439693
1.4751115e-08
0.013439698
1.315821e-08
0.013439701
1.1705574e-08
0.013439705
1.0382746e-08
0.013439707
9.1830412e-09
0.01343971
8.0921865e-09
0.013439712
7.1124733e-09
0.013439714
6.2181025e-09
0.013439716
5.4315172e-09
0.013439717
4.6979895e-09
0.013439718
4.0864779e-09
0.013439719
3.4743084e-09
0.01343972
3.0343103e-09
0.013439721
2.4928029e-09
0.013439721
2.2465515e-09
1.7419583e-09
0.014396577
3.3096153e-11
0.014400864
1.0224721e-10
0.014407671
4.5780853e-11
0.014415221
4.0955506e-12
0.014422286
2.8657089e-11
0.014428628
1.1310333e-10
0.014434467
1.9253399e-10
0.014439989
2.3395117e-10
0.014445236
2.4293656e-10
0.014450177
2.4403388e-10
0.014454791
2.4605995e-10
0.014459088
2.4689055e-10
0.014463097
2.4139665e-10
0.014466845
2.2918019e-10
0.014470356
2.1213312e-10
0.014473646
1.9206671e-10
0.014476728
1.7077013e-10
0.014479615
1.4790503e-10
0.014482319
1.2505953e-10
0.014484854
1.0147429e-10
0.014487229
7.9152682e-11
0.014489455
5.6893937e-11
0.01449154
3.674171e-11
0.014493494
1.7328306e-11
0.014495323
1.1441795e-12
0.014497036
-1.6556442e-11
0.01449864
-3.0174511e-11
0.014500142
-4.3294566e-11
0.014501546
-5.3595536e-11
0.014502861
-6.3605474e-11
0.01450409
-7.0891234e-11
0.014505239
-7.8094981e-11
0.014506314
-8.2742323e-11
0.014507317
-8.7715913e-11
0.014508255
-9.0391395e-11
0.014509131
-9.3548517e-11
0.014509949
-9.4546965e-11
0.014510712
-9.6317127e-11
0.014511424
-9.610331e-11
0.014512088
-9.6654846e-11
0.014512707
-9.5250928e-11
0.014513284
-9.4748746e-11
0.014513821
-9.2390448e-11
0.014514321
-9.0837892e-11
0.014514787
-8.7438168e-11
0.014515221
-8.4956775e-11
0.014515624
-8.0757186e-11
0.014515998
-7.7421549e-11
0.014516346
-7.2442757e-11
0.01451667
-6.8494662e-11
0.01451697
-6.3095803e-11
0.014517249
-5.8726001e-11
0.014517507
-5.3022613e-11
0.014517746
-4.8527755e-11
0.014517968
-4.2893981e-11
0.014518173
-3.845344e-11
0.014518363
-3.2965175e-11
0.014518539
-2.8795955e-11
0.014518702
-2.3725133e-11
0.014518851
-1.9901486e-11
0.01451899
-1.5224737e-11
0.014519118
-1.1836562e-11
0.014519235
-7.7215075e-12
0.014519344
-4.7675222e-12
0.014519443
-1.1921142e-12
0.014519535
1.456579e-12
0.014519619
4.649312e-12
0.014519696
6.6820048e-12
0.014519767
9.5176323e-12
0.014519832
1.1118802e-11
0.014519891
1.3499358e-11
0.014519946
1.474001e-11
0.014519995
1.6795887e-11
0.01452004
1.7663329e-11
0.014520082
1.9309092e-11
0.014520119
1.9859146e-11
0.014520153
2.1214392e-11
0.014520184
2.1420918e-11
0.014520212
2.2393556e-11
0.014520237
2.2303502e-11
0.01452026
2.3003935e-11
0.01452028
2.2584952e-11
0.014520298
2.2919201e-11
0.014520315
2.221351e-11
0.01452033
2.2290473e-11
0.014520343
2.1262377e-11
0.014520354
2.0998765e-11
0.014520365
1.9684026e-11
0.014520374
1.9195076e-11
0.014520382
1.7548485e-11
0.014520389
1.6693578e-11
0.014520395
1.4517627e-11
0.014520401
1.3281007e-11
0.014520405
1.0688612e-11
0.01452041
9.4619942e-12
0.014520413
7.4238875e-12
0.014520416
5.976818e-12
0.014520419
4.2471707e-12
0.014520421
6.8511501e-13
-3.2550607e-12
0.014396576
-7.9468165e-07
0.014400863
-4.2863498e-06
0.01440767
-6.807882e-06
0.01441522
-7.5504688e-06
0.014422285
-7.0659395e-06
0.014428627
-6.342295e-06
0.014434467
-5.8396529e-06
0.014439989
-5.5218507e-06
0.014445236
-5.2471546e-06
0.014450177
-4.9414366e-06
0.014454791
-4.6139198e-06
0.014459088
-4.2968381e-06
0.014463097
-4.0082882e-06
0.014466845
-3.7486635e-06
0.014470356
-3.5109986e-06
0.014473646
-3.2895032e-06
0.014476728
-3.0817057e-06
0.014479615
-2.8869744e-06
0.01448232
-2.7048751e-06
0.014484854
-2.5346132e-06
0.014487229
-2.3751835e-06
0.014489455
-2.225656e-06
0.01449154
-2.0852718e-06
0.014493494
-1.9534267e-06
0.014495323
-1.8295865e-06
0.014497037
-1.7132656e-06
0.01449864
-1.6039956e-06
0.014500142
-1.50135e-06
0.014501547
-1.4049241e-06
0.014502861
-1.3143533e-06
0.01450409
-1.2292869e-06
0.014505239
-1.1494077e-06
0.014506314
-1.0744059e-06
0.014507318
-1.0040017e-06
0.014508255
-9.3791977e-07
0.014509131
-8.7591308e-07
0.014509949
-8.1773669e-07
0.014510712
-7.63172e-07
0.014511424
-7.1200036e-07
0.014512088
-6.6402811e-07
0.014512707
-6.1906021e-07
0.014513284
-5.7692504e-07
0.014513821
-5.3744829e-07
0.014514321
-5.0047795e-07
0.014514787
-4.658585e-07
0.01451522
-4.3345538e-07
0.014515623
-4.0312956e-07
0.014515998
-3.74762e-07
0.014516346
-3.4822874e-07
0.01451667
-3.2342455e-07
0.01451697
-3.0023856e-07
0.014517248
-2.7857791e-07
0.014517507
-2.5834373e-07
0.014517746
-2.3945409e-07
0.014517968
-2.2182058e-07
0.014518173
-2.0537101e-07
0.014518363
-1.9002659e-07
0.014518539
-1.7572379e-07
0.014518701
-1.6239212e-07
0.014518851
-1.499758e-07
0.01451899
-1.3841204e-07
0.014519117
-1.2765188e-07
0.014519235
-1.1763915e-07
0.014519343
-1.0833102e-07
0.014519443
-9.967747e-08
0.014519535
-9.1641027e-08
0.014519619
-8.4176989e-08
0.014519696
-7.7252761e-08
0.014519767
-7.0828428e-08
0.014519832
-6.4875704e-08
0.014519891
-5.9358801e-08
0.014519945
-5.4253259e-08
0.014519995
-4.9527201e-08
0.01452004
-4.515954e-08
0.014520081
-4.1121662e-08
0.014520119
-3.739551e-08
0.014520153
-3.3955625e-08
0.014520184
-3.0786623e-08
0.014520211
-2.786566e-08
0.014520237
-2.5179743e-08
0.014520259
-2.2708632e-08
0.01452028
-2.0441375e-08
0.014520298
-1.8359943e-08
0.014520315
-1.6455031e-08
0.014520329
-1.4711068e-08
0.014520343
-1.3119677e-08
0.014520354
-1.1667998e-08
0.014520365
-1.0347189e-08
0.014520374
-9.1489428e-09
0.014520382
-8.0607234e-09
0.014520389
-7.0830826e-09
0.014520395
-6.1921412e-09
0.014520401
-5.4083839e-09
0.014520405
-4.6790572e-09
0.014520409
-4.0700753e-09
0.014520413
-3.4615327e-09
0.014520416
-3.0235663e-09
0.014520418
-2.4844173e-09
0.014520421
-2.2441072e-09
-1.7448085e-09
0.013373515
-1.5676371e-06
0.013377099
-7.8685722e-06
0.013382303
-1.201213e-05
0.013387658
-1.2905658e-05
0.01339243
-1.1838213e-05
0.013396584
-1.0497191e-05
0.013400282
-9.5383187e-06
0.013403642
-8.8818149e-06
0.013406702
-8.3077277e-06
0.013409472
-7.7116405e-06
0.013411966
-7.1084708e-06
0.013414212
-6.54295e-06
0.013416242
-6.0378135e-06
0.013418083
-5.5902969e-06
0.01341976
-5.1877308e-06
0.01342129
-4.8196698e-06
0.013422689
-4.4807365e-06
0.01342397
-4.1684403e-06
0.013425146
-3.8808385e-06
0.013426227
-3.6156813e-06
0.013427222
-3.370616e-06
0.01342814
-3.1435235e-06
0.013428987
-2.9326739e-06
0.01342977
-2.7366371e-06
0.013430495
-2.5541984e-06
0.013431166
-2.3842582e-06
0.013431788
-2.2258355e-06
0.013432364
-2.0780305e-06
0.013432899
-1.9400511e-06
0.013433396
-1.8111678e-06
0.013433858
-1.6907373e-06
0.013434286
-1.5781566e-06
0.013434685
-1.4728915e-06
0.013435055
-1.3744342e-06
0.0134354
-1.2823359e-06
0.01343572
-1.1961651e-06
0.013436018
-1.1155418e-06
0.013436295
-1.0400959e-06
0.013436552
-9.6950245e-07
0.013436792
-9.0344167e-07
0.013437014
-8.4163435e-07
0.013437221
-7.8380207e-07
0.013437413
-7.2970346e-07
0.013437592
-6.7909521e-07
0.013437758
-6.3176794e-07
0.013437912
-5.8750786e-07
0.013438055
-5.4613261e-07
0.013438188
-5.0745395e-07
0.013438311
-4.7131285e-07
0.013438425
-4.3754282e-07
0.013438531
-4.060048e-07
0.013438629
-3.7655143e-07
0.013438719
-3.4906116e-07
0.013438803
-3.2340307e-07
0.013438881
-2.9947068e-07
0.013438953
-2.771478e-07
0.013439019
-2.5634129e-07
0.01343908
-2.3694765e-07
0.013439137
-2.1888533e-07
0.013439189
-2.0206232e-07
0.013439237
-1.8640739e-07
0.013439281
-1.7183844e-07
0.013439322
-1.5829325e-07
0.013439359
-1.4569872e-07
0.013439393
-1.3400074e-07
0.013439425
-1.2313394e-07
0.013439454
-1.1305122e-07
0.01343948
-1.0369437e-07
0.013439504
-9.5022586e-08
0.013439527
-8.6983739e-08
0.013439547
-7.9542494e-08
0.013439565
-7.2652367e-08
0.013439582
-6.6283003e-08
0.013439597
-6.0392712e-08
0.013439611
-5.4955443e-08
0.013439623
-4.993401e-08
0.013439635
-4.530633e-08
0.013439645
-4.1039025e-08
0.013439654
-3.7113447e-08
0.013439663
-3.3499826e-08
0.01343967
-3.0182739e-08
0.013439677
-2.7135361e-08
0.013439683
-2.4345119e-08
0.013439688
-2.1787817e-08
0.013439693
-1.9453797e-08
0.013439697
-1.7320458e-08
0.013439701
-1.538134e-08
0.013439704
-1.3614078e-08
0.013439707
-1.201711e-08
0.01343971
-1.0564755e-08
0.013439712
-9.2646256e-09
0.013439714
-8.0799067e-09
0.013439715
-7.0389584e-09
0.013439717
-6.0748531e-09
0.013439718
-5.2648705e-09
0.013439719
-4.4695577e-09
0.01343972
-3.8790194e-09
0.01343972
-3.1869328e-09
0.013439721
-2.8450805e-09
-2.1930516e-09
0.011257488
-2.1758091e-06
0.011259121
-9.5001895e-06
0.011260559
-1.3449968e-05
0.011261269
-1.3615498e-05
0.011261408
-1.1978222e-05
0.011261179
-1.0268517e-05
0.011260668
-9.0279835e-06
0.011259926
-8.1404065e-06
0.011259012
-7.3933806e-06
0.011257988
-6.6884048e-06
0.011256907
-6.0281938e-06
0.011255805
-5.4404728e-06
0.011254702
-4.9350016e-06
0.011253613
-4.501866e-06
0.01125255
-4.1246557e-06
0.01125152
-3.7900989e-06
0.011250529
-3.4901615e-06
0.011249581
-3.2201011e-06
0.011248676
-2.9763321e-06
0.011247816
-2.7555266e-06
0.011247
-2.5546165e-06
0.011246227
-2.3709909e-06
0.011245497
-2.2025497e-06
0.011244808
-2.0476053e-06
0.011244158
-1.9047578e-06
0.011243547
-1.7728035e-06
0.011242972
-1.6506947e-06
0.011242431
-1.5375151e-06
0.011241924
-1.4324665e-06
0.011241447
-1.334848e-06
0.011241001
-1.2440429e-06
0.011240582
-1.1595011e-06
0.01124019
-1.0807323e-06
0.011239823
-1.0072939e-06
0.011239479
-9.3878917e-07
0.011239158
-8.7485669e-07
0.011238857
-8.1516997e-07
0.011238577
-7.5942935e-07
0.011238314
-7.0736282e-07
0.01123807
-6.5871886e-07
0.011237841
-6.1326781e-07
0.011237628
-5.70796e-07
0.01123743
-5.311081e-07
0.011237245
-4.9402124e-07
0.011237072
-4.5936753e-07
0.011236912
-4.2698908e-07
0.011236762
-3.9674101e-07
0.011236623
-3.6848643e-07
0.011236494
-3.420993e-07
0.011236374
-3.1746009e-07
0.011236263
-2.9445906e-07
0.011236159
-2.7299171e-07
0.011236063
-2.5296182e-07
0.011235974
-2.342775e-07
0.011235891
-2.1685454e-07
0.011235815
-2.0061223e-07
0.011235744
-1.854764e-07
0.011235678
-1.7137582e-07
0.011235618
-1.5824543e-07
0.011235562
-1.4602255e-07
0.01123551
-1.3464975e-07
0.011235462
-1.240716e-07
0.011235418
-1.1423776e-07
0.011235377
-1.0509941e-07
0.01123534
-9.661207e-08
0.011235306
-8.8732531e-08
0.011235274
-8.1421863e-08
0.011235245
-7.4642016e-08
0.011235218
-6.8358589e-08
0.011235194
-6.2537889e-08
0.011235172
-5.7149857e-08
0.011235151
-5.2164868e-08
0.011235132
-4.7556388e-08
0.011235115
-4.3298202e-08
0.0112351
-3.9367233e-08
0.011235085
-3.574051e-08
0.011235073
-3.2397733e-08
0.011235061
-2.9318632e-08
0.01123505
-2.6485709e-08
0.011235041
-2.3881298e-08
0.011235032
-2.1490121e-08
0.011235024
-1.9296605e-08
0.011235017
-1.7287796e-08
0.011235011
-1.5450058e-08
0.011235005
-1.3772329e-08
0.011235
-1.2242214e-08
0.011234995
-1.0850958e-08
0.011234991
-9.5867393e-09
0.011234988
-8.4434585e-09
0.011234985
-7.407975e-09
0.011234982
-6.4790426e-09
0.011234979
-5.638606e-09
0.011234977
-4.8950451e-09
0.011234975
-4.2167359e-09
0.011234974
-3.6350294e-09
0.011234972
-3.0849151e-09
0.011234971
-2.6491351e-09
0.01123497
-2.1824799e-09
0.011234969
-1.9035504e-09
-1.4559933e-09
0.0079156178
-2.0294371e-06
0.0079130141
-6.8953372e-06
0.0079081428
-8.5781866e-06
0.0079023534
-7.8263442e-06
0.0078966418
-6.267283e-06
0.0078913027
-4.9299669e-06
0.0078863129
-4.0387761e-06
0.0078816264
-3.454519e-06
0.0078772476
-3.0150514e-06
0.0078732
-2.6412745e-06
0.0078694892
-2.3177157e-06
0.0078660958
-2.0474697e-06
0.0078629886
-1.8280793e-06
0.0078601359
-1.6494724e-06
0.007857511
-1.5000033e-06
0.0078550917
-1.3709526e-06
0.0078528586
-1.2572431e-06
0.0078507944
-1.1561121e-06
0.0078488837
-1.0657182e-06
0.0078471125
-9.8449769e-07
0.0078454689
-9.1105791e-07
0.0078439421
-8.4425699e-07
0.0078425226
-7.8320477e-07
0.0078412022
-7.2722161e-07
0.0078399731
-6.7575184e-07
0.0078388286
-6.2833197e-07
0.0078377624
-5.8455128e-07
0.0078367689
-5.4406045e-07
0.0078358429
-5.065477e-07
0.0078349798
-4.7175042e-07
0.0078341752
-4.3942935e-07
0.007833425
-4.0938176e-07
0.0078327257
-3.8141799e-07
0.0078320738
-3.5537778e-07
0.0078314661
-3.3110796e-07
0.0078308997
-3.0847981e-07
0.0078303719
-2.8736761e-07
0.0078298801
-2.6766672e-07
0.007829422
-2.4927241e-07
0.0078289954
-2.3209828e-07
0.0078285982
-2.1605579e-07
0.0078282285
-2.0107302e-07
0.0078278845
-1.8707441e-07
0.0078275644
-1.7399933e-07
0.0078272669
-1.617825e-07
0.0078269903
-1.5037266e-07
0.0078267332
-1.3971309e-07
0.0078264945
-1.2975994e-07
0.0078262729
-1.2046344e-07
0.0078260672
-1.1178616e-07
0.0078258765
-1.036843e-07
0.0078256996
-9.6125559e-08
0.0078255357
-8.9071112e-08
0.007825384
-8.2493251e-08
0.0078252435
-7.6357529e-08
0.0078251135
-7.0639968e-08
0.0078249934
-6.5309804e-08
0.0078248823
-6.0346489e-08
0.0078247798
-5.5722602e-08
0.0078246852
-5.1420377e-08
0.007824598
-4.7415205e-08
0.0078245176
-4.3691952e-08
0.0078244436
-4.0228604e-08
0.0078243756
-3.7012135e-08
0.007824313
-3.4022701e-08
0.0078242555
-3.124932e-08
0.0078242028
-2.8674177e-08
0.0078241544
-2.628789e-08
0.0078241102
-2.4074323e-08
0.0078240697
-2.2025693e-08
0.0078240326
-2.0127452e-08
0.0078239989
-1.837304e-08
0.0078239681
-1.6749216e-08
0.00782394
-1.5250693e-08
0.0078239145
-1.3865492e-08
0.0078238914
-1.2589275e-08
0.0078238704
-1.1411096e-08
0.0078238514
-1.0327653e-08
0.0078238343
-9.3290257e-09
0.0078238188
-8.412654e-09
0.0078238049
-7.5694463e-09
0.0078237924
-6.7976793e-09
0.0078237812
-6.0891084e-09
0.0078237712
-5.4425375e-09
0.0078237623
-4.8504222e-09
0.0078237544
-4.3121222e-09
0.0078237474
-3.8208981e-09
0.0078237411
-3.3762101e-09
0.0078237357
-2.972214e-09
0.0078237309
-2.6081116e-09
0.0078237267
-2.2794452e-09
0.007823723
-1.9840243e-09
0.0078237199
-1.7198271e-09
0.0078237171
-1.4820744e-09
0.0078237148
-1.2736835e-09
0.0078237128
-1.0816077e-09
0.0078237111
-9.195049e-10
0.0078237096
-7.6106762e-10
0.0078237084
-6.2756698e-10
-5.0713014e-10
0.0031680626
0.0031611677
0.0031525895
0.0031447629
0.0031384953
0.003133565
0.0031295259
0.0031260711
0.0031230558
0.0031204143
0.0031180964
0.0031160487
0.0031142205
0.0031125709
0.0031110708
0.0031096997
0.0031084424
0.0031072862
0.0031062204
0.0031052359
0.0031043248
0.0031034805
0.0031026972
0.00310197
0.0031012942
0.0031006658
0.0031000813
0.0030995372
0.0030990306
0.0030985588
0.0030981194
0.00309771
0.0030973286
0.0030969732
0.0030966421
0.0030963336
0.0030960462
0.0030957786
0.0030955293
0.0030952972
0.0030950812
0.0030948801
0.003094693
0.003094519
0.0030943572
0.0030942069
0.0030940672
0.0030939374
0.0030938169
0.0030937052
0.0030936015
0.0030935054
0.0030934163
0.0030933338
0.0030932575
0.0030931868
0.0030931215
0.0030930612
0.0030930055
0.0030929541
0.0030929067
0.003092863
0.0030928227
0.0030927857
0.0030927517
0.0030927205
0.0030926918
0.0030926655
0.0030926415
0.0030926194
0.0030925993
0.0030925809
0.0030925642
0.003092549
0.0030925351
0.0030925225
0.0030925111
0.0030925008
0.0030924915
0.003092483
0.0030924755
0.0030924687
0.0030924626
0.0030924572
0.0030924523
0.003092448
0.0030924442
0.0030924408
0.0030924378
0.0030924352
0.003092433
0.003092431
0.0030924293
0.0030924278
0.0030924265
0.0030924254
0.0030924245
0.0030924238
0.0030924231
)
;

boundaryField
{
    top
    {
        type            calculated;
        value           uniform 0;
    }
    inlet
    {
        type            calculated;
        value           nonuniform List<scalar> 10(-0.00317009 -0.0079157629 -0.011256879 -0.013372741 -0.014395781 -0.01439578 -0.013372741 -0.011256879 -0.0079157631 -0.0031700914);
    }
    outlet
    {
        type            calculated;
        value           nonuniform List<scalar> 10(0.0030924227 0.0078237077 0.011234969 0.013439722 0.014520423 0.014520422 0.013439721 0.011234969 0.0078237074 0.0030924226);
    }
    bottom
    {
        type            calculated;
        value           uniform 0;
    }
    back
    {
        type            empty;
        value           nonuniform List<scalar> 0();
    }
    front
    {
        type            empty;
        value           nonuniform List<scalar> 0();
    }
}


// ************************************************************************* //
