/*--------------------------------*- C++ -*----------------------------------*\
| =========                 |                                                 |
| \\      /  F ield         | OpenFOAM: The Open Source CFD Toolbox           |
|  \\    /   O peration     | Version:  2112                                  |
|   \\  /    A nd           | Website:  www.openfoam.com                      |
|    \\/     M anipulation  |                                                 |
\*---------------------------------------------------------------------------*/
FoamFile
{
    version     2.0;
    format      ascii;
    arch        "LSB;label=32;scalar=64";
    class       volVectorField;
    location    "15";
    object      U;
}
// * * * * * * * * * * * * * * * * * * * * * * * * * * * * * * * * * * * * * //

dimensions      [0 1 -1 0 0 0 0];

internalField   nonuniform List<vector> 
1000
(
(0.31696021 0.0001751498 0)
(0.31658518 0.00052409542 0)
(0.31573586 0.00058907082 0)
(0.31486162 0.00046149891 0)
(0.31414335 0.00030761253 0)
(0.31358685 0.0002055558 0)
(0.31314379 0.00015369141 0)
(0.3127723 0.00012671885 0)
(0.31245015 0.00010757673 0)
(0.31216796 9.1113859e-05 0)
(0.3119206 7.7539862e-05 0)
(0.31170301 6.7362345e-05 0)
(0.31150988 6.0040381e-05 0)
(0.31133654 5.453935e-05 0)
(0.31117947 5.0017269e-05 0)
(0.31103622 4.6038669e-05 0)
(0.31090505 4.2453932e-05 0)
(0.31078458 3.9220521e-05 0)
(0.31067367 3.6304171e-05 0)
(0.3105713 3.3659456e-05 0)
(0.31047665 3.1242294e-05 0)
(0.310389 2.9019772e-05 0)
(0.31030772 2.6970228e-05 0)
(0.31023229 2.5078076e-05 0)
(0.31016222 2.3330038e-05 0)
(0.31009709 2.1713392e-05 0)
(0.31003651 2.0216362e-05 0)
(0.30998014 1.8828195e-05 0)
(0.30992766 1.7539555e-05 0)
(0.3098788 1.6342052e-05 0)
(0.30983329 1.5228346e-05 0)
(0.30979089 1.4191663e-05 0)
(0.30975139 1.3226048e-05 0)
(0.30971459 1.2325963e-05 0)
(0.3096803 1.1486569e-05 0)
(0.30964835 1.0703317e-05 0)
(0.30961859 9.9722449e-06 0)
(0.30959087 9.2895734e-06 0)
(0.30956505 8.6520165e-06 0)
(0.309541 8.0563924e-06 0)
(0.30951862 7.4999473e-06 0)
(0.30949778 6.9799793e-06 0)
(0.3094784 6.4941608e-06 0)
(0.30946036 6.0401706e-06 0)
(0.30944359 5.6160231e-06 0)
(0.309428 5.2197121e-06 0)
(0.30941351 4.8495331e-06 0)
(0.30940006 4.503735e-06 0)
(0.30938756 4.1808451e-06 0)
(0.30937596 3.8793302e-06 0)
(0.3093652 3.5979136e-06 0)
(0.30935522 3.335243e-06 0)
(0.30934597 3.090207e-06 0)
(0.3093374 2.8616133e-06 0)
(0.30932947 2.6484944e-06 0)
(0.30932213 2.4497924e-06 0)
(0.30931534 2.2646638e-06 0)
(0.30930906 2.092173e-06 0)
(0.30930327 1.9315858e-06 0)
(0.30929792 1.7820696e-06 0)
(0.30929298 1.6429851e-06 0)
(0.30928843 1.5135942e-06 0)
(0.30928424 1.3933421e-06 0)
(0.30928038 1.2815699e-06 0)
(0.30927684 1.1777949e-06 0)
(0.30927358 1.0814323e-06 0)
(0.30927059 9.9206379e-07 0)
(0.30926784 9.0916517e-07 0)
(0.30926533 8.3237341e-07 0)
(0.30926302 7.612219e-07 0)
(0.30926092 6.9539748e-07 0)
(0.309259 6.3448058e-07 0)
(0.30925724 5.782009e-07 0)
(0.30925565 5.261846e-07 0)
(0.30925419 4.7820103e-07 0)
(0.30925287 4.339137e-07 0)
(0.30925167 3.9312634e-07 0)
(0.30925059 3.5553985e-07 0)
(0.30924961 3.2099026e-07 0)
(0.30924872 2.8920851e-07 0)
(0.30924792 2.600586e-07 0)
(0.30924721 2.3330153e-07 0)
(0.30924656 2.0882789e-07 0)
(0.30924599 1.8642066e-07 0)
(0.30924547 1.6599395e-07 0)
(0.30924502 1.4735035e-07 0)
(0.30924461 1.3042903e-07 0)
(0.30924425 1.1503912e-07 0)
(0.30924394 1.0114861e-07 0)
(0.30924366 8.8560163e-08 0)
(0.30924341 7.7285579e-08 0)
(0.3092432 6.7088723e-08 0)
(0.30924302 5.8049774e-08 0)
(0.30924286 4.9848565e-08 0)
(0.30924272 4.2652639e-08 0)
(0.3092426 3.6038735e-08 0)
(0.3092425 3.0234946e-08 0)
(0.30924242 2.4909262e-08 0)
(0.30924235 1.9672039e-08 0)
(0.30924228 1.665215e-08 0)
(0.79143747 0.00019441673 0)
(0.79177891 0.00087207681 0)
(0.79127674 0.0012492578 0)
(0.79056069 0.001249412 0)
(0.78991987 0.0010649451 0)
(0.78937499 0.00086962031 0)
(0.78887701 0.00072728738 0)
(0.78839959 0.00063012584 0)
(0.78794374 0.00055488497 0)
(0.78751846 0.0004888506 0)
(0.78712861 0.00043009503 0)
(0.78677335 0.0003800492 0)
(0.78644898 0.00033892645 0)
(0.78615161 0.0003052462 0)
(0.78587814 0.0002770278 0)
(0.78562622 0.00025271861 0)
(0.78539387 0.00023138362 0)
(0.78517929 0.00021248979 0)
(0.78498082 0.00019566876 0)
(0.78479698 0.00018060565 0)
(0.78462647 0.0001670242 0)
(0.78446814 0.00015469843 0)
(0.78432101 0.00014345406 0)
(0.78418418 0.00013315711 0)
(0.78405685 0.00012370034 0)
(0.78393831 0.00011499375 0)
(0.7838279 0.0001069601 0)
(0.78372503 9.9532698e-05 0)
(0.78362916 9.2654112e-05 0)
(0.78353981 8.6274521e-05 0)
(0.78345651 8.035047e-05 0)
(0.78337885 7.4843554e-05 0)
(0.78330646 6.9719728e-05 0)
(0.78323897 6.4948519e-05 0)
(0.78317606 6.0502689e-05 0)
(0.78311742 5.6357637e-05 0)
(0.78306277 5.2491214e-05 0)
(0.78301185 4.8883242e-05 0)
(0.78296441 4.551543e-05 0)
(0.78292023 4.2370979e-05 0)
(0.78287908 3.943458e-05 0)
(0.78284078 3.6692083e-05 0)
(0.78280514 3.4130542e-05 0)
(0.78277197 3.173791e-05 0)
(0.78274113 2.9503129e-05 0)
(0.78271245 2.7415863e-05 0)
(0.78268581 2.5466596e-05 0)
(0.78266105 2.3646392e-05 0)
(0.78263806 2.1947007e-05 0)
(0.78261672 2.0360673e-05 0)
(0.78259693 1.8880218e-05 0)
(0.78257857 1.7498855e-05 0)
(0.78256155 1.6210317e-05 0)
(0.78254579 1.5008658e-05 0)
(0.7825312 1.388839e-05 0)
(0.78251769 1.2844289e-05 0)
(0.7825052 1.1871535e-05 0)
(0.78249366 1.0965536e-05 0)
(0.78248299 1.0122061e-05 0)
(0.78247315 9.3370617e-06 0)
(0.78246407 8.6068165e-06 0)
(0.7824557 7.9277624e-06 0)
(0.78244799 7.2966286e-06 0)
(0.7824409 6.7102718e-06 0)
(0.78243437 6.1658119e-06 0)
(0.78242838 5.6604807e-06 0)
(0.78242288 5.1917479e-06 0)
(0.78241783 4.7571691e-06 0)
(0.7824132 4.3545163e-06 0)
(0.78240897 3.9816361e-06 0)
(0.7824051 3.6365731e-06 0)
(0.78240156 3.3174261e-06 0)
(0.78239834 3.022475e-06 0)
(0.7823954 2.7500482e-06 0)
(0.78239272 2.4986412e-06 0)
(0.7823903 2.2667821e-06 0)
(0.78238809 2.053154e-06 0)
(0.7823861 1.8564688e-06 0)
(0.78238429 1.6755837e-06 0)
(0.78238266 1.5093703e-06 0)
(0.7823812 1.3568368e-06 0)
(0.78237988 1.2169998e-06 0)
(0.78237869 1.08901e-06 0)
(0.78237764 9.7200177e-07 0)
(0.78237669 8.6525178e-07 0)
(0.78237585 7.6798787e-07 0)
(0.7823751 6.7961871e-07 0)
(0.78237444 5.9941428e-07 0)
(0.78237386 5.269349e-07 0)
(0.78237335 4.6141426e-07 0)
(0.7823729 4.026494e-07 0)
(0.7823725 3.4966948e-07 0)
(0.78237216 3.0269791e-07 0)
(0.78237187 2.6021369e-07 0)
(0.78237162 2.2333123e-07 0)
(0.78237139 1.8924126e-07 0)
(0.78237122 1.6113485e-07 0)
(0.78237105 1.3307176e-07 0)
(0.78237094 1.1375308e-07 0)
(0.78237077 8.8617807e-08 0)
(1.125412 0.00015408926 0)
(1.1263763 0.00080608092 0)
(1.1263859 0.0012819513 0)
(1.1261683 0.0014203712 0)
(1.1260665 0.0013364171 0)
(1.1260727 0.0011912811 0)
(1.1260852 0.0010692634 0)
(1.126049 0.0009800366 0)
(1.1259662 0.00090588572 0)
(1.1258599 0.00083407905 0)
(1.1257476 0.00076313355 0)
(1.125636 0.00069655266 0)
(1.1255258 0.0006369513 0)
(1.1254166 0.00058450991 0)
(1.1253088 0.00053804616 0)
(1.1252037 0.00049629866 0)
(1.1251023 0.00045844144 0)
(1.1250051 0.00042400543 0)
(1.1249123 0.00039265682 0)
(1.124824 0.00036407518 0)
(1.1247401 0.00033794193 0)
(1.1246607 0.00031396801 0)
(1.1245855 0.00029191039 0)
(1.1245145 0.0002715692 0)
(1.1244476 0.00025277639 0)
(1.1243846 0.00023538622 0)
(1.1243253 0.00021927009 0)
(1.1242695 0.00020431439 0)
(1.1242171 0.0001904188 0)
(1.124168 0.00017749477 0)
(1.1241218 0.00016546361 0)
(1.1240786 0.00015425505 0)
(1.1240381 0.00014380591 0)
(1.1240001 0.00013405923 0)
(1.1239646 0.0001249634 0)
(1.1239314 0.00011647158 0)
(1.1239004 0.00010854105 0)
(1.1238713 0.00010113283 0)
(1.1238442 9.4211096e-05 0)
(1.1238189 8.7742996e-05 0)
(1.1237953 8.1698183e-05 0)
(1.1237732 7.6048708e-05 0)
(1.1237527 7.0768632e-05 0)
(1.1237335 6.5833979e-05 0)
(1.1237156 6.1222407e-05 0)
(1.123699 5.6913212e-05 0)
(1.1236835 5.288704e-05 0)
(1.1236691 4.9125909e-05 0)
(1.1236558 4.5612962e-05 0)
(1.1236433 4.2332518e-05 0)
(1.1236317 3.9269844e-05 0)
(1.123621 3.6411213e-05 0)
(1.123611 3.3743705e-05 0)
(1.1236018 3.1255277e-05 0)
(1.1235932 2.8934578e-05 0)
(1.1235853 2.6771021e-05 0)
(1.1235779 2.4754613e-05 0)
(1.1235711 2.287604e-05 0)
(1.1235648 2.1126499e-05 0)
(1.123559 1.9497787e-05 0)
(1.1235536 1.7982142e-05 0)
(1.1235486 1.6572339e-05 0)
(1.123544 1.5261537e-05 0)
(1.1235398 1.4043369e-05 0)
(1.1235359 1.2911801e-05 0)
(1.1235323 1.1861224e-05 0)
(1.123529 1.0886318e-05 0)
(1.123526 9.9821419e-06 0)
(1.1235232 9.1440043e-06 0)
(1.1235207 8.3675569e-06 0)
(1.1235183 7.6486669e-06 0)
(1.1235162 6.9835069e-06 0)
(1.1235142 6.3684356e-06 0)
(1.1235124 5.8000922e-06 0)
(1.1235108 5.2752769e-06 0)
(1.1235093 4.791041e-06 0)
(1.1235079 4.3445755e-06 0)
(1.1235067 3.9333039e-06 0)
(1.1235056 3.554772e-06 0)
(1.1235046 3.206731e-06 0)
(1.1235037 2.8870433e-06 0)
(1.1235028 2.5937512e-06 0)
(1.1235021 2.3250099e-06 0)
(1.1235014 2.0791019e-06 0)
(1.1235008 1.8544567e-06 0)
(1.1235003 1.6495331e-06 0)
(1.1234998 1.4630571e-06 0)
(1.1234994 1.2935393e-06 0)
(1.123499 1.1400999e-06 0)
(1.1234987 1.0010535e-06 0)
(1.1234984 8.7622666e-07 0)
(1.1234981 7.6315458e-07 0)
(1.1234979 6.6318901e-07 0)
(1.1234977 5.7167696e-07 0)
(1.1234975 4.9365739e-07 0)
(1.1234974 4.1888937e-07 0)
(1.1234972 3.6146996e-07 0)
(1.1234971 2.9731924e-07 0)
(1.123497 2.6265248e-07 0)
(1.1234969 2.01403e-07 0)
(1.3368775 9.607335e-05 0)
(1.3382325 0.00054426591 0)
(1.3385461 0.00091035209 0)
(1.3386312 0.0010537624 0)
(1.3389001 0.0010282312 0)
(1.3393426 0.00094382298 0)
(1.339813 0.00086805583 0)
(1.340219 0.00081384476 0)
(1.3405491 0.00076948242 0)
(1.3408287 0.00072458584 0)
(1.3410804 0.00067733374 0)
(1.3413131 0.00063058212 0)
(1.3415272 0.00058701102 0)
(1.3417218 0.00054740082 0)
(1.3418978 0.0005112535 0)
(1.3420574 0.00047783835 0)
(1.342203 0.00044669393 0)
(1.3423364 0.00041761932 0)
(1.3424588 0.00039050622 0)
(1.3425714 0.00036523445 0)
(1.342675 0.00034165856 0)
(1.3427704 0.00031963298 0)
(1.3428584 0.00029903054 0)
(1.3429398 0.00027974524 0)
(1.343015 0.00026168568 0)
(1.3430846 0.00024476957 0)
(1.3431491 0.00022892061 0)
(1.3432089 0.00021406831 0)
(1.3432644 0.00020014744 0)
(1.3433159 0.00018709825 0)
(1.3433637 0.00017486532 0)
(1.3434082 0.0001633975 0)
(1.3434494 0.00015264691 0)
(1.3434878 0.00014256915 0)
(1.3435235 0.00013312254 0)
(1.3435567 0.00012426837 0)
(1.3435876 0.00011597017 0)
(1.3436162 0.00010819409 0)
(1.3436429 0.00010090814 0)
(1.3436677 9.4082581e-05 0)
(1.3436908 8.768927e-05 0)
(1.3437122 8.1702053e-05 0)
(1.3437322 7.6096104e-05 0)
(1.3437507 7.0848375e-05 0)
(1.3437679 6.5936942e-05 0)
(1.3437839 6.1341466e-05 0)
(1.3437987 5.7042559e-05 0)
(1.3438125 5.3022255e-05 0)
(1.3438252 4.9263393e-05 0)
(1.3438371 4.5750093e-05 0)
(1.3438481 4.2467156e-05 0)
(1.3438582 3.9400536e-05 0)
(1.3438677 3.6536769e-05 0)
(1.3438764 3.3863434e-05 0)
(1.3438845 3.1368597e-05 0)
(1.3438919 2.9041275e-05 0)
(1.3438988 2.6870894e-05 0)
(1.3439052 2.4847745e-05 0)
(1.3439111 2.2962459e-05 0)
(1.3439165 2.1206459e-05 0)
(1.3439215 1.9571448e-05 0)
(1.3439261 1.8049851e-05 0)
(1.3439303 1.6634321e-05 0)
(1.3439342 1.5318176e-05 0)
(1.3439378 1.4094914e-05 0)
(1.3439411 1.2958649e-05 0)
(1.3439441 1.1903622e-05 0)
(1.3439468 1.0924643e-05 0)
(1.3439494 1.0016626e-05 0)
(1.3439517 9.1750009e-06 0)
(1.3439538 8.3952727e-06 0)
(1.3439557 7.6734244e-06 0)
(1.3439575 7.0054852e-06 0)
(1.3439591 6.3879298e-06 0)
(1.3439605 5.8172546e-06 0)
(1.3439618 5.2903723e-06 0)
(1.343963 4.8041986e-06 0)
(1.3439641 4.3560369e-06 0)
(1.3439651 3.943179e-06 0)
(1.3439659 3.5632754e-06 0)
(1.3439667 3.2139605e-06 0)
(1.3439674 2.8931867e-06 0)
(1.3439681 2.598906e-06 0)
(1.3439686 2.3293153e-06 0)
(1.3439691 2.0826857e-06 0)
(1.3439696 1.8573657e-06 0)
(1.34397 1.652002e-06 0)
(1.3439703 1.4649093e-06 0)
(1.3439706 1.2953165e-06 0)
(1.3439709 1.1410867e-06 0)
(1.3439711 1.0025959e-06 0)
(1.3439713 8.7627678e-07 0)
(1.3439715 7.6506553e-07 0)
(1.3439716 6.6170083e-07 0)
(1.3439718 5.7507817e-07 0)
(1.3439719 4.8917532e-07 0)
(1.343972 4.2632108e-07 0)
(1.3439721 3.5093678e-07 0)
(1.3439721 3.1428309e-07 0)
(1.3439722 2.4111965e-07 0)
(1.4391137 3.2418487e-05 0)
(1.4406576 0.00019006631 0)
(1.4411065 0.00032480854 0)
(1.4413198 0.00038289755 0)
(1.4417532 0.00037872284 0)
(1.4424038 0.00035092647 0)
(1.4431052 0.00032511822 0)
(1.4437437 0.00030709212 0)
(1.4442986 0.0002927856 0)
(1.4447953 0.00027814279 0)
(1.4452588 0.00026228074 0)
(1.4456988 0.00024622402 0)
(1.4461146 0.00023103974 0)
(1.4465042 0.00021709396 0)
(1.4468678 0.00020424166 0)
(1.4472072 0.00019222678 0)
(1.4475248 0.00018088958 0)
(1.4478225 0.00017017208 0)
(1.4481017 0.0001600544 0)
(1.4483634 0.00015051204 0)
(1.4486086 0.00014150897 0)
(1.4488383 0.00013300679 0)
(1.4490536 0.00012497228 0)
(1.4492553 0.00011737868 0)
(1.4494442 0.00011020343 0)
(1.4496211 0.00010342602 0)
(1.4497868 9.7026816e-05 0)
(1.4499419 9.098703e-05 0)
(1.450087 8.5288771e-05 0)
(1.4502228 7.9915078e-05 0)
(1.4503498 7.4849775e-05 0)
(1.4504686 7.007739e-05 0)
(1.4505796 6.5583041e-05 0)
(1.4506834 6.1352441e-05 0)
(1.4507804 5.7371855e-05 0)
(1.450871 5.3628138e-05 0)
(1.4509555 5.010867e-05 0)
(1.4510345 4.6801396e-05 0)
(1.4511081 4.3694766e-05 0)
(1.4511769 4.0777778e-05 0)
(1.4512409 3.8039911e-05 0)
(1.4513006 3.5471158e-05 0)
(1.4513563 3.306197e-05 0)
(1.4514081 3.0803294e-05 0)
(1.4514563 2.8686499e-05 0)
(1.4515012 2.6703411e-05 0)
(1.451543 2.4846251e-05 0)
(1.4515818 2.3107672e-05 0)
(1.4516179 2.1480685e-05 0)
(1.4516515 1.9958694e-05 0)
(1.4516826 1.8535433e-05 0)
(1.4517115 1.7205003e-05 0)
(1.4517383 1.5961803e-05 0)
(1.4517632 1.480056e-05 0)
(1.4517862 1.3716273e-05 0)
(1.4518075 1.2704249e-05 0)
(1.4518272 1.1760033e-05 0)
(1.4518455 1.0879444e-05 0)
(1.4518624 1.0058522e-05 0)
(1.451878 9.2935561e-06 0)
(1.4518924 8.5810303e-06 0)
(1.4519057 7.9176508e-06 0)
(1.4519179 7.3002967e-06 0)
(1.4519292 6.7260558e-06 0)
(1.4519396 6.1921636e-06 0)
(1.4519491 5.6960309e-06 0)
(1.4519579 5.2352188e-06 0)
(1.451966 4.8074494e-06 0)
(1.4519733 4.4105581e-06 0)
(1.4519801 4.0425308e-06 0)
(1.4519863 3.7014543e-06 0)
(1.451992 3.3855566e-06 0)
(1.4519972 3.0931504e-06 0)
(1.4520019 2.8226716e-06 0)
(1.4520062 2.5726325e-06 0)
(1.4520101 2.3416623e-06 0)
(1.4520137 2.1284541e-06 0)
(1.4520169 1.9318019e-06 0)
(1.4520198 1.7505601e-06 0)
(1.4520225 1.5836759e-06 0)
(1.4520249 1.430153e-06 0)
(1.452027 1.2890634e-06 0)
(1.452029 1.1595507e-06 0)
(1.4520307 1.0407904e-06 0)
(1.4520323 9.3207462e-07 0)
(1.4520337 8.3262587e-07 0)
(1.4520349 7.419234e-07 0)
(1.452036 6.5914088e-07 0)
(1.452037 5.8407025e-07 0)
(1.4520378 5.1559793e-07 0)
(1.4520386 4.5414551e-07 0)
(1.4520393 3.9778235e-07 0)
(1.4520398 3.4832388e-07 0)
(1.4520403 3.0186382e-07 0)
(1.4520408 2.6333608e-07 0)
(1.4520412 2.2438388e-07 0)
(1.4520414 1.9654511e-07 0)
(1.4520418 1.6201997e-07 0)
(1.4520419 1.4573146e-07 0)
(1.4520422 1.1183354e-07 0)
(1.4391135 -3.2417916e-05 0)
(1.4406575 -0.00019006427 0)
(1.4411065 -0.0003248097 0)
(1.4413197 -0.00038289892 0)
(1.4417532 -0.00037871613 0)
(1.4424038 -0.00035090498 0)
(1.4431052 -0.00032508307 0)
(1.4437437 -0.00030704822 0)
(1.4442986 -0.00029273786 0)
(1.4447953 -0.00027809341 0)
(1.4452588 -0.00026223069 0)
(1.4456988 -0.00024617402 0)
(1.4461146 -0.00023099093 0)
(1.4465042 -0.00021704751 0)
(1.4468678 -0.0002041985 0)
(1.4472072 -0.00019218758 0)
(1.4475248 -0.00018085466 0)
(1.4478225 -0.00017014175 0)
(1.4481017 -0.00016002868 0)
(1.4483634 -0.00015049105 0)
(1.4486086 -0.0001414925 0)
(1.4488384 -0.00013299479 0)
(1.4490536 -0.00012496439 0)
(1.4492553 -0.00011737475 0)
(1.4494442 -0.00011020304 0)
(1.4496211 -0.00010342892 0)
(1.4497868 -9.70325e-05 0)
(1.4499419 -9.0995328e-05 0)
(1.450087 -8.52992e-05 0)
(1.4502228 -7.9927502e-05 0)
(1.4503498 -7.4863733e-05 0)
(1.4504686 -7.0092782e-05 0)
(1.4505797 -6.5599447e-05 0)
(1.4506834 -6.1369822e-05 0)
(1.4507804 -5.7389845e-05 0)
(1.450871 -5.3646736e-05 0)
(1.4509556 -5.0127546e-05 0)
(1.4510345 -4.6820593e-05 0)
(1.4511081 -4.3713986e-05 0)
(1.4511769 -4.0797077e-05 0)
(1.4512409 -3.8059002e-05 0)
(1.4513006 -3.5490112e-05 0)
(1.4513563 -3.3080515e-05 0)
(1.4514081 -3.0821496e-05 0)
(1.4514563 -2.8704088e-05 0)
(1.4515012 -2.6720468e-05 0)
(1.451543 -2.4862524e-05 0)
(1.4515818 -2.3123243e-05 0)
(1.4516179 -2.1495319e-05 0)
(1.4516515 -1.9972499e-05 0)
(1.4516826 -1.8548202e-05 0)
(1.4517115 -1.721686e-05 0)
(1.4517383 -1.5972565e-05 0)
(1.4517631 -1.4810379e-05 0)
(1.4517862 -1.3724999e-05 0)
(1.4518075 -1.2712044e-05 0)
(1.4518272 -1.1766765e-05 0)
(1.4518455 -1.0885298e-05 0)
(1.4518624 -1.0063386e-05 0)
(1.451878 -9.2976144e-06 0)
(1.4518924 -8.5841792e-06 0)
(1.4519056 -7.9200829e-06 0)
(1.4519179 -7.3019186e-06 0)
(1.4519292 -6.7270499e-06 0)
(1.4519395 -6.1924349e-06 0)
(1.4519491 -5.6957806e-06 0)
(1.4519579 -5.2343551e-06 0)
(1.4519659 -4.8061447e-06 0)
(1.4519733 -4.4087201e-06 0)
(1.4519801 -4.0403337e-06 0)
(1.4519863 -3.6988096e-06 0)
(1.451992 -3.3826271e-06 0)
(1.4519971 -3.0898441e-06 0)
(1.4520019 -2.8191527e-06 0)
(1.4520062 -2.5688125e-06 0)
(1.4520101 -2.3376957e-06 0)
(1.4520137 -2.1242497e-06 0)
(1.4520169 -1.9275169e-06 0)
(1.4520198 -1.7461073e-06 0)
(1.4520225 -1.5792044e-06 0)
(1.4520249 -1.4255732e-06 0)
(1.452027 -1.2845283e-06 0)
(1.452029 -1.1549739e-06 0)
(1.4520307 -1.036319e-06 0)
(1.4520323 -9.2761789e-07 0)
(1.4520336 -8.2833736e-07 0)
(1.4520349 -7.3771178e-07 0)
(1.452036 -6.5515814e-07 0)
(1.452037 -5.802152e-07 0)
(1.4520378 -5.1203679e-07 0)
(1.4520386 -4.5077451e-07 0)
(1.4520392 -3.947988e-07 0)
(1.4520398 -3.456161e-07 0)
(1.4520403 -2.996322e-07 0)
(1.4520407 -2.6139975e-07 0)
(1.4520411 -2.2282084e-07 0)
(1.4520414 -1.9525998e-07 0)
(1.4520418 -1.6098414e-07 0)
(1.4520419 -1.4546938e-07 0)
(1.4520422 -1.1236882e-07 0)
(1.3368775 -9.6073851e-05 0)
(1.3382325 -0.00054427714 0)
(1.3385461 -0.00091037203 0)
(1.3386312 -0.0010537823 0)
(1.3389 -0.0010282419 0)
(1.3393426 -0.00094382074 0)
(1.339813 -0.00086804148 0)
(1.3402189 -0.00081382173 0)
(1.3405491 -0.00076945356 0)
(1.3408287 -0.00072455307 0)
(1.3410804 -0.00067729822 0)
(1.3413131 -0.00063054509 0)
(1.3415272 -0.00058697377 0)
(1.3417218 -0.00054736457 0)
(1.3418978 -0.00051121929 0)
(1.3420574 -0.00047780683 0)
(1.342203 -0.00044666568 0)
(1.3423364 -0.0004175946 0)
(1.3424589 -0.00039048531 0)
(1.3425715 -0.00036521732 0)
(1.342675 -0.00034164526 0)
(1.3427704 -0.0003196233 0)
(1.3428585 -0.0002990244 0)
(1.3429398 -0.00027974228 0)
(1.343015 -0.00026168573 0)
(1.3430847 -0.00024477229 0)
(1.3431492 -0.00022892582 0)
(1.343209 -0.0002140756 0)
(1.3432644 -0.00020015665 0)
(1.3433159 -0.00018710899 0)
(1.3433638 -0.00017487745 0)
(1.3434082 -0.00016341065 0)
(1.3434495 -0.000152661 0)
(1.3434879 -0.00014258388 0)
(1.3435235 -0.00013313785 0)
(1.3435567 -0.00012428399 0)
(1.3435876 -0.0001159861 0)
(1.3436163 -0.00010821009 0)
(1.3436429 -0.00010092423 0)
(1.3436677 -9.409854e-05 0)
(1.3436908 -8.7705134e-05 0)
(1.3437122 -8.171761e-05 0)
(1.3437322 -7.6111394e-05 0)
(1.3437507 -7.0863188e-05 0)
(1.3437679 -6.5951328e-05 0)
(1.3437838 -6.135523e-05 0)
(1.3437987 -5.7055753e-05 0)
(1.3438124 -5.3034693e-05 0)
(1.3438252 -4.9275145e-05 0)
(1.343837 -4.5760999e-05 0)
(1.343848 -4.2477296e-05 0)
(1.3438582 -3.940977e-05 0)
(1.3438676 -3.6545201e-05 0)
(1.3438763 -3.3870951e-05 0)
(1.3438844 -3.1375317e-05 0)
(1.3438919 -2.90471e-05 0)
(1.3438988 -2.6875961e-05 0)
(1.3439051 -2.4851977e-05 0)
(1.343911 -2.2965997e-05 0)
(1.3439164 -2.1209231e-05 0)
(1.3439214 -1.9573602e-05 0)
(1.343926 -1.8051328e-05 0)
(1.3439302 -1.6635267e-05 0)
(1.3439341 -1.5318529e-05 0)
(1.3439377 -1.409482e-05 0)
(1.343941 -1.295804e-05 0)
(1.343944 -1.1902636e-05 0)
(1.3439468 -1.0923219e-05 0)
(1.3439493 -1.0014897e-05 0)
(1.3439516 -9.1729086e-06 0)
(1.3439537 -8.3929407e-06 0)
(1.3439556 -7.6707873e-06 0)
(1.3439574 -7.0026661e-06 0)
(1.343959 -6.3848666e-06 0)
(1.3439604 -5.8140629e-06 0)
(1.3439618 -5.286986e-06 0)
(1.343963 -4.8007342e-06 0)
(1.343964 -4.3524331e-06 0)
(1.343965 -3.9395466e-06 0)
(1.3439659 -3.5595504e-06 0)
(1.3439667 -3.2102557e-06 0)
(1.3439674 -2.8894433e-06 0)
(1.343968 -2.5952323e-06 0)
(1.3439686 -2.32565e-06 0)
(1.3439691 -2.0791394e-06 0)
(1.3439695 -1.8538818e-06 0)
(1.3439699 -1.6486867e-06 0)
(1.3439703 -1.461703e-06 0)
(1.3439706 -1.2923267e-06 0)
(1.3439708 -1.1382603e-06 0)
(1.3439711 -1.0000409e-06 0)
(1.3439713 -8.739459e-07 0)
(1.3439714 -7.6306585e-07 0)
(1.3439716 -6.5999523e-07 0)
(1.3439717 -5.7368611e-07 0)
(1.3439718 -4.8806213e-07 0)
(1.3439719 -4.2540361e-07 0)
(1.343972 -3.5018777e-07 0)
(1.3439721 -3.1383171e-07 0)
(1.3439721 -2.4104999e-07 0)
(1.1254119 -0.00015408858 0)
(1.1263763 -0.00080607046 0)
(1.1263859 -0.0012819368 0)
(1.1261683 -0.0014203624 0)
(1.1260665 -0.0013364154 0)
(1.1260727 -0.0011912834 0)
(1.1260852 -0.0010692644 0)
(1.126049 -0.00098003302 0)
(1.1259662 -0.00090587637 0)
(1.1258599 -0.00083406481 0)
(1.1257476 -0.00076311561 0)
(1.1256361 -0.00069653232 0)
(1.1255259 -0.00063692956 0)
(1.1254166 -0.00058448771 0)
(1.1253089 -0.00053802444 0)
(1.1252038 -0.00049627814 0)
(1.1251023 -0.00045842282 0)
(1.1250051 -0.000423989 0)
(1.1249124 -0.00039264293 0)
(1.1248241 -0.00036406381 0)
(1.1247402 -0.00033793323 0)
(1.1246608 -0.00031396177 0)
(1.1245856 -0.00029190663 0)
(1.1245146 -0.00027156759 0)
(1.1244477 -0.00025277691 0)
(1.1243847 -0.00023538849 0)
(1.1243253 -0.00021927411 0)
(1.1242696 -0.00020431972 0)
(1.1242172 -0.00019042545 0)
(1.124168 -0.00017750231 0)
(1.1241219 -0.00016547207 0)
(1.1240786 -0.00015426405 0)
(1.1240381 -0.00014381552 0)
(1.1240002 -0.0001340691 0)
(1.1239647 -0.00012497362 0)
(1.1239314 -0.00011648185 0)
(1.1239004 -0.0001085515 0)
(1.1238713 -0.00010114316 0)
(1.1238442 -9.4221462e-05 0)
(1.1238189 -8.7753117e-05 0)
(1.1237953 -8.1708231e-05 0)
(1.1237732 -7.605841e-05 0)
(1.1237526 -7.0778152e-05 0)
(1.1237335 -6.5843054e-05 0)
(1.1237156 -6.1231213e-05 0)
(1.123699 -5.6921493e-05 0)
(1.1236835 -5.2894963e-05 0)
(1.1236691 -4.9133232e-05 0)
(1.1236557 -4.5619871e-05 0)
(1.1236433 -4.2338783e-05 0)
(1.1236317 -3.9275649e-05 0)
(1.1236209 -3.641635e-05 0)
(1.123611 -3.3748378e-05 0)
(1.1236017 -3.1259293e-05 0)
(1.1235931 -2.8938139e-05 0)
(1.1235852 -2.6773954e-05 0)
(1.1235778 -2.4757135e-05 0)
(1.123571 -2.2877987e-05 0)
(1.1235647 -2.1128081e-05 0)
(1.1235589 -1.9498852e-05 0)
(1.1235535 -1.7982908e-05 0)
(1.1235485 -1.6572655e-05 0)
(1.1235439 -1.5261608e-05 0)
(1.1235397 -1.4043048e-05 0)
(1.1235358 -1.2911293e-05 0)
(1.1235322 -1.186038e-05 0)
(1.1235289 -1.088533e-05 0)
(1.1235259 -9.9808667e-06 0)
(1.1235231 -9.142634e-06 0)
(1.1235206 -8.3659439e-06 0)
(1.1235182 -7.6469879e-06 0)
(1.1235161 -6.9816175e-06 0)
(1.1235141 -6.3665159e-06 0)
(1.1235124 -5.7979961e-06 0)
(1.1235107 -5.2731723e-06 0)
(1.1235092 -4.7887867e-06 0)
(1.1235079 -4.3423452e-06 0)
(1.1235067 -3.9309563e-06 0)
(1.1235055 -3.5524706e-06 0)
(1.1235045 -3.2043405e-06 0)
(1.1235036 -2.8847337e-06 0)
(1.1235028 -2.5913874e-06 0)
(1.123502 -2.3227529e-06 0)
(1.1235014 -2.0768215e-06 0)
(1.1235008 -1.852321e-06 0)
(1.1235002 -1.6474102e-06 0)
(1.1234998 -1.4611074e-06 0)
(1.1234993 -1.2916328e-06 0)
(1.123499 -1.1384057e-06 0)
(1.1234986 -9.9943708e-07 0)
(1.1234983 -8.7485542e-07 0)
(1.1234981 -7.6187884e-07 0)
(1.1234978 -6.6218296e-07 0)
(1.1234976 -5.7077668e-07 0)
(1.1234975 -4.9300465e-07 0)
(1.1234973 -4.183936e-07 0)
(1.1234972 -3.6105405e-07 0)
(1.1234971 -2.9697521e-07 0)
(1.123497 -2.6207714e-07 0)
(1.1234969 -2.0069197e-07 0)
(0.7914375 -0.00019441103 0)
(0.79177894 -0.00087205741 0)
(0.79127677 -0.0012492366 0)
(0.79056072 -0.0012494037 0)
(0.78991991 -0.0010649572 0)
(0.78937504 -0.00086964854 0)
(0.78887705 -0.00072732106 0)
(0.78839963 -0.00063015508 0)
(0.78794377 -0.00055490551 0)
(0.78751849 -0.00048886271 0)
(0.78712864 -0.00043010084 0)
(0.78677338 -0.00038005057 0)
(0.78644901 -0.00033892461 0)
(0.78615164 -0.00030524213 0)
(0.78587818 -0.00027702242 0)
(0.78562626 -0.00025271283 0)
(0.78539392 -0.00023137806 0)
(0.78517934 -0.00021248496 0)
(0.78498088 -0.0001956648 0)
(0.78479704 -0.00018060276 0)
(0.78462653 -0.00016702231 0)
(0.78446821 -0.00015469762 0)
(0.78432107 -0.00014345415 0)
(0.78418424 -0.00013315814 0)
(0.78405691 -0.00012370209 0)
(0.78393837 -0.00011499624 0)
(0.78382796 -0.00010696308 0)
(0.78372508 -9.9536204e-05 0)
(0.78362921 -9.2657906e-05 0)
(0.78353985 -8.627864e-05 0)
(0.78345655 -8.0354702e-05 0)
(0.78337889 -7.4847969e-05 0)
(0.7833065 -6.9724131e-05 0)
(0.783239 -6.495299e-05 0)
(0.78317608 -6.0507051e-05 0)
(0.78311744 -5.6362e-05 0)
(0.78306279 -5.2495416e-05 0)
(0.78301186 -4.8887394e-05 0)
(0.78296442 -4.5519379e-05 0)
(0.78292023 -4.2374854e-05 0)
(0.78287908 -3.9438234e-05 0)
(0.78284077 -3.6695634e-05 0)
(0.78280512 -3.4133845e-05 0)
(0.78277195 -3.1741092e-05 0)
(0.7827411 -2.9506048e-05 0)
(0.78271243 -2.7418633e-05 0)
(0.78268577 -2.5469079e-05 0)
(0.78266101 -2.3648711e-05 0)
(0.78263802 -2.1949031e-05 0)
(0.78261668 -2.0362516e-05 0)
(0.78259688 -1.8881757e-05 0)
(0.78257852 -1.750022e-05 0)
(0.7825615 -1.6211392e-05 0)
(0.78254574 -1.5009565e-05 0)
(0.78253114 -1.3889023e-05 0)
(0.78251763 -1.2844782e-05 0)
(0.78250514 -1.1871789e-05 0)
(0.7824936 -1.0965676e-05 0)
(0.78248293 -1.0121989e-05 0)
(0.78247309 -9.3369111e-06 0)
(0.78246401 -8.6064929e-06 0)
(0.78245564 -7.9273839e-06 0)
(0.78244793 -7.2961006e-06 0)
(0.78244084 -6.709716e-06 0)
(0.78243432 -6.1651349e-06 0)
(0.78242832 -5.6597899e-06 0)
(0.78242282 -5.1909479e-06 0)
(0.78241777 -4.7563713e-06 0)
(0.78241315 -4.3536259e-06 0)
(0.78240891 -3.9807522e-06 0)
(0.78240504 -3.6356008e-06 0)
(0.78240151 -3.3164699e-06 0)
(0.78239829 -3.0214428e-06 0)
(0.78239535 -2.7490353e-06 0)
(0.78239268 -2.4975571e-06 0)
(0.78239025 -2.2657293e-06 0)
(0.78238805 -2.0520458e-06 0)
(0.78238605 -1.8553999e-06 0)
(0.78238425 -1.6744695e-06 0)
(0.78238262 -1.5083125e-06 0)
(0.78238115 -1.3557544e-06 0)
(0.78237984 -1.2159863e-06 0)
(0.78237866 -1.0879853e-06 0)
(0.7823776 -9.7106523e-07 0)
(0.78237665 -8.6432581e-07 0)
(0.78237581 -7.6716237e-07 0)
(0.78237507 -6.7881664e-07 0)
(0.78237441 -5.9872957e-07 0)
(0.78237383 -5.2629396e-07 0)
(0.78237332 -4.6090034e-07 0)
(0.78237287 -4.0218288e-07 0)
(0.78237248 -3.4931847e-07 0)
(0.78237214 -3.0237018e-07 0)
(0.78237184 -2.5995269e-07 0)
(0.78237159 -2.2313472e-07 0)
(0.78237137 -1.8911159e-07 0)
(0.78237119 -1.609965e-07 0)
(0.78237102 -1.3294487e-07 0)
(0.78237092 -1.1308472e-07 0)
(0.78237075 -8.7643649e-08 0)
(0.31696034 -0.00017514196 0)
(0.31658526 -0.00052408304 0)
(0.3157359 -0.00058906486 0)
(0.31486165 -0.00046150565 0)
(0.31414338 -0.00030763344 0)
(0.31358688 -0.00020558455 0)
(0.31314379 -0.0001537196 0)
(0.31277229 -0.00012674049 0)
(0.31245012 -0.00010759096 0)
(0.31216793 -9.1122496e-05 0)
(0.31192057 -7.7545232e-05 0)
(0.31170298 -6.7365758e-05 0)
(0.31150986 -6.0042475e-05 0)
(0.31133653 -5.4540515e-05 0)
(0.31117946 -5.0017856e-05 0)
(0.31103622 -4.6039076e-05 0)
(0.31090506 -4.2454313e-05 0)
(0.31078459 -3.9221065e-05 0)
(0.31067368 -3.6304803e-05 0)
(0.31057132 -3.3660284e-05 0)
(0.31047667 -3.1243175e-05 0)
(0.31038902 -2.9020824e-05 0)
(0.31030775 -2.6971289e-05 0)
(0.31023231 -2.5079275e-05 0)
(0.31016224 -2.3331186e-05 0)
(0.31009711 -2.1714631e-05 0)
(0.31003653 -2.0217508e-05 0)
(0.30998016 -1.8829404e-05 0)
(0.30992768 -1.7540633e-05 0)
(0.30987882 -1.6343168e-05 0)
(0.3098333 -1.5229312e-05 0)
(0.3097909 -1.4192659e-05 0)
(0.3097514 -1.3226879e-05 0)
(0.3097146 -1.2326812e-05 0)
(0.30968031 -1.1487253e-05 0)
(0.30964836 -1.0704027e-05 0)
(0.30961859 -9.9727901e-06 0)
(0.30959087 -9.2901451e-06 0)
(0.30956505 -8.652436e-06 0)
(0.309541 -8.0568517e-06 0)
(0.30951861 -7.50026e-06 0)
(0.30949778 -6.9803324e-06 0)
(0.30947839 -6.4943773e-06 0)
(0.30946035 -6.040435e-06 0)
(0.30944358 -5.6161512e-06 0)
(0.30942799 -5.2198825e-06 0)
(0.3094135 -4.8495723e-06 0)
(0.30940004 -4.5038199e-06 0)
(0.30938754 -4.1807978e-06 0)
(0.30937594 -3.8793233e-06 0)
(0.30936518 -3.5977821e-06 0)
(0.3093552 -3.335159e-06 0)
(0.30934595 -3.0900028e-06 0)
(0.30933738 -2.861457e-06 0)
(0.30932945 -2.6482309e-06 0)
(0.30932211 -2.4495886e-06 0)
(0.30931532 -2.2643613e-06 0)
(0.30930904 -2.0919331e-06 0)
(0.30930325 -1.9312605e-06 0)
(0.3092979 -1.7818172e-06 0)
(0.30929296 -1.642653e-06 0)
(0.30928841 -1.5133345e-06 0)
(0.30928422 -1.393011e-06 0)
(0.30928036 -1.2813159e-06 0)
(0.30927682 -1.1774698e-06 0)
(0.30927356 -1.0811784e-06 0)
(0.30927057 -9.9174171e-07 0)
(0.30926782 -9.089151e-07 0)
(0.30926531 -8.3205235e-07 0)
(0.30926301 -7.6096586e-07 0)
(0.3092609 -6.9507286e-07 0)
(0.30925898 -6.3422232e-07 0)
(0.30925723 -5.7787264e-07 0)
(0.30925563 -5.2591844e-07 0)
(0.30925418 -4.778701e-07 0)
(0.30925286 -4.3364972e-07 0)
(0.30925166 -3.9279965e-07 0)
(0.30925057 -3.5527952e-07 0)
(0.30924959 -3.2067531e-07 0)
(0.30924871 -2.8896731e-07 0)
(0.30924791 -2.5976672e-07 0)
(0.30924719 -2.3308411e-07 0)
(0.30924655 -2.08568e-07 0)
(0.30924598 -1.8624212e-07 0)
(0.30924546 -1.6577581e-07 0)
(0.30924501 -1.472129e-07 0)
(0.3092446 -1.3025799e-07 0)
(0.30924424 -1.1495346e-07 0)
(0.30924393 -1.010311e-07 0)
(0.30924365 -8.8524136e-08 0)
(0.3092434 -7.7211626e-08 0)
(0.30924319 -6.7079143e-08 0)
(0.30924301 -5.7966608e-08 0)
(0.30924285 -4.9816477e-08 0)
(0.30924271 -4.259401e-08 0)
(0.30924259 -3.5994169e-08 0)
(0.3092425 -3.0181923e-08 0)
(0.30924241 -2.4795723e-08 0)
(0.30924235 -1.9230304e-08 0)
(0.30924227 -1.6135251e-08 0)
)
;

boundaryField
{
    top
    {
        type            fixedValue;
        value           uniform (0 0 0);
    }
    inlet
    {
        type            pressureNormalInletOutletVelocity;
        phi             phi;
        rho             rho;
        value           nonuniform List<vector> 10((0.317009 0 0) (0.79157629 0 0) (1.1256879 0 0) (1.3372741 0 0) (1.4395781 0 0) (1.439578 -0 0) (1.3372741 -0 0) (1.1256879 -0 0) (0.79157631 -0 0) (0.31700914 -0 0));
    }