/*--------------------------------*- C++ -*----------------------------------*\
| =========                 |                                                 |
| \\      /  F ield         | OpenFOAM: The Open Source CFD Toolbox           |
|  \\    /   O peration     | Version:  v1812                                 |
|   \\  /    A nd           | Web:      www.OpenFOAM.com                      |
|    \\/     M anipulation  |                                                 |
\*---------------------------------------------------------------------------*/
FoamFile
{
    version     2.0;
    format      ascii;
    class       surfaceScalarField;
    location    "10";
    object      phi;
}
// * * * * * * * * * * * * * * * * * * * * * * * * * * * * * * * * * * * * * //

dimensions      [0 3 -1 0 0 0 0];
oriented        oriented;


internalField   nonuniform List<scalar> 
1890
(
0.0027133869
3.3287419e-06
0.0027026045
1.0782793e-05
0.0026898685
1.2735555e-05
0.0026787977
1.1070022e-05
0.0026702492
8.5478275e-06
0.0026636468
6.6018524e-06
0.0026582858
5.360498e-06
0.0026537637
4.521716e-06
0.0026499052
3.8580905e-06
0.0026466104
3.294603e-06
0.0026437834
2.8267788e-06
0.002641331
2.4522834e-06
0.0026391766
2.1543153e-06
0.0026372655
1.9110963e-06
0.0026355598
1.7056811e-06
0.0026340317
1.5280838e-06
0.0026326589
1.3728264e-06
0.0026314227
1.2362518e-06
0.0026303074
1.1153329e-06
0.0026293
1.0074989e-06
0.0026283893
9.1072677e-07
0.0026275659
8.2348172e-07
0.0026268214
7.4458526e-07
0.0026261484
6.7307248e-07
0.0026255404
6.0813151e-07
0.0026249914
5.490616e-07
0.0026244963
4.9526673e-07
0.0026240501
4.4622906e-07
0.0026236487
4.0150252e-07
0.0026232881
3.6069055e-07
0.0026229648
3.234451e-07
0.0026226754
2.8945176e-07
0.0026224171
2.5843191e-07
0.0026221871
2.3013152e-07
0.0026219828
2.0432431e-07
0.0026218021
1.8080342e-07
0.0026216429
1.5938513e-07
0.002621503
1.3990255e-07
0.0026213809
1.2220898e-07
0.0026212748
1.0617289e-07
0.0026211833
9.1679787e-08
0.0026211047
7.8627539e-08
0.0026210379
6.6926354e-08
0.0026209815
5.6494527e-08
0.0026209343
4.7256632e-08
0.0026208952
3.9140204e-08
0.0026208632
3.2073162e-08
0.0026208373
2.5982589e-08
0.0026208166
2.0792226e-08
0.0026208002
1.6423881e-08
0.0026207875
1.279553e-08
0.0026207777
9.8252297e-09
0.0026207703
7.4294117e-09
0.0026207648
5.528295e-09
0.0026207608
4.0438078e-09
0.0026207579
2.9057455e-09
0.0026207559
2.0483678e-09
0.0026207545
1.4155724e-09
0.0026207536
9.5699968e-10
0.002620753
6.3245439e-10
0.0026207526
4.0708628e-10
0.0026207523
2.5504334e-10
0.0026207522
1.5435484e-10
0.0026207521
9.0246123e-11
0.0026207521
5.0052716e-11
0.002620752
2.638766e-11
0.002620752
1.2456809e-11
0.002620752
5.2401674e-12
0.002620752
1.2193676e-12
0.002620752
-7.1722316e-14
0.002620752
-9.1265448e-13
0.002620752
-7.3364398e-13
0.002620752
-8.2230634e-13
0.002620752
-3.5110772e-13
0.002620752
-3.6150907e-13
0.002620752
3.5719742e-14
0.002620752
3.5538726e-14
0.002620752
4.0780876e-13
0.002620752
3.5182046e-13
0.002620752
6.8878501e-13
0.002620752
6.2219954e-13
0.002620752
9.4125844e-13
0.002620752
8.2906483e-13
0.002620752
1.0899436e-12
0.002620752
9.4790151e-13
0.002620752
1.1633104e-12
0.002620752
1.0158882e-12
0.002620752
1.1605707e-12
0.002620752
1.130457e-12
0.002620752
1.2785699e-12
0.002620752
1.5616359e-12
0.002620752
1.8905905e-12
0.002620752
3.0561442e-12
0.002620752
4.3808299e-12
0.002620752
8.3567038e-12
0.002620752
1.3338106e-11
0.0026207519
2.4524281e-11
0.0026207519
3.8167789e-11
0.0026207518
7.1450439e-11
9.8736972e-11
0.0065718304
3.6088662e-06
0.0065676659
1.494792e-05
0.0065601189
2.0282366e-05
0.00655145
1.9738318e-05
0.0065430941
1.6903044e-05
0.006535403
1.42924e-05
0.0065283271
1.2436104e-05
0.0065218181
1.1030334e-05
0.0065158902
9.7856779e-06
0.0065105546
8.6299677e-06
0.006505782
7.5991876e-06
0.0065015145
6.7197053e-06
0.0064976893
5.9793649e-06
0.0064942522
5.348132e-06
0.0064911584
4.7994542e-06
0.00648837
4.316552e-06
0.0064858536
3.8892396e-06
0.00648358
3.5098599e-06
0.0064815237
3.17158e-06
0.0064796629
2.8683959e-06
0.0064779783
2.5953831e-06
0.0064764532
2.348659e-06
0.0064750727
2.1251087e-06
0.0064738237
1.9221484e-06
0.0064726943
1.7375699e-06
0.006471674
1.5694784e-06
0.0064707531
1.4162369e-06
0.0064699229
1.2764306e-06
0.0064691757
1.1488183e-06
0.0064685041
1.0323072e-06
0.0064679017
9.2592112e-07
0.0064673625
8.2878901e-07
0.0064668809
7.4012443e-07
0.0064664518
6.5921984e-07
0.0064660708
5.8543292e-07
0.0064657335
5.1818429e-07
0.006465436
4.5694893e-07
0.0064651747
4.0125587e-07
0.0064649463
3.5068242e-07
0.0064647477
3.0485328e-07
0.006464576
2.6343514e-07
0.0064644286
2.2613314e-07
0.0064643029
1.926845e-07
0.0064641966
1.6285168e-07
0.0064641075
1.3641539e-07
0.0064640336
1.1316598e-07
0.0064639728
9.2898163e-08
0.0064639235
7.5403374e-08
0.0064638838
6.0468573e-08
0.0064638525
4.7871841e-08
0.0064638279
3.738626e-08
0.006463809
2.8779101e-08
0.0064637947
2.1819466e-08
0.006463784
1.6279334e-08
0.0064637761
1.194255e-08
0.0064637704
8.6055539e-09
0.0064637664
6.0850566e-09
0.0064637636
4.2164845e-09
0.0064637618
2.8594102e-09
0.0064637605
1.893767e-09
0.0064637597
1.2225732e-09
0.0064637592
7.6641805e-10
0.0064637589
4.6505711e-10
0.0064637587
2.7096339e-10
0.0064637586
1.5054211e-10
0.0064637586
7.8065008e-11
0.0064637586
3.6804169e-11
0.0064637586
1.4350532e-11
0.0064637586
3.2521655e-12
0.0064637586
-1.5170747e-12
0.0064637586
-2.8591469e-12
0.0064637586
-3.0877712e-12
0.0064637586
-2.2685943e-12
0.0064637586
-1.6979987e-12
0.0064637586
-8.6725478e-13
0.0064637586
-4.9147943e-13
0.0064637586
9.652814e-14
0.0064637586
3.5209626e-13
0.0064637586
7.5374345e-13
0.0064637586
8.6342155e-13
0.0064637586
1.3045795e-12
0.0064637586
1.3442116e-12
0.0064637586
1.7865401e-12
0.0064637586
1.7214289e-12
0.0064637586
2.2105392e-12
0.0064637586
2.0644502e-12
0.0064637586
2.6035816e-12
0.0064637586
2.3452046e-12
0.0064637586
3.1384802e-12
0.0064637586
2.9170466e-12
0.0064637586
4.324072e-12
0.0064637585
4.4969031e-12
0.0064637585
7.6176733e-12
0.0064637585
9.8751212e-12
0.0064637585
1.7557349e-11
0.0064637585
2.5822582e-11
0.0064637585
4.3094792e-11
0.0064637585
6.4853296e-11
0.0064637584
9.701066e-11
1.2944486e-10
0.0091472409
2.5541827e-06
0.009149895
1.2294376e-05
0.0091520609
1.8116047e-05
0.0091529958
1.880282e-05
0.0091530076
1.6890668e-05
0.0091524188
1.4880771e-05
0.0091514031
1.3451464e-05
0.0091500734
1.2359706e-05
0.0091485441
1.1314697e-05
0.0091469183
1.0255551e-05
0.0091452701
9.2472701e-06
0.0091436452
8.3445398e-06
0.009142071
7.553427e-06
0.0091405654
6.853659e-06
0.0091391399
6.2249661e-06
0.0091378007
5.655706e-06
0.0091365501
5.1397903e-06
0.0091353876
4.6723615e-06
0.0091343109
4.2482972e-06
0.0091333168
3.8625833e-06
0.0091324013
3.5108968e-06
0.0091315603
3.1897014e-06
0.0091307894
2.8960603e-06
0.0091300841
2.6274211e-06
0.0091294402
2.3815194e-06
0.0091288534
2.1563322e-06
0.0091283197
1.9500645e-06
0.009127835
1.7611124e-06
0.0091273959
1.5880401e-06
0.0091269987
1.4295469e-06
0.0091266402
1.2844538e-06
0.0091263174
1.1516834e-06
0.0091260273
1.0302541e-06
0.0091257673
9.1926477e-07
0.0091255349
8.1789211e-07
0.0091253278
7.2538039e-07
0.0091251437
6.4104137e-07
0.0091249808
5.642472e-07
0.0091248371
4.9443143e-07
0.0091247109
4.3108301e-07
0.0091246007
3.7374596e-07
0.0091245049
3.2201224e-07
0.0091244221
2.7551792e-07
0.0091243511
2.33934e-07
0.0091242906
1.9695915e-07
0.0091242395
1.6430967e-07
0.0091241967
1.3571093e-07
0.0091241613
1.1088974e-07
0.0091241323
8.9567917e-08
0.0091241087
7.145995e-08
0.0091240899
5.6270987e-08
0.009124075
4.3700512e-08
0.0091240634
3.3444556e-08
0.0091240545
2.5203551e-08
0.0091240478
1.8686276e-08
0.0091240428
1.3618622e-08
0.0091240392
9.7464294e-09
0.0091240366
6.8422684e-09
0.0091240348
4.7052977e-09
0.0091240335
3.1649668e-09
0.0091240327
2.0777784e-09
0.0091240321
1.328201e-09
0.0091240318
8.234747e-10
0.0091240315
4.9303879e-10
0.0091240314
2.8263324e-10
0.0091240313
1.5347847e-10
0.0091240313
7.7069073e-11
0.0091240313
3.4253157e-11
0.0091240313
1.1605939e-11
0.0091240313
1.0242193e-12
0.0091240313
-3.3511469e-12
0.0091240313
-4.1167198e-12
0.0091240313
-3.7227741e-12
0.0091240313
-2.5896552e-12
0.0091240313
-1.6290312e-12
0.0091240313
-6.6081979e-13
0.0091240313
2.9249375e-14
0.0091240313
5.8744664e-13
0.0091240313
9.8333819e-13
0.0091240313
1.3817757e-12
0.0091240313
1.609358e-12
0.0091240313
1.9411582e-12
0.0091240313
2.1032878e-12
0.0091240313
2.3911503e-12
0.0091240313
2.5667879e-12
0.0091240313
2.7869089e-12
0.0091240313
3.0432463e-12
0.0091240313
3.2289751e-12
0.0091240313
3.7601521e-12
0.0091240313
4.0392031e-12
0.0091240313
5.2655354e-12
0.0091240313
6.1729171e-12
0.0091240313
9.3447728e-12
0.0091240313
1.282274e-11
0.0091240313
2.0029572e-11
0.0091240313
2.9200804e-11
0.0091240313
4.31988e-11
0.0091240312
6.3046796e-11
0.0091240313
8.4621397e-11
1.094615e-10
0.010705667
1.270532e-06
0.010711326
6.6366743e-06
0.010719219
1.0222493e-05
0.010727042
1.0978952e-05
0.010733845
1.0086738e-05
0.010739686
9.0397396e-06
0.010744821
8.3163036e-06
0.010749394
7.7857508e-06
0.010753452
7.2572892e-06
0.010757021
6.6861304e-06
0.01076015
6.117636e-06
0.010762901
5.594002e-06
0.010765329
5.1248209e-06
0.010767482
4.7006246e-06
0.010769396
4.3109133e-06
0.010771101
3.950551e-06
0.010772623
3.6177536e-06
0.010773985
3.3111701e-06
0.010775204
3.0288495e-06
0.010776298
2.7686165e-06
0.01077728
2.5284993e-06
0.010778163
2.3068868e-06
0.010778957
2.1023963e-06
0.010779671
1.9137932e-06
0.010780312
1.7399127e-06
0.010780889
1.579686e-06
0.010781407
1.4321134e-06
0.010781872
1.2962866e-06
0.010782289
1.1713526e-06
0.010782662
1.0565291e-06
0.010782995
9.5107636e-07
0.010783292
8.5431442e-07
0.010783557
7.6559998e-07
0.010783792
6.8434233e-07
0.010784
6.0998362e-07
0.010784184
5.4201347e-07
0.010784345
4.799529e-07
0.010784486
4.2336709e-07
0.010784608
3.7185256e-07
0.010784714
3.2504738e-07
0.010784806
2.8262019e-07
0.010784883
2.4427637e-07
0.010784949
2.0974788e-07
0.010785004
1.7879473e-07
0.01078505
1.511955e-07
0.010785088
1.267444e-07
0.010785118
1.052437e-07
0.010785143
8.6498635e-08
0.010785162
7.0313832e-08
0.010785177
5.6488262e-08
0.010785189
4.4817171e-08
0.010785197
3.5088551e-08
0.010785204
2.7090453e-08
0.010785208
2.0608576e-08
0.010785212
1.5436942e-08
0.010785214
1.1375152e-08
0.010785215
8.2400023e-09
0.010785216
5.8608122e-09
0.010785217
4.0898938e-09
0.010785217
2.7952508e-09
0.010785218
1.8693327e-09
0.010785218
1.2195197e-09
0.010785218
7.7528986e-10
0.010785218
4.7734124e-10
0.010785218
2.8424537e-10
0.010785218
1.6136391e-10
0.010785218
8.7110617e-11
0.010785218
4.2779126e-11
0.010785218
1.8796377e-11
0.010785218
5.6723513e-12
0.010785218
2.6476128e-13
0.010785218
-2.4293359e-12
0.010785218
-2.1733455e-12
0.010785218
-2.1456592e-12
0.010785218
-8.611356e-13
0.010785218
-4.7386272e-13
0.010785218
6.2839639e-13
0.010785218
7.7417866e-13
0.010785218
1.6910127e-12
0.010785218
1.533684e-12
0.010785218
2.3189205e-12
0.010785218
1.9762749e-12
0.010785218
2.7200971e-12
0.010785218
2.2702349e-12
0.010785218
3.002704e-12
0.010785218
2.4776549e-12
0.010785218
3.3155652e-12
0.010785218
2.7918195e-12
0.010785218
3.8458878e-12
0.010785218
3.4678193e-12
0.010785218
5.0882638e-12
0.010785218
5.4682589e-12
0.010785218
8.5497736e-12
0.010785218
1.0844342e-11
0.010785218
1.6310675e-11
0.010785218
2.1530333e-11
0.010785218
2.9807533e-11
0.010785218
4.0446535e-11
0.010785218
5.0806819e-11
6.3649175e-11
0.011436384
2.8531291e-11
0.011443021
1.057088e-10
0.011453243
7.165784e-11
0.011464221
2.3935275e-11
0.011474307
3.7414502e-11
0.011483347
6.6063718e-11
0.011491663
7.9629878e-11
0.011499448
6.1041695e-11
0.011506705
3.5405716e-11
0.011513391
8.6187245e-12
0.011519508
-2.2522235e-11
0.011525102
-5.9599415e-11
0.011530227
-9.6975226e-11
0.011534928
-1.3573962e-10
0.011539239
-1.6557821e-10
0.01154319
-1.9202135e-10
0.011546808
-2.0884935e-10
0.011550119
-2.2275609e-10
0.011553148
-2.2736257e-10
0.011555917
-2.2869211e-10
0.011558446
-2.2139856e-10
0.011560753
-2.1203254e-10
0.011562855
-1.9598834e-10
0.011564769
-1.7913458e-10
0.011566509
-1.5744345e-10
0.011568089
-1.3654822e-10
0.011569522
-1.128624e-10
0.011570818
-9.1181415e-11
0.01157199
-6.8402889e-11
0.011573046
-4.8785725e-11
0.011573997
-2.9515662e-11
0.011574852
-1.3856268e-11
0.011575617
9.5925876e-13
0.011576302
1.2164541e-11
0.011576912
2.230119e-11
0.011577454
2.9540184e-11
0.011577934
3.6369715e-11
0.011578357
4.1358394e-11
0.011578729
4.6626495e-11
0.011579054
5.1291475e-11
0.011579337
5.6894668e-11
0.011579581
6.2747765e-11
0.011579791
6.9620402e-11
0.01157997
7.7050259e-11
0.011580121
8.5051731e-11
0.011580247
9.3314413e-11
0.011580353
1.0115271e-10
0.011580439
1.0854341e-10
0.011580509
1.1439838e-10
0.011580566
1.1913968e-10
0.01158061
1.214303e-10
0.011580645
1.221419e-10
0.011580672
1.1996236e-10
0.011580693
1.1631378e-10
0.011580708
1.0991053e-10
0.01158072
1.0248493e-10
0.011580728
9.2863935e-11
0.011580734
8.3116027e-11
0.011580738
7.2032812e-11
0.01158074
6.1662117e-11
0.011580742
5.0740386e-11
0.011580743
4.1356558e-11
0.011580744
3.2058682e-11
0.011580745
2.4668739e-11
0.011580745
1.7625107e-11
0.011580745
1.265958e-11
0.011580745
8.0311536e-12
0.011580745
5.2787013e-12
0.011580745
2.5911447e-12
0.011580745
1.5097867e-12
0.011580745
3.1221483e-13
0.011580745
2.9591125e-13
0.011580745
-1.5490952e-13
0.011580745
4.0395555e-13
0.011580745
3.7116745e-13
0.011580745
1.1260374e-12
0.011580745
1.0653134e-12
0.011580745
1.8476142e-12
0.011580745
1.7391889e-12
0.011580745
2.3830163e-12
0.011580745
2.0970686e-12
0.011580745
2.6246104e-12
0.011580745
2.277378e-12
0.011580745
2.683531e-12
0.011580745
2.2166756e-12
0.011580745
2.6146007e-12
0.011580745
2.1964461e-12
0.011580745
2.637538e-12
0.011580745
2.2739422e-12
0.011580745
2.9133051e-12
0.011580745
2.9176435e-12
0.011580745
4.1011956e-12
0.011580745
4.6801877e-12
0.011580745
6.3543852e-12
0.011580745
7.0030825e-12
0.011580745
7.8624807e-12
0.011580745
7.8696497e-12
0.011580745
7.7344188e-12
0.011580745
6.7463821e-12
6.4932696e-12
0.011436384
-1.2706093e-06
0.011443021
-6.6370067e-06
0.011453243
-1.0222664e-05
0.011464221
-1.0978889e-05
0.011474307
-1.0086612e-05
0.011483347
-9.0396679e-06
0.011491663
-8.3162508e-06
0.011499448
-7.7856925e-06
0.011506705
-7.2572324e-06
0.011513391
-6.6861089e-06
0.011519508
-6.117675e-06
0.011525102
-5.5941128e-06
0.011530227
-5.1249995e-06
0.011534928
-4.7008675e-06
0.011539239
-4.3112094e-06
0.011543189
-3.9508939e-06
0.011546807
-3.6181303e-06
0.011550119
-3.3115716e-06
0.011553148
-3.0292613e-06
0.011555917
-2.7690294e-06
0.011558445
-2.5289005e-06
0.011560752
-2.3072697e-06
0.011562855
-2.1027511e-06
0.011564769
-1.9141159e-06
0.011566509
-1.7401969e-06
0.011568089
-1.5799308e-06
0.011569521
-1.4323158e-06
0.011570818
-1.2964486e-06
0.011571989
-1.1714739e-06
0.011573046
-1.0566142e-06
0.011573997
-9.5112715e-07
0.011574851
-8.543363e-07
0.011575617
-7.6559597e-07
0.011576301
-6.8431789e-07
0.011576911
-6.0994163e-07
0.011577453
-5.4195817e-07
0.011577933
-4.7988591e-07
0.011578357
-4.2329081e-07
0.011578729
-3.7176701e-07
0.011579054
-3.2495299e-07
0.011579336
-2.8251564e-07
0.011579581
-2.4416082e-07
0.01157979
-2.0961966e-07
0.011579969
-1.7865283e-07
0.01158012
-1.5103894e-07
0.011580247
-1.2657301e-07
0.011580352
-1.0505818e-07
0.011580439
-8.6300311e-08
0.011580509
-7.010521e-08
0.011580565
-5.6272015e-08
0.01158061
-4.4597301e-08
0.011580645
-3.4868575e-08
0.011580672
-2.687491e-08
0.011580693
-2.040082e-08
0.011580708
-1.5241174e-08
0.01158072
-1.119385e-08
0.011580728
-8.0761706e-09
0.011580734
-5.7153616e-09
0.011580738
-3.9642896e-09
0.01158074
-2.6888778e-09
0.011580742
-1.782138e-09
0.011580743
-1.14949e-09
0.011580744
-7.2135297e-10
0.011580745
-4.3680767e-10
0.011580745
-2.5553559e-10
0.011580745
-1.4160645e-10
0.011580745
-7.4824732e-11
0.011580745
-3.5494791e-11
0.011580745
-1.5516056e-11
0.011580745
-4.3833079e-12
0.011580745
-4.1138422e-13
0.011580745
2.0568282e-12
0.011580745
1.6831608e-12
0.011580745
2.4235239e-12
0.011580745
1.5535694e-12
0.011580745
2.2563882e-12
0.011580745
1.5232981e-12
0.011580745
2.4595598e-12
0.011580745
1.7606699e-12
0.011580745
2.6514783e-12
0.011580745
1.8433279e-12
0.011580745
2.6667871e-12
0.011580745
1.7356529e-12
0.011580745
2.4050451e-12
0.011580745
1.3653542e-12
0.011580745
2.0768945e-12
0.011580745
9.8453397e-13
0.011580745
1.7229229e-12
0.011580745
6.4142677e-13
0.011580745
1.5830673e-12
0.011580745
5.725086e-13
0.011580745
1.5691656e-12
0.011580745
2.8586734e-13
0.011580745
1.4963248e-13
0.011580745
-3.6335287e-12
0.011580745
-7.4684022e-12
0.011580745
-1.5491863e-11
0.011580745
-2.6803267e-11
0.011580745
-3.8487048e-11
-5.171474e-11
0.010705668
-2.5541464e-06
0.010711326
-1.2294272e-05
0.010719219
-1.8116064e-05
0.010727042
-1.8802914e-05
0.010733846
-1.6890711e-05
0.010739686
-1.4880735e-05
0.010744821
-1.3451398e-05
0.010749395
-1.2359642e-05
0.010753452
-1.131466e-05
0.010757021
-1.0255536e-05
0.01076015
-9.2472919e-06
0.010762901
-8.3445961e-06
0.010765329
-7.5535339e-06
0.010767482
-6.8538088e-06
0.010769396
-6.2251651e-06
0.010771101
-5.655938e-06
0.010772623
-5.1400562e-06
0.010773984
-4.672643e-06
0.010775203
-4.2485938e-06
0.010776297
-3.8628775e-06
0.010777279
-3.5111889e-06
0.010778162
-3.1899759e-06
0.010778956
-2.8963188e-06
0.010779669
-2.6276514e-06
0.010780311
-2.3817251e-06
0.010780888
-2.1565046e-06
0.010781406
-1.9502089e-06
0.01078187
-1.7612232e-06
0.010782287
-1.5881245e-06
0.01078266
-1.4296017e-06
0.010782994
-1.2844867e-06
0.010783291
-1.1516931e-06
0.010783556
-1.0302482e-06
0.010783791
-9.1924232e-07
0.010783999
-8.178595e-07
0.010784182
-7.253367e-07
0.010784343
-6.4099106e-07
0.010784484
-5.6418865e-07
0.010784607
-4.9436695e-07
0.010784713
-4.3101047e-07
0.010784804
-3.7366606e-07
0.010784882
-3.2192291e-07
0.010784948
-2.7541899e-07
0.010785003
-2.3382435e-07
0.010785049
-1.9683859e-07
0.010785087
-1.6417869e-07
0.010785117
-1.3556992e-07
0.010785142
-1.1074098e-07
0.010785161
-8.9412381e-08
0.010785176
-7.1301445e-08
0.010785188
-5.6110833e-08
0.010785197
-4.3543344e-08
0.010785203
-3.3291388e-08
0.010785208
-2.5059109e-08
0.010785211
-1.8550866e-08
0.010785214
-1.3496376e-08
0.010785215
-9.6364156e-09
0.010785216
-6.7476271e-09
0.010785217
-4.6239247e-09
0.010785217
-3.0989568e-09
0.010785218
-2.023822e-09
0.010785218
-1.287549e-09
0.010785218
-7.9235011e-10
0.010785218
-4.720851e-10
0.010785218
-2.6790946e-10
0.010785218
-1.4556958e-10
0.010785218
-7.2334891e-11
0.010785218
-3.3470222e-11
0.010785218
-1.1795318e-11
0.010785218
-2.9697011e-12
0.010785218
2.0995463e-12
0.010785218
2.0460972e-12
0.010785218
3.1849669e-12
0.010785218
1.7590548e-12
0.010785218
2.5313217e-12
0.010785218
1.2767382e-12
0.010785218
2.3501143e-12
0.010785218
1.3028726e-12
0.010785218
2.4186914e-12
0.010785218
1.3023303e-12
0.010785218
2.3340956e-12
0.010785218
1.133891e-12
0.010785218
1.9140466e-12
0.010785218
6.797125e-13
0.010785218
1.3023747e-12
0.010785218
2.6016181e-13
0.010785218
6.4520901e-13
0.010785218
-2.4137747e-13
0.010785218
3.5460483e-14
0.010785218
-6.051466e-13
0.010785218
-5.2168708e-13
0.010785218
-1.5692185e-12
0.010785218
-2.5763368e-12
0.010785218
-5.9055299e-12
0.010785218
-1.0828307e-11
0.010785218
-1.976937e-11
0.010785218
-3.3023114e-11
0.010785218
-5.3432272e-11
0.010785218
-7.5603684e-11
-1.0007661e-10
0.0091472409
-3.6088521e-06
0.009149895
-1.4947871e-05
0.009152061
-2.028239e-05
0.0091529959
-1.9738473e-05
0.0091530078
-1.6903249e-05
0.009152419
-1.4292549e-05
0.0091514033
-1.2436179e-05
0.0091500736
-1.1030363e-05
0.0091485443
-9.7856952e-06
0.0091469184
-8.6299794e-06
0.0091452701
-7.5991976e-06
0.009143645
-6.7197157e-06
0.0091420708
-5.9793898e-06
0.0091405651
-5.3481783e-06
0.0091391394
-4.7995291e-06
0.0091378001
-4.3166507e-06
0.0091365494
-3.8893598e-06
0.0091353868
-3.5099927e-06
0.0091343099
-3.1717224e-06
0.0091333156
-2.86854e-06
0.0091324
-2.5955265e-06
0.0091315589
-2.3487944e-06
0.0091307879
-2.1252345e-06
0.0091300826
-1.9222596e-06
0.0091294386
-1.7376665e-06
0.0091288517
-1.5695572e-06
0.0091283179
-1.4162994e-06
0.0091278332
-1.2764755e-06
0.009127394
-1.1488482e-06
0.0091269969
-1.032322e-06
0.0091266384
-9.2592392e-07
0.0091263156
-8.2878047e-07
0.0091260255
-7.4010759e-07
0.0091257656
-6.5919532e-07
0.0091255332
-5.8540312e-07
0.0091253261
-5.1814947e-07
0.0091251421
-4.5691052e-07
0.0091249792
-4.0121352e-07
0.0091248356
-3.506366e-07
0.0091247095
-3.0480324e-07
0.0091245993
-2.6338076e-07
0.0091245035
-2.2607377e-07
0.0091244208
-1.9261987e-07
0.0091243499
-1.6278161e-07
0.0091242895
-1.3633992e-07
0.0091242385
-1.1308583e-07
0.0091241958
-9.2813822e-08
0.0091241605
-7.5316252e-08
0.0091241315
-6.0379556e-08
0.0091241081
-4.7782987e-08
0.0091240893
-3.7298575e-08
0.0091240745
-2.8694664e-08
0.009124063
-2.1739098e-08
0.0091240542
-1.6205047e-08
0.0091240476
-1.1874722e-08
0.0091240427
-8.5455816e-09
0.0091240391
-6.032649e-09
0.0091240366
-4.1726164e-09
0.0091240348
-2.8232023e-09
0.0091240336
-1.865411e-09
0.0091240328
-1.2007286e-09
0.0091240323
-7.5104447e-10
0.0091240319
-4.5452435e-10
0.0091240317
-2.6492522e-10
0.0091240316
-1.474134e-10
0.0091240316
-7.7629919e-11
0.0091240315
-3.772573e-11
0.0091240315
-1.641746e-11
0.0091240315
-5.5717122e-12
0.0091240315
-9.1394747e-13
0.0091240315
9.5226496e-13
0.0091240315
1.3192212e-12
0.0091240315
1.4617333e-12
0.0091240315
1.1681638e-12
0.0091240315
1.1895777e-12
0.0091240315
1.102079e-12
0.0091240315
1.2681803e-12
0.0091240315
1.1436382e-12
0.0091240315
1.2268463e-12
0.0091240315
1.0737088e-12
0.0091240315
1.0830755e-12
0.0091240315
7.3267034e-13
0.0091240315
5.5606045e-13
0.0091240315
2.5234603e-13
0.0091240315
5.7007768e-14
0.0091240315
-2.3889045e-13
0.0091240315
-5.2692548e-13
0.0091240315
-6.2311296e-13
0.0091240315
-9.7935043e-13
0.0091240315
-9.6951119e-13
0.0091240315
-1.7827832e-12
0.0091240315
-2.112794e-12
0.0091240315
-4.6161613e-12
0.0091240315
-7.1234322e-12
0.0091240315
-1.3870405e-11
0.0091240315
-2.1327639e-11
0.0091240315
-3.8669482e-11
0.0091240315
-6.0389157e-11
0.0091240315
-9.1859334e-11
-1.2339826e-10
0.0065718301
-3.3286474e-06
0.0065676656
-1.0782807e-05
0.0065601188
-1.2735706e-05
0.0065514499
-1.1070304e-05
0.006543094
-8.5481884e-06
0.006535403
-6.6022067e-06
0.0065283269
-5.3607681e-06
0.0065218179
-4.5218965e-06
0.00651589
-3.8581988e-06
0.0065105543
-3.2946721e-06
0.0065057817
-2.8268157e-06
0.0065015141
-2.4523028e-06
0.0064976889
-2.1543178e-06
0.0064942518
-1.9110983e-06
0.0064911579
-1.7056822e-06
0.0064883693
-1.5280934e-06
0.0064858528
-1.3728366e-06
0.0064835791
-1.2362677e-06
0.0064815228
-1.115346e-06
0.0064796619
-1.0075143e-06
0.0064779772
-9.1073676e-07
0.006476452
-8.2349101e-07
0.0064750714
-7.4458714e-07
0.0064738223
-6.7307167e-07
0.0064726929
-6.0812233e-07
0.0064716725
-5.4904889e-07
0.0064707516
-4.9524601e-07
0.0064699215
-4.462051e-07
0.0064691742
-4.0147165e-07
0.0064685027
-3.6065727e-07
0.0064679003
-3.2340655e-07
0.006467361
-2.8941199e-07
0.0064668795
-2.5838852e-07
0.0064664505
-2.3008793e-07
0.0064660695
-2.0427853e-07
0.0064657322
-1.8075816e-07
0.0064654348
-1.5933864e-07
0.0064651735
-1.3985673e-07
0.0064649452
-1.2216243e-07
0.0064647466
-1.0612684e-07
0.006464575
-9.163324e-08
0.0064644276
-7.85811e-08
0.006464302
-6.6879628e-08
0.0064641958
-5.6447682e-08
0.0064641068
-4.7210004e-08
0.0064640329
-3.9093518e-08
0.0064639722
-3.2027449e-08
0.0064639229
-2.593722e-08
0.0064638834
-2.0748919e-08
0.0064638521
-1.6381554e-08
0.0064638276
-1.2756321e-08
0.0064638088
-9.7876517e-09
0.0064637945
-7.3959358e-09
0.0064637839
-5.4970013e-09
0.0064637761
-4.0171632e-09
0.0064637704
-2.8815459e-09
0.0064637665
-2.0289642e-09
0.0064637637
-1.3985125e-09
0.0064637619
-9.4438943e-10
0.0064637607
-6.2171775e-10
0.0064637599
-4.0019497e-10
0.0064637594
-2.4935232e-10
0.0064637591
-1.5166642e-10
0.0064637589
-8.7982302e-11
0.0064637588
-5.0007845e-11
0.0064637588
-2.6105569e-11
0.0064637588
-1.3691613e-11
0.0064637588
-5.7173078e-12
0.0064637588
-2.8539017e-12
0.0064637588
-3.9598849e-13
0.0064637588
-3.0856103e-13
0.0064637588
7.0421372e-13
0.0064637588
1.0775135e-13
0.0064637588
8.6016976e-13
0.0064637588
1.773263e-13
0.0064637588
9.7733289e-13
0.0064637588
2.1260568e-13
0.0064637588
9.2994972e-13
0.0064637588
1.3538802e-13
0.0064637588
8.0539754e-13
0.0064637588
-4.2438704e-14
0.0064637588
4.8758987e-13
0.0064637588
-3.6064125e-13
0.0064637588
2.1653969e-13
0.0064637588
-6.9116123e-13
0.0064637588
-9.2323165e-14
0.0064637588
-9.6554459e-13
0.0064637588
-2.5235949e-13
0.0064637588
-1.1851217e-12
0.0064637588
-4.3863062e-13
0.0064637588
-1.7002098e-12
0.0064637588
-1.2233684e-12
0.0064637588
-3.9410125e-12
0.0064637588
-4.3744883e-12
0.0064637587
-9.2154663e-12
0.0064637587
-1.3406958e-11
0.0064637587
-2.5207727e-11
0.0064637587
-3.799651e-11
0.0064637587
-6.9854625e-11
-9.6246314e-11
0.002713387
0.0027026043
0.0026898683
0.0026787976
0.002670249
0.0026636465
0.0026582854
0.0026537632
0.0026499048
0.00264661
0.0026437831
0.0026413307
0.0026391764
0.0026372652
0.0026355595
0.0026340315
0.0026326586
0.0026314224
0.0026303071
0.0026292996
0.002628389
0.0026275655
0.002626821
0.002626148
0.0026255399
0.002624991
0.0026244958
0.0026240496
0.0026236482
0.0026232877
0.0026229643
0.002622675
0.0026224167
0.0026221867
0.0026219824
0.0026218018
0.0026216425
0.0026215027
0.0026213806
0.0026212745
0.002621183
0.0026211045
0.0026210376
0.0026209813
0.0026209341
0.0026208951
0.0026208631
0.0026208372
0.0026208165
0.0026208002
0.0026207874
0.0026207777
0.0026207703
0.0026207648
0.0026207609
0.002620758
0.002620756
0.0026207546
0.0026207537
0.0026207531
0.0026207527
0.0026207524
0.0026207523
0.0026207522
0.0026207521
0.0026207521
0.0026207521
0.0026207521
0.0026207521
0.0026207521
0.0026207521
0.0026207521
0.0026207521
0.0026207521
0.0026207521
0.0026207521
0.0026207521
0.0026207521
0.0026207521
0.0026207521
0.0026207521
0.0026207521
0.0026207521
0.0026207521
0.0026207521
0.0026207521
0.0026207521
0.0026207521
0.0026207521
0.0026207521
0.0026207521
0.0026207521
0.0026207521
0.0026207521
0.0026207521
0.0026207521
0.002620752
0.002620752
0.0026207519
)
;

boundaryField
{
    top
    {
        type            calculated;
        value           uniform 0;
    }
    inlet
    {
        type            calculated;
        value           nonuniform List<scalar> 10(-0.0027167146 -0.0065721099 -0.0091461852 -0.010704383 -0.011435113 -0.011435112 -0.010704384 -0.0091461852 -0.0065721096 -0.0027167152);
    }
    outlet
    {
        type            calculated;
        value           nonuniform List<scalar> 10(0.0026207517 0.0064637584 0.0091240313 0.010785218 0.011580745 0.011580745 0.010785218 0.0091240316 0.0064637586 0.0026207518);
    }
    bottom
    {
        type            calculated;
        value           uniform 0;
    }
    back
    {
        type            empty;
        value           nonuniform 0();
    }
    front
    {
        type            empty;
        value           nonuniform 0();
    }
}


// ************************************************************************* //
