/*--------------------------------*- C++ -*----------------------------------*\
| =========                 |                                                 |
| \\      /  F ield         | OpenFOAM: The Open Source CFD Toolbox           |
|  \\    /   O peration     | Version:  v1812                                 |
|   \\  /    A nd           | Web:      www.OpenFOAM.com                      |
|    \\/     M anipulation  |                                                 |
\*---------------------------------------------------------------------------*/
FoamFile
{
    version     2.0;
    format      ascii;
    class       volScalarField;
    location    "10";
    object      p;
}
// * * * * * * * * * * * * * * * * * * * * * * * * * * * * * * * * * * * * * //

dimensions      [0 2 -2 0 0 0 0];


internalField   nonuniform List<scalar> 
1000
(
1.5143134
1.4973768
1.4809442
1.4648552
1.4489793
1.4332406
1.4175992
1.4020331
1.3865278
1.3710717
1.3556551
1.3402708
1.3249138
1.3095805
1.2942681
1.2789744
1.2636975
1.2484357
1.2331876
1.2179519
1.2027275
1.1875133
1.1723085
1.1571123
1.1419238
1.1267424
1.1115674
1.0963984
1.0812347
1.0660758
1.0509215
1.0357712
1.0206245
1.0054812
0.99034088
0.97520331
0.96006822
0.94493535
0.92980449
0.91467544
0.89954799
0.88442198
0.86929725
0.85417365
0.83905104
0.82392929
0.80880828
0.79368791
0.77856808
0.7634487
0.74832969
0.73321099
0.71809253
0.70297426
0.68785615
0.67273815
0.65762025
0.6425024
0.6273846
0.61226684
0.5971491
0.58203137
0.56691366
0.55179595
0.53667825
0.52156055
0.50644285
0.49132515
0.47620745
0.46108975
0.44597206
0.43085436
0.41573666
0.40061896
0.38550126
0.37038357
0.35526587
0.34014817
0.32503047
0.30991277
0.29479508
0.27967738
0.26455968
0.24944198
0.23432429
0.21920659
0.20408889
0.1889712
0.1738535
0.1587358
0.1436181
0.12850041
0.11338271
0.098265015
0.083147318
0.068029622
0.052911926
0.037794231
0.022676536
0.0075588439
1.5139249
1.4969594
1.4808203
1.4649582
1.4491451
1.4333828
1.4177075
1.4021216
1.3866055
1.3711404
1.3557143
1.3403211
1.3249567
1.3096175
1.2943005
1.2790031
1.2637229
1.2484583
1.2332078
1.21797
1.2027437
1.1875279
1.1723216
1.157124
1.1419343
1.1267518
1.1115759
1.096406
1.0812415
1.0660819
1.0509269
1.0357759
1.0206287
1.0054849
0.99034417
0.9752062
0.96007073
0.94493752
0.92980636
0.91467703
0.89954934
0.88442312
0.8692982
0.85417443
0.83905167
0.82392979
0.80880868
0.79368822
0.77856831
0.76344887
0.74832982
0.73321108
0.71809259
0.70297431
0.68785618
0.67273817
0.65762026
0.64250241
0.62738461
0.61226684
0.5971491
0.58203137
0.56691366
0.55179595
0.53667825
0.52156055
0.50644285
0.49132515
0.47620745
0.46108975
0.44597206
0.43085436
0.41573666
0.40061896
0.38550126
0.37038357
0.35526587
0.34014817
0.32503047
0.30991277
0.29479508
0.27967738
0.26455968
0.24944198
0.23432429
0.21920659
0.20408889
0.1889712
0.1738535
0.1587358
0.1436181
0.12850041
0.11338271
0.098265015
0.083147318
0.068029622
0.052911926
0.03779423
0.022676535
0.0075588425
1.5132504
1.4961384
1.4803984
1.4649257
1.4492732
1.4335097
1.4177928
1.4021828
1.3866613
1.3711949
1.3557642
1.3403638
1.3249925
1.3096479
1.2943269
1.2790262
1.2637434
1.2484764
1.2332238
1.2179842
1.2027564
1.1875392
1.1723318
1.1571331
1.1419425
1.1267592
1.1115825
1.0964119
1.0812468
1.0660867
1.0509311
1.0357797
1.0206321
1.0054879
0.99034684
0.97520856
0.96007281
0.94493935
0.92980796
0.91467842
0.89955054
0.88442415
0.86929908
0.85417517
0.83905229
0.82393031
0.8088091
0.79368856
0.77856859
0.76344909
0.74832999
0.73321121
0.71809269
0.70297438
0.68785624
0.67273821
0.65762028
0.64250243
0.62738462
0.61226685
0.59714911
0.58203138
0.56691366
0.55179595
0.53667825
0.52156055
0.50644285
0.49132515
0.47620745
0.46108975
0.44597206
0.43085436
0.41573666
0.40061896
0.38550126
0.37038357
0.35526587
0.34014817
0.32503047
0.30991277
0.29479508
0.27967738
0.26455968
0.24944198
0.23432429
0.21920659
0.20408889
0.1889712
0.1738535
0.1587358
0.1436181
0.12850041
0.11338271
0.098265015
0.083147318
0.068029621
0.052911924
0.037794228
0.022676532
0.0075588406
1.5126046
1.4952862
1.4798855
1.4648155
1.4493657
1.4336268
1.417874
1.4022394
1.3867143
1.3712501
1.3558174
1.3404107
1.325032
1.3096814
1.294356
1.2790519
1.263766
1.2484964
1.2332415
1.2179999
1.2027705
1.1875519
1.1723431
1.1571433
1.1419517
1.1267675
1.11159
1.0964186
1.0812529
1.0660922
1.0509361
1.0357843
1.0206362
1.0054916
0.99035014
0.97521152
0.96007546
0.94494173
0.92981008
0.9146803
0.89955221
0.88442562
0.86930037
0.8541763
0.83905327
0.82393115
0.80880982
0.79368916
0.77856909
0.76344951
0.74833033
0.73321149
0.71809291
0.70297455
0.68785637
0.67273831
0.65762036
0.64250248
0.62738466
0.61226688
0.59714913
0.58203139
0.56691367
0.55179596
0.53667825
0.52156055
0.50644285
0.49132515
0.47620745
0.46108975
0.44597206
0.43085436
0.41573666
0.40061896
0.38550126
0.37038357
0.35526587
0.34014817
0.32503047
0.30991277
0.29479508
0.27967738
0.26455968
0.24944198
0.23432429
0.21920659
0.20408889
0.1889712
0.1738535
0.1587358
0.1436181
0.12850041
0.11338271
0.098265014
0.083147317
0.06802962
0.052911923
0.037794226
0.02267653
0.0075588391
1.5122265
1.4947663
1.4795511
1.4647273
1.4494143
1.4336995
1.4179261
1.4022756
1.3867484
1.3712866
1.3558537
1.3404434
1.3250601
1.3097056
1.2943772
1.2790707
1.2637828
1.2485114
1.2332548
1.2180119
1.2027812
1.1875615
1.1723518
1.1571512
1.1419588
1.1267739
1.1115959
1.096424
1.0812577
1.0660966
1.0509401
1.0357878
1.0206395
1.0054945
0.9903528
0.97521392
0.96007763
0.94494368
0.92981183
0.91468187
0.89955361
0.88442686
0.86930147
0.85417726
0.83905411
0.82393188
0.80881045
0.79368971
0.77856955
0.76344989
0.74833064
0.73321174
0.71809312
0.70297472
0.6878565
0.67273841
0.65762044
0.64250254
0.6273847
0.61226691
0.59714915
0.58203141
0.56691368
0.55179597
0.53667826
0.52156055
0.50644285
0.49132515
0.47620745
0.46108975
0.44597206
0.43085436
0.41573666
0.40061896
0.38550126
0.37038357
0.35526587
0.34014817
0.32503047
0.30991277
0.29479508
0.27967738
0.26455968
0.24944198
0.23432429
0.21920659
0.20408889
0.1889712
0.1738535
0.1587358
0.1436181
0.12850041
0.11338271
0.098265014
0.083147316
0.068029619
0.052911922
0.037794225
0.022676528
0.0075588383
1.5122265
1.4947663
1.4795511
1.4647273
1.4494143
1.4336995
1.4179261
1.4022756
1.3867484
1.3712866
1.3558537
1.3404434
1.3250601
1.3097056
1.2943772
1.2790707
1.2637828
1.2485114
1.2332548
1.2180119
1.2027812
1.1875615
1.1723518
1.1571512
1.1419588
1.1267739
1.1115959
1.096424
1.0812577
1.0660966
1.0509401
1.0357878
1.0206395
1.0054945
0.9903528
0.97521392
0.96007763
0.94494368
0.92981183
0.91468187
0.89955361
0.88442686
0.86930147
0.85417726
0.83905411
0.82393188
0.80881045
0.7936897
0.77856955
0.76344989
0.74833064
0.73321174
0.71809312
0.70297472
0.6878565
0.67273841
0.65762044
0.64250254
0.6273847
0.61226691
0.59714915
0.58203141
0.56691368
0.55179597
0.53667826
0.52156055
0.50644285
0.49132515
0.47620745
0.46108975
0.44597206
0.43085436
0.41573666
0.40061896
0.38550126
0.37038357
0.35526587
0.34014817
0.32503047
0.30991277
0.29479508
0.27967738
0.26455968
0.24944198
0.23432429
0.21920659
0.20408889
0.1889712
0.1738535
0.1587358
0.1436181
0.12850041
0.11338271
0.098265013
0.083147316
0.068029619
0.052911922
0.037794225
0.022676528
0.0075588384
1.5126046
1.4952862
1.4798855
1.4648155
1.4493657
1.4336268
1.417874
1.4022394
1.3867143
1.3712501
1.3558174
1.3404107
1.325032
1.3096815
1.294356
1.2790519
1.263766
1.2484964
1.2332415
1.2179999
1.2027705
1.1875519
1.1723431
1.1571433
1.1419517
1.1267675
1.11159
1.0964186
1.0812529
1.0660922
1.0509361
1.0357842
1.0206362
1.0054916
0.99035014
0.97521151
0.96007546
0.94494172
0.92981007
0.9146803
0.89955221
0.88442562
0.86930037
0.85417629
0.83905326
0.82393114
0.80880981
0.79368916
0.77856909
0.76344951
0.74833033
0.73321149
0.71809291
0.70297455
0.68785637
0.67273831
0.65762036
0.64250248
0.62738466
0.61226688
0.59714913
0.58203139
0.56691367
0.55179596
0.53667825
0.52156055
0.50644285
0.49132515
0.47620745
0.46108975
0.44597206
0.43085436
0.41573666
0.40061896
0.38550126
0.37038357
0.35526587
0.34014817
0.32503047
0.30991277
0.29479508
0.27967738
0.26455968
0.24944198
0.23432429
0.21920659
0.20408889
0.1889712
0.1738535
0.1587358
0.1436181
0.12850041
0.11338271
0.098265014
0.083147317
0.06802962
0.052911923
0.037794226
0.02267653
0.0075588392
1.5132504
1.4961384
1.4803984
1.4649257
1.4492732
1.4335097
1.4177928
1.4021827
1.3866613
1.3711949
1.3557642
1.3403639
1.3249925
1.3096479
1.2943269
1.2790263
1.2637434
1.2484764
1.2332238
1.2179842
1.2027564
1.1875392
1.1723318
1.1571331
1.1419425
1.1267592
1.1115825
1.0964119
1.0812468
1.0660867
1.0509311
1.0357797
1.0206321
1.0054879
0.99034684
0.97520856
0.96007281
0.94493935
0.92980796
0.91467842
0.89955054
0.88442415
0.86929908
0.85417517
0.83905229
0.82393031
0.8088091
0.79368856
0.77856859
0.76344909
0.74832999
0.73321121
0.71809269
0.70297438
0.68785624
0.67273821
0.65762029
0.64250243
0.62738462
0.61226685
0.59714911
0.58203138
0.56691366
0.55179595
0.53667825
0.52156055
0.50644285
0.49132515
0.47620745
0.46108975
0.44597206
0.43085436
0.41573666
0.40061896
0.38550126
0.37038357
0.35526587
0.34014817
0.32503047
0.30991277
0.29479508
0.27967738
0.26455968
0.24944198
0.23432429
0.21920659
0.20408889
0.1889712
0.1738535
0.1587358
0.1436181
0.12850041
0.11338271
0.098265014
0.083147317
0.068029621
0.052911924
0.037794228
0.022676532
0.0075588407
1.5139249
1.4969594
1.4808203
1.4649582
1.4491451
1.4333828
1.4177075
1.4021215
1.3866055
1.3711404
1.3557143
1.3403211
1.3249567
1.3096176
1.2943006
1.2790031
1.2637229
1.2484583
1.2332078
1.21797
1.2027437
1.1875279
1.1723216
1.157124
1.1419343
1.1267518
1.1115759
1.096406
1.0812414
1.0660819
1.0509269
1.0357759
1.0206287
1.0054849
0.99034417
0.97520619
0.96007073
0.94493752
0.92980636
0.91467703
0.89954934
0.88442312
0.8692982
0.85417443
0.83905167
0.82392979
0.80880868
0.79368822
0.77856831
0.76344887
0.74832982
0.73321108
0.71809259
0.70297431
0.68785618
0.67273818
0.65762026
0.64250241
0.62738461
0.61226684
0.5971491
0.58203138
0.56691366
0.55179595
0.53667825
0.52156055
0.50644285
0.49132515
0.47620745
0.46108975
0.44597206
0.43085436
0.41573666
0.40061896
0.38550126
0.37038357
0.35526587
0.34014817
0.32503047
0.30991277
0.29479508
0.27967738
0.26455968
0.24944198
0.23432429
0.21920659
0.20408889
0.1889712
0.1738535
0.1587358
0.1436181
0.12850041
0.11338271
0.098265014
0.083147318
0.068029622
0.052911926
0.03779423
0.022676535
0.0075588426
1.5143134
1.4973768
1.4809442
1.4648553
1.4489793
1.4332406
1.4175992
1.4020331
1.3865278
1.3710717
1.3556551
1.3402708
1.3249138
1.3095805
1.2942681
1.2789744
1.2636975
1.2484357
1.2331876
1.2179519
1.2027275
1.1875133
1.1723085
1.1571123
1.1419238
1.1267424
1.1115674
1.0963984
1.0812347
1.0660758
1.0509215
1.0357712
1.0206245
1.0054812
0.99034088
0.97520331
0.96006822
0.94493535
0.92980449
0.91467543
0.89954799
0.88442198
0.86929725
0.85417365
0.83905104
0.82392929
0.80880828
0.79368791
0.77856808
0.7634487
0.74832969
0.73321099
0.71809253
0.70297427
0.68785615
0.67273816
0.65762025
0.6425024
0.62738461
0.61226684
0.5971491
0.58203138
0.56691366
0.55179595
0.53667825
0.52156055
0.50644285
0.49132515
0.47620745
0.46108975
0.44597206
0.43085436
0.41573666
0.40061896
0.38550126
0.37038357
0.35526587
0.34014817
0.32503047
0.30991277
0.29479508
0.27967738
0.26455968
0.24944198
0.23432429
0.21920659
0.20408889
0.1889712
0.1738535
0.1587358
0.1436181
0.12850041
0.11338271
0.098265015
0.083147318
0.068029622
0.052911926
0.037794231
0.022676537
0.007558844
)
;

boundaryField
{
    top
    {
        type            zeroGradient;
    }
    inlet
    {
        type            fixedValue;
        value           uniform 1.523;
    }
    outlet
    {
        type            fixedValue;
        value           uniform 0;
    }
    bottom
    {
        type            zeroGradient;
    }
    back
    {
        type            empty;
    }
    front
    {
        type            empty;
    }
}


// ************************************************************************* //
