/*--------------------------------*- C++ -*----------------------------------*\
| =========                 |                                                 |
| \\      /  F ield         | OpenFOAM: The Open Source CFD Toolbox           |
|  \\    /   O peration     | Version:  v1812                                 |
|   \\  /    A nd           | Web:      www.OpenFOAM.com                      |
|    \\/     M anipulation  |                                                 |
\*---------------------------------------------------------------------------*/
FoamFile
{
    version     2.0;
    format      ascii;
    class       volScalarField;
    location    "7.2";
    object      p;
}
// * * * * * * * * * * * * * * * * * * * * * * * * * * * * * * * * * * * * * //

dimensions      [0 2 -2 0 0 0 0];


internalField   nonuniform List<scalar> 
1000
(
1.6753982
1.5543203
1.4583399
1.3946838
1.3461742
1.3037022
1.266167
1.2339952
1.2065949
1.1827573
1.161363
1.1415991
1.122922
1.1049824
1.0875671
1.0705529
1.0538721
1.0374879
1.0213797
1.0055338
0.9899388
0.97458369
0.95945698
0.94454673
0.92984073
0.91532673
0.90099277
0.88682728
0.87281924
0.85895825
0.84523454
0.83163899
0.81816308
0.80479889
0.79153904
0.77837666
0.76530535
0.75231915
0.7394125
0.72658021
0.71381744
0.70111967
0.68848267
0.67590252
0.66337553
0.65089829
0.63846759
0.62608047
0.61373414
0.60142602
0.58915369
0.57691491
0.5647076
0.55252982
0.54037976
0.52825576
0.51615628
0.50407986
0.49202517
0.47999094
0.46797598
0.45597917
0.44399943
0.43203573
0.4200871
0.40815257
0.39623123
0.38432217
0.37242452
0.36053742
0.34866001
0.33679149
0.32493107
0.31307797
0.30123148
0.28939093
0.27755566
0.26572509
0.25389863
0.24207574
0.23025592
0.2184387
0.20662368
0.19481051
0.18299892
0.17118865
0.15937953
0.14757135
0.13576395
0.12395713
0.11215076
0.10034471
0.088538888
0.076733254
0.064927793
0.053122498
0.041317351
0.029512318
0.017707349
0.005902424
1.5581785
1.5032495
1.442297
1.3907293
1.3474592
1.3084909
1.2729047
1.2411321
1.2131711
1.1883933
1.1659914
1.14529
1.1258084
1.1072204
1.0893068
1.071922
1.0549702
1.0383888
1.0221361
1.0061827
0.99050562
0.97508607
0.95990722
0.94495354
0.93021048
0.91566426
0.90130186
0.887111
0.87308017
0.85919861
0.84545625
0.83184374
0.81835238
0.80497407
0.7917013
0.77852708
0.76544489
0.75244869
0.73953283
0.72669205
0.71392144
0.70121642
0.68857271
0.67598633
0.66345356
0.65097095
0.63853525
0.62614347
0.61379278
0.60148059
0.58920445
0.57696209
0.56475141
0.55257045
0.54041739
0.52829055
0.51618837
0.50410939
0.49205226
0.48001572
0.46799856
0.45599967
0.44401796
0.4320524
0.42010201
0.40816585
0.39624297
0.3843325
0.37243354
0.36054524
0.34866676
0.33679726
0.32493596
0.31308209
0.30123492
0.28939377
0.27755799
0.26572697
0.25390014
0.24207694
0.23025687
0.21843945
0.20662427
0.19481097
0.18299926
0.1711889
0.1593797
0.14757146
0.13576402
0.12395718
0.1121508
0.10034475
0.088538921
0.076733282
0.064927809
0.0531225
0.041317339
0.029512299
0.017707324
0.0059024055
1.4973573
1.4711822
1.4327854
1.3916525
1.3525672
1.3159764
1.2816787
1.2499612
1.2211051
1.195004
1.17125
1.14936
1.1289102
1.1095693
1.0910891
1.0732881
1.0560363
1.0392407
1.0228346
1.0067695
0.99100912
0.97552543
0.96029555
0.94530004
0.93052177
0.91594527
0.90155645
0.88734229
0.87329076
0.85939071
0.8456318
0.83200442
0.81849968
0.8051093
0.79182563
0.77864152
0.76555037
0.75254603
0.73962274
0.72677519
0.71399838
0.70128769
0.68863878
0.67604762
0.66351045
0.65102378
0.63858433
0.62618908
0.61383519
0.60152001
0.5892411
0.57699617
0.56478309
0.55259988
0.54044472
0.52831591
0.51621187
0.50413114
0.49207235
0.48003424
0.46801559
0.45601528
0.44403223
0.4320654
0.42011381
0.40817651
0.39625256
0.38434108
0.37244118
0.360552
0.34867271
0.33680247
0.32494049
0.313086
0.30123827
0.28939662
0.27756039
0.26572897
0.2539018
0.24207831
0.23025799
0.21844037
0.20662502
0.19481157
0.18299974
0.17118928
0.15937998
0.14757166
0.13576416
0.12395728
0.11215088
0.10034482
0.088538989
0.07673334
0.064927849
0.053122518
0.041317333
0.029512274
0.01770729
0.0059023808
1.4679488
1.4524507
1.4255808
1.3916569
1.3558559
1.3209046
1.2876026
1.2562496
1.2271189
1.2003274
1.1757399
1.1530477
1.1318958
1.1119671
1.0930089
1.0748292
1.0572834
1.0402624
1.0236839
1.0074858
0.99162187
0.97605612
0.96076014
0.94571045
0.93088701
0.91627227
0.90185064
0.88760801
0.87353158
0.85960958
0.84583122
0.83218653
0.8186663
0.80526204
0.79196586
0.77877047
0.76566911
0.7526555
0.7397238
0.72686857
0.71408476
0.70136766
0.68871289
0.67611635
0.66357424
0.65108301
0.63863938
0.62624027
0.61388281
0.60156435
0.58928241
0.57703467
0.564819
0.5526334
0.54047603
0.52834515
0.5162392
0.50415668
0.49209622
0.48005653
0.4680364
0.45603469
0.44405031
0.43208221
0.42012941
0.40819094
0.39626588
0.38435332
0.37245239
0.36056224
0.348682
0.33681087
0.32494805
0.31309276
0.30124428
0.28940192
0.27756503
0.26573302
0.25390529
0.24208131
0.23026055
0.21844255
0.20662686
0.19481312
0.18300103
0.17119034
0.15938083
0.14757234
0.13576469
0.1239577
0.11215122
0.10034509
0.088539214
0.076733523
0.064927989
0.053122615
0.041317389
0.029512298
0.017707288
0.0059023788
1.4552172
1.4432639
1.4210295
1.3907419
1.3568808
1.3228852
1.2901876
1.2591821
1.2300847
1.2030728
1.1781458
1.1550962
1.1336146
1.113397
1.0941934
1.0758112
1.0581023
1.0409519
1.024271
1.0079919
0.9920629
0.97644434
0.96110482
0.94601864
0.93116417
0.91652268
0.90207771
0.88781452
0.87371985
0.85978157
0.84598862
0.8323308
0.81879873
0.80538375
0.79207786
0.77887365
0.76576427
0.75274334
0.73980496
0.72694363
0.71415424
0.70143202
0.68877255
0.6761717
0.66362562
0.65113075
0.63868375
0.62628154
0.61392123
0.60160014
0.58931577
0.57706581
0.56484808
0.55266058
0.54050145
0.52836896
0.5162615
0.50417759
0.49211584
0.48007494
0.46805367
0.45605089
0.44406549
0.43209642
0.42014268
0.40820332
0.3962774
0.38436401
0.37246227
0.36057133
0.34869034
0.33681848
0.32495495
0.31309898
0.30124986
0.28940689
0.27756944
0.26573689
0.25390867
0.24208424
0.23026308
0.21844471
0.20662871
0.19481468
0.18300233
0.17119141
0.15938171
0.14757305
0.13576526
0.12395816
0.11215158
0.10034539
0.088539451
0.076733712
0.064928135
0.053122722
0.041317459
0.02951234
0.017707306
0.0059023912
1.4552172
1.4432639
1.4210295
1.3907419
1.3568808
1.3228852
1.2901876
1.2591821
1.2300847
1.2030728
1.1781458
1.1550962
1.1336146
1.113397
1.0941934
1.0758112
1.0581023
1.0409519
1.024271
1.0079919
0.9920629
0.97644434
0.96110482
0.94601864
0.93116417
0.91652268
0.9020777
0.88781452
0.87371985
0.85978157
0.84598862
0.8323308
0.81879873
0.80538375
0.79207786
0.77887365
0.76576426
0.75274334
0.73980496
0.72694363
0.71415424
0.70143203
0.68877255
0.6761717
0.66362562
0.65113075
0.63868376
0.62628154
0.61392123
0.60160014
0.58931578
0.57706581
0.56484808
0.55266058
0.54050145
0.52836896
0.51626151
0.5041776
0.49211584
0.48007494
0.46805368
0.45605089
0.44406549
0.43209642
0.42014268
0.40820332
0.39627739
0.384364
0.37246227
0.36057133
0.34869034
0.33681848
0.32495495
0.31309898
0.30124985
0.28940688
0.27756943
0.26573688
0.25390866
0.24208424
0.23026308
0.21844472
0.20662871
0.19481468
0.18300233
0.17119141
0.15938171
0.14757305
0.13576525
0.12395816
0.11215158
0.10034539
0.088539454
0.076733715
0.064928137
0.053122723
0.041317461
0.029512341
0.017707306
0.00590239
1.4679488
1.4524507
1.4255808
1.3916569
1.3558559
1.3209046
1.2876026
1.2562496
1.2271189
1.2003274
1.1757399
1.1530477
1.1318958
1.1119671
1.0930089
1.0748292
1.0572834
1.0402624
1.0236839
1.0074859
0.99162187
0.97605612
0.96076014
0.94571045
0.930887
0.91627227
0.90185063
0.88760801
0.87353157
0.85960958
0.84583122
0.83218653
0.81866631
0.80526204
0.79196586
0.77877047
0.76566911
0.75265549
0.73972379
0.72686856
0.71408476
0.70136767
0.68871289
0.67611636
0.66357425
0.65108302
0.63863939
0.62624027
0.61388282
0.60156435
0.58928241
0.57703468
0.56481901
0.55263341
0.54047604
0.52834517
0.51623921
0.50415669
0.49209623
0.48005654
0.46803641
0.45603469
0.4440503
0.4320822
0.42012939
0.40819092
0.39626586
0.38435331
0.37245238
0.36056223
0.348682
0.33681087
0.32494804
0.31309275
0.30124426
0.28940189
0.277565
0.26573299
0.25390528
0.24208131
0.23026056
0.21844256
0.20662687
0.19481313
0.18300103
0.17119032
0.15938081
0.14757232
0.13576468
0.1239577
0.11215122
0.1003451
0.088539225
0.076733531
0.064927995
0.053122618
0.041317392
0.029512299
0.017707287
0.0059023762
1.4973573
1.4711822
1.4327854
1.3916525
1.3525672
1.3159764
1.2816787
1.2499612
1.2211051
1.195004
1.17125
1.14936
1.1289102
1.1095693
1.0910891
1.0732881
1.0560363
1.0392407
1.0228346
1.0067695
0.99100913
0.97552543
0.96029555
0.94530004
0.93052176
0.91594526
0.90155644
0.88734228
0.87329075
0.85939071
0.8456318
0.83200443
0.81849969
0.80510931
0.79182563
0.77864152
0.76555036
0.75254601
0.73962273
0.72677518
0.71399838
0.7012877
0.68863879
0.67604764
0.66351047
0.6510238
0.63858435
0.62618909
0.61383519
0.60152002
0.5892411
0.57699617
0.56478309
0.55259989
0.54044474
0.52831593
0.51621189
0.50413116
0.49207237
0.48003425
0.4680156
0.45601529
0.44403223
0.43206539
0.42011379
0.40817648
0.39625254
0.38434106
0.37244117
0.360552
0.34867271
0.33680247
0.32494049
0.31308599
0.30123824
0.28939658
0.27756035
0.26572894
0.25390178
0.24207831
0.23025801
0.21844039
0.20662503
0.19481158
0.18299973
0.17118925
0.15937995
0.14757164
0.13576414
0.12395728
0.1121509
0.10034484
0.088539006
0.076733353
0.064927857
0.053122522
0.041317335
0.029512275
0.017707287
0.005902378
1.5581785
1.5032495
1.442297
1.3907293
1.3474592
1.3084909
1.2729047
1.2411321
1.2131711
1.1883933
1.1659914
1.14529
1.1258084
1.1072204
1.0893068
1.071922
1.0549702
1.0383888
1.0221361
1.0061827
0.99050562
0.97508608
0.95990722
0.94495354
0.93021047
0.91566425
0.90130185
0.88711099
0.87308017
0.85919861
0.84545626
0.83184376
0.81835239
0.80497408
0.7917013
0.77852707
0.76544488
0.75244868
0.73953282
0.72669205
0.71392144
0.70121642
0.68857272
0.67598635
0.66345358
0.65097097
0.63853527
0.62614348
0.61379279
0.60148059
0.58920445
0.57696209
0.56475142
0.55257046
0.54041741
0.52829057
0.51618839
0.50410941
0.49205229
0.48001574
0.46799858
0.45599967
0.44401795
0.43205238
0.42010199
0.40816582
0.39624295
0.38433248
0.37243353
0.36054525
0.34866677
0.33679727
0.32493596
0.31308207
0.30123488
0.28939372
0.27755794
0.26572694
0.25390013
0.24207696
0.2302569
0.21843948
0.20662428
0.19481096
0.18299923
0.17118887
0.15937967
0.14757144
0.13576401
0.12395719
0.11215082
0.10034477
0.088538938
0.076733294
0.064927816
0.053122506
0.041317345
0.0295123
0.01770732
0.0059024018
1.6753982
1.5543203
1.4583399
1.3946838
1.3461742
1.3037022
1.266167
1.2339952
1.2065949
1.1827573
1.161363
1.1415991
1.122922
1.1049824
1.0875671
1.0705529
1.0538721
1.0374879
1.0213797
1.0055338
0.9899388
0.97458369
0.95945698
0.94454673
0.92984072
0.91532672
0.90099276
0.88682727
0.87281924
0.85895825
0.84523455
0.831639
0.81816309
0.8047989
0.79153904
0.77837665
0.76530534
0.75231914
0.73941249
0.72658021
0.71381744
0.70111968
0.68848269
0.67590254
0.66337555
0.65089831
0.63846761
0.62608048
0.61373415
0.60142602
0.58915369
0.57691492
0.56470761
0.55252982
0.54037977
0.52825578
0.51615629
0.50407988
0.49202519
0.47999095
0.46797599
0.45597916
0.44399941
0.43203571
0.42008707
0.40815254
0.3962312
0.38432215
0.37242451
0.36053742
0.34866002
0.33679149
0.32493105
0.31307794
0.30123144
0.28939088
0.27755563
0.26572507
0.25389863
0.24207576
0.23025594
0.21843872
0.20662368
0.1948105
0.18299889
0.17118863
0.15937951
0.14757134
0.13576395
0.12395714
0.11215077
0.10034472
0.088538893
0.076733264
0.064927808
0.053122517
0.041317366
0.029512321
0.017707341
0.0059024193
)
;

boundaryField
{
    top
    {
        type            zeroGradient;
    }
    inlet
    {
        type            zeroGradient;
    }
    outlet
    {
        type            fixedValue;
        value           uniform 0;
    }
    bottom
    {
        type            zeroGradient;
    }
    back
    {
        type            empty;
    }
    front
    {
        type            empty;
    }
}


// ************************************************************************* //
