/*--------------------------------*- C++ -*----------------------------------*\
| =========                 |                                                 |
| \\      /  F ield         | OpenFOAM: The Open Source CFD Toolbox           |
|  \\    /   O peration     | Version:  v1812                                 |
|   \\  /    A nd           | Web:      www.OpenFOAM.com                      |
|    \\/     M anipulation  |                                                 |
\*---------------------------------------------------------------------------*/
FoamFile
{
    version     2.0;
    format      ascii;
    class       volScalarField;
    location    "80";
    object      p;
}
// * * * * * * * * * * * * * * * * * * * * * * * * * * * * * * * * * * * * * //

dimensions      [0 2 -2 0 0 0 0];


internalField   nonuniform List<scalar> 
1000
(
1.6883368
1.5581864
1.4675321
1.4093665
1.3597822
1.3152651
1.2769904
1.2444892
1.2165171
1.1919257
1.1697834
1.1493918
1.1302141
1.111889
1.0941874
1.0769673
1.0601411
1.0436549
1.0274743
1.0115753
0.99593961
0.98055146
0.96539656
0.95046131
0.93573254
0.92119746
0.90684374
0.89265957
0.87863375
0.86475583
0.85101606
0.83740536
0.82391529
0.81053792
0.79726583
0.78409204
0.77101
0.75801354
0.7450969
0.73225471
0.71948204
0.70677442
0.69412789
0.68153901
0.66900484
0.65652288
0.64409096
0.63170713
0.61936946
0.60707592
0.59482423
0.58261179
0.57043561
0.55829239
0.54617854
0.5340903
0.52202389
0.50997562
0.49794203
0.48591998
0.4739067
0.46189986
0.44989755
0.43789826
0.42590085
0.4139045
0.40190862
0.38991287
0.377917
0.36592094
0.35392461
0.34192807
0.32993127
0.31793436
0.30593725
0.29394012
0.28194283
0.26994562
0.25794823
0.24595101
0.23395357
0.22195639
0.2099589
0.19796179
0.18596424
0.17396721
0.16196959
0.14997266
0.137975
0.12597816
0.11398059
0.10198377
0.089986685
0.077989724
0.065994089
0.053996712
0.042004557
0.030006159
0.01801768
0.0060145532
1.564789
1.4983716
1.4399494
1.3955754
1.3537307
1.3141219
1.2787454
1.2476876
1.2201995
1.1955297
1.1730326
1.1521584
1.1324883
1.1137218
1.0956515
1.0781367
1.0610817
1.044421
1.0281079
1.0121078
0.99639348
0.98094317
0.96573845
0.95076317
0.93600226
0.92144115
0.90706577
0.89286282
0.8788201
0.86492663
0.85117256
0.83754886
0.82404711
0.81065936
0.79737804
0.784196
0.77110652
0.7581033
0.74518045
0.73233253
0.7195545
0.70684182
0.69419042
0.68159677
0.66905787
0.65657116
0.64413448
0.63174589
0.61940351
0.60710538
0.5948493
0.58263275
0.57045282
0.55830625
0.54618947
0.53409874
0.52203026
0.50998032
0.49794541
0.48592235
0.4739083
0.46190092
0.44989821
0.43789866
0.42590107
0.41390461
0.40190865
0.38991288
0.37791698
0.36592093
0.35392457
0.34192806
0.32993124
0.31793436
0.30593721
0.29394014
0.28194279
0.26994566
0.25794818
0.24595108
0.23395349
0.22195649
0.20995878
0.19796192
0.18596407
0.17396739
0.16196936
0.14997287
0.1379747
0.12597835
0.11398022
0.10198378
0.089986305
0.077989187
0.065994177
0.053995636
0.042009128
0.030011416
0.018054027
0.0060402819
1.5022451
1.4737863
1.4357313
1.3988468
1.3615572
1.324625
1.2899026
1.2580888
1.2291387
1.2027955
1.1787036
1.1564665
1.1357117
1.1161227
1.0974495
1.0795028
1.0621433
1.0452695
1.0288066
1.0126983
0.99690207
0.98138623
0.96612751
0.95110786
0.93631126
0.92172177
0.90732325
0.89310014
0.87903859
0.86512691
0.85135531
0.83771522
0.82419867
0.81079786
0.79750514
0.78431309
0.77121469
0.75820336
0.74527305
0.7324182
0.7196337
0.70691497
0.69425789
0.68165891
0.66911498
0.65662353
0.64418235
0.63178948
0.61944303
0.60714102
0.59488124
0.58266117
0.57047788
0.55832813
0.54620835
0.53411483
0.52204378
0.5099915
0.49795449
0.48592958
0.47391395
0.46190522
0.4499014
0.43790096
0.42590266
0.41390568
0.40190932
0.38991327
0.37791716
0.36592101
0.35392456
0.34192803
0.32993116
0.31793432
0.30593713
0.29394012
0.28194271
0.26994568
0.2579481
0.24595114
0.23395339
0.22195659
0.20995865
0.19796207
0.18596386
0.17396758
0.16196903
0.1499731
0.13797414
0.12597851
0.11397917
0.10198353
0.089984142
0.077987553
0.065989493
0.053990551
0.042000045
0.030001212
0.018042322
0.0060290086
1.4731652
1.4569894
1.4280617
1.3958179
1.3621341
1.3279001
1.2946514
1.2633621
1.2343418
1.2075798
1.1828993
1.1600288
1.1386699
1.1185451
1.0994183
1.0811007
1.0634456
1.046341
1.0296994
1.0134518
0.99754424
0.98193703
0.96660246
0.95152061
0.93667439
0.92204612
0.90761693
0.89336827
0.87928391
0.86535085
0.85155905
0.83790027
0.82436689
0.81095128
0.79764567
0.78444233
0.77133386
0.75831343
0.74537478
0.73251226
0.71972074
0.70699563
0.69433282
0.68172874
0.66918028
0.65668479
0.64423996
0.63184369
0.61949398
0.60718873
0.59492563
0.58270209
0.57051519
0.55836168
0.54623806
0.53414069
0.52206587
0.51000999
0.49796963
0.4859417
0.4739234
0.4619124
0.44990669
0.43790473
0.42590524
0.41390736
0.40191033
0.38991383
0.37791741
0.36592107
0.3539245
0.34192793
0.32993103
0.31793422
0.30593701
0.29394006
0.28194263
0.26994566
0.25794803
0.24595115
0.23395333
0.22195664
0.20995856
0.19796215
0.18596371
0.17396769
0.16196874
0.14997322
0.1379735
0.12597857
0.11397763
0.10198318
0.089980093
0.077985413
0.065977957
0.053980849
0.041963529
0.029958963
0.017923678
0.0059379441
1.4601584
1.4477814
1.4234447
1.3942147
1.3627031
1.3300177
1.2976384
1.2666763
1.23762
1.210598
1.1855437
1.1622676
1.1405231
1.1200595
1.1006503
1.0821056
1.064273
1.0470322
1.0302868
1.013959
0.99798729
0.98232661
0.96694655
0.95182633
0.93694855
0.9222948
0.90784479
0.89357825
0.8794775
0.86552882
0.85172205
0.8380492
0.82450295
0.81107584
0.79776003
0.78454761
0.77143101
0.75840318
0.74545778
0.73258911
0.71979204
0.70706198
0.69439482
0.68178694
0.66923517
0.65673676
0.64428927
0.63189049
0.61953826
0.60723038
0.59496447
0.58273791
0.57054777
0.55839086
0.54626374
0.53416288
0.52208464
0.51002554
0.49798223
0.48595165
0.47393106
0.46191813
0.44991084
0.43790762
0.42590716
0.41390857
0.40191104
0.38991419
0.37791754
0.36592107
0.35392442
0.34192783
0.32993092
0.31793412
0.30593693
0.29394
0.28194257
0.26994563
0.257948
0.24595115
0.23395331
0.22195665
0.20995853
0.19796216
0.18596365
0.17396771
0.16196858
0.14997325
0.13797308
0.12597857
0.11397647
0.10198297
0.089976703
0.077983983
0.065967318
0.053972629
0.041926111
0.029915633
0.017791691
0.0058358654
1.4601584
1.4477814
1.4234447
1.3942147
1.3627031
1.3300177
1.2976384
1.2666763
1.23762
1.210598
1.1855437
1.1622676
1.1405231
1.1200595
1.1006503
1.0821056
1.064273
1.0470322
1.0302868
1.013959
0.99798728
0.9823266
0.96694655
0.95182633
0.93694855
0.92229481
0.90784479
0.89357825
0.8794775
0.86552882
0.85172205
0.8380492
0.82450296
0.81107584
0.79776003
0.78454762
0.77143101
0.75840318
0.74545778
0.73258911
0.71979204
0.70706198
0.69439482
0.68178694
0.66923517
0.65673676
0.64428928
0.63189049
0.61953826
0.60723038
0.59496447
0.58273791
0.57054777
0.55839086
0.54626375
0.53416288
0.52208464
0.51002554
0.49798223
0.48595165
0.47393106
0.46191813
0.44991084
0.43790763
0.42590717
0.41390857
0.40191104
0.38991419
0.37791754
0.36592107
0.35392443
0.34192783
0.32993092
0.31793412
0.30593693
0.29394
0.28194257
0.26994563
0.257948
0.24595115
0.23395331
0.22195665
0.20995853
0.19796216
0.18596365
0.17396771
0.16196858
0.14997325
0.13797308
0.12597857
0.11397647
0.10198297
0.089976704
0.077983982
0.065967318
0.053972627
0.041926111
0.029915633
0.017791692
0.0058358658
1.4731652
1.4569894
1.4280617
1.3958179
1.3621341
1.3279001
1.2946514
1.2633621
1.2343418
1.2075798
1.1828993
1.1600288
1.1386699
1.1185451
1.0994184
1.0811007
1.0634457
1.046341
1.0296994
1.0134518
0.99754422
0.98193702
0.96660245
0.95152061
0.93667439
0.92204612
0.90761693
0.89336828
0.87928392
0.86535086
0.85155906
0.83790027
0.82436689
0.81095129
0.79764568
0.78444234
0.77133387
0.75831344
0.74537479
0.73251226
0.71972074
0.70699563
0.69433282
0.68172874
0.66918028
0.65668479
0.64423996
0.6318437
0.61949399
0.60718874
0.59492564
0.5827021
0.5705152
0.55836169
0.54623807
0.5341407
0.52206587
0.51000999
0.49796964
0.48594171
0.47392341
0.46191241
0.4499067
0.43790474
0.42590524
0.41390736
0.40191034
0.38991384
0.37791742
0.36592107
0.35392451
0.34192794
0.32993103
0.31793422
0.30593702
0.29394006
0.28194263
0.26994566
0.25794804
0.24595116
0.23395333
0.22195664
0.20995856
0.19796215
0.18596371
0.17396769
0.16196874
0.14997322
0.1379735
0.12597857
0.11397764
0.10198318
0.089980097
0.077985414
0.065977956
0.053980845
0.041963525
0.029958962
0.017923679
0.0059379451
1.5022451
1.4737863
1.4357313
1.3988468
1.3615572
1.324625
1.2899026
1.2580888
1.2291387
1.2027955
1.1787035
1.1564665
1.1357116
1.1161227
1.0974496
1.0795028
1.0621433
1.0452695
1.0288066
1.0126983
0.99690205
0.98138621
0.9661275
0.95110784
0.93631124
0.92172177
0.90732325
0.89310015
0.87903861
0.86512693
0.85135532
0.83771523
0.82419867
0.81079786
0.79750514
0.7843131
0.77121469
0.75820337
0.74527306
0.73241821
0.71963371
0.70691497
0.69425789
0.68165891
0.66911498
0.65662353
0.64418235
0.63178949
0.61944304
0.60714103
0.59488125
0.58266118
0.57047789
0.55832813
0.54620836
0.53411484
0.52204379
0.50999151
0.4979545
0.48592959
0.47391396
0.46190523
0.44990141
0.43790097
0.42590267
0.41390569
0.40190933
0.38991328
0.37791717
0.36592101
0.35392456
0.34192803
0.32993116
0.31793432
0.30593713
0.29394013
0.28194271
0.26994568
0.2579481
0.24595114
0.2339534
0.22195659
0.20995865
0.19796207
0.18596386
0.17396758
0.16196903
0.1499731
0.13797414
0.12597852
0.11397918
0.10198354
0.08998415
0.077987557
0.065989491
0.053990544
0.042000037
0.030001209
0.018042322
0.0060290094
1.564789
1.4983716
1.4399494
1.3955754
1.3537307
1.3141219
1.2787454
1.2476876
1.2201995
1.1955297
1.1730325
1.1521583
1.1324883
1.1137218
1.0956516
1.0781368
1.0610817
1.044421
1.0281079
1.0121077
0.99639346
0.98094315
0.96573844
0.95076317
0.93600225
0.92144114
0.90706576
0.89286282
0.87882012
0.86492666
0.85117259
0.83754888
0.82404713
0.81065937
0.79737805
0.78419601
0.77110653
0.75810331
0.74518046
0.73233254
0.71955451
0.70684182
0.69419042
0.68159678
0.66905787
0.65657117
0.64413449
0.6317459
0.61940352
0.60710539
0.59484932
0.58263277
0.57045283
0.55830626
0.54618948
0.53409875
0.52203027
0.50998033
0.49794542
0.48592236
0.47390832
0.46190093
0.44989822
0.43789868
0.42590108
0.41390462
0.40190866
0.38991289
0.37791698
0.36592093
0.35392458
0.34192806
0.32993124
0.31793437
0.30593721
0.29394014
0.28194279
0.26994566
0.25794818
0.24595108
0.2339535
0.22195649
0.20995879
0.19796193
0.18596407
0.17396739
0.16196936
0.14997288
0.1379747
0.12597836
0.11398023
0.10198379
0.089986315
0.077989194
0.065994176
0.053995631
0.042009121
0.030011411
0.018054025
0.0060402824
1.6883368
1.5581864
1.4675321
1.4093665
1.3597822
1.3152651
1.2769905
1.2444893
1.2165171
1.1919257
1.1697834
1.1493918
1.130214
1.111889
1.0941875
1.0769673
1.0601411
1.0436549
1.0274743
1.0115753
0.99593958
0.98055145
0.96539657
0.95046133
0.93573254
0.92119746
0.90684373
0.89265956
0.87863375
0.86475585
0.85101608
0.83740539
0.82391531
0.81053793
0.79726584
0.78409205
0.77101001
0.75801355
0.74509691
0.73225472
0.71948204
0.70677442
0.69412789
0.68153902
0.66900485
0.65652289
0.64409097
0.63170714
0.61936948
0.60707594
0.59482425
0.5826118
0.57043563
0.55829241
0.54617855
0.53409031
0.5220239
0.50997563
0.49794204
0.48591999
0.47390671
0.46189987
0.44989756
0.43789827
0.42590086
0.41390451
0.40190863
0.38991288
0.37791701
0.36592095
0.35392461
0.34192807
0.32993128
0.31793436
0.30593725
0.29394012
0.28194283
0.26994562
0.25794824
0.24595102
0.23395358
0.2219564
0.20995891
0.19796179
0.18596424
0.17396721
0.16196959
0.14997266
0.137975
0.12597816
0.1139806
0.10198378
0.089986693
0.077989726
0.065994086
0.053996708
0.042004555
0.030006158
0.018017681
0.0060145539
)
;

boundaryField
{
    top
    {
        type            zeroGradient;
    }
    inlet
    {
        type            zeroGradient;
    }
    outlet
    {
        type            fixedValue;
        value           uniform 0;
    }
    bottom
    {
        type            zeroGradient;
    }
    back
    {
        type            empty;
    }
    front
    {
        type            empty;
    }
}


// ************************************************************************* //
