/*--------------------------------*- C++ -*----------------------------------*\
| =========                 |                                                 |
| \\      /  F ield         | OpenFOAM: The Open Source CFD Toolbox           |
|  \\    /   O peration     | Version:  v1812                                 |
|   \\  /    A nd           | Web:      www.OpenFOAM.com                      |
|    \\/     M anipulation  |                                                 |
\*---------------------------------------------------------------------------*/
FoamFile
{
    version     2.0;
    format      ascii;
    class       volVectorField;
    location    "80";
    object      U;
}
// * * * * * * * * * * * * * * * * * * * * * * * * * * * * * * * * * * * * * //

dimensions      [0 1 -1 0 0 0 0];


internalField   nonuniform List<vector> 
1000
(
(0.92241905 0.034487138 0)
(0.87132478 0.058494328 0)
(0.78815633 0.05621487 0)
(0.69388548 0.045746924 0)
(0.6139533 0.034511059 0)
(0.55015832 0.024456413 0)
(0.4994011 0.016279988 0)
(0.45984775 0.010228171 0)
(0.42978243 0.0061010122 0)
(0.40723181 0.003463738 0)
(0.39031214 0.0018584584 0)
(0.37749601 0.00095326432 0)
(0.3676375 0.0004920745 0)
(0.35987525 0.00029070411 0)
(0.35358849 0.00022889139 0)
(0.34834742 0.00023357319 0)
(0.34386128 0.00026305281 0)
(0.33993574 0.00029537877 0)
(0.33644147 0.00032059096 0)
(0.33329198 0.00033572429 0)
(0.33042839 0.00034151862 0)
(0.32780926 0.00034015202 0)
(0.32540413 0.00033378344 0)
(0.32318946 0.00032389223 0)
(0.32114629 0.00031130047 0)
(0.3192588 0.0002965551 0)
(0.31751335 0.00028027763 0)
(0.31589795 0.0002632652 0)
(0.31440175 0.00024635437 0)
(0.31301488 0.00023020938 0)
(0.31172832 0.00021519159 0)
(0.31053388 0.00020136312 0)
(0.30942421 0.00018859095 0)
(0.30839271 0.00017667275 0)
(0.30743347 0.00016543131 0)
(0.30654111 0.00015475556 0)
(0.30571069 0.00014460393 0)
(0.30493755 0.00013498726 0)
(0.30421724 0.00012595175 0)
(0.30354544 0.00011756281 0)
(0.302918 0.00010989285 0)
(0.30233101 0.00010300444 0)
(0.30178089 9.6933804e-05 0)
(0.30126463 9.1669935e-05 0)
(0.30077985 8.7143412e-05 0)
(0.300325 8.3218241e-05 0)
(0.29989933 7.9703651e-05 0)
(0.29950287 7.6369119e-05 0)
(0.29913625 7.2977996e-05 0)
(0.29880046 6.9314146e-05 0)
(0.29849655 6.5216893e-05 0)
(0.29822539 6.0596343e-05 0)
(0.29798733 5.5449169e-05 0)
(0.29778213 4.9848338e-05 0)
(0.29760874 4.3937161e-05 0)
(0.29746541 3.7896804e-05 0)
(0.29734971 3.1933685e-05 0)
(0.29725871 2.6237618e-05 0)
(0.29718915 2.0983109e-05 0)
(0.29713769 1.6287076e-05 0)
(0.29710099 1.2238307e-05 0)
(0.29707598 8.8513575e-06 0)
(0.29705988 6.1304521e-06 0)
(0.29705034 4.0049884e-06 0)
(0.29704537 2.4323052e-06 0)
(0.29704349 1.2930757e-06 0)
(0.29704343 5.4406843e-07 0)
(0.29704447 4.7040696e-08 0)
(0.2970459 -2.0473583e-07 0)
(0.29704751 -3.5847878e-07 0)
(0.29704888 -3.6044439e-07 0)
(0.29705018 -3.7773079e-07 0)
(0.29705104 -2.7851568e-07 0)
(0.29705188 -2.7764665e-07 0)
(0.29705223 -1.4425378e-07 0)
(0.29705276 -1.8254785e-07 0)
(0.29705274 -2.865948e-08 0)
(0.29705314 -1.322932e-07 0)
(0.29705285 5.7659189e-08 0)
(0.2970533 -1.2868757e-07 0)
(0.29705279 1.275678e-07 0)
(0.29705338 -1.6224819e-07 0)
(0.29705264 1.979851e-07 0)
(0.29705346 -2.226829e-07 0)
(0.29705246 2.8175889e-07 0)
(0.29705352 -2.9632286e-07 0)
(0.29705226 3.8440646e-07 0)
(0.29705348 -3.5157442e-07 0)
(0.29705204 5.0023764e-07 0)
(0.29705301 -3.0287304e-07 0)
(0.29705179 6.0906068e-07 0)
(0.29705135 7.3545938e-08 0)
(0.29705133 6.6652327e-07 0)
(0.29704667 1.2610516e-06 0)
(0.29704994 4.0670413e-07 0)
(0.29703518 3.6922802e-06 0)
(0.29704643 -2.4916718e-06 0)
(0.29701653 2.7550263e-06 0)
(0.29704895 -2.455007e-05 0)
(0.29705574 -2.9834127e-05 0)
(1.003271 0.054817095 0)
(1.0472129 0.10100035 0)
(1.066112 0.11153423 0)
(1.0625934 0.10907373 0)
(1.0508095 0.099917526 0)
(1.0345 0.0870346 0)
(1.014893 0.072925798 0)
(0.99382461 0.059367065 0)
(0.97290663 0.047360888 0)
(0.95311339 0.037329027 0)
(0.93493752 0.029286298 0)
(0.91857686 0.023049379 0)
(0.90402636 0.018325041 0)
(0.89116455 0.014796852 0)
(0.87981446 0.012176591 0)
(0.86978488 0.010225092 0)
(0.86089306 0.0087555492 0)
(0.85297538 0.007628281 0)
(0.84589103 0.0067424346 0)
(0.83952181 0.0060275053 0)
(0.83376959 0.0054356721 0)
(0.82855306 0.004935094 0)
(0.8238046 0.0045043344 0)
(0.81946779 0.0041282445 0)
(0.81549552 0.0037954877 0)
(0.81184835 0.0034974269 0)
(0.80849306 0.0032277229 0)
(0.80540127 0.0029820405 0)
(0.80254825 0.0027575548 0)
(0.79991219 0.0025523258 0)
(0.79747368 0.002364744 0)
(0.79521545 0.0021932115 0)
(0.79312218 0.0020360755 0)
(0.79118025 0.0018917213 0)
(0.78937749 0.0017587127 0)
(0.7877029 0.0016358872 0)
(0.78614632 0.0015223865 0)
(0.7846983 0.0014176089 0)
(0.78334995 0.0013211252 0)
(0.78209296 0.0012325558 0)
(0.78091972 0.0011514566 0)
(0.77982355 0.0010772076 0)
(0.77879887 0.0010089529 0)
(0.77784149 0.00094557872 0)
(0.77694865 0.00088577093 0)
(0.77611903 0.00082811216 0)
(0.77535254 0.00077124084 0)
(0.77464994 0.00071400176 0)
(0.77401244 0.0006556048 0)
(0.77344114 0.00059571142 0)
(0.77293653 0.00053448811 0)
(0.77249813 0.00047255579 0)
(0.77212418 0.00041091604 0)
(0.7718116 0.00035078695 0)
(0.77155602 0.00029347375 0)
(0.77135206 0.000240178 0)
(0.77119351 0.00019191532 0)
(0.77107387 0.00014937182 0)
(0.77098653 0.00011293436 0)
(0.77092526 8.2605594e-05 0)
(0.77088423 5.8154119e-05 0)
(0.77085851 3.9039894e-05 0)
(0.77084372 2.4661401e-05 0)
(0.7708366 1.4217033e-05 0)
(0.77083426 7.0376014e-06 0)
(0.77083499 2.3097544e-06 0)
(0.77083707 -4.785196e-07 0)
(0.77083997 -2.0229726e-06 0)
(0.77084259 -2.5686682e-06 0)
(0.77084527 -2.6893509e-06 0)
(0.77084707 -2.3369621e-06 0)
(0.77084894 -2.0443463e-06 0)
(0.77084972 -1.4712249e-06 0)
(0.77085096 -1.2356822e-06 0)
(0.77085092 -6.8394638e-07 0)
(0.77085191 -6.7060691e-07 0)
(0.77085125 -1.5177357e-07 0)
(0.77085233 -3.9926256e-07 0)
(0.77085114 1.7396884e-07 0)
(0.77085258 -3.5281631e-07 0)
(0.77085081 3.9810483e-07 0)
(0.77085286 -4.5588421e-07 0)
(0.77085037 6.1374914e-07 0)
(0.7708532 -6.590898e-07 0)
(0.77084989 8.8879862e-07 0)
(0.77085353 -9.2640379e-07 0)
(0.77084947 1.2738859e-06 0)
(0.77085359 -1.1877778e-06 0)
(0.77084936 1.8188471e-06 0)
(0.77085266 -1.2276376e-06 0)
(0.77085014 2.6128368e-06 0)
(0.77084905 -4.1484209e-07 0)
(0.77085283 3.9101779e-06 0)
(0.77083878 2.8920008e-06 0)
(0.77085863 6.3908272e-06 0)
(0.77081186 1.203468e-05 0)
(0.77086609 1.072935e-05 0)
(0.77074095 2.8106809e-05 0)
(0.77086579 9.8398073e-06 0)
(0.77059586 1.6346866e-05 0)
(1.0001503 0.028832874 0)
(1.0314833 0.059420851 0)
(1.0675718 0.071130968 0)
(1.0976325 0.075530465 0)
(1.122939 0.074771643 0)
(1.1433305 0.070076813 0)
(1.1583159 0.063250546 0)
(1.1684315 0.055736668 0)
(1.174634 0.048415342 0)
(1.1778353 0.041758153 0)
(1.1788248 0.035964088 0)
(1.1782595 0.031054826 0)
(1.1766544 0.026957724 0)
(1.1743939 0.023560345 0)
(1.1717533 0.020743339 0)
(1.1689236 0.01839683 0)
(1.1660328 0.016426755 0)
(1.1631643 0.014755991 0)
(1.1603709 0.013323267 0)
(1.1576851 0.012081314 0)
(1.1551252 0.010994633 0)
(1.1527001 0.010036805 0)
(1.1504115 0.0091876563 0)
(1.1482569 0.0084308852 0)
(1.1462321 0.0077526657 0)
(1.1443321 0.0071412352 0)
(1.1425518 0.0065869701 0)
(1.1408862 0.0060824032 0)
(1.1393299 0.0056218976 0)
(1.1378767 0.0052010666 0)
(1.1365203 0.0048161886 0)
(1.1352544 0.0044638338 0)
(1.1340731 0.0041407539 0)
(1.1329708 0.0038439538 0)
(1.1319423 0.0035708222 0)
(1.1309826 0.0033192075 0)
(1.1300871 0.0030874044 0)
(1.1292511 0.0028740328 0)
(1.1284702 0.002677861 0)
(1.1277404 0.0024975921 0)
(1.127058 0.0023316871 0)
(1.1264203 0.0021782381 0)
(1.1258254 0.0020349557 0)
(1.1252722 0.0018992487 0)
(1.1247606 0.0017684273 0)
(1.124291 0.0016399538 0)
(1.1238644 0.0015117411 0)
(1.1234817 0.0013823912 0)
(1.1231434 0.0012513807 0)
(1.1228495 0.0011190993 0)
(1.1225991 0.00098679828 0)
(1.1223903 0.00085638645 0)
(1.1222203 0.00073019347 0)
(1.1220856 0.00061064199 0)
(1.1219819 0.00049999871 0)
(1.1219047 0.00040009032 0)
(1.1218495 0.00031220119 0)
(1.1218118 0.00023692455 0)
(1.1217876 0.00017426382 0)
(1.1217735 0.0001235911 0)
(1.1217663 8.3915584e-05 0)
(1.1217638 5.3843913e-05 0)
(1.1217641 3.1954057e-05 0)
(1.1217661 1.6639769e-05 0)
(1.1217685 6.5680142e-06 0)
(1.1217712 3.1151253e-07 0)
(1.1217733 -3.0630151e-06 0)
(1.1217755 -4.6573124e-06 0)
(1.1217767 -4.9055837e-06 0)
(1.1217781 -4.6382615e-06 0)
(1.1217784 -3.8136309e-06 0)
(1.1217794 -3.1574414e-06 0)
(1.121779 -2.1953704e-06 0)
(1.12178 -1.7602053e-06 0)
(1.121779 -9.3314125e-07 0)
(1.1217802 -8.886629e-07 0)
(1.1217786 -1.5041297e-07 0)
(1.1217805 -5.1332457e-07 0)
(1.1217782 3.0524602e-07 0)
(1.1217809 -4.8690099e-07 0)
(1.1217775 6.2891494e-07 0)
(1.1217815 -6.944911e-07 0)
(1.1217767 9.8428881e-07 0)
(1.1217824 -1.0908231e-06 0)
(1.1217758 1.509516e-06 0)
(1.1217833 -1.6865245e-06 0)
(1.1217748 2.3563009e-06 0)
(1.1217841 -2.5037077e-06 0)
(1.1217742 3.7535514e-06 0)
(1.1217841 -3.4628123e-06 0)
(1.1217749 6.134384e-06 0)
(1.1217817 -4.0545003e-06 0)
(1.1217789 1.0467873e-05 0)
(1.1217732 -2.3696064e-06 0)
(1.1217893 1.925877e-05 0)
(1.1217499 7.8054253e-06 0)
(1.121807 3.9858454e-05 0)
(1.1216865 4.627742e-05 0)
(1.1218131 9.5395988e-05 0)
(1.1215377 0.00016889428 0)
(0.99973847 0.01235542 0)
(1.0184395 0.030251941 0)
(1.0484404 0.03961205 0)
(1.0802132 0.04457413 0)
(1.1117125 0.046231246 0)
(1.1417317 0.045187311 0)
(1.1688992 0.042438561 0)
(1.1926147 0.038841837 0)
(1.2129156 0.034971862 0)
(1.230101 0.031197141 0)
(1.2445726 0.027728524 0)
(1.256761 0.024657719 0)
(1.2670713 0.021999684 0)
(1.2758542 0.019725628 0)
(1.2833988 0.01778668 0)
(1.289936 0.016128828 0)
(1.2956477 0.014700978 0)
(1.300676 0.013458638 0)
(1.3051335 0.012365225 0)
(1.3091097 0.011392174 0)
(1.3126765 0.010518192 0)
(1.315891 0.0097277976 0)
(1.3187983 0.0090094611 0)
(1.3214347 0.0083539459 0)
(1.3238306 0.0077533293 0)
(1.3260127 0.0072007484 0)
(1.3280053 0.0066905334 0)
(1.3298295 0.0062182963 0)
(1.3315037 0.0057807573 0)
(1.3330434 0.0053753604 0)
(1.3344613 0.0049998708 0)
(1.3357684 0.0046521277 0)
(1.3369745 0.0043299909 0)
(1.3380885 0.0040314277 0)
(1.3391183 0.0037546313 0)
(1.3400713 0.003498085 0)
(1.3409542 0.0032605333 0)
(1.3417732 0.0030408583 0)
(1.3425337 0.0028379038 0)
(1.3432409 0.0026502845 0)
(1.3438995 0.0024762483 0)
(1.3445137 0.0023136143 0)
(1.3450873 0.0021598349 0)
(1.3456235 0.0020121582 0)
(1.3461246 0.0018678932 0)
(1.3465923 0.0017247023 0)
(1.3470272 0.0015808965 0)
(1.3474297 0.0014356421 0)
(1.3477993 0.0012890754 0)
(1.3481353 0.001142261 0)
(1.3484372 0.00099705325 0)
(1.3487047 0.0008558232 0)
(1.3489377 0.0007211754 0)
(1.3491373 0.0005956058 0)
(1.3493048 0.0004812646 0)
(1.3494423 0.00037971034 0)
(1.3495526 0.00029185414 0)
(1.3496389 0.00021786922 0)
(1.3497043 0.00015733467 0)
(1.3497526 0.00010924294 0)
(1.3497866 7.2280705e-05 0)
(1.3498098 4.4820281e-05 0)
(1.3498244 2.5270565e-05 0)
(1.3498332 1.1944861e-05 0)
(1.3498375 3.4662492e-06 0)
(1.3498393 -1.565923e-06 0)
(1.3498389 -4.0637139e-06 0)
(1.3498383 -5.0513269e-06 0)
(1.3498364 -4.9306716e-06 0)
(1.3498355 -4.4423061e-06 0)
(1.3498335 -3.5332297e-06 0)
(1.3498332 -2.8432151e-06 0)
(1.3498313 -1.9185433e-06 0)
(1.3498319 -1.5118552e-06 0)
(1.3498298 -7.521227e-07 0)
(1.3498315 -7.4073363e-07 0)
(1.3498289 -5.7232157e-08 0)
(1.3498317 -4.4723951e-07 0)
(1.349828 3.5169495e-07 0)
(1.3498325 -4.8390881e-07 0)
(1.349827 6.7816487e-07 0)
(1.3498337 -7.6209127e-07 0)
(1.3498255 1.0982425e-06 0)
(1.3498356 -1.2817475e-06 0)
(1.3498234 1.7855239e-06 0)
(1.3498382 -2.1273878e-06 0)
(1.3498204 2.9665735e-06 0)
(1.3498419 -3.4466306e-06 0)
(1.3498163 4.9996131e-06 0)
(1.3498472 -5.367662e-06 0)
(1.349811 8.5004218e-06 0)
(1.3498547 -7.6785957e-06 0)
(1.3498047 1.4614084e-05 0)
(1.3498657 -8.6594218e-06 0)
(1.3497988 2.5940897e-05 0)
(1.3498835 -7.2251421e-07 0)
(1.3497961 5.1083624e-05 0)
(1.3499143 4.7096766e-05 0)
(1.3497955 0.00012624687 0)
(1.3499365 0.00023828781 0)
(0.99995388 0.0035944823 0)
(1.0140006 0.0095669622 0)
(1.0391252 0.012868148 0)
(1.0682249 0.014559238 0)
(1.0987449 0.015147456 0)
(1.1293714 0.014873899 0)
(1.158664 0.014054169 0)
(1.185715 0.012960591 0)
(1.2102173 0.011777795 0)
(1.2321785 0.010624556 0)
(1.2517645 0.0095680894 0)
(1.2692268 0.0086360619 0)
(1.2848435 0.0078305996 0)
(1.2988787 0.0071399347 0)
(1.3115646 0.0065466784 0)
(1.3230952 0.0060328302 0)
(1.3336284 0.0055822391 0)
(1.3432915 0.0051815093 0)
(1.352188 0.004820163 0)
(1.3604029 0.004490479 0)
(1.3680067 0.0041871136 0)
(1.3750572 0.003906517 0)
(1.3816016 0.0036462408 0)
(1.3876793 0.0034043457 0)
(1.3933254 0.0031790778 0)
(1.3985724 0.0029688216 0)
(1.4034511 0.0027721994 0)
(1.4079904 0.0025881493 0)
(1.4122162 0.002415898 0)
(1.4161519 0.0022548463 0)
(1.4198178 0.0021044408 0)
(1.4232327 0.0019640988 0)
(1.4264136 0.001833203 0)
(1.4293768 0.0017111437 0)
(1.4321376 0.0015973706 0)
(1.4347107 0.0014914176 0)
(1.4371097 0.0013928892 0)
(1.4393477 0.001301406 0)
(1.4414369 0.0012165324 0)
(1.4433884 0.0011377002 0)
(1.4452123 0.0010641603 0)
(1.4469172 0.00099497006 0)
(1.44851 0.00092903655 0)
(1.4499959 0.00086520079 0)
(1.4513777 0.00080236286 0)
(1.4526568 0.00073961157 0)
(1.4538331 0.00067634693 0)
(1.4549055 0.00061235864 0)
(1.4558728 0.00054785785 0)
(1.4567345 0.00048344374 0)
(1.4574911 0.00042002491 0)
(1.4581447 0.00035869451 0)
(1.4586992 0.00030059944 0)
(1.4591607 0.00024679939 0)
(1.4595365 0.00019816729 0)
(1.4598357 0.00015529969 0)
(1.4600677 0.00011849931 0)
(1.4602428 8.7754077e-05 0)
(1.4603707 6.2801329e-05 0)
(1.4604609 4.3145179e-05 0)
(1.4605214 2.8171929e-05 0)
(1.4605601 1.7156212e-05 0)
(1.4605825 9.3994236e-06 0)
(1.4605941 4.1815609e-06 0)
(1.4605981 9.1844153e-07 0)
(1.4605982 -9.7048245e-07 0)
(1.4605953 -1.861967e-06 0)
(1.4605922 -2.1709286e-06 0)
(1.460588 -2.0574935e-06 0)
(1.4605853 -1.8178985e-06 0)
(1.4605816 -1.4234906e-06 0)
(1.4605805 -1.13285e-06 0)
(1.4605775 -7.5083845e-07 0)
(1.460578 -5.9088813e-07 0)
(1.4605752 -2.794193e-07 0)
(1.4605773 -2.8902212e-07 0)
(1.4605739 -1.4520077e-09 0)
(1.4605776 -1.84976e-07 0)
(1.4605727 1.6700204e-07 0)
(1.4605788 -2.190146e-07 0)
(1.4605713 3.1406407e-07 0)
(1.4605807 -3.6123637e-07 0)
(1.4605691 5.1863779e-07 0)
(1.4605836 -6.2300159e-07 0)
(1.4605656 8.6411309e-07 0)
(1.4605882 -1.0572717e-06 0)
(1.46056 1.4635025e-06 0)
(1.4605956 -1.7527211e-06 0)
(1.4605512 2.4919919e-06 0)
(1.4606076 -2.7995562e-06 0)
(1.4605375 4.2326156e-06 0)
(1.4606275 -4.1433192e-06 0)
(1.4605168 7.16557e-06 0)
(1.4606618 -5.0350773e-06 0)
(1.4604878 1.2330087e-05 0)
(1.4607243 -1.9102404e-06 0)
(1.4604564 2.3485769e-05 0)
(1.4608501 2.0364242e-05 0)
(1.4604487 5.8262158e-05 0)
(1.4610412 0.00011340289 0)
(0.99995388 -0.0035944824 0)
(1.0140006 -0.0095669612 0)
(1.0391252 -0.012868146 0)
(1.0682249 -0.014559236 0)
(1.0987449 -0.015147455 0)
(1.1293714 -0.0148739 0)
(1.158664 -0.014054171 0)
(1.185715 -0.012960595 0)
(1.2102173 -0.0117778 0)
(1.2321785 -0.010624558 0)
(1.2517645 -0.0095680878 0)
(1.2692268 -0.0086360547 0)
(1.2848435 -0.0078305887 0)
(1.2988787 -0.0071399232 0)
(1.3115646 -0.0065466711 0)
(1.3230952 -0.0060328296 0)
(1.3336284 -0.005582244 0)
(1.3432915 -0.0051815165 0)
(1.352188 -0.0048201678 0)
(1.3604029 -0.0044904789 0)
(1.3680067 -0.004187108 0)
(1.3750572 -0.0039065069 0)
(1.3816016 -0.0036462282 0)
(1.3876793 -0.0034043314 0)
(1.3933254 -0.0031790632 0)
(1.3985724 -0.0029688077 0)
(1.4034511 -0.0027721879 0)
(1.4079904 -0.0025881432 0)
(1.4122162 -0.0024158989 0)
(1.4161519 -0.0022548564 0)
(1.4198178 -0.0021044599 0)
(1.4232327 -0.0019641277 0)
(1.4264136 -0.0018332402 0)
(1.4293768 -0.0017111892 0)
(1.4321376 -0.0015974231 0)
(1.4347107 -0.0014914764 0)
(1.4371097 -0.001392953 0)
(1.4393477 -0.0013014734 0)
(1.4414368 -0.0012166021 0)
(1.4433883 -0.0011377703 0)
(1.4452122 -0.0010642296 0)
(1.4469171 -0.00099503725 0)
(1.44851 -0.00092910121 0)
(1.4499958 -0.00086526254 0)
(1.4513777 -0.00080242212 0)
(1.4526568 -0.00073966826 0)
(1.453833 -0.00067640155 0)
(1.4549054 -0.00061241054 0)
(1.4558727 -0.00054790736 0)
(1.4567344 -0.00048348936 0)
(1.457491 -0.00042006705 0)
(1.4581446 -0.00035873123 0)
(1.4586992 -0.00030063178 0)
(1.4591606 -0.00024682567 0)
(1.4595365 -0.00019818963 0)
(1.4598356 -0.00015531708 0)
(1.4600677 -0.00011851474 0)
(1.4602428 -8.7766866e-05 0)
(1.4603707 -6.2814718e-05 0)
(1.4604608 -4.3158307e-05 0)
(1.4605214 -2.8187655e-05 0)
(1.46056 -1.7172913e-05 0)
(1.4605824 -9.4192949e-06 0)
(1.4605941 -4.2021674e-06 0)
(1.4605981 -9.4148368e-07 0)
(1.4605982 9.4806977e-07 0)
(1.4605953 1.8385752e-06 0)
(1.4605922 2.1497791e-06 0)
(1.4605879 2.0367015e-06 0)
(1.4605853 1.8005977e-06 0)
(1.4605816 1.4073304e-06 0)
(1.4605804 1.1206452e-06 0)
(1.4605775 7.3979842e-07 0)
(1.460578 5.8361056e-07 0)
(1.4605752 2.7281942e-07 0)
(1.4605772 2.8547596e-07 0)
(1.4605739 -2.2384446e-09 0)
(1.4605776 1.8350746e-07 0)
(1.4605727 -1.6938651e-07 0)
(1.4605787 2.1808502e-07 0)
(1.4605713 -3.1648679e-07 0)
(1.4605806 3.5997306e-07 0)
(1.4605691 -5.2136938e-07 0)
(1.4605836 6.2179849e-07 0)
(1.4605656 -8.6623017e-07 0)
(1.4605882 1.0573876e-06 0)
(1.46056 -1.4639231e-06 0)
(1.4605956 1.754363e-06 0)
(1.4605512 -2.4914811e-06 0)
(1.4606076 2.8006806e-06 0)
(1.4605375 -4.23395e-06 0)
(1.4606275 4.141023e-06 0)
(1.4605168 -7.1712647e-06 0)
(1.4606618 5.0290802e-06 0)
(1.4604878 -1.2337815e-05 0)
(1.4607243 1.9047841e-06 0)
(1.4604564 -2.3489197e-05 0)
(1.4608501 -2.0364901e-05 0)
(1.4604487 -5.8261339e-05 0)
(1.4610412 -0.00011340251 0)
(0.99973847 -0.01235542 0)
(1.0184395 -0.03025194 0)
(1.0484404 -0.039612049 0)
(1.0802132 -0.044574128 0)
(1.1117125 -0.046231245 0)
(1.1417317 -0.045187312 0)
(1.1688992 -0.042438563 0)
(1.1926147 -0.03884184 0)
(1.2129156 -0.034971866 0)
(1.230101 -0.031197144 0)
(1.2445726 -0.027728525 0)
(1.256761 -0.024657715 0)
(1.2670713 -0.021999676 0)
(1.2758542 -0.019725618 0)
(1.2833988 -0.017786672 0)
(1.289936 -0.016128824 0)
(1.2956477 -0.014700979 0)
(1.300676 -0.013458641 0)
(1.3051335 -0.012365229 0)
(1.3091097 -0.011392175 0)
(1.3126765 -0.01051819 0)
(1.315891 -0.0097277927 0)
(1.3187983 -0.0090094525 0)
(1.3214347 -0.0083539336 0)
(1.3238306 -0.007753314 0)
(1.3260128 -0.0072007319 0)
(1.3280053 -0.0066905186 0)
(1.3298295 -0.0062182863 0)
(1.3315037 -0.0057807551 0)
(1.3330433 -0.0053753671 0)
(1.3344612 -0.004999887 0)
(1.3357684 -0.0046521524 0)
(1.3369745 -0.0043300233 0)
(1.3380884 -0.0040314668 0)
(1.3391182 -0.0037546763 0)
(1.3400712 -0.0034981352 0)
(1.3409541 -0.0032605877 0)
(1.3417731 -0.003040916 0)
(1.3425336 -0.0028379629 0)
(1.3432407 -0.0026503441 0)
(1.3438993 -0.0024763064 0)
(1.3445136 -0.0023136705 0)
(1.3450872 -0.0021598882 0)
(1.3456234 -0.0020122095 0)
(1.3461245 -0.0018679424 0)
(1.3465921 -0.0017247506 0)
(1.3470271 -0.0015809438 0)
(1.3474295 -0.0014356892 0)
(1.3477991 -0.0012891212 0)
(1.3481351 -0.0011423058 0)
(1.348437 -0.00099709514 0)
(1.3487045 -0.0008558621 0)
(1.3489375 -0.0007212096 0)
(1.3491371 -0.00059563575 0)
(1.3493046 -0.00048128936 0)
(1.3494422 -0.00037973143 0)
(1.3495525 -0.00029187135 0)
(1.3496387 -0.00021788486 0)
(1.3497042 -0.00015734879 0)
(1.3497525 -0.00010925797 0)
(1.3497865 -7.2296224e-05 0)
(1.3498097 -4.4838245e-05 0)
(1.3498243 -2.5289739e-05 0)
(1.3498332 -1.1966581e-05 0)
(1.3498374 -3.4884939e-06 0)
(1.3498392 1.5422097e-06 0)
(1.3498389 4.0409227e-06 0)
(1.3498382 5.028508e-06 0)
(1.3498364 4.9102277e-06 0)
(1.3498354 4.4229992e-06 0)
(1.3498334 3.5171716e-06 0)
(1.3498331 2.8287582e-06 0)
(1.3498312 1.9075024e-06 0)
(1.3498318 1.5022611e-06 0)
(1.3498298 7.4550886e-07 0)
(1.3498315 7.3493218e-07 0)
(1.3498288 5.3667152e-08 0)
(1.3498317 4.4372746e-07 0)
(1.349828 -3.5377677e-07 0)
(1.3498325 4.8117706e-07 0)
(1.349827 -6.8003901e-07 0)
(1.3498337 7.5927523e-07 0)
(1.3498255 -1.1002523e-06 0)
(1.3498356 1.2791081e-06 0)
(1.3498234 -1.7868007e-06 0)
(1.3498382 2.1261987e-06 0)
(1.3498204 -2.9660172e-06 0)
(1.3498419 3.447407e-06 0)
(1.3498163 -4.9978468e-06 0)
(1.3498472 5.3685264e-06 0)
(1.349811 -8.5007344e-06 0)
(1.3498547 7.675267e-06 0)
(1.3498047 -1.4619925e-05 0)
(1.3498657 8.6508053e-06 0)
(1.3497987 -2.5949647e-05 0)
(1.3498835 7.1511453e-07 0)
(1.349796 -5.1087714e-05 0)
(1.3499143 -4.7097769e-05 0)
(1.3497955 -0.00012624642 0)
(1.3499365 -0.00023828746 0)
(1.0001503 -0.028832874 0)
(1.0314833 -0.059420851 0)
(1.0675718 -0.071130967 0)
(1.0976325 -0.075530465 0)
(1.122939 -0.074771643 0)
(1.1433305 -0.070076813 0)
(1.1583159 -0.063250547 0)
(1.1684315 -0.055736669 0)
(1.1746341 -0.048415345 0)
(1.1778353 -0.041758156 0)
(1.1788248 -0.035964088 0)
(1.1782595 -0.031054824 0)
(1.1766544 -0.026957718 0)
(1.1743939 -0.023560337 0)
(1.1717533 -0.020743332 0)
(1.1689236 -0.018396827 0)
(1.1660328 -0.016426756 0)
(1.1631643 -0.014755994 0)
(1.1603709 -0.013323269 0)
(1.1576851 -0.012081314 0)
(1.1551253 -0.01099463 0)
(1.1527001 -0.010036799 0)
(1.1504115 -0.0091876488 0)
(1.148257 -0.0084308764 0)
(1.1462321 -0.0077526551 0)
(1.1443321 -0.0071412222 0)
(1.1425518 -0.0065869565 0)
(1.1408862 -0.0060823898 0)
(1.1393299 -0.0056218886 0)
(1.1378766 -0.0052010633 0)
(1.1365202 -0.0048161939 0)
(1.1352544 -0.0044638472 0)
(1.1340731 -0.0041407756 0)
(1.1329707 -0.0038439822 0)
(1.1319422 -0.0035708561 0)
(1.1309825 -0.0033192456 0)
(1.130087 -0.0030874451 0)
(1.129251 -0.0028740753 0)
(1.1284701 -0.0026779033 0)
(1.1277402 -0.0024976338 0)
(1.1270578 -0.0023317266 0)
(1.1264201 -0.0021782759 0)
(1.1258252 -0.0020349911 0)
(1.125272 -0.0018992834 0)
(1.1247603 -0.0017684611 0)
(1.1242908 -0.001639989 0)
(1.1238642 -0.001511777 0)
(1.1234815 -0.0013824297 0)
(1.1231432 -0.0012514197 0)
(1.1228492 -0.0011191401 0)
(1.1225988 -0.00098683724 0)
(1.12239 -0.00085642499 0)
(1.1222201 -0.00073022751 0)
(1.1220853 -0.00061067379 0)
(1.1219816 -0.00050002476 0)
(1.1219045 -0.00040011403 0)
(1.1218493 -0.00031221992 0)
(1.1218116 -0.00023694256 0)
(1.1217875 -0.00017427892 0)
(1.1217733 -0.00012360774 0)
(1.1217661 -8.3931187e-05 0)
(1.1217637 -5.3862663e-05 0)
(1.121764 -3.1972577e-05 0)
(1.1217659 -1.6661804e-05 0)
(1.1217683 -6.5892368e-06 0)
(1.1217711 -3.3554893e-07 0)
(1.1217732 3.0410944e-06 0)
(1.1217754 4.6337079e-06 0)
(1.1217766 4.8855274e-06 0)
(1.121778 4.6174702e-06 0)
(1.1217783 3.7972822e-06 0)
(1.1217793 3.1407869e-06 0)
(1.1217789 2.1834887e-06 0)
(1.1217799 1.7479186e-06 0)
(1.1217789 9.253423e-07 0)
(1.1217802 8.7998493e-07 0)
(1.1217786 1.4569534e-07 0)
(1.1217805 5.0709706e-07 0)
(1.1217781 -3.0820768e-07 0)
(1.1217809 4.8181928e-07 0)
(1.1217775 -6.3118984e-07 0)
(1.1217815 6.8971971e-07 0)
(1.1217767 -9.863437e-07 0)
(1.1217823 1.0863761e-06 0)
(1.1217758 -1.5106641e-06 0)
(1.1217833 1.6835728e-06 0)
(1.1217748 -2.3553687e-06 0)
(1.1217841 2.503348e-06 0)
(1.1217742 -3.7505294e-06 0)
(1.1217841 3.4638292e-06 0)
(1.1217749 -6.1326929e-06 0)
(1.1217817 4.0516183e-06 0)
(1.1217789 -1.0472384e-05 0)
(1.1217731 2.3615572e-06 0)
(1.1217893 -1.9266541e-05 0)
(1.1217499 -7.8115509e-06 0)
(1.121807 -3.9862737e-05 0)
(1.1216865 -4.6279821e-05 0)
(1.1218131 -9.5396838e-05 0)
(1.1215377 -0.00016889509 0)
(1.003271 -0.054817095 0)
(1.0472129 -0.10100035 0)
(1.066112 -0.11153423 0)
(1.0625934 -0.10907373 0)
(1.0508094 -0.099917526 0)
(1.0345 -0.0870346 0)
(1.014893 -0.072925798 0)
(0.99382461 -0.059367066 0)
(0.97290663 -0.04736089 0)
(0.9531134 -0.037329029 0)
(0.93493754 -0.029286297 0)
(0.91857688 -0.023049375 0)
(0.90402638 -0.018325033 0)
(0.89116454 -0.014796846 0)
(0.87981444 -0.01217659 0)
(0.86978485 -0.010225099 0)
(0.86089304 -0.0087555609 0)
(0.85297537 -0.0076282912 0)
(0.84589104 -0.0067424369 0)
(0.83952184 -0.0060274968 0)
(0.83376962 -0.0054356554 0)
(0.82855309 -0.0049350762 0)
(0.82380462 -0.0045043226 0)
(0.81946781 -0.0041282414 0)
(0.81549553 -0.0037954913 0)
(0.81184837 -0.0034974309 0)
(0.80849308 -0.0032277219 0)
(0.80540128 -0.0029820319 0)
(0.80254826 -0.0027575402 0)
(0.79991219 -0.00255231 0)
(0.79747366 -0.002364732 0)
(0.79521542 -0.0021932074 0)
(0.79312214 -0.0020360802 0)
(0.79118019 -0.0018917342 0)
(0.78937742 -0.0017587313 0)
(0.78770281 -0.0016359097 0)
(0.78614622 -0.0015224107 0)
(0.78469819 -0.001417634 0)
(0.78334982 -0.00132115 0)
(0.78209282 -0.00123258 0)
(0.78091958 -0.0011514797 0)
(0.77982339 -0.0010772295 0)
(0.7787987 -0.0010089735 0)
(0.77784131 -0.0009455981 0)
(0.77694847 -0.00088578948 0)
(0.77611884 -0.00082813077 0)
(0.77535233 -0.00077126014 0)
(0.77464973 -0.00071402273 0)
(0.77401222 -0.0006556275 0)
(0.77344092 -0.00059573621 0)
(0.77293631 -0.00053451416 0)
(0.77249791 -0.00047258275 0)
(0.77212396 -0.00041094254 0)
(0.77181139 -0.00035081243 0)
(0.77155582 -0.00029349702 0)
(0.77135186 -0.00024019887 0)
(0.77119332 -0.00019193334 0)
(0.7710737 -0.00014938753 0)
(0.77098636 -0.00011294802 0)
(0.77092511 -8.2618138e-05 0)
(0.77088408 -5.8166083e-05 0)
(0.77085837 -3.9052215e-05 0)
(0.77084358 -2.4674409e-05 0)
(0.77083647 -1.4231262e-05 0)
(0.77083413 -7.052915e-06 0)
(0.77083487 -2.3262842e-06 0)
(0.77083695 4.6132198e-07 0)
(0.77083985 2.0052621e-06 0)
(0.77084248 2.551179e-06 0)
(0.77084516 2.6722138e-06 0)
(0.77084697 2.3208826e-06 0)
(0.77084885 2.0293284e-06 0)
(0.77084964 1.4578055e-06 0)
(0.77085089 1.2236035e-06 0)
(0.77085086 6.735729e-07 0)
(0.77085185 6.615315e-07 0)
(0.7708512 1.4422187e-07 0)
(0.77085228 3.9266783e-07 0)
(0.77085109 -1.7944395e-07 0)
(0.77085254 3.4792806e-07 0)
(0.77085077 -4.0226643e-07 0)
(0.77085283 4.5200894e-07 0)
(0.77085035 -6.1721136e-07 0)
(0.77085318 6.559192e-07 0)
(0.77084988 -8.9156882e-07 0)
(0.77085352 9.242497e-07 0)
(0.77084946 -1.2752434e-06 0)
(0.77085358 1.1875602e-06 0)
(0.77084935 -1.8183439e-06 0)
(0.77085265 1.2284084e-06 0)
(0.77085012 -2.6133963e-06 0)
(0.77084903 4.1334303e-07 0)
(0.77085281 -3.9116696e-06 0)
(0.77083877 -2.8919558e-06 0)
(0.77085863 -6.3887686e-06 0)
(0.77081187 -1.2033518e-05 0)
(0.77086609 -1.0732482e-05 0)
(0.77074095 -2.8112282e-05 0)
(0.77086578 -9.8461338e-06 0)
(0.77059585 -1.6351843e-05 0)
(0.92241905 -0.034487138 0)
(0.87132478 -0.058494328 0)
(0.78815633 -0.05621487 0)
(0.69388547 -0.045746924 0)
(0.61395329 -0.034511059 0)
(0.55015832 -0.024456413 0)
(0.4994011 -0.016279989 0)
(0.45984776 -0.010228174 0)
(0.42978246 -0.0061010159 0)
(0.40723185 -0.0034637405 0)
(0.39031219 -0.0018584567 0)
(0.37749604 -0.0009532564 0)
(0.36763748 -0.00049206339 0)
(0.35987518 -0.00029069618 0)
(0.35358841 -0.00022889347 0)
(0.34834736 -0.00023358716 0)
(0.34386127 -0.000263072 0)
(0.33993579 -0.00029539252 0)
(0.33644154 -0.00032058946 0)
(0.33329204 -0.00033570663 0)
(0.33042841 -0.00034149366 0)
(0.32780925 -0.00034013205 0)
(0.3254041 -0.000333779 0)
(0.32318944 -0.00032390362 0)
(0.32114629 -0.00031132038 0)
(0.31925881 -0.00029657233 0)
(0.31751337 -0.00028028313 0)
(0.31589796 -0.00026325739 0)
(0.31440175 -0.00024633678 0)
(0.31301487 -0.00023019005 0)
(0.31172831 -0.00021517649 0)
(0.31053387 -0.0002013562 0)
(0.3094242 -0.00018859128 0)
(0.3083927 -0.00017667833 0)
(0.30743345 -0.00016543865 0)
(0.30654108 -0.00015476291 0)
(0.30571065 -0.00014461026 0)
(0.30493751 -0.00013499292 0)
(0.30421719 -0.00012595743 0)
(0.30354539 -0.00011756912 0)
(0.30291795 -0.00010989997 0)
(0.30233095 -0.00010301224 0)
(0.30178083 -9.694141e-05 0)
(0.30126456 -9.1677159e-05 0)
(0.30077978 -8.714944e-05 0)
(0.30032492 -8.3223579e-05 0)
(0.29989925 -7.9708326e-05 0)
(0.29950279 -7.6373738e-05 0)
(0.29913617 -7.2983394e-05 0)
(0.29880037 -6.9320117e-05 0)
(0.29849646 -6.5224849e-05 0)
(0.2982253 -6.0604738e-05 0)
(0.29798725 -5.5459711e-05 0)
(0.29778204 -4.9858301e-05 0)
(0.29760866 -4.3948529e-05 0)
(0.29746533 -3.7906391e-05 0)
(0.29734963 -3.1943854e-05 0)
(0.29725864 -2.6245349e-05 0)
(0.29718908 -2.0991115e-05 0)
(0.29713763 -1.6292755e-05 0)
(0.29710093 -1.22446e-05 0)
(0.29707593 -8.8559405e-06 0)
(0.29705982 -6.1362958e-06 0)
(0.29705029 -4.0097426e-06 0)
(0.29704532 -2.4388581e-06 0)
(0.29704344 -1.2988012e-06 0)
(0.29704338 -5.517663e-07 0)
(0.29704443 -5.3755964e-08 0)
(0.29704585 1.961905e-07 0)
(0.29704747 3.5133364e-07 0)
(0.29704884 3.5179385e-07 0)
(0.29705014 3.7093728e-07 0)
(0.297051 2.7050067e-07 0)
(0.29705185 2.7180767e-07 0)
(0.2970522 1.3737163e-07 0)
(0.29705273 1.7797134e-07 0)
(0.29705271 2.3046577e-08 0)
(0.29705312 1.2892167e-07 0)
(0.29705283 -6.2164643e-08 0)
(0.29705328 1.262614e-07 0)
(0.29705277 -1.3132135e-07 0)
(0.29705337 1.6043128e-07 0)
(0.29705263 -2.0130077e-07 0)
(0.29705345 2.2134246e-07 0)
(0.29705245 -2.8465956e-07 0)
(0.29705352 2.9571069e-07 0)
(0.29705225 -3.8626224e-07 0)
(0.29705347 3.522698e-07 0)
(0.29705203 -5.00946e-07 0)
(0.297053 3.0340928e-07 0)
(0.29705177 -6.1131251e-07 0)
(0.29705135 -7.4177314e-08 0)
(0.29705133 -6.6703195e-07 0)
(0.29704668 -1.2574698e-06 0)
(0.29704995 -4.0255437e-07 0)
(0.29703519 -3.6900652e-06 0)
(0.29704643 2.4888617e-06 0)
(0.29701652 -2.7600372e-06 0)
(0.29704894 2.4544789e-05 0)
(0.29705573 2.9830779e-05 0)
)
;

boundaryField
{
    top
    {
        type            fixedValue;
        value           uniform (0 0 0);
    }
    inlet
    {
        type            fixedValue;
        value           uniform (1 0 0);
    }
    outlet
    {
        type            zeroGradient;
    }
    bottom
    {
        type            fixedValue;
        value           uniform (0 0 0);
    }
    back
    {
        type            empty;
    }
    front
    {
        type            empty;
    }
}


// ************************************************************************* //
