/*--------------------------------*- C++ -*----------------------------------*\
| =========                 |                                                 |
| \\      /  F ield         | OpenFOAM: The Open Source CFD Toolbox           |
|  \\    /   O peration     | Version:  v1812                                 |
|   \\  /    A nd           | Web:      www.OpenFOAM.com                      |
|    \\/     M anipulation  |                                                 |
\*---------------------------------------------------------------------------*/
FoamFile
{
    version     2.0;
    format      ascii;
    class       surfaceScalarField;
    location    "11";
    object      phi;
}
// * * * * * * * * * * * * * * * * * * * * * * * * * * * * * * * * * * * * * //

dimensions      [0 3 -1 0 0 0 0];
oriented        oriented;


internalField   nonuniform List<scalar> 
1890
(
0.0028185326
3.0082421e-06
0.0028086674
9.8656678e-06
0.0027968574
1.1809719e-05
0.0027864633
1.0393395e-05
0.0027783637
8.0988964e-06
0.0027720797
6.2833267e-06
0.002766964
5.1151289e-06
0.0027626298
4.3337197e-06
0.002758907
3.7224125e-06
0.0027557051
3.2016074e-06
0.0027529406
2.7641724e-06
0.0027505299
2.4105213e-06
0.0027484016
2.1281645e-06
0.0027465034
1.898044e-06
0.0027447993
1.7040269e-06
0.0027432631
1.536134e-06
0.0027418741
1.3889435e-06
0.002740615
1.2590726e-06
0.0027394712
1.1438087e-06
0.0027384304
1.0407989e-06
0.0027374823
9.4813446e-07
0.002736618
8.6434997e-07
0.0027358297
7.8833033e-07
0.0027351106
7.191771e-07
0.0027344545
6.5613897e-07
0.0027338559
5.9856629e-07
0.0027333101
5.4590451e-07
0.0027328125
4.9767213e-07
0.0027323591
4.5345604e-07
0.0027319462
4.1289071e-07
0.0027315706
3.7565698e-07
0.0027312292
3.4146739e-07
0.0027309192
3.1006854e-07
0.0027306381
2.8122954e-07
0.0027303834
2.5474531e-07
0.002730153
2.3042684e-07
0.002729945
2.0810502e-07
0.0027297574
1.876226e-07
0.0027295886
1.6883806e-07
0.0027294371
1.5161904e-07
0.0027293013
1.3584612e-07
0.00272918
1.2140736e-07
0.0027290718
1.0820187e-07
0.0027289757
9.6135334e-08
0.0027288907
8.5123201e-08
0.0027288156
7.5086939e-08
0.0027287497
6.5956636e-08
0.0027286921
5.7667842e-08
0.002728642
5.0163357e-08
0.0027285987
4.3390452e-08
0.0027285614
3.7301813e-08
0.0027285296
3.1853251e-08
0.0027285026
2.7003868e-08
0.00272848
2.2714346e-08
0.0027284611
1.8946647e-08
0.0027284454
1.5663205e-08
0.0027284327
1.2826346e-08
0.0027284223
1.0398482e-08
0.002728414
8.3414404e-09
0.0027284074
6.6176667e-09
0.0027284022
5.1893837e-09
0.0027283982
4.0205225e-09
0.0027283952
3.0756265e-09
0.0027283929
2.3221975e-09
0.0027283912
1.7291828e-09
0.0027283899
1.2694821e-09
0.002728389
9.1794494e-10
0.0027283883
6.5363962e-10
0.0027283879
4.5764253e-10
0.0027283876
3.1509843e-10
0.0027283874
2.1280789e-10
0.0027283872
1.4113702e-10
0.0027283872
9.1517431e-11
0.0027283871
5.8252698e-11
0.0027283871
3.6110488e-11
0.002728387
2.2102749e-11
0.002728387
1.3194534e-11
0.002728387
8.0451243e-12
0.002728387
4.910538e-12
0.002728387
3.4132668e-12
0.002728387
2.4975109e-12
0.002728387
2.2886027e-12
0.002728387
2.0318632e-12
0.002728387
2.1234394e-12
0.002728387
1.9709788e-12
0.002728387
2.0149064e-12
0.002728387
1.8128114e-12
0.002728387
1.7021464e-12
0.002728387
1.5141593e-12
0.002728387
1.2864288e-12
0.002728387
1.2611242e-12
0.002728387
1.0667942e-12
0.002728387
1.5529373e-12
0.002728387
1.9336439e-12
0.002728387
4.0126129e-12
0.002728387
6.6616698e-12
0.002728387
1.2947279e-11
0.0027283869
2.1520662e-11
0.0027283869
4.0169068e-11
5.8910985e-11
0.006882751
3.2507239e-06
0.0068789638
1.3653643e-05
0.0068720402
1.8733179e-05
0.0068640166
1.8416322e-05
0.006856236
1.5878844e-05
0.0068490438
1.3474952e-05
0.0068423971
1.1761375e-05
0.0068362469
1.0483547e-05
0.0068306058
9.3632038e-06
0.0068254911
8.3159116e-06
0.0068208851
7.3699716e-06
0.0068167404
6.5550283e-06
0.0068130023
5.8661328e-06
0.006809622
5.2782687e-06
0.0068065591
4.7667612e-06
0.0068037799
4.3153259e-06
0.0068012544
3.9143363e-06
0.0067989565
3.5570095e-06
0.0067968629
3.2373808e-06
0.0067949536
2.9500714e-06
0.0067932112
2.6905503e-06
0.0067916204
2.4552099e-06
0.0067901675
2.2411737e-06
0.0067888406
2.046078e-06
0.0067876289
1.8679085e-06
0.0067865226
1.7049338e-06
0.0067855128
1.555654e-06
0.0067845918
1.4187743e-06
0.0067837521
1.2931619e-06
0.0067829872
1.1778237e-06
0.0067822911
1.0718753e-06
0.006781658
9.7453014e-07
0.0067810831
8.8507948e-07
0.0067805615
8.0288741e-07
0.0067800889
7.2737534e-07
0.0067796613
6.5801967e-07
0.0067792751
5.9434001e-07
0.0067789269
5.3589878e-07
0.0067786135
4.8229215e-07
0.006778332
4.3315058e-07
0.0067780798
3.8813202e-07
0.0067778543
3.4692309e-07
0.0067776533
3.0923398e-07
0.0067774747
2.7479972e-07
0.0067773165
2.4337649e-07
0.0067771769
2.1474263e-07
0.0067770542
1.8869564e-07
0.0067769469
1.6505245e-07
0.0067768534
1.436466e-07
0.0067767725
1.243274e-07
0.0067767029
1.069571e-07
0.0067766434
9.1408919e-08
0.0067765929
7.7564483e-08
0.0067765503
6.5311141e-08
0.0067765147
5.4540248e-08
0.0067764853
4.5144604e-08
0.0067764611
3.7018078e-08
0.0067764415
3.0053746e-08
0.0067764257
2.4145161e-08
0.0067764132
1.918538e-08
0.0067764034
1.5069536e-08
0.0067763957
1.1694415e-08
0.0067763898
8.961731e-09
0.0067763854
6.7777277e-09
0.0067763821
5.0563612e-09
0.0067763796
3.7183955e-09
0.0067763779
2.6940383e-09
0.0067763766
1.9213214e-09
0.0067763757
1.347993e-09
0.0067763751
9.2922328e-10
0.0067763747
6.2893749e-10
0.0067763744
4.171712e-10
0.0067763743
2.7103745e-10
0.0067763742
1.7194547e-10
0.0067763741
1.0656388e-10
0.0067763741
6.4218698e-11
0.006776374
3.7869472e-11
0.006776374
2.1759895e-11
0.006776374
1.2576997e-11
0.006776374
7.3700713e-12
0.006776374
4.9318152e-12
0.006776374
3.658966e-12
0.006776374
3.4109591e-12
0.006776374
3.1862217e-12
0.006776374
3.4421006e-12
0.006776374
3.2686283e-12
0.006776374
3.5056889e-12
0.006776374
3.0874689e-12
0.006776374
3.3473026e-12
0.006776374
2.744944e-12
0.006776374
3.2685167e-12
0.006776374
2.7780013e-12
0.006776374
4.1756679e-12
0.006776374
4.9226026e-12
0.006776374
8.7512017e-12
0.006776374
1.3319137e-11
0.006776374
2.2573937e-11
0.0067763739
3.6280483e-11
0.0067763739
5.4171867e-11
7.6089961e-11
0.0096348741
2.3098483e-06
0.0096372812
1.1247017e-05
0.0096392845
1.6729564e-05
0.0096401822
1.7517877e-05
0.0096402433
1.5817099e-05
0.0096397576
1.3960295e-05
0.0096388756
1.2642932e-05
0.0096376929
1.166592e-05
0.0096363097
1.0746128e-05
0.0096348202
9.8050532e-06
0.0096332945
8.8955663e-06
0.0096317763
8.0730463e-06
0.0096302925
7.3497348e-06
0.009628861
6.709759e-06
0.0096274936
6.1340507e-06
0.0096261979
5.6109361e-06
0.0096249775
5.1346501e-06
0.0096238333
4.7011965e-06
0.0096227643
4.3063911e-06
0.0096217684
3.9459245e-06
0.009620843
3.6159416e-06
0.009619985
3.3132622e-06
0.0096191909
3.0352769e-06
0.0096184572
2.7797458e-06
0.0096177805
2.5446865e-06
0.0096171571
2.3283211e-06
0.0096165837
2.1290662e-06
0.009616057
1.9455069e-06
0.0096155738
1.7763791e-06
0.0096151311
1.6205394e-06
0.0096147261
1.4769536e-06
0.009614356
1.3446766e-06
0.0096140182
1.2228479e-06
0.0096137105
1.1106772e-06
0.0096134304
1.0074407e-06
0.009613176
9.1247016e-07
0.0096129453
8.2515104e-07
0.0096127363
7.4491336e-07
0.0096125474
6.7123158e-07
0.009612377
6.0361699e-07
0.0096122235
5.416185e-07
0.0096120856
4.8481672e-07
0.0096119621
4.3282505e-07
0.0096118516
3.852851e-07
0.0096117532
3.4186802e-07
0.0096116657
3.022708e-07
0.0096115882
2.6621724e-07
0.0096115198
2.3345452e-07
0.0096114598
2.0375339e-07
0.0096114072
1.7690452e-07
0.0096113615
1.5271749e-07
0.0096113219
1.3101684e-07
0.0096112879
1.1164005e-07
0.0096112588
9.4433774e-08
0.0096112341
7.9251312e-08
0.0096112133
6.5949848e-08
0.009611196
5.4388424e-08
0.0096111816
4.442683e-08
0.0096111699
3.5924618e-08
0.0096111604
2.8741922e-08
0.0096111527
2.2739591e-08
0.0096111466
1.7781516e-08
0.0096111419
1.3735327e-08
0.0096111382
1.0475389e-08
0.0096111354
7.883358e-09
0.0096111333
5.8509744e-09
0.0096111317
4.279876e-09
0.0096111305
3.0836042e-09
0.0096111297
2.1864606e-09
0.0096111291
1.5246449e-09
0.0096111287
1.0443106e-09
0.0096111284
7.0202131e-10
0.0096111282
4.6235741e-10
0.0096111281
2.9805783e-10
0.009611128
1.8759556e-10
0.009611128
1.1524504e-10
0.009611128
6.8896936e-11
0.009611128
4.0244037e-11
0.0096111279
2.3005298e-11
0.0096111279
1.3224759e-11
0.0096111279
7.8490819e-12
0.0096111279
5.2386761e-12
0.0096111279
4.0379717e-12
0.0096111279
3.6386238e-12
0.0096111279
3.5878566e-12
0.0096111279
3.5497932e-12
0.0096111279
3.6722513e-12
0.0096111279
3.4633478e-12
0.0096111279
3.6483058e-12
0.0096111279
3.2628286e-12
0.0096111279
3.7232553e-12
0.0096111279
3.609846e-12
0.0096111279
4.9251469e-12
0.0096111279
6.4144948e-12
0.0096111279
9.6764238e-12
0.0096111279
1.4746575e-11
0.0096111279
2.1494925e-11
0.0096111279
3.3406936e-11
0.0096111279
4.3526207e-11
5.9306691e-11
0.011321281
1.1542712e-06
0.011326443
6.0845124e-06
0.011333722
9.4500613e-06
0.011341007
1.0232922e-05
0.011347381
9.4418665e-06
0.011352875
8.4663499e-06
0.011357723
7.7945283e-06
0.011362066
7.3220559e-06
0.011365948
6.8636721e-06
0.011369391
6.3624229e-06
0.011372432
5.8546751e-06
0.011375122
5.3821167e-06
0.011377514
4.9577552e-06
0.011379649
4.574545e-06
0.011381561
4.2223305e-06
0.011383276
3.8955487e-06
0.011384819
3.5923334e-06
0.011386208
3.3117003e-06
0.011387462
3.0521857e-06
0.011388596
2.8119796e-06
0.011389623
2.5893513e-06
0.011390553
2.3828782e-06
0.011391397
2.1913714e-06
0.011392163
2.0137934e-06
0.011392858
1.8491697e-06
0.01139349
1.6966015e-06
0.011394064
1.5552441e-06
0.011394585
1.4243302e-06
0.011395058
1.3031391e-06
0.011395488
1.1910115e-06
0.011395878
1.087322e-06
0.011396231
9.9149625e-07
0.011396551
9.0298808e-07
0.01139684
8.2129606e-07
0.011397102
7.4594264e-07
0.011397338
6.7648947e-07
0.01139755
6.1251856e-07
0.011397742
5.5364629e-07
0.011397914
4.9950679e-07
0.011398067
4.4976443e-07
0.011398205
4.0409971e-07
0.011398328
3.6222018e-07
0.011398437
3.2384814e-07
0.011398533
2.8873048e-07
0.011398618
2.5662823e-07
0.011398693
2.2732483e-07
0.011398759
2.0061737e-07
0.011398816
1.7632316e-07
0.011398866
1.542723e-07
0.011398908
1.3431215e-07
0.011398945
1.1630093e-07
0.011398976
1.0011027e-07
0.011399002
8.5619812e-08
0.011399024
7.2717851e-08
0.011399042
6.1297351e-08
0.011399056
5.1255425e-08
0.011399068
4.2491152e-08
0.011399078
3.490445e-08
0.011399085
2.8396045e-08
0.011399091
2.2866231e-08
0.011399096
1.8216941e-08
0.011399099
1.4350399e-08
0.011399102
1.1172741e-08
0.011399104
8.5923486e-09
0.011399105
6.5243185e-09
0.011399106
4.8881139e-09
0.011399107
3.6121325e-09
0.011399107
2.6304512e-09
0.011399107
1.8871433e-09
0.011399108
1.3321562e-09
0.011399108
9.2519209e-10
0.011399108
6.3093333e-10
0.011399108
4.2266845e-10
0.011399108
2.7722041e-10
0.011399108
1.7841737e-10
0.011399108
1.1198059e-10
0.011399108
6.9080687e-11
0.011399108
4.1397503e-11
0.011399108
2.4796385e-11
0.011399108
1.4467621e-11
0.011399108
9.0537184e-12
0.011399108
5.6417173e-12
0.011399108
4.429305e-12
0.011399108
3.3485432e-12
0.011399108
3.4071375e-12
0.011399108
2.8516686e-12
0.011399108
3.2089966e-12
0.011399108
2.6238788e-12
0.011399108
3.056328e-12
0.011399108
2.425704e-12
0.011399108
3.0331619e-12
0.011399108
2.8384181e-12
0.011399108
3.9433538e-12
0.011399108
4.9921213e-12
0.011399108
7.0994989e-12
0.011399108
9.8038492e-12
0.011399108
1.3065723e-11
0.011399108
1.8450688e-11
0.011399108
1.9890107e-11
2.6355953e-11
0.012118865
2.5986952e-11
0.012124949
9.22384e-11
0.012134399
5.8854266e-11
0.012144631
2.8241204e-11
0.012154072
6.2309182e-11
0.012162538
1.2529075e-10
0.012170332
1.6709623e-10
0.012177653
1.6721737e-10
0.012184517
1.5191077e-10
0.012190879
1.3380857e-10
0.012196733
1.1500981e-10
0.012202115
8.6794664e-11
0.012207072
5.3903948e-11
0.012211647
1.6823856e-11
0.012215869
-2.062791e-11
0.012219765
-5.7769031e-11
0.012223357
-9.100456e-11
0.012226669
-1.2431661e-10
0.012229721
-1.519033e-10
0.012232533
-1.7733085e-10
0.012235123
-1.952597e-10
0.012237506
-2.1018769e-10
0.012239697
-2.1745764e-10
0.012241711
-2.2163123e-10
0.012243561
-2.1866497e-10
0.012245258
-2.1339651e-10
0.012246813
-2.0223634e-10
0.012248238
-1.8966902e-10
0.012249541
-1.7259732e-10
0.012250732
-1.5543198e-10
0.01225182
-1.3534509e-10
0.012252811
-1.1616612e-10
0.012253714
-9.5379852e-11
0.012254536
-7.6524055e-11
0.012255282
-5.7287658e-11
0.012255958
-4.0496022e-11
0.012256571
-2.4205491e-11
0.012257125
-1.0755252e-11
0.012257624
2.14151e-12
0.012258074
1.2139561e-11
0.012258478
2.1338891e-11
0.01225884
2.8122168e-11
0.012259164
3.4381783e-11
0.012259453
3.892648e-11
0.01225971
4.3442831e-11
0.012259937
4.6930155e-11
0.012260138
5.0765809e-11
0.012260314
5.4209514e-11
0.012260468
5.8249065e-11
0.012260602
6.2223629e-11
0.012260719
6.668819e-11
0.012260819
7.1127089e-11
0.012260904
7.5699305e-11
0.012260977
8.0000943e-11
0.012261038
8.3852508e-11
0.012261089
8.705364e-11
0.012261132
8.9227532e-11
0.012261167
9.043644e-11
0.012261195
9.0190741e-11
0.012261218
8.8828319e-11
0.012261236
8.5868565e-11
0.01226125
8.1956946e-11
0.012261261
7.66198e-11
0.01226127
7.069072e-11
0.012261276
6.3729378e-11
0.012261281
5.6744903e-11
0.012261285
4.9249025e-11
0.012261287
4.2242622e-11
0.012261289
3.5177866e-11
0.012261291
2.9060652e-11
0.012261291
2.3215462e-11
0.012261292
1.8512772e-11
0.012261292
1.4178537e-11
0.012261293
1.1045336e-11
0.012261293
8.2314432e-12
0.012261293
6.4586892e-12
0.012261293
4.8094999e-12
0.012261293
4.0315971e-12
0.012261293
3.1930948e-12
0.012261293
2.9833486e-12
0.012261293
2.5250945e-12
0.012261293
2.5483136e-12
0.012261293
2.260201e-12
0.012261293
2.3313605e-12
0.012261293
1.9863405e-12
0.012261293
2.0223142e-12
0.012261293
1.686201e-12
0.012261293
1.6667103e-12
0.012261293
1.2874357e-12
0.012261293
1.351073e-12
0.012261293
1.0603803e-12
0.012261293
1.470562e-12
0.012261293
1.2585611e-12
0.012261293
1.9738979e-12
0.012261293
1.7088649e-12
0.012261293
1.5051298e-12
0.012261293
6.6283749e-13
0.012261293
-8.8866798e-13
0.012261293
-6.4125179e-12
-9.6553968e-12
0.012118864
-1.154354e-06
0.012124949
-6.0848889e-06
0.012134399
-9.450304e-06
0.012144631
-1.0232898e-05
0.012154072
-9.4416983e-06
0.012162538
-8.4661659e-06
0.012170332
-7.7943236e-06
0.012177653
-7.3218248e-06
0.012184517
-6.8634237e-06
0.012190879
-6.3621845e-06
0.012196733
-5.854471e-06
0.012202115
-5.3819648e-06
0.012207072
-4.9576617e-06
0.012211647
-4.5745149e-06
0.012215869
-4.2223647e-06
0.012219765
-3.8956491e-06
0.012223357
-3.5924963e-06
0.012226669
-3.3119238e-06
0.012229721
-3.0524612e-06
0.012232533
-2.8123007e-06
0.012235123
-2.5897065e-06
0.012237506
-2.3832597e-06
0.012239697
-2.1917671e-06
0.012241711
-2.0141954e-06
0.012243561
-1.849567e-06
0.012245257
-1.6969878e-06
0.012246813
-1.5556104e-06
0.012248237
-1.4246721e-06
0.012249541
-1.3034502e-06
0.012250732
-1.1912901e-06
0.012251819
-1.0875643e-06
0.012252811
-9.9170254e-07
0.012253714
-9.0315703e-07
0.012254535
-8.2142997e-07
0.012255281
-7.4604207e-07
0.012255958
-6.76558e-07
0.012256571
-6.1255812e-07
0.012257124
-5.5366107e-07
0.012257624
-4.9949909e-07
0.012258074
-4.4973856e-07
0.012258478
-4.0405804e-07
0.01225884
-3.6216626e-07
0.012259164
-3.2378359e-07
0.012259453
-2.8865771e-07
0.012259709
-2.5654787e-07
0.012259936
-2.272381e-07
0.012260137
-2.0052401e-07
0.012260313
-1.7622343e-07
0.012260468
-1.5416541e-07
0.012260602
-1.3419791e-07
0.012260718
-1.1617865e-07
0.012260818
-9.9979898e-08
0.012260904
-8.5481235e-08
0.012260977
-7.2571621e-08
0.012261038
-6.1144343e-08
0.012261089
-5.1097e-08
0.012261132
-4.2329122e-08
0.012261166
-3.4740824e-08
0.012261195
-2.8233312e-08
0.012261218
-2.2706684e-08
0.012261236
-1.8063183e-08
0.01226125
-1.4204436e-08
0.012261261
-1.1036794e-08
0.01226127
-8.4677366e-09
0.012261276
-6.4124379e-09
0.012261281
-4.789277e-09
0.012261285
-3.5267945e-09
0.012261287
-2.5579871e-09
0.012261289
-1.8271419e-09
0.01226129
-1.2832247e-09
0.012261291
-8.8638417e-10
0.012261292
-6.0052408e-10
0.012261292
-3.9951887e-10
0.012261293
-2.5957968e-10
0.012261293
-1.6529988e-10
0.012261293
-1.0195161e-10
0.012261293
-6.1463952e-11
0.012261293
-3.5141652e-11
0.012261293
-1.9578878e-11
0.012261293
-9.7141439e-12
0.012261293
-4.6513625e-12
0.012261293
-1.4201903e-12
0.012261293
-3.0355662e-13
0.012261293
6.6115459e-13
0.012261293
3.1134201e-13
0.012261293
6.3695867e-13
0.012261293
1.4292143e-14
0.012261293
1.8790869e-13
0.012261293
-5.5968269e-13
0.012261293
-1.8172279e-13
0.012261293
-9.9221039e-13
0.012261293
-4.8017922e-13
0.012261293
-1.6586664e-12
0.012261293
-1.8459831e-12
0.012261293
-4.2385264e-12
0.012261293
-7.1517251e-12
0.012261293
-1.1585398e-11
0.012261293
-1.9715375e-11
0.012261293
-2.9080164e-11
-4.0159749e-11
0.011321281
-2.309815e-06
0.011326444
-1.1246904e-05
0.011333723
-1.6729548e-05
0.011341007
-1.7517941e-05
0.011347382
-1.5817117e-05
0.011352875
-1.3960227e-05
0.011357723
-1.2642803e-05
0.011362067
-1.1665761e-05
0.011365949
-1.0745966e-05
0.011369391
-9.8048935e-06
0.011372432
-8.8954216e-06
0.011375123
-8.0729208e-06
0.011377515
-7.3496469e-06
0.01137965
-6.7097114e-06
0.011381561
-6.1340563e-06
0.011383276
-5.6109896e-06
0.011384819
-5.1347576e-06
0.011386208
-4.7013475e-06
0.011387462
-4.3065874e-06
0.011388596
-3.9461528e-06
0.011389622
-3.6162013e-06
0.011390553
-3.3135385e-06
0.011391397
-3.0355681e-06
0.011392162
-2.7800378e-06
0.011392858
-2.5449784e-06
0.011393489
-2.3286003e-06
0.011394063
-2.1293331e-06
0.011394584
-1.9457512e-06
0.011395057
-1.776603e-06
0.011395487
-1.6207351e-06
0.011395877
-1.4771246e-06
0.01139623
-1.3448175e-06
0.01139655
-1.2229637e-06
0.011396839
-1.1107644e-06
0.0113971
-1.007505e-06
0.011397336
-9.125097e-07
0.011397549
-8.2517193e-07
0.01139774
-7.4491473e-07
0.011397912
-6.7121918e-07
0.011398066
-6.0359041e-07
0.011398204
-5.4158291e-07
0.011398326
-4.8477156e-07
0.011398435
-4.3277424e-07
0.011398532
-3.8522768e-07
0.011398617
-3.4180666e-07
0.011398692
-3.022041e-07
0.011398758
-2.6614667e-07
0.011398815
-2.3337852e-07
0.011398865
-2.0367268e-07
0.011398907
-1.7681779e-07
0.011398944
-1.5262515e-07
0.011398975
-1.3091829e-07
0.011399001
-1.1153583e-07
0.011399023
-9.4324249e-08
0.011399041
-7.9137374e-08
0.011399055
-6.5832862e-08
0.011399067
-5.4269577e-08
0.011399077
-4.4308257e-08
0.011399085
-3.580759e-08
0.011399091
-2.8628927e-08
0.011399095
-2.2631583e-08
0.011399099
-1.7680895e-08
0.011399101
-1.3642466e-08
0.011399103
-1.0392219e-08
0.011399105
-7.8094097e-09
0.011399106
-5.7875482e-09
0.011399106
-4.2257298e-09
0.011399107
-3.0394034e-09
0.011399107
-2.1502854e-09
0.011399107
-1.4967344e-09
0.011399108
-1.0224381e-09
0.011399108
-6.8623564e-10
0.011399108
-4.5034768e-10
0.011399108
-2.899611e-10
0.011399108
-1.8133966e-10
0.011399108
-1.1119047e-10
0.011399108
-6.5267773e-11
0.011399108
-3.7666513e-11
0.011399108
-2.0131287e-11
0.011399108
-1.0857412e-11
0.011399108
-4.9154347e-12
0.011399108
-2.6362783e-12
0.011399108
-9.8887143e-13
0.011399108
-9.8864039e-13
0.011399108
-6.4366665e-13
0.011399108
-1.2109891e-12
0.011399108
-1.1039541e-12
0.011399108
-1.6838334e-12
0.011399108
-1.6134414e-12
0.011399108
-1.9570329e-12
0.011399108
-2.0634748e-12
0.011399108
-2.5100232e-12
0.011399108
-3.366628e-12
0.011399108
-5.1812226e-12
0.011399108
-8.0144481e-12
0.011399108
-1.3605299e-11
0.011399108
-2.0314528e-11
0.011399108
-3.3136107e-11
0.011399108
-4.3788402e-11
-6.0364806e-11
0.009634874
-3.2506956e-06
0.0096372812
-1.3653531e-05
0.0096392846
-1.8733121e-05
0.0096401824
-1.8416424e-05
0.0096402436
-1.587905e-05
0.0096397578
-1.3475137e-05
0.009638876
-1.1761479e-05
0.0096376933
-1.0483576e-05
0.0096363101
-9.3631898e-06
0.0096348207
-8.3158702e-06
0.0096332949
-7.3699122e-06
0.0096317766
-6.5549563e-06
0.0096302929
-5.8660636e-06
0.0096288612
-5.2782146e-06
0.0096274938
-4.7667348e-06
0.009626198
-4.3153297e-06
0.0096249776
-3.9143728e-06
0.0096238333
-3.5570741e-06
0.0096227641
-3.2374725e-06
0.0096217681
-2.9501842e-06
0.0096208426
-2.6906816e-06
0.0096199844
-2.4553523e-06
0.0096191902
-2.241324e-06
0.0096184564
-2.0462294e-06
0.0096177795
-1.8680586e-06
0.009617156
-1.7050768e-06
0.0096165825
-1.5557885e-06
0.0096160557
-1.4188963e-06
0.0096155725
-1.2932711e-06
0.0096151297
-1.1779174e-06
0.0096147246
-1.0719542e-06
0.0096143544
-9.7459284e-07
0.0096140166
-8.8512768e-07
0.0096137088
-8.0292054e-07
0.0096134288
-7.2739565e-07
0.0096131744
-6.5802744e-07
0.0096129436
-5.9433779e-07
0.0096127346
-5.3588709e-07
0.0096125457
-4.8227341e-07
0.0096123753
-4.3312543e-07
0.0096122219
-3.8810254e-07
0.0096120841
-3.4688962e-07
0.0096119606
-3.0919792e-07
0.0096118502
-2.7476106e-07
0.0096117517
-2.4333598e-07
0.0096116643
-2.1469989e-07
0.0096115869
-1.886509e-07
0.0096115185
-1.6500518e-07
0.0096114585
-1.435968e-07
0.009611406
-1.2427468e-07
0.0096113604
-1.0690148e-07
0.0096113208
-9.1350364e-08
0.0096112869
-7.7503254e-08
0.0096112578
-6.5247735e-08
0.0096112332
-5.4475214e-08
0.0096112125
-4.5078841e-08
0.0096111952
-3.6952347e-08
0.009611181
-2.9989274e-08
0.0096111693
-2.4082728e-08
0.0096111598
-1.9126178e-08
0.0096111522
-1.501416e-08
0.0096111462
-1.1643913e-08
0.0096111415
-8.9163379e-09
0.0096111379
-6.738065e-09
0.0096111351
-5.022223e-09
0.009611133
-3.6900674e-09
0.0096111315
-2.6709043e-09
0.0096111304
-1.9032622e-09
0.0096111296
-1.3340985e-09
0.009611129
-9.1924441e-10
0.0096111286
-6.2185446e-10
0.0096111283
-4.126347e-10
0.0096111282
-2.6806176e-10
0.0096111281
-1.7035042e-10
0.009611128
-1.0553795e-10
0.0096111279
-6.369099e-11
0.0096111279
-3.7221938e-11
0.0096111279
-2.1163994e-11
0.0096111279
-1.1618202e-11
0.0096111279
-6.3124564e-12
0.0096111279
-3.4504665e-12
0.0096111279
-2.1902655e-12
0.0096111279
-1.6994933e-12
0.0096111279
-1.6130566e-12
0.0096111279
-1.7519608e-12
0.0096111279
-1.8902949e-12
0.0096111279
-2.1519695e-12
0.0096111279
-2.0920826e-12
0.0096111279
-2.3715184e-12
0.0096111279
-2.1233336e-12
0.0096111279
-2.7013102e-12
0.0096111279
-2.5453892e-12
0.0096111279
-4.1118813e-12
0.0096111279
-5.2918168e-12
0.0096111279
-9.1448022e-12
0.0096111279
-1.3592827e-11
0.0096111279
-2.2695029e-11
0.0096111279
-3.5499809e-11
0.0096111279
-4.6566847e-11
-6.6030197e-11
0.0068827509
-3.0081375e-06
0.0068789636
-9.865633e-06
0.0068720402
-1.1809819e-05
0.0068640168
-1.0393651e-05
0.0068562362
-8.0992752e-06
0.006849044
-6.2837284e-06
0.0068423972
-5.1154564e-06
0.006836247
-4.3339457e-06
0.0068306058
-3.7225512e-06
0.0068254912
-3.2016922e-06
0.0068208851
-2.7642174e-06
0.0068167404
-2.4105413e-06
0.0068130023
-2.1281635e-06
0.006809622
-1.8980378e-06
0.0068065591
-1.7040187e-06
0.0068037798
-1.5361344e-06
0.0068012544
-1.3889483e-06
0.0067989563
-1.2590869e-06
0.0067968627
-1.1438261e-06
0.0067949533
-1.0408238e-06
0.0067932108
-9.4816005e-07
0.0067916198
-8.6437991e-07
0.0067901669
-7.8835811e-07
0.0067888399
-7.1920615e-07
0.0067876281
-6.5616329e-07
0.0067865217
-5.9858946e-07
0.0067855119
-5.4592141e-07
0.0067845907
-4.9768648e-07
0.006783751
-4.5346335e-07
0.006782986
-4.1289474e-07
0.0067822898
-3.7565403e-07
0.0067816568
-3.4146119e-07
0.0067810818
-3.1005593e-07
0.0067805601
-2.8121415e-07
0.0067800876
-2.5472457e-07
0.00677966
-2.3040419e-07
0.0067792738
-2.080783e-07
0.0067789256
-1.8759491e-07
0.0067786122
-1.6880761e-07
0.0067783308
-1.5158855e-07
0.0067780786
-1.3581399e-07
0.0067778531
-1.2137581e-07
0.0067776522
-1.0816945e-07
0.0067774736
-9.6103782e-08
0.0067773154
-8.5091176e-08
0.0067771759
-7.5055685e-08
0.0067770532
-6.5925024e-08
0.0067769459
-5.7636745e-08
0.0067768525
-5.0131917e-08
0.0067767717
-4.3359233e-08
0.0067767021
-3.7270338e-08
0.0067766427
-3.1821892e-08
0.0067765922
-2.6972573e-08
0.0067765497
-2.2683291e-08
0.0067765142
-1.8916185e-08
0.0067764848
-1.5633342e-08
0.0067764607
-1.2797807e-08
0.0067764411
-1.0371021e-08
0.0067764254
-8.3160078e-09
0.0067764129
-6.593759e-09
0.0067764031
-5.1681136e-09
0.0067763955
-4.001071e-09
0.0067763897
-3.0591043e-09
0.0067763852
-2.3075379e-09
0.006776382
-1.7174736e-09
0.0067763796
-1.259435e-09
0.0067763778
-9.1051084e-10
0.0067763766
-6.4743309e-10
0.0067763757
-4.5357178e-10
0.0067763751
-3.1172674e-10
0.0067763747
-2.1098956e-10
0.0067763744
-1.394819e-10
0.0067763743
-9.092442e-11
0.0067763742
-5.7413341e-11
0.0067763741
-3.5941148e-11
0.0067763741
-2.1417895e-11
0.006776374
-1.2979833e-11
0.006776374
-7.2210591e-12
0.006776374
-4.4855358e-12
0.006776374
-2.3726923e-12
0.006776374
-1.9308312e-12
0.006776374
-1.1647193e-12
0.006776374
-1.4895531e-12
0.006776374
-1.0743347e-12
0.006776374
-1.6163427e-12
0.006776374
-1.2212434e-12
0.006776374
-1.7459224e-12
0.006776374
-1.2203301e-12
0.006776374
-1.7581808e-12
0.006776374
-1.1289082e-12
0.006776374
-1.8487752e-12
0.006776374
-1.3426544e-12
0.006776374
-2.8509782e-12
0.006776374
-2.947416e-12
0.006776374
-5.6613041e-12
0.006776374
-8.0685375e-12
0.006776374
-1.4805238e-11
0.0067763739
-2.1679152e-11
0.0067763739
-3.3332107e-11
-4.9433285e-11
0.002818533
0.0028086675
0.0027968574
0.0027864633
0.0027783636
0.0027720795
0.0027669637
0.0027626294
0.0027589066
0.0027557047
0.0027529403
0.0027505297
0.0027484014
0.0027465033
0.0027447992
0.0027432631
0.0027418741
0.002740615
0.0027394711
0.0027384303
0.0027374822
0.0027366178
0.0027358295
0.0027351103
0.0027344542
0.0027338556
0.0027333097
0.0027328121
0.0027323587
0.0027319458
0.0027315702
0.0027312288
0.0027309188
0.0027306376
0.0027303829
0.0027301526
0.0027299446
0.002729757
0.0027295882
0.0027294367
0.0027293009
0.0027291796
0.0027290715
0.0027289754
0.0027288904
0.0027288153
0.0027287495
0.0027286919
0.0027286418
0.0027285984
0.0027285612
0.0027285294
0.0027285025
0.0027284798
0.0027284609
0.0027284453
0.0027284326
0.0027284222
0.0027284139
0.0027284073
0.0027284022
0.0027283982
0.0027283952
0.0027283929
0.0027283912
0.0027283899
0.002728389
0.0027283884
0.0027283879
0.0027283876
0.0027283874
0.0027283873
0.0027283872
0.0027283871
0.0027283871
0.0027283871
0.002728387
0.002728387
0.002728387
0.002728387
0.002728387
0.002728387
0.002728387
0.002728387
0.002728387
0.002728387
0.002728387
0.002728387
0.002728387
0.002728387
0.002728387
0.002728387
0.002728387
0.002728387
0.002728387
0.002728387
0.002728387
0.002728387
0.0027283869
)
;

boundaryField
{
    top
    {
        type            calculated;
        value           uniform 0;
    }
    inlet
    {
        type            calculated;
        value           nonuniform List<scalar> 10(-0.0028215398 -0.0068829929 -0.0096339322 -0.011320124 -0.01211771 -0.012117709 -0.011320125 -0.0096339321 -0.0068829927 -0.0028215406);
    }
    outlet
    {
        type            calculated;
        value           nonuniform List<scalar> 10(0.0027283868 0.0067763739 0.0096111279 0.011399108 0.012261293 0.012261293 0.011399108 0.0096111279 0.0067763739 0.0027283869);
    }
    bottom
    {
        type            calculated;
        value           uniform 0;
    }
    back
    {
        type            empty;
        value           nonuniform 0();
    }
    front
    {
        type            empty;
        value           nonuniform 0();
    }
}


// ************************************************************************* //
