/*--------------------------------*- C++ -*----------------------------------*\
| =========                 |                                                 |
| \\      /  F ield         | OpenFOAM: The Open Source CFD Toolbox           |
|  \\    /   O peration     | Version:  v1812                                 |
|   \\  /    A nd           | Web:      www.OpenFOAM.com                      |
|    \\/     M anipulation  |                                                 |
\*---------------------------------------------------------------------------*/
FoamFile
{
    version     2.0;
    format      ascii;
    class       volVectorField;
    location    "11";
    object      U;
}
// * * * * * * * * * * * * * * * * * * * * * * * * * * * * * * * * * * * * * //

dimensions      [0 1 -1 0 0 0 0];


internalField   nonuniform List<vector> 
1000
(
(0.28208186 0.00025145967 0)
(0.2815385 0.00071950511 0)
(0.28033924 0.00077874496 0)
(0.27915232 0.00058890619 0)
(0.27821191 0.00038402472 0)
(0.27749969 0.00025659199 0)
(0.27693757 0.00019281864 0)
(0.27646911 0.00015718754 0)
(0.27606788 0.00013033138 0)
(0.27572264 0.00010798603 0)
(0.27542539 9.0681533e-05 0)
(0.27516775 7.8223037e-05 0)
(0.27494178 6.9222088e-05 0)
(0.27474121 6.2206494e-05 0)
(0.27456166 5.6271093e-05 0)
(0.27440007 5.1040704e-05 0)
(0.27425417 4.6390946e-05 0)
(0.27412207 4.225005e-05 0)
(0.27400218 3.8540841e-05 0)
(0.27389317 3.5189939e-05 0)
(0.27379391 3.2142605e-05 0)
(0.27370345 2.9361863e-05 0)
(0.27362096 2.6821285e-05 0)
(0.27354572 2.4498184e-05 0)
(0.27347707 2.2371964e-05 0)
(0.27341444 2.0423637e-05 0)
(0.27335731 1.8636672e-05 0)
(0.27330522 1.6996381e-05 0)
(0.27325775 1.5490045e-05 0)
(0.2732145 1.4106092e-05 0)
(0.27317514 1.2834335e-05 0)
(0.27313935 1.1665399e-05 0)
(0.27310683 1.0591028e-05 0)
(0.27307732 9.6035682e-06 0)
(0.27305058 8.6962455e-06 0)
(0.27302637 7.862718e-06 0)
(0.27300448 7.0973414e-06 0)
(0.27298474 6.3947911e-06 0)
(0.27296695 5.7503118e-06 0)
(0.27295097 5.1593989e-06 0)
(0.27293663 4.6180288e-06 0)
(0.2729238 4.1223895e-06 0)
(0.27291235 3.6690847e-06 0)
(0.27290216 3.2549133e-06 0)
(0.27289312 2.8770418e-06 0)
(0.27288513 2.5328177e-06 0)
(0.2728781 2.2199057e-06 0)
(0.27287194 1.9361337e-06 0)
(0.27286657 1.6795862e-06 0)
(0.27286191 1.4484734e-06 0)
(0.2728579 1.2411862e-06 0)
(0.27285446 1.056196e-06 0)
(0.27285153 8.9207449e-07 0)
(0.27284906 7.4742558e-07 0)
(0.27284699 6.208848e-07 0)
(0.27284527 5.1109322e-07 0)
(0.27284386 4.1668275e-07 0)
(0.27284271 3.3628865e-07 0)
(0.27284178 2.6853013e-07 0)
(0.27284104 2.1205872e-07 0)
(0.27284046 1.6552885e-07 0)
(0.27284001 1.2766857e-07 0)
(0.27283966 9.7239727e-08 0)
(0.27283939 7.3121393e-08 0)
(0.27283919 5.4249588e-08 0)
(0.27283905 3.9702492e-08 0)
(0.27283894 2.8629757e-08 0)
(0.27283886 2.0342689e-08 0)
(0.27283881 1.4217108e-08 0)
(0.27283877 9.7794876e-09 0)
(0.27283875 6.6000564e-09 0)
(0.27283873 4.3821736e-09 0)
(0.27283872 2.8467027e-09 0)
(0.27283871 1.8247424e-09 0)
(0.27283871 1.1421203e-09 0)
(0.27283871 7.1752487e-10 0)
(0.2728387 4.4460465e-10 0)
(0.2728387 2.9366272e-10 0)
(0.2728387 1.9791523e-10 0)
(0.2728387 1.5834273e-10 0)
(0.2728387 1.3047972e-10 0)
(0.2728387 1.2779497e-10 0)
(0.2728387 1.1809828e-10 0)
(0.2728387 1.2058939e-10 0)
(0.2728387 1.1152497e-10 0)
(0.2728387 1.0922851e-10 0)
(0.2728387 9.552222e-11 0)
(0.2728387 8.6632355e-11 0)
(0.2728387 7.2660801e-11 0)
(0.2728387 6.0729628e-11 0)
(0.2728387 5.534713e-11 0)
(0.2728387 5.0004468e-11 0)
(0.2728387 7.9415238e-11 0)
(0.2728387 1.1855166e-10 0)
(0.2728387 2.6671635e-10 0)
(0.2728387 4.7284185e-10 0)
(0.2728387 9.3149703e-10 0)
(0.2728387 1.5425535e-09 0)
(0.27283869 2.8055825e-09 0)
(0.27283869 3.8817735e-09 0)
(0.68810613 0.00029631488 0)
(0.68859085 0.0012610481 0)
(0.68784362 0.0017363637 0)
(0.68683686 0.0016736501 0)
(0.68596737 0.0013870898 0)
(0.68523627 0.0011161008 0)
(0.68456823 0.00092663842 0)
(0.68393348 0.00079448616 0)
(0.683339 0.00068792654 0)
(0.68279666 0.00059454762 0)
(0.68230938 0.00051427881 0)
(0.68187262 0.00044831436 0)
(0.68147964 0.00039513355 0)
(0.68112459 0.00035162844 0)
(0.68080304 0.00031498206 0)
(0.68051144 0.00028338258 0)
(0.68024671 0.00025579882 0)
(0.68000602 0.00023155964 0)
(0.67978689 0.00021012124 0)
(0.67958713 0.00019101773 0)
(0.67940488 0.00017387355 0)
(0.67923852 0.00015840215 0)
(0.6790866 0.00014438529 0)
(0.67894785 0.00013164909 0)
(0.67882114 0.00012004894 0)
(0.67870543 0.0001094618 0)
(0.6785998 9.9782839e-05 0)
(0.67850342 9.0922207e-05 0)
(0.67841554 8.2802518e-05 0)
(0.67833544 7.5356116e-05 0)
(0.67826251 6.85235e-05 0)
(0.67819617 6.2251727e-05 0)
(0.67813587 5.6493659e-05 0)
(0.67808114 5.1206896e-05 0)
(0.67803152 4.6353315e-05 0)
(0.67798659 4.1898267e-05 0)
(0.67794598 3.7810324e-05 0)
(0.67790933 3.4060693e-05 0)
(0.67787632 3.0623091e-05 0)
(0.67784663 2.7473318e-05 0)
(0.67782 2.458922e-05 0)
(0.67779616 2.1950374e-05 0)
(0.67777489 1.9538106e-05 0)
(0.67775595 1.7335253e-05 0)
(0.67773915 1.5326208e-05 0)
(0.6777243 1.3496722e-05 0)
(0.67771122 1.1833924e-05 0)
(0.67769975 1.0326128e-05 0)
(0.67768974 8.962801e-06 0)
(0.67768105 7.7343457e-06 0)
(0.67767355 6.6320103e-06 0)
(0.67766712 5.6476605e-06 0)
(0.67766164 4.7736573e-06 0)
(0.67765701 4.002649e-06 0)
(0.67765312 3.3274672e-06 0)
(0.67764989 2.7409918e-06 0)
(0.67764723 2.2361046e-06 0)
(0.67764505 1.8056482e-06 0)
(0.67764329 1.4424539e-06 0)
(0.67764189 1.1393944e-06 0)
(0.67764078 8.8946218e-07 0)
(0.67763991 6.8587204e-07 0)
(0.67763925 5.221517e-07 0)
(0.67763874 3.9225435e-07 0)
(0.67763836 2.9061379e-07 0)
(0.67763807 2.1222477e-07 0)
(0.67763787 1.5265235e-07 0)
(0.67763772 1.0807897e-07 0)
(0.67763761 7.5250218e-08 0)
(0.67763754 5.1479648e-08 0)
(0.67763749 3.4557272e-08 0)
(0.67763746 2.2740313e-08 0)
(0.67763743 1.4642331e-08 0)
(0.67763742 9.2194008e-09 0)
(0.67763741 5.6638538e-09 0)
(0.67763741 3.4033374e-09 0)
(0.6776374 2.003755e-09 0)
(0.6776374 1.1774391e-09 0)
(0.6776374 7.0548601e-10 0)
(0.6776374 4.6051399e-10 0)
(0.6776374 3.4243014e-10 0)
(0.6776374 2.9909353e-10 0)
(0.6776374 2.8808171e-10 0)
(0.6776374 2.8983172e-10 0)
(0.6776374 2.962445e-10 0)
(0.6776374 2.9125457e-10 0)
(0.6776374 2.8967605e-10 0)
(0.6776374 2.6306976e-10 0)
(0.6776374 2.6059684e-10 0)
(0.6776374 2.1832746e-10 0)
(0.6776374 2.3819133e-10 0)
(0.6776374 2.0111472e-10 0)
(0.6776374 2.9859056e-10 0)
(0.6776374 3.4793256e-10 0)
(0.6776374 6.6822938e-10 0)
(0.6776374 1.0283496e-09 0)
(0.6776374 1.8846405e-09 0)
(0.6776374 3.0302207e-09 0)
(0.67763739 4.9468031e-09 0)
(0.67763739 7.5384117e-09 0)
(0.96301781 0.00023429 0)
(0.96439686 0.0011784108 0)
(0.96435677 0.001811876 0)
(0.96404282 0.0019451905 0)
(0.96392229 0.0017882104 0)
(0.96393765 0.0015752337 0)
(0.96393585 0.0014055253 0)
(0.96385739 0.001276779 0)
(0.96372171 0.0011626007 0)
(0.96356475 0.0010511459 0)
(0.96340698 0.00094487031 0)
(0.96325354 0.0008489776 0)
(0.96310397 0.0007652147 0)
(0.96295829 0.00069218965 0)
(0.96281782 0.00062770119 0)
(0.96268406 0.00057010438 0)
(0.96255787 0.00051841961 0)
(0.9624395 0.00047197846 0)
(0.9623288 0.0004301774 0)
(0.96222555 0.00039243538 0)
(0.96212949 0.00035823384 0)
(0.96204032 0.00032714225 0)
(0.96195774 0.00029880953 0)
(0.9618814 0.00027294289 0)
(0.96181092 0.00024929065 0)
(0.96174597 0.00022763363 0)
(0.96168618 0.00020778042 0)
(0.96163123 0.00018956394 0)
(0.96158078 0.00017283756 0)
(0.96153454 0.00015747173 0)
(0.9614922 0.00014335106 0)
(0.96145349 0.00013037224 0)
(0.96141814 0.00011844228 0)
(0.96138591 0.00010747719 0)
(0.96135656 9.7400738e-05 0)
(0.96132987 8.8143548e-05 0)
(0.96130565 7.9642158e-05 0)
(0.96128369 7.1838437e-05 0)
(0.96126383 6.4678932e-05 0)
(0.96124589 5.8114457e-05 0)
(0.96122972 5.2099659e-05 0)
(0.96121518 4.6592755e-05 0)
(0.96120214 4.1555229e-05 0)
(0.96119046 3.6951678e-05 0)
(0.96118003 3.2749609e-05 0)
(0.96117075 2.8919327e-05 0)
(0.96116252 2.543377e-05 0)
(0.96115525 2.2268361e-05 0)
(0.96114884 1.940082e-05 0)
(0.96114322 1.6810931e-05 0)
(0.96113832 1.4480288e-05 0)
(0.96113407 1.2391973e-05 0)
(0.9611304 1.053026e-05 0)
(0.96112725 8.8802617e-06 0)
(0.96112457 7.4276577e-06 0)
(0.96112231 6.1584041e-06 0)
(0.96112041 5.0585801e-06 0)
(0.96111883 4.1142318e-06 0)
(0.96111754 3.311385e-06 0)
(0.96111648 2.6360494e-06 0)
(0.96111562 2.0743801e-06 0)
(0.96111494 1.6127939e-06 0)
(0.96111441 1.2382067e-06 0)
(0.96111399 9.3818262e-07 0)
(0.96111367 7.01159e-07 0)
(0.96111342 5.1654601e-07 0)
(0.96111324 3.7487526e-07 0)
(0.96111311 2.6780585e-07 0)
(0.96111301 1.8817743e-07 0)
(0.96111294 1.2992411e-07 0)
(0.96111289 8.805099e-08 0)
(0.96111286 5.8488792e-08 0)
(0.96111283 3.802852e-08 0)
(0.96111282 2.4150215e-08 0)
(0.96111281 1.4955945e-08 0)
(0.9611128 9.0069962e-09 0)
(0.9611128 5.2765284e-09 0)
(0.9611128 3.0047436e-09 0)
(0.96111279 1.6873264e-09 0)
(0.96111279 9.5226276e-10 0)
(0.96111279 5.8466249e-10 0)
(0.96111279 4.086204e-10 0)
(0.96111279 3.5554434e-10 0)
(0.96111279 3.3599935e-10 0)
(0.96111279 3.584466e-10 0)
(0.96111279 3.5334338e-10 0)
(0.96111279 3.7968701e-10 0)
(0.96111279 3.4816798e-10 0)
(0.96111279 3.762205e-10 0)
(0.96111279 3.2217773e-10 0)
(0.96111279 3.7665014e-10 0)
(0.96111279 3.3787356e-10 0)
(0.96111279 4.7463313e-10 0)
(0.96111279 5.7608384e-10 0)
(0.96111279 9.2162137e-10 0)
(0.96111279 1.400905e-09 0)
(0.96111279 2.1697969e-09 0)
(0.96111279 3.4805242e-09 0)
(0.96111278 4.879576e-09 0)
(0.9611128 7.1857557e-09 0)
(1.1314783 0.00014457289 0)
(1.1333985 0.00079381817 0)
(1.1337565 0.0012877741 0)
(1.1338541 0.0014475275 0)
(1.1342589 0.0013829598 0)
(1.1348892 0.0012574432 0)
(1.1355167 0.0011532169 0)
(1.136031 0.0010753943 0)
(1.1364402 0.0010049813 0)
(1.1367874 0.00093177902 0)
(1.1370998 0.00085741474 0)
(1.1373841 0.00078684934 0)
(1.1376396 0.00072267143 0)
(1.1378665 0.0006647174 0)
(1.138068 0.00061183532 0)
(1.138248 0.00056312582 0)
(1.1384098 0.00051814727 0)
(1.1385557 0.00047666394 0)
(1.1386875 0.00043843979 0)
(1.1388065 0.00040320056 0)
(1.1389141 0.00037067298 0)
(1.1390117 0.00034061838 0)
(1.1391001 0.00031283504 0)
(1.1391803 0.00028714809 0)
(1.1392532 0.00026339888 0)
(1.1393193 0.0002414419 0)
(1.1393794 0.00022114313 0)
(1.139434 0.00020238033 0)
(1.1394836 0.00018504128 0)
(1.1395286 0.00016902314 0)
(1.1395695 0.00015423065 0)
(1.1396065 0.00014057599 0)
(1.1396401 0.00012797744 0)
(1.1396705 0.00011635953 0)
(1.1396979 0.00010565187 0)
(1.1397228 9.5789318e-05 0)
(1.1397451 8.6710987e-05 0)
(1.1397653 7.8360436e-05 0)
(1.1397834 7.0684867e-05 0)
(1.1397996 6.3635297e-05 0)
(1.1398141 5.7165902e-05 0)
(1.1398271 5.1234235e-05 0)
(1.1398386 4.5800676e-05 0)
(1.1398489 4.0828648e-05 0)
(1.1398579 3.6284185e-05 0)
(1.1398659 3.2136118e-05 0)
(1.1398729 2.8355715e-05 0)
(1.139879 2.49168e-05 0)
(1.1398843 2.1795406e-05 0)
(1.1398889 1.8969777e-05 0)
(1.1398929 1.6420001e-05 0)
(1.1398962 1.4127883e-05 0)
(1.139899 1.2076558e-05 0)
(1.1399014 1.0250263e-05 0)
(1.1399034 8.6339874e-06 0)
(1.139905 7.2132289e-06 0)
(1.1399063 5.9737607e-06 0)
(1.1399074 4.9014493e-06 0)
(1.1399082 3.9822039e-06 0)
(1.1399089 3.2019068e-06 0)
(1.1399094 2.5465505e-06 0)
(1.1399098 2.0022669e-06 0)
(1.1399101 1.5555942e-06 0)
(1.1399103 1.1935433e-06 0)
(1.1399105 9.0391092e-07 0)
(1.1399106 6.7530594e-07 0)
(1.1399106 4.9742716e-07 0)
(1.1399107 3.6099762e-07 0)
(1.1399107 2.5796752e-07 0)
(1.1399108 1.8134516e-07 0)
(1.1399108 1.2532276e-07 0)
(1.1399108 8.5026238e-08 0)
(1.1399108 5.6592052e-08 0)
(1.1399108 3.6875555e-08 0)
(1.1399108 2.3513532e-08 0)
(1.1399108 1.4624599e-08 0)
(1.1399108 8.8865019e-09 0)
(1.1399108 5.2511163e-09 0)
(1.1399108 3.0530494e-09 0)
(1.1399108 1.7413305e-09 0)
(1.1399108 1.0277775e-09 0)
(1.1399108 6.2956052e-10 0)
(1.1399108 4.6130335e-10 0)
(1.1399108 3.6419459e-10 0)
(1.1399108 3.5876815e-10 0)
(1.1399108 3.2694387e-10 0)
(1.1399108 3.5592482e-10 0)
(1.1399108 3.1597548e-10 0)
(1.1399108 3.5264544e-10 0)
(1.1399108 3.0001707e-10 0)
(1.1399108 3.5498086e-10 0)
(1.1399108 3.3512794e-10 0)
(1.1399108 4.469059e-10 0)
(1.1399108 5.752554e-10 0)
(1.1399108 8.2427854e-10 0)
(1.1399108 1.2312352e-09 0)
(1.1399108 1.7052335e-09 0)
(1.1399108 2.6094606e-09 0)
(1.1399108 3.2162702e-09 0)
(1.1399108 4.4634956e-09 0)
(1.2111486 4.8421368e-05 0)
(1.2133234 0.00027637606 0)
(1.2138467 0.00045877827 0)
(1.2141077 0.00052550304 0)
(1.2147409 0.00050913343 0)
(1.2156645 0.0004676422 0)
(1.2166124 0.00043268383 0)
(1.2174433 0.00040734438 0)
(1.2181558 0.00038463931 0)
(1.2187951 0.00036039899 0)
(1.2193912 0.00033502929 0)
(1.2199504 0.00031043681 0)
(1.2204696 0.00028772965 0)
(1.2209476 0.00026694952 0)
(1.2213868 0.00024771941 0)
(1.2217912 0.00022974031 0)
(1.2221644 0.00021288892 0)
(1.2225088 0.0001971236 0)
(1.2228265 0.00018240077 0)
(1.2231193 0.00016865659 0)
(1.2233888 0.00015582166 0)
(1.223637 0.00014383458 0)
(1.2238653 0.00013264394 0)
(1.2240752 0.00012220467 0)
(1.224268 0.00011247446 0)
(1.224445 0.00010341264 0)
(1.2246073 9.4980164e-05 0)
(1.224756 8.7139918e-05 0)
(1.2248921 7.9856603e-05 0)
(1.2250166 7.3096647e-05 0)
(1.2251303 6.6827977e-05 0)
(1.2252341 6.1020042e-05 0)
(1.2253286 5.5643706e-05 0)
(1.2254147 5.0671305e-05 0)
(1.2254929 4.607655e-05 0)
(1.2255639 4.1834564e-05 0)
(1.2256282 3.7921771e-05 0)
(1.2256863 3.4315916e-05 0)
(1.2257389 3.0995954e-05 0)
(1.2257862 2.7942105e-05 0)
(1.2258288 2.5135736e-05 0)
(1.225867 2.2559376e-05 0)
(1.2259012 2.0196634e-05 0)
(1.2259318 1.8032236e-05 0)
(1.225959 1.6051937e-05 0)
(1.2259831 1.4242557e-05 0)
(1.2260044 1.2591894e-05 0)
(1.2260232 1.108875e-05 0)
(1.2260397 9.7228339e-06 0)
(1.226054 8.4847471e-06 0)
(1.2260665 7.3658647e-06 0)
(1.2260773 6.3582889e-06 0)
(1.2260865 5.4546997e-06 0)
(1.2260944 4.648278e-06 0)
(1.2261011 3.932552e-06 0)
(1.2261066 3.3013196e-06 0)
(1.2261113 2.7485236e-06 0)
(1.2261151 2.2681997e-06 0)
(1.2261183 1.8544103e-06 0)
(1.2261208 1.5012425e-06 0)
(1.2261228 1.2028117e-06 0)
(1.2261244 9.5330547e-07 0)
(1.2261257 7.4703796e-07 0)
(1.2261266 5.7851919e-07 0)
(1.2261274 4.4253335e-07 0)
(1.2261279 3.3420203e-07 0)
(1.2261283 2.4904911e-07 0)
(1.2261286 1.8303265e-07 0)
(1.2261288 1.3258327e-07 0)
(1.226129 9.4596626e-08 0)
(1.2261291 6.6435716e-08 0)
(1.2261292 4.5888213e-08 0)
(1.2261292 3.1149319e-08 0)
(1.2261293 2.0760346e-08 0)
(1.2261293 1.357887e-08 0)
(1.2261293 8.7104704e-09 0)
(1.2261293 5.4856915e-09 0)
(1.2261293 3.3980326e-09 0)
(1.2261293 2.0878186e-09 0)
(1.2261293 1.2854828e-09 0)
(1.2261293 8.15867e-10 0)
(1.2261293 5.4624565e-10 0)
(1.2261293 4.0724354e-10 0)
(1.2261293 3.2751438e-10 0)
(1.2261293 2.9294255e-10 0)
(1.2261293 2.6135159e-10 0)
(1.2261293 2.5520569e-10 0)
(1.2261293 2.2781518e-10 0)
(1.2261293 2.2720406e-10 0)
(1.2261293 2.0222459e-10 0)
(1.2261293 2.1036939e-10 0)
(1.2261293 2.2276183e-10 0)
(1.2261293 2.5853681e-10 0)
(1.2261293 3.5256964e-10 0)
(1.2261293 4.3999839e-10 0)
(1.2261293 5.8889405e-10 0)
(1.2261293 6.9934469e-10 0)
(1.2261293 9.1222114e-10 0)
(1.2261293 7.3493589e-10 0)
(1.2261293 8.2261833e-10 0)
(1.2111485 -4.842155e-05 0)
(1.2133234 -0.00027637418 0)
(1.2138467 -0.00045877553 0)
(1.2141077 -0.00052549639 0)
(1.2147409 -0.0005091177 0)
(1.2156645 -0.00046761691 0)
(1.2166124 -0.000432653 0)
(1.2174433 -0.0004073126 0)
(1.2181558 -0.00038460882 0)
(1.2187951 -0.00036037129 0)
(1.2193912 -0.00033500548 0)
(1.2199504 -0.00031041874 0)
(1.2204696 -0.00028771825 0)
(1.2209476 -0.00026694571 0)
(1.2213868 -0.00024772289 0)
(1.2217912 -0.00022975115 0)
(1.2221644 -0.00021290655 0)
(1.2225089 -0.00019714786 0)
(1.2228265 -0.00018243071 0)
(1.2231193 -0.00016869161 0)
(1.2233888 -0.00015586046 0)
(1.223637 -0.00014387637 0)
(1.2238653 -0.00013268736 0)
(1.2240752 -0.00012224893 0)
(1.224268 -0.00011251829 0)
(1.224445 -0.00010345541 0)
(1.2246073 -9.5020836e-05 0)
(1.224756 -8.7178055e-05 0)
(1.2248921 -7.9891439e-05 0)
(1.2250166 -7.3128009e-05 0)
(1.2251303 -6.6855393e-05 0)
(1.225234 -6.1043569e-05 0)
(1.2253286 -5.5663127e-05 0)
(1.2254146 -5.068689e-05 0)
(1.2254928 -4.6088303e-05 0)
(1.2255638 -4.1842895e-05 0)
(1.2256281 -3.7926829e-05 0)
(1.2256863 -3.4318186e-05 0)
(1.2257388 -3.0995689e-05 0)
(1.2257862 -2.7939798e-05 0)
(1.2258288 -2.513161e-05 0)
(1.225867 -2.2553844e-05 0)
(1.2259012 -2.0189864e-05 0)
(1.2259317 -1.802452e-05 0)
(1.2259589 -1.6043341e-05 0)
(1.2259831 -1.4233239e-05 0)
(1.2260044 -1.2581829e-05 0)
(1.2260232 -1.1077982e-05 0)
(1.2260396 -9.7112782e-06 0)
(1.226054 -8.4723873e-06 0)
(1.2260665 -7.3526223e-06 0)
(1.2260773 -6.3441494e-06 0)
(1.2260865 -5.4396458e-06 0)
(1.2260944 -4.6323519e-06 0)
(1.226101 -3.9158425e-06 0)
(1.2261066 -3.2839541e-06 0)
(1.2261113 -2.7306994e-06 0)
(1.2261151 -2.2501178e-06 0)
(1.2261182 -1.8363492e-06 0)
(1.2261208 -1.4834402e-06 0)
(1.2261228 -1.1855719e-06 0)
(1.2261244 -9.3684214e-07 0)
(1.2261256 -7.3161936e-07 0)
(1.2261266 -5.6428841e-07 0)
(1.2261274 -4.2967705e-07 0)
(1.2261279 -3.2275501e-07 0)
(1.2261283 -2.3909315e-07 0)
(1.2261286 -1.744965e-07 0)
(1.2261288 -1.2545467e-07 0)
(1.226129 -8.8715372e-08 0)
(1.2261291 -6.1723229e-08 0)
(1.2261292 -4.213995e-08 0)
(1.2261292 -2.8264556e-08 0)
(1.2261293 -1.8525335e-08 0)
(1.2261293 -1.1903639e-08 0)
(1.2261293 -7.4086071e-09 0)
(1.2261293 -4.5052473e-09 0)
(1.2261293 -2.5893689e-09 0)
(1.2261293 -1.4401901e-09 0)
(1.2261293 -6.9141555e-10 0)
(1.2261293 -3.045438e-10 0)
(1.2261293 -3.6405216e-11 0)
(1.2261293 4.6898267e-11 0)
(1.2261293 1.323266e-10 0)
(1.2261293 1.0862609e-10 0)
(1.2261293 1.3767603e-10 0)
(1.2261293 8.0745157e-11 0)
(1.2261293 1.0070555e-10 0)
(1.2261293 3.5972339e-11 0)
(1.2261293 6.6527509e-11 0)
(1.2261293 1.057847e-12 0)
(1.2261293 5.2153078e-11 0)
(1.2261293 -1.9821746e-11 0)
(1.2261293 1.2847594e-11 0)
(1.2261293 -1.065209e-10 0)
(1.2261293 -2.6111254e-10 0)
(1.2261293 -5.1378705e-10 0)
(1.2261293 -1.0012433e-09 0)
(1.2261293 -1.741335e-09 0)
(1.2261293 -2.6283158e-09 0)
(1.1314784 -0.00014457344 0)
(1.1333985 -0.00079382926 0)
(1.1337565 -0.0012877908 0)
(1.1338541 -0.0014475394 0)
(1.134259 -0.0013829606 0)
(1.1348893 -0.001257433 0)
(1.1355167 -0.0011531996 0)
(1.136031 -0.0010753734 0)
(1.1364402 -0.0010049596 0)
(1.1367874 -0.00093175802 0)
(1.1370998 -0.00085739611 0)
(1.1373842 -0.00078683433 0)
(1.1376396 -0.00072266146 0)
(1.1378665 -0.00066471292 0)
(1.138068 -0.00061183696 0)
(1.138248 -0.00056313345 0)
(1.1384098 -0.00051816096 0)
(1.1385558 -0.00047668309 0)
(1.1386875 -0.00043846403 0)
(1.1388065 -0.00040322891 0)
(1.1389141 -0.00037070478 0)
(1.1390116 -0.0003406525 0)
(1.1391 -0.00031287073 0)
(1.1391803 -0.00028718422 0)
(1.1392531 -0.0002634348 0)
(1.1393193 -0.00024147667 0)
(1.1393794 -0.00022117624 0)
(1.139434 -0.00020241106 0)
(1.1394835 -0.00018506936 0)
(1.1395285 -0.0001690481 0)
(1.1395694 -0.00015425244 0)
(1.1396064 -0.00014059437 0)
(1.13964 -0.00012799255 0)
(1.1396703 -0.00011637134 0)
(1.1396978 -0.00010566067 0)
(1.1397226 -9.5795226e-05 0)
(1.139745 -8.6714386e-05 0)
(1.1397651 -7.8361541e-05 0)
(1.1397832 -7.0684067e-05 0)
(1.1397995 -6.3632808e-05 0)
(1.139814 -5.7162094e-05 0)
(1.139827 -5.1229292e-05 0)
(1.1398385 -4.579487e-05 0)
(1.1398487 -4.0822076e-05 0)
(1.1398578 -3.6277e-05 0)
(1.1398658 -3.2128331e-05 0)
(1.1398728 -2.8347374e-05 0)
(1.1398789 -2.4907847e-05 0)
(1.1398842 -2.1785824e-05 0)
(1.1398888 -1.8959496e-05 0)
(1.1398928 -1.6408994e-05 0)
(1.1398961 -1.411612e-05 0)
(1.1398989 -1.2064052e-05 0)
(1.1399013 -1.0237064e-05 0)
(1.1399033 -8.6201834e-06 0)
(1.1399049 -7.1989635e-06 0)
(1.1399062 -5.9591896e-06 0)
(1.1399073 -4.8867904e-06 0)
(1.1399082 -3.9676551e-06 0)
(1.1399088 -3.1877194e-06 0)
(1.1399093 -2.5329157e-06 0)
(1.1399097 -1.9894145e-06 0)
(1.13991 -1.5436653e-06 0)
(1.1399103 -1.182707e-06 0)
(1.1399104 -8.9422292e-07 0)
(1.1399105 -6.668472e-07 0)
(1.1399106 -4.901619e-07 0)
(1.1399107 -3.5492465e-07 0)
(1.1399107 -2.5297087e-07 0)
(1.1399107 -1.7735923e-07 0)
(1.1399108 -1.2218514e-07 0)
(1.1399108 -8.264511e-08 0)
(1.1399108 -5.4790897e-08 0)
(1.1399108 -3.5564871e-08 0)
(1.1399108 -2.2535024e-08 0)
(1.1399108 -1.3918966e-08 0)
(1.1399108 -8.3271575e-09 0)
(1.1399108 -4.8138478e-09 0)
(1.1399108 -2.6490668e-09 0)
(1.1399108 -1.3833262e-09 0)
(1.1399108 -6.5599415e-10 0)
(1.1399108 -2.8019051e-10 0)
(1.1399108 -9.5966406e-11 0)
(1.1399108 -3.0289869e-11 0)
(1.1399108 -2.0152326e-11 0)
(1.1399108 -3.0550765e-11 0)
(1.1399108 -6.5469621e-11 0)
(1.1399108 -7.8016817e-11 0)
(1.1399108 -1.2223612e-10 0)
(1.1399108 -1.1337217e-10 0)
(1.1399108 -1.6592388e-10 0)
(1.1399108 -1.5897064e-10 0)
(1.1399108 -2.5165507e-10 0)
(1.1399108 -3.5075985e-10 0)
(1.1399108 -5.9270514e-10 0)
(1.1399108 -1.0288738e-09 0)
(1.1399108 -1.5678344e-09 0)
(1.1399108 -2.6330384e-09 0)
(1.1399108 -3.6702033e-09 0)
(1.1399108 -5.2606798e-09 0)
(0.9630178 -0.00023428874 0)
(0.96439686 -0.0011784018 0)
(0.96435677 -0.0018118691 0)
(0.96404283 -0.0019451923 0)
(0.96392231 -0.0017882171 0)
(0.96393769 -0.0015752383 0)
(0.96393588 -0.001405524 0)
(0.96385742 -0.0012767721 0)
(0.96372175 -0.0011625909 0)
(0.96356479 -0.0010511349 0)
(0.96340702 -0.00094485963 0)
(0.96325358 -0.00084896765 0)
(0.96310401 -0.00076520673 0)
(0.96295833 -0.0006921843 0)
(0.96281785 -0.0006276997 0)
(0.96268408 -0.00057010682 0)
(0.96255788 -0.00051842639 0)
(0.9624395 -0.00047198895 0)
(0.96232879 -0.00043019155 0)
(0.96222553 -0.00039245228 0)
(0.96212945 -0.00035825325 0)
(0.96204028 -0.00032716313 0)
(0.96195768 -0.00029883154 0)
(0.96188132 -0.00027296504 0)
(0.96181084 -0.00024931268 0)
(0.96174587 -0.0002276547 0)
(0.96168607 -0.00020780039 0)
(0.96163111 -0.00018958216 0)
(0.96158065 -0.00017285405 0)
(0.9615344 -0.00015748604 0)
(0.96149205 -0.00014336334 0)
(0.96145334 -0.00013038221 0)
(0.96141798 -0.00011845022 0)
(0.96138575 -0.00010748297 0)
(0.96135639 -9.7404716e-05 0)
(0.96132971 -8.81457e-05 0)
(0.96130548 -7.9642876e-05 0)
(0.96128353 -7.1837757e-05 0)
(0.96126366 -6.4677219e-05 0)
(0.96124573 -5.8111768e-05 0)
(0.96122956 -5.209632e-05 0)
(0.96121503 -4.6588789e-05 0)
(0.96120198 -4.1550867e-05 0)
(0.96119031 -3.6946891e-05 0)
(0.96117989 -3.2744536e-05 0)
(0.96117061 -2.8913893e-05 0)
(0.96116239 -2.5428032e-05 0)
(0.96115511 -2.2262225e-05 0)
(0.96114871 -1.9394302e-05 0)
(0.9611431 -1.6803956e-05 0)
(0.9611382 -1.4472868e-05 0)
(0.96113396 -1.2384087e-05 0)
(0.96113029 -1.0521948e-05 0)
(0.96112715 -8.8715777e-06 0)
(0.96112448 -7.4186811e-06 0)
(0.96112222 -6.1492578e-06 0)
(0.96112033 -5.049371e-06 0)
(0.96111876 -4.1051305e-06 0)
(0.96111747 -3.3025043e-06 0)
(0.96111642 -2.6275711e-06 0)
(0.96111557 -2.0663875e-06 0)
(0.9611149 -1.6054479e-06 0)
(0.96111437 -1.2315421e-06 0)
(0.96111395 -9.3231331e-07 0)
(0.96111364 -6.9605163e-07 0)
(0.9611134 -5.1226068e-07 0)
(0.96111322 -3.7132056e-07 0)
(0.96111309 -2.6499306e-07 0)
(0.96111299 -1.8596578e-07 0)
(0.96111292 -1.2829682e-07 0)
(0.96111288 -8.6849955e-08 0)
(0.96111285 -5.768997e-08 0)
(0.96111282 -3.7471274e-08 0)
(0.96111281 -2.3825154e-08 0)
(0.9611128 -1.4725152e-08 0)
(0.9611128 -8.8855327e-09 0)
(0.96111279 -5.1472879e-09 0)
(0.96111279 -2.91161e-09 0)
(0.96111279 -1.5415339e-09 0)
(0.96111279 -8.1955505e-10 0)
(0.96111279 -3.8724595e-10 0)
(0.96111279 -2.2876839e-10 0)
(0.96111279 -1.2411233e-10 0)
(0.96111279 -1.3974628e-10 0)
(0.96111279 -1.2866267e-10 0)
(0.96111279 -1.7372017e-10 0)
(0.96111279 -1.8189005e-10 0)
(0.96111279 -2.1263972e-10 0)
(0.96111279 -2.2512282e-10 0)
(0.96111279 -2.277312e-10 0)
(0.96111279 -2.628472e-10 0)
(0.96111279 -2.7264028e-10 0)
(0.96111279 -3.8558028e-10 0)
(0.96111279 -5.3405246e-10 0)
(0.96111279 -8.6253805e-10 0)
(0.96111279 -1.3767861e-09 0)
(0.96111278 -2.1357519e-09 0)
(0.96111279 -3.4950124e-09 0)
(0.96111278 -4.6506332e-09 0)
(0.96111279 -6.6863257e-09 0)
(0.68810612 -0.00029630871 0)
(0.68859084 -0.001261037 0)
(0.68784362 -0.0017363621 0)
(0.68683686 -0.0016736669 0)
(0.68596738 -0.0013871223 0)
(0.68523629 -0.0011161383 0)
(0.68456825 -0.00092667051 0)
(0.68393349 -0.00079450899 0)
(0.683339 -0.00068794096 0)
(0.68279666 -0.0005945562 0)
(0.68230938 -0.00051428302 0)
(0.68187262 -0.00044831551 0)
(0.68147964 -0.00039513259 0)
(0.68112459 -0.00035162701 0)
(0.68080304 -0.00031498113 0)
(0.68051144 -0.00028338312 0)
(0.6802467 -0.0002558008 0)
(0.68000601 -0.00023156324 0)
(0.67978687 -0.00021012603 0)
(0.6795871 -0.0001910237 0)
(0.67940485 -0.00017388021 0)
(0.67923847 -0.00015840939 0)
(0.67908654 -0.00014439259 0)
(0.67894779 -0.00013165638 0)
(0.67882106 -0.00012005578 0)
(0.67870534 -0.00010946816 0)
(0.67859971 -9.9788385e-05 0)
(0.67850332 -9.0927003e-05 0)
(0.67841542 -8.2806326e-05 0)
(0.67833532 -7.5359048e-05 0)
(0.67826239 -6.8525401e-05 0)
(0.67819604 -6.2252769e-05 0)
(0.67813574 -5.6493757e-05 0)
(0.67808101 -5.1206242e-05 0)
(0.67803139 -4.6351874e-05 0)
(0.67798646 -4.1896251e-05 0)
(0.67794585 -3.780773e-05 0)
(0.6779092 -3.4057714e-05 0)
(0.67787619 -3.0619735e-05 0)
(0.67784651 -2.7469757e-05 0)
(0.67781988 -2.4585455e-05 0)
(0.67779605 -2.1946527e-05 0)
(0.67777477 -1.9534155e-05 0)
(0.67775584 -1.7331278e-05 0)
(0.67773904 -1.5322169e-05 0)
(0.67772419 -1.3492655e-05 0)
(0.67771112 -1.1829783e-05 0)
(0.67769965 -1.0321927e-05 0)
(0.67768965 -8.9585037e-06 0)
(0.67768096 -7.7299606e-06 0)
(0.67767347 -6.6275278e-06 0)
(0.67766704 -5.6430974e-06 0)
(0.67766157 -4.7690376e-06 0)
(0.67765694 -3.9980044e-06 0)
(0.67765306 -3.3228528e-06 0)
(0.67764984 -2.7364467e-06 0)
(0.67764718 -2.231704e-06 0)
(0.67764501 -1.8014317e-06 0)
(0.67764326 -1.4385014e-06 0)
(0.67764186 -1.1357276e-06 0)
(0.67764075 -8.8614982e-07 0)
(0.67763989 -6.8291404e-07 0)
(0.67763923 -5.1959667e-07 0)
(0.67763872 -3.900682e-07 0)
(0.67763834 -2.8882158e-07 0)
(0.67763806 -2.1077001e-07 0)
(0.67763786 -1.5154301e-07 0)
(0.67763771 -1.0723498e-07 0)
(0.67763761 -7.4668205e-08 0)
(0.67763754 -5.107489e-08 0)
(0.67763749 -3.4327023e-08 0)
(0.67763745 -2.2597604e-08 0)
(0.67763743 -1.4591663e-08 0)
(0.67763742 -9.1875527e-09 0)
(0.67763741 -5.669937e-09 0)
(0.67763741 -3.38273e-09 0)
(0.6776374 -1.9885522e-09 0)
(0.6776374 -1.11906e-09 0)
(0.6776374 -6.4842446e-10 0)
(0.6776374 -3.5923856e-10 0)
(0.6776374 -2.4557655e-10 0)
(0.6776374 -1.6963741e-10 0)
(0.6776374 -1.7840745e-10 0)
(0.6776374 -1.604598e-10 0)
(0.6776374 -1.9732615e-10 0)
(0.6776374 -1.867345e-10 0)
(0.6776374 -2.2661011e-10 0)
(0.6776374 -1.9724046e-10 0)
(0.6776374 -2.3544992e-10 0)
(0.6776374 -1.8778711e-10 0)
(0.6776374 -2.5276654e-10 0)
(0.6776374 -2.1390963e-10 0)
(0.6776374 -3.7942664e-10 0)
(0.6776374 -4.4998968e-10 0)
(0.6776374 -8.1865369e-10 0)
(0.6776374 -1.1692226e-09 0)
(0.6776374 -2.0346881e-09 0)
(0.6776374 -3.1353027e-09 0)
(0.67763739 -4.3072652e-09 0)
(0.67763739 -6.3742859e-09 0)
(0.28208194 -0.00025145231 0)
(0.28153852 -0.00071950108 0)
(0.28033924 -0.00077875317 0)
(0.27915231 -0.00058892735 0)
(0.2782119 -0.00038405424 0)
(0.27749968 -0.00025662218 0)
(0.27693754 -0.00019284303 0)
(0.27646907 -0.00015720445 0)
(0.27606784 -0.00013034191 0)
(0.2757226 -0.00010799252 0)
(0.27542536 -9.0685113e-05 0)
(0.27516772 -7.8224801e-05 0)
(0.27494175 -6.9222418e-05 0)
(0.27474119 -6.2206392e-05 0)
(0.27456164 -5.6270763e-05 0)
(0.27440007 -5.1040702e-05 0)
(0.27425416 -4.6390972e-05 0)
(0.27412206 -4.2250361e-05 0)
(0.27400217 -3.854107e-05 0)
(0.27389316 -3.5190348e-05 0)
(0.2737939 -3.2142837e-05 0)
(0.27370343 -2.9362164e-05 0)
(0.27362094 -2.6821323e-05 0)
(0.27354569 -2.4498204e-05 0)
(0.27347704 -2.2371661e-05 0)
(0.27341441 -2.0423257e-05 0)
(0.27335728 -1.863596e-05 0)
(0.27330519 -1.6995582e-05 0)
(0.27325771 -1.5488926e-05 0)
(0.27321446 -1.4104885e-05 0)
(0.2731751 -1.2832845e-05 0)
(0.27313931 -1.1663848e-05 0)
(0.27310679 -1.0589238e-05 0)
(0.27307728 -9.6017417e-06 0)
(0.27305053 -8.6942373e-06 0)
(0.27302632 -7.8607141e-06 0)
(0.27300444 -7.0952121e-06 0)
(0.2729847 -6.3926982e-06 0)
(0.27296691 -5.7481472e-06 0)
(0.27295093 -5.1573025e-06 0)
(0.27293659 -4.6159028e-06 0)
(0.27292376 -4.1203462e-06 0)
(0.27291231 -3.667041e-06 0)
(0.27290212 -3.2529576e-06 0)
(0.27289309 -2.8751013e-06 0)
(0.2728851 -2.5309565e-06 0)
(0.27287807 -2.2180669e-06 0)
(0.27287192 -1.9343637e-06 0)
(0.27286655 -1.6778453e-06 0)
(0.27286189 -1.4467915e-06 0)
(0.27285788 -1.2395428e-06 0)
(0.27285444 -1.0546091e-06 0)
(0.27285151 -8.9054412e-07 0)
(0.27284904 -7.4595799e-07 0)
(0.27284698 -6.1949529e-07 0)
(0.27284526 -5.0977686e-07 0)
(0.27284385 -4.1546945e-07 0)
(0.2728427 -3.3516172e-07 0)
(0.27284177 -2.6752467e-07 0)
(0.27284104 -2.1114499e-07 0)
(0.27284046 -1.6474738e-07 0)
(0.27284 -1.2697818e-07 0)
(0.27283965 -9.6678363e-08 0)
(0.27283939 -7.2636014e-08 0)
(0.27283919 -5.3880996e-08 0)
(0.27283905 -3.9391505e-08 0)
(0.27283894 -2.8415949e-08 0)
(0.27283886 -2.0160541e-08 0)
(0.27283881 -1.4110923e-08 0)
(0.27283877 -9.6828415e-09 0)
(0.27283875 -6.5574735e-09 0)
(0.27283873 -4.3266037e-09 0)
(0.27283872 -2.8298254e-09 0)
(0.27283871 -1.782669e-09 0)
(0.27283871 -1.1280026e-09 0)
(0.27283871 -6.6900326e-10 0)
(0.27283871 -4.219991e-10 0)
(0.2728387 -2.3732734e-10 0)
(0.2728387 -1.6733874e-10 0)
(0.2728387 -9.4430264e-11 0)
(0.2728387 -9.6998285e-11 0)
(0.2728387 -6.8000583e-11 0)
(0.2728387 -9.1683359e-11 0)
(0.2728387 -7.0659896e-11 0)
(0.2728387 -9.9792244e-11 0)
(0.2728387 -7.8690128e-11 0)
(0.2728387 -1.0325773e-10 0)
(0.2728387 -7.3218412e-11 0)
(0.2728387 -9.8248882e-11 0)
(0.2728387 -6.6091631e-11 0)
(0.2728387 -1.0472701e-10 0)
(0.2728387 -8.8330691e-11 0)
(0.2728387 -1.8526414e-10 0)
(0.2728387 -2.1751628e-10 0)
(0.2728387 -4.0280553e-10 0)
(0.2728387 -5.8957987e-10 0)
(0.2728387 -1.0760172e-09 0)
(0.2728387 -1.52625e-09 0)
(0.27283869 -2.2820349e-09 0)
(0.27283869 -3.1907588e-09 0)
)
;

boundaryField
{
    top
    {
        type            fixedValue;
        value           uniform (0 0 0);
    }
    inlet
    {
        type            pressureNormalInletOutletVelocity;
        phi             phi;
        rho             rho;