/*--------------------------------*- C++ -*----------------------------------*\
| =========                 |                                                 |
| \\      /  F ield         | OpenFOAM: The Open Source CFD Toolbox           |
|  \\    /   O peration     | Version:  v1812                                 |
|   \\  /    A nd           | Web:      www.OpenFOAM.com                      |
|    \\/     M anipulation  |                                                 |
\*---------------------------------------------------------------------------*/
FoamFile
{
    version     2.0;
    format      ascii;
    class       volScalarField;
    location    "5";
    object      p;
}
// * * * * * * * * * * * * * * * * * * * * * * * * * * * * * * * * * * * * * //

dimensions      [0 2 -2 0 0 0 0];


internalField   nonuniform List<scalar> 
1000
(
1.5141207
1.4970829
1.4807967
1.4649311
1.4492798
1.433758
1.4183298
1.4029724
1.3876669
1.3723991
1.3571591
1.3419407
1.3267393
1.3115511
1.2963727
1.2812013
1.2660345
1.2508705
1.2357082
1.2205466
1.2053851
1.1902237
1.1750621
1.1599003
1.1447385
1.1295765
1.1144145
1.0992524
1.0840903
1.0689282
1.0537661
1.038604
1.0234419
1.0082798
0.99311767
0.97795557
0.96279347
0.94763136
0.93246926
0.91730716
0.90214506
0.88698295
0.87182085
0.85665875
0.84149665
0.82633454
0.81117244
0.79601034
0.78084824
0.76568614
0.75052403
0.73536193
0.72019983
0.70503773
0.68987562
0.67471352
0.65955142
0.64438932
0.62922722
0.61406511
0.59890301
0.58374091
0.56857881
0.5534167
0.5382546
0.5230925
0.5079304
0.4927683
0.47760619
0.46244409
0.44728199
0.43211989
0.41695778
0.40179568
0.38663358
0.37147148
0.35630938
0.34114727
0.32598517
0.31082307
0.29566097
0.28049887
0.26533676
0.25017466
0.23501256
0.21985046
0.20468836
0.18952625
0.17436415
0.15920205
0.14403995
0.12887784
0.11371574
0.098553639
0.083391537
0.068229435
0.053067334
0.037905234
0.022743136
0.0075810424
1.5136755
1.4966442
1.4807161
1.46507
1.4494482
1.4338885
1.4184276
1.4030504
1.3877292
1.3724464
1.3571934
1.3419648
1.3267558
1.3115621
1.2963796
1.2812054
1.2660368
1.2508717
1.2357087
1.2205466
1.2053851
1.1902236
1.175062
1.1599003
1.1447384
1.1295765
1.1144144
1.0992524
1.0840903
1.0689282
1.0537661
1.038604
1.0234419
1.0082798
0.99311767
0.97795557
0.96279347
0.94763136
0.93246926
0.91730716
0.90214506
0.88698295
0.87182085
0.85665875
0.84149665
0.82633454
0.81117244
0.79601034
0.78084824
0.76568614
0.75052403
0.73536193
0.72019983
0.70503773
0.68987563
0.67471352
0.65955142
0.64438932
0.62922722
0.61406511
0.59890301
0.58374091
0.56857881
0.5534167
0.5382546
0.5230925
0.5079304
0.4927683
0.47760619
0.46244409
0.44728199
0.43211989
0.41695778
0.40179568
0.38663358
0.37147148
0.35630938
0.34114727
0.32598517
0.31082307
0.29566097
0.28049887
0.26533676
0.25017466
0.23501256
0.21985046
0.20468836
0.18952625
0.17436415
0.15920205
0.14403995
0.12887784
0.11371574
0.098553639
0.083391537
0.068229435
0.053067333
0.037905232
0.022743131
0.0075810387
1.5129676
1.4958442
1.4803883
1.4650949
1.4495649
1.433981
1.4184933
1.4031072
1.3877811
1.3724899
1.357227
1.3419899
1.3267743
1.3115755
1.2963891
1.2812118
1.266041
1.2508743
1.2357102
1.2205476
1.2053856
1.1902238
1.1750621
1.1599003
1.1447384
1.1295764
1.1144144
1.0992524
1.0840903
1.0689282
1.0537661
1.038604
1.0234419
1.0082798
0.99311767
0.97795557
0.96279347
0.94763136
0.93246926
0.91730716
0.90214506
0.88698295
0.87182085
0.85665875
0.84149665
0.82633454
0.81117244
0.79601034
0.78084824
0.76568614
0.75052403
0.73536193
0.72019983
0.70503773
0.68987562
0.67471352
0.65955142
0.64438932
0.62922722
0.61406511
0.59890301
0.58374091
0.56857881
0.5534167
0.5382546
0.5230925
0.5079304
0.4927683
0.47760619
0.46244409
0.44728199
0.43211989
0.41695778
0.40179568
0.38663358
0.37147148
0.35630938
0.34114727
0.32598517
0.31082307
0.29566097
0.28049887
0.26533676
0.25017466
0.23501256
0.21985046
0.20468836
0.18952625
0.17436415
0.15920205
0.14403995
0.12887784
0.11371574
0.098553639
0.083391536
0.068229433
0.05306733
0.037905229
0.022743125
0.0075810347
1.512348
1.4950876
1.4800208
1.4650698
1.4496541
1.434061
1.4185523
1.4031613
1.3878344
1.3725376
1.3572659
1.3420204
1.3267981
1.3115937
1.2964027
1.2812216
1.2660478
1.2508788
1.2357131
1.2205493
1.2053865
1.1902243
1.1750623
1.1599004
1.1447384
1.1295764
1.1144144
1.0992523
1.0840903
1.0689282
1.0537661
1.038604
1.0234419
1.0082798
0.99311767
0.97795557
0.96279347
0.94763136
0.93246926
0.91730716
0.90214506
0.88698295
0.87182085
0.85665875
0.84149665
0.82633454
0.81117244
0.79601034
0.78084824
0.76568614
0.75052403
0.73536193
0.72019983
0.70503773
0.68987563
0.67471352
0.65955142
0.64438932
0.62922722
0.61406511
0.59890301
0.58374091
0.56857881
0.5534167
0.5382546
0.5230925
0.5079304
0.4927683
0.47760619
0.46244409
0.44728199
0.43211989
0.41695778
0.40179568
0.38663358
0.37147148
0.35630938
0.34114727
0.32598517
0.31082307
0.29566097
0.28049887
0.26533676
0.25017466
0.23501256
0.21985046
0.20468836
0.18952625
0.17436415
0.15920205
0.14403995
0.12887784
0.11371574
0.098553638
0.083391535
0.068229432
0.053067328
0.037905225
0.022743121
0.0075810318
1.5120087
1.4946542
1.4797953
1.465045
1.4497043
1.4341097
1.4185893
1.4031961
1.3878697
1.3725702
1.3572933
1.3420424
1.3268156
1.3116075
1.2964133
1.2812294
1.2660532
1.2508826
1.2357155
1.2205508
1.2053874
1.1902248
1.1750625
1.1599005
1.1447384
1.1295764
1.1144144
1.0992523
1.0840903
1.0689282
1.0537661
1.038604
1.0234419
1.0082798
0.99311767
0.97795557
0.96279347
0.94763136
0.93246926
0.91730716
0.90214506
0.88698295
0.87182085
0.85665875
0.84149665
0.82633454
0.81117244
0.79601034
0.78084824
0.76568614
0.75052403
0.73536193
0.72019983
0.70503773
0.68987562
0.67471352
0.65955142
0.64438932
0.62922722
0.61406511
0.59890301
0.58374091
0.56857881
0.5534167
0.5382546
0.5230925
0.5079304
0.4927683
0.47760619
0.46244409
0.44728199
0.43211989
0.41695778
0.40179568
0.38663358
0.37147148
0.35630938
0.34114727
0.32598517
0.31082307
0.29566097
0.28049887
0.26533676
0.25017466
0.23501256
0.21985046
0.20468836
0.18952625
0.17436415
0.15920205
0.14403995
0.12887784
0.11371574
0.098553638
0.083391534
0.068229431
0.053067326
0.037905223
0.022743119
0.0075810305
1.5120088
1.4946543
1.4797953
1.465045
1.4497043
1.4341097
1.4185893
1.4031962
1.3878697
1.3725702
1.3572933
1.3420424
1.3268156
1.3116075
1.2964133
1.2812294
1.2660532
1.2508826
1.2357155
1.2205508
1.2053874
1.1902248
1.1750625
1.1599005
1.1447384
1.1295764
1.1144144
1.0992523
1.0840903
1.0689282
1.0537661
1.038604
1.0234419
1.0082798
0.99311767
0.97795557
0.96279347
0.94763136
0.93246926
0.91730716
0.90214506
0.88698295
0.87182085
0.85665875
0.84149665
0.82633454
0.81117244
0.79601034
0.78084824
0.76568614
0.75052403
0.73536193
0.72019983
0.70503773
0.68987562
0.67471352
0.65955142
0.64438932
0.62922722
0.61406511
0.59890301
0.58374091
0.56857881
0.5534167
0.5382546
0.5230925
0.5079304
0.4927683
0.47760619
0.46244409
0.44728199
0.43211989
0.41695778
0.40179568
0.38663358
0.37147148
0.35630938
0.34114727
0.32598517
0.31082307
0.29566097
0.28049887
0.26533676
0.25017466
0.23501256
0.21985046
0.20468836
0.18952625
0.17436415
0.15920205
0.14403995
0.12887784
0.11371574
0.098553637
0.083391534
0.068229431
0.053067326
0.037905223
0.022743119
0.0075810305
1.512348
1.4950876
1.4800208
1.4650698
1.4496541
1.434061
1.4185523
1.4031613
1.3878344
1.3725376
1.3572659
1.3420204
1.3267981
1.3115937
1.2964027
1.2812216
1.2660477
1.2508788
1.2357131
1.2205493
1.2053865
1.1902243
1.1750623
1.1599004
1.1447384
1.1295764
1.1144144
1.0992523
1.0840903
1.0689282
1.0537661
1.038604
1.0234419
1.0082798
0.99311767
0.97795557
0.96279347
0.94763136
0.93246926
0.91730716
0.90214506
0.88698295
0.87182085
0.85665875
0.84149665
0.82633454
0.81117244
0.79601034
0.78084824
0.76568614
0.75052403
0.73536193
0.72019983
0.70503773
0.68987563
0.67471352
0.65955142
0.64438932
0.62922722
0.61406511
0.59890301
0.58374091
0.56857881
0.5534167
0.5382546
0.5230925
0.5079304
0.4927683
0.47760619
0.46244409
0.44728199
0.43211989
0.41695778
0.40179568
0.38663358
0.37147148
0.35630938
0.34114727
0.32598517
0.31082307
0.29566097
0.28049887
0.26533676
0.25017466
0.23501256
0.21985046
0.20468836
0.18952625
0.17436415
0.15920205
0.14403995
0.12887784
0.11371574
0.098553637
0.083391534
0.068229431
0.053067328
0.037905225
0.022743121
0.007581032
1.5129676
1.4958442
1.4803883
1.4650949
1.4495649
1.433981
1.4184933
1.4031072
1.3877811
1.3724899
1.357227
1.3419899
1.3267743
1.3115755
1.2963891
1.2812118
1.2660409
1.2508743
1.2357102
1.2205475
1.2053856
1.1902238
1.1750621
1.1599003
1.1447384
1.1295764
1.1144144
1.0992524
1.0840903
1.0689282
1.0537661
1.038604
1.0234419
1.0082798
0.99311767
0.97795557
0.96279347
0.94763136
0.93246926
0.91730716
0.90214506
0.88698295
0.87182085
0.85665875
0.84149665
0.82633454
0.81117244
0.79601034
0.78084824
0.76568614
0.75052403
0.73536193
0.72019983
0.70503773
0.68987562
0.67471352
0.65955142
0.64438932
0.62922722
0.61406511
0.59890301
0.58374091
0.56857881
0.5534167
0.5382546
0.5230925
0.5079304
0.4927683
0.47760619
0.46244409
0.44728199
0.43211989
0.41695778
0.40179568
0.38663358
0.37147148
0.35630938
0.34114727
0.32598517
0.31082307
0.29566097
0.28049887
0.26533676
0.25017466
0.23501256
0.21985046
0.20468835
0.18952625
0.17436415
0.15920205
0.14403995
0.12887784
0.11371574
0.098553638
0.083391535
0.068229433
0.05306733
0.037905229
0.022743126
0.0075810349
1.5136755
1.4966442
1.4807161
1.46507
1.4494481
1.4338885
1.4184276
1.4030504
1.3877293
1.3724464
1.3571934
1.3419648
1.3267558
1.311562
1.2963796
1.2812054
1.2660367
1.2508717
1.2357086
1.2205466
1.2053851
1.1902236
1.175062
1.1599003
1.1447384
1.1295765
1.1144144
1.0992524
1.0840903
1.0689282
1.0537661
1.038604
1.0234419
1.0082798
0.99311767
0.97795557
0.96279347
0.94763136
0.93246926
0.91730716
0.90214506
0.88698295
0.87182085
0.85665875
0.84149665
0.82633454
0.81117244
0.79601034
0.78084824
0.76568614
0.75052403
0.73536193
0.72019983
0.70503773
0.68987562
0.67471352
0.65955142
0.64438932
0.62922722
0.61406511
0.59890301
0.58374091
0.56857881
0.5534167
0.5382546
0.5230925
0.5079304
0.4927683
0.47760619
0.46244409
0.44728199
0.43211989
0.41695778
0.40179568
0.38663358
0.37147148
0.35630938
0.34114727
0.32598517
0.31082307
0.29566097
0.28049887
0.26533676
0.25017466
0.23501256
0.21985046
0.20468835
0.18952625
0.17436415
0.15920205
0.14403995
0.12887784
0.11371574
0.098553638
0.083391536
0.068229434
0.053067333
0.037905233
0.022743132
0.0075810388
1.5141207
1.4970829
1.4807967
1.4649311
1.4492798
1.433758
1.4183298
1.4029724
1.3876669
1.3723991
1.3571591
1.3419407
1.3267393
1.3115511
1.2963727
1.2812013
1.2660344
1.2508705
1.2357082
1.2205466
1.2053851
1.1902237
1.1750621
1.1599003
1.1447384
1.1295765
1.1144144
1.0992524
1.0840903
1.0689282
1.0537661
1.038604
1.0234419
1.0082798
0.99311767
0.97795557
0.96279347
0.94763136
0.93246926
0.91730716
0.90214506
0.88698295
0.87182085
0.85665875
0.84149665
0.82633454
0.81117244
0.79601034
0.78084824
0.76568614
0.75052403
0.73536193
0.72019983
0.70503773
0.68987563
0.67471352
0.65955142
0.64438932
0.62922722
0.61406511
0.59890301
0.58374091
0.56857881
0.5534167
0.5382546
0.5230925
0.5079304
0.4927683
0.47760619
0.46244409
0.44728199
0.43211989
0.41695778
0.40179568
0.38663358
0.37147148
0.35630938
0.34114727
0.32598517
0.31082307
0.29566097
0.28049887
0.26533676
0.25017466
0.23501256
0.21985046
0.20468836
0.18952625
0.17436415
0.15920205
0.14403995
0.12887784
0.11371574
0.098553638
0.083391536
0.068229435
0.053067334
0.037905235
0.022743136
0.0075810425
)
;

boundaryField
{
    top
    {
        type            zeroGradient;
    }
    inlet
    {
        type            fixedValue;
        value           uniform 1.523;
    }
    outlet
    {
        type            fixedValue;
        value           uniform 0;
    }
    bottom
    {
        type            zeroGradient;
    }
    back
    {
        type            empty;
    }
    front
    {
        type            empty;
    }
}


// ************************************************************************* //
