/*--------------------------------*- C++ -*----------------------------------*\
| =========                 |                                                 |
| \\      /  F ield         | OpenFOAM: The Open Source CFD Toolbox           |
|  \\    /   O peration     | Version:  v1812                                 |
|   \\  /    A nd           | Web:      www.OpenFOAM.com                      |
|    \\/     M anipulation  |                                                 |
\*---------------------------------------------------------------------------*/
FoamFile
{
    version     2.0;
    format      ascii;
    class       volScalarField;
    location    "7";
    object      p;
}
// * * * * * * * * * * * * * * * * * * * * * * * * * * * * * * * * * * * * * //

dimensions      [0 2 -2 0 0 0 0];


internalField   nonuniform List<scalar> 
1000
(
1.5141612
1.4970717
1.4806316
1.4645964
1.4487907
1.4331271
1.4175647
1.4020806
1.3866575
1.3712815
1.355942
1.3406317
1.3253459
1.310081
1.2948342
1.2796033
1.2643863
1.2491815
1.2339874
1.2188029
1.2036266
1.1884577
1.173295
1.1581376
1.1429848
1.1278357
1.1126895
1.0975457
1.0824036
1.0672628
1.0521229
1.0369837
1.0218448
1.0067062
0.99156767
0.97642924
0.96129083
0.94615243
0.93101402
0.9158756
0.90073718
0.88559875
0.87046031
0.85532188
0.84018344
0.825045
0.80990656
0.79476812
0.77962968
0.76449124
0.7493528
0.73421436
0.71907592
0.70393748
0.68879904
0.6736606
0.65852216
0.64338372
0.62824528
0.61310684
0.5979684
0.58282995
0.56769151
0.55255307
0.53741463
0.52227619
0.50713774
0.4919993
0.47686086
0.46172242
0.44658397
0.43144553
0.41630709
0.40116865
0.38603021
0.37089177
0.35575333
0.34061489
0.32547645
0.31033801
0.29519957
0.28006113
0.26492269
0.24978425
0.23464581
0.21950737
0.20436893
0.18923049
0.17409205
0.15895361
0.14381517
0.12867673
0.11353829
0.098399846
0.083261404
0.068122963
0.052984522
0.037846083
0.022707645
0.0075692118
1.5137229
1.4966208
1.4805241
1.464727
1.4489709
1.4332744
1.4176771
1.402173
1.3867369
1.3713485
1.355997
1.3406766
1.3253828
1.3101116
1.2948598
1.2796247
1.2644041
1.2491962
1.2339996
1.2188127
1.2036346
1.1884639
1.1732998
1.1581413
1.1429875
1.1278376
1.1126908
1.0975465
1.0824041
1.0672631
1.0521231
1.0369838
1.0218448
1.0067062
0.99156767
0.97642923
0.96129082
0.94615242
0.93101401
0.9158756
0.90073718
0.88559875
0.87046031
0.85532188
0.84018344
0.825045
0.80990656
0.79476812
0.77962968
0.76449124
0.7493528
0.73421436
0.71907592
0.70393748
0.68879904
0.6736606
0.65852216
0.64338372
0.62824528
0.61310684
0.5979684
0.58282995
0.56769151
0.55255307
0.53741463
0.52227619
0.50713774
0.4919993
0.47686086
0.46172242
0.44658397
0.43144553
0.41630709
0.40116865
0.38603021
0.37089177
0.35575333
0.34061489
0.32547645
0.31033801
0.29519957
0.28006113
0.26492269
0.24978425
0.23464581
0.21950737
0.20436893
0.18923049
0.17409205
0.15895361
0.14381517
0.12867673
0.11353829
0.098399845
0.083261404
0.068122963
0.052984521
0.037846081
0.022707641
0.0075692084
1.5129895
1.49576
1.4801273
1.4647281
1.4491054
1.4333914
1.4177562
1.4022364
1.3867969
1.371404
1.3560444
1.3407153
1.3254144
1.310138
1.294882
1.2796433
1.2644197
1.2492093
1.2340105
1.2188218
1.2036421
1.18847
1.1733047
1.1581452
1.1429905
1.1278399
1.1126926
1.0975478
1.0824051
1.0672638
1.0521235
1.036984
1.021845
1.0067063
0.99156773
0.97642926
0.96129083
0.94615242
0.93101402
0.9158756
0.90073718
0.88559875
0.87046031
0.85532188
0.84018344
0.825045
0.80990656
0.79476812
0.77962968
0.76449124
0.7493528
0.73421436
0.71907592
0.70393748
0.68879904
0.6736606
0.65852216
0.64338372
0.62824528
0.61310684
0.5979684
0.58282995
0.56769151
0.55255307
0.53741463
0.52227619
0.50713774
0.4919993
0.47686086
0.46172242
0.44658397
0.43144553
0.41630709
0.40116865
0.38603021
0.37089177
0.35575333
0.34061489
0.32547645
0.31033801
0.29519957
0.28006113
0.26492269
0.24978425
0.23464581
0.21950737
0.20436893
0.18923049
0.17409205
0.15895361
0.14381517
0.12867673
0.11353829
0.098399845
0.083261403
0.068122961
0.052984518
0.037846077
0.022707635
0.0075692043
1.5123136
1.4949002
1.4796598
1.4646631
1.4492079
1.4334966
1.4178284
1.4022947
1.3868555
1.3714615
1.3560955
1.3407579
1.3254496
1.3101676
1.2949072
1.2796649
1.2644381
1.249225
1.2340239
1.2188333
1.2036518
1.1884783
1.1733117
1.158151
1.1429953
1.1278438
1.1126956
1.0975502
1.0824068
1.0672651
1.0521245
1.0369847
1.0218454
1.0067066
0.99156789
0.97642936
0.96129089
0.94615245
0.93101403
0.9158756
0.90073718
0.88559875
0.87046031
0.85532187
0.84018344
0.825045
0.80990656
0.79476812
0.77962968
0.76449124
0.7493528
0.73421436
0.71907592
0.70393748
0.68879904
0.6736606
0.65852216
0.64338372
0.62824528
0.61310684
0.5979684
0.58282995
0.56769151
0.55255307
0.53741463
0.52227619
0.50713774
0.4919993
0.47686086
0.46172242
0.44658397
0.43144553
0.41630709
0.40116865
0.38603021
0.37089177
0.35575333
0.34061489
0.32547645
0.31033801
0.29519957
0.28006113
0.26492269
0.24978425
0.23464581
0.21950737
0.20436893
0.18923049
0.17409205
0.15895361
0.14381517
0.12867673
0.11353829
0.098399844
0.083261402
0.068122959
0.052984515
0.037846073
0.02270763
0.007569201
1.5119287
1.4943891
1.4793622
1.464608
1.449265
1.4335616
1.4178741
1.4023318
1.3868936
1.3715002
1.3561308
1.3407879
1.3254748
1.3101891
1.2949258
1.279681
1.264452
1.249237
1.2340342
1.2188423
1.2036596
1.188485
1.1733174
1.1581558
1.1429993
1.127847
1.1126982
1.0975522
1.0824084
1.0672662
1.0521253
1.0369853
1.0218458
1.0067068
0.99156806
0.97642945
0.96129094
0.94615248
0.93101404
0.91587561
0.90073718
0.88559874
0.87046031
0.85532187
0.84018343
0.825045
0.80990656
0.79476812
0.77962968
0.76449124
0.7493528
0.73421436
0.71907592
0.70393748
0.68879904
0.6736606
0.65852216
0.64338372
0.62824528
0.61310684
0.5979684
0.58282995
0.56769151
0.55255307
0.53741463
0.52227619
0.50713774
0.4919993
0.47686086
0.46172242
0.44658397
0.43144553
0.41630709
0.40116865
0.38603021
0.37089177
0.35575333
0.34061489
0.32547645
0.31033801
0.29519957
0.28006113
0.26492269
0.24978425
0.23464581
0.21950737
0.20436893
0.18923049
0.17409205
0.15895361
0.14381517
0.12867673
0.11353829
0.098399843
0.083261401
0.068122958
0.052984513
0.037846071
0.022707627
0.0075691992
1.5119287
1.4943891
1.4793622
1.464608
1.449265
1.4335616
1.4178741
1.4023318
1.3868936
1.3715002
1.3561308
1.3407879
1.3254748
1.3101891
1.2949258
1.279681
1.264452
1.249237
1.2340342
1.2188423
1.2036596
1.188485
1.1733174
1.1581558
1.1429993
1.127847
1.1126982
1.0975522
1.0824084
1.0672662
1.0521253
1.0369853
1.0218458
1.0067068
0.99156806
0.97642945
0.96129094
0.94615248
0.93101404
0.91587561
0.90073718
0.88559874
0.87046031
0.85532187
0.84018343
0.825045
0.80990656
0.79476812
0.77962968
0.76449124
0.7493528
0.73421436
0.71907592
0.70393748
0.68879904
0.6736606
0.65852216
0.64338372
0.62824528
0.61310684
0.5979684
0.58282995
0.56769151
0.55255307
0.53741463
0.52227619
0.50713774
0.4919993
0.47686086
0.46172242
0.44658397
0.43144553
0.41630709
0.40116865
0.38603021
0.37089177
0.35575333
0.34061489
0.32547645
0.31033801
0.29519957
0.28006113
0.26492269
0.24978425
0.23464581
0.21950737
0.20436893
0.18923049
0.17409205
0.15895361
0.14381517
0.12867673
0.11353828
0.098399843
0.0832614
0.068122958
0.052984513
0.037846071
0.022707627
0.0075691991
1.5123136
1.4949002
1.4796598
1.4646631
1.4492079
1.4334966
1.4178284
1.4022947
1.3868555
1.3714615
1.3560955
1.3407579
1.3254496
1.3101676
1.2949072
1.2796649
1.2644381
1.249225
1.2340239
1.2188333
1.2036518
1.1884783
1.1733117
1.158151
1.1429953
1.1278438
1.1126956
1.0975502
1.0824068
1.0672651
1.0521245
1.0369847
1.0218454
1.0067066
0.99156789
0.97642936
0.96129089
0.94615245
0.93101403
0.91587561
0.90073718
0.88559875
0.87046031
0.85532188
0.84018344
0.825045
0.80990656
0.79476812
0.77962968
0.76449124
0.7493528
0.73421436
0.71907592
0.70393748
0.68879904
0.6736606
0.65852216
0.64338372
0.62824528
0.61310684
0.5979684
0.58282995
0.56769151
0.55255307
0.53741463
0.52227619
0.50713774
0.4919993
0.47686086
0.46172242
0.44658397
0.43144553
0.41630709
0.40116865
0.38603021
0.37089177
0.35575333
0.34061489
0.32547645
0.31033801
0.29519957
0.28006113
0.26492269
0.24978425
0.23464581
0.21950737
0.20436893
0.18923049
0.17409205
0.15895361
0.14381517
0.12867673
0.11353828
0.098399843
0.083261401
0.068122958
0.052984515
0.037846073
0.022707629
0.0075692007
1.5129895
1.49576
1.4801273
1.4647281
1.4491054
1.4333914
1.4177562
1.4022364
1.3867969
1.371404
1.3560444
1.3407153
1.3254144
1.310138
1.294882
1.2796433
1.2644197
1.2492093
1.2340105
1.2188218
1.2036421
1.18847
1.1733047
1.1581452
1.1429905
1.1278399
1.1126926
1.0975478
1.0824051
1.0672638
1.0521235
1.036984
1.021845
1.0067063
0.99156773
0.97642926
0.96129084
0.94615243
0.93101402
0.9158756
0.90073718
0.88559875
0.87046032
0.85532188
0.84018344
0.825045
0.80990656
0.79476812
0.77962968
0.76449124
0.7493528
0.73421436
0.71907592
0.70393748
0.68879904
0.6736606
0.65852216
0.64338372
0.62824528
0.61310684
0.5979684
0.58282995
0.56769151
0.55255307
0.53741463
0.52227619
0.50713774
0.4919993
0.47686086
0.46172242
0.44658397
0.43144553
0.41630709
0.40116865
0.38603021
0.37089177
0.35575333
0.34061489
0.32547645
0.31033801
0.29519957
0.28006113
0.26492269
0.24978425
0.23464581
0.21950737
0.20436893
0.18923049
0.17409205
0.15895361
0.14381517
0.12867673
0.11353828
0.098399844
0.083261402
0.06812296
0.052984518
0.037846077
0.022707634
0.0075692039
1.5137229
1.4966208
1.4805242
1.464727
1.4489709
1.4332744
1.4176771
1.402173
1.3867369
1.3713485
1.355997
1.3406766
1.3253828
1.3101116
1.2948598
1.2796247
1.2644041
1.2491962
1.2339996
1.2188127
1.2036345
1.1884639
1.1732998
1.1581413
1.1429875
1.1278376
1.1126908
1.0975465
1.0824041
1.0672631
1.0521231
1.0369838
1.0218448
1.0067062
0.99156767
0.97642923
0.96129083
0.94615243
0.93101402
0.9158756
0.90073718
0.88559875
0.87046032
0.85532188
0.84018344
0.825045
0.80990656
0.79476812
0.77962968
0.76449124
0.7493528
0.73421436
0.71907592
0.70393748
0.68879904
0.6736606
0.65852216
0.64338372
0.62824528
0.61310684
0.5979684
0.58282995
0.56769151
0.55255307
0.53741463
0.52227619
0.50713774
0.4919993
0.47686086
0.46172242
0.44658397
0.43144553
0.41630709
0.40116865
0.38603021
0.37089177
0.35575333
0.34061489
0.32547645
0.31033801
0.29519957
0.28006113
0.26492269
0.24978425
0.23464581
0.21950737
0.20436893
0.18923049
0.17409205
0.15895361
0.14381517
0.12867673
0.11353829
0.098399844
0.083261403
0.068122962
0.052984521
0.037846081
0.022707641
0.0075692081
1.5141612
1.4970717
1.4806316
1.4645964
1.4487907
1.4331271
1.4175647
1.4020806
1.3866575
1.3712815
1.355942
1.3406317
1.3253459
1.310081
1.2948342
1.2796033
1.2643863
1.2491815
1.2339874
1.2188029
1.2036266
1.1884577
1.173295
1.1581376
1.1429848
1.1278357
1.1126895
1.0975457
1.0824036
1.0672628
1.0521229
1.0369837
1.0218448
1.0067062
0.99156768
0.97642925
0.96129084
0.94615243
0.93101402
0.91587561
0.90073718
0.88559875
0.87046032
0.85532188
0.84018344
0.825045
0.80990656
0.79476812
0.77962968
0.76449124
0.7493528
0.73421436
0.71907592
0.70393748
0.68879904
0.6736606
0.65852216
0.64338372
0.62824528
0.61310684
0.5979684
0.58282995
0.56769151
0.55255307
0.53741463
0.52227619
0.50713774
0.4919993
0.47686086
0.46172242
0.44658397
0.43144553
0.41630709
0.40116865
0.38603021
0.37089177
0.35575333
0.34061489
0.32547645
0.31033801
0.29519957
0.28006113
0.26492269
0.24978425
0.23464581
0.21950737
0.20436893
0.18923049
0.17409205
0.15895361
0.14381517
0.12867673
0.11353829
0.098399844
0.083261403
0.068122962
0.052984522
0.037846083
0.022707645
0.0075692117
)
;

boundaryField
{
    top
    {
        type            zeroGradient;
    }
    inlet
    {
        type            fixedValue;
        value           uniform 1.523;
    }
    outlet
    {
        type            fixedValue;
        value           uniform 0;
    }
    bottom
    {
        type            zeroGradient;
    }
    back
    {
        type            empty;
    }
    front
    {
        type            empty;
    }
}


// ************************************************************************* //
