/*--------------------------------*- C++ -*----------------------------------*\
| =========                 |                                                 |
| \\      /  F ield         | OpenFOAM: The Open Source CFD Toolbox           |
|  \\    /   O peration     | Version:  v1812                                 |
|   \\  /    A nd           | Web:      www.OpenFOAM.com                      |
|    \\/     M anipulation  |                                                 |
\*---------------------------------------------------------------------------*/
FoamFile
{
    version     2.0;
    format      ascii;
    class       surfaceScalarField;
    location    "1.8";
    object      phi;
}
// * * * * * * * * * * * * * * * * * * * * * * * * * * * * * * * * * * * * * //

dimensions      [0 3 -1 0 0 0 0];
oriented        oriented;


internalField   nonuniform List<scalar> 
1890
(
0.0093061903
0.00069381016
0.0082844743
0.0010217162
0.0073303305
0.00095414336
0.0064880468
0.00084228328
0.0057719033
0.00071614336
0.0051941852
0.00057771824
0.0047451417
0.0004490434
0.0044053192
0.00033982211
0.0041539557
0.0002513631
0.0039717361
0.00018221958
0.0038414022
0.00013033418
0.0037487262
9.2676417e-05
0.0036831494
6.5577219e-05
0.0036372057
4.5943865e-05
0.0036054545
3.1751084e-05
0.0035838121
2.1642215e-05
0.0035693201
1.449169e-05
0.0035598841
9.4356808e-06
0.0035539867
5.8971686e-06
0.0035504816
3.5050089e-06
0.0035485301
1.9513829e-06
0.0035475436
9.8659079e-07
0.0035471352
4.0853188e-07
0.0035470172
1.1809868e-07
0.0035470364
-1.9063413e-08
0.0035471118
-7.523843e-08
0.0035472019
-9.0158414e-08
0.0035472829
-8.1034421e-08
0.0035473461
-6.3293659e-08
0.0035473911
-4.5041777e-08
0.0035474207
-2.9786045e-08
0.003547439
-1.8411485e-08
0.0035474495
-1.0597233e-08
0.0035474551
-5.6243942e-09
0.0035474577
-2.6823127e-09
0.0035474587
-1.0529519e-09
0.0035474589
-2.4230594e-10
0.0035474589
7.3923523e-11
0.0035474587
1.9134131e-10
0.0035474585
2.1136096e-10
0.0035474583
1.808988e-10
0.0035474581
1.4318877e-10
0.003547458
1.0378073e-10
0.003547458
7.770667e-11
0.0035474579
5.456246e-11
0.0035474579
4.3365368e-11
0.0035474578
3.1209633e-11
0.0035474578
2.7690171e-11
0.0035474578
2.0634779e-11
0.0035474578
2.023597e-11
0.0035474578
1.4893112e-11
0.0035474578
1.554572e-11
0.0035474577
1.1014983e-11
0.0035474577
1.2172109e-11
0.0035474577
7.8945702e-12
0.0035474577
9.2457278e-12
0.0035474577
5.4552764e-12
0.0035474577
7.0148557e-12
0.0035474577
3.5634163e-12
0.0035474577
5.0676684e-12
0.0035474577
2.3575189e-12
0.0035474577
3.5826029e-12
0.0035474577
1.9884993e-12
0.0035474577
1.5319923e-12
0.0035474577
3.6584693e-12
0.0035474577
-2.9377713e-12
0.0035474577
1.0497775e-11
0.0035474577
-1.6335005e-11
0.0035474577
3.345826e-11
0.0035474577
-5.6581524e-11
0.0035474576
9.98815e-11
0.0035474578
-1.6596847e-10
0.0035474575
2.7190043e-10
0.0035474579
-4.2989057e-10
0.0035474573
6.6270205e-10
0.0035474583
-9.8095385e-10
0.0035474569
1.4089468e-09
0.0035474588
-1.9139442e-09
0.0035474563
2.4959741e-09
0.0035474593
-2.9976253e-09
0.0035474559
3.3374617e-09
0.0035474591
-3.1665285e-09
0.0035474568
2.3241093e-09
0.0035474571
-3.6302598e-10
0.0035474597
-2.5906357e-09
0.003547453
6.7026497e-09
0.0035474637
-1.068928e-08
0.0035474494
1.4375044e-08
0.0035474638
-1.4376753e-08
0.0035474515
1.2275665e-08
0.0035474548
-3.2643281e-09
0.003547458
-3.176858e-09
0.003547441
1.7006209e-08
0.0035474526
-1.1659886e-08
0.0035474285
2.3942907e-08
0.0035474243
4.1234903e-09
0.0035474014
2.2914077e-08
0.0035473823
1.9259945e-08
0.003547348
3.4469605e-08
3.0418895e-08
0.010339553
0.00035425787
0.010570846
0.00079042364
0.010606656
0.00091833227
0.010548163
0.00090077569
0.010423176
0.00084113052
0.010246222
0.00075467293
0.010043327
0.00065193784
0.0098356297
0.0005475189
0.0096361084
0.00045088392
0.009452444
0.00036588381
0.0092888655
0.00029391296
0.00914717
0.00023437237
0.0090277192
0.00018502828
0.0089299324
0.00014373076
0.008852315
0.0001093684
0.0087926095
8.1347436e-05
0.0087481226
5.8978344e-05
0.0087160785
4.1479355e-05
0.0086938229
2.8152537e-05
0.0086789689
1.8358774e-05
0.0086694816
1.1438631e-05
0.0086637144
6.7537853e-06
0.0086604039
3.7191941e-06
0.0086586585
1.8636178e-06
0.0086578492
7.903386e-07
0.0086575531
2.2101517e-07
0.008657509
-4.605226e-08
0.0086575705
-1.425991e-07
0.0086576616
-1.5456131e-07
0.0086577473
-1.3082612e-07
0.0086578148
-9.7432072e-08
0.0086578628
-6.6434009e-08
0.0086578942
-4.2155461e-08
0.0086579136
-2.5034958e-08
0.0086579247
-1.3870575e-08
0.0086579307
-7.0719865e-09
0.0086579336
-3.2029131e-09
0.0086579349
-1.1753317e-09
0.0086579352
-1.8668364e-10
0.0086579352
2.1652805e-10
0.0086579351
3.3243696e-10
0.0086579349
3.218928e-10
0.0086579348
2.6999494e-10
0.0086579346
2.1169096e-10
0.0086579345
1.6382018e-10
0.0086579345
1.2639331e-10
0.0086579344
1.0072504e-10
0.0086579343
8.1543333e-11
0.0086579343
6.9186204e-11
0.0086579343
5.882621e-11
0.0086579342
5.1884009e-11
0.0086579342
4.4942373e-11
0.0086579342
4.0300374e-11
0.0086579341
3.4811804e-11
0.0086579341
3.1030705e-11
0.0086579341
2.6308347e-11
0.0086579341
2.3454417e-11
0.0086579341
1.942559e-11
0.0086579341
1.7272478e-11
0.0086579341
1.3617968e-11
0.008657934
1.2879569e-11
0.008657934
8.8419984e-12
0.008657934
1.075113e-11
0.008657934
3.1939936e-12
0.008657934
1.3501499e-11
0.008657934
-7.7392874e-12
0.008657934
2.8709507e-11
0.008657934
-3.84864e-11
0.008657934
7.8731559e-11
0.008657934
-1.2512572e-10
0.0086579339
2.1925912e-10
0.0086579341
-3.5207422e-10
0.0086579338
5.7002698e-10
0.0086579343
-8.7776933e-10
0.0086579336
1.3278376e-09
0.0086579345
-1.9119674e-09
0.0086579333
2.6692435e-09
0.0086579349
-3.494025e-09
0.008657933
4.3520284e-09
0.0086579349
-4.8942805e-09
0.0086579333
4.9398749e-09
0.0086579339
-3.8269788e-09
0.0086579349
1.3581805e-09
0.0086579314
3.1232678e-09
0.0086579377
-8.8583202e-09
0.0086579287
1.5718994e-08
0.0086579387
-2.0711938e-08
0.0086579297
2.3393745e-08
0.0086579333
-1.7982194e-08
0.0086579368
8.8182183e-09
0.0086579224
1.1118363e-08
0.0086579412
-2.1941451e-08
0.0086579184
3.98198e-08
0.0086579298
-2.3116832e-08
0.0086579242
2.9361923e-08
0.008657912
1.6273701e-08
0.0086579178
1.7221364e-08
0.0086579014
3.5861673e-08
0.008657888
4.8028343e-08
3.7360392e-08
0.010188722
0.00016553591
0.010530467
0.00044867924
0.010851299
0.00059750015
0.011123929
0.000628145
0.01135007
0.00061498933
0.011523441
0.00058130224
0.011644775
0.0005306033
0.011722273
0.00047002118
0.011765537
0.00040761923
0.011783026
0.00034839415
0.011781967
0.00029497258
0.011768281
0.00024805851
0.011746604
0.00020670553
0.011720623
0.00016971152
0.011693307
0.00013668481
0.011666893
0.0001077611
0.011642893
8.2977555e-05
0.011622195
6.2177792e-05
0.011605175
4.5172304e-05
0.0115918
3.1733385e-05
0.011581727
2.1511815e-05
0.011574452
1.402801e-05
0.01156941
8.7615588e-06
0.011566065
5.2089272e-06
0.011563939
2.9168772e-06
0.011562648
1.5113242e-06
0.011561904
6.9797689e-07
0.011561502
2.6013193e-07
0.011561301
4.6454683e-08
0.011561212
-4.1924112e-08
0.01156118
-6.6385217e-08
0.011561176
-6.2222121e-08
0.011561182
-4.829489e-08
0.011561191
-3.3554255e-08
0.011561198
-2.1459828e-08
0.011561204
-1.2760059e-08
0.011561208
-7.0447319e-09
0.01156121
-3.5579306e-09
0.011561211
-1.5777621e-09
0.011561212
-5.2861805e-10
0.011561213
-2.7980889e-11
0.011561213
1.7696943e-10
0.011561213
2.37549e-10
0.011561213
2.3262141e-10
0.011561213
2.07171e-10
0.011561213
1.76006e-10
0.011561213
1.5009434e-10
0.011561213
1.2741796e-10
0.011561213
1.111866e-10
0.011561213
9.6494346e-11
0.011561213
8.6151021e-11
0.011561213
7.5694225e-11
0.011561212
6.8259651e-11
0.011561212
5.966989e-11
0.011561212
5.362542e-11
0.011561212
4.6295934e-11
0.011561212
4.143795e-11
0.011561212
3.4945971e-11
0.011561212
3.1203737e-11
0.011561212
2.545188e-11
0.011561212
2.3553301e-11
0.011561212
1.7281919e-11
0.011561212
1.907505e-11
0.011561212
8.5878492e-12
0.011561212
2.1147136e-11
0.011561212
-6.4394894e-12
0.011561212
3.8659525e-11
0.011561212
-4.453374e-11
0.011561212
9.7742367e-11
0.011561212
-1.4721505e-10
0.011561212
2.6010585e-10
0.011561212
-4.0510443e-10
0.011561212
6.4996305e-10
0.011561212
-9.7432323e-10
0.011561212
1.445132e-09
0.011561212
-2.015365e-09
0.011561212
2.7243183e-09
0.011561212
-3.4000356e-09
0.011561213
3.9926927e-09
0.011561212
-4.0687961e-09
0.011561213
3.4698633e-09
0.011561211
-1.5041458e-09
0.011561214
-1.787595e-09
0.01156121
6.8134242e-09
0.011561214
-1.2329905e-08
0.011561212
1.7829451e-08
0.011561211
-1.973091e-08
0.011561216
1.7991416e-08
0.011561206
-7.3838091e-09
0.01156122
-5.3543663e-09
0.011561206
2.4622238e-08
0.011561214
-2.9893769e-08
0.011561217
3.7418418e-08
0.011561206
-1.2632536e-08
0.011561224
1.1263205e-08
0.011561212
2.773268e-08
0.01156122
9.9277819e-09
0.01156123
2.5910283e-08
0.011561234
4.3740822e-08
2.8005867e-08
0.010097173
6.8363342e-05
0.010346894
0.0001989583
0.010662161
0.00028223312
0.010982085
0.00030822021
0.011289007
0.00030806729
0.011572869
0.00029744092
0.01182475
0.00027872229
0.012041067
0.00025370311
0.012222834
0.000225852
0.01237315
0.00019807833
0.012495938
0.00017218479
0.012595224
0.00014877319
0.01267443
0.0001274991
0.012736353
0.00010778883
0.012783544
8.9494549e-05
0.012818485
7.2819441e-05
0.012843514
5.7948138e-05
0.012860739
4.495298e-05
0.012872028
3.3882702e-05
0.012879
2.4761735e-05
0.012882991
1.7520528e-05
0.012885036
1.1982602e-05
0.012885898
7.900574e-06
0.012886099
5.0077645e-06
0.012885977
3.0387205e-06
0.012885734
1.7543519e-06
0.012885479
9.5313515e-07
0.01288526
4.7892353e-07
0.012885093
2.1390312e-07
0.012884975
7.6296277e-08
0.012884896
1.1855297e-08
0.012884847
-1.327821e-08
0.012884818
-1.9343383e-08
0.012884802
-1.7404626e-08
0.012884794
-1.3045201e-08
0.01288479
-8.7505015e-09
0.012884788
-5.3787448e-09
0.012884787
-3.0437776e-09
0.012884787
-1.5630748e-09
0.012884788
-6.8802881e-10
0.012884788
-2.1157432e-10
0.012884788
2.9934649e-11
0.012884788
1.3683328e-10
0.012884788
1.709938e-10
0.012884788
1.7644361e-10
0.012884788
1.6420338e-10
0.012884788
1.5191044e-10
0.012884788
1.3505376e-10
0.012884788
1.2339576e-10
0.012884788
1.0903303e-10
0.012884788
1.0025419e-10
0.012884788
8.8303937e-11
0.012884788
8.1275497e-11
0.012884788
7.0803281e-11
0.012884788
6.5199852e-11
0.012884788
5.5907899e-11
0.012884788
5.1222851e-11
0.012884788
4.2854278e-11
0.012884788
3.9461689e-11
0.012884788
3.1970873e-11
0.012884788
3.0002123e-11
0.012884788
2.2558334e-11
0.012884788
2.3702813e-11
0.012884788
1.3779268e-11
0.012884788
2.2422892e-11
0.012884788
1.4378173e-12
0.012884788
3.2462629e-11
0.012884788
-2.5509858e-11
0.012884788
7.0174469e-11
0.012884788
-9.3704988e-11
0.012884788
1.743348e-10
0.012884788
-2.5812602e-10
0.012884788
4.1808766e-10
0.012884788
-6.0720276e-10
0.012884788
8.948405e-10
0.012884788
-1.2084935e-09
0.012884789
1.6033143e-09
0.012884787
-1.9111936e-09
0.012884789
2.147749e-09
0.012884787
-1.970136e-09
0.012884789
1.3767921e-09
0.012884787
1.0629118e-10
0.012884788
-2.2371926e-09
0.012884789
5.2755736e-09
0.012884785
-8.1444151e-09
0.012884792
1.0573452e-08
0.012884783
-1.0215312e-08
0.012884793
7.5370418e-09
0.012884786
2.8326006e-10
0.012884789
-8.0976076e-09
0.012884795
1.8199936e-08
0.012884783
-1.8333281e-08
0.012884802
1.8667746e-08
0.012884791
-1.43983e-09
0.012884801
6.3461764e-10
0.012884811
1.8457586e-08
0.012884814
6.402165e-09
0.01288483
9.9781174e-09
0.012884848
2.5908338e-08
1.4655312e-08
0.010068364
-8.0949119e-11
0.010267323
-3.1241151e-10
0.010549556
-3.9492448e-10
0.010857776
-3.5473833e-10
0.011165844
-2.4676541e-10
0.011463285
-1.6094099e-10
0.011742007
-1.6709896e-10
0.01199571
-2.290173e-10
0.012221562
-2.9522495e-10
0.012419641
-3.1395419e-10
0.012591826
-3.2520785e-10
0.0127406
-3.4451541e-10
0.0128681
-3.7867872e-10
0.01297589
-3.9369394e-10
0.013065385
-3.8078779e-10
0.013138205
-3.3818504e-10
0.013196153
-2.9208612e-10
0.013241106
-2.4291772e-10
0.013274989
-2.2631847e-10
0.01329975
-2.3605996e-10
0.013317271
-2.7655595e-10
0.013329254
-3.4081684e-10
0.013337155
-4.1659825e-10
0.013342164
-4.7165221e-10
0.013345203
-4.9560896e-10
0.013346958
-4.8601231e-10
0.013347912
-4.3431164e-10
0.013348391
-3.4963909e-10
0.013348605
-2.5215727e-10
0.013348682
-1.5346611e-10
0.013348693
-6.7144621e-11
0.01334868
2.9691109e-12
0.013348661
5.0824993e-11
0.013348643
8.4386085e-11
0.01334863
1.0004417e-10
0.013348621
1.1163374e-10
0.013348616
1.145214e-10
0.013348613
1.2018163e-10
0.013348611
1.2038279e-10
0.01334861
1.2683021e-10
0.01334861
1.2724782e-10
0.01334861
1.3278738e-10
0.01334861
1.307102e-10
0.01334861
1.3197381e-10
0.01334861
1.2599915e-10
0.01334861
1.2403162e-10
0.01334861
1.1522964e-10
0.01334861
1.1081382e-10
0.01334861
1.0033791e-10
0.01334861
9.532327e-11
0.01334861
8.4853601e-11
0.01334861
7.9933612e-11
0.01334861
6.9806477e-11
0.01334861
6.5692901e-11
0.01334861
5.6497314e-11
0.01334861
5.2989409e-11
0.01334861
4.4407998e-11
0.01334861
4.1823297e-11
0.01334861
3.4259491e-11
0.01334861
3.2348255e-11
0.01334861
2.549806e-11
0.01334861
2.4575332e-11
0.01334861
1.8836172e-11
0.01334861
1.8617076e-11
0.01334861
1.3653199e-11
0.01334861
1.4332603e-11
0.01334861
1.0277357e-11
0.01334861
1.143572e-11
0.01334861
7.7485633e-12
0.01334861
9.6615722e-12
0.01334861
6.6400864e-12
0.01334861
8.9413212e-12
0.01334861
6.4012689e-12
0.01334861
9.6816077e-12
0.013348611
8.3811086e-12
0.013348609
1.2820256e-11
0.013348611
1.2755467e-11
0.013348609
1.8675117e-11
0.013348611
1.9959733e-11
0.013348609
2.651218e-11
0.013348611
2.8046132e-11
0.013348611
3.4786208e-11
0.013348608
3.5381201e-11
0.013348614
4.2982512e-11
0.013348605
4.2844316e-11
0.013348616
4.9614458e-11
0.013348606
4.8018237e-11
0.013348613
5.0801232e-11
0.013348613
4.4984282e-11
0.013348605
4.4297787e-11
0.013348623
4.2551476e-11
0.013348605
4.9622568e-11
0.013348624
6.2707298e-11
0.013348622
7.6701845e-11
0.013348622
7.5665505e-11
0.013348641
6.9223834e-11
0.013348647
6.2683534e-11
0.013348657
5.7200895e-11
0.013348683
5.2122789e-11
2.6963029e-11
0.010068364
-6.8363548e-05
0.010267323
-0.00019895892
0.010549556
-0.00028223388
0.010857776
-0.00030822086
0.011165844
-0.00030806773
0.011463285
-0.00029744123
0.011742008
-0.00027872264
0.01199571
-0.00025370358
0.012221562
-0.00022585256
0.012419641
-0.00019807893
0.012591826
-0.00017218542
0.0127406
-0.00014877389
0.0128681
-0.00012749986
0.01297589
-0.00010778963
0.013065385
-8.9495312e-05
0.013138205
-7.2820121e-05
0.013196153
-5.7948707e-05
0.013241106
-4.4953445e-05
0.013274988
-3.3883109e-05
0.01329975
-2.4762175e-05
0.013317271
-1.7521018e-05
0.013329254
-1.1983232e-05
0.013337155
-7.9013548e-06
0.013342163
-5.0086503e-06
0.013345203
-3.0396459e-06
0.013346958
-1.7552557e-06
0.013347911
-9.5393191e-07
0.01334839
-4.7955304e-07
0.013348605
-2.1434764e-07
0.013348681
-7.6555024e-08
0.013348693
-1.195545e-08
0.013348679
1.3304549e-08
0.01334866
1.9454551e-08
0.013348643
1.7570973e-08
0.013348629
1.3237889e-08
0.013348621
8.958371e-09
0.013348615
5.591266e-09
0.013348612
3.2639728e-09
0.01334861
1.7825497e-09
0.01334861
9.1708525e-10
0.013348609
4.4177318e-10
0.013348609
2.1003151e-10
0.013348609
1.0138361e-10
0.013348609
6.5877725e-11
0.01334861
5.1944891e-11
0.01334861
5.7559547e-11
0.01334861
5.5879202e-11
0.01334861
6.1823887e-11
0.01334861
5.7074838e-11
0.01334861
5.945245e-11
0.01334861
5.1819319e-11
0.01334861
5.2157072e-11
0.01334861
4.3757247e-11
0.01334861
4.4100655e-11
0.01334861
3.5806996e-11
0.01334861
3.6156482e-11
0.01334861
2.8338425e-11
0.01334861
2.9376245e-11
0.01334861
2.1922559e-11
0.01334861
2.3345036e-11
0.01334861
1.6029582e-11
0.01334861
1.910403e-11
0.01334861
1.049625e-11
0.01334861
1.7251418e-11
0.01334861
2.8693688e-12
0.01334861
2.2296899e-11
0.01334861
-1.3126415e-11
0.01334861
4.4289538e-11
0.01334861
-5.513445e-11
0.01334861
1.0967677e-10
0.01334861
-1.6126205e-10
0.01334861
2.730257e-10
0.01334861
-4.0503178e-10
0.01334861
6.2391583e-10
0.013348611
-8.7794864e-10
0.013348609
1.2313966e-09
0.013348611
-1.577879e-09
0.013348609
1.9456173e-09
0.013348611
-2.108861e-09
0.013348609
2.0191328e-09
0.013348611
-1.3226302e-09
0.013348611
-4.1212591e-11
0.013348608
2.3034961e-09
0.013348614
-5.1965285e-09
0.013348605
8.224648e-09
0.013348616
-1.0484434e-08
0.013348606
1.0305653e-08
0.013348613
-7.4455723e-09
0.013348613
-1.9972736e-10
0.013348605
8.1804569e-09
0.013348623
-1.8121019e-08
0.013348605
1.8429417e-08
0.013348624
-1.8546336e-08
0.013348622
1.5844162e-09
0.013348623
-4.9189416e-10
0.013348641
-1.8329115e-08
0.013348647
-6.2914526e-09
0.013348657
-9.8733619e-09
0.013348683
-2.5828421e-08
-1.4613002e-08
0.010097173
-0.00016553611
0.010346894
-0.00044867976
0.010662161
-0.00059750074
0.010982086
-0.00062814552
0.011289008
-0.00061498971
0.011572869
-0.00058130252
0.01182475
-0.00053060357
0.012041067
-0.00047002154
0.012222834
-0.00040761968
0.01237315
-0.00034839465
0.012495937
-0.00029497312
0.012595223
-0.0002480591
0.01267443
-0.0002067062
0.012736353
-0.00016971222
0.012783543
-0.00013668549
0.012818485
-0.00010776168
0.012843514
-8.2978008e-05
0.012860738
-6.217814e-05
0.012872028
-4.5172572e-05
0.012878999
-3.173369e-05
0.01288299
-2.151217e-05
0.012885036
-1.4028521e-05
0.012885897
-8.7621782e-06
0.012886098
-5.2096417e-06
0.012885976
-2.9176304e-06
0.012885733
-1.5120261e-06
0.012885478
-6.9857041e-07
0.012885259
-2.6058383e-07
0.012885091
-4.6746934e-08
0.012884973
4.1776364e-08
0.012884894
6.6362069e-08
0.012884845
6.2282883e-08
0.012884816
4.8416129e-08
0.0128848
3.3699131e-08
0.012884792
2.1622859e-08
0.012884788
1.2921001e-08
0.012884786
7.2076772e-09
0.012884786
3.7183184e-09
0.012884786
1.7429329e-09
0.012884786
6.9239388e-10
0.012884787
2.017379e-10
0.012884787
-8.3515457e-12
0.012884787
-6.2566507e-11
0.012884787
-6.7683866e-11
0.012884787
-4.1443924e-11
0.012884788
-2.3261082e-11
0.012884788
-1.1983536e-12
0.012884788
5.3722367e-12
0.012884788
1.7534998e-11
0.012884788
1.512852e-11
0.012884788
2.1477601e-11
0.012884788
1.5609218e-11
0.012884788
2.027623e-11
0.012884788
1.3791558e-11
0.012884788
1.7745308e-11
0.012884788
1.1225032e-11
0.012884788
1.5225057e-11
0.012884788
9.1553312e-12
0.012884788
1.2634323e-11
0.012884788
7.1830702e-12
0.012884788
1.0001597e-11
0.012884788
6.5206375e-12
0.012884788
6.3007359e-12
0.012884788
8.4243402e-12
0.012884788
-1.7770744e-12
0.012884788
1.8600622e-11
0.012884788
-2.2459913e-11
0.012884788
5.2952801e-11
0.012884788
-8.3197675e-11
0.012884788
1.5403391e-10
0.012884788
-2.4656993e-10
0.012884788
4.1163552e-10
0.012884788
-6.3540754e-10
0.012884788
9.831327e-10
0.012884788
-1.4268924e-09
0.012884788
2.02952e-09
0.012884789
-2.6981322e-09
0.012884787
3.4238164e-09
0.012884789
-3.9556593e-09
0.012884787
4.1038922e-09
0.012884789
-3.4217814e-09
0.012884787
1.5477838e-09
0.012884788
1.8520554e-09
0.012884789
-6.7583029e-09
0.012884785
1.2393573e-08
0.012884793
-1.7767223e-08
0.012884783
1.9801442e-08
0.012884794
-1.7927794e-08
0.012884786
7.4472865e-09
0.012884789
5.4264724e-09
0.012884795
-2.455672e-08
0.012884784
2.9963719e-08
0.012884802
-3.7312258e-08
0.012884791
1.2746124e-08
0.012884802
-1.1142566e-08
0.012884811
-2.7641865e-08
0.012884814
-9.8597481e-09
0.012884831
-2.5856662e-08
0.012884849
-4.3693835e-08
-2.7980051e-08
0.010188723
-0.00035425792
0.010530467
-0.00079042387
0.010851299
-0.00091833261
0.011123929
-0.00090077602
0.01135007
-0.00084113076
0.011523441
-0.00075467311
0.011644775
-0.00065193802
0.011722272
-0.00054751914
0.011765536
-0.00045088422
0.011783026
-0.00036588413
0.011781966
-0.00029391327
0.01176828
-0.0002343727
0.011746603
-0.00018502864
0.011720622
-0.00014373117
0.011693306
-0.0001093688
0.011666892
-8.1347787e-05
0.011642893
-5.8978598e-05
0.011622194
-4.1479548e-05
0.011605174
-2.8152682e-05
0.011591799
-1.835892e-05
0.011581726
-1.1438855e-05
0.011574451
-6.7540975e-06
0.011569409
-3.7195667e-06
0.011566063
-1.8640248e-06
0.011563937
-7.9080966e-07
0.011562646
-2.2140063e-07
0.011561902
4.5744178e-08
0.011561499
1.4237421e-07
0.011561298
1.5442831e-07
0.011561209
1.3077073e-07
0.011561178
9.7440387e-08
0.011561174
6.6481951e-08
0.01156118
4.2230682e-08
0.011561189
2.51147e-08
0.011561196
1.3953886e-08
0.011561202
7.1596666e-09
0.011561206
3.2832206e-09
0.011561209
1.2580097e-09
0.01156121
2.7499232e-10
0.011561211
-1.329348e-10
0.011561211
-2.4328563e-10
0.011561212
-2.3536519e-10
0.011561212
-1.8098149e-10
0.011561212
-1.2826838e-10
0.011561212
-8.0717739e-11
0.011561212
-5.1172782e-11
0.011561212
-2.7910325e-11
0.011561212
-1.7375354e-11
0.011561212
-7.6702011e-12
0.011561212
-5.7887602e-12
0.011561212
-1.5725671e-12
0.011561212
-2.1086721e-12
0.011561212
6.5872236e-13
0.011561212
-7.6345202e-13
0.011561212
1.3672579e-12
0.011561212
2.0252183e-14
0.011561212
2.09856e-12
0.011561212
3.9889967e-13
0.011561212
2.1047725e-12
0.011561212
7.117381e-13
0.011561212
2.0034152e-12
0.011561212
1.3557443e-12
0.011561212
2.2734729e-13
0.011561212
3.9656167e-12
0.011561212
-4.8401849e-12
0.011561212
1.2774485e-11
0.011561212
-2.1448284e-11
0.011561212
4.2318281e-11
0.011561212
-7.1793231e-11
0.011561212
1.2870872e-10
0.011561212
-2.1246823e-10
0.011561212
3.5641174e-10
0.011561212
-5.6152984e-10
0.011561212
8.8438279e-10
0.011561212
-1.3164654e-09
0.011561212
1.922707e-09
0.011561212
-2.6525773e-09
0.011561212
3.5104198e-09
0.011561213
-4.3297967e-09
0.011561212
4.916437e-09
0.011561213
-4.9121589e-09
0.011561211
3.8542277e-09
0.011561214
-1.3229252e-09
0.01156121
-3.0915114e-09
0.011561214
8.8932522e-09
0.011561212
-1.5682279e-08
0.011561211
2.0752238e-08
0.011561216
-2.3356114e-08
0.011561206
1.8022523e-08
0.01156122
-8.7793297e-09
0.011561207
-1.1077221e-08
0.011561215
2.1988952e-08
0.011561217
-3.9751276e-08
0.011561206
2.3183503e-08
0.011561224
-2.9309637e-08
0.011561213
-1.6242827e-08
0.01156122
-1.7197205e-08
0.01156123
-3.5831399e-08
0.011561235
-4.7994381e-08
-3.7335822e-08
0.010339553
-0.00069380996
0.010570846
-0.0010217161
0.010606656
-0.00095414346
0.010548164
-0.00084228345
0.010423177
-0.00071614353
0.010246222
-0.00057771841
0.010043327
-0.00044904355
0.0098356293
-0.00033982228
0.0096361078
-0.00025136325
0.0094524433
-0.00018221969
0.0092888647
-0.00013033419
0.009147169
-9.2676369e-05
0.0090277183
-6.5577176e-05
0.0089299316
-4.594389e-05
0.0088523143
-3.1751192e-05
0.0087926088
-2.1642364e-05
0.0087481219
-1.4491862e-05
0.0087160778
-9.4358292e-06
0.0086938221
-5.8973003e-06
0.008678968
-3.5051095e-06
0.0086694805
-1.9514808e-06
0.0086637131
-9.8667708e-07
0.0086604024
-4.0861625e-07
0.0086586568
-1.1817996e-07
0.0086578473
1.9004967e-08
0.008657551
7.5170509e-08
0.0086575068
9.0097067e-08
0.0086575683
8.0980391e-08
0.0086576595
6.3244494e-08
0.0086577453
4.5006601e-08
0.0086578129
2.9755357e-08
0.008657861
1.8396853e-08
0.0086578925
1.0586707e-08
0.008657912
5.6248231e-09
0.0086579233
2.6833789e-09
0.0086579294
1.0655622e-09
0.0086579324
2.5315397e-10
0.0086579337
-5.7638596e-11
0.0086579342
-1.7405078e-10
0.0086579343
-1.8685411e-10
0.0086579342
-1.6146654e-10
0.0086579341
-1.1615106e-10
0.008657934
-8.430482e-11
0.008657934
-5.1345248e-11
0.008657934
-3.7388514e-11
0.008657934
-2.0129209e-11
0.0086579339
-1.704582e-11
0.008657934
-7.793217e-12
0.008657934
-9.7899689e-12
0.008657934
-3.6110518e-12
0.008657934
-6.8566958e-12
0.008657934
-1.7198233e-12
0.008657934
-5.3661575e-12
0.008657934
-7.4727279e-13
0.008657934
-4.2191414e-12
0.008657934
3.0355329e-13
0.008657934
-3.5392132e-12
0.008657934
9.6510481e-13
0.008657934
-3.0285348e-12
0.008657934
1.6549359e-12
0.008657934
-2.9333038e-12
0.008657934
2.1256662e-12
0.008657934
-3.4016268e-12
0.008657934
3.5858527e-12
0.008657934
-5.7702022e-12
0.008657934
7.7337328e-12
0.008657934
-1.327847e-11
0.008657934
2.1645175e-11
0.008657934
-3.6528048e-11
0.0086579341
6.235613e-11
0.0086579339
-1.0233223e-10
0.0086579341
1.7286283e-10
0.0086579338
-2.7307764e-10
0.0086579343
4.384124e-10
0.0086579336
-6.621788e-10
0.0086579346
9.9099101e-10
0.0086579333
-1.4076832e-09
0.0086579349
1.9240307e-09
0.0086579331
-2.4951232e-09
0.008657935
3.0071942e-09
0.0086579334
-3.336398e-09
0.0086579341
3.1778779e-09
0.0086579351
-2.3187602e-09
0.0086579316
3.7856513e-10
0.0086579379
2.5995869e-09
0.0086579289
-6.6835003e-09
0.0086579389
1.0699383e-08
0.0086579299
-1.4356163e-08
0.0086579336
1.4386866e-08
0.008657937
-1.2254463e-08
0.0086579227
3.2803428e-09
0.0086579416
3.1991979e-09
0.0086579188
-1.7001232e-08
0.0086579301
1.1658109e-08
0.0086579246
-2.3955597e-08
0.0086579124
-4.1234819e-09
0.0086579182
-2.2896551e-08
0.0086579018
-1.922415e-08
0.0086578884
-3.442051e-08
-3.0393967e-08
0.0093061904
0.0082844744
0.0073303309
0.0064880474
0.0057719038
0.0051941852
0.0047451414
0.0044053187
0.0041539553
0.0039717358
0.003841402
0.003748726
0.0036831492
0.0036372055
0.0036054544
0.0035838119
0.0035693198
0.0035598838
0.0035539863
0.0035504811
0.0035485296
0.003547543
0.0035471345
0.0035470164
0.0035470356
0.0035471109
0.003547201
0.003547282
0.0035473453
0.0035473903
0.00354742
0.0035474384
0.0035474489
0.0035474545
0.0035474572
0.0035474583
0.0035474585
0.0035474585
0.0035474583
0.0035474581
0.003547458
0.0035474579
0.0035474578
0.0035474578
0.0035474578
0.0035474577
0.0035474577
0.0035474577
0.0035474577
0.0035474577
0.0035474577
0.0035474577
0.0035474577
0.0035474577
0.0035474577
0.0035474577
0.0035474577
0.0035474577
0.0035474577
0.0035474577
0.0035474577
0.0035474577
0.0035474577
0.0035474577
0.0035474577
0.0035474577
0.0035474577
0.0035474577
0.0035474577
0.0035474577
0.0035474576
0.0035474578
0.0035474575
0.003547458
0.0035474573
0.0035474583
0.0035474569
0.0035474588
0.0035474563
0.0035474593
0.003547456
0.0035474591
0.0035474568
0.0035474572
0.0035474598
0.0035474531
0.0035474638
0.0035474495
0.0035474639
0.0035474516
0.0035474549
0.0035474581
0.0035474411
0.0035474526
0.0035474286
0.0035474245
0.0035474017
0.0035473826
0.0035473482
)
;

boundaryField
{
    top
    {
        type            calculated;
        value           uniform 0;
    }
    inlet
    {
        type            calculated;
        value           nonuniform List<scalar> 10(-0.01 -0.01 -0.01 -0.01 -0.01 -0.01 -0.01 -0.01 -0.01 -0.01);
    }
    outlet
    {
        type            calculated;
        value           nonuniform List<scalar> 10(0.0035473177 0.0086578811 0.011561244 0.012884862 0.013348698 0.013348698 0.012884862 0.011561244 0.0086578815 0.0035473178);
    }
    bottom
    {
        type            calculated;
        value           uniform 0;
    }
    back
    {
        type            empty;
        value           nonuniform 0();
    }
    front
    {
        type            empty;
        value           nonuniform 0();
    }
}


// ************************************************************************* //
