/*--------------------------------*- C++ -*----------------------------------*\
| =========                 |                                                 |
| \\      /  F ield         | OpenFOAM: The Open Source CFD Toolbox           |
|  \\    /   O peration     | Version:  v1812                                 |
|   \\  /    A nd           | Web:      www.OpenFOAM.com                      |
|    \\/     M anipulation  |                                                 |
\*---------------------------------------------------------------------------*/
FoamFile
{
    version     2.0;
    format      ascii;
    class       volVectorField;
    location    "1.8";
    object      U;
}
// * * * * * * * * * * * * * * * * * * * * * * * * * * * * * * * * * * * * * //

dimensions      [0 1 -1 0 0 0 0];


internalField   nonuniform List<vector> 
1000
(
(0.91891046 0.035823409 0)
(0.86270805 0.062187869 0)
(0.78707779 0.062494212 0)
(0.69539435 0.05453454 0)
(0.61099954 0.044444223 0)
(0.54442675 0.033818809 0)
(0.49400335 0.023953598 0)
(0.45560841 0.015847611 0)
(0.42662156 0.0097626108 0)
(0.40528155 0.005548282 0)
(0.38990841 0.0028838434 0)
(0.37895117 0.0013360875 0)
(0.37118104 0.00049049539 0)
(0.36571164 6.2557245e-05 0)
(0.36190913 -0.00011564054 0)
(0.35930114 -0.00015623186 0)
(0.35754226 -0.00013635095 0)
(0.35638109 -9.8419955e-05 0)
(0.35564021 -6.1530354e-05 0)
(0.35518866 -3.2756148e-05 0)
(0.35492903 -1.3193283e-05 0)
(0.35479108 -1.5863409e-06 0)
(0.35472699 3.8704172e-06 0)
(0.35470425 4.1184748e-06 0)
(0.35470132 2.4820109e-06 0)
(0.35470706 1.0286557e-06 0)
(0.35471582 2.9220772e-07 0)
(0.35472457 1.7316357e-09 0)
(0.35473179 -8.132045e-08 0)
(0.35473715 -7.3837935e-08 0)
(0.35474081 -4.017904e-08 0)
(0.35474314 -1.1199039e-08 0)
(0.35474452 3.4791156e-09 0)
(0.35474529 8.6079055e-09 0)
(0.35474567 8.9511899e-09 0)
(0.35474584 7.8409924e-09 0)
(0.35474589 7.0590717e-09 0)
(0.35474589 8.2643472e-09 0)
(0.35474588 7.7605083e-09 0)
(0.35474586 6.4667744e-09 0)
(0.35474584 4.6874876e-09 0)
(0.35474582 3.4897488e-09 0)
(0.35474581 2.3556678e-09 0)
(0.3547458 1.8337159e-09 0)
(0.35474579 1.2532287e-09 0)
(0.35474579 1.1112853e-09 0)
(0.35474579 7.6782509e-10 0)
(0.35474578 7.7399527e-10 0)
(0.35474578 5.2737771e-10 0)
(0.35474578 5.8780266e-10 0)
(0.35474578 3.6387408e-10 0)
(0.35474578 4.432718e-10 0)
(0.35474578 2.4356801e-10 0)
(0.35474577 3.385241e-10 0)
(0.35474577 1.4164402e-10 0)
(0.35474577 2.4707105e-10 0)
(0.35474577 6.8979024e-11 0)
(0.35474577 1.8805694e-10 0)
(0.35474577 1.0110675e-11 0)
(0.35474577 1.3610401e-10 0)
(0.35474577 -1.6327497e-11 0)
(0.35474577 1.0625613e-10 0)
(0.35474577 -1.3747318e-11 0)
(0.35474577 5.2791808e-11 0)
(0.35474577 7.1356782e-11 0)
(0.35474577 -8.1373525e-11 0)
(0.35474577 3.5393952e-10 0)
(0.35474577 -5.8755208e-10 0)
(0.35474577 1.2093995e-09 0)
(0.35474577 -2.0748364e-09 0)
(0.35474576 3.68223e-09 0)
(0.35474578 -6.204905e-09 0)
(0.35474574 1.0235946e-08 0)
(0.35474582 -1.6396769e-08 0)
(0.35474569 2.5606276e-08 0)
(0.3547459 -3.8484691e-08 0)
(0.35474557 5.6487329e-08 0)
(0.35474608 -7.8485623e-08 0)
(0.3547453 1.0614271e-07 0)
(0.35474644 -1.3306895e-07 0)
(0.35474481 1.5926743e-07 0)
(0.35474707 -1.6926241e-07 0)
(0.35474403 1.6047259e-07 0)
(0.35474796 -1.0704712e-07 0)
(0.35474304 1.7374926e-08 0)
(0.35474897 1.4138423e-07 0)
(0.35474205 -3.1119237e-07 0)
(0.3547498 5.4473566e-07 0)
(0.35474129 -6.5699224e-07 0)
(0.35475029 8.2266863e-07 0)
(0.35474069 -5.8890991e-07 0)
(0.35475047 6.0028411e-07 0)
(0.35473989 2.0170182e-07 0)
(0.35475013 8.6987568e-08 0)
(0.35473845 1.5605079e-06 0)
(0.35474807 3.3374187e-08 0)
(0.354736 2.7746672e-06 0)
(0.35474216 8.9442677e-07 0)
(0.35473097 1.6755893e-06 0)
(0.35473465 1.4370182e-06 0)
(1.001664 0.053818951 0)
(1.0359675 0.10127793 0)
(1.0597125 0.11069293 0)
(1.0628923 0.10586035 0)
(1.0515509 0.096117982 0)
(1.0341404 0.083663509 0)
(1.0146038 0.069907825 0)
(0.99417301 0.056482598 0)
(0.97375462 0.044410136 0)
(0.95441014 0.034094205 0)
(0.93689703 0.025670304 0)
(0.92152845 0.019043553 0)
(0.90839199 0.013911562 0)
(0.89749091 0.0099497971 0)
(0.8887327 0.0069331552 0)
(0.88190762 0.0046974448 0)
(0.8767499 0.0030854916 0)
(0.87297686 0.0019519203 0)
(0.87031311 0.0011777736 0)
(0.86850356 0.00066902109 0)
(0.86732549 0.00035026343 0)
(0.86659386 0.00016139139 0)
(0.86616284 5.626377e-05 0)
(0.86592627 1.4857707e-06 0)
(0.86580981 -2.2682047e-05 0)
(0.86576173 -2.9121837e-05 0)
(0.86574904 -2.6753847e-05 0)
(0.86575234 -2.1195752e-05 0)
(0.8657612 -1.5267382e-05 0)
(0.86577059 -1.0215121e-05 0)
(0.86577843 -6.4054891e-06 0)
(0.86578421 -3.7694168e-06 0)
(0.86578812 -2.0728343e-06 0)
(0.86579059 -1.0501836e-06 0)
(0.86579204 -4.7333946e-07 0)
(0.86579285 -1.7091768e-07 0)
(0.86579326 -2.6019113e-08 0)
(0.86579345 3.5371488e-08 0)
(0.86579352 5.2069834e-08 0)
(0.86579353 4.9202496e-08 0)
(0.86579352 3.9534692e-08 0)
(0.8657935 2.9532035e-08 0)
(0.86579348 2.0975402e-08 0)
(0.86579347 1.4913547e-08 0)
(0.86579346 1.0540567e-08 0)
(0.86579345 7.8790726e-09 0)
(0.86579344 5.9301801e-09 0)
(0.86579344 4.8756497e-09 0)
(0.86579343 3.9474685e-09 0)
(0.86579343 3.5037591e-09 0)
(0.86579342 2.9142053e-09 0)
(0.86579342 2.6664417e-09 0)
(0.86579342 2.2110041e-09 0)
(0.86579342 2.0505149e-09 0)
(0.86579341 1.6427479e-09 0)
(0.86579341 1.526725e-09 0)
(0.86579341 1.1812479e-09 0)
(0.86579341 1.1181632e-09 0)
(0.86579341 8.153081e-10 0)
(0.86579341 7.7521204e-10 0)
(0.8657934 5.6925867e-10 0)
(0.8657934 5.0781283e-10 0)
(0.8657934 4.7826099e-10 0)
(0.8657934 1.6893825e-10 0)
(0.8657934 7.1730724e-10 0)
(0.8657934 -5.4075458e-10 0)
(0.8657934 1.8220267e-09 0)
(0.86579341 -2.6603878e-09 0)
(0.86579339 5.3788025e-09 0)
(0.86579343 -8.8286979e-09 0)
(0.86579335 1.5553305e-08 0)
(0.86579348 -2.5476791e-08 0)
(0.86579327 4.1692408e-08 0)
(0.86579363 -6.5396876e-08 0)
(0.86579303 1.0053584e-07 0)
(0.86579399 -1.4794535e-07 0)
(0.86579247 2.1147385e-07 0)
(0.86579482 -2.8545651e-07 0)
(0.86579129 3.6927372e-07 0)
(0.86579645 -4.3845857e-07 0)
(0.86578913 4.7961434e-07 0)
(0.86579917 -4.3877276e-07 0)
(0.86578584 2.9145777e-07 0)
(0.86580288 2.8419152e-08 0)
(0.86578194 -5.0211456e-07 0)
(0.86580656 1.1545826e-06 0)
(0.86577891 -1.767168e-06 0)
(0.86580842 2.2998234e-06 0)
(0.86577842 -2.2155791e-06 0)
(0.86580729 1.7190242e-06 0)
(0.86578064 -7.7895352e-08 0)
(0.86580395 -1.2315112e-06 0)
(0.86578363 3.5146374e-06 0)
(0.8658004 -2.8295367e-06 0)
(0.86578527 3.7812099e-06 0)
(0.86579681 7.7977723e-07 0)
(0.86578397 1.8181183e-06 0)
(0.86579283 3.6456217e-06 0)
(0.86577699 4.5199578e-06 0)
(0.86579307 3.8206364e-06 0)
(1.00143 0.026821813 0)
(1.0291168 0.062783754 0)
(1.0654009 0.077684925 0)
(1.0989173 0.080507377 0)
(1.1251946 0.078146948 0)
(1.1449003 0.072873194 0)
(1.1594253 0.065646281 0)
(1.1693918 0.057540567 0)
(1.1753301 0.049422838 0)
(1.1781771 0.041788292 0)
(1.1788813 0.03493041 0)
(1.1780565 0.028951523 0)
(1.1761413 0.023746487 0)
(1.1735887 0.019159373 0)
(1.1708056 0.015126672 0)
(1.1680569 0.011655437 0)
(1.1654957 0.0087445475 0)
(1.1632264 0.0063638433 0)
(1.161317 0.0044724151 0)
(1.1597885 0.0030236741 0)
(1.1586187 0.0019592015 0)
(1.1577592 0.0012099628 0)
(1.1571526 0.00070557523 0)
(1.1567424 0.00038276986 0)
(1.1564774 0.00018746564 0)
(1.1563138 7.698644e-05 0)
(1.1562174 1.9683007e-05 0)
(1.1561639 -6.3409101e-06 0)
(1.1561363 -1.5284538e-05 0)
(1.1561235 -1.5893363e-05 0)
(1.1561185 -1.3146648e-05 0)
(1.1561173 -9.6186305e-06 0)
(1.1561177 -6.4588984e-06 0)
(1.1561186 -4.0413174e-06 0)
(1.1561195 -2.3662771e-06 0)
(1.1561201 -1.2912137e-06 0)
(1.1561206 -6.4651518e-07 0)
(1.1561209 -2.8621447e-07 0)
(1.1561211 -9.9288513e-08 0)
(1.1561212 -1.1624999e-08 0)
(1.1561212 2.3677408e-08 0)
(1.1561213 3.3378422e-08 0)
(1.1561213 3.2176272e-08 0)
(1.1561213 2.7155304e-08 0)
(1.1561213 2.1925932e-08 0)
(1.1561213 1.7368127e-08 0)
(1.1561213 1.4020225e-08 0)
(1.1561213 1.1443633e-08 0)
(1.1561213 9.7075766e-09 0)
(1.1561213 8.2769799e-09 0)
(1.1561213 7.2936067e-09 0)
(1.1561213 6.3510409e-09 0)
(1.1561212 5.6885767e-09 0)
(1.1561212 4.9479595e-09 0)
(1.1561212 4.4179767e-09 0)
(1.1561212 3.7857243e-09 0)
(1.1561212 3.3694963e-09 0)
(1.1561212 2.8212395e-09 0)
(1.1561212 2.5059039e-09 0)
(1.1561212 2.0123789e-09 0)
(1.1561212 1.8736019e-09 0)
(1.1561212 1.3287181e-09 0)
(1.1561212 1.5412962e-09 0)
(1.1561212 5.5614075e-10 0)
(1.1561212 1.8299352e-09 0)
(1.1561212 -8.7377347e-10 0)
(1.1561212 3.6670504e-09 0)
(1.1561213 -4.6838243e-09 0)
(1.1561212 9.770765e-09 0)
(1.1561213 -1.5249748e-08 0)
(1.1561211 2.6750432e-08 0)
(1.1561214 -4.2435543e-08 0)
(1.1561209 6.8364331e-08 0)
(1.1561218 -1.0403851e-07 0)
(1.1561204 1.5579737e-07 0)
(1.1561226 -2.2098001e-07 0)
(1.1561191 3.03184e-07 0)
(1.1561244 -3.874322e-07 0)
(1.1561166 4.6682787e-07 0)
(1.1561277 -4.9813665e-07 0)
(1.1561123 4.5776782e-07 0)
(1.156133 -2.7137535e-07 0)
(1.1561063 -7.3013658e-08 0)
(1.1561393 6.2969042e-07 0)
(1.1561004 -1.2943576e-06 0)
(1.1561439 2.0001439e-06 0)
(1.156098 -2.3703427e-06 0)
(1.1561433 2.3181189e-06 0)
(1.1561021 -1.2807942e-06 0)
(1.1561361 -1.4089189e-07 0)
(1.156111 2.4445715e-06 0)
(1.1561273 -3.4059258e-06 0)
(1.1561178 4.4965379e-06 0)
(1.1561235 -1.8802478e-06 0)
(1.156118 1.5959648e-06 0)
(1.1561247 2.7434073e-06 0)
(1.1561146 1.06612e-06 0)
(1.156126 2.8961961e-06 0)
(1.1561093 5.1259009e-06 0)
(1.15613 3.5371163e-06 0)
(1.0007399 0.011811132 0)
(1.0178332 0.030852944 0)
(1.0461788 0.041397155 0)
(1.0798359 0.045119022 0)
(1.1130867 0.045388339 0)
(1.1435164 0.043877325 0)
(1.1706575 0.041101682 0)
(1.1942217 0.037486216 0)
(1.214061 0.033490011 0)
(1.2305508 0.029465718 0)
(1.2442279 0.025654603 0)
(1.2553839 0.022167727 0)
(1.2642264 0.018974165 0)
(1.2711091 0.016001127 0)
(1.2764299 0.013235527 0)
(1.2804684 0.010716142 0)
(1.2834133 0.0084776688 0)
(1.2854584 0.0065338361 0)
(1.2868155 0.0048900266 0)
(1.2876747 0.0035458684 0)
(1.2881841 0.0024872997 0)
(1.288457 0.0016846481 0)
(1.2885806 0.0010986872 0)
(1.2886184 0.00068756483 0)
(1.2886129 0.00041074821 0)
(1.2885892 0.00023231501 0)
(1.2885614 0.00012270271 0)
(1.2885363 5.8986605e-05 0)
(1.2885165 2.4255503e-05 0)
(1.2885022 6.863838e-06 0)
(1.2884926 -7.7601918e-07 0)
(1.2884865 -3.355243e-06 0)
(1.2884828 -3.5871939e-06 0)
(1.2884807 -2.9300547e-06 0)
(1.2884796 -2.0899476e-06 0)
(1.2884791 -1.3581913e-06 0)
(1.2884788 -8.1593168e-07 0)
(1.2884787 -4.5376297e-07 0)
(1.2884787 -2.2946417e-07 0)
(1.2884787 -1.0069937e-07 0)
(1.2884788 -3.1999981e-08 0)
(1.2884788 1.0854184e-09 0)
(1.2884788 1.5364185e-08 0)
(1.2884788 1.9712931e-08 0)
(1.2884788 1.9937493e-08 0)
(1.2884788 1.8195597e-08 0)
(1.2884788 1.6316282e-08 0)
(1.2884788 1.4257295e-08 0)
(1.2884788 1.2723501e-08 0)
(1.2884788 1.1158886e-08 0)
(1.2884788 1.008215e-08 0)
(1.2884788 8.8833563e-09 0)
(1.2884788 8.0750037e-09 0)
(1.2884788 7.066776e-09 0)
(1.2884788 6.4120315e-09 0)
(1.2884788 5.5349767e-09 0)
(1.2884788 5.0007252e-09 0)
(1.2884788 4.2173859e-09 0)
(1.2884788 3.8114719e-09 0)
(1.2884788 3.1077335e-09 0)
(1.2884788 2.8894693e-09 0)
(1.2884788 2.1483369e-09 0)
(1.2884788 2.3142291e-09 0)
(1.2884788 1.172874e-09 0)
(1.2884788 2.391641e-09 0)
(1.2884788 -3.8982207e-10 0)
(1.2884788 3.9845024e-09 0)
(1.2884788 -4.0742545e-09 0)
(1.2884787 9.499695e-09 0)
(1.2884789 -1.3744726e-08 0)
(1.2884786 2.4552722e-08 0)
(1.2884791 -3.7471532e-08 0)
(1.2884783 5.9934183e-08 0)
(1.2884796 -8.8372328e-08 0)
(1.2884775 1.2969732e-07 0)
(1.2884809 -1.7730243e-07 0)
(1.2884757 2.3506217e-07 0)
(1.2884835 -2.8422295e-07 0)
(1.2884721 3.2064858e-07 0)
(1.2884881 -3.0273109e-07 0)
(1.2884663 2.1974786e-07 0)
(1.2884949 -1.3642951e-08 0)
(1.2884589 -2.9678717e-07 0)
(1.2885022 7.3809094e-07 0)
(1.2884527 -1.1705344e-06 0)
(1.2885061 1.5324352e-06 0)
(1.2884524 -1.5148894e-06 0)
(1.2885021 1.1334187e-06 0)
(1.2884609 -4.2077972e-08 0)
(1.2884905 -1.0673412e-06 0)
(1.2884736 2.5593754e-06 0)
(1.2884795 -2.615387e-06 0)
(1.2884808 2.6892544e-06 0)
(1.288478 -2.5076047e-07 0)
(1.2884782 1.2761295e-07 0)
(1.2884837 2.4757848e-06 0)
(1.2884728 9.7700396e-07 0)
(1.288487 1.465139e-06 0)
(1.2884698 3.7107561e-06 0)
(1.2884916 2.2500361e-06 0)
(1.000596 0.0034613822 0)
(1.0136696 0.0093625846 0)
(1.0369849 0.013033304 0)
(1.0673482 0.014534657 0)
(1.099835 0.014811325 0)
(1.1313452 0.014494075 0)
(1.1607922 0.013770243 0)
(1.1876328 0.012741433 0)
(1.2115354 0.011544101 0)
(1.2326473 0.010304007 0)
(1.2512642 0.0091085569 0)
(1.2674523 0.0079973254 0)
(1.2812362 0.006961686 0)
(1.2928467 0.0059783106 0)
(1.3025918 0.0050435554 0)
(1.310662 0.0041720249 0)
(1.3171648 0.0033779925 0)
(1.3222463 0.0026694198 0)
(1.326112 0.002052466 0)
(1.3289774 0.0015322459 0)
(1.3310371 0.0011091994 0)
(1.3324657 0.00077752904 0)
(1.3334203 0.00052678647 0)
(1.3340341 0.00034422775 0)
(1.3344131 0.00021635834 0)
(1.3346363 0.00013029876 0)
(1.3347605 7.4782572e-05 0)
(1.3348248 4.0551266e-05 0)
(1.3348549 2.0441188e-05 0)
(1.3348668 9.2720147e-06 0)
(1.3348697 3.4885486e-06 0)
(1.3348689 7.6506782e-07 0)
(1.334867 -3.2946849e-07 0)
(1.334865 -6.3069828e-07 0)
(1.3348635 -5.9506663e-07 0)
(1.3348624 -4.5121606e-07 0)
(1.3348618 -3.0151732e-07 0)
(1.3348614 -1.8209789e-07 0)
(1.3348611 -9.8851358e-08 0)
(1.334861 -4.577595e-08 0)
(1.334861 -1.4650361e-08 0)
(1.334861 2.1886274e-09 0)
(1.334861 1.0486009e-08 0)
(1.334861 1.4098876e-08 0)
(1.334861 1.5045043e-08 0)
(1.334861 1.485978e-08 0)
(1.334861 1.4001015e-08 0)
(1.334861 1.3039479e-08 0)
(1.334861 1.1914258e-08 0)
(1.334861 1.0934512e-08 0)
(1.334861 9.9020276e-09 0)
(1.334861 9.0349125e-09 0)
(1.334861 8.1063297e-09 0)
(1.334861 7.3480035e-09 0)
(1.334861 6.5359531e-09 0)
(1.334861 5.8754452e-09 0)
(1.334861 5.1488937e-09 0)
(1.334861 4.5783013e-09 0)
(1.334861 3.9697866e-09 0)
(1.334861 3.4840951e-09 0)
(1.334861 2.9965775e-09 0)
(1.334861 2.553319e-09 0)
(1.334861 2.2951464e-09 0)
(1.334861 1.7443866e-09 0)
(1.334861 1.9587094e-09 0)
(1.334861 8.0760769e-10 0)
(1.334861 2.3418127e-09 0)
(1.334861 -8.4355057e-10 0)
(1.3348609 4.3203952e-09 0)
(1.3348611 -4.728487e-09 0)
(1.3348608 1.0004e-08 0)
(1.3348614 -1.378245e-08 0)
(1.3348604 2.3219777e-08 0)
(1.334862 -3.2491216e-08 0)
(1.3348594 4.8505024e-08 0)
(1.3348635 -6.3497769e-08 0)
(1.3348573 8.4311818e-08 0)
(1.3348664 -9.6588702e-08 0)
(1.3348533 1.069146e-07 0)
(1.3348716 -8.9650102e-08 0)
(1.3348469 5.4096763e-08 0)
(1.334879 3.335793e-08 0)
(1.3348391 -1.4581133e-07 0)
(1.3348865 3.0488905e-07 0)
(1.3348331 -4.3328483e-07 0)
(1.3348896 5.3225551e-07 0)
(1.3348341 -4.6350849e-07 0)
(1.3348839 2.8160758e-07 0)
(1.3348445 1.5042101e-07 0)
(1.3348706 -5.261436e-07 0)
(1.3348585 9.909476e-07 0)
(1.3348593 -8.693263e-07 0)
(1.3348653 8.0364309e-07 0)
(1.3348592 1.2652254e-07 0)
(1.3348611 -9.4352209e-08 0)
(1.3348669 9.168885e-07 0)
(1.3348549 4.2499669e-07 0)
(1.3348706 3.8391482e-07 0)
(1.3348533 1.2856234e-06 0)
(1.3348749 7.5474436e-07 0)
(1.000596 -0.0034614013 0)
(1.0136696 -0.0093626476 0)
(1.0369849 -0.013033383 0)
(1.0673482 -0.014534727 0)
(1.099835 -0.014811373 0)
(1.1313452 -0.014494107 0)
(1.1607922 -0.013770278 0)
(1.1876328 -0.012741481 0)
(1.2115354 -0.01154416 0)
(1.2326473 -0.010304071 0)
(1.2512642 -0.0091086233 0)
(1.2674523 -0.0079973972 0)
(1.2812362 -0.0069617637 0)
(1.2928467 -0.0059783907 0)
(1.3025918 -0.0050436318 0)
(1.310662 -0.0041720928 0)
(1.3171648 -0.0033780506 0)
(1.3222463 -0.0026694688 0)
(1.326112 -0.0020525111 0)
(1.3289774 -0.0015322925 0)
(1.331037 -0.0011092544 0)
(1.3324657 -0.00077759681 0)
(1.3334203 -0.00052686962 0)
(1.3340341 -0.00034432296 0)
(1.3344131 -0.00021645924 0)
(1.3346362 -0.00013039652 0)
(1.3347604 -7.4869342e-05 0)
(1.3348247 -4.0621289e-05 0)
(1.3348548 -2.0491795e-05 0)
(1.3348667 -9.3027861e-06 0)
(1.3348697 -3.5020292e-06 0)
(1.3348689 -7.6445165e-07 0)
(1.3348669 3.3975188e-07 0)
(1.334865 6.4762049e-07 0)
(1.3348634 6.1527974e-07 0)
(1.3348624 4.7370429e-07 0)
(1.3348617 3.2467069e-07 0)
(1.3348613 2.0625449e-07 0)
(1.3348611 1.2330971e-07 0)
(1.334861 7.1268187e-08 0)
(1.3348609 4.0385788e-08 0)
(1.3348609 2.4232771e-08 0)
(1.3348609 1.5678893e-08 0)
(1.3348609 1.2159207e-08 0)
(1.3348609 1.0220696e-08 0)
(1.334861 9.8348242e-09 0)
(1.334861 9.1306957e-09 0)
(1.334861 9.038115e-09 0)
(1.334861 8.2757381e-09 0)
(1.334861 8.0577667e-09 0)
(1.334861 7.1855428e-09 0)
(1.334861 6.8879165e-09 0)
(1.334861 5.9881946e-09 0)
(1.334861 5.72926e-09 0)
(1.334861 4.8792622e-09 0)
(1.334861 4.6614744e-09 0)
(1.334861 3.856351e-09 0)
(1.334861 3.7241743e-09 0)
(1.334861 2.9830828e-09 0)
(1.334861 2.9224627e-09 0)
(1.334861 2.2078419e-09 0)
(1.334861 2.2976061e-09 0)
(1.334861 1.5502247e-09 0)
(1.334861 1.9067556e-09 0)
(1.334861 8.2534412e-10 0)
(1.334861 1.961826e-09 0)
(1.334861 -2.3995367e-10 0)
(1.334861 3.038513e-09 0)
(1.3348609 -2.6839867e-09 0)
(1.3348611 6.5740442e-09 0)
(1.3348608 -8.5959053e-09 0)
(1.3348614 1.5487442e-08 0)
(1.3348604 -2.1847717e-08 0)
(1.334862 3.43377e-08 0)
(1.3348594 -4.6762916e-08 0)
(1.3348635 6.5956883e-08 0)
(1.3348573 -8.1704295e-08 0)
(1.3348664 1.0020235e-07 0)
(1.3348533 -1.0289651e-07 0)
(1.3348716 9.4818574e-08 0)
(1.3348469 -4.8448246e-08 0)
(1.334879 -2.6500461e-08 0)
(1.3348391 1.5327544e-07 0)
(1.3348865 -2.9646777e-07 0)
(1.3348331 4.4194886e-07 0)
(1.3348896 -5.2257276e-07 0)
(1.3348341 4.7322756e-07 0)
(1.3348839 -2.7158729e-07 0)
(1.3348445 -1.4119839e-07 0)
(1.3348706 5.3514819e-07 0)
(1.3348585 -9.8251071e-07 0)
(1.3348593 8.7931628e-07 0)
(1.3348653 -7.9113226e-07 0)
(1.3348592 -1.1156519e-07 0)
(1.3348611 1.0913075e-07 0)
(1.3348669 -9.0305754e-07 0)
(1.3348549 -4.1244555e-07 0)
(1.3348706 -3.7227649e-07 0)
(1.3348533 -1.2755971e-06 0)
(1.3348749 -7.4940197e-07 0)
(1.0007399 -0.011811153 0)
(1.0178332 -0.030853003 0)
(1.0461788 -0.041397227 0)
(1.0798359 -0.045119085 0)
(1.1130867 -0.045388384 0)
(1.1435165 -0.043877359 0)
(1.1706575 -0.041101716 0)
(1.1942217 -0.03748626 0)
(1.2140609 -0.033490062 0)
(1.2305507 -0.029465773 0)
(1.2442279 -0.025654662 0)
(1.2553838 -0.022167793 0)
(1.2642263 -0.018974239 0)
(1.271109 -0.016001206 0)
(1.2764299 -0.013235603 0)
(1.2804683 -0.010716209 0)
(1.2834132 -0.0084777236 0)
(1.2854584 -0.0065338798 0)
(1.2868155 -0.0048900632 0)
(1.2876746 -0.0035459057 0)
(1.288184 -0.002487345 0)
(1.2884569 -0.0016847068 0)
(1.2885805 -0.0010987599 0)
(1.2886183 -0.00068764775 0)
(1.2886128 -0.00041083627 0)
(1.2885891 -0.00023239982 0)
(1.2885612 -0.00012277615 0)
(1.2885362 -5.9044098e-05 0)
(1.2885164 -2.4294759e-05 0)
(1.2885021 -6.8855704e-06 0)
(1.2884924 7.6952494e-07 0)
(1.2884863 3.3599965e-06 0)
(1.2884826 3.5997219e-06 0)
(1.2884805 2.9467873e-06 0)
(1.2884794 2.1089901e-06 0)
(1.2884789 1.377889e-06 0)
(1.2884787 8.3618714e-07 0)
(1.2884786 4.7401838e-07 0)
(1.2884786 2.5034987e-07 0)
(1.2884786 1.2163663e-07 0)
(1.2884787 5.3456265e-08 0)
(1.2884787 2.0241461e-08 0)
(1.2884787 6.1560151e-09 0)
(1.2884787 1.2563554e-09 0)
(1.2884787 6.9512314e-10 0)
(1.2884787 1.3209513e-09 0)
(1.2884788 2.3633691e-09 0)
(1.2884788 2.9500906e-09 0)
(1.2884788 3.4377592e-09 0)
(1.2884788 3.4630925e-09 0)
(1.2884788 3.493158e-09 0)
(1.2884788 3.2095208e-09 0)
(1.2884788 3.0877534e-09 0)
(1.2884788 2.7552961e-09 0)
(1.2884788 2.6046137e-09 0)
(1.2884788 2.2558514e-09 0)
(1.2884788 2.1261456e-09 0)
(1.2884788 1.8287426e-09 0)
(1.2884788 1.699175e-09 0)
(1.2884788 1.4389362e-09 0)
(1.2884788 1.2735948e-09 0)
(1.2884788 1.2116901e-09 0)
(1.2884788 8.0069288e-10 0)
(1.2884788 1.2733738e-09 0)
(1.2884788 -3.7251217e-11 0)
(1.2884788 2.2163401e-09 0)
(1.2884788 -2.1476913e-09 0)
(1.2884788 5.4887578e-09 0)
(1.2884787 -7.984501e-09 0)
(1.2884789 1.4936708e-08 0)
(1.2884786 -2.3186741e-08 0)
(1.2884791 3.8589756e-08 0)
(1.2884783 -5.8523897e-08 0)
(1.2884796 8.9686821e-08 0)
(1.2884775 -1.2791754e-07 0)
(1.2884809 1.7918552e-07 0)
(1.2884757 -2.3246624e-07 0)
(1.2884835 2.8716346e-07 0)
(1.2884721 -3.1681645e-07 0)
(1.2884881 3.0700778e-07 0)
(1.2884664 -2.1453649e-07 0)
(1.2884949 1.9200526e-08 0)
(1.2884589 3.0310929e-07 0)
(1.2885022 -7.3140547e-07 0)
(1.2884527 1.1780307e-06 0)
(1.2885061 -1.524644e-06 0)
(1.2884524 1.5232039e-06 0)
(1.2885021 -1.1254484e-06 0)
(1.2884609 4.9705233e-08 0)
(1.2884905 1.0739216e-06 0)
(1.2884737 -2.5519515e-06 0)
(1.2884795 2.6239721e-06 0)
(1.2884809 -2.6776378e-06 0)
(1.288478 2.6381977e-07 0)
(1.2884782 -1.1442128e-07 0)
(1.2884837 -2.4642111e-06 0)
(1.2884728 -9.6722339e-07 0)
(1.2884871 -1.4568552e-06 0)
(1.2884699 -3.7041443e-06 0)
(1.2884916 -2.2467367e-06 0)
(1.00143 -0.026821826 0)
(1.0291168 -0.062783791 0)
(1.0654009 -0.077684975 0)
(1.0989173 -0.080507423 0)
(1.1251946 -0.078146982 0)
(1.1449003 -0.07287322 0)
(1.1594253 -0.065646307 0)
(1.1693918 -0.057540598 0)
(1.17533 -0.049422874 0)
(1.178177 -0.041788329 0)
(1.1788812 -0.03493045 0)
(1.1780564 -0.028951568 0)
(1.1761412 -0.02374654 0)
(1.1735886 -0.019159433 0)
(1.1708056 -0.015126731 0)
(1.1680568 -0.011655488 0)
(1.1654957 -0.0087445867 0)
(1.1632263 -0.0063638718 0)
(1.161317 -0.0044724362 0)
(1.1597884 -0.003023696 0)
(1.1586186 -0.0019592308 0)
(1.1577591 -0.0012100041 0)
(1.1571525 -0.00070562708 0)
(1.1567422 -0.00038282929 0)
(1.1564772 -0.00018752433 0)
(1.1563136 -7.7040935e-05 0)
(1.1562172 -1.9729117e-05 0)
(1.1561637 6.3067361e-06 0)
(1.1561361 1.5263767e-05 0)
(1.1561233 1.5884406e-05 0)
(1.1561183 1.3147453e-05 0)
(1.1561171 9.6256897e-06 0)
(1.1561175 6.4702126e-06 0)
(1.1561184 4.0539338e-06 0)
(1.1561193 2.3798485e-06 0)
(1.1561199 1.3040746e-06 0)
(1.1561204 6.5948382e-07 0)
(1.1561208 2.9842646e-07 0)
(1.1561209 1.1190494e-07 0)
(1.1561211 2.3941301e-08 0)
(1.1561211 -1.0673751e-08 0)
(1.1561212 -2.0569165e-08 0)
(1.1561212 -1.8942362e-08 0)
(1.1561212 -1.466447e-08 0)
(1.1561212 -9.4287375e-09 0)
(1.1561212 -6.0121753e-09 0)
(1.1561212 -2.9780042e-09 0)
(1.1561212 -1.7094034e-09 0)
(1.1561212 -3.2496179e-10 0)
(1.1561212 -2.0426619e-10 0)
(1.1561212 4.5133464e-10 0)
(1.1561212 1.5820584e-10 0)
(1.1561212 6.2348368e-10 0)
(1.1561212 2.2058679e-10 0)
(1.1561212 6.2100537e-10 0)
(1.1561212 1.9852725e-10 0)
(1.1561212 6.0742616e-10 0)
(1.1561212 1.8469408e-10 0)
(1.1561212 5.4834274e-10 0)
(1.1561212 1.550443e-10 0)
(1.1561212 4.6535845e-10 0)
(1.1561212 2.1127521e-10 0)
(1.1561212 2.3243779e-10 0)
(1.1561212 5.0767696e-10 0)
(1.1561212 -4.0669321e-10 0)
(1.1561212 1.6710906e-09 0)
(1.1561212 -2.5221332e-09 0)
(1.1561212 5.2868855e-09 0)
(1.1561212 -8.7567437e-09 0)
(1.1561213 1.5782131e-08 0)
(1.1561211 -2.5779399e-08 0)
(1.1561214 4.2995164e-08 0)
(1.1561209 -6.725256e-08 0)
(1.1561218 1.0483952e-07 0)
(1.1561204 -1.5434534e-07 0)
(1.1561226 2.2225635e-07 0)
(1.1561191 -3.0106996e-07 0)
(1.1561244 3.8949512e-07 0)
(1.1561166 -4.6386818e-07 0)
(1.1561277 5.0108351e-07 0)
(1.1561123 -4.5394164e-07 0)
(1.156133 2.7508037e-07 0)
(1.1561064 7.7263277e-08 0)
(1.1561393 -6.2537138e-07 0)
(1.1561004 1.2996057e-06 0)
(1.156144 -1.9950185e-06 0)
(1.156098 2.3759938e-06 0)
(1.1561433 -2.3130576e-06 0)
(1.1561021 1.2859277e-06 0)
(1.1561361 1.4497456e-07 0)
(1.1561111 -2.4392671e-06 0)
(1.1561273 3.4121546e-06 0)
(1.1561178 -4.487692e-06 0)
(1.1561236 1.8895678e-06 0)
(1.1561181 -1.5869595e-06 0)
(1.1561248 -2.7367971e-06 0)
(1.1561147 -1.0614295e-06 0)
(1.156126 -2.8923816e-06 0)
(1.1561094 -5.1225249e-06 0)
(1.1561301 -3.5352433e-06 0)
(1.001664 -0.053818942 0)
(1.0359675 -0.10127793 0)
(1.0597125 -0.11069295 0)
(1.0628924 -0.10586037 0)
(1.0515509 -0.096117999 0)
(1.0341405 -0.083663523 0)
(1.0146039 -0.069907838 0)
(0.99417299 -0.056482616 0)
(0.97375456 -0.044410158 0)
(0.95441007 -0.034094227 0)
(0.93689695 -0.025670321 0)
(0.92152836 -0.019043566 0)
(0.90839189 -0.013911576 0)
(0.89749081 -0.009949815 0)
(0.88873262 -0.0069331766 0)
(0.88190755 -0.0046974658 0)
(0.87674983 -0.0030855092 0)
(0.87297679 -0.0019519346 0)
(0.87031304 -0.0011777869 0)
(0.86850347 -0.00066903501 0)
(0.86732539 -0.00035028044 0)
(0.86659374 -0.00016141054 0)
(0.8661627 -5.6284414e-05 0)
(0.86592611 -1.5064054e-06 0)
(0.86580963 2.2663623e-05 0)
(0.86576153 2.9106383e-05 0)
(0.86574883 2.6740887e-05 0)
(0.86575212 2.1186701e-05 0)
(0.86576098 1.5261935e-05 0)
(0.86577038 1.0213115e-05 0)
(0.86577823 6.4055916e-06 0)
(0.86578402 3.7712425e-06 0)
(0.86578795 2.0750905e-06 0)
(0.86579042 1.0529789e-06 0)
(0.8657919 4.7601578e-07 0)
(0.86579271 1.7402546e-07 0)
(0.86579314 2.9157304e-08 0)
(0.86579333 -3.1430222e-08 0)
(0.86579341 -4.8198841e-08 0)
(0.86579343 -4.4585074e-08 0)
(0.86579343 -3.4999925e-08 0)
(0.86579342 -2.463078e-08 0)
(0.86579341 -1.6489978e-08 0)
(0.8657934 -1.0291423e-08 0)
(0.8657934 -6.5076139e-09 0)
(0.86579339 -3.8200624e-09 0)
(0.8657934 -2.5411702e-09 0)
(0.86579339 -1.4884088e-09 0)
(0.8657934 -1.2004219e-09 0)
(0.86579339 -7.4381636e-10 0)
(0.8657934 -7.6780046e-10 0)
(0.8657934 -4.4321072e-10 0)
(0.8657934 -5.4320706e-10 0)
(0.8657934 -2.7848837e-10 0)
(0.8657934 -4.0789765e-10 0)
(0.8657934 -1.3842258e-10 0)
(0.8657934 -2.8678847e-10 0)
(0.8657934 -5.1484825e-11 0)
(0.8657934 -2.2661894e-10 0)
(0.8657934 4.0277443e-11 0)
(0.8657934 -1.853532e-10 0)
(0.8657934 1.2399756e-10 0)
(0.8657934 -2.5848695e-10 0)
(0.8657934 3.38904e-10 0)
(0.8657934 -5.8435192e-10 0)
(0.8657934 9.6998837e-10 0)
(0.8657934 -1.737813e-09 0)
(0.86579341 3.048603e-09 0)
(0.86579339 -5.2784563e-09 0)
(0.86579343 9.2459947e-09 0)
(0.86579336 -1.5403995e-08 0)
(0.86579348 2.5999985e-08 0)
(0.86579327 -4.1373551e-08 0)
(0.86579363 6.6140735e-08 0)
(0.86579304 -9.9961179e-08 0)
(0.865794 1.4900606e-07 0)
(0.86579248 -2.105553e-07 0)
(0.86579482 2.8683046e-07 0)
(0.8657913 -3.6809996e-07 0)
(0.86579645 4.4004319e-07 0)
(0.86578914 -4.7823154e-07 0)
(0.86579918 4.4057885e-07 0)
(0.86578585 -2.8963629e-07 0)
(0.86580289 -2.6120396e-08 0)
(0.86578196 5.0436376e-07 0)
(0.86580657 -1.1519256e-06 0)
(0.86577893 1.7695391e-06 0)
(0.86580844 -2.2971551e-06 0)
(0.86577844 2.21792e-06 0)
(0.86580731 -1.7161403e-06 0)
(0.86578067 8.0704457e-08 0)
(0.86580398 1.2353739e-06 0)
(0.86578367 -3.5108599e-06 0)
(0.86580043 2.8325449e-06 0)
(0.86578531 -3.779941e-06 0)
(0.86579685 -7.7968797e-07 0)
(0.86578401 -1.8176415e-06 0)
(0.86579288 -3.6430297e-06 0)
(0.86577704 -4.5157256e-06 0)
(0.86579311 -3.8177555e-06 0)
(0.91891047 -0.035823398 0)
(0.86270807 -0.06218786 0)
(0.7870778 -0.062494212 0)
(0.69539438 -0.054534544 0)
(0.6109996 -0.044444229 0)
(0.54442679 -0.033818815 0)
(0.49400334 -0.023953606 0)
(0.45560837 -0.015847622 0)
(0.42662151 -0.0097626223 0)
(0.40528151 -0.0055482905 0)
(0.38990838 -0.002883844 0)
(0.37895115 -0.0013360821 0)
(0.37118102 -0.00049048807 0)
(0.36571162 -6.2552516e-05 0)
(0.36190911 0.00011564034 0)
(0.35930112 0.00015622798 0)
(0.35754223 0.00013634399 0)
(0.35638106 9.8412177e-05 0)
(0.35564017 6.1521796e-05 0)
(0.35518862 3.2749803e-05 0)
(0.35492898 1.3189125e-05 0)
(0.35479102 1.5855778e-06 0)
(0.35472693 -3.8687889e-06 0)
(0.35470418 -4.1156817e-06 0)
(0.35470124 -2.4815015e-06 0)
(0.35470698 -1.0281131e-06 0)
(0.35471574 -2.9257309e-07 0)
(0.35472448 -2.9196119e-09 0)
(0.35473171 7.9204989e-08 0)
(0.35473707 7.1701759e-08 0)
(0.35474073 3.7756632e-08 0)
(0.35474307 9.2558264e-09 0)
(0.35474446 -5.5946421e-09 0)
(0.35474523 -9.9256962e-09 0)
(0.35474562 -1.0211428e-08 0)
(0.35474579 -8.1227606e-09 0)
(0.35474585 -7.4400413e-09 0)
(0.35474585 -7.7243514e-09 0)
(0.35474584 -7.5607458e-09 0)
(0.35474582 -5.7520737e-09 0)
(0.35474581 -4.4240912e-09 0)
(0.35474579 -2.7644747e-09 0)
(0.35474579 -2.1028908e-09 0)
(0.35474578 -1.1504481e-09 0)
(0.35474578 -1.0572934e-09 0)
(0.35474577 -4.8778075e-10 0)
(0.35474577 -6.4974095e-10 0)
(0.35474577 -2.3109817e-10 0)
(0.35474577 -4.9536856e-10 0)
(0.35474577 -1.2146801e-10 0)
(0.35474577 -3.9708233e-10 0)
(0.35474577 -1.7522951e-11 0)
(0.35474577 -3.2571981e-10 0)
(0.35474577 3.9488445e-11 0)
(0.35474577 -2.6813183e-10 0)
(0.35474577 9.5938521e-11 0)
(0.35474577 -2.3781026e-10 0)
(0.35474577 1.0660536e-10 0)
(0.35474577 -2.1427569e-10 0)
(0.35474577 1.366524e-10 0)
(0.35474577 -2.1127218e-10 0)
(0.35474577 1.4259395e-10 0)
(0.35474577 -2.2466094e-10 0)
(0.35474577 1.9503909e-10 0)
(0.35474577 -3.1081687e-10 0)
(0.35474577 3.1955592e-10 0)
(0.35474577 -5.6914804e-10 0)
(0.35474577 8.276434e-10 0)
(0.35474577 -1.4002335e-09 0)
(0.35474577 2.3361006e-09 0)
(0.35474576 -3.8281301e-09 0)
(0.35474579 6.5380525e-09 0)
(0.35474574 -1.0293354e-08 0)
(0.35474582 1.6832073e-08 0)
(0.35474569 -2.555678e-08 0)
(0.3547459 3.9018588e-08 0)
(0.35474557 -5.6400758e-08 0)
(0.35474608 7.8982555e-08 0)
(0.35474531 -1.0615016e-07 0)
(0.35474645 1.3344861e-07 0)
(0.35474481 -1.5935867e-07 0)
(0.35474707 1.6963973e-07 0)
(0.35474404 -1.6038382e-07 0)
(0.35474797 1.0766914e-07 0)
(0.35474304 -1.7085203e-08 0)
(0.35474898 -1.4059068e-07 0)
(0.35474206 3.1158075e-07 0)
(0.35474981 -5.4391875e-07 0)
(0.35474129 6.5733978e-07 0)
(0.3547503 -8.2169854e-07 0)
(0.3547407 5.8970582e-07 0)
(0.35475048 -5.9911676e-07 0)
(0.3547399 -2.0172227e-07 0)
(0.35475014 -8.7777926e-08 0)
(0.35473845 -1.5621719e-06 0)
(0.35474809 -3.4446749e-08 0)
(0.35473603 -2.7742118e-06 0)
(0.35474219 -8.9214276e-07 0)
(0.35473099 -1.6725308e-06 0)
(0.35473467 -1.4353332e-06 0)
)
;

boundaryField
{
    top
    {
        type            fixedValue;
        value           uniform (0 0 0);
    }
    inlet
    {
        type            fixedValue;
        value           uniform (1 0 0);
    }
    outlet
    {
        type            zeroGradient;
    }
    bottom
    {
        type            fixedValue;
        value           uniform (0 0 0);
    }
    back
    {
        type            empty;
    }
    front
    {
        type            empty;
    }
}


// ************************************************************************* //
