/*--------------------------------*- C++ -*----------------------------------*\
| =========                 |                                                 |
| \\      /  F ield         | OpenFOAM: The Open Source CFD Toolbox           |
|  \\    /   O peration     | Version:  v1812                                 |
|   \\  /    A nd           | Web:      www.OpenFOAM.com                      |
|    \\/     M anipulation  |                                                 |
\*---------------------------------------------------------------------------*/
FoamFile
{
    version     2.0;
    format      ascii;
    class       volScalarField;
    location    "4.95";
    object      p;
}
// * * * * * * * * * * * * * * * * * * * * * * * * * * * * * * * * * * * * * //

dimensions      [0 2 -2 0 0 0 0];


internalField   nonuniform List<scalar> 
1000
(
1.6784424
1.5573645
1.461384
1.3977279
1.3492184
1.3067463
1.2692111
1.2370394
1.209639
1.1858014
1.1644071
1.1446433
1.1259662
1.1080266
1.0906113
1.0735971
1.0569163
1.0405322
1.024424
1.0085782
0.99298338
0.97762849
0.96250211
0.94759233
0.93288699
0.91837396
0.90404137
0.88987785
0.8758726
0.86201554
0.84829729
0.8347092
0.82124335
0.80789249
0.79464998
0.78150977
0.7684663
0.75551443
0.74264936
0.72986656
0.71716165
0.70453038
0.69196855
0.67947194
0.66703632
0.65465738
0.64233079
0.63005219
0.61781722
0.60562155
0.59346097
0.58133139
0.56922891
0.55714987
0.54509087
0.53304883
0.52102094
0.50900475
0.4969981
0.48499914
0.47300629
0.46101826
0.44903396
0.43705252
0.42507325
0.41309561
0.40111916
0.38914358
0.37716864
0.36519414
0.35321995
0.34124598
0.32927216
0.31729844
0.30532479
0.29335118
0.2813776
0.26940404
0.25743048
0.24545694
0.2334834
0.22150986
0.20953633
0.19756279
0.18558926
0.17361573
0.16164219
0.14966866
0.13769513
0.1257216
0.11374806
0.10177453
0.089801001
0.077827472
0.065853943
0.053880418
0.041906897
0.029933399
0.017959926
0.0059865604
1.5612227
1.5062936
1.4453411
1.3937734
1.3505034
1.3115351
1.2759488
1.2441762
1.2162153
1.1914374
1.1690356
1.1483342
1.1288526
1.1102645
1.092351
1.0749662
1.0580144
1.0414331
1.0251804
1.009227
0.99355011
0.97813074
0.96295215
0.94799885
0.93325635
0.91871092
0.90434966
0.89016045
0.87613199
0.86225379
0.84851616
0.8349102
0.82142776
0.80806141
0.79480436
0.78165044
0.76859399
0.75562981
0.74275306
0.72995917
0.71724379
0.70460267
0.69203162
0.67952646
0.66708297
0.65469688
0.64236386
0.63007954
0.61783955
0.60563954
0.59347525
0.58134255
0.56923749
0.55715636
0.54509569
0.53305232
0.52102342
0.50900646
0.49699924
0.48499987
0.47300673
0.4610185
0.44903407
0.43705256
0.42507324
0.41309558
0.40111912
0.38914354
0.3771686
0.36519411
0.35321993
0.34124596
0.32927215
0.31729843
0.30532478
0.29335117
0.28137759
0.26940403
0.25743048
0.24545694
0.2334834
0.22150986
0.20953633
0.19756279
0.18558926
0.17361573
0.16164219
0.14966866
0.13769513
0.1257216
0.11374806
0.10177453
0.089800999
0.077827469
0.065853933
0.053880402
0.041906863
0.029933346
0.017959837
0.0059864893
1.5004014
1.4742263
1.4358295
1.3946966
1.3556113
1.3190205
1.2847229
1.2530053
1.2241492
1.1980482
1.1742942
1.1524042
1.1319543
1.1126135
1.0941333
1.0763323
1.0590805
1.0422849
1.0258789
1.0098138
0.9940536
0.97857008
0.96334046
0.94834532
0.93356758
0.91899187
0.90460416
0.8903916
0.87634238
0.86244559
0.84869127
0.83507024
0.82157414
0.80819535
0.79492691
0.78176249
0.76869632
0.75572308
0.74283784
0.73003597
0.71731306
0.70466483
0.69208708
0.67957561
0.6671262
0.6547346
0.64239648
0.63010749
0.61786326
0.60565945
0.59349179
0.58135613
0.56924852
0.5571652
0.54510269
0.53305781
0.52102766
0.50900969
0.49700167
0.48500167
0.47300805
0.46101945
0.44903475
0.43705303
0.42507357
0.4130958
0.40111927
0.38914364
0.37716866
0.36519415
0.35321995
0.34124598
0.32927216
0.31729844
0.30532478
0.29335118
0.2813776
0.26940403
0.25743048
0.24545694
0.2334834
0.22150986
0.20953633
0.19756279
0.18558926
0.17361573
0.16164219
0.14966866
0.13769513
0.12572159
0.11374806
0.10177453
0.089800989
0.077827453
0.065853903
0.053880352
0.041906775
0.02993322
0.017959678
0.0059863821
1.4709929
1.4554948
1.4286249
1.394701
1.3589
1.3239487
1.2906468
1.2592937
1.230163
1.2033716
1.178784
1.1560918
1.13494
1.1150113
1.0960531
1.0778734
1.0603277
1.0433067
1.0267282
1.0105302
0.99466639
0.97910083
0.96380514
0.94875586
0.93393302
0.91931915
0.90489876
0.89065791
0.87658398
0.86266552
0.84889207
0.8352541
0.82174295
0.80835072
0.79507024
0.78189497
0.76881897
0.75583673
0.74294319
0.73013359
0.7174034
0.70474825
0.69216388
0.67964604
0.66719048
0.65479294
0.64244909
0.63015459
0.61790511
0.60569632
0.59352399
0.581384
0.5692724
0.55718546
0.54511971
0.53307194
0.52103928
0.50901914
0.49700927
0.48500771
0.4730128
0.46102315
0.44903759
0.43705519
0.42507519
0.413097
0.40112015
0.38914428
0.37716912
0.36519447
0.35322018
0.34124614
0.32927226
0.31729851
0.30532483
0.29335121
0.28137762
0.26940405
0.25743049
0.24545694
0.2334834
0.22150987
0.20953633
0.19756279
0.18558926
0.17361573
0.16164219
0.14966866
0.13769513
0.12572159
0.11374805
0.10177452
0.089800976
0.077827432
0.065853862
0.053880287
0.041906674
0.029933085
0.01795953
0.0059862898
1.4582614
1.446308
1.4240737
1.3937861
1.3599249
1.3259293
1.2932318
1.2622262
1.2331288
1.206117
1.1811899
1.1581403
1.1366588
1.1164412
1.0972376
1.0788554
1.0611465
1.0439961
1.0273153
1.0110363
0.99510746
0.97948912
0.96414991
0.9490642
0.93421039
0.91956987
0.90512628
0.89086505
0.87677311
0.86283866
0.84905098
0.83540031
0.8218778
0.80847541
0.7951858
0.78200233
0.76891888
0.75592987
0.7430301
0.7302147
0.71747908
0.70481876
0.69222943
0.67970677
0.66724652
0.65484437
0.64249602
0.63019712
0.61794336
0.60573044
0.59355415
0.58141041
0.56929531
0.55720512
0.54513641
0.53308598
0.52105094
0.50902872
0.49701706
0.48501397
0.47301777
0.46102704
0.44904061
0.4370575
0.42507694
0.41309831
0.40112112
0.38914499
0.37716963
0.36519484
0.35322044
0.34124632
0.32927239
0.31729859
0.30532489
0.29335125
0.28137764
0.26940406
0.2574305
0.24545695
0.23348341
0.22150987
0.20953633
0.1975628
0.18558926
0.17361573
0.16164219
0.14966866
0.13769512
0.12572159
0.11374805
0.10177452
0.089800967
0.077827416
0.065853835
0.053880243
0.04190661
0.029933003
0.017959447
0.0059862397
1.4582614
1.446308
1.4240737
1.3937861
1.3599249
1.3259293
1.2932318
1.2622262
1.2331288
1.206117
1.1811899
1.1581403
1.1366588
1.1164412
1.0972376
1.0788554
1.0611465
1.0439961
1.0273153
1.0110363
0.99510746
0.97948912
0.96414991
0.9490642
0.9342104
0.91956988
0.90512628
0.89086505
0.87677312
0.86283867
0.84905098
0.83540032
0.82187781
0.80847541
0.79518581
0.78200233
0.76891888
0.75592987
0.7430301
0.7302147
0.71747907
0.70481876
0.69222942
0.67970677
0.66724651
0.65484437
0.64249601
0.63019712
0.61794335
0.60573043
0.59355415
0.58141041
0.5692953
0.55720512
0.54513641
0.53308598
0.52105094
0.50902872
0.49701706
0.48501396
0.47301777
0.46102704
0.44904061
0.4370575
0.42507694
0.41309831
0.40112112
0.38914499
0.37716963
0.36519484
0.35322044
0.34124632
0.32927239
0.31729859
0.30532489
0.29335125
0.28137764
0.26940406
0.2574305
0.24545695
0.23348341
0.22150987
0.20953633
0.1975628
0.18558926
0.17361573
0.16164219
0.14966866
0.13769512
0.12572159
0.11374805
0.10177452
0.089800967
0.077827416
0.065853835
0.053880243
0.04190661
0.029933004
0.017959447
0.0059862402
1.4709929
1.4554948
1.4286249
1.394701
1.3589
1.3239487
1.2906468
1.2592937
1.230163
1.2033716
1.178784
1.1560918
1.13494
1.1150113
1.0960531
1.0778734
1.0603277
1.0433067
1.0267282
1.0105302
0.99466639
0.97910083
0.96380514
0.94875587
0.93393303
0.91931916
0.90489877
0.89065792
0.876584
0.86266554
0.84889209
0.83525412
0.82174296
0.80835073
0.79507025
0.78189498
0.76881897
0.75583673
0.74294319
0.73013358
0.71740339
0.70474824
0.69216387
0.67964602
0.66719047
0.65479292
0.64244907
0.63015458
0.6179051
0.60569631
0.59352398
0.58138399
0.56927239
0.55718546
0.5451197
0.53307194
0.52103928
0.50901914
0.49700927
0.48500771
0.4730128
0.46102315
0.44903759
0.43705519
0.42507519
0.413097
0.40112015
0.38914428
0.37716912
0.36519447
0.35322018
0.34124614
0.32927227
0.31729851
0.30532483
0.29335121
0.28137762
0.26940405
0.25743049
0.24545695
0.2334834
0.22150987
0.20953633
0.19756279
0.18558926
0.17361573
0.16164219
0.14966866
0.13769512
0.12572159
0.11374805
0.10177452
0.089800976
0.077827432
0.065853863
0.053880287
0.041906675
0.029933086
0.017959532
0.0059862907
1.5004014
1.4742263
1.4358295
1.3946966
1.3556113
1.3190205
1.2847229
1.2530053
1.2241492
1.1980482
1.1742942
1.1524042
1.1319543
1.1126135
1.0941333
1.0763323
1.0590805
1.0422849
1.0258789
1.0098138
0.9940536
0.97857009
0.96334047
0.94834533
0.93356759
0.91899188
0.90460418
0.89039162
0.8763424
0.86244562
0.84869129
0.83507026
0.82157416
0.80819536
0.79492692
0.7817625
0.76869633
0.75572308
0.74283784
0.73003596
0.71731305
0.70466482
0.69208706
0.67957559
0.66712618
0.65473458
0.64239646
0.63010747
0.61786325
0.60565944
0.59349178
0.58135612
0.56924851
0.55716519
0.54510269
0.5330578
0.52102765
0.50900969
0.49700167
0.48500167
0.47300805
0.46101945
0.44903475
0.43705303
0.42507357
0.4130958
0.40111927
0.38914364
0.37716866
0.36519415
0.35321995
0.34124598
0.32927216
0.31729844
0.30532479
0.29335118
0.2813776
0.26940404
0.25743048
0.24545694
0.2334834
0.22150986
0.20953633
0.19756279
0.18558926
0.17361573
0.16164219
0.14966866
0.13769513
0.12572159
0.11374806
0.10177453
0.08980099
0.077827455
0.065853904
0.053880352
0.041906776
0.029933222
0.01795968
0.0059863831
1.5612227
1.5062936
1.4453411
1.3937734
1.3505034
1.3115351
1.2759488
1.2441762
1.2162153
1.1914374
1.1690356
1.1483342
1.1288526
1.1102645
1.0923509
1.0749662
1.0580144
1.041433
1.0251804
1.009227
0.99355011
0.97813075
0.96295216
0.94799887
0.93325636
0.91871094
0.90434968
0.89016047
0.87613202
0.86225382
0.84851619
0.83491022
0.82142778
0.80806142
0.79480437
0.78165045
0.76859399
0.75562981
0.74275305
0.72995916
0.71724378
0.70460265
0.6920316
0.67952644
0.66708295
0.65469686
0.64236384
0.63007952
0.61783953
0.60563952
0.59347523
0.58134254
0.56923748
0.55715635
0.54509568
0.53305232
0.52102342
0.50900646
0.49699924
0.48499986
0.47300673
0.4610185
0.44903407
0.43705256
0.42507324
0.41309558
0.40111912
0.38914354
0.3771686
0.36519411
0.35321993
0.34124597
0.32927215
0.31729843
0.30532478
0.29335118
0.2813776
0.26940404
0.25743048
0.24545694
0.2334834
0.22150986
0.20953633
0.19756279
0.18558926
0.17361573
0.16164219
0.14966866
0.13769513
0.12572159
0.11374806
0.10177453
0.089801
0.07782747
0.065853935
0.053880403
0.041906864
0.029933349
0.017959839
0.0059864904
1.6784424
1.5573645
1.461384
1.3977279
1.3492184
1.3067463
1.2692111
1.2370394
1.209639
1.1858014
1.1644071
1.1446433
1.1259662
1.1080266
1.0906113
1.0735971
1.0569163
1.0405322
1.024424
1.0085782
0.99298339
0.9776285
0.96250212
0.94759234
0.932887
0.91837398
0.90404139
0.88987787
0.87587263
0.86201556
0.84829731
0.83470922
0.82124337
0.8078925
0.79464999
0.78150977
0.7684663
0.75551443
0.74264936
0.72986654
0.71716163
0.70453036
0.69196853
0.67947192
0.66703629
0.65465735
0.64233077
0.63005217
0.6178172
0.60562154
0.59346096
0.58133137
0.5692289
0.55714986
0.54509086
0.53304882
0.52102094
0.50900475
0.4969981
0.48499914
0.47300629
0.46101826
0.44903396
0.43705252
0.42507326
0.41309561
0.40111916
0.38914359
0.37716864
0.36519414
0.35321996
0.34124599
0.32927217
0.31729845
0.30532479
0.29335118
0.2813776
0.26940404
0.25743049
0.24545694
0.2334834
0.22150986
0.20953633
0.19756279
0.18558926
0.17361573
0.16164219
0.14966866
0.13769513
0.1257216
0.11374806
0.10177453
0.089801002
0.077827473
0.065853943
0.053880418
0.041906899
0.029933402
0.01795993
0.0059865615
)
;

boundaryField
{
    top
    {
        type            zeroGradient;
    }
    inlet
    {
        type            zeroGradient;
    }
    outlet
    {
        type            fixedValue;
        value           uniform 0;
    }
    bottom
    {
        type            zeroGradient;
    }
    back
    {
        type            empty;
    }
    front
    {
        type            empty;
    }
}


// ************************************************************************* //
