/*--------------------------------*- C++ -*----------------------------------*\
| =========                 |                                                 |
| \\      /  F ield         | OpenFOAM: The Open Source CFD Toolbox           |
|  \\    /   O peration     | Version:  v1812                                 |
|   \\  /    A nd           | Web:      www.OpenFOAM.com                      |
|    \\/     M anipulation  |                                                 |
\*---------------------------------------------------------------------------*/
FoamFile
{
    version     2.0;
    format      ascii;
    class       surfaceScalarField;
    location    "4.95";
    object      phi;
}
// * * * * * * * * * * * * * * * * * * * * * * * * * * * * * * * * * * * * * //

dimensions      [0 3 -1 0 0 0 0];
oriented        oriented;


internalField   nonuniform List<scalar> 
1890
(
0.0093061957
0.00069380425
0.0082843931
0.0010218027
0.0073298986
0.00095449449
0.0064869553
0.00084294334
0.0057695844
0.0007173708
0.00518986
0.00057972444
0.004738168
0.00045169204
0.00439519
0.000342978
0.0041390268
0.00025616316
0.003949107
0.00018991981
0.0038078881
0.00014121894
0.0037013783
0.00010650974
0.0036190582
8.2320136e-05
0.0035534121
6.5646113e-05
0.003499285
5.4127064e-05
0.0034532452
4.6039789e-05
0.0034130513
4.0193943e-05
0.003377259
3.5792278e-05
0.0033449409
3.2318099e-05
0.0033154925
2.944837e-05
0.0032885052
2.6987311e-05
0.0032636867
2.4818522e-05
0.0032408138
2.2872949e-05
0.003219705
2.1108778e-05
0.0032002057
1.949937e-05
0.0031821794
1.8026266e-05
0.0031655042
1.6675297e-05
0.0031500697
1.5434516e-05
0.0031357766
1.4293172e-05
0.0031225354
1.3241246e-05
0.0031102661
1.2269296e-05
0.0030988978
1.1368436e-05
0.0030883675
1.0530385e-05
0.00307862
9.7475228e-06
0.0030696071
9.0129595e-06
0.0030612866
8.3206166e-06
0.0030536214
7.6652886e-06
0.0030465788
7.0427075e-06
0.0030401293
6.4495465e-06
0.0030342459
5.8834316e-06
0.0030289031
5.342868e-06
0.0030240759
4.8271842e-06
0.0030197396
4.3363788e-06
0.0030158686
3.8710024e-06
0.0030124366
3.4319562e-06
0.0030094163
3.0203452e-06
0.003006779
2.6372768e-06
0.0030044952
2.2837258e-06
0.0030025348
1.9603814e-06
0.0030008672
1.66756e-06
0.002999462
1.4051329e-06
0.0029982895
1.1725019e-06
0.0029973208
9.6861241e-07
0.0029965287
7.9198589e-07
0.0029958879
6.4079852e-07
0.0029953749
5.1294639e-07
0.0029949686
4.0615522e-07
0.0029946505
3.1806256e-07
0.0029944041
2.4631219e-07
0.0029942155
1.8860369e-07
0.0029940727
1.4278117e-07
0.0029939658
1.0685285e-07
0.0029938867
7.9045583e-08
0.0029938289
5.7793167e-08
0.0029937871
4.1762515e-08
0.0029937572
2.9820619e-08
0.0029937362
2.1043059e-08
0.0029937215
1.4669978e-08
0.0029937114
1.0106489e-08
0.0029937045
6.8767822e-09
0.0029936999
4.624765e-09
0.0029936968
3.0708939e-09
0.0029936948
2.0168456e-09
0.0029936935
1.3069415e-09
0.0029936927
8.3944063e-10
0.0029936921
5.3115711e-10
0.0029936918
3.3529324e-10
0.0029936916
2.0731707e-10
0.0029936915
1.3032771e-10
0.0029936914
7.8686194e-11
0.0029936913
5.1351213e-11
0.0029936913
2.9785264e-11
0.0029936913
2.2437622e-11
0.0029936913
1.1703034e-11
0.0029936913
1.306111e-11
0.0029936913
5.6061772e-12
0.0029936912
1.2349902e-11
0.0029936912
6.1286848e-12
0.0029936912
2.0159797e-11
0.0029936912
1.6389702e-11
0.0029936912
4.3808e-11
0.0029936911
4.9105252e-11
0.002993691
1.0777291e-10
0.0029936909
1.5392735e-10
0.0029936906
3.2002987e-10
0.00299369
5.5551682e-10
0.002993689
1.0899051e-09
0.0029936869
1.9465577e-09
0.0029936834
3.4956823e-09
5.1075909e-09
0.010339525
0.00035427932
0.010570754
0.00079057335
0.010606301
0.00091894821
0.010547572
0.00090167138
0.010422317
0.00084262624
0.010244356
0.00075768559
0.010039421
0.00065662744
0.0098287426
0.00055365585
0.009625135
0.00045977081
0.0094353013
0.00037975349
0.0092624278
0.0003140925
0.0091075334
0.00026140413
0.0089701542
0.00021969927
0.0088489028
0.0001868975
0.0087419724
0.00016105747
0.0086474941
0.00014051813
0.0085636963
0.00012399175
0.0084890144
0.00011047421
0.0084221152
9.921725e-05
0.008361886
8.9677588e-05
0.0083074082
8.1465135e-05
0.0082579269
7.4299834e-05
0.0082128209
6.7978917e-05
0.0081715764
6.2353319e-05
0.0081337647
5.7311098e-05
0.008099025
5.2765987e-05
0.0080670507
4.8649579e-05
0.0080375792
4.4906076e-05
0.0080103836
4.148874e-05
0.0079852674
3.835754e-05
0.0079620591
3.5477585e-05
0.0079406095
3.2818135e-05
0.007920788
3.0351937e-05
0.0079024807
2.8054826e-05
0.0078855882
2.5905498e-05
0.0078700235
2.3885422e-05
0.00785571
2.1978842e-05
0.0078425799
2.017277e-05
0.0078305725
1.8456987e-05
0.007819632
1.6823949e-05
0.0078097063
1.526866e-05
0.007800745
1.3788407e-05
0.007792699
1.2382459e-05
0.0077855183
1.1051625e-05
0.0077791524
9.7978279e-06
0.0077735492
8.6235867e-06
0.0077686548
7.5315623e-06
0.0077644144
6.5240952e-06
0.0077607719
5.6028407e-06
0.007757671
4.7684684e-06
0.0077550555
4.0204734e-06
0.0077528709
3.3570892e-06
0.0077510641
2.7752961e-06
0.0077495851
2.2709284e-06
0.007748387
1.8388376e-06
0.0077474268
1.4731242e-06
0.0077466655
1.1673735e-06
0.0077460686
9.1492288e-07
0.0077456057
7.090855e-07
0.0077452509
5.4337086e-07
0.007744982
4.1164651e-07
0.0077447806
3.0827412e-07
0.0077446314
2.2818586e-07
0.0077445222
1.6693197e-07
0.0077444433
1.2068381e-07
0.0077443869
8.6214443e-08
0.0077443471
6.0855151e-08
0.0077443193
4.2438889e-08
0.0077443001
2.923859e-08
0.0077442871
1.989925e-08
0.0077442784
1.3378795e-08
0.0077442726
8.8848154e-09
0.0077442687
5.8298478e-09
0.0077442663
3.7786192e-09
0.0077442647
2.4219881e-09
0.0077442637
1.5336761e-09
0.0077442631
9.6334241e-10
0.0077442627
5.975472e-10
0.0077442624
3.7136285e-10
0.0077442623
2.2671316e-10
0.0077442622
1.4339125e-10
0.0077442622
8.6456537e-11
0.0077442621
6.0281594e-11
0.0077442621
3.5323389e-11
0.0077442621
3.2715693e-11
0.0077442621
1.8125242e-11
0.0077442621
2.8322737e-11
0.007744262
1.7583368e-11
0.007744262
4.1047289e-11
0.007744262
3.7591823e-11
0.007744262
8.411168e-11
0.0077442619
1.0595804e-10
0.0077442618
2.0494083e-10
0.0077442616
3.2224171e-10
0.0077442614
5.8731102e-10
0.007744261
1.0526073e-09
0.0077442602
1.8117482e-09
0.007744259
3.1529474e-09
0.0077442577
4.6468412e-09
6.5107419e-09
0.010188704
0.00016557515
0.010530487
0.000448791
0.010851453
0.00059798178
0.011124174
0.00062895026
0.011350581
0.00061621887
0.011524486
0.00058378056
0.01164633
0.00053478421
0.011724155
0.00047583049
0.011767999
0.00041592664
0.011786639
0.00036111396
0.011787114
0.00031361705
0.011775058
0.00027346013
0.011754861
0.00023989697
0.011729768
0.00021198995
0.011702053
0.00018877202
0.011673239
0.00016933298
0.011644339
0.00015289159
0.011616003
0.00013880975
0.01158863
0.00012659068
0.011562448
0.00011585983
0.011537575
0.00010633814
0.011514057
9.781702e-05
0.011491898
9.0138789e-05
0.011471069
8.3182239e-05
0.011451528
7.6852201e-05
0.011433221
7.1072057e-05
0.011416093
6.5778487e-05
0.011400081
6.0917816e-05
0.011385126
5.6443507e-05
0.011371169
5.2314429e-05
0.011358153
4.8493721e-05
0.011346023
4.4948064e-05
0.011334728
4.1647216e-05
0.011324219
3.8563737e-05
0.011314452
3.5672864e-05
0.011305385
3.295253e-05
0.01129698
3.0383446e-05
0.011289204
2.7949222e-05
0.011282024
2.5636451e-05
0.011275413
2.343475e-05
0.011269345
2.13367e-05
0.011263796
1.9337702e-05
0.011258743
1.743568e-05
0.011254164
1.5630708e-05
0.011250037
1.3924503e-05
0.011246341
1.23199e-05
0.011243052
1.0820244e-05
0.011240147
9.4288447e-06
0.011237602
8.1484335e-06
0.011235389
6.9807368e-06
0.011233484
5.9261372e-06
0.011231857
4.9834698e-06
0.011230483
4.1499445e-06
0.011229332
3.4211896e-06
0.01122838
2.7914101e-06
0.011227599
2.2536189e-06
0.011226967
1.79994e-06
0.01122646
1.4219215e-06
0.011226058
1.1108697e-06
0.011225743
8.5813613e-07
0.011225499
6.5538987e-07
0.011225313
4.9481269e-07
0.011225172
3.6926312e-07
0.011225066
2.7235729e-07
0.011224988
1.985251e-07
0.011224931
1.4299525e-07
0.011224891
1.017729e-07
0.011224861
7.1565334e-08
0.011224841
4.9719069e-08
0.011224827
3.4122677e-08
0.011224817
2.3136079e-08
0.01122481
1.5495277e-08
0.011224806
1.0254197e-08
0.011224803
6.7029906e-09
0.011224801
4.3325506e-09
0.0112248
2.7665572e-09
0.011224799
1.7511086e-09
0.011224799
1.0947572e-09
0.011224798
6.8365596e-10
0.011224798
4.2047656e-10
0.011224798
2.6477868e-10
0.011224798
1.6131737e-10
0.011224798
1.0870053e-10
0.011224798
6.5918727e-11
0.011224798
5.472039e-11
0.011224798
3.3560162e-11
0.011224798
4.1024986e-11
0.011224798
2.9637027e-11
0.011224798
5.0481254e-11
0.011224798
5.2531109e-11
0.011224798
9.184877e-11
0.011224798
1.3091815e-10
0.011224798
2.1439622e-10
0.011224798
3.7294588e-10
0.011224798
6.0286666e-10
0.011224798
1.1132794e-09
0.011224798
1.7201972e-09
0.011224798
2.9161013e-09
0.011224799
3.9257186e-09
5.3352052e-09
0.010097182
6.8393557e-05
0.010346961
0.00019901112
0.010662469
0.00028247388
0.010982753
0.0003086665
0.011290229
0.00030874343
0.011575251
0.0002987579
0.011829022
0.00028101347
0.012047865
0.00025698757
0.012233272
0.00023051983
0.01238924
0.0002051459
0.012520294
0.00018256235
0.012630755
0.00016299953
0.012724427
0.00014622482
0.012804514
0.00013190295
0.012873612
0.00011967397
0.012933771
0.00010917412
0.012986594
0.00010006828
0.013033329
9.2075141e-05
0.013074946
8.4973371e-05
0.01311221
7.859576e-05
0.013145731
7.2818021e-05
0.013176
6.7547557e-05
0.013203424
6.2714496e-05
0.013228341
5.8265109e-05
0.013251037
5.4157026e-05
0.013271753
5.0355782e-05
0.013290699
4.683239e-05
0.013308055
4.3561702e-05
0.013323977
4.0521275e-05
0.013338601
3.7690657e-05
0.013352044
3.5050901e-05
0.013364408
3.2584346e-05
0.01337578
3.0274466e-05
0.013386238
2.8105845e-05
0.013395847
2.6064184e-05
0.013404663
2.4136415e-05
0.013412736
2.2310824e-05
0.013420108
2.0577206e-05
0.013426817
1.8926985e-05
0.013432899
1.7353316e-05
0.013438384
1.5851125e-05
0.013443305
1.4417074e-05
0.013447691
1.3049469e-05
0.013451574
1.1748054e-05
0.013454984
1.051377e-05
0.013457956
9.3484149e-06
0.013460522
8.25431e-06
0.013462717
7.2339082e-06
0.013464576
6.2894565e-06
0.013466134
5.4226538e-06
0.013467426
4.6344061e-06
0.013468484
3.9246238e-06
0.013469342
3.2921237e-06
0.013470029
2.7346041e-06
0.013470571
2.248703e-06
0.013470995
1.8301268e-06
0.013471321
1.4738216e-06
0.013471569
1.1741909e-06
0.013471754
9.2530861e-07
0.013471891
7.2114664e-07
0.013471991
5.5576434e-07
0.013472062
4.2348553e-07
0.013472113
3.1902294e-07
0.013472147
2.3757633e-07
0.013472171
1.7488329e-07
0.013472187
1.2724155e-07
0.013472197
9.1500409e-08
0.013472204
6.5029266e-08
0.013472208
4.5675394e-08
0.01347221
3.170507e-08
0.013472211
2.1751236e-08
0.013472212
1.4748042e-08
0.013472213
9.8858275e-09
0.013472213
6.5506437e-09
0.013472213
4.2950003e-09
0.013472213
2.7851109e-09
0.013472213
1.7912396e-09
0.013472213
1.1401423e-09
0.013472213
7.245877e-10
0.013472213
4.5564246e-10
0.013472213
2.9139633e-10
0.013472213
1.8319294e-10
0.013472213
1.2346559e-10
0.013472213
7.9313428e-11
0.013472213
6.192761e-11
0.013472213
4.2587882e-11
0.013472213
4.3229028e-11
0.013472213
3.597489e-11
0.013472213
4.6328057e-11
0.013472213
5.2218709e-11
0.013472213
7.252893e-11
0.013472213
1.0626588e-10
0.013472213
1.4933954e-10
0.013472213
2.6209246e-10
0.013472213
3.86696e-10
0.013472214
7.0604093e-10
0.013472214
1.028838e-09
0.013472215
1.6947766e-09
0.013472217
2.1942083e-09
2.9280525e-09
0.010068394
7.3796761e-13
0.010267405
2.6141952e-12
0.010549879
4.8762794e-12
0.010858545
7.7427766e-12
0.011167288
1.13293e-11
0.011466046
1.5931295e-11
0.01174706
2.1631652e-11
0.012004047
2.8756049e-11
0.012234567
3.7389454e-11
0.012439713
4.7892806e-11
0.012622275
6.0263607e-11
0.012785275
7.4896376e-11
0.012931499
9.1707859e-11
0.013063402
1.1109223e-10
0.013183076
1.3280707e-10
0.01329225
1.5702109e-10
0.013392318
1.8286191e-10
0.013484393
2.0962177e-10
0.013569366
2.3539501e-10
0.013647962
2.5842664e-10
0.013720779
2.7579175e-10
0.013788327
2.8481903e-10
0.013851041
2.8230736e-10
0.013909306
2.6582929e-10
0.013963462
2.3317882e-10
0.014013818
1.8395892e-10
0.01406065
1.1721828e-10
0.014104212
3.7330535e-11
0.014144733
-6.2826899e-11
0.014182424
-1.6912232e-10
0.014217475
-2.7793192e-10
0.01425006
-3.8826754e-10
0.014280335
-4.8873684e-10
0.014308441
-5.804563e-10
0.014334506
-6.514336e-10
0.014358643
-7.0543479e-10
0.014380955
-7.3202968e-10
0.014401533
-7.3822872e-10
0.014420461
-7.1692974e-10
0.014437815
-6.7723391e-10
0.014453666
-6.1551652e-10
0.014468084
-5.4180159e-10
0.014481134
-4.5563306e-10
0.014492882
-3.6663578e-10
0.014503396
-2.7579727e-10
0.014512745
-1.9055651e-10
0.014520999
-1.1236096e-10
0.014528233
-4.6115596e-11
0.014534523
1.1161939e-11
0.014539945
5.4119306e-11
0.01454458
8.5330161e-11
0.014548504
1.0653109e-10
0.014551796
1.1868284e-10
0.014554531
1.2591853e-10
0.014556779
1.2815214e-10
0.014558609
1.3058371e-10
0.014560083
1.3106973e-10
0.014561257
1.3500524e-10
0.014562182
1.3805796e-10
0.014562903
1.4579679e-10
0.014563459
1.5174029e-10
0.014563882
1.6173732e-10
0.014564201
1.6791796e-10
0.014564438
1.7696585e-10
0.014564613
1.8018311e-10
0.01456474
1.8522335e-10
0.014564831
1.8321823e-10
0.014564896
1.8280234e-10
0.014564942
1.7509815e-10
0.014564973
1.6946603e-10
0.014564995
1.571717e-10
0.01456501
1.4793124e-10
0.014565019
1.3298368e-10
0.014565026
1.2215649e-10
0.01456503
1.0667538e-10
0.014565033
9.6200257e-11
0.014565034
8.1798718e-11
0.014565035
7.2966907e-11
0.014565036
6.0731507e-11
0.014565037
5.4273723e-11
0.014565037
4.4553964e-11
0.014565037
4.0626037e-11
0.014565037
3.3514333e-11
0.014565037
3.2067531e-11
0.014565037
2.7305242e-11
0.014565037
2.8131131e-11
0.014565037
2.5721362e-11
0.014565037
2.8799233e-11
0.014565037
2.8792747e-11
0.014565037
3.3928629e-11
0.014565037
3.5061739e-11
0.014565037
3.8845716e-11
0.014565037
3.6732448e-11
0.014565038
3.8216177e-11
0.014565038
3.4260224e-11
0.014565039
3.4644438e-11
0.01456504
3.3843396e-11
0.014565041
3.1746288e-11
0.014565043
2.2536788e-11
2.056687e-11
0.010068394
-6.8393555e-05
0.010267405
-0.00019901112
0.010549879
-0.00028247387
0.010858545
-0.00030866648
0.011167288
-0.00030874341
0.011466046
-0.00029875787
0.01174706
-0.00028101343
0.012004047
-0.00025698751
0.012234567
-0.00023051976
0.012439713
-0.00020514581
0.012622275
-0.00018256223
0.012785275
-0.00016299939
0.012931499
-0.00014622464
0.013063402
-0.00013190274
0.013183076
-0.00011967371
0.01329225
-0.00010917382
0.013392318
-0.00010006794
0.013484393
-9.207475e-05
0.013569366
-8.4972933e-05
0.013647962
-7.8595282e-05
0.01372078
-7.2817514e-05
0.013788327
-6.7547036e-05
0.013851041
-6.2713983e-05
0.013909306
-5.8264629e-05
0.013963463
-5.4156608e-05
0.014013818
-5.0355456e-05
0.014060651
-4.6832186e-05
0.014104212
-4.3561647e-05
0.014144734
-4.0521395e-05
0.014182425
-3.7690964e-05
0.014217476
-3.5051401e-05
0.01425006
-3.2585036e-05
0.014280335
-3.0275333e-05
0.014308441
-2.8106864e-05
0.014334506
-2.6065328e-05
0.014358643
-2.4137644e-05
0.014380954
-2.2312102e-05
0.014401532
-2.0578487e-05
0.01442046
-1.8928236e-05
0.014437814
-1.7354493e-05
0.014453665
-1.5852203e-05
0.014468083
-1.4418022e-05
0.014481133
-1.3050278e-05
0.014492881
-1.1748709e-05
0.014503395
-1.0514276e-05
0.014512744
-9.3487725e-06
0.014520998
-8.2545372e-06
0.014528232
-7.2340171e-06
0.014534522
-6.2894685e-06
0.014539944
-5.4225872e-06
0.014544579
-4.6342813e-06
0.014548503
-3.9244573e-06
0.014551795
-3.2919284e-06
0.01455453
-2.7343916e-06
0.014556778
-2.2484771e-06
0.014558608
-1.8298936e-06
0.014560082
-1.4735784e-06
0.014561256
-1.1739405e-06
0.014562181
-9.250449e-07
0.014562902
-7.2087221e-07
0.014563458
-5.5547352e-07
0.014563881
-4.2318276e-07
0.0145642
-3.1870472e-07
0.014564438
-2.3724985e-07
0.014564612
-1.745476e-07
0.01456474
-1.2690559e-07
0.014564831
-9.1164484e-08
0.014564896
-6.4702887e-08
0.014564941
-4.5358842e-08
0.014564973
-3.1406794e-08
0.014564995
-2.1470144e-08
0.014565009
-1.4491003e-08
0.014565019
-9.6500913e-09
0.014565026
-6.3410239e-09
0.01456503
-4.1069696e-09
0.014565032
-2.6220824e-09
0.014565034
-1.647611e-09
0.014565035
-1.0181202e-09
0.014565036
-6.1782328e-10
0.014565036
-3.6607149e-10
0.014565037
-2.1264876e-10
0.014565037
-1.1693453e-10
0.014565037
-6.3281149e-11
0.014565037
-2.7332671e-11
0.014565037
-1.1863464e-11
0.014565037
3.239163e-12
0.014565037
5.1497399e-12
0.014565037
1.201927e-11
0.014565037
7.7041417e-12
0.014565037
5.808341e-12
0.014565037
-6.1647043e-12
0.014565037
-3.9591464e-11
0.014565037
-7.9910621e-11
0.014565038
-1.9698237e-10
0.014565038
-3.2153168e-10
0.014565039
-6.4298159e-10
0.01456504
-9.6774886e-10
0.014565041
-1.6429344e-09
0.014565043
-2.1455218e-09
-2.8884967e-09
0.010097182
-0.00016557515
0.010346961
-0.00044879099
0.010662469
-0.00059798177
0.010982753
-0.00062895024
0.011290229
-0.00061621885
0.011575251
-0.00058378053
0.011829022
-0.00053478417
0.012047865
-0.00047583044
0.012233272
-0.00041592658
0.01238924
-0.00036111388
0.012520295
-0.00031361695
0.012630755
-0.00027346001
0.012724427
-0.00023989682
0.012804514
-0.00021198977
0.012873612
-0.00018877182
0.012933771
-0.00016933274
0.012986595
-0.00015289132
0.013033329
-0.00013880945
0.013074947
-0.00012659034
0.013112211
-0.00011585947
0.013145731
-0.00010633776
0.013176001
-9.7816638e-05
0.013203425
-9.0138419e-05
0.013228342
-8.3181899e-05
0.013251038
-7.6851912e-05
0.013271754
-7.1071838e-05
0.0132907
-6.5778359e-05
0.013308056
-6.0917792e-05
0.013323978
-5.6443605e-05
0.013338602
-5.2314651e-05
0.013352045
-4.8494073e-05
0.013364408
-4.4948535e-05
0.013375781
-4.16478e-05
0.013386238
-3.8564414e-05
0.013395847
-3.5673619e-05
0.013404662
-3.2953336e-05
0.013412735
-3.0384281e-05
0.013420106
-2.7950061e-05
0.013426815
-2.5637271e-05
0.013432896
-2.3435532e-05
0.013438382
-2.1337425e-05
0.013443302
-1.9338358e-05
0.013447688
-1.7436253e-05
0.013451571
-1.5631195e-05
0.013454981
-1.3924899e-05
0.013457953
-1.2320209e-05
0.013460519
-1.0820468e-05
0.013462714
-9.4289929e-06
0.013464573
-8.1485113e-06
0.013466131
-6.9807566e-06
0.013467423
-5.9261065e-06
0.013468482
-4.9833994e-06
0.01346934
-4.1498412e-06
0.013470026
-3.4210602e-06
0.013470569
-2.7912597e-06
0.013470993
-2.2534507e-06
0.013471319
-1.7997568e-06
0.013471567
-1.4217246e-06
0.013471752
-1.1106606e-06
0.013471889
-8.579157e-07
0.013471989
-6.5515961e-07
0.01347206
-4.9457445e-07
0.013472111
-3.6901878e-07
0.013472146
-2.7211022e-07
0.013472169
-1.982774e-07
0.013472185
-1.4275131e-07
0.013472196
-1.0153457e-07
0.013472202
-7.1337257e-08
0.013472207
-4.9502113e-08
0.013472209
-3.3920963e-08
0.013472211
-2.294921e-08
0.013472211
-1.5326464e-08
0.013472212
-1.0101572e-08
0.013472212
-6.5687484e-09
0.013472212
-4.2137611e-09
0.013472212
-2.6646347e-09
0.013472212
-1.6622644e-09
0.013472212
-1.0199326e-09
0.013472212
-6.1877858e-10
0.013472212
-3.6634473e-10
0.013472212
-2.1718155e-10
0.013472212
-1.2112547e-10
0.013472212
-7.1848753e-11
0.013472212
-3.3589254e-11
0.013472212
-2.2689111e-11
0.013472213
-3.4831023e-12
0.013472213
-8.3919105e-12
0.013472213
3.4657685e-12
0.013472213
-1.2286259e-11
0.013472213
-1.1226617e-11
0.013472213
-4.5873958e-11
0.013472213
-8.4710787e-11
0.013472213
-1.6772677e-10
0.013472213
-3.2979355e-10
0.013472213
-5.6159648e-10
0.013472214
-1.0735124e-09
0.013472214
-1.67683e-09
0.013472215
-2.8726988e-09
0.013472217
-3.8921626e-09
-5.3069541e-09
0.010188704
-0.00035427932
0.010530487
-0.00079057335
0.010851453
-0.00091894821
0.011124174
-0.00090167137
0.011350581
-0.00084262623
0.011524486
-0.00075768557
0.01164633
-0.00065662741
0.011724155
-0.00055365582
0.011767999
-0.00045977076
0.011786639
-0.00037975344
0.011787114
-0.00031409244
0.011775058
-0.00026140405
0.011754861
-0.00021969918
0.011729768
-0.00018689739
0.011702054
-0.00016105734
0.011673239
-0.00014051799
0.011644339
-0.0001239916
0.011616004
-0.00011047404
0.011588631
-9.9217065e-05
0.011562449
-8.9677393e-05
0.011537576
-8.1464936e-05
0.011514059
-7.4299636e-05
0.011491899
-6.797873e-05
0.01147107
-6.2353149e-05
0.011451529
-5.7310956e-05
0.011433223
-5.2765881e-05
0.011416094
-4.8649517e-05
0.011400083
-4.4906064e-05
0.011385128
-4.1488784e-05
0.011371171
-3.835764e-05
0.011358154
-3.5477741e-05
0.011346024
-3.2818345e-05
0.011334728
-3.0352194e-05
0.011324219
-2.8055127e-05
0.011314451
-2.590583e-05
0.011305384
-2.3885783e-05
0.011296979
-2.1979216e-05
0.011289202
-2.0173156e-05
0.011282022
-1.8457368e-05
0.011275411
-1.6824325e-05
0.011269342
-1.5269015e-05
0.011263793
-1.3788744e-05
0.011258739
-1.2382763e-05
0.01125416
-1.10519e-05
0.011250033
-9.7980626e-06
0.011246337
-8.6237856e-06
0.011243048
-7.5317204e-06
0.011240143
-6.5242163e-06
0.011237598
-5.602925e-06
0.011235386
-4.7685188e-06
0.01123348
-4.0204949e-06
0.011231854
-3.3570832e-06
0.011230479
-2.7752695e-06
0.011229329
-2.2708805e-06
0.011228377
-1.8387765e-06
0.011227596
-1.4730471e-06
0.011226964
-1.1672883e-06
0.011226457
-9.1482557e-07
0.011226055
-7.0898373e-07
0.011225741
-5.4326007e-07
0.011225497
-4.1153405e-07
0.011225311
-3.0815554e-07
0.01122517
-2.2806852e-07
0.011225064
-1.6681167e-07
0.011224987
-1.2056763e-07
0.01122493
-8.609852e-08
0.011224889
-6.0746291e-08
0.01122486
-4.2333153e-08
0.01122484
-2.9142052e-08
0.011224826
-1.9807834e-08
0.011224816
-1.329798e-08
0.01122481
-8.8100576e-09
0.011224805
-5.7657723e-09
0.011224803
-3.720429e-09
0.011224801
-2.3738487e-09
0.0112248
-1.4904486e-09
0.011224799
-9.2862832e-10
0.011224798
-5.6623929e-10
0.011224798
-3.4695043e-10
0.011224798
-2.0405436e-10
0.011224798
-1.2572006e-10
0.011224798
-6.8923981e-11
0.011224798
-4.6209106e-11
0.011224798
-2.0073812e-11
0.011224798
-1.939431e-11
0.011224798
-2.3301862e-12
0.011224798
-1.3422621e-11
0.011224798
6.6717997e-13
0.011224798
-2.3289533e-11
0.011224798
-1.6346105e-11
0.011224798
-6.4572188e-11
0.011224798
-8.376224e-11
0.011224798
-1.8540593e-10
0.011224798
-3.0440691e-10
0.011224798
-5.6859533e-10
0.011224798
-1.0275495e-09
0.011224798
-1.7872909e-09
0.011224798
-3.1387896e-09
0.011224799
-4.6390428e-09
-6.5045003e-09
0.010339525
-0.00069380425
0.010570754
-0.0010218027
0.010606301
-0.00095449449
0.010547572
-0.00084294334
0.010422317
-0.0007173708
0.010244356
-0.00057972443
0.010039421
-0.00045169203
0.0098287427
-0.00034297799
0.0096251351
-0.00025616315
0.0094353014
-0.00018991979
0.0092624279
-0.00014121891
0.0091075336
-0.00010650972
0.0089701545
-8.2320108e-05
0.0088489032
-6.5646083e-05
0.0087419729
-5.4127031e-05
0.0086474946
-4.6039752e-05
0.0085636969
-4.0193903e-05
0.0084890151
-3.5792234e-05
0.0084221161
-3.2318053e-05
0.008361887
-2.9448321e-05
0.0083074093
-2.698726e-05
0.0082579281
-2.481847e-05
0.0082128222
-2.2872897e-05
0.0081715778
-2.1108728e-05
0.0081337661
-1.9499322e-05
0.0080990264
-1.8026224e-05
0.0080670521
-1.6675262e-05
0.0080375805
-1.543449e-05
0.0080103849
-1.4293156e-05
0.0079852684
-1.3241242e-05
0.00796206
-1.2269303e-05
0.0079406101
-1.1368456e-05
0.0079207883
-1.0530416e-05
0.0079024808
-9.7475638e-06
0.0078855879
-9.0130114e-06
0.0078700228
-8.3206746e-06
0.007855709
-7.6653562e-06
0.0078425786
-7.0427764e-06
0.0078305709
-6.4496225e-06
0.0078196301
-5.8835042e-06
0.007809704
-5.3429454e-06
0.0078007425
-4.8272544e-06
0.0077926962
-4.3364503e-06
0.0077855153
-3.8710638e-06
0.0077791493
-3.4320157e-06
0.0077735459
-3.0203944e-06
0.0077686515
-2.6373218e-06
0.0077644111
-2.2837615e-06
0.0077607686
-1.9604113e-06
0.0077576677
-1.6675838e-06
0.0077550523
-1.4051506e-06
0.0077528678
-1.1725168e-06
0.0077510612
-9.6862107e-07
0.0077495823
-7.9199446e-07
0.0077483844
-6.4080094e-07
0.0077474243
-5.1295003e-07
0.0077466632
-4.0615238e-07
0.0077460664
-3.1806132e-07
0.0077456038
-2.4630451e-07
0.0077452491
-1.8859738e-07
0.0077449804
-1.4276855e-07
0.0077447791
-1.0684157e-07
0.0077446301
-7.9028689e-08
0.007744521
-5.7777736e-08
0.0077444422
-4.1742469e-08
0.007744386
-2.9802729e-08
0.0077443463
-2.1021869e-08
0.0077443186
-1.4651587e-08
0.0077442996
-1.0085924e-08
0.0077442866
-6.8598021e-09
0.007744278
-4.6065516e-09
0.0077442722
-3.0565761e-09
0.0077442685
-2.0017161e-09
0.0077442661
-1.2959205e-09
0.0077442645
-8.2775231e-10
0.0077442636
-5.2329411e-10
0.007744263
-3.2648872e-10
0.0077442626
-2.0210054e-10
0.0077442624
-1.2382497e-10
0.0077442623
-7.5230876e-11
0.0077442622
-4.6072095e-11
0.0077442622
-2.7202548e-11
0.0077442622
-1.7708888e-11
0.0077442621
-9.0340157e-12
0.0077442621
-8.008759e-12
0.0077442621
-1.972804e-12
0.0077442621
-6.8125581e-12
0.0077442621
-2.5415487e-12
0.0077442621
-1.6122838e-11
0.0077442621
-1.5894293e-11
0.0077442621
-4.222186e-11
0.007744262
-4.834952e-11
0.0077442619
-1.0240503e-10
0.0077442618
-1.4308074e-10
0.0077442616
-3.0114449e-10
0.0077442611
-5.4016162e-10
0.0077442604
-1.0893266e-09
0.0077442591
-1.95936e-09
0.007744258
-3.5086857e-09
-5.1138695e-09
0.0093061957
0.0082843931
0.0073298986
0.0064869553
0.0057695845
0.00518986
0.004738168
0.00439519
0.0041390269
0.0039491071
0.0038078882
0.0037013785
0.0036190583
0.0035534123
0.0034992852
0.0034532455
0.0034130516
0.0033772593
0.0033449413
0.0033154929
0.0032885057
0.0032636872
0.0032408143
0.0032197055
0.0032002062
0.0031821799
0.0031655047
0.0031500702
0.003135777
0.0031225358
0.0031102665
0.003098898
0.0030883676
0.00307862
0.003069607
0.0030612864
0.003053621
0.0030465782
0.0030401286
0.0030342451
0.0030289022
0.0030240749
0.0030197384
0.0030158674
0.0030124354
0.003009415
0.0030067777
0.0030044939
0.0030025335
0.0030008659
0.0029994608
0.0029982883
0.0029973197
0.0029965277
0.0029958869
0.002995374
0.0029949678
0.0029946498
0.0029944035
0.0029942149
0.0029940721
0.0029939653
0.0029938863
0.0029938285
0.0029937868
0.002993757
0.002993736
0.0029937213
0.0029937112
0.0029937044
0.0029936998
0.0029936967
0.0029936947
0.0029936935
0.0029936926
0.0029936921
0.0029936918
0.0029936916
0.0029936915
0.0029936914
0.0029936914
0.0029936913
0.0029936913
0.0029936913
0.0029936913
0.0029936913
0.0029936913
0.0029936913
0.0029936913
0.0029936913
0.0029936912
0.0029936911
0.002993691
0.0029936909
0.0029936906
0.0029936901
0.002993689
0.002993687
0.0029936835
)
;

boundaryField
{
    top
    {
        type            calculated;
        value           uniform 0;
    }
    inlet
    {
        type            calculated;
        value           nonuniform List<scalar> 10(-0.01 -0.01 -0.01 -0.01 -0.01 -0.01 -0.01 -0.01 -0.01 -0.01);
    }
    outlet
    {
        type            calculated;
        value           nonuniform List<scalar> 10(0.0029936783 0.0077442563 0.0112248 0.013472219 0.014565046 0.014565046 0.01347222 0.0112248 0.0077442565 0.0029936784);
    }
    bottom
    {
        type            calculated;
        value           uniform 0;
    }
    back
    {
        type            empty;
        value           nonuniform 0();
    }
    front
    {
        type            empty;
        value           nonuniform 0();
    }
}


// ************************************************************************* //
