/*--------------------------------*- C++ -*----------------------------------*\
| =========                 |                                                 |
| \\      /  F ield         | OpenFOAM: The Open Source CFD Toolbox           |
|  \\    /   O peration     | Version:  v1812                                 |
|   \\  /    A nd           | Web:      www.OpenFOAM.com                      |
|    \\/     M anipulation  |                                                 |
\*---------------------------------------------------------------------------*/
FoamFile
{
    version     2.0;
    format      ascii;
    class       volScalarField;
    location    "50";
    object      T;
}
// * * * * * * * * * * * * * * * * * * * * * * * * * * * * * * * * * * * * * //

dimensions      [0 0 0 1 0 0 0];


internalField   nonuniform List<scalar> 
10000
(
1.44004
1.44004
1.44004
1.44004
1.44004
1.44004
1.44004
1.44004
1.44004
1.44004
1.32071
1.32071
1.32071
1.32071
1.32071
1.32071
1.32071
1.32071
1.32071
1.32071
1.20318
1.20318
1.20318
1.20318
1.20318
1.20318
1.20318
1.20318
1.20318
1.20318
1.08858
1.08858
1.08857
1.08857
1.08857
1.08857
1.08857
1.08857
1.08857
1.08857
0.97794
0.97794
0.97794
0.977939
0.977939
0.977939
0.977939
0.977939
0.977939
0.977939
0.872209
0.872209
0.872208
0.872208
0.872208
0.872208
0.872208
0.872208
0.872208
0.872208
0.772176
0.772176
0.772175
0.772175
0.772175
0.772175
0.772175
0.772175
0.772175
0.772175
0.678481
0.678481
0.67848
0.67848
0.678479
0.678479
0.678479
0.67848
0.67848
0.67848
0.591598
0.591599
0.591598
0.591597
0.591597
0.591597
0.591597
0.591597
0.591598
0.591598
0.511837
0.511838
0.511837
0.511837
0.511836
0.511836
0.511836
0.511837
0.511837
0.511837
0.439344
0.439344
0.439344
0.439343
0.439343
0.439343
0.439343
0.439343
0.439344
0.439344
0.374111
0.374111
0.374111
0.37411
0.37411
0.37411
0.37411
0.374111
0.374111
0.374111
0.315995
0.315995
0.315995
0.315994
0.315994
0.315994
0.315994
0.315995
0.315995
0.315995
0.264732
0.264732
0.264732
0.264731
0.264731
0.264731
0.264732
0.264732
0.264732
0.264732
0.219962
0.219962
0.219962
0.219961
0.219961
0.219961
0.219961
0.219962
0.219962
0.219962
0.181248
0.181249
0.181248
0.181248
0.181247
0.181247
0.181248
0.181248
0.181248
0.181248
0.148101
0.148101
0.148101
0.148101
0.1481
0.1481
0.1481
0.148101
0.148101
0.148101
0.119999
0.119999
0.119999
0.119999
0.119998
0.119998
0.119998
0.119998
0.119999
0.119999
0.0964081
0.0964082
0.0964077
0.0964073
0.0964069
0.0964067
0.0964065
0.0964065
0.0964066
0.0964065
0.076797
0.076797
0.0767964
0.0767959
0.0767954
0.0767949
0.0767945
0.0767943
0.0767942
0.076794
0.0606533
0.0606531
0.0606525
0.0606517
0.0606509
0.0606501
0.0606494
0.0606488
0.0606484
0.060648
0.0474928
0.0474926
0.0474917
0.0474906
0.0474893
0.047488
0.0474866
0.0474854
0.0474845
0.0474839
0.0368681
0.0368676
0.0368664
0.0368648
0.0368628
0.0368605
0.0368581
0.0368559
0.0368542
0.0368531
0.0283731
0.0283724
0.0283707
0.0283683
0.0283651
0.0283614
0.0283573
0.0283534
0.0283502
0.0283483
0.021646
0.0216449
0.0216425
0.0216389
0.0216341
0.0216281
0.0216214
0.0216145
0.0216087
0.0216052
0.0163698
0.0163682
0.0163648
0.0163596
0.0163524
0.016343
0.0163319
0.01632
0.0163094
0.0163029
0.0122708
0.0122687
0.0122641
0.0122567
0.0122461
0.0122317
0.0122138
0.0121935
0.012174
0.0121612
0.00911667
0.00911385
0.00910776
0.00909776
0.00908279
0.00906166
0.00903349
0.00899895
0.0089626
0.00893591
0.00671258
0.00670906
0.00670141
0.00668852
0.00666853
0.00663884
0.00659644
0.00653923
0.00647048
0.00641014
0.00489768
0.00489355
0.0048845
0.00486892
0.00484398
0.00480521
0.00474582
0.00465641
0.00452808
0.00437613
1.44004
1.44004
1.44004
1.44004
1.44004
1.44004
1.44004
1.44004
1.44004
1.44004
1.32071
1.32071
1.32071
1.32071
1.32071
1.32071
1.32071
1.32071
1.32071
1.32071
1.20318
1.20318
1.20318
1.20318
1.20318
1.20318
1.20318
1.20318
1.20318
1.20318
1.08858
1.08858
1.08857
1.08857
1.08857
1.08857
1.08857
1.08857
1.08857
1.08857
0.97794
0.97794
0.977939
0.977939
0.977939
0.977939
0.977939
0.977939
0.977939
0.977939
0.872209
0.872209
0.872208
0.872208
0.872208
0.872207
0.872208
0.872208
0.872208
0.872208
0.772176
0.772176
0.772175
0.772175
0.772175
0.772174
0.772175
0.772175
0.772175
0.772175
0.678481
0.678481
0.67848
0.67848
0.678479
0.678479
0.678479
0.67848
0.67848
0.67848
0.591599
0.591599
0.591598
0.591597
0.591597
0.591597
0.591597
0.591598
0.591598
0.591598
0.511838
0.511838
0.511837
0.511836
0.511836
0.511836
0.511836
0.511837
0.511837
0.511837
0.439344
0.439344
0.439343
0.439343
0.439343
0.439343
0.439343
0.439343
0.439344
0.439344
0.374111
0.374111
0.374111
0.37411
0.37411
0.37411
0.37411
0.374111
0.374111
0.374111
0.315995
0.315995
0.315994
0.315994
0.315994
0.315994
0.315994
0.315995
0.315995
0.315995
0.264732
0.264732
0.264732
0.264731
0.264731
0.264731
0.264731
0.264732
0.264732
0.264732
0.219962
0.219962
0.219962
0.219961
0.219961
0.219961
0.219961
0.219962
0.219962
0.219962
0.181249
0.181248
0.181248
0.181248
0.181247
0.181247
0.181248
0.181248
0.181248
0.181248
0.148101
0.148101
0.148101
0.1481
0.1481
0.1481
0.1481
0.148101
0.148101
0.148101
0.12
0.119999
0.119999
0.119999
0.119998
0.119998
0.119998
0.119998
0.119999
0.119999
0.0964083
0.0964081
0.0964076
0.0964072
0.0964068
0.0964066
0.0964065
0.0964065
0.0964067
0.0964066
0.0767971
0.0767969
0.0767964
0.0767958
0.0767953
0.0767949
0.0767945
0.0767943
0.0767943
0.0767941
0.0606534
0.0606531
0.0606524
0.0606517
0.0606509
0.0606501
0.0606493
0.0606488
0.0606485
0.0606481
0.0474929
0.0474925
0.0474916
0.0474906
0.0474893
0.0474879
0.0474866
0.0474854
0.0474846
0.047484
0.0368681
0.0368676
0.0368664
0.0368648
0.0368628
0.0368605
0.0368581
0.0368559
0.0368542
0.0368532
0.0283731
0.0283723
0.0283706
0.0283682
0.0283651
0.0283614
0.0283573
0.0283534
0.0283502
0.0283483
0.021646
0.0216449
0.0216425
0.0216389
0.0216341
0.0216281
0.0216213
0.0216145
0.0216087
0.0216052
0.0163698
0.0163682
0.0163648
0.0163596
0.0163523
0.016343
0.0163319
0.01632
0.0163095
0.0163029
0.0122708
0.0122687
0.012264
0.0122567
0.012246
0.0122317
0.0122138
0.0121935
0.012174
0.0121612
0.00911668
0.00911384
0.00910774
0.00909774
0.00908278
0.00906165
0.00903348
0.00899895
0.00896263
0.00893594
0.00671259
0.00670906
0.0067014
0.00668851
0.00666852
0.00663883
0.00659643
0.00653923
0.0064705
0.00641015
0.00489769
0.00489355
0.00488449
0.00486891
0.00484397
0.0048052
0.00474581
0.0046564
0.00452809
0.00437614
1.44004
1.44004
1.44004
1.44004
1.44004
1.44004
1.44004
1.44004
1.44004
1.44004
1.32071
1.32071
1.32071
1.32071
1.32071
1.32071
1.32071
1.32071
1.32071
1.32071
1.20318
1.20318
1.20318
1.20318
1.20318
1.20318
1.20318
1.20318
1.20318
1.20318
1.08857
1.08857
1.08857
1.08857
1.08857
1.08857
1.08857
1.08857
1.08857
1.08857
0.97794
0.977939
0.977939
0.977938
0.977938
0.977938
0.977938
0.977938
0.977939
0.977939
0.872208
0.872208
0.872208
0.872207
0.872207
0.872207
0.872207
0.872207
0.872208
0.872208
0.772175
0.772175
0.772175
0.772174
0.772174
0.772174
0.772174
0.772174
0.772175
0.772175
0.67848
0.67848
0.678479
0.678479
0.678478
0.678478
0.678479
0.678479
0.67848
0.67848
0.591598
0.591598
0.591597
0.591596
0.591596
0.591596
0.591596
0.591597
0.591598
0.591598
0.511837
0.511837
0.511836
0.511836
0.511835
0.511835
0.511836
0.511836
0.511837
0.511837
0.439344
0.439343
0.439343
0.439342
0.439342
0.439342
0.439342
0.439343
0.439344
0.439344
0.374111
0.374111
0.37411
0.374109
0.374109
0.374109
0.37411
0.37411
0.374111
0.374111
0.315995
0.315995
0.315994
0.315993
0.315993
0.315993
0.315994
0.315994
0.315995
0.315995
0.264732
0.264732
0.264731
0.264731
0.264731
0.264731
0.264731
0.264731
0.264732
0.264732
0.219962
0.219962
0.219961
0.219961
0.219961
0.219961
0.219961
0.219961
0.219962
0.219962
0.181248
0.181248
0.181247
0.181247
0.181247
0.181247
0.181247
0.181248
0.181248
0.181248
0.148101
0.148101
0.1481
0.1481
0.1481
0.1481
0.1481
0.1481
0.148101
0.148101
0.119999
0.119999
0.119999
0.119998
0.119998
0.119998
0.119998
0.119998
0.119999
0.119999
0.0964079
0.0964078
0.0964072
0.0964068
0.0964065
0.0964063
0.0964062
0.0964063
0.0964066
0.0964066
0.0767968
0.0767966
0.0767961
0.0767955
0.076795
0.0767946
0.0767942
0.0767941
0.0767942
0.0767941
0.0606531
0.0606528
0.0606522
0.0606514
0.0606506
0.0606498
0.0606491
0.0606486
0.0606484
0.0606481
0.0474927
0.0474923
0.0474914
0.0474903
0.0474891
0.0474877
0.0474864
0.0474852
0.0474845
0.0474839
0.036868
0.0368674
0.0368662
0.0368646
0.0368626
0.0368603
0.036858
0.0368558
0.0368542
0.0368532
0.028373
0.0283722
0.0283705
0.0283681
0.0283649
0.0283612
0.0283572
0.0283533
0.0283502
0.0283483
0.0216459
0.0216448
0.0216424
0.0216388
0.021634
0.021628
0.0216212
0.0216144
0.0216087
0.0216052
0.0163697
0.0163681
0.0163647
0.0163595
0.0163522
0.0163429
0.0163318
0.01632
0.0163094
0.0163029
0.0122708
0.0122686
0.012264
0.0122566
0.012246
0.0122317
0.0122137
0.0121934
0.012174
0.0121612
0.00911663
0.00911378
0.00910768
0.00909768
0.00908272
0.00906159
0.00903343
0.00899892
0.00896261
0.00893593
0.00671255
0.00670901
0.00670136
0.00668847
0.00666847
0.00663879
0.0065964
0.0065392
0.00647049
0.00641015
0.00489765
0.00489351
0.00488445
0.00486887
0.00484394
0.00480517
0.00474578
0.00465638
0.00452808
0.00437613
1.44004
1.44004
1.44004
1.44004
1.44004
1.44004
1.44004
1.44004
1.44004
1.44004
1.32071
1.32071
1.32071
1.32071
1.32071
1.32071
1.32071
1.32071
1.32071
1.32071
1.20318
1.20318
1.20318
1.20318
1.20318
1.20318
1.20318
1.20318
1.20318
1.20318
1.08857
1.08857
1.08857
1.08857
1.08857
1.08857
1.08857
1.08857
1.08857
1.08857
0.977939
0.977939
0.977938
0.977938
0.977938
0.977938
0.977938
0.977938
0.977939
0.977939
0.872208
0.872208
0.872207
0.872207
0.872206
0.872206
0.872207
0.872207
0.872207
0.872208
0.772175
0.772175
0.772174
0.772174
0.772173
0.772173
0.772173
0.772174
0.772175
0.772175
0.67848
0.67848
0.678479
0.678478
0.678478
0.678478
0.678478
0.678479
0.67848
0.67848
0.591597
0.591597
0.591596
0.591596
0.591596
0.591596
0.591596
0.591597
0.591597
0.591598
0.511837
0.511836
0.511836
0.511835
0.511835
0.511835
0.511835
0.511836
0.511837
0.511837
0.439343
0.439343
0.439342
0.439342
0.439341
0.439342
0.439342
0.439343
0.439343
0.439344
0.37411
0.37411
0.374109
0.374109
0.374109
0.374109
0.374109
0.37411
0.374111
0.374111
0.315994
0.315994
0.315993
0.315993
0.315993
0.315993
0.315993
0.315994
0.315995
0.315995
0.264732
0.264731
0.264731
0.26473
0.26473
0.26473
0.264731
0.264731
0.264732
0.264732
0.219961
0.219961
0.219961
0.21996
0.21996
0.21996
0.219961
0.219961
0.219962
0.219962
0.181248
0.181248
0.181247
0.181247
0.181247
0.181247
0.181247
0.181247
0.181248
0.181248
0.148101
0.148101
0.1481
0.1481
0.1481
0.1481
0.1481
0.1481
0.148101
0.148101
0.119999
0.119999
0.119998
0.119998
0.119998
0.119998
0.119998
0.119998
0.119999
0.119999
0.0964077
0.0964076
0.096407
0.0964066
0.0964063
0.0964061
0.096406
0.0964062
0.0964066
0.0964066
0.0767967
0.0767965
0.0767959
0.0767953
0.0767948
0.0767944
0.0767941
0.076794
0.0767942
0.0767941
0.060653
0.0606527
0.060652
0.0606513
0.0606505
0.0606497
0.060649
0.0606485
0.0606483
0.0606481
0.0474926
0.0474922
0.0474913
0.0474902
0.047489
0.0474876
0.0474863
0.0474852
0.0474845
0.0474839
0.0368679
0.0368673
0.0368661
0.0368645
0.0368625
0.0368603
0.0368579
0.0368558
0.0368542
0.0368532
0.0283729
0.0283721
0.0283704
0.028368
0.0283649
0.0283612
0.0283571
0.0283533
0.0283502
0.0283483
0.0216459
0.0216447
0.0216423
0.0216387
0.0216339
0.021628
0.0216212
0.0216144
0.0216087
0.0216052
0.0163697
0.0163681
0.0163647
0.0163595
0.0163522
0.0163429
0.0163318
0.0163199
0.0163095
0.0163029
0.0122707
0.0122686
0.0122639
0.0122566
0.0122459
0.0122316
0.0122137
0.0121934
0.012174
0.0121612
0.0091166
0.00911375
0.00910765
0.00909766
0.0090827
0.00906157
0.00903342
0.00899891
0.00896261
0.00893594
0.00671253
0.00670899
0.00670133
0.00668845
0.00666846
0.00663878
0.00659639
0.0065392
0.00647049
0.00641016
0.00489764
0.0048935
0.00488444
0.00486886
0.00484393
0.00480516
0.00474578
0.00465638
0.00452808
0.00437614
1.44004
1.44004
1.44004
1.44004
1.44004
1.44004
1.44004
1.44004
1.44004
1.44004
1.32071
1.32071
1.32071
1.32071
1.32071
1.32071
1.32071
1.32071
1.32071
1.32071
1.20318
1.20318
1.20318
1.20318
1.20318
1.20318
1.20318
1.20318
1.20318
1.20318
1.08857
1.08857
1.08857
1.08857
1.08857
1.08857
1.08857
1.08857
1.08857
1.08857
0.977939
0.977939
0.977938
0.977938
0.977938
0.977938
0.977938
0.977938
0.977939
0.977939
0.872208
0.872208
0.872207
0.872206
0.872206
0.872206
0.872206
0.872207
0.872207
0.872208
0.772175
0.772175
0.772174
0.772173
0.772173
0.772173
0.772173
0.772174
0.772175
0.772175
0.678479
0.678479
0.678478
0.678478
0.678478
0.678478
0.678478
0.678479
0.678479
0.67848
0.591597
0.591597
0.591596
0.591596
0.591595
0.591596
0.591596
0.591596
0.591597
0.591598
0.511836
0.511836
0.511835
0.511835
0.511835
0.511835
0.511835
0.511836
0.511837
0.511837
0.439343
0.439343
0.439342
0.439341
0.439341
0.439341
0.439342
0.439342
0.439343
0.439344
0.37411
0.37411
0.374109
0.374109
0.374109
0.374109
0.374109
0.37411
0.374111
0.374111
0.315994
0.315994
0.315993
0.315993
0.315993
0.315993
0.315993
0.315994
0.315995
0.315995
0.264731
0.264731
0.264731
0.26473
0.26473
0.26473
0.264731
0.264731
0.264732
0.264732
0.219961
0.219961
0.219961
0.21996
0.21996
0.21996
0.219961
0.219961
0.219962
0.219962
0.181248
0.181247
0.181247
0.181247
0.181246
0.181247
0.181247
0.181247
0.181248
0.181248
0.148101
0.148101
0.1481
0.1481
0.1481
0.1481
0.1481
0.1481
0.148101
0.148101
0.119999
0.119999
0.119998
0.119998
0.119998
0.119998
0.119998
0.119998
0.119999
0.119999
0.0964077
0.0964075
0.096407
0.0964066
0.0964063
0.0964061
0.0964061
0.0964062
0.0964066
0.0964067
0.0767966
0.0767964
0.0767959
0.0767953
0.0767948
0.0767944
0.0767942
0.0767941
0.0767942
0.0767942
0.0606529
0.0606527
0.060652
0.0606513
0.0606505
0.0606497
0.060649
0.0606486
0.0606484
0.0606482
0.0474925
0.0474922
0.0474913
0.0474902
0.047489
0.0474876
0.0474863
0.0474852
0.0474845
0.047484
0.0368679
0.0368673
0.0368661
0.0368645
0.0368625
0.0368603
0.0368579
0.0368558
0.0368542
0.0368532
0.0283729
0.0283721
0.0283704
0.028368
0.0283649
0.0283612
0.0283572
0.0283533
0.0283502
0.0283484
0.0216459
0.0216447
0.0216423
0.0216387
0.0216339
0.021628
0.0216212
0.0216144
0.0216087
0.0216053
0.0163697
0.0163681
0.0163647
0.0163595
0.0163522
0.0163429
0.0163318
0.01632
0.0163095
0.016303
0.0122707
0.0122686
0.0122639
0.0122566
0.0122459
0.0122316
0.0122137
0.0121934
0.0121741
0.0121613
0.0091166
0.00911375
0.00910766
0.00909766
0.00908271
0.00906159
0.00903343
0.00899893
0.00896264
0.00893597
0.00671253
0.00670899
0.00670134
0.00668845
0.00666847
0.00663879
0.0065964
0.00653922
0.00647051
0.00641018
0.00489764
0.0048935
0.00488444
0.00486887
0.00484394
0.00480517
0.00474579
0.0046564
0.0045281
0.00437616
1.44004
1.44004
1.44004
1.44004
1.44004
1.44004
1.44004
1.44004
1.44004
1.44004
1.32071
1.32071
1.32071
1.32071
1.32071
1.32071
1.32071
1.32071
1.32071
1.32071
1.20318
1.20318
1.20318
1.20318
1.20318
1.20318
1.20318
1.20318
1.20318
1.20318
1.08857
1.08857
1.08857
1.08857
1.08857
1.08857
1.08857
1.08857
1.08857
1.08857
0.977939
0.977939
0.977938
0.977938
0.977938
0.977938
0.977938
0.977938
0.977939
0.977939
0.872208
0.872207
0.872207
0.872206
0.872206
0.872206
0.872206
0.872207
0.872207
0.872208
0.772175
0.772174
0.772174
0.772173
0.772173
0.772173
0.772173
0.772174
0.772175
0.772175
0.678479
0.678479
0.678478
0.678478
0.678478
0.678478
0.678478
0.678479
0.67848
0.67848
0.591597
0.591597
0.591596
0.591596
0.591596
0.591596
0.591596
0.591597
0.591598
0.591598
0.511836
0.511836
0.511835
0.511835
0.511835
0.511835
0.511835
0.511836
0.511837
0.511837
0.439343
0.439343
0.439342
0.439342
0.439341
0.439342
0.439342
0.439343
0.439344
0.439344
0.37411
0.37411
0.374109
0.374109
0.374109
0.374109
0.374109
0.37411
0.374111
0.374111
0.315994
0.315994
0.315993
0.315993
0.315993
0.315993
0.315993
0.315994
0.315995
0.315995
0.264731
0.264731
0.264731
0.26473
0.26473
0.26473
0.264731
0.264731
0.264732
0.264733
0.219961
0.219961
0.219961
0.21996
0.21996
0.21996
0.219961
0.219961
0.219962
0.219962
0.181248
0.181248
0.181247
0.181247
0.181247
0.181247
0.181247
0.181248
0.181248
0.181249
0.148101
0.148101
0.1481
0.1481
0.1481
0.1481
0.1481
0.1481
0.148101
0.148101
0.119999
0.119999
0.119998
0.119998
0.119998
0.119998
0.119998
0.119998
0.119999
0.119999
0.0964077
0.0964076
0.0964071
0.0964067
0.0964064
0.0964062
0.0964062
0.0964064
0.0964068
0.0964069
0.0767967
0.0767965
0.0767959
0.0767954
0.076795
0.0767946
0.0767943
0.0767942
0.0767944
0.0767944
0.060653
0.0606527
0.0606521
0.0606514
0.0606506
0.0606498
0.0606492
0.0606487
0.0606486
0.0606483
0.0474926
0.0474922
0.0474914
0.0474903
0.0474891
0.0474877
0.0474865
0.0474854
0.0474847
0.0474842
0.0368679
0.0368674
0.0368662
0.0368646
0.0368626
0.0368604
0.036858
0.0368559
0.0368543
0.0368534
0.0283729
0.0283722
0.0283705
0.0283681
0.028365
0.0283613
0.0283573
0.0283534
0.0283503
0.0283485
0.0216459
0.0216448
0.0216424
0.0216388
0.021634
0.0216281
0.0216213
0.0216145
0.0216088
0.0216054
0.0163697
0.0163681
0.0163647
0.0163595
0.0163523
0.0163429
0.0163318
0.01632
0.0163096
0.0163031
0.0122708
0.0122686
0.012264
0.0122566
0.012246
0.0122317
0.0122138
0.0121935
0.0121741
0.0121613
0.00911663
0.00911378
0.00910769
0.0090977
0.00908275
0.00906163
0.00903348
0.00899898
0.00896269
0.00893602
0.00671255
0.00670902
0.00670137
0.00668848
0.0066685
0.00663882
0.00659644
0.00653926
0.00647055
0.00641022
0.00489766
0.00489352
0.00488447
0.00486889
0.00484396
0.0048052
0.00474582
0.00465643
0.00452813
0.00437619
1.44004
1.44004
1.44004
1.44004
1.44004
1.44004
1.44004
1.44004
1.44004
1.44004
1.32071
1.32071
1.32071
1.32071
1.32071
1.32071
1.32071
1.32071
1.32071
1.32071
1.20318
1.20318
1.20318
1.20318
1.20318
1.20318
1.20318
1.20318
1.20318
1.20318
1.08857
1.08857
1.08857
1.08857
1.08857
1.08857
1.08857
1.08857
1.08857
1.08857
0.977939
0.977939
0.977938
0.977938
0.977938
0.977938
0.977938
0.977938
0.977939
0.977939
0.872208
0.872208
0.872207
0.872207
0.872206
0.872206
0.872207
0.872207
0.872208
0.872208
0.772175
0.772175
0.772174
0.772173
0.772173
0.772173
0.772174
0.772174
0.772175
0.772175
0.678479
0.678479
0.678479
0.678478
0.678478
0.678478
0.678479
0.678479
0.67848
0.67848
0.591597
0.591597
0.591596
0.591596
0.591596
0.591596
0.591596
0.591597
0.591598
0.591598
0.511836
0.511836
0.511836
0.511835
0.511835
0.511835
0.511836
0.511836
0.511837
0.511838
0.439343
0.439343
0.439342
0.439342
0.439342
0.439342
0.439342
0.439343
0.439344
0.439344
0.37411
0.37411
0.37411
0.374109
0.374109
0.374109
0.37411
0.374111
0.374111
0.374112
0.315994
0.315994
0.315994
0.315993
0.315993
0.315993
0.315994
0.315995
0.315995
0.315996
0.264732
0.264732
0.264731
0.264731
0.264731
0.264731
0.264731
0.264732
0.264733
0.264733
0.219962
0.219962
0.219961
0.219961
0.219961
0.219961
0.219961
0.219962
0.219963
0.219963
0.181248
0.181248
0.181247
0.181247
0.181247
0.181247
0.181247
0.181248
0.181249
0.181249
0.148101
0.148101
0.1481
0.1481
0.1481
0.1481
0.1481
0.148101
0.148102
0.148102
0.119999
0.119999
0.119999
0.119998
0.119998
0.119998
0.119998
0.119999
0.119999
0.119999
0.0964079
0.0964078
0.0964073
0.096407
0.0964067
0.0964066
0.0964066
0.0964068
0.0964071
0.0964072
0.0767969
0.0767967
0.0767962
0.0767957
0.0767952
0.0767949
0.0767946
0.0767945
0.0767947
0.0767946
0.0606532
0.0606529
0.0606523
0.0606516
0.0606508
0.0606501
0.0606494
0.060649
0.0606488
0.0606486
0.0474927
0.0474924
0.0474915
0.0474905
0.0474893
0.047488
0.0474867
0.0474856
0.0474849
0.0474844
0.036868
0.0368675
0.0368663
0.0368648
0.0368628
0.0368606
0.0368582
0.0368561
0.0368545
0.0368535
0.0283731
0.0283723
0.0283706
0.0283682
0.0283651
0.0283614
0.0283574
0.0283536
0.0283505
0.0283486
0.021646
0.0216449
0.0216425
0.0216389
0.0216341
0.0216282
0.0216215
0.0216147
0.021609
0.0216055
0.0163698
0.0163682
0.0163648
0.0163596
0.0163524
0.0163431
0.016332
0.0163202
0.0163097
0.0163032
0.0122708
0.0122687
0.012264
0.0122567
0.0122461
0.0122318
0.0122139
0.0121936
0.0121742
0.0121614
0.00911668
0.00911384
0.00910776
0.00909777
0.00908282
0.00906171
0.00903356
0.00899906
0.00896277
0.0089361
0.00671259
0.00670906
0.00670142
0.00668854
0.00666856
0.00663888
0.0065965
0.00653932
0.00647061
0.00641028
0.0048977
0.00489356
0.00488451
0.00486894
0.00484401
0.00480525
0.00474587
0.00465647
0.00452817
0.00437623
1.44004
1.44004
1.44004
1.44004
1.44004
1.44004
1.44004
1.44004
1.44004
1.44004
1.32071
1.32071
1.32071
1.32071
1.32071
1.32071
1.32071
1.32071
1.32071
1.32071
1.20318
1.20318
1.20318
1.20318
1.20318
1.20318
1.20318
1.20318
1.20318
1.20318
1.08857
1.08857
1.08857
1.08857
1.08857
1.08857
1.08857
1.08857
1.08857
1.08857
0.977939
0.977939
0.977938
0.977938
0.977938
0.977938
0.977938
0.977939
0.977939
0.977939
0.872208
0.872208
0.872207
0.872207
0.872207
0.872207
0.872207
0.872208
0.872208
0.872208
0.772175
0.772175
0.772174
0.772174
0.772174
0.772174
0.772174
0.772175
0.772176
0.772176
0.67848
0.67848
0.678479
0.678479
0.678479
0.678479
0.678479
0.67848
0.678481
0.678481
0.591597
0.591598
0.591597
0.591597
0.591596
0.591597
0.591597
0.591598
0.591599
0.591599
0.511837
0.511837
0.511836
0.511836
0.511836
0.511836
0.511836
0.511837
0.511838
0.511838
0.439343
0.439343
0.439343
0.439343
0.439342
0.439343
0.439343
0.439344
0.439345
0.439345
0.374111
0.374111
0.37411
0.37411
0.37411
0.37411
0.374111
0.374111
0.374112
0.374112
0.315995
0.315995
0.315994
0.315994
0.315994
0.315994
0.315995
0.315995
0.315996
0.315996
0.264732
0.264732
0.264732
0.264731
0.264731
0.264731
0.264732
0.264733
0.264733
0.264734
0.219962
0.219962
0.219962
0.219961
0.219961
0.219961
0.219962
0.219963
0.219963
0.219963
0.181248
0.181248
0.181248
0.181248
0.181248
0.181248
0.181248
0.181249
0.181249
0.18125
0.148101
0.148101
0.148101
0.148101
0.148101
0.148101
0.148101
0.148101
0.148102
0.148102
0.119999
0.119999
0.119999
0.119999
0.119999
0.119999
0.119999
0.119999
0.12
0.12
0.0964082
0.0964081
0.0964077
0.0964074
0.0964072
0.096407
0.096407
0.0964072
0.0964076
0.0964076
0.0767971
0.076797
0.0767965
0.0767961
0.0767956
0.0767953
0.076795
0.076795
0.0767951
0.076795
0.0606534
0.0606532
0.0606526
0.0606519
0.0606512
0.0606505
0.0606498
0.0606494
0.0606492
0.0606489
0.0474929
0.0474926
0.0474918
0.0474908
0.0474896
0.0474883
0.047487
0.0474859
0.0474852
0.0474847
0.0368682
0.0368677
0.0368666
0.036865
0.0368631
0.0368608
0.0368585
0.0368564
0.0368548
0.0368538
0.0283732
0.0283724
0.0283708
0.0283684
0.0283654
0.0283617
0.0283577
0.0283538
0.0283507
0.0283489
0.0216461
0.021645
0.0216427
0.0216391
0.0216343
0.0216284
0.0216217
0.0216149
0.0216091
0.0216057
0.0163699
0.0163683
0.016365
0.0163598
0.0163525
0.0163432
0.0163321
0.0163203
0.0163098
0.0163033
0.0122709
0.0122688
0.0122642
0.0122568
0.0122462
0.0122319
0.012214
0.0121937
0.0121743
0.0121615
0.00911675
0.00911392
0.00910785
0.00909787
0.00908293
0.00906181
0.00903367
0.00899916
0.00896287
0.0089362
0.00671265
0.00670913
0.00670149
0.00668862
0.00666864
0.00663897
0.00659659
0.0065394
0.00647069
0.00641036
0.00489774
0.00489361
0.00488457
0.004869
0.00484408
0.00480532
0.00474593
0.00465654
0.00452823
0.00437629
1.44004
1.44004
1.44004
1.44004
1.44004
1.44004
1.44004
1.44004
1.44004
1.44004
1.32071
1.32071
1.32071
1.32071
1.32071
1.32071
1.32071
1.32071
1.32071
1.32071
1.20318
1.20318
1.20318
1.20318
1.20318
1.20318
1.20318
1.20318
1.20318
1.20318
1.08857
1.08857
1.08857
1.08857
1.08857
1.08857
1.08857
1.08857
1.08857
1.08857
0.977939
0.977939
0.977939
0.977939
0.977939
0.977939
0.977939
0.977939
0.97794
0.97794
0.872208
0.872208
0.872208
0.872207
0.872207
0.872207
0.872208
0.872208
0.872209
0.872209
0.772175
0.772175
0.772175
0.772175
0.772175
0.772175
0.772175
0.772176
0.772176
0.772176
0.67848
0.67848
0.67848
0.67848
0.678479
0.67848
0.67848
0.678481
0.678481
0.678481
0.591598
0.591598
0.591598
0.591597
0.591597
0.591598
0.591598
0.591599
0.591599
0.591599
0.511837
0.511837
0.511837
0.511837
0.511837
0.511837
0.511837
0.511838
0.511839
0.511839
0.439344
0.439344
0.439344
0.439343
0.439343
0.439344
0.439344
0.439345
0.439346
0.439346
0.374111
0.374111
0.374111
0.374111
0.374111
0.374111
0.374112
0.374112
0.374113
0.374113
0.315995
0.315995
0.315995
0.315995
0.315995
0.315995
0.315995
0.315996
0.315997
0.315997
0.264732
0.264733
0.264732
0.264732
0.264732
0.264732
0.264733
0.264733
0.264734
0.264734
0.219962
0.219963
0.219962
0.219962
0.219962
0.219962
0.219963
0.219963
0.219964
0.219964
0.181249
0.181249
0.181249
0.181248
0.181248
0.181249
0.181249
0.181249
0.18125
0.18125
0.148102
0.148102
0.148102
0.148101
0.148101
0.148101
0.148102
0.148102
0.148103
0.148103
0.12
0.12
0.12
0.119999
0.119999
0.119999
0.119999
0.12
0.12
0.12
0.0964085
0.0964086
0.0964083
0.096408
0.0964078
0.0964076
0.0964076
0.0964078
0.0964082
0.0964081
0.0767974
0.0767974
0.076797
0.0767966
0.0767962
0.0767958
0.0767956
0.0767955
0.0767956
0.0767955
0.0606536
0.0606535
0.060653
0.0606524
0.0606517
0.0606509
0.0606503
0.0606498
0.0606496
0.0606493
0.0474932
0.0474929
0.0474922
0.0474912
0.04749
0.0474887
0.0474874
0.0474863
0.0474856
0.047485
0.0368684
0.036868
0.0368669
0.0368653
0.0368634
0.0368612
0.0368589
0.0368567
0.0368551
0.0368541
0.0283734
0.0283727
0.0283711
0.0283687
0.0283656
0.028362
0.028358
0.0283541
0.028351
0.0283491
0.0216463
0.0216452
0.0216429
0.0216393
0.0216346
0.0216286
0.0216219
0.0216151
0.0216094
0.0216059
0.01637
0.0163685
0.0163651
0.01636
0.0163527
0.0163434
0.0163323
0.0163205
0.01631
0.0163035
0.012271
0.0122689
0.0122643
0.012257
0.0122464
0.0122321
0.0122142
0.0121939
0.0121745
0.0121617
0.00911683
0.00911402
0.00910797
0.009098
0.00908306
0.00906195
0.0090338
0.00899929
0.00896299
0.0089363
0.00671272
0.00670921
0.00670159
0.00668872
0.00666875
0.00663908
0.00659669
0.0065395
0.00647079
0.00641044
0.00489779
0.00489368
0.00488464
0.00486908
0.00484416
0.0048054
0.00474602
0.00465662
0.00452831
0.00437635
1.44004
1.44004
1.44004
1.44004
1.44004
1.44004
1.44004
1.44004
1.44004
1.44004
1.32071
1.32071
1.32071
1.32071
1.32071
1.32071
1.32071
1.32071
1.32071
1.32071
1.20318
1.20318
1.20318
1.20318
1.20318
1.20318
1.20318
1.20318
1.20318
1.20318
1.08857
1.08857
1.08857
1.08857
1.08857
1.08857
1.08857
1.08857
1.08857
1.08857
0.977939
0.977939
0.977939
0.977939
0.977939
0.977939
0.977939
0.977939
0.97794
0.97794
0.872208
0.872208
0.872208
0.872208
0.872208
0.872208
0.872208
0.872208
0.872209
0.872209
0.772175
0.772175
0.772175
0.772175
0.772175
0.772175
0.772175
0.772176
0.772176
0.772176
0.67848
0.67848
0.67848
0.67848
0.67848
0.67848
0.67848
0.678481
0.678481
0.678481
0.591598
0.591598
0.591598
0.591598
0.591598
0.591598
0.591598
0.591599
0.591599
0.591599
0.511837
0.511837
0.511837
0.511837
0.511837
0.511837
0.511838
0.511838
0.511839
0.511839
0.439344
0.439344
0.439344
0.439344
0.439344
0.439344
0.439344
0.439345
0.439346
0.439345
0.374111
0.374111
0.374111
0.374111
0.374111
0.374111
0.374112
0.374112
0.374113
0.374113
0.315995
0.315995
0.315995
0.315995
0.315995
0.315995
0.315996
0.315996
0.315997
0.315997
0.264732
0.264733
0.264732
0.264732
0.264732
0.264733
0.264733
0.264734
0.264734
0.264734
0.219962
0.219963
0.219962
0.219962
0.219962
0.219963
0.219963
0.219964
0.219964
0.219964
0.181249
0.181249
0.181249
0.181249
0.181249
0.181249
0.181249
0.18125
0.18125
0.18125
0.148102
0.148102
0.148102
0.148102
0.148101
0.148102
0.148102
0.148102
0.148103
0.148103
0.12
0.12
0.12
0.12
0.119999
0.119999
0.12
0.12
0.12
0.12
0.0964085
0.0964086
0.0964083
0.0964081
0.0964079
0.0964078
0.0964078
0.0964079
0.0964082
0.0964079
0.0767974
0.0767974
0.0767971
0.0767967
0.0767963
0.076796
0.0767957
0.0767956
0.0767957
0.0767953
0.0606537
0.0606535
0.0606531
0.0606525
0.0606518
0.0606511
0.0606504
0.0606499
0.0606497
0.0606492
0.0474932
0.0474929
0.0474922
0.0474913
0.0474901
0.0474888
0.0474875
0.0474864
0.0474856
0.0474849
0.0368684
0.036868
0.0368669
0.0368654
0.0368635
0.0368613
0.036859
0.0368568
0.0368552
0.036854
0.0283734
0.0283727
0.0283711
0.0283688
0.0283657
0.028362
0.028358
0.0283541
0.028351
0.028349
0.0216463
0.0216452
0.0216429
0.0216394
0.0216346
0.0216287
0.021622
0.0216152
0.0216094
0.0216058
0.01637
0.0163685
0.0163652
0.01636
0.0163528
0.0163435
0.0163324
0.0163206
0.01631
0.0163034
0.012271
0.0122689
0.0122643
0.012257
0.0122464
0.0122321
0.0122142
0.0121939
0.0121745
0.0121616
0.00911684
0.00911403
0.009108
0.00909803
0.0090831
0.00906199
0.00903384
0.00899933
0.00896301
0.00893627
0.00671273
0.00670922
0.00670161
0.00668875
0.00666878
0.00663911
0.00659672
0.00653953
0.0064708
0.00641042
0.0048978
0.00489368
0.00488466
0.0048691
0.00484419
0.00480543
0.00474604
0.00465664
0.00452832
0.00437633
0.00354079
0.00353626
0.00352625
0.00350881
0.00348035
0.00343471
0.00336107
0.00323886
0.00302268
0.00258899
0.00253625
0.0025316
0.00252133
0.00250339
0.00247406
0.00242703
0.00235159
0.00222917
0.00202738
0.00169387
0.00179994
0.00179547
0.00178565
0.00176863
0.00174113
0.00169788
0.00163071
0.00152747
0.00137197
0.0011493
0.00126562
0.00126159
0.0012528
0.00123775
0.00121389
0.0011774
0.00112292
0.00104369
0.000932947
0.000788411
0.000881786
0.000878342
0.000870904
0.000858354
0.000838897
0.00081001
0.000768508
0.000710992
0.000635051
0.000541656
0.000608798
0.000605994
0.000599997
0.00059004
0.000574942
0.000553154
0.00052292
0.000482664
0.00043175
0.000371548
0.000416568
0.000414379
0.000409744
0.000402167
0.00039092
0.000375114
0.00035385
0.000326484
0.000293035
0.000254599
0.000282526
0.00028088
0.000277426
0.000271865
0.000263779
0.000252697
0.000238216
0.000220171
0.000198838
0.000175043
0.000189956
0.000188758
0.000186268
0.000182318
0.000176688
0.000169165
0.000159633
0.000148198
0.000135331
0.000121918
0.000126627
0.000125781
0.000124039
0.000121315
0.000117511
0.000112561
0.000106507
9.96118e-05
9.25588e-05
8.69042e-05
0.0035408
0.00353625
0.00352624
0.0035088
0.00348034
0.0034347
0.00336107
0.00323886
0.00302269
0.002589
0.00253625
0.00253159
0.00252132
0.00250338
0.00247406
0.00242703
0.00235158
0.00222917
0.00202739
0.00169387
0.00179994
0.00179546
0.00178565
0.00176863
0.00174113
0.00169788