/*--------------------------------*- C++ -*----------------------------------*\
| =========                 |                                                 |
| \\      /  F ield         | OpenFOAM: The Open Source CFD Toolbox           |
|  \\    /   O peration     | Version:  v1812                                 |
|   \\  /    A nd           | Web:      www.OpenFOAM.com                      |
|    \\/     M anipulation  |                                                 |
\*---------------------------------------------------------------------------*/
FoamFile
{
    version     2.0;
    format      ascii;
    class       surfaceScalarField;
    location    "19";
    object      phi;
}
// * * * * * * * * * * * * * * * * * * * * * * * * * * * * * * * * * * * * * //

dimensions      [0 3 -1 0 0 0 0];
oriented        oriented;


internalField   nonuniform List<scalar> 
1890
(
0.0093061958
0.00069380425
0.0082843931
0.0010218027
0.0073298986
0.00095449446
0.0064869553
0.00084294331
0.0057695845
0.00071737078
0.00518986
0.00057972443
0.004738168
0.00045169205
0.00439519
0.00034297802
0.0041390268
0.00025616318
0.003949107
0.00018991983
0.003807888
0.00014121897
0.0037013782
0.0001065098
0.003619058
8.2320219e-05
0.0035534117
6.5646243e-05
0.0034992845
5.4127248e-05
0.0034532444
4.6040037e-05
0.0034130502
4.0194282e-05
0.0033772574
3.5792748e-05
0.0033449386
3.2318757e-05
0.0033154894
2.9449282e-05
0.0032885008
2.6988583e-05
0.0032636805
2.4820307e-05
0.003240805
2.2875484e-05
0.0032196926
2.1112417e-05
0.0032001879
1.9504651e-05
0.0031821539
1.8034006e-05
0.0031654672
1.6686718e-05
0.0031500158
1.5451355e-05
0.0031356979
1.4317859e-05
0.0031224209
1.3277069e-05
0.0031101003
1.2320594e-05
0.0030986596
1.1440724e-05
0.0030880292
1.0630439e-05
0.0030781458
9.883369e-06
0.003068952
9.1937715e-06
0.0030603955
8.556492e-06
0.0030524286
7.9669098e-06
0.0030450077
7.4208932e-06
0.0030380929
6.9147388e-06
0.0030316478
6.4451179e-06
0.0030256388
6.0090529e-06
0.0030200349
5.6038452e-06
0.0030148079
5.2270747e-06
0.0030099313
4.8765405e-06
0.0030053811
4.5502509e-06
0.0030011347
4.246402e-06
0.0029971713
3.963336e-06
0.0029934717
3.6995568e-06
0.002990018
3.4536773e-06
0.0029867936
3.2244186e-06
0.002983783
3.0106179e-06
0.0029809718
2.8111756e-06
0.0029783468
2.6250947e-06
0.0029758953
2.4514446e-06
0.002973606
2.2893597e-06
0.0029714679
2.1380635e-06
0.0029694711
1.9968115e-06
0.0029676061
1.8649549e-06
0.0029658642
1.7418594e-06
0.0029642373
1.6269403e-06
0.0029627176
1.5196526e-06
0.0029612982
1.4194677e-06
0.0029599723
1.3259073e-06
0.0029587338
1.2385122e-06
0.002957577
1.1568623e-06
0.0029564964
1.0805851e-06
0.002955487
1.0093251e-06
0.0029545442
9.4276822e-07
0.0029536635
8.8063425e-07
0.0029528409
8.2261835e-07
0.0029520724
7.6846688e-07
0.0029513546
7.1789781e-07
0.002950684
6.7064916e-07
0.0029500575
6.2648528e-07
0.0029494724
5.851919e-07
0.0029489258
5.4658002e-07
0.0029484152
5.1051228e-07
0.0029479383
4.7681371e-07
0.0029474929
4.4539907e-07
0.0029470768
4.1607777e-07
0.002946688
3.8875271e-07
0.0029463249
3.6320958e-07
0.0029459856
3.3935611e-07
0.0029456687
3.169836e-07
0.0029453726
2.9608161e-07
0.0029450962
2.7642251e-07
0.0029448379
2.5821248e-07
0.0029445967
2.4105806e-07
0.0029443712
2.2532796e-07
0.0029441609
2.1041272e-07
0.0029439642
1.9684729e-07
0.0029437803
1.8377561e-07
0.0029436083
1.7211597e-07
0.002943448
1.6037734e-07
0.0029432978
1.5018557e-07
0.0029431574
1.4029345e-07
0.0029430254
1.3210929e-07
0.0029429003
1.251117e-07
0.0029427808
1.1941392e-07
1.2577331e-07
0.010339525
0.00035427931
0.010570754
0.00079057333
0.010606301
0.00091894817
0.010547572
0.00090167133
0.010422317
0.0008426262
0.010244356
0.00075768557
0.010039421
0.00065662743
0.0098287427
0.00055365586
0.009625135
0.00045977083
0.0094353013
0.00037975353
0.0092624277
0.00031409258
0.0091075333
0.00026140425
0.008970154
0.00021969948
0.0088489024
0.00018689785
0.0087419716
0.00016105801
0.0086474927
0.00014051893
0.008563694
0.00012399295
0.0084890108
0.00011047599
0.0084221097
9.9219866e-05
0.0083618776
8.9681405e-05
0.0083073955
8.1470669e-05
0.0082579079
7.4307847e-05
0.0082127929
6.7990493e-05
0.0081715354
6.2369982e-05
0.008133705
5.7335005e-05
0.0080989388
5.2800173e-05
0.0080669273
4.8698255e-05
0.0080374037
4.4974949e-05
0.0080101362
4.1585385e-05
0.0079849214
3.8491845e-05
0.0079615798
3.5662154e-05
0.0079399519
3.3068611e-05
0.0079198952
3.0687171e-05
0.0079012817
2.8496847e-05
0.0078839962
2.6479237e-05
0.0078679346
2.4618137e-05
0.0078530023
2.2899236e-05
0.0078391133
2.1309839e-05
0.0078261894
1.9838655e-05
0.0078141589
1.8475607e-05
0.0078029563
1.7211662e-05
0.0077925214
1.6038723e-05
0.007782799
1.4949477e-05
0.0077737382
1.3937336e-05
0.0077652921
1.2996319e-05
0.0077574175
1.2120999e-05
0.0077500744
1.1306446e-05
0.0077432258
1.0548142e-05
0.0077368375
9.8419653e-06
0.0077308778
9.1841289e-06
0.0077253173
8.5711413e-06
0.0077201287
7.9998112e-06
0.0077152866
7.467165e-06
0.0077107676
6.9704843e-06
0.0077065497
6.5072498e-06
0.0077026126
6.075135e-06
0.0076989374
5.6720146e-06
0.0076955064
5.2958973e-06
0.0076923033
4.9449569e-06
0.0076893128
4.6174705e-06
0.0076865206
4.3118345e-06
0.0076839136
4.0265682e-06
0.0076814792
3.7602636e-06
0.0076792061
3.5116426e-06
0.0076770834
3.279504e-06
0.0076751012
3.0627426e-06
0.0076732501
2.8603539e-06
0.0076715215
2.6713917e-06
0.0076699072
2.4949745e-06
0.0076683996
2.3302874e-06
0.0076669915
2.1765255e-06
0.0076656765
2.0329407e-06
0.0076644483
1.8988382e-06
0.0076633013
1.7735439e-06
0.0076622299
1.6564945e-06
0.0076612293
1.5471316e-06
0.0076602948
1.4450061e-06
0.007659422
1.3496366e-06
0.0076586068
1.2606471e-06
0.0076578453
1.1775478e-06
0.0076571341
1.1000372e-06
0.0076564698
1.0275344e-06
0.0076558492
9.5989894e-07
0.0076552697
8.9649811e-07
0.0076547282
8.3743567e-07
0.0076542228
7.8189419e-07
0.0076537505
7.3046412e-07
0.0076533094
6.8214005e-07
0.0076528972
6.3760865e-07
0.0076525127
5.949694e-07
0.0076521529
5.5670499e-07
0.0076518171
5.1953345e-07
0.0076515027
4.8640845e-07
0.0076512105
4.5245551e-07
0.0076509355
4.2510069e-07
0.0076506807
3.9525777e-07
0.0076504386
3.7433064e-07
0.0076502165
3.4709735e-07
0.0076499999
3.3606666e-07
3.1077317e-07
0.010188704
0.00016557515
0.010530487
0.00044879097
0.010851453
0.00059798174
0.011124174
0.00062895021
0.011350581
0.00061621883
0.011524486
0.00058378053
0.01164633
0.00053478419
0.011724155
0.00047583049
0.011767999
0.00041592665
0.011786639
0.00036111399
0.011787114
0.0003136171
0.011775058
0.00027346024
0.011754861
0.00023989717
0.011729768
0.00021199029
0.011702054
0.00018877259
0.011673239
0.00016933387
0.011644339
0.00015289295
0.011616003
0.00013881182
0.011588629
0.00012659378
0.011562446
0.00011586444
0.011537572
0.00010634493
0.011514052
9.7826991e-05
0.01149189
9.0153352e-05
0.011471056
8.3203354e-05
0.011451509
7.68826e-05
0.011433193
7.1115551e-05
0.011416051
6.5840286e-05
0.011400021
6.10049e-05
0.011385042
5.6565063e-05
0.011371051
5.2482331e-05
0.01135799
4.8723024e-05
0.011345801
4.5257384e-05
0.01133443
4.2058989e-05
0.011323822
3.9104265e-05
0.011313929
3.6372111e-05
0.011304704
3.3843596e-05
0.011296101
3.1501683e-05
0.01128808
2.933101e-05
0.011280601
2.7317695e-05
0.011273628
2.5449171e-05
0.011267125
2.3714046e-05
0.011261062
2.2101949e-05
0.011255408
2.0603453e-05
0.011250135
1.9209946e-05
0.011245218
1.7913564e-05
0.011240632
1.670711e-05
0.011236354
1.5583977e-05
0.011232365
1.453811e-05
0.011228643
1.3563926e-05
0.01122517
1.2656292e-05
0.011221931
1.1810481e-05
0.011218909
1.1022103e-05
0.011216089
1.0287131e-05
0.011213457
9.6018199e-06
0.011211002
8.9627139e-06
0.01120871
8.3666267e-06
0.011206572
7.8105956e-06
0.011204576
7.2918846e-06
0.011202713
6.8079266e-06
0.011200974
6.3563526e-06
0.011199351
5.9349619e-06
0.011197836
5.5416803e-06
0.011196422
5.1746166e-06
0.011195101
4.8319818e-06
0.011193868
4.5121415e-06
0.011192718
4.2135645e-06
0.011191643
3.9348331e-06
0.01119064
3.6746283e-06
0.011189703
3.4317212e-06
0.011188829
3.2049303e-06
0.011188012
2.9931975e-06
0.011187249
2.7954716e-06
0.011186537
2.6108286e-06
0.011185873
2.4383761e-06
0.011185252
2.2773366e-06
0.011184672
2.1269231e-06
0.01118413
1.9865073e-06
0.011183625
1.8553633e-06
0.011183152
1.7329888e-06
0.011182711
1.6186398e-06
0.0111823
1.5119381e-06
0.011181915
1.4121249e-06
0.011181556
1.3190701e-06
0.01118122
1.2318441e-06
0.011180907
1.15069e-06
0.011180614
1.074516e-06
0.011180341
1.0041077e-06
0.011180086
9.3726076e-07
0.011179847
8.7617962e-07
0.011179624
8.1775442e-07
0.011179416
7.6532676e-07
0.011179222
7.1273606e-07
0.01117904
6.6810421e-07
0.011178872
6.2105922e-07
0.011178712
5.8531547e-07
0.011178566
5.411155e-07
0.011178425
5.1516896e-07
0.0111783
4.7226426e-07
0.011178177
4.5903055e-07
4.1607413e-07
0.010097182
6.8393549e-05
0.010346961
0.0001990111
0.010662469
0.00028247385
0.010982753
0.00030866646
0.011290229
0.00030874339
0.011575251
0.00029875786
0.011829022
0.00028101344
0.012047865
0.00025698754
0.012233272
0.00023051981
0.01238924
0.00020514589
0.012520295
0.00018256234
0.012630755
0.00016299955
0.012724428
0.00014622488
0.012804515
0.0001319031
0.012873613
0.00011967425
0.012933772
0.0001091746
0.012986596
0.00010006906
0.013033332
9.2076356e-05
0.01307495
8.4975241e-05
0.013112216
7.8598601e-05
0.013145739
7.2822292e-05
0.013176012
6.7553928e-05
0.013203441
6.2723911e-05
0.013228366
5.827888e-05
0.013251071
5.4176974e-05
0.013271802
5.0384422e-05
0.01329077
4.6873155e-05
0.013308155
4.3619171e-05
0.013324119
4.0601451e-05
0.0133388
3.7801274e-05
0.013352321
3.5201748e-05
0.013364791
3.2787527e-05
0.013376306
3.0544588e-05
0.01338695
2.846008e-05
0.0133968
2.652221e-05
0.013405923
2.4720125e-05
0.013414381
2.3043835e-05
0.013422228
2.1484139e-05
0.013429513
2.0032555e-05
0.013436281
1.8681265e-05
0.013442572
1.7423053e-05
0.013448423
1.6251268e-05
0.013453866
1.5159751e-05
0.013458933
1.4142821e-05
0.013463652
1.3195217e-05
0.013468047
1.231207e-05
0.013472142
1.1488872e-05
0.013475959
1.072144e-05
0.013479517
1.0005909e-05
0.013482834
9.3386839e-06
0.013485928
8.7164289e-06
0.013488814
8.1360597e-06
0.013491507
7.594691e-06
0.013494019
7.089661e-06
0.013496363
6.6184928e-06
0.013498551
6.1788857e-06
0.013500593
5.7686971e-06
0.013502499
5.3859247e-06
0.013504278
5.0287147e-06
0.013505939
4.6953364e-06
0.01350749
4.3841717e-06
0.013508938
4.0937343e-06
0.01351029
3.8226182e-06
0.013511552
3.5695362e-06
0.013512731
3.33328e-06
0.013513832
3.1127276e-06
0.01351486
2.9068349e-06
0.01351582
2.7146141e-06
0.013516716
2.5351544e-06
0.013517554
2.3675965e-06
0.013518336
2.2111264e-06
0.013519066
2.06501e-06
0.013519748
1.9285693e-06
0.013520386
1.8011474e-06
0.013520981
1.6821896e-06
0.013521536
1.5710924e-06
0.013522056
1.4673844e-06
0.013522541
1.3705143e-06
0.013522994
1.2801041e-06
0.013523417
1.195589e-06
0.013523812
1.1167272e-06
0.013524181
1.0429374e-06
0.013524526
9.7418985e-07
0.013524848
9.0972114e-07
0.013525149
8.499164e-07
0.01352543
7.9366903e-07
0.013525692
7.4161916e-07
0.013525937
6.9215744e-07
0.013526167
6.4738214e-07
0.01352638
6.0398644e-07
0.01352658
5.6508596e-07
0.013526767
5.2576081e-07
0.013526941
4.937422e-07
0.013527104
4.5851643e-07
0.013527256
4.3264376e-07
0.013527399
3.9883549e-07
0.013527533
3.8076971e-07
0.013527658
3.4711441e-07
0.013527779
3.3802661e-07
3.0562711e-07
0.010068394
-5.0928153e-12
0.010267405
-1.3181305e-11
0.010549879
-1.4263024e-11
0.010858545
-1.2279977e-11
0.011167288
-9.6269536e-12
0.011466046
-9.6212777e-12
0.01174706
-1.0426365e-11
0.012004047
-1.1933306e-11
0.012234567
-1.3425988e-11
0.012439713
-1.5196023e-11
0.012622275
-1.568104e-11
0.012785275
-1.4610484e-11
0.0129315
-1.3596546e-11
0.013063403
-1.2163841e-11
0.013183077
-1.0592814e-11
0.013292252
-9.517674e-12
0.013392321
-9.2906883e-12
0.013484397
-1.0241642e-11
0.013569373
-1.0249469e-11
0.013647971
-9.2003316e-12
0.013720793
-8.3697627e-12
0.013788347
-9.6455467e-12
0.013851071
-1.162014e-11
0.01390935
-1.4704244e-11
0.013963527
-1.4425633e-11
0.014013912
-1.0282676e-11
0.014060785
-7.8629915e-12
0.014104404
-7.777385e-12
0.014145005
-6.772825e-12
0.014182807
-5.9511216e-12
0.014218008
-4.1429087e-12
0.014250796
-4.7930959e-12
0.014281341
-8.2347756e-12
0.014309801
-1.3864796e-11
0.014336323
-1.8069096e-11
0.014361043
-1.6534224e-11
0.014384087
-9.0158345e-12
0.014405571
-1.5332665e-12
0.014425604
3.6127572e-12
0.014444285
4.1286742e-12
0.014461708
-2.5338635e-13
0.014477959
-8.3377758e-12
0.014493119
-1.4730478e-11
0.014507262
-1.7933366e-11
0.014520457
-1.6081663e-11
0.014532769
-1.0410509e-11
0.014544258
-4.7769615e-12
0.014554979
-3.7106751e-13
0.014564985
4.0144806e-12
0.014574324
8.4745492e-12
0.01458304
7.6197405e-12
0.014591177
1.2780314e-13
0.014598771
-9.6266321e-12
0.014605861
-1.9329339e-11
0.014612479
-2.5809978e-11
0.014618658
-2.3711519e-11
0.014624427
-1.1824136e-11
0.014629813
2.8819093e-12
0.014634842
1.9741706e-11
0.014639537
2.8295211e-11
0.014643921
2.7310304e-11
0.014648015
1.7216979e-11
0.014651837
4.8582019e-12
0.014655407
-1.0173264e-11
0.01465874
-2.0121441e-11
0.014661853
-1.8810553e-11
0.01466476
-1.0103091e-11
0.014667475
6.5735096e-12
0.01467001
2.9234608e-11
0.014672377
4.0591904e-11
0.014674588
3.8999393e-11
0.014676653
2.015038e-11
0.014678582
2.76966e-13
0.014680383
-2.3513658e-11
0.014682065
-3.5996322e-11
0.014683636
-2.5428711e-11
0.014685104
-6.9305816e-12
0.014686475
1.9390268e-11
0.014687754
4.7445741e-11
0.014688949
4.6237513e-11
0.014690067
1.9568792e-11
0.01469111
-2.3506673e-12
0.014692083
-2.5779222e-11
0.014692993
-4.4371501e-11
0.014693844
-3.0255525e-11
0.014694638
-2.6003897e-12
0.014695378
3.1570228e-11
0.01469607
5.7947876e-11
0.014696719
8.5930724e-11
0.014697323
4.4758119e-11
0.014697886
-3.2272619e-11
0.014698412
-1.1103145e-10
0.014698908
-1.4610334e-10
0.014699366
3.9566814e-11
0.014699797
2.0741158e-10
0.014700196
6.9558242e-11
0.014700578
-8.1945551e-11
0.014700925
-5.539925e-11
0.014701263
-5.85516e-11
-7.6138459e-11
0.010068394
-6.8393558e-05
0.010267405
-0.00019901113
0.010549879
-0.00028247388
0.010858545
-0.00030866649
0.011167288
-0.00030874342
0.011466046
-0.00029875789
0.01174706
-0.00028101346
0.012004047
-0.00025698756
0.012234567
-0.00023051983
0.012439713
-0.00020514591
0.012622275
-0.00018256236
0.012785275
-0.00016299958
0.0129315
-0.00014622492
0.013063403
-0.00013190313
0.013183077
-0.00011967427
0.013292252
-0.00010917462
0.013392321
-0.00010006908
0.013484397
-9.2076369e-05
0.013569373
-8.4975256e-05
0.013647971
-7.8598618e-05
0.013720793
-7.2822308e-05
0.013788347
-6.7553942e-05
0.013851071
-6.2723932e-05
0.01390935
-5.8278908e-05
0.013963527
-5.4176998e-05
0.014013912
-5.0384441e-05
0.014060785
-4.6873171e-05
0.014104404
-4.3619184e-05
0.014145005
-4.0601463e-05
0.014182807
-3.7801282e-05
0.014218008
-3.5201758e-05
0.014250796
-3.2787538e-05
0.014281341
-3.0544604e-05
0.014309801
-2.8460106e-05
0.014336323
-2.6522239e-05
0.014361043
-2.4720148e-05
0.014384087
-2.3043849e-05
0.014405571
-2.1484143e-05
0.014425604
-2.0032552e-05
0.014444285
-1.8681261e-05
0.014461708
-1.742306e-05
0.014477959
-1.6251282e-05
0.014493119
-1.5159773e-05
0.014507262
-1.4142846e-05
0.014520457
-1.3195241e-05
0.014532769
-1.2312089e-05
0.014544258
-1.1488882e-05
0.014554979
-1.0721444e-05
0.014564985
-1.0005903e-05
0.014574324
-9.3386731e-06
0.01458304
-8.7164273e-06
0.014591177
-8.1360637e-06
0.014598771
-7.5947082e-06
0.014605861
-7.0896894e-06
0.014612479
-6.6185255e-06
0.014618658
-6.1789124e-06
0.014624427
-5.7687069e-06
0.014629813
-5.3859202e-06
0.014634842
-5.0286921e-06
0.014639537
-4.6952944e-06
0.014643921
-4.384133e-06
0.014648015
-4.0937044e-06
0.014651837
-3.8226095e-06
0.014655407
-3.5695459e-06
0.01465874
-3.3333082e-06
0.014661853
-3.1127595e-06
0.01466476
-2.9068489e-06
0.014667475
-2.7146045e-06
0.01467001
-2.5351184e-06
0.014672377
-2.3675335e-06
0.014674588
-2.2110784e-06
0.014676653
-2.0649821e-06
0.014678582
-1.928571e-06
0.014680383
-1.8011799e-06
0.014682065
-1.6822244e-06
0.014683636
-1.5711163e-06
0.014685104
-1.4673874e-06
0.014686475
-1.3704917e-06
0.014687754
-1.2800631e-06
0.014688949
-1.195543e-06
0.014690067
-1.1167093e-06
0.01469111
-1.0429514e-06
0.014692083
-9.7420748e-07
0.014692993
-9.0976187e-07
0.014693844
-8.4995634e-07
0.014694638
-7.9365972e-07
0.014695378
-7.4157512e-07
0.01469607
-6.9211674e-07
0.014696719
-6.4730048e-07
0.014697323
-6.0382662e-07
0.014697886
-5.6523232e-07
0.014698412
-5.2611304e-07
0.014698908
-4.9361538e-07
0.014699366
-4.5816593e-07
0.014699797
-4.3271603e-07
0.014700196
-3.9912526e-07
0.014700578
-3.808427e-07
0.014700925
-3.4699835e-07
0.014701263
-3.3802459e-07
-3.057279e-07
0.010097182
-0.00016557515
0.010346961
-0.000448791
0.010662469
-0.00059798177
0.010982753
-0.00062895025
0.011290229
-0.00061621886
0.011575251
-0.00058378055
0.011829022
-0.0005347842
0.012047865
-0.0004758305
0.012233272
-0.00041592666
0.01238924
-0.000361114
0.012520295
-0.00031361712
0.012630755
-0.00027346026
0.012724428
-0.00023989719
0.012804515
-0.00021199031
0.012873613
-0.00018877261
0.012933772
-0.00016933388
0.012986596
-0.00015289296
0.013033332
-0.00013881183
0.01307495
-0.00012659379
0.013112216
-0.00011586445
0.013145739
-0.00010634494
0.013176012
-9.7827004e-05
0.013203441
-9.0153368e-05
0.013228366
-8.3203373e-05
0.013251071
-7.6882621e-05
0.013271802
-7.1115567e-05
0.01329077
-6.5840297e-05
0.013308155
-6.100491e-05
0.013324119
-5.6565071e-05
0.0133388
-5.2482339e-05
0.013352321
-4.8723028e-05
0.013364791
-4.5257391e-05
0.013376305
-4.2059001e-05
0.01338695
-3.9104279e-05
0.0133968
-3.637213e-05
0.013405923
-3.3843615e-05
0.013414381
-3.1501698e-05
0.013422228
-2.9331017e-05
0.013429513
-2.7317699e-05
0.013436281
-2.5449176e-05
0.013442572
-2.3714047e-05
0.013448422
-2.2101955e-05
0.013453866
-2.0603462e-05
0.013458933
-1.9209959e-05
0.013463652
-1.7913579e-05
0.013468047
-1.6707123e-05
0.013472142
-1.5583991e-05
0.013475958
-1.4538117e-05
0.013479517
-1.3563932e-05
0.013482834
-1.26563e-05
0.013485928
-1.1810481e-05
0.013488814
-1.1022106e-05
0.013491507
-1.0287132e-05
0.013494019
-9.6018233e-06
0.013496363
-8.9627247e-06
0.013498551
-8.3666427e-06
0.013500593
-7.8106165e-06
0.013502499
-7.2918895e-06
0.013504278
-6.8079188e-06
0.013505939
-6.3563359e-06
0.01350749
-5.9349284e-06
0.013508938
-5.5416497e-06
0.01351029
-5.1745945e-06
0.013511552
-4.8319811e-06
0.013512731
-4.5121522e-06
0.013513832
-4.2135824e-06
0.01351486
-3.9348554e-06
0.01351582
-3.6746377e-06
0.013516716
-3.4317105e-06
0.013517554
-3.2049146e-06
0.013518336
-2.9931623e-06
0.013519066
-2.7954381e-06
0.013519748
-2.6108079e-06
0.013520386
-2.4383701e-06
0.013520981
-2.2773479e-06
0.013521536
-2.1269546e-06
0.013522056
-1.9865487e-06
0.013522541
-1.8553922e-06
0.013522994
-1.7329859e-06
0.013523417
-1.6186114e-06
0.013523812
-1.5118961e-06
0.013524181
-1.4120789e-06
0.013524526
-1.3190411e-06
0.013524848
-1.2318491e-06
0.013525149
-1.1507688e-06
0.01352543
-1.0745651e-06
0.013525692
-1.0040503e-06
0.013525937
-9.3724547e-07
0.013526167
-8.7631397e-07
0.01352638
-8.1778076e-07
0.01352658
-7.6501772e-07
0.013526767
-7.1252271e-07
0.013526942
-6.6835972e-07
0.013527104
-6.2132848e-07
0.013527256
-5.8525217e-07
0.013527399
-5.4104631e-07
0.013527533
-5.1517084e-07
0.013527658
-4.7221191e-07
0.013527779
-4.5901824e-07
-4.1608191e-07
0.010188704
-0.00035427932
0.010530487
-0.00079057335
0.010851453
-0.0009189482
0.011124174
-0.00090167137
0.011350581
-0.00084262623
0.011524486
-0.00075768559
0.01164633
-0.00065662744
0.011724155
-0.00055365586
0.011767999
-0.00045977083
0.011786639
-0.00037975354
0.011787114
-0.00031409259
0.011775058
-0.00026140427
0.011754861
-0.00021969949
0.011729768
-0.00018689787
0.011702054
-0.00016105802
0.011673239
-0.00014051894
0.011644339
-0.00012399295
0.011616003
-0.00011047599
0.011588629
-9.9219868e-05
0.011562446
-8.9681405e-05
0.011537572
-8.1470672e-05
0.011514052
-7.4307852e-05
0.011491889
-6.7990502e-05
0.011471056
-6.2369993e-05
0.011451509
-5.7335016e-05
0.011433193
-5.2800185e-05
0.011416051
-4.8698266e-05
0.011400021
-4.4974955e-05
0.011385041
-4.1585392e-05
0.011371051
-3.8491848e-05
0.01135799
-3.5662157e-05
0.011345801
-3.3068613e-05
0.011334429
-3.0687174e-05
0.011323822
-2.8496852e-05
0.011313929
-2.6479244e-05
0.011304704
-2.461815e-05
0.011296101
-2.289925e-05
0.01128808
-2.1309854e-05
0.011280601
-1.9838667e-05
0.011273628
-1.8475613e-05
0.011267125
-1.7211665e-05
0.011261062
-1.6038718e-05
0.011255408
-1.4949474e-05
0.011250135
-1.3937334e-05
0.011245218
-1.2996322e-05
0.011240632
-1.2121011e-05
0.011236354
-1.1306459e-05
0.011232364
-1.0548159e-05
0.011228643
-9.8419816e-06
0.01122517
-9.1841399e-06
0.011221931
-8.5711503e-06
0.011218909
-7.9998057e-06
0.011216089
-7.4671529e-06
0.011213457
-6.9704667e-06
0.011211002
-6.5072354e-06
0.01120871
-6.0751382e-06
0.011206572
-5.6720283e-06
0.011204576
-5.2959216e-06
0.011202713
-4.9449759e-06
0.011200974
-4.6174774e-06
0.011199351
-4.3118289e-06
0.011197836
-4.0265411e-06
0.011196421
-3.7602324e-06
0.011195101
-3.5116124e-06
0.011193868
-3.279486e-06
0.011192718
-3.0627459e-06
0.011191643
-2.8603747e-06
0.01119064
-2.6714241e-06
0.011189703
-2.4950127e-06
0.011188829
-2.3303054e-06
0.011188012
-2.1765224e-06
0.011187249
-2.0329089e-06
0.011186537
-1.8987874e-06
0.011185873
-1.7734973e-06
0.011185252
-1.6564711e-06
0.011184672
-1.5471446e-06
0.01118413
-1.445061e-06
0.011183625
-1.3497076e-06
0.011183152
-1.2607106e-06
0.011182711
-1.1775665e-06
0.0111823
-1.1000014e-06
0.011181915
-1.027463e-06
0.011181556
-9.5980947e-07
0.01118122
-8.9644252e-07
0.011180907
-8.3743686e-07
0.011180614
-7.8196293e-07
0.011180341
-7.3056193e-07
0.011180086
-6.8220127e-07
0.011179847
-6.3766981e-07
0.011179624
-5.9502627e-07
0.011179416
-5.5653851e-07
0.011179223
-5.1916305e-07
0.01117904
-4.8629751e-07
0.011178872
-4.5279644e-07
0.011178712
-4.2542262e-07
0.011178566
-3.9518343e-07
0.011178425
-3.7415077e-07
0.0111783
-3.470529e-07
0.011178177
-3.359981e-07
-3.1070039e-07
0.010339525
-0.00069380425
0.010570754
-0.0010218027
0.010606301
-0.00095449448
0.010547572
-0.00084294333
0.010422317
-0.0007173708
0.010244356
-0.00057972444
0.010039421
-0.00045169205
0.0098287427
-0.00034297801
0.009625135
-0.00025616318
0.0094353013
-0.00018991983
0.0092624277
-0.00014121897
0.0091075332
-0.0001065098
0.008970154
-8.2320226e-05
0.0088489023
-6.5646249e-05
0.0087419716
-5.4127255e-05
0.0086474927
-4.6040044e-05
0.008563694
-4.0194286e-05
0.0084890108
-3.5792751e-05
0.0084221096
-3.2318757e-05
0.0083618775
-2.9449282e-05
0.0083073954
-2.698858e-05
0.0082579079
-2.4820304e-05
0.0082127929
-2.2875483e-05
0.0081715353
-2.1112419e-05
0.0081337049
-1.9504656e-05
0.0080989388
-1.8034017e-05
0.0080669272
-1.6686727e-05
0.0080374036
-1.5451365e-05
0.0080101361
-1.4317864e-05
0.0079849213
-1.3277073e-05
0.0079615798
-1.2320592e-05
0.0079399519
-1.144072e-05
0.0079198951
-1.0630433e-05
0.0079012816
-9.8833644e-06
0.0078839962
-9.1937717e-06
0.0078679345
-8.5564987e-06
0.0078530022
-7.9669235e-06
0.0078391132
-7.4209093e-06
0.0078261893
-6.9147518e-06
0.0078141588
-6.4451279e-06
0.0078029562
-6.0090527e-06
0.0077925213
-5.6038393e-06
0.0077827989
-5.2270626e-06
0.0077737381
-4.8765282e-06
0.0077652921
-4.5502454e-06
0.0077574175
-4.246403e-06
0.0077500744
-3.9633492e-06
0.0077432258
-3.6995749e-06
0.0077368375
-3.4536962e-06
0.0077308778
-3.2244379e-06
0.0077253172
-3.0106242e-06
0.0077201286
-2.811171e-06
0.0077152865
-2.625077e-06
0.0077107675
-2.4514168e-06
0.0077065496
-2.2893372e-06
0.0077026125
-2.1380502e-06
0.0076989373
-1.996824e-06
0.0076955064
-1.8649807e-06
0.0076923033
-1.7418919e-06
0.0076893128
-1.6269694e-06
0.0076865206
-1.5196622e-06
0.0076839135
-1.4194567e-06
0.0076814791
-1.3258747e-06
0.007679206
-1.2384687e-06
0.0076770834
-1.156826e-06
0.0076751012
-1.0805665e-06
0.0076732502
-1.009338e-06
0.0076715216
-9.4281288e-07
0.0076699072
-8.8068735e-07
0.0076683996
-8.226696e-07
0.0076669915
-7.6848694e-07
0.0076656765
-7.1787611e-07
0.0076644483
-6.7059686e-07
0.0076633012
-6.2641697e-07
0.0076622299
-5.8513951e-07
0.0076612294
-5.4656863e-07
0.0076602949
-5.1054632e-07
0.007659422
-4.7689418e-07
0.0076586068
-4.4548552e-07
0.0076578453
-4.1613713e-07
0.0076571341
-3.8875527e-07
0.0076564697
-3.6314848e-07
0.0076558492
-3.3926433e-07
0.0076552697
-3.1688e-07
0.0076547283
-2.960436e-07
0.0076542229
-2.7645995e-07
0.0076537506
-2.5827302e-07
0.0076533094
-2.4117212e-07
0.0076528971
-2.2548406e-07
0.0076525126
-2.1041853e-07
0.0076521529
-1.9666793e-07
0.0076518172
-1.8360957e-07
0.0076515028
-1.7205708e-07
0.0076512105
-1.6040713e-07
0.0076509355
-1.502881e-07
0.0076506807
-1.4040386e-07
0.0076504385
-1.3208732e-07
0.0076502165
-1.2500317e-07
0.0076499999
-1.1933777e-07
-1.2571551e-07
0.0093061957
0.0082843931
0.0073298986
0.0064869553
0.0057695845
0.00518986
0.004738168
0.00439519
0.0041390268
0.003949107
0.003807888
0.0037013782
0.003619058
0.0035534117
0.0034992845
0.0034532444
0.0034130501
0.0033772574
0.0033449386
0.0033154893
0.0032885008
0.0032636805
0.003240805
0.0032196926
0.0032001879
0.0031821539
0.0031654672
0.0031500158
0.0031356979
0.0031224208
0.0031101003
0.0030986595
0.0030880291
0.0030781458
0.003068952
0.0030603955
0.0030524286
0.0030450076
0.0030380929
0.0030316478
0.0030256387
0.0030200349
0.0030148078
0.0030099313
0.0030053811
0.0030011347
0.0029971713
0.0029934717
0.002990018
0.0029867936
0.0029837829
0.0029809718
0.0029783467
0.0029758953
0.002973606
0.0029714679
0.0029694711
0.0029676061
0.0029658642
0.0029642372
0.0029627175
0.0029612981
0.0029599722
0.0029587338
0.002957577
0.0029564965
0.0029554871
0.0029545443
0.0029536635
0.0029528408
0.0029520723
0.0029513545
0.0029506839
0.0029500575
0.0029494724
0.0029489259
0.0029484153
0.0029479384
0.0029474928
0.0029470767
0.0029466879
0.0029463248
0.0029459856
0.0029456687
0.0029453727
0.0029450963
0.002944838
0.0029445965
0.0029443711
0.002944161
0.0029439642
0.0029437802
0.0029436083
0.0029434482
0.002943298
0.0029431574
0.0029430253
0.0029429003
0.0029427809
)
;

boundaryField
{
    top
    {
        type            calculated;
        value           uniform 0;
    }
    inlet
    {
        type            calculated;
        value           nonuniform List<scalar> 10(-0.01 -0.01 -0.01 -0.01 -0.01 -0.01 -0.01 -0.01 -0.01 -0.01);
    }
    outlet
    {
        type            calculated;
        value           nonuniform List<scalar> 10(0.002942655 0.0076498149 0.011178072 0.01352789 0.014701568 0.014701568 0.01352789 0.011178072 0.0076498149 0.0029426552);
    }
    bottom
    {
        type            calculated;
        value           uniform 0;
    }
    back
    {
        type            empty;
        value           nonuniform 0();
    }
    front
    {
        type            empty;
        value           nonuniform 0();
    }
}


// ************************************************************************* //
