/*--------------------------------*- C++ -*----------------------------------*\
| =========                 |                                                 |
| \\      /  F ield         | OpenFOAM: The Open Source CFD Toolbox           |
|  \\    /   O peration     | Version:  2112                                  |
|   \\  /    A nd           | Website:  www.openfoam.com                      |
|    \\/     M anipulation  |                                                 |
\*---------------------------------------------------------------------------*/
FoamFile
{
    version     2.0;
    format      ascii;
    arch        "LSB;label=32;scalar=64";
    class       volScalarField;
    location    "4";
    object      p;
}
// * * * * * * * * * * * * * * * * * * * * * * * * * * * * * * * * * * * * * //

dimensions      [0 2 -2 0 0 0 0];

internalField   nonuniform List<scalar> 
1000
(
1.5262557
1.509178
1.4929083
1.4770538
1.4613947
1.4458535
1.4303989
1.4150069
1.3996566
1.3843324
1.3690237
1.3537239
1.3384286
1.3231349
1.3078415
1.2925474
1.2772527
1.2619574
1.2466616
1.2313655
1.2160692
1.2007729
1.1854764
1.17018
1.1548835
1.139587
1.1242905
1.1089941
1.0936976
1.0784011
1.0631047
1.0478082
1.0325117
1.0172152
1.0019188
0.9866223
0.97132583
0.95602936
0.94073289
0.92543642
0.91013995
0.89484348
0.87954701
0.86425054
0.84895407
0.8336576
0.81836113
0.80306466
0.78776819
0.77247172
0.75717525
0.74187878
0.72658231
0.71128584
0.69598937
0.6806929
0.66539643
0.65009996
0.63480349
0.61950702
0.60421055
0.58891408
0.57361761
0.55832114
0.54302467
0.5277282
0.51243173
0.49713526
0.48183879
0.46654232
0.45124585
0.43594938
0.4206529
0.40535643
0.39005996
0.37476349
0.35946702
0.34417055
0.32887408
0.31357762
0.29828115
0.28298468
0.26768821
0.25239173
0.23709526
0.22179879
0.20650232
0.19120585
0.17590938
0.16061291
0.14531644
0.13001997
0.1147235
0.099427033
0.084130563
0.068834093
0.053537624
0.038241156
0.02294469
0.0076482278
1.5258148
1.5087541
1.4928415
1.4771869
1.4615432
1.4459618
1.4304753
1.4150628
1.3996959
1.3843576
1.3690386
1.3537322
1.3384329
1.323137
1.3078423
1.2925477
1.2772528
1.2619573
1.2466615
1.2313655
1.2160692
1.2007728
1.1854764
1.17018
1.1548835
1.139587
1.1242905
1.1089941
1.0936976
1.0784011
1.0631047
1.0478082
1.0325117
1.0172152
1.0019188
0.9866223
0.97132583
0.95602936
0.94073289
0.92543642
0.91013995
0.89484348
0.87954701
0.86425054
0.84895407
0.8336576
0.81836113
0.80306466
0.78776819
0.77247172
0.75717525
0.74187878
0.72658231
0.71128584
0.69598937
0.6806929
0.66539643
0.65009996
0.63480349
0.61950702
0.60421055
0.58891408
0.57361761
0.55832114
0.54302467
0.5277282
0.51243173
0.49713526
0.48183879
0.46654232
0.45124585
0.43594937
0.4206529
0.40535643
0.39005996
0.37476349
0.35946702
0.34417055
0.32887408
0.31357761
0.29828115
0.28298468
0.26768821
0.25239173
0.23709526
0.22179879
0.20650232
0.19120585
0.17590938
0.16061291
0.14531644
0.13001997
0.1147235
0.099427033
0.084130563
0.068834093
0.053537623
0.038241155
0.022944686
0.0076482243
1.5251469
1.5080173
1.492562
1.4772183
1.4616414
1.4460356
1.4305286
1.4151083
1.3997339
1.3843857
1.3690575
1.3537443
1.3384404
1.3231415
1.3078449
1.2925491
1.2772534
1.2619577
1.2466617
1.2313655
1.2160692
1.2007728
1.1854764
1.1701799
1.1548835
1.139587
1.1242905
1.1089941
1.0936976
1.0784011
1.0631047
1.0478082
1.0325117
1.0172152
1.0019188
0.9866223
0.97132583
0.95602936
0.94073289
0.92543642
0.91013995
0.89484348
0.87954701
0.86425054
0.84895407
0.8336576
0.81836113
0.80306466
0.78776819
0.77247172
0.75717525
0.74187878
0.72658231
0.71128584
0.69598937
0.6806929
0.66539643
0.65009996
0.63480349
0.61950702
0.60421055
0.58891408
0.57361761
0.55832114
0.54302467
0.5277282
0.51243173
0.49713526
0.48183879
0.46654232
0.45124585
0.43594938
0.4206529
0.40535643
0.39005996
0.37476349
0.35946702
0.34417055
0.32887408
0.31357762
0.29828115
0.28298468
0.26768821
0.25239173
0.23709526
0.22179879
0.20650232
0.19120585
0.17590938
0.16061291
0.14531644
0.13001997
0.1147235
0.099427033
0.084130562
0.068834091
0.053537621
0.038241151
0.02294468
0.0076482209
1.5245895
1.5073546
1.4922637
1.4772096
1.4617157
1.4460993
1.4305787
1.4151549
1.3997762
1.3844194
1.3690816
1.3537606
1.3384511
1.3231482
1.3078488
1.2925513
1.2772545
1.2619582
1.2466619
1.2313656
1.2160692
1.2007728
1.1854764
1.1701799
1.1548835
1.139587
1.1242905
1.1089941
1.0936976
1.0784011
1.0631047
1.0478082
1.0325117
1.0172152
1.0019188
0.9866223
0.97132583
0.95602936
0.94073289
0.92543642
0.91013995
0.89484348
0.87954701
0.86425054
0.84895407
0.8336576
0.81836113
0.80306466
0.78776819
0.77247172
0.75717525
0.74187878
0.72658231
0.71128584
0.69598937
0.6806929
0.66539643
0.65009996
0.63480349
0.61950702
0.60421055
0.58891408
0.57361761
0.55832114
0.54302467
0.5277282
0.51243173
0.49713526
0.48183879
0.46654232
0.45124585
0.43594937
0.4206529
0.40535643
0.39005996
0.37476349
0.35946702
0.34417055
0.32887408
0.31357761
0.29828115
0.28298468
0.26768821
0.25239173
0.23709526
0.22179879
0.20650232
0.19120585
0.17590938
0.16061291
0.14531644
0.13001997
0.1147235
0.099427032
0.084130561
0.06883409
0.053537619
0.038241149
0.022944677
0.0076482186
1.5242951
1.5069879
1.4920866
1.4771975
1.4617571
1.4461379
1.4306104
1.4151854
1.3998046
1.3844425
1.3690986
1.3537724
1.338459
1.3231532
1.3078518
1.2925529
1.2772554
1.2619586
1.2466621
1.2313656
1.2160692
1.2007728
1.1854764
1.1701799
1.1548835
1.139587
1.1242905
1.1089941
1.0936976
1.0784011
1.0631047
1.0478082
1.0325117
1.0172152
1.0019188
0.9866223
0.97132583
0.95602936
0.94073289
0.92543642
0.91013995
0.89484348
0.87954701
0.86425054
0.84895407
0.8336576
0.81836113
0.80306466
0.78776819
0.77247172
0.75717525
0.74187878
0.72658231
0.71128584
0.69598937
0.6806929
0.66539643
0.65009996
0.63480349
0.61950702
0.60421055
0.58891408
0.57361761
0.55832114
0.54302467
0.5277282
0.51243173
0.49713526
0.48183879
0.46654232
0.45124585
0.43594938
0.4206529
0.40535643
0.39005996
0.37476349
0.35946702
0.34417055
0.32887408
0.31357762
0.29828115
0.28298468
0.2676882
0.25239174
0.23709526
0.22179879
0.20650232
0.19120585
0.17590938
0.16061291
0.14531644
0.13001997
0.1147235
0.099427032
0.08413056
0.068834089
0.053537617
0.038241148
0.022944675
0.0076482175
1.5242951
1.5069879
1.4920866
1.4771975
1.4617571
1.4461379
1.4306104
1.4151854
1.3998046
1.3844425
1.3690986
1.3537724
1.338459
1.3231532
1.3078518
1.2925529
1.2772554
1.2619586
1.2466621
1.2313656
1.2160692
1.2007728
1.1854764
1.1701799
1.1548835
1.139587
1.1242905
1.1089941
1.0936976
1.0784011
1.0631047
1.0478082
1.0325117
1.0172152
1.0019188
0.9866223
0.97132583
0.95602936
0.94073289
0.92543642
0.91013995
0.89484348
0.87954701
0.86425054
0.84895407
0.8336576
0.81836113
0.80306466
0.78776819
0.77247172
0.75717525
0.74187878
0.72658231
0.71128584
0.69598937
0.6806929
0.66539643
0.65009996
0.63480349
0.61950702
0.60421055
0.58891408
0.57361761
0.55832114
0.54302467
0.5277282
0.51243173
0.49713526
0.48183879
0.46654232
0.45124585
0.43594938
0.4206529
0.40535643
0.39005996
0.37476349
0.35946702
0.34417055
0.32887408
0.31357762
0.29828115
0.28298468
0.2676882
0.25239173
0.23709526
0.22179879
0.20650232
0.19120585
0.17590938
0.16061291
0.14531644
0.13001997
0.1147235
0.099427031
0.08413056
0.068834089
0.053537618
0.038241148
0.022944675
0.0076482176
1.5245895
1.5073546
1.4922637
1.4772096
1.4617157
1.4460994
1.4305787
1.415155
1.3997762
1.3844194
1.3690816
1.3537606
1.3384511
1.3231482
1.3078488
1.2925512
1.2772545
1.2619582
1.2466619
1.2313656
1.2160692
1.2007728
1.1854764
1.1701799
1.1548835
1.139587
1.1242905
1.1089941
1.0936976
1.0784011
1.0631047
1.0478082
1.0325117
1.0172152
1.0019188
0.9866223
0.97132583
0.95602936
0.94073289
0.92543642
0.91013995
0.89484348
0.87954701
0.86425054
0.84895407
0.8336576
0.81836113
0.80306466
0.78776819
0.77247172
0.75717525
0.74187878
0.72658231
0.71128584
0.69598937
0.6806929
0.66539643
0.65009996
0.63480349
0.61950702
0.60421055
0.58891408
0.57361761
0.55832114
0.54302467
0.5277282
0.51243173
0.49713526
0.48183879
0.46654232
0.45124585
0.43594937
0.42065291
0.40535643
0.39005997
0.37476349
0.35946703
0.34417055
0.32887409
0.31357761
0.29828115
0.28298467
0.26768821
0.25239173
0.23709526
0.22179879
0.20650232
0.19120585
0.17590938
0.16061291
0.14531644
0.13001997
0.1147235
0.099427031
0.084130561
0.06883409
0.053537619
0.038241149
0.022944677
0.0076482188
1.5251469
1.5080173
1.492562
1.4772183
1.4616414
1.4460356
1.4305286
1.4151083
1.3997339
1.3843857
1.3690575
1.3537442
1.3384404
1.3231415
1.3078448
1.2925491
1.2772534
1.2619576
1.2466617
1.2313655
1.2160692
1.2007728
1.1854764
1.1701799
1.1548835
1.139587
1.1242905
1.1089941
1.0936976
1.0784011
1.0631047
1.0478082
1.0325117
1.0172152
1.0019188
0.9866223
0.97132583
0.95602936
0.94073289
0.92543642
0.91013995
0.89484348
0.87954701
0.86425054
0.84895407
0.8336576
0.81836113
0.80306466
0.78776819
0.77247172
0.75717525
0.74187878
0.72658231
0.71128584
0.69598937
0.6806929
0.66539643
0.65009996
0.63480349
0.61950702
0.60421055
0.58891408
0.57361761
0.55832114
0.54302467
0.5277282
0.51243173
0.49713526
0.48183879
0.46654232
0.45124585
0.43594938
0.4206529
0.40535643
0.39005996
0.37476349
0.35946702
0.34417055
0.32887408
0.31357762
0.29828114
0.28298468
0.2676882
0.25239173
0.23709526
0.22179879
0.20650232
0.19120585
0.17590938
0.16061291
0.14531644
0.13001997
0.1147235
0.099427032
0.084130561
0.068834091
0.053537621
0.038241152
0.022944681
0.0076482212
1.5258148
1.5087541
1.4928415
1.4771869
1.4615432
1.4459618
1.4304753
1.4150628
1.3996959
1.3843576
1.3690386
1.3537322
1.3384329
1.323137
1.3078423
1.2925477
1.2772527
1.2619573
1.2466615
1.2313655
1.2160692
1.2007728
1.1854764
1.17018
1.1548835
1.139587
1.1242905
1.1089941
1.0936976
1.0784011
1.0631047
1.0478082
1.0325117
1.0172152
1.0019188
0.9866223
0.97132583
0.95602936
0.94073289
0.92543642
0.91013995
0.89484348
0.87954701
0.86425054
0.84895407
0.8336576
0.81836113
0.80306466
0.78776819
0.77247172
0.75717525
0.74187878
0.72658231
0.71128584
0.69598937
0.6806929
0.66539643
0.65009996
0.63480349
0.61950702
0.60421055
0.58891408
0.57361761
0.55832114
0.54302467
0.5277282
0.51243173
0.49713526
0.48183879
0.46654232
0.45124585
0.43594938
0.4206529
0.40535644
0.39005996
0.37476349
0.35946702
0.34417056
0.32887408
0.31357762
0.29828114
0.28298468
0.2676882
0.25239173
0.23709526
0.22179879
0.20650232
0.19120585
0.17590938
0.16061291
0.14531644
0.13001997
0.1147235
0.099427032
0.084130562
0.068834092
0.053537623
0.038241155
0.022944686
0.0076482246
1.5262557
1.509178
1.4929083
1.4770538
1.4613947
1.4458535
1.4303989
1.4150069
1.3996566
1.3843323
1.3690237
1.3537239
1.3384286
1.3231349
1.3078415
1.2925474
1.2772527
1.2619574
1.2466616
1.2313655
1.2160692
1.2007729
1.1854764
1.17018
1.1548835
1.139587
1.1242905
1.1089941
1.0936976
1.0784011
1.0631047
1.0478082
1.0325117
1.0172152
1.0019188
0.9866223
0.97132583
0.95602936
0.94073289
0.92543642
0.91013995
0.89484348
0.87954701
0.86425054
0.84895407
0.8336576
0.81836113
0.80306466
0.78776819
0.77247172
0.75717525
0.74187878
0.72658231
0.71128584
0.69598937
0.6806929
0.66539643
0.65009996
0.63480349
0.61950702
0.60421055
0.58891408
0.57361761
0.55832114
0.54302467
0.5277282
0.51243173
0.49713526
0.48183879
0.46654232
0.45124585
0.43594938
0.42065291
0.40535643
0.39005996
0.37476349
0.35946702
0.34417055
0.32887409
0.31357761
0.29828115
0.28298467
0.2676882
0.25239173
0.23709526
0.22179879
0.20650232
0.19120585
0.17590938
0.16061291
0.14531644
0.13001997
0.1147235
0.099427032
0.084130562
0.068834093
0.053537624
0.038241157
0.022944691
0.007648228
)
;

boundaryField
{
    top
    {
        type            zeroGradient;
    }
    inlet
    {
        type            fixedValue;
        value           uniform 1.5352;
    }
    outlet
    {
        type            fixedValue;
        value           uniform 0;
    }
    bottom
    {
        type            zeroGradient;
    }
    back
    {
        type            empty;
    }
    front
    {
        type            empty;
    }
}


// ************************************************************************* //
