/*--------------------------------*- C++ -*----------------------------------*\
| =========                 |                                                 |
| \\      /  F ield         | OpenFOAM: The Open Source CFD Toolbox           |
|  \\    /   O peration     | Version:  2112                                  |
|   \\  /    A nd           | Website:  www.openfoam.com                      |
|    \\/     M anipulation  |                                                 |
\*---------------------------------------------------------------------------*/
FoamFile
{
    version     2.0;
    format      ascii;
    arch        "LSB;label=32;scalar=64";
    class       surfaceScalarField;
    location    "4";
    object      phi;
}
// * * * * * * * * * * * * * * * * * * * * * * * * * * * * * * * * * * * * * //

dimensions      [0 3 -1 0 0 0 0];

oriented        oriented;

internalField   nonuniform List<scalar> 
1890
(
0.0017652099
6.1586083e-06
0.0017485209
1.6688336e-05
0.0017321166
1.6403916e-05
0.0017201262
1.1990767e-05
0.0017120091
8.1179772e-06
0.0017063565
5.6534313e-06
0.0017023679
3.9891776e-06
0.0016996665
2.7019936e-06
0.0016979551
1.7119956e-06
0.0016969443
1.0113535e-06
0.0016963922
5.5259666e-07
0.0016961227
2.6994735e-07
0.0016960153
1.0781069e-07
0.0016959924
2.33717e-08
0.0016960045
-1.1842663e-08
0.0016960267
-2.1894057e-08
0.0016960475
-2.0576305e-08
0.0016960632
-1.5470956e-08
0.0016960736
-1.023234e-08
0.0016960799
-6.1714353e-09
0.0016960834
-3.4499474e-09
0.0016960852
-1.7960978e-09
0.0016960862
-8.7014951e-10
0.0016960866
-3.8444875e-10
0.0016960867
-1.4867856e-10
0.0016960868
-4.0917845e-11
0.0016960868
2.0626126e-12
0.0016960868
1.7704479e-11
0.0016960868
1.9165185e-11
0.0016960868
1.8579381e-11
0.0016960868
1.4301965e-11
0.0016960868
1.2369467e-11
0.0016960868
8.539674e-12
0.0016960868
7.3951155e-12
0.0016960868
4.3383648e-12
0.0016960868
3.7641206e-12
0.0016960868
1.4925783e-12
0.0016960868
1.4176961e-12
0.0016960868
-1.5049322e-13
0.0016960868
8.7413055e-14
0.0016960868
-8.5056701e-13
0.0016960868
-3.2099327e-14
0.0016960868
-6.0394708e-13
0.0016960868
5.1080475e-13
0.0016960868
1.3244443e-13
0.0016960868
1.3888946e-12
0.0016960868
7.8030253e-13
0.0016960868
1.9420233e-12
0.0016960868
1.0945136e-12
0.0016960868
2.0310016e-12
0.0016960868
8.4457313e-13
0.0016960868
1.3681005e-12
0.0016960867
1.5451701e-13
0.0016960867
4.0328079e-13
0.0016960867
-9.6666139e-13
0.0016960867
-5.7353387e-13
0.0016960867
-1.8819248e-12
0.0016960867
-1.1613518e-12
0.0016960867
-2.3140666e-12
0.0016960867
-1.3309068e-12
0.0016960868
-2.1159181e-12
0.0016960868
-8.3158719e-13
0.0016960868
-1.328265e-12
0.0016960868
-7.7301162e-14
0.0016960868
-1.9685846e-13
0.0016960868
1.1652593e-12
0.0016960868
7.1890454e-13
0.0016960868
2.0668712e-12
0.0016960868
1.4073215e-12
0.0016960868
2.6233408e-12
0.0016960868
1.6175298e-12
0.0016960868
2.4870405e-12
0.0016960868
1.27974e-12
0.0016960867
1.9079923e-12
0.0016960867
5.3086164e-13
0.0016960867
8.1197027e-13
0.0016960867
-5.5629858e-13
0.0016960867
-2.4161852e-13
0.0016960867
-1.666524e-12
0.0016960867
-1.1754523e-12
0.0016960867
-2.5128154e-12
0.0016960867
-1.7097067e-12
0.0016960867
-2.8826281e-12
0.0016960867
-1.857633e-12
0.0016960867
-2.6950177e-12
0.0016960868
-1.3642488e-12
0.0016960868
-1.9287844e-12
0.0016960868
-4.898126e-13
0.0016960868
-5.7092881e-13
0.0016960868
1.1719292e-12
0.0016960868
1.2949465e-12
0.0016960868
3.4970265e-12
0.0016960868
4.4710711e-12
0.0016960867
8.6359406e-12
0.0016960867
1.4143033e-11
0.0016960867
2.5783637e-11
0.0016960867
4.5127298e-11
0.0016960866
7.0390203e-11
0.0016960864
1.6239181e-10
1.7302572e-10
0.0038410306
6.9567897e-06
0.0038343008
2.3416394e-05
0.003823664
2.7039239e-05
0.0038128963
2.2758362e-05
0.0038035714
1.7443636e-05
0.0037958957
1.3329756e-05
0.0037898078
1.0077225e-05
0.0037852307
7.279231e-06
0.0037820013
4.9415857e-06
0.003779866
3.1469517e-06
0.0037785464
1.8725911e-06
0.0037777923
1.0244276e-06
0.0037774027
4.9775267e-07
0.0037772277
1.9868369e-07
0.0037771673
4.8862724e-08
0.0037771602
-1.4525315e-08
0.0037771726
-3.2709903e-08
0.0037771884
-3.1010929e-08
0.0037772014
-2.3091805e-08
0.0037772104
-1.5072371e-08
0.003777216
-8.9632942e-09
0.0037772192
-4.9442546e-09
0.003777221
-2.5463298e-09
0.0037772218
-1.2240449e-09
0.0037772223
-5.3963074e-10
0.0037772225
-2.0967275e-10
0.0037772225
-5.9321185e-11
0.0037772226
1.0680036e-12
0.0037772226
2.3856096e-11
0.0037772226
2.7510702e-11
0.0037772226
2.6373729e-11
0.0037772226
2.1337719e-11
0.0037772225
1.7961364e-11
0.0037772225
1.3011888e-11
0.0037772225
1.0331782e-11
0.0037772225
6.4096497e-12
0.0037772225
4.7608335e-12
0.0037772225
2.0865257e-12
0.0037772225
1.1732236e-12
0.0037772225
-2.9963249e-13
0.0037772225
-2.983516e-13
0.0037772225
-8.1760358e-13
0.0037772225
-1.6812033e-13
0.0037772225
-2.2705141e-14
0.0037772225
1.1063029e-12
0.0037772225
1.1389145e-12
0.0037772225
2.3896176e-12
0.0037772225
2.0304074e-12
0.0037772225
3.0147198e-12
0.0037772225
2.2141724e-12
0.0037772225
2.5859851e-12
0.0037772225
1.3350573e-12
0.0037772225
1.2031012e-12
0.0037772225
-1.0845316e-13
0.0037772225
-5.1548534e-13
0.0037772225
-1.9744107e-12
0.0037772225
-1.8893152e-12
0.0037772225
-3.1347452e-12
0.0037772225
-2.6491737e-12
0.0037772225
-3.4673008e-12
0.0037772225
-2.4120292e-12
0.0037772225
-2.6456813e-12
0.0037772225
-1.3361219e-12
0.0037772225
-1.0975696e-12
0.0037772225
3.854331e-13
0.0037772225
7.3755432e-13
0.0037772225
2.2159262e-12
0.0037772225
2.1626156e-12
0.0037772225
3.5481004e-12
0.0037772225
3.1082608e-12
0.0037772225
3.9969164e-12
0.0037772225
3.0383987e-12
0.0037772225
3.5101234e-12
0.0037772225
2.2180331e-12
0.0037772225
2.1487596e-12
0.0037772225
7.0312406e-13
0.0037772225
2.3507451e-13
0.0037772225
-1.1619148e-12
0.0037772225
-1.4122723e-12
0.0037772225
-2.9784662e-12
0.0037772225
-2.7939507e-12
0.0037772225
-4.0602437e-12
0.0037772225
-3.5244578e-12
0.0037772225
-4.4085263e-12
0.0037772225
-3.3324328e-12
0.0037772225
-3.6542936e-12
0.0037772225
-2.2072858e-12
0.0037772225
-1.9396476e-12
0.0037772225
-1.2959911e-13
0.0037772225
9.2157617e-13
0.0037772225
3.5943563e-12
0.0037772225
5.1204498e-12
0.0037772225
1.0281607e-11
0.0037772225
1.5776235e-11
0.0037772225
2.8431483e-11
0.0037772225
4.3925667e-11
0.0037772225
7.6227674e-11
0.0037772224
1.0549851e-10
0.0037772224
1.9976075e-10
2.1187579e-10
0.0049571993
4.7527896e-06
0.0049617639
1.8848959e-05
0.0049646806
2.4121464e-05
0.004965294
2.2145722e-05
0.0049644877
1.8251139e-05
0.0049630123
1.4805627e-05
0.0049613005
1.1789057e-05
0.0049596308
8.9487901e-06
0.004958186
6.3865093e-06
0.0049570518
4.2813033e-06
0.0049562338
2.6907657e-06
0.0049556891
1.5693466e-06
0.0049553547
8.3232266e-07
0.0049551668
3.8685944e-07
0.004955072
1.4401193e-07
0.0049550292
2.8512441e-08
0.0049550149
-1.8114733e-08
0.0049550126
-2.8478187e-08
0.0049550146
-2.4907811e-08
0.0049550174
-1.7695876e-08
0.0049550197
-1.1129926e-08
0.0049550212
-6.4066151e-09
0.0049550221
-3.4268958e-09
0.0049550227
-1.7093866e-09
0.0049550229
-7.9112442e-10
0.0049550231
-3.3000882e-10
0.0049550232
-1.1424257e-10
0.0049550232
-2.0818271e-11
0.0049550232
1.677713e-11
0.0049550232
2.8133621e-11
0.0049550232
2.7961511e-11
0.0049550232
2.5169882e-11
0.0049550232
2.0032106e-11
0.0049550232
1.6162431e-11
0.0049550232
1.1495638e-11
0.0049550232
8.5478458e-12
0.0049550232
5.1516078e-12
0.0049550232
3.2349093e-12
0.0049550232
1.3268407e-12
0.0049550232
2.4865038e-13
0.0049550232
-2.2014527e-13
0.0049550232
-3.8567995e-13
0.0049550232
-1.2276742e-14
0.0049550232
5.1503922e-13
0.0049550232
1.0167631e-12
0.0049550232
1.941916e-12
0.0049550232
2.138226e-12
0.0049550232
2.8983614e-12
0.0049550232
2.6161033e-12
0.0049550232
2.8335568e-12
0.0049550232
2.0475928e-12
0.0049550232
1.6699131e-12
0.0049550232
7.0891848e-13
0.0049550232
-1.9620646e-13
0.0049550232
-1.2485492e-12
0.0049550232
-1.7763969e-12
0.0049550232
-2.8265272e-12
0.0049550232
-2.8841083e-12
0.0049550232
-3.5182088e-12
0.0049550232
-3.0006512e-12
0.0049550232
-3.057268e-12
0.0049550232
-2.1204666e-12
0.0049550232
-1.6139195e-12
0.0049550232
-5.7536076e-13
0.0049550232
3.6151164e-13
0.0049550232
1.4885424e-12
0.0049550232
2.0242538e-12
0.0049550232
3.1664732e-12
0.0049550232
3.2662531e-12
0.0049550232
4.0165432e-12
0.0049550232
3.5989693e-12
0.0049550232
3.8616703e-12
0.0049550232
3.0027065e-12
0.0049550232
2.743756e-12
0.0049550232
1.6149759e-12
0.0049550232
8.3467908e-13
0.0049550232
-1.7336361e-13
0.0049550232
-1.0581261e-12
0.0049550232
-2.2653094e-12
0.0049550232
-2.6570645e-12
0.0049550232
-3.7375473e-12
0.0049550232
-3.7224251e-12
0.0049550232
-4.4189686e-12
0.0049550232
-3.8807804e-12
0.0049550232
-4.0495965e-12
0.0049550232
-3.0491052e-12
0.0049550232
-2.6204818e-12
0.0049550232
-1.2120561e-12
0.0049550232
1.7026462e-13
0.0049550232
2.0409789e-12
0.0049550232
3.9313555e-12
0.0049550232
7.371176e-12
0.0049550232
1.2275923e-11
0.0049550232
2.0527235e-11
0.0049550232
3.2181829e-11
0.0049550232
4.725893e-11
0.0049550232
7.412122e-11
0.0049550232
9.5249852e-11
0.0049550233
1.5895265e-10
1.6505632e-10
0.005503556
2.2269033e-06
0.0055125609
9.8414496e-06
0.0055232956
1.338572e-05
0.0055325355
1.2906748e-05
0.0055397163
1.10716e-05
0.00554523
9.2926884e-06
0.0055493831
7.6360624e-06
0.0055523546
5.9772966e-06
0.005554343
4.3981776e-06
0.0055555842
3.0402927e-06
0.0055563027
1.9724953e-06
0.0055566806
1.1916734e-06
0.005556853
6.602403e-07
0.0055569131
3.2704515e-07
0.0055569201
1.3737887e-07
0.0055569076
4.1477418e-08
0.0055568905
-7.1648073e-10
0.0055568765
-1.4136733e-08
0.0055568666
-1.4824431e-08
0.0055568604
-1.135737e-08
0.0055568568
-7.4476237e-09
0.0055568549
-4.4059412e-09
0.005556854
-2.3964212e-09
0.0055568535
-1.2094419e-09
0.0055568533
-5.5810091e-10
0.0055568532
-2.3070892e-10
0.0055568532
-7.3301342e-11
0.0055568532
-8.0794367e-12
0.0055568532
2.0587944e-11
0.0055568532
2.5344578e-11
0.0055568532
2.6851263e-11
0.0055568532
2.1002119e-11
0.0055568533
1.8994583e-11
0.0055568533
1.2688628e-11
0.0055568533
1.1193277e-11
0.0055568533
6.0137592e-12
0.0055568533
5.3361502e-12
0.0055568533
1.7000812e-12
0.0055568533
1.9036926e-12
0.0055568533
-2.8559643e-13
0.0055568533
6.0940823e-13
0.0055568533
-6.0689301e-13
0.0055568533
1.1255655e-12
0.0055568533
2.7436568e-13
0.0055568533
2.2170091e-12
0.0055568533
1.1203284e-12
0.0055568533
3.1758484e-12
0.0055568533
1.6067599e-12
0.0055568533
3.1639713e-12
0.0055568533
1.2051582e-12
0.0055568533
2.2634183e-12
0.0055568533
2.1257489e-13
0.0055568533
5.6168705e-13
0.0055568533
-1.6054994e-12
0.0055568533
-7.8604889e-13
0.0055568533
-3.0246923e-12
0.0055568533
-1.7838419e-12
0.0055568533
-3.7471904e-12
0.0055568533
-1.9234224e-12
0.0055568533
-3.3852473e-12
0.0055568533
-1.2931017e-12
0.0055568533
-2.2060747e-12
0.0055568533
-6.7891144e-14
0.0055568533
-3.7659132e-13
0.0055568533
1.7450197e-12
0.0055568533
9.6357788e-13
0.0055568533
3.30294e-12
0.0055568533
2.0224053e-12
0.0055568533
4.0624584e-12
0.0055568533
2.3373363e-12
0.0055568533
4.0222917e-12
0.0055568533
1.9069889e-12
0.0055568533
3.0527109e-12
0.0055568533
8.3786931e-13
0.0055568533
1.5662861e-12
0.0055568533
-6.4436998e-13
0.0055568533
-2.2242755e-13
0.0055568533
-2.4130619e-12
0.0055568533
-1.4126853e-12
0.0055568533
-3.6987689e-12
0.0055568533
-2.323234e-12
0.0055568533
-4.3330679e-12
0.0055568533
-2.4412605e-12
0.0055568533
-4.018306e-12
0.0055568533
-1.8431877e-12
0.0055568533
-2.8723105e-12
0.0055568533
-4.8817529e-13
0.0055568533
-6.9567801e-13
0.0055568533
2.0744303e-12
0.0055568533
1.938516e-12
0.0055568533
5.8064295e-12
0.0055568533
6.768696e-12
0.0055568533
1.3748723e-11
0.0055568533
1.8128017e-11
0.0055568533
2.9095873e-11
0.0055568533
3.5108823e-11
0.0055568533
5.2233689e-11
0.0055568533
5.9252973e-11
0.0055568534
8.9172183e-11
8.9527703e-11
0.0057215172
-8.770374e-11
0.0057313557
-3.5916577e-10
0.0057447405
-2.3482375e-10
0.0057576484
6.651576e-11
0.0057687218
2.2475136e-10
0.0057780156
2.0955371e-11
0.0057856522
-2.5727164e-10
0.00579163
-4.4341792e-10
0.0057960289
-4.9035682e-10
0.0057990701
-5.0170605e-10
0.0058010433
-4.9155349e-10
0.0058022357
-4.3414195e-10
0.0058028966
-3.2958168e-10
0.0058032243
-2.1230632e-10
0.0058033622
-5.0913554e-11
0.0058034041
3.685757e-11
0.0058034036
1.210734e-10
0.0058033896
1.6217592e-10
0.0058033748
1.7483181e-10
0.0058033635
1.7367361e-10
0.005803356
1.5896645e-10
0.0058033516
1.4193876e-10
0.0058033491
1.19502e-10
0.0058033479
1.0054603e-10
0.0058033473
8.0239226e-11
0.005803347
6.5919336e-11
0.0058033469
5.0981377e-11
0.0058033469
4.1837027e-11
0.0058033469
3.1730704e-11
0.0058033469
2.6543764e-11
0.0058033469
1.9375716e-11
0.0058033469
1.6127501e-11
0.0058033469
1.078302e-11
0.0058033469
9.0387943e-12
0.0058033469
5.0969001e-12
0.0058033469
4.2563118e-12
0.0058033469
1.2747863e-12
0.0058033469
1.6054364e-12
0.0058033469
-3.2602821e-13
0.0058033469
7.4895003e-13
0.0058033469
-6.259087e-13
0.0058033469
1.1519733e-12
0.0058033469
2.3436368e-13
0.0058033469
2.0460906e-12
0.0058033469
8.9805029e-13
0.0058033469
2.6324154e-12
0.0058033469
1.3535553e-12
0.0058033469
2.5211613e-12
0.0058033469
7.2286785e-13
0.0058033469
1.6637201e-12
0.0058033469
-2.4690586e-13
0.0058033469
3.6680438e-13
0.0058033469
-1.7602001e-12
0.0058033469
-8.1352096e-13
0.0058033469
-2.637769e-12
0.0058033469
-1.51764e-12
0.0058033469
-3.1012673e-12
0.0058033469
-1.5092787e-12
0.0058033469
-2.4899049e-12
0.0058033469
-6.9040239e-13
0.0058033469
-1.5313462e-12
0.0058033469
5.3321931e-13
0.0058033469
-8.2050917e-14
0.0058033469
1.9075936e-12
0.0058033469
9.156013e-13
0.0058033469
2.8635965e-12
0.0058033469
1.7490201e-12
0.0058033469
3.2130958e-12
0.0058033469
1.6699669e-12
0.0058033469
2.8715399e-12
0.0058033469
1.1454738e-12
0.0058033469
1.9267971e-12
0.0058033469
-1.574431e-14
0.0058033469
7.4672072e-13
0.0058033469
-1.1784126e-12
0.0058033469
-4.0837555e-13
0.0058033469
-2.4833728e-12
0.0058033469
-1.3362572e-12
0.0058033469
-3.0022844e-12
0.0058033469
-1.7763823e-12
0.0058033469
-3.2470361e-12
0.0058033469
-1.6214851e-12
0.0058033469
-2.5674382e-12
0.0058033469
-7.6796658e-13
0.0058033469
-1.6056299e-12
0.0058033469
5.10121e-13
0.0058033469
5.9440701e-14
0.0058033469
2.3530905e-12
0.0058033469
1.8145723e-12
0.0058033469
4.4465798e-12
0.0058033469
4.5220869e-12
0.0058033469
8.3031862e-12
0.0058033469
9.7592471e-12
0.0058033469
1.5088801e-11
0.005803347
1.6046272e-11
0.005803347
1.8045134e-11
0.005803347
1.7007561e-11
0.005803347
1.4303954e-11
0.0058033471
1.0157229e-11
7.9887839e-12
0.0057215166
-2.2269613e-06
0.0057313547
-9.8411591e-06
0.0057447394
-1.3385222e-05
0.0057576476
-1.2906515e-05
0.0057687213
-1.1071666e-05
0.0057780151
-9.2929524e-06
0.0057856518
-7.6365336e-06
0.0057916296
-5.9780199e-06
0.0057960285
-4.3990711e-06
0.0057990696
-3.0412537e-06
0.0058010428
-1.9734162e-06
0.0058022352
-1.1924682e-06
0.005802896
-6.608374e-07
0.0058032237
-3.2739131e-07
0.0058033616
-1.3753314e-07
0.0058034036
-4.1415845e-08
0.0058034032
9.2345526e-10
0.0058033892
1.4410196e-08
0.0058033745
1.5126137e-08
0.0058033632
1.1659878e-08
0.0058033558
7.728402e-09
0.0058033514
4.6565708e-09
0.005803349
2.6092138e-09
0.0058033477
1.3876287e-09
0.0058033472
7.0189419e-10
0.0058033469
3.4796105e-10
0.0058033468
1.6490251e-10
0.0058033468
8.1816535e-11
0.0058033468
3.7291561e-11
0.0058033468
2.1634622e-11
0.0058033469
8.7096955e-12
0.0058033469
6.8293552e-12
0.0058033469
1.52259e-12
0.0058033469
2.3355171e-12
0.0058033469
-9.4805066e-13
0.0058033469
2.4868813e-13
0.0058033469
-2.0784277e-12
0.0058033469
8.2788838e-14
0.0058033469
-1.8090892e-12
0.0058033469
6.2104412e-13
0.0058033469
-9.317699e-13
0.0058033469
1.8549502e-12
0.0058033469
1.3263908e-13
0.0058033469
2.5359779e-12
0.0058033469
4.7251003e-13
0.0058033469
2.7678658e-12
0.0058033469
3.3162452e-13
0.0058033469
1.9339029e-12
0.0058033469
-6.9950691e-13
0.0058033469
8.8058365e-13
0.0058033469
-1.8958751e-12
0.0058033469
-3.5423345e-13
0.0058033469
-2.990818e-12
0.0058033469
-7.8184898e-13
0.0058033469
-3.2537507e-12
0.0058033469
-8.449976e-13
0.0058033469
-2.8528275e-12
0.0058033469
-1.3088197e-13
0.0058033469
-1.6744863e-12
0.0058033469
9.8682447e-13
0.0058033469
-4.1199599e-13
0.0058033469
2.3825732e-12
0.0058033469
5.6493336e-13
0.0058033469
3.1441514e-12
0.0058033469
9.4021203e-13
0.0058033469
3.4946794e-12
0.0058033469
9.0287845e-13
0.0058033469
2.8318042e-12
0.0058033469
2.4916514e-13
0.0058033469
1.9324447e-12
0.0058033469
-8.08559e-13
0.0058033469
5.2048947e-13
0.0058033469
-2.1072944e-12
0.0058033469
-3.4224727e-13
0.0058033469
-2.9796218e-12
0.0058033469
-9.7392894e-13
0.0058033469
-3.5582655e-12
0.0058033469
-9.9250291e-13
0.0058033469
-3.2719965e-12
0.0058033469
-7.3404787e-13
0.0058033469
-2.5452766e-12
0.0058033469
1.9639338e-13
0.0058033469
-1.2600563e-12
0.0058033469
1.4565027e-12
0.0058033469
6.6142266e-14
0.0058033469
3.0509258e-12
0.0058033469
1.2765653e-12
0.0058033469
4.4047564e-12
0.0058033469
2.3146653e-12
0.0058033469
5.80774e-12
0.0058033469
3.7114406e-12
0.0058033469
7.6929427e-12
0.0058033469
5.2747836e-12
0.0058033469
8.1249481e-12
0.005803347
1.1760806e-12
0.005803347
-2.3793692e-12
0.005803347
-2.0414938e-11
0.005803347
-3.3837614e-11
0.0058033471
-7.0055706e-11
-7.4709428e-11
0.0055035527
-4.7527409e-06
0.0055125585
-1.8849087e-05
0.0055232937
-2.4121858e-05
0.0055325338
-2.2145943e-05
0.0055397146
-1.8251243e-05
0.0055452284
-1.4805802e-05
0.0055493816
-1.1789455e-05
0.0055523532
-8.9493436e-06
0.0055543415
-6.3871535e-06
0.0055555826
-4.2819627e-06
0.005556301
-2.6913909e-06
0.0055566789
-1.5698797e-06
0.0055568512
-8.3274401e-07
0.0055569114
-3.8712189e-07
0.0055569186
-1.4413881e-07
0.0055569062
-2.8529692e-08
0.0055568893
1.8201128e-08
0.0055568754
2.8623638e-08
0.0055568657
2.5092187e-08
0.0055568597
1.7885535e-08
0.0055568563
1.1317116e-08
0.0055568545
6.5711592e-09
0.0055568536
3.5737618e-09
0.0055568532
1.8280881e-09
0.0055568531
8.9304652e-10
0.005556853
4.0820918e-10
0.0055568531
1.8106366e-10
0.0055568531
6.8923264e-11
0.0055568531
2.6654391e-11
0.0055568531
3.2160502e-12
0.0055568532
-1.2388118e-12
0.0055568532
-7.4444273e-12
0.0055568532
-3.77572e-12
0.0055568532
-7.4162266e-12
0.0055568532
-2.8624975e-12
0.0055568532
-6.0585547e-12
0.0055568532
-1.3786172e-12
0.0055568532
-3.9993175e-12
0.0055568532
1.4005781e-13
0.0055568532
-2.3488721e-12
0.0055568532
1.942164e-12
0.0055568532
-7.755604e-13
0.0055568532
2.8197321e-12
0.0055568532
-3.9291006e-13
0.0055568532
2.9368981e-12
0.0055568532
-6.2238569e-13
0.0055568532
2.1839856e-12
0.0055568532
-1.8822187e-12
0.0055568532
1.0154596e-12
0.0055568532
-2.8721566e-12
0.0055568532
-6.5608564e-14
0.0055568532
-3.7833691e-12
0.0055568532
-4.1275332e-13
0.0055568532
-3.6551314e-12
0.0055568532
-1.4675111e-13
0.0055568532
-3.1000887e-12
0.0055568532
9.5611581e-13
0.0055568532
-1.7538664e-12
0.0055568532
2.253553e-12
0.0055568532
-4.8575703e-13
0.0055568532
3.4589744e-12
0.0055568532
4.7621407e-13
0.0055568532
3.9802403e-12
0.0055568532
5.5211734e-13
0.0055568532
3.8787507e-12
0.0055568532
2.4484009e-13
0.0055568532
3.0099675e-12
0.0055568532
-1.0203645e-12
0.0055568532
1.8418714e-12
0.0055568532
-2.2322912e-12
0.0055568532
3.5630305e-13
0.0055568532
-3.5705312e-12
0.0055568532
-4.9924208e-13
0.0055568532
-4.1608277e-12
0.0055568532
-8.3561556e-13
0.0055568532
-4.3583717e-12
0.0055568532
-6.1301618e-13
0.0055568532
-3.5827062e-12
0.0055568532
1.2436366e-13
0.0055568532
-2.6449444e-12
0.0055568532
1.5994989e-12
0.0055568532
-1.0013482e-12
0.0055568532
3.0127844e-12
0.0055568532
3.0938621e-13
0.0055568532
4.4855155e-12
0.0055568532
1.371679e-12
0.0055568532
5.4827465e-12
0.0055568532
1.9300326e-12
0.0055568532
6.0491665e-12
0.0055568532
2.3728574e-12
0.0055568532
6.1665817e-12
0.0055568532
2.0800874e-12
0.0055568532
4.2628109e-12
0.0055568532
-3.3468039e-12
0.0055568533
-7.7071928e-12
0.0055568533
-2.3738485e-11
0.0055568533
-4.9519615e-11
0.0055568533
-7.5870282e-11
0.0055568534
-1.4374948e-10
-1.5285687e-10
0.0049571948
-6.9568041e-06
0.00496176
-2.3416764e-05
0.0049646772
-2.7039941e-05
0.0049652908
-2.2759008e-05
0.0049644846
-1.7443966e-05
0.0049630093
-1.3329821e-05
0.0049612977
-1.0077262e-05
0.0049596282
-7.2793716e-06
0.0049581834
-4.9418269e-06
0.0049570493
-3.147226e-06
0.0049562314
-1.8728422e-06
0.0049556867
-1.0246577e-06
0.0049553525
-4.9790484e-07
0.0049551648
-1.9881993e-07
0.0049550701
-4.8922072e-08
0.0049550276
1.4474998e-08
0.0049550135
3.2711838e-08
0.0049550114
3.1052612e-08
0.0049550136
2.3163398e-08
0.0049550166
1.5155359e-08
0.004955019
9.048956e-09
0.0049550207
5.0221937e-09
0.0049550217
2.6163115e-09
0.0049550223
1.2821338e-09
0.0049550227
5.8934387e-10
0.0049550229
2.4880664e-10
0.004955023
9.2274739e-11
0.004955023
2.4071489e-11
0.0049550231
-1.7315181e-12
0.0049550231
-1.1381715e-11
0.0049550231
-1.2716579e-11
0.0049550231
-1.1923216e-11
0.0049550231
-9.628061e-12
0.0049550232
-8.3217942e-12
0.0049550232
-6.2733687e-12
0.0049550232
-5.0694796e-12
0.0049550232
-3.215546e-12
0.0049550232
-2.5718896e-12
0.0049550232
-1.1572709e-12
0.0049550232
-6.1798719e-13
0.0049550232
5.5294725e-13
0.0049550232
4.3112542e-13
0.0049550232
9.445356e-13
0.0049550232
6.1835347e-13
0.0049550232
8.561053e-13
0.0049550232
-5.9972663e-14
0.0049550232
-8.1546841e-14
0.0049550232
-9.9776174e-13
0.0049550232
-9.1550939e-13
0.0049550232
-1.8476784e-12
0.0049550232
-1.6907026e-12
0.0049550232
-2.037307e-12
0.0049550232
-1.4311357e-12
0.0049550232
-1.6581047e-12
0.0049550232
-8.8300499e-13
0.0049550232
-6.5846101e-13
0.0049550232
4.3937494e-13
0.0049550232
4.414713e-13
0.0049550232
1.3889319e-12
0.0049550232
1.4934482e-12
0.0049550232
2.2996436e-12
0.0049550232
1.871775e-12
0.0049550232
2.1627859e-12
0.0049550232
1.6555578e-12
0.0049550232
1.7640614e-12
0.0049550232
7.5140232e-13
0.0049550232
5.420672e-13
0.0049550232
-3.9781766e-13
0.0049550232
-4.8132504e-13
0.0049550232
-1.6576915e-12
0.0049550232
-1.7431905e-12
0.0049550232
-2.4082889e-12
0.0049550232
-2.1109057e-12
0.0049550232
-2.6852713e-12
0.0049550232
-2.2045385e-12
0.0049550232
-2.22738e-12
0.0049550232
-1.3557286e-12
0.0049550232
-1.3441285e-12
0.0049550232
-3.7595877e-13
0.0049550232
-1.4050266e-13
0.0049550232
1.1775445e-12
0.0049550232
1.2191426e-12
0.0049550232
2.2044885e-12
0.0049550232
2.3969538e-12
0.0049550232
3.2920184e-12
0.0049550232
3.0102164e-12
0.0049550232
3.5075915e-12
0.0049550232
3.2395284e-12
0.0049550232
3.6357794e-12
0.0049550232
2.9148287e-12
0.0049550232
2.6996861e-12
0.0049550232
1.29391e-12
0.0049550232
-1.0251335e-12
0.0049550232
-6.8472666e-12
0.0049550232
-1.5352408e-11
0.0049550232
-2.9078709e-11
0.0049550232
-6.2709446e-11
0.0049550232
-9.4136696e-11
0.0049550232
-1.891525e-10
-2.0334623e-10
0.0038410256
-6.1584217e-06
0.0038342962
-1.6688131e-05
0.0038236599
-1.6403976e-05
0.0038128923
-1.199101e-05
0.0038035676
-8.1180046e-06
0.0037958922
-5.6531583e-06
0.0037898048
-3.988764e-06
0.0037852282
-2.7016831e-06
0.0037819992
-1.7118368e-06
0.0037798642
-1.0112804e-06
0.0037785447
-5.5254431e-07
0.0037777907
-2.6988171e-07
0.0037774012
-1.0772978e-07
0.0037772263
-2.3273332e-08
0.0037771661
1.188066e-08
0.0037771591
2.1956761e-08
0.0037771716
2.062633e-08
0.0037771875
1.5527133e-08
0.0037772006
1.028481e-08
0.0037772098
6.224548e-09
0.0037772155
3.4928028e-09
0.0037772188
1.8357854e-09
0.0037772206
8.9888795e-10
0.0037772216
4.1125194e-10
0.003777222
1.6644312e-10
0.0037772223
5.8322037e-11
0.0037772224
9.0587024e-12
0.0037772224
-5.4688695e-12
0.0037772225
-1.3242894e-11
0.0037772225
-9.8157532e-12
0.0037772225
-1.1341892e-11
0.0037772225
-6.191786e-12
0.0037772225
-7.6589602e-12
0.0037772225
-3.2435994e-12
0.0037772225
-4.9488407e-12
0.0037772225
-1.1229029e-12
0.0037772225
-3.0611503e-12
0.0037772225
1.3983032e-13
0.0037772225
-1.8264349e-12
0.0037772225
1.3441479e-12
0.0037772225
-1.1187549e-12
0.0037772225
1.6405127e-12
0.0037772225
-9.6902167e-13
0.0037772225
1.6858709e-12
0.0037772225
-1.2425951e-12
0.0037772225
1.1528569e-12
0.0037772225
-1.7200627e-12
0.0037772225
7.5177312e-13
0.0037772225
-2.1331312e-12
0.0037772225
2.5362874e-13
0.0037772225
-2.2730511e-12
0.0037772225
4.1071884e-13
0.0037772225
-2.0919291e-12
0.0037772225
7.0082194e-13
0.0037772225
-1.6312506e-12
0.0037772225
1.4397075e-12
0.0037772225
-9.9357744e-13
0.0037772225
1.892057e-12
0.0037772225
-4.1421301e-13
0.0037772225
2.397287e-12
0.0037772225
-1.3698729e-13
0.0037772225
2.3326618e-12
0.0037772225
-2.6339063e-13
0.0037772225
2.1833809e-12
0.0037772225
-7.5500459e-13
0.0037772225
1.5431584e-12
0.0037772225
-1.4258636e-12
0.0037772225
9.9787373e-13
0.0037772225
-2.0305962e-12
0.0037772225
2.217539e-13
0.0037772225
-2.4710659e-12
0.0037772225
2.5459341e-14
0.0037772225
-2.6253124e-12
0.0037772225
-6.4809847e-14
0.0037772225
-2.4305394e-12
0.0037772225
4.1239336e-13
0.0037772225
-1.9729827e-12
0.0037772225
9.5074527e-13
0.0037772225
-1.3372672e-12
0.0037772225
1.7784264e-12
0.0037772225
-5.463573e-13
0.0037772225
2.3092586e-12
0.0037772225
6.248625e-14
0.0037772225
2.9176781e-12
0.0037772225
4.0616109e-13
0.0037772225
3.0208931e-12
0.0037772225
4.4217469e-13
0.0037772225
3.0600825e-12
0.0037772225
3.4088187e-13
0.0037772225
2.6752612e-12
0.0037772225
-2.8929529e-13
0.0037772225
1.3151819e-12
0.0037772225
-3.946478e-12
0.0037772225
-4.0786803e-12
0.0037772225
-1.1397817e-11
0.0037772225
-1.9734559e-11
0.0037772224
-4.2749951e-11
0.0037772224
-6.7764306e-11
0.0037772224
-1.5811492e-10
-1.6942234e-10
0.0017652078
0.0017485193
0.0017321154
0.001720125
0.0017120078
0.0017063554
0.0017023673
0.0016996662
0.0016979549
0.0016969441
0.0016963919
0.0016961224
0.0016960151
0.0016959921
0.0016960042
0.0016960264
0.0016960472
0.0016960629
0.0016960733
0.0016960796
0.0016960832
0.0016960851
0.001696086
0.0016960865
0.0016960867
0.0016960867
0.0016960868
0.0016960868
0.0016960868
0.0016960868
0.0016960867
0.0016960867
0.0016960867
0.0016960867
0.0016960867
0.0016960867
0.0016960867
0.0016960867
0.0016960867
0.0016960867
0.0016960867
0.0016960867
0.0016960867
0.0016960867
0.0016960867
0.0016960867
0.0016960867
0.0016960867
0.0016960867
0.0016960867
0.0016960867
0.0016960867
0.0016960867
0.0016960867
0.0016960867
0.0016960867
0.0016960867
0.0016960867
0.0016960867
0.0016960867
0.0016960867
0.0016960867
0.0016960867
0.0016960867
0.0016960867
0.0016960867
0.0016960867
0.0016960867
0.0016960867
0.0016960867
0.0016960867
0.0016960867
0.0016960867
0.0016960867
0.0016960867
0.0016960867
0.0016960867
0.0016960867
0.0016960867
0.0016960867
0.0016960867
0.0016960867
0.0016960867
0.0016960867
0.0016960867
0.0016960867
0.0016960867
0.0016960867
0.0016960867
0.0016960867
0.0016960867
0.0016960867
0.0016960867
0.0016960867
0.0016960867
0.0016960867
0.0016960866
0.0016960866
0.0016960864
)
;

boundaryField
{
    top
    {
        type            calculated;
        value           uniform 0;
    }
    inlet
    {
        type            calculated;
        value           nonuniform List<scalar> 10(-0.0017713684 -0.0038418295 -0.0049549972 -0.0055010325 -0.0057192927 -0.0057192925 -0.0055010288 -0.0049549924 -0.0038418244 -0.0017713663);
    }
    outlet
    {
        type            calculated;
        value           nonuniform List<scalar> 10(0.0016960862 0.0037772223 0.0049550233 0.0055568535 0.0058033472 0.0058033472 0.0055568535 0.0049550233 0.0037772223 0.0016960862);
    }
    bottom
    {
        type            calculated;
        value           uniform 0;
    }
    back
    {
        type            empty;
        value           nonuniform List<scalar> 0();
    }
    front
    {
        type            empty;
        value           nonuniform List<scalar> 0();
    }
}


// ************************************************************************* //
