/*--------------------------------*- C++ -*----------------------------------*\
| =========                 |                                                 |
| \\      /  F ield         | OpenFOAM: The Open Source CFD Toolbox           |
|  \\    /   O peration     | Version:  2112                                  |
|   \\  /    A nd           | Website:  www.openfoam.com                      |
|    \\/     M anipulation  |                                                 |
\*---------------------------------------------------------------------------*/
FoamFile
{
    version     2.0;
    format      ascii;
    arch        "LSB;label=32;scalar=64";
    class       volVectorField;
    location    "4";
    object      U;
}
// * * * * * * * * * * * * * * * * * * * * * * * * * * * * * * * * * * * * * //

dimensions      [0 1 -1 0 0 0 0];

internalField   nonuniform List<vector> 
1000
(
(0.17698601 0.00043932511 0)
(0.1760159 0.0010464862 0)
(0.17409268 0.00095110862 0)
(0.17255096 0.0006081228 0)
(0.17154914 0.00035220244 0)
(0.17088359 0.00021623051 0)
(0.17041253 0.00013847209 0)
(0.17008262 8.412141e-05 0)
(0.16986618 4.6148804e-05 0)
(0.16973453 2.2554016e-05 0)
(0.16966015 9.3467122e-06 0)
(0.16962177 2.4733028e-06 0)
(0.1696047 -7.2966576e-07 0)
(0.1695993 -1.8191118e-06 0)
(0.1695994 -1.8807732e-06 0)
(0.16960145 -1.5233612e-06 0)
(0.16960373 -1.07853e-06 0)
(0.1696056 -6.9075897e-07 0)
(0.1696069 -4.0849403e-07 0)
(0.16960772 -2.2513006e-07 0)
(0.16960819 -1.1577018e-07 0)
(0.16960845 -5.5004847e-08 0)
(0.16960858 -2.3628965e-08 0)
(0.16960864 -8.4476599e-09 0)
(0.16960867 -1.825767e-09 0)
(0.16960868 8.0401328e-10 0)
(0.16960868 1.471572e-09 0)
(0.16960868 1.5125148e-09 0)
(0.16960868 1.2471321e-09 0)
(0.16960868 1.0408217e-09 0)
(0.16960868 7.5801888e-10 0)
(0.16960868 6.1566031e-10 0)
(0.16960868 4.1482692e-10 0)
(0.16960868 3.4375992e-10 0)
(0.16960868 1.9112229e-10 0)
(0.16960868 1.6032578e-10 0)
(0.16960868 4.4578698e-11 0)
(0.16960868 5.3483139e-11 0)
(0.16960868 -3.6872323e-11 0)
(0.16960868 7.6987202e-12 0)
(0.16960868 -5.3419933e-11 0)
(0.16960868 1.3274341e-11 0)
(0.16960868 -3.5431303e-11 0)
(0.16960868 4.0873091e-11 0)
(0.16960868 4.1659942e-12 0)
(0.16960868 8.4407748e-11 0)
(0.16960868 4.5643036e-11 0)
(0.16960868 1.091747e-10 0)
(0.16960868 5.9061286e-11 0)
(0.16960868 1.080656e-10 0)
(0.16960868 3.6544668e-11 0)
(0.16960868 6.7783754e-11 0)
(0.16960867 -1.5215618e-11 0)
(0.16960867 2.1658606e-11 0)
(0.16960867 -6.5001764e-11 0)
(0.16960867 -3.6134666e-11 0)
(0.16960867 -1.0938909e-10 0)
(0.16960867 -6.6761921e-11 0)
(0.16960867 -1.2668004e-10 0)
(0.16960867 -7.0202335e-11 0)
(0.16960868 -1.0939944e-10 0)
(0.16960868 -3.2674425e-11 0)
(0.16960868 -6.3920972e-11 0)
(0.16960868 2.160652e-11 0)
(0.16960868 -1.1356941e-11 0)
(0.16960868 7.6574749e-11 0)
(0.16960868 4.6255085e-11 0)
(0.16960868 1.201815e-10 0)
(0.16960868 8.2932821e-11 0)
(0.16960868 1.4433277e-10 0)
(0.16960868 8.7939375e-11 0)
(0.16960868 1.2983741e-10 0)
(0.16960868 6.077673e-11 0)
(0.16960867 9.3356959e-11 0)
(0.16960867 8.9090487e-12 0)
(0.16960867 3.6152213e-11 0)
(0.16960867 -5.04895e-11 0)
(0.16960867 -1.889576e-11 0)
(0.16960867 -1.0377503e-10 0)
(0.16960867 -7.4903035e-11 0)
(0.16960867 -1.440098e-10 0)
(0.16960867 -1.0003102e-10 0)
(0.16960867 -1.5769535e-10 0)
(0.16960867 -1.0178811e-10 0)
(0.16960867 -1.4040193e-10 0)
(0.16960867 -6.5045435e-11 0)
(0.16960868 -9.3669736e-11 0)
(0.16960868 -7.0271029e-12 0)
(0.16960868 -2.6764554e-11 0)
(0.16960868 7.9213914e-11 0)
(0.16960868 8.4515061e-11 0)
(0.16960868 2.0940804e-10 0)
(0.16960868 2.7327786e-10 0)
(0.16960867 5.2305795e-10 0)
(0.16960867 8.727016e-10 0)
(0.16960867 1.5930348e-09 0)
(0.16960867 2.7731205e-09 0)
(0.16960866 4.5605552e-09 0)
(0.16960865 9.8309347e-09 0)
(0.16960863 1.0379488e-08 0)
(0.38386524 0.00067000197 0)
(0.38472374 0.0021899796 0)
(0.38325795 0.0024665204 0)
(0.3817743 0.0019785795 0)
(0.38073681 0.0014218185 0)
(0.37994014 0.0010203201 0)
(0.37926802 0.00073195053 0)
(0.37872936 0.0005035825 0)
(0.37833734 0.00032441244 0)
(0.37807372 0.00019474617 0)
(0.37790685 0.00010817397 0)
(0.37780783 5.40731e-05 0)
(0.37775401 2.2633793e-05 0)
(0.3777282 6.2002241e-06 0)
(0.37771803 -1.0961897e-06 0)
(0.37771561 -3.3972792e-06 0)
(0.37771637 -3.4347555e-06 0)
(0.37771801 -2.663902e-06 0)
(0.37771953 -1.7929354e-06 0)
(0.37772065 -1.0951355e-06 0)
(0.37772137 -6.1908426e-07 0)
(0.3777218 -3.2657808e-07 0)
(0.37772203 -1.6086604e-07 0)
(0.37772215 -7.3190727e-08 0)
(0.37772221 -2.9785198e-08 0)
(0.37772224 -9.6758594e-09 0)
(0.37772225 -1.2125513e-09 0)
(0.37772226 1.9055205e-09 0)
(0.37772226 2.709099e-09 0)
(0.37772226 2.6515001e-09 0)
(0.37772226 2.2445735e-09 0)
(0.37772226 1.8307563e-09 0)
(0.37772225 1.4091123e-09 0)
(0.37772225 1.0869188e-09 0)
(0.37772225 7.6396685e-10 0)
(0.37772225 5.3603754e-10 0)
(0.37772225 3.1177051e-10 0)
(0.37772225 1.7860757e-10 0)
(0.37772225 3.7548856e-11 0)
(0.37772225 -1.8090392e-11 0)
(0.37772225 -6.6889644e-11 0)
(0.37772225 -4.3819508e-11 0)
(0.37772225 -4.0592837e-11 0)
(0.37772225 1.4578674e-11 0)
(0.37772225 5.0868921e-11 0)
(0.37772225 1.3605562e-10 0)
(0.37772225 1.6310042e-10 0)
(0.37772225 2.1931426e-10 0)
(0.37772225 2.1675061e-10 0)
(0.37772225 2.3695665e-10 0)
(0.37772225 1.8237314e-10 0)
(0.37772225 1.5200857e-10 0)
(0.37772225 6.8299915e-11 0)
(0.37772225 1.9869959e-11 0)
(0.37772225 -7.4939637e-11 0)
(0.37772225 -1.2716312e-10 0)
(0.37772225 -2.0736738e-10 0)
(0.37772225 -2.2559043e-10 0)
(0.37772225 -2.7469058e-10 0)
(0.37772225 -2.5569233e-10 0)
(0.37772225 -2.5311289e-10 0)
(0.37772225 -1.8372373e-10 0)
(0.37772225 -1.4920437e-10 0)
(0.37772225 -5.9573835e-11 0)
(0.37772225 -1.5933494e-12 0)
(0.37772225 1.0043838e-10 0)
(0.37772225 1.4985889e-10 0)
(0.37772225 2.3296571e-10 0)
(0.37772225 2.6206179e-10 0)
(0.37772225 3.1782267e-10 0)
(0.37772225 3.0055982e-10 0)
(0.37772225 3.0739539e-10 0)
(0.37772225 2.5472664e-10 0)
(0.37772225 2.3040277e-10 0)
(0.37772225 1.3887062e-10 0)
(0.37772225 8.2245273e-11 0)
(0.37772225 -8.5803171e-12 0)
(0.37772225 -6.5200558e-11 0)
(0.37772225 -1.6887558e-10 0)
(0.37772225 -2.1962582e-10 0)
(0.37772225 -2.9537997e-10 0)
(0.37772225 -3.0925115e-10 0)
(0.37772225 -3.5631094e-10 0)
(0.37772225 -3.376448e-10 0)
(0.37772225 -3.373802e-10 0)
(0.37772225 -2.6956247e-10 0)
(0.37772225 -2.3288403e-10 0)
(0.37772225 -1.2931859e-10 0)
(0.37772225 -3.8147111e-11 0)
(0.37772225 1.0798352e-10 0)
(0.37772225 2.4639743e-10 0)
(0.37772225 4.6278328e-10 0)
(0.37772225 7.6730556e-10 0)
(0.37772225 1.2862932e-09 0)
(0.37772225 2.2189837e-09 0)
(0.37772225 3.6681106e-09 0)
(0.37772225 6.4253755e-09 0)
(0.37772225 9.2440899e-09 0)
(0.37772223 1.952251e-08 0)
(0.37772225 2.1553871e-08 0)
(0.4949576 0.00054651637 0)
(0.49737408 0.002144707 0)
(0.49691431 0.00274183 0)
(0.49642562 0.0025036364 0)
(0.4963753 0.0020358931 0)
(0.49637469 0.0016183844 0)
(0.49624913 0.0012627197 0)
(0.49606066 0.00094094316 0)
(0.49588832 0.00065913172 0)
(0.49575613 0.0004328808 0)
(0.49565991 0.00026584033 0)
(0.49559275 0.00015092347 0)
(0.49554932 7.7291174e-05 0)
(0.49552389 3.395475e-05 0)
(0.49551052 1.1081715e-05 0)
(0.49550426 6.9823955e-07 0)
(0.49550179 -2.9100445e-06 0)
(0.49550118 -3.4031391e-06 0)
(0.49550129 -2.7468835e-06 0)
(0.49550158 -1.8758041e-06 0)
(0.49550185 -1.1509549e-06 0)
(0.49550205 -6.5112946e-07 0)
(0.49550217 -3.4359707e-07 0)
(0.49550224 -1.6961843e-07 0)
(0.49550228 -7.7700897e-08 0)
(0.4955023 -3.2134256e-08 0)
(0.49550231 -1.0892144e-08 0)
(0.49550232 -1.7332021e-09 0)
(0.49550232 1.8013845e-09 0)
(0.49550232 2.8008878e-09 0)
(0.49550232 2.8348497e-09 0)
(0.49550232 2.4606728e-09 0)
(0.49550232 2.0367834e-09 0)
(0.49550232 1.5718791e-09 0)
(0.49550232 1.1890241e-09 0)
(0.49550232 8.182972e-10 0)
(0.49550232 5.5041059e-10 0)
(0.49550232 3.0009964e-10 0)
(0.49550232 1.4377638e-10 0)
(0.49550232 1.0613934e-11 0)
(0.49550232 -3.3036305e-11 0)
(0.49550232 -6.1093876e-11 0)
(0.49550232 -1.9606065e-11 0)
(0.49550232 1.4386077e-11 0)
(0.49550232 1.0334121e-10 0)
(0.49550232 1.5533175e-10 0)
(0.49550232 2.3413437e-10 0)
(0.49550232 2.5825158e-10 0)
(0.49550232 2.9959259e-10 0)
(0.49550232 2.743175e-10 0)
(0.49550232 2.5339353e-10 0)
(0.49550232 1.7398461e-10 0)
(0.49550232 1.0855585e-10 0)
(0.49550232 -3.1210497e-12 0)
(0.49550232 -8.0604283e-11 0)
(0.49550232 -1.8931841e-10 0)
(0.49550232 -2.422953e-10 0)
(0.49550232 -3.1542263e-10 0)
(0.49550232 -3.2731276e-10 0)
(0.49550232 -3.4788863e-10 0)
(0.49550232 -2.9955798e-10 0)
(0.49550232 -2.6322282e-10 0)
(0.49550232 -1.7371481e-10 0)
(0.49550232 -9.576058e-11 0)
(0.49550232 2.5483618e-11 0)
(0.49550232 1.0533788e-10 0)
(0.49550232 2.1471235e-10 0)
(0.49550232 2.7403369e-10 0)
(0.49550232 3.5780221e-10 0)
(0.49550232 3.7765377e-10 0)
(0.49550232 4.0744193e-10 0)
(0.49550232 3.7395924e-10 0)
(0.49550232 3.5717075e-10 0)
(0.49550232 2.7974164e-10 0)
(0.49550232 2.1459016e-10 0)
(0.49550232 1.0088456e-10 0)
(0.49550232 1.6331111e-11 0)
(0.49550232 -1.0288071e-10 0)
(0.49550232 -1.8286621e-10 0)
(0.49550232 -2.9068087e-10 0)
(0.49550232 -3.4053467e-10 0)
(0.49550232 -4.1183987e-10 0)
(0.49550232 -4.2384902e-10 0)
(0.49550232 -4.4817559e-10 0)
(0.49550232 -4.0385626e-10 0)
(0.49550232 -3.71205e-10 0)
(0.49550232 -2.7784821e-10 0)
(0.49550232 -1.8599878e-10 0)
(0.49550232 -2.1057926e-11 0)
(0.49550232 1.3150745e-10 0)
(0.49550232 3.7667192e-10 0)
(0.49550232 6.2744428e-10 0)
(0.49550232 1.1450321e-09 0)
(0.49550232 1.8359913e-09 0)
(0.49550232 3.0797211e-09 0)
(0.49550232 4.6355834e-09 0)
(0.49550232 7.7268605e-09 0)
(0.49550233 1.0276675e-08 0)
(0.4955023 1.8665142e-08 0)
(0.49550235 1.9948226e-08 0)
(0.54938431 0.00032451644 0)
(0.55255629 0.00141869 0)
(0.55253874 0.0019403675 0)
(0.55266949 0.0018857175 0)
(0.55343996 0.0016245067 0)
(0.55425244 0.0013599911 0)
(0.55480195 0.0011125981 0)
(0.55513684 0.00086817107 0)
(0.55535939 0.00063720546 0)
(0.55551228 0.00043908498 0)
(0.55560761 0.00028373399 0)
(0.55565878 0.00017066435 0)
(0.55568229 9.4107533e-05 0)
(0.5556911 4.6329961e-05 0)
(0.55569292 1.9232837e-05 0)
(0.55569188 5.5411548e-06 0)
(0.55569002 -2.7358632e-07 0)
(0.55568829 -2.0740907e-06 0)
(0.55568705 -2.1406068e-06 0)
(0.55568627 -1.632495e-06 0)
(0.5556858 -1.0706009e-06 0)
(0.55568555 -6.3489856e-07 0)
(0.55568542 -3.4765765e-07 0)
(0.55568536 -1.7733069e-07 0)
(0.55568533 -8.3872924e-08 0)
(0.55568532 -3.6165887e-08 0)
(0.55568532 -1.3141676e-08 0)
(0.55568532 -2.9582644e-09 0)
(0.55568532 1.2212309e-09 0)
(0.55568532 2.4732278e-09 0)
(0.55568532 2.7388438e-09 0)
(0.55568532 2.3825761e-09 0)
(0.55568532 2.0560711e-09 0)
(0.55568533 1.534913e-09 0)
(0.55568533 1.2239965e-09 0)
(0.55568533 7.8449768e-10 0)
(0.55568533 5.8263105e-10 0)
(0.55568533 2.6445986e-10 0)
(0.55568533 1.890385e-10 0)
(0.55568533 -2.1857171e-12 0)
(0.55568533 3.2340642e-11 0)
(0.55568533 -6.2594517e-11 0)
(0.55568533 5.105755e-11 0)
(0.55568533 1.7689777e-11 0)
(0.55568533 1.6740144e-10 0)
(0.55568533 1.3832008e-10 0)
(0.55568533 2.7779253e-10 0)
(0.55568533 2.1739841e-10 0)
(0.55568533 3.0944719e-10 0)
(0.55568533 1.9491558e-10 0)
(0.55568533 2.3803701e-10 0)
(0.55568533 7.8897074e-11 0)
(0.55568533 8.846296e-11 0)
(0.55568533 -8.2607542e-11 0)
(0.55568533 -8.1964343e-11 0)
(0.55568533 -2.4762393e-10 0)
(0.55568533 -2.2060238e-10 0)
(0.55568533 -3.4912884e-10 0)
(0.55568533 -2.6937821e-10 0)
(0.55568533 -3.4330342e-10 0)
(0.55568533 -2.1352632e-10 0)
(0.55568533 -2.4263355e-10 0)
(0.55568533 -7.1530909e-11 0)
(0.55568533 -7.4706499e-11 0)
(0.55568533 1.011106e-10 0)
(0.55568533 1.0306514e-10 0)
(0.55568533 2.7396547e-10 0)
(0.55568533 2.5166332e-10 0)
(0.55568533 3.8601847e-10 0)
(0.55568533 3.1781502e-10 0)
(0.55568533 4.0667064e-10 0)
(0.55568533 2.9081563e-10 0)
(0.55568533 3.3348742e-10 0)
(0.55568533 1.7587928e-10 0)
(0.55568533 1.8730404e-10 0)
(0.55568533 1.2332276e-11 0)
(0.55568533 4.7268164e-12 0)
(0.55568533 -1.7379478e-10 0)
(0.55568533 -1.6823598e-10 0)
(0.55568533 -3.297093e-10 0)
(0.55568533 -2.9836109e-10 0)
(0.55568533 -4.2555401e-10 0)
(0.55568533 -3.471705e-10 0)
(0.55568533 -4.2532114e-10 0)
(0.55568533 -2.9958084e-10 0)
(0.55568533 -3.3026696e-10 0)
(0.55568533 -1.5069384e-10 0)
(0.55568533 -1.3068467e-10 0)
(0.55568533 9.187952e-11 0)
(0.55568533 1.7717232e-10 0)
(0.55568533 4.8862129e-10 0)
(0.55568533 7.0090816e-10 0)
(0.55568533 1.3120418e-09 0)
(0.55568533 1.9575991e-09 0)
(0.55568533 3.1228048e-09 0)
(0.55568533 4.2269924e-09 0)
(0.55568533 6.490003e-09 0)
(0.55568534 7.9609312e-09 0)
(0.55568531 1.2822627e-08 0)
(0.55568537 1.3057964e-08 0)
(0.57112026 0.0001047471 0)
(0.57456128 0.0004829164 0)
(0.57462959 0.00068067219 0)
(0.57496344 0.00067914779 0)
(0.5761008 0.00059927773 0)
(0.5773333 0.00051318594 0)
(0.57826871 0.0004291816 0)
(0.578931 0.00034231016 0)
(0.57942201 0.00025685374 0)
(0.57978417 0.00018101881 0)
(0.580031 0.00011974091 0)
(0.58018331 7.3887259e-05 0)
(0.58026915 4.2004486e-05 0)
(0.58031328 2.1558235e-05 0)
(0.5803332 9.6053353e-06 0)
(0.58034021 3.3270137e-06 0)
(0.58034117 4.6357467e-07 0)
(0.58033988 -5.5679411e-07 0)
(0.5803382 -7.3863263e-07 0)
(0.58033682 -6.0842694e-07 0)
(0.58033589 -4.1350279e-07 0)
(0.58033532 -2.4918973e-07 0)
(0.58033499 -1.366166e-07 0)
(0.58033482 -6.8456585e-08 0)
(0.58033474 -3.0800474e-08 0)
(0.58033471 -1.1635778e-08 0)
(0.58033469 -2.6309824e-09 0)
(0.58033469 1.1141158e-09 0)
(0.58033469 2.3944561e-09 0)
(0.58033469 2.5785207e-09 0)
(0.58033469 2.3456067e-09 0)
(0.58033469 1.943844e-09 0)
(0.58033469 1.5517114e-09 0)
(0.58033469 1.1632566e-09 0)
(0.58033469 8.6014176e-10 0)
(0.58033469 5.5958874e-10 0)
(0.58033469 3.5575897e-10 0)
(0.58033469 1.7085584e-10 0)
(0.58033469 9.5573254e-11 0)
(0.58033469 6.9446505e-12 0)
(0.58033469 1.9348043e-11 0)
(0.58033469 9.6398836e-12 0)
(0.58033469 8.0693647e-11 0)
(0.58033469 9.6067327e-11 0)
(0.58033469 1.6393571e-10 0)
(0.58033469 1.8075385e-10 0)
(0.58033469 2.3251851e-10 0)
(0.58033469 2.076954e-10 0)
(0.58033469 2.0389105e-10 0)
(0.58033469 1.3768244e-10 0)
(0.58033469 1.0835339e-10 0)
(0.58033469 1.0358858e-11 0)
(0.58033469 -3.5812277e-11 0)
(0.58033469 -1.2820596e-10 0)
(0.58033469 -1.5954168e-10 0)
(0.58033469 -2.3173739e-10 0)
(0.58033469 -2.4350148e-10 0)
(0.58033469 -2.7086343e-10 0)
(0.58033469 -2.2502492e-10 0)
(0.58033469 -2.1190321e-10 0)
(0.58033469 -1.3692414e-10 0)
(0.58033469 -9.3229897e-11 0)
(0.58033469 1.0173488e-11 0)
(0.58033469 4.8981269e-11 0)
(0.58033469 1.3820054e-10 0)
(0.58033469 1.7959378e-10 0)
(0.58033469 2.5634547e-10 0)
(0.58033469 2.6452503e-10 0)
(0.58033469 2.9437547e-10 0)
(0.58033469 2.6655199e-10 0)
(0.58033469 2.6748608e-10 0)
(0.58033469 1.9682156e-10 0)
(0.58033469 1.5615122e-10 0)
(0.58033469 6.8321261e-11 0)
(0.5803347 3.0588611e-11 0)
(0.58033469 -6.5506122e-11 0)
(0.5803347 -1.0784622e-10 0)
(0.58033469 -1.9237414e-10 0)
(0.58033469 -2.1635734e-10 0)
(0.58033469 -2.7752958e-10 0)
(0.58033469 -2.8242171e-10 0)
(0.58033469 -3.0547567e-10 0)
(0.58033469 -2.6054563e-10 0)
(0.58033469 -2.4832455e-10 0)
(0.58033469 -1.7612447e-10 0)
(0.58033469 -1.2703508e-10 0)
(0.58033469 -1.2298791e-11 0)
(0.58033469 6.1443639e-11 0)
(0.58033469 1.9988847e-10 0)
(0.58033469 3.1419689e-10 0)
(0.58033469 5.1201369e-10 0)
(0.58033469 7.6505137e-10 0)
(0.58033469 1.1799438e-09 0)
(0.58033469 1.7030587e-09 0)
(0.58033469 2.3098901e-09 0)
(0.5803347 2.7739837e-09 0)
(0.5803347 3.5683273e-09 0)
(0.58033471 3.8261482e-09 0)
(0.58033468 5.1415875e-09 0)
(0.58033474 4.948324e-09 0)
(0.57112025 -0.00010475883 0)
(0.57456118 -0.00048295925 0)
(0.57462946 -0.00068069717 0)
(0.57496333 -0.00067913344 0)
(0.57610075 -0.00059924653 0)
(0.57733326 -0.00051318527 0)
(0.57826866 -0.000429229 0)
(0.57893095 -0.00034239352 0)
(0.57942197 -0.00025695321 0)
(0.57978412 -0.00018112339 0)
(0.58003096 -0.00011984242 0)
(0.58018326 -7.3976234e-05 0)
(0.58026909 -4.2072124e-05 0)
(0.58031322 -2.1599858e-05 0)
(0.58033314 -9.6195851e-06 0)
(0.58034016 -3.3197388e-06 0)
(0.58034112 -4.411413e-07 0)
(0.58033983 5.8772063e-07 0)
(0.58033816 7.7265206e-07 0)
(0.5803368 6.4249106e-07 0)
(0.58033586 4.4498125e-07 0)
(0.5803353 2.7727537e-07 0)
(0.58033498 1.604073e-07 0)
(0.58033481 8.8400435e-08 0)
(0.58033473 4.6847617e-08 0)
(0.5803347 2.4737583e-08 0)
(0.58033468 1.2901547e-08 0)
(0.58033468 7.2121886e-09 0)
(0.58033468 3.9960116e-09 0)
(0.58033468 2.6773836e-09 0)
(0.58033468 1.5481708e-09 0)
(0.58033469 1.2328987e-09 0)
(0.58033469 6.1642781e-10 0)
(0.58033469 6.1040574e-10 0)
(0.58033469 1.7006869e-10 0)
(0.58033469 2.7769636e-10 0)
(0.58033469 -7.6579676e-11 0)
(0.58033469 1.3216854e-10 0)
(0.58033469 -1.47609e-10 0)
(0.58033469 1.1180118e-10 0)
(0.58033469 -1.2444116e-10 0)
(0.58033469 1.8482374e-10 0)
(0.58033469 -2.6998077e-11 0)
(0.58033469 2.640282e-10 0)
(0.58033469 2.7966793e-11 0)
(0.58033469 3.0306609e-10 0)
(0.58033469 3.6800611e-11 0)
(0.58033469 2.5630328e-10 0)
(0.58033469 -4.836013e-11 0)
(0.58033469 1.6716689e-10 0)
(0.58033469 -1.4498718e-10 0)
(0.58033469 4.9076394e-11 0)
(0.58033469 -2.6986072e-10 0)
(0.58033469 -4.9001013e-11 0)
(0.58033469 -3.2837429e-10 0)
(0.58033469 -8.619839e-11 0)
(0.58033469 -3.3061256e-10 0)
(0.58033469 -3.0785264e-11 0)
(0.58033469 -2.4036519e-10 0)
(0.58033469 6.2158159e-11 0)
(0.58033469 -1.4478358e-10 0)
(0.58033469 1.8077409e-10 0)
(0.58033469 -1.8392314e-11 0)
(0.58033469 2.8519163e-10 0)
(0.58033469 6.5066068e-11 0)
(0.58033469 3.5117611e-10 0)
(0.58033469 1.0193484e-10 0)
(0.58033469 3.3457803e-10 0)
(0.58033469 4.4007241e-11 0)
(0.58033469 2.6932995e-10 0)
(0.58033469 -3.3040797e-11 0)
(0.58033469 1.6694002e-10 0)
(0.58033469 -1.4836581e-10 0)
(0.58033469 6.530771e-11 0)
(0.58033469 -2.3900241e-10 0)
(0.58033469 -3.8073727e-11 0)
(0.58033469 -3.3475351e-10 0)
(0.58033469 -9.0014808e-11 0)
(0.58033469 -3.4759138e-10 0)
(0.58033469 -8.815982e-11 0)
(0.58033469 -3.2014926e-10 0)
(0.58033469 -1.4017919e-11 0)
(0.58033469 -2.2276675e-10 0)
(0.58033469 7.7994196e-11 0)
(0.58033469 -1.2270183e-10 0)
(0.58033469 2.086514e-10 0)
(0.58033469 3.4788782e-11 0)
(0.58033469 3.6248435e-10 0)
(0.58033469 1.9354384e-10 0)
(0.58033469 5.3260404e-10 0)
(0.58033469 4.0867593e-10 0)
(0.58033469 8.2106276e-10 0)
(0.58033469 7.6546124e-10 0)
(0.58033469 1.2012502e-09 0)
(0.58033469 8.4321559e-10 0)
(0.5803347 8.0241309e-10 0)
(0.58033469 -1.297149e-10 0)
(0.58033471 -9.8354907e-10 0)
(0.58033468 -3.0424567e-09 0)
(0.58033474 -3.3374134e-09 0)
(0.54938395 -0.00032451975 0)
(0.55255597 -0.0014186893 0)
(0.55253855 -0.0019403573 0)
(0.55266934 -0.0018856998 0)
(0.55343981 -0.0016245004 0)
(0.55425227 -0.0013600109 0)
(0.55480179 -0.0011126473 0)
(0.5551367 -0.00086824179 0)
(0.55535925 -0.00063728809 0)
(0.55551212 -0.0004391713 0)
(0.55560744 -0.0002838165 0)
(0.55565861 -0.00017073554 0)
(0.55568211 -9.4162269e-05 0)
(0.55569093 -4.6363257e-05 0)
(0.55569276 -1.9248526e-05 0)
(0.55569173 -5.5384757e-06 0)
(0.55568988 2.8740818e-07 0)
(0.55568818 2.0950077e-06 0)
(0.55568696 2.1651863e-06 0)
(0.55568619 1.6575581e-06 0)
(0.55568574 1.0945003e-06 0)
(0.5556855 6.561843e-07 0)
(0.55568538 3.6612796e-07 0)
(0.55568533 1.9262223e-07 0)
(0.55568531 9.6544063e-08 0)
(0.55568531 4.6270612e-08 0)
(0.5556853 2.1392329e-08 0)
(0.55568531 9.4138144e-09 0)
(0.55568531 4.0283176e-09 0)
(0.55568531 1.4953171e-09 0)
(0.55568531 5.021682e-10 0)
(0.55568532 -4.1291299e-11 0)
(0.55568532 -1.5826336e-10 0)
(0.55568532 -2.9449534e-10 0)
(0.55568532 -2.4327351e-10 0)
(0.55568532 -3.0383912e-10 0)
(0.55568532 -1.8342182e-10 0)
(0.55568532 -1.9413986e-10 0)
(0.55568532 -6.2047879e-11 0)
(0.55568532 -9.0024225e-11 0)
(0.55568532 4.4452404e-11 0)
(0.55568532 2.5259506e-11 0)
(0.55568532 1.3327025e-10 0)
(0.55568532 6.8670622e-11 0)
(0.55568532 1.5447825e-10 0)
(0.55568532 7.3049682e-11 0)
(0.55568532 1.1515606e-10 0)
(0.55568532 -1.3226877e-11 0)
(0.55568532 1.9528031e-11 0)
(0.55568532 -9.6150557e-11 0)
(0.55568532 -7.0323454e-11 0)
(0.55568533 -1.9566958e-10 0)
(0.55568532 -1.3920793e-10 0)
(0.55568532 -2.147772e-10 0)
(0.55568532 -1.3125269e-10 0)
(0.55568532 -1.9156678e-10 0)
(0.55568532 -6.7718176e-11 0)
(0.55568532 -8.3251152e-11 0)
(0.55568532 4.169591e-11 0)
(0.55568532 7.3326182e-12 0)
(0.55568532 1.3877782e-10 0)
(0.55568532 1.1648969e-10 0)
(0.55568532 2.2240603e-10 0)
(0.55568532 1.5272512e-10 0)
(0.55568532 2.3602461e-10 0)
(0.55568532 1.5070995e-10 0)
(0.55568532 1.9203681e-10 0)
(0.55568532 6.2098361e-11 0)
(0.55568532 9.2464433e-11 0)
(0.55568532 -2.8027538e-11 0)
(0.55568532 -9.3920968e-12 0)
(0.55568533 -1.4514314e-10 0)
(0.55568532 -1.0779752e-10 0)
(0.55568533 -2.1206531e-10 0)
(0.55568532 -1.6853956e-10 0)
(0.55568533 -2.6790763e-10 0)
(0.55568532 -1.7893959e-10 0)
(0.55568533 -2.2527712e-10 0)
(0.55568532 -1.1761795e-10 0)
(0.55568532 -1.6311897e-10 0)
(0.55568532 -2.8780024e-11 0)
(0.55568532 -3.7148886e-11 0)
(0.55568532 9.3905717e-11 0)
(0.55568532 6.9265998e-11 0)
(0.55568532 2.134247e-10 0)
(0.55568532 2.1354582e-10 0)
(0.55568532 3.4502206e-10 0)
(0.55568532 3.1154999e-10 0)
(0.55568532 4.2863878e-10 0)
(0.55568532 4.0142592e-10 0)
(0.55568532 5.1362681e-10 0)
(0.55568532 4.6726228e-10 0)
(0.55568532 5.0229939e-10 0)
(0.55568533 2.0247153e-10 0)
(0.55568532 -4.2253159e-10 0)
(0.55568533 -1.3546372e-09 0)
(0.55568532 -3.6070165e-09 0)
(0.55568534 -5.6157124e-09 0)
(0.55568531 -1.102345e-08 0)
(0.55568536 -1.1657748e-08 0)
(0.49495712 -0.00054651374 0)
(0.49737364 -0.002144728 0)
(0.49691393 -0.0027418868 0)
(0.49642531 -0.0025036943 0)
(0.49637501 -0.0020359327 0)
(0.49637439 -0.0016184083 0)
(0.49624882 -0.0012627466 0)
(0.49606038 -0.00094098042 0)
(0.49588806 -0.00065917745 0)
(0.49575588 -0.00043292799 0)
(0.49565966 -0.00026588365 0)
(0.49559251 -0.00015096073 0)
(0.49554909 -7.7319162e-05 0)
(0.49552368 -3.3975113e-05 0)
(0.49551033 -1.1092298e-05 0)
(0.49550408 -7.0262144e-07 0)
(0.49550163 2.9133876e-06 0)
(0.49550104 3.4114636e-06 0)
(0.49550118 2.7586321e-06 0)
(0.49550149 1.8885365e-06 0)
(0.49550178 1.163795e-06 0)
(0.49550199 6.6267811e-07 0)
(0.49550213 3.5395265e-07 0)
(0.49550221 1.7814659e-07 0)
(0.49550225 8.5016581e-08 0)
(0.49550228 3.7852506e-08 0)
(0.49550229 1.574261e-08 0)
(0.4955023 5.3807202e-09 0)
(0.49550231 1.3512186e-09 0)
(0.49550231 -5.7282137e-10 0)
(0.49550231 -8.313867e-10 0)
(0.49550231 -1.1653678e-09 0)
(0.49550231 -7.9291579e-10 0)
(0.49550231 -9.298452e-10 0)
(0.49550232 -5.2074611e-10 0)
(0.49550232 -6.6036973e-10 0)
(0.49550232 -2.356624e-10 0)
(0.49550232 -3.9694452e-10 0)
(0.49550232 -1.2753585e-11 0)
(0.49550232 -2.0206303e-10 0)
(0.49550232 1.6433436e-10 0)
(0.49550232 -7.0351354e-11 0)
(0.49550232 2.2927506e-10 0)
(0.49550232 -4.8039144e-11 0)
(0.49550232 2.2910407e-10 0)
(0.49550232 -8.9794901e-11 0)
(0.49550232 1.3500396e-10 0)
(0.49550232 -1.9524217e-10 0)
(0.49550232 4.9100081e-11 0)
(0.49550232 -2.8213937e-10 0)
(0.49550232 -4.3599418e-11 0)
(0.49550232 -3.4183781e-10 0)
(0.49550232 -4.415944e-11 0)
(0.49550232 -3.0543945e-10 0)
(0.49550232 3.511529e-12 0)
(0.49550232 -2.2485406e-10 0)
(0.49550232 1.2634846e-10 0)
(0.49550232 -9.887125e-11 0)
(0.49550232 2.3088874e-10 0)
(0.49550232 3.8853239e-13 0)
(0.49550232 3.38945e-10 0)
(0.49550232 7.8977982e-11 0)
(0.49550232 3.5620541e-10 0)
(0.49550232 6.2527762e-11 0)
(0.49550232 3.2415115e-10 0)
(0.49550232 -4.1582558e-12 0)
(0.49550232 2.097387e-10 0)
(0.49550232 -1.3059073e-10 0)
(0.49550232 1.020103e-10 0)
(0.49550232 -2.4265053e-10 0)
(0.49550232 -2.4273467e-11 0)
(0.49550232 -3.5440416e-10 0)
(0.49550232 -9.282835e-11 0)
(0.49550232 -3.9394997e-10 0)
(0.49550232 -1.2219895e-10 0)
(0.49550232 -3.8027261e-10 0)
(0.49550232 -5.0570891e-11 0)
(0.49550232 -2.8351665e-10 0)
(0.49550232 4.6222557e-11 0)
(0.49550232 -1.6724771e-10 0)
(0.49550232 1.9170143e-10 0)
(0.49550232 -2.8497153e-11 0)
(0.49550232 3.1087547e-10 0)
(0.49550232 9.3713168e-11 0)
(0.49550232 4.452922e-10 0)
(0.49550231 2.1024159e-10 0)
(0.49550232 5.0655335e-10 0)
(0.49550232 2.4758815e-10 0)
(0.49550232 5.3187337e-10 0)
(0.49550232 2.5641129e-10 0)
(0.49550232 4.8395307e-10 0)
(0.49550232 1.3848673e-10 0)
(0.49550232 1.7367e-10 0)
(0.49550232 -5.9538737e-10 0)
(0.49550232 -1.2490257e-09 0)
(0.49550232 -2.7404448e-09 0)
(0.49550232 -5.8412782e-09 0)
(0.49550233 -8.737166e-09 0)
(0.4955023 -1.736019e-08 0)
(0.49550234 -1.889256e-08 0)
(0.38386473 -0.00066999378 0)
(0.38472324 -0.0021899908 0)
(0.38325749 -0.0024665625 0)
(0.38177391 -0.0019786302 0)
(0.38073644 -0.0014218411 0)
(0.37993977 -0.0010203061 0)
(0.37926768 -0.00073191961 0)
(0.37872908 -0.00050355873 0)
(0.37833711 -0.0003244028 0)
(0.37807352 -0.00019474492 0)
(0.37790668 -0.00010817434 0)
(0.37780767 -5.4073082e-05 0)
(0.37775386 -2.2631281e-05 0)
(0.37772806 -6.1980764e-06 0)
(0.3777179 1.0990405e-06 0)
(0.37771549 3.4010408e-06 0)
(0.37771627 3.4395513e-06 0)
(0.37771792 2.6701601e-06 0)
(0.37771945 1.7997312e-06 0)
(0.37772058 1.1020697e-06 0)
(0.37772131 6.2531849e-07 0)
(0.37772175 3.3216785e-07 0)
(0.37772199 1.6543374e-07 0)
(0.37772212 7.7125368e-08 0)
(0.37772219 3.2845155e-08 0)
(0.37772222 1.229727e-08 0)
(0.37772224 3.1354935e-09 0)
(0.37772224 -2.4217531e-10 0)
(0.37772225 -1.508417e-09 0)
(0.37772225 -1.5263407e-09 0)
(0.37772225 -1.5104073e-09 0)
(0.37772225 -1.1051942e-09 0)
(0.37772225 -1.0081418e-09 0)
(0.37772225 -6.6184769e-10 0)
(0.37772225 -6.3583153e-10 0)
(0.37772225 -3.2212707e-10 0)
(0.37772225 -3.4773693e-10 0)
(0.37772225 -9.6465452e-11 0)
(0.37772225 -1.7285215e-10 0)
(0.37772225 6.1665927e-11 0)
(0.37772225 -4.5375957e-11 0)
(0.37772225 1.2799105e-10 0)
(0.37772225 -2.2262955e-11 0)
(0.37772225 1.3636101e-10 0)
(0.37772225 -4.3345934e-11 0)
(0.37772225 6.846747e-11 0)
(0.37772225 -1.301946e-10 0)
(0.37772225 1.0759162e-12 0)
(0.37772225 -1.8653631e-10 0)
(0.37772225 -6.0734707e-11 0)
(0.37772225 -2.3024883e-10 0)
(0.37772225 -5.6954682e-11 0)
(0.37772225 -1.9651002e-10 0)
(0.37772225 -2.2085301e-11 0)
(0.37772225 -1.4270136e-10 0)
(0.37772225 7.0297443e-11 0)
(0.37772225 -3.8139298e-11 0)
(0.37772225 1.5310916e-10 0)
(0.37772225 3.2441838e-11 0)
(0.37772225 2.3170035e-10 0)
(0.37772225 8.970603e-11 0)
(0.37772225 2.3838005e-10 0)
(0.37772225 6.7504691e-11 0)
(0.37772225 2.1345399e-10 0)
(0.37772225 2.410606e-11 0)
(0.37772225 1.2805147e-10 0)
(0.37772225 -7.7998726e-11 0)
(0.37772225 4.0134759e-11 0)
(0.37772225 -1.627925e-10 0)
(0.37772225 -5.6994641e-11 0)
(0.37772225 -2.5110251e-10 0)
(0.37772225 -1.0323398e-10 0)
(0.37772225 -2.6845653e-10 0)
(0.37772225 -1.1703002e-10 0)
(0.37772225 -2.5793848e-10 0)
(0.37772225 -6.1813925e-11 0)
(0.37772225 -1.8165507e-10 0)
(0.37772225 7.8635117e-12 0)
(0.37772225 -1.0062196e-10 0)
(0.37772225 1.2382964e-10 0)
(0.37772225 1.9563727e-11 0)
(0.37772225 2.1593143e-10 0)
(0.37772225 1.0114084e-10 0)
(0.37772225 3.0696664e-10 0)
(0.37772225 1.7651498e-10 0)
(0.37772225 3.3476102e-10 0)
(0.37772225 1.8184889e-10 0)
(0.37772225 3.3973743e-10 0)
(0.37772225 1.7091328e-10 0)
(0.37772225 2.9475661e-10 0)
(0.37772225 8.0994246e-11 0)
(0.37772225 1.334197e-10 0)
(0.37772225 -3.1831503e-10 0)
(0.37772225 -6.4798946e-10 0)
(0.37772225 -1.4825111e-09 0)
(0.37772225 -2.688262e-09 0)
(0.37772225 -5.6871037e-09 0)
(0.37772225 -8.661679e-09 0)
(0.37772222 -1.8874213e-08 0)
(0.37772224 -2.0993339e-08 0)
(0.17698579 -0.00043931363 0)
(0.17601571 -0.0010464752 0)
(0.17409254 -0.00095110832 0)
(0.17255084 -0.00060812861 0)
(0.17154902 -0.00035219364 0)
(0.17088346 -0.00021620306 0)
(0.17041244 -0.00013843707 0)
(0.17008256 -8.4094191e-05 0)
(0.16986615 -4.6132373e-05 0)
(0.16973451 -2.2543757e-05 0)
(0.16966013 -9.3383557e-06 0)
(0.16962174 -2.4651172e-06 0)
(0.16960468 7.3724301e-07 0)
(0.16959927 1.827328e-06 0)
(0.16959937 1.8869444e-06 0)
(0.16960142 1.5295176e-06 0)
(0.1696037 1.083042e-06 0)
(0.16960557 6.9485495e-07 0)
(0.16960687 4.1182362e-07 0)
(0.1696077 2.281323e-07 0)
(0.16960817 1.1800622e-07 0)
(0.16960843 5.6967849e-08 0)
(0.16960857 2.4964586e-08 0)
(0.16960863 9.6880345e-09 0)
(0.16960866 2.589763e-09 0)
(0.16960867 -6.4719107e-12 0)
(0.16960868 -1.0750853e-09 0)
(0.16960868 -9.9862931e-10 0)
(0.16960868 -1.0161494e-09 0)
(0.16960868 -6.5403333e-10 0)
(0.16960867 -6.4927455e-10 0)
(0.16960867 -3.2870113e-10 0)
(0.16960867 -3.9936637e-10 0)
(0.16960867 -1.3997303e-10 0)
(0.16960867 -2.4422714e-10 0)
(0.16960867 -2.3890111e-12 0)
(0.16960867 -1.4945509e-10 0)
(0.16960867 6.5063505e-11 0)
(0.16960867 -9.5673208e-11 0)
(0.16960867 1.0296663e-10 0)
(0.16960867 -8.2189247e-11 0)
(0.16960867 9.9515942e-11 0)
(0.16960867 -8.2096706e-11 0)
(0.16960867 9.8913746e-11 0)
(0.16960867 -1.0087574e-10 0)
(0.16960867 7.0722855e-11 0)
(0.16960867 -1.1433651e-10 0)
(0.16960867 6.630246e-11 0)
(0.16960867 -1.2946719e-10 0)
(0.16960867 5.2743863e-11 0)
(0.16960867 -1.2506935e-10 0)
(0.16960867 7.0792254e-11 0)
(0.16960867 -1.1377889e-10 0)
(0.16960867 7.8163816e-11 0)
(0.16960867 -8.8416922e-11 0)
(0.16960867 1.10909e-10 0)
(0.16960867 -6.9546869e-11 0)
(0.16960867 1.1989373e-10 0)
(0.16960867 -5.3084113e-11 0)
(0.16960867 1.3999699e-10 0)
(0.16960867 -5.392602e-11 0)
(0.16960867 1.2487966e-10 0)
(0.16960867 -6.3011363e-11 0)
(0.16960867 1.1769684e-10 0)
(0.16960867 -8.5224265e-11 0)
(0.16960867 8.3712854e-11 0)
(0.16960867 -1.0583002e-10 0)
(0.16960867 7.0258775e-11 0)
(0.16960867 -1.3058233e-10 0)
(0.16960867 4.409902e-11 0)
(0.16960867 -1.4149321e-10 0)
(0.16960867 4.6878977e-11 0)
(0.16960867 -1.4435179e-10 0)
(0.16960867 4.3854384e-11 0)
(0.16960867 -1.2702888e-10 0)
(0.16960867 7.4468951e-11 0)
(0.16960867 -1.0591385e-10 0)
(0.16960867 8.8481479e-11 0)
(0.16960867 -7.5615352e-11 0)
(0.16960867 1.2366656e-10 0)
(0.16960867 -5.5791171e-11 0)
(0.16960867 1.379538e-10 0)
(0.16960867 -3.1673163e-11 0)
(0.16960867 1.6589547e-10 0)
(0.16960867 -2.2373958e-11 0)
(0.16960867 1.6030655e-10 0)
(0.16960867 -2.1725468e-11 0)
(0.16960867 1.6048991e-10 0)
(0.16960867 -3.8296907e-11 0)
(0.16960867 1.3216427e-10 0)
(0.16960867 -7.9280036e-11 0)
(0.16960867 4.4251252e-11 0)
(0.16960867 -2.962492e-10 0)
(0.16960867 -3.1488879e-10 0)