/*--------------------------------*- C++ -*----------------------------------*\
| =========                 |                                                 |
| \\      /  F ield         | OpenFOAM: The Open Source CFD Toolbox           |
|  \\    /   O peration     | Version:  v1812                                 |
|   \\  /    A nd           | Web:      www.OpenFOAM.com                      |
|    \\/     M anipulation  |                                                 |
\*---------------------------------------------------------------------------*/
FoamFile
{
    version     2.0;
    format      ascii;
    class       volVectorField;
    location    "20";
    object      U;
}
// * * * * * * * * * * * * * * * * * * * * * * * * * * * * * * * * * * * * * //

dimensions      [0 1 -1 0 0 0 0];


internalField   nonuniform List<vector> 
1000
(
(0.91890839 0.035821912 0)
(0.86271384 0.062195638 0)
(0.7870597 0.062510089 0)
(0.69536033 0.054550394 0)
(0.61089745 0.04453165 0)
(0.54411592 0.034015971 0)
(0.49343012 0.02418754 0)
(0.45479414 0.01614423 0)
(0.42544583 0.010265786 0)
(0.40347313 0.0063041453 0)
(0.38715767 0.0037976293 0)
(0.3749622 0.0023103382 0)
(0.36566193 0.001493015 0)
(0.35836272 0.0010851183 0)
(0.35244268 0.00090607198 0)
(0.34748201 0.00084105104 0)
(0.34320348 0.00082372347 0)
(0.33942726 0.00081930988 0)
(0.33603793 0.00081185196 0)
(0.33296114 0.00079580153 0)
(0.33014778 0.0007708122 0)
(0.32756384 0.00073871018 0)
(0.3251842 0.00070188973 0)
(0.32298902 0.00066256561 0)
(0.32096172 0.00062249903 0)
(0.31908785 0.0005829564 0)
(0.31735449 0.00054477061 0)
(0.31574996 0.00050843327 0)
(0.3142636 0.00047419133 0)
(0.31288575 0.00044212469 0)
(0.31160756 0.00041221008 0)
(0.31042101 0.00038436244 0)
(0.30931883 0.00035846568 0)
(0.30829438 0.00033439065 0)
(0.30734165 0.00031200638 0)
(0.30645515 0.00029118668 0)
(0.30562991 0.00027181286 0)
(0.30486136 0.00025377538 0)
(0.30414535 0.00023697351 0)
(0.30347807 0.00022131462 0)
(0.30285601 0.00020671487 0)
(0.30227596 0.00019309666 0)
(0.30173497 0.0001803899 0)
(0.30123029 0.00016852982 0)
(0.30075942 0.00015745719 0)
(0.30032002 0.00014711814 0)
(0.29990993 0.00013746221 0)
(0.29952715 0.00012844394 0)
(0.29916983 0.00012002039 0)
(0.29883624 0.00011215124 0)
(0.29852479 0.00010479999 0)
(0.29823397 9.7931067e-05 0)
(0.29796242 9.151234e-05 0)
(0.29770883 8.5513615e-05 0)
(0.29747201 7.9906422e-05 0)
(0.29725084 7.4665912e-05 0)
(0.29704429 6.9767526e-05 0)
(0.29685138 6.5190765e-05 0)
(0.2966712 6.0914704e-05 0)
(0.29650291 5.6919755e-05 0)
(0.29634572 5.3187676e-05 0)
(0.2961989 4.9700028e-05 0)
(0.29606176 4.6440406e-05 0)
(0.29593366 4.3392884e-05 0)
(0.29581401 4.0542944e-05 0)
(0.29570224 3.787846e-05 0)
(0.29559783 3.538762e-05 0)
(0.29550031 3.306033e-05 0)
(0.29540922 3.088798e-05 0)
(0.29532413 2.8859707e-05 0)
(0.29524465 2.6966806e-05 0)
(0.2951704 2.5198762e-05 0)
(0.29510104 2.3545434e-05 0)
(0.29503625 2.1998336e-05 0)
(0.29497572 2.0549897e-05 0)
(0.29491918 1.919414e-05 0)
(0.29486637 1.7927521e-05 0)
(0.29481705 1.6744392e-05 0)
(0.29477097 1.5643073e-05 0)
(0.29472793 1.4616431e-05 0)
(0.29468773 1.3660594e-05 0)
(0.29465017 1.2766828e-05 0)
(0.29461507 1.193071e-05 0)
(0.29458229 1.1144684e-05 0)
(0.29455167 1.0407798e-05 0)
(0.29452308 9.7132579e-06 0)
(0.29449636 9.0725547e-06 0)
(0.29447142 8.4703464e-06 0)
(0.2944481 7.9182962e-06 0)
(0.29442633 7.396937e-06 0)
(0.29440599 6.9261062e-06 0)
(0.294387 6.4726699e-06 0)
(0.2943692 6.0617953e-06 0)
(0.29435259 5.6503881e-06 0)
(0.29433714 5.289125e-06 0)
(0.29432249 4.9685694e-06 0)
(0.29430919 4.6878087e-06 0)
(0.29429569 4.5388731e-06 0)
(0.29428502 4.4056064e-06 0)
(0.29426874 5.0574886e-06 0)
(1.0016583 0.05381943 0)
(1.0359761 0.10128443 0)
(1.0597199 0.11073663 0)
(1.0628947 0.10592201 0)
(1.0515569 0.096228725 0)
(1.0340529 0.083934059 0)
(1.0142795 0.070327062 0)
(0.99360703 0.056981334 0)
(0.97292577 0.045107479 0)
(0.9531074 0.03523675 0)
(0.93479539 0.02740165 0)
(0.91829012 0.021387227 0)
(0.90362379 0.016884499 0)
(0.89068068 0.013569709 0)
(0.87928175 0.011147748 0)
(0.86923242 0.0093736578 0)
(0.86034424 0.0080569271 0)
(0.85244667 0.0070571265 0)
(0.84539242 0.0062752379 0)
(0.83905793 0.0056438286 0)
(0.83334127 0.0051180915 0)
(0.82815884 0.0046686728 0)
(0.82344213 0.0042764175 0)
(0.81913467 0.0039287383 0)
(0.81518962 0.0036172024 0)
(0.81156765 0.0033359687 0)
(0.80823544 0.0030808023 0)
(0.8051644 0.0028484673 0)
(0.80232979 0.0026363682 0)
(0.79971 0.002442338 0)
(0.79728598 0.0022645189 0)
(0.79504087 0.0021012905 0)
(0.79295963 0.0019512261 0)
(0.79102881 0.0018130636 0)
(0.78923628 0.0016856835 0)
(0.78757111 0.0015680917 0)
(0.78602339 0.0014594041 0)
(0.78458412 0.0013588338 0)
(0.78324512 0.0012656787 0)
(0.78199889 0.0011793105 0)
(0.78083861 0.0010991669 0)
(0.77975799 0.0010247419 0)
(0.77875128 0.0009555799 0)
(0.77781318 0.00089126945 0)
(0.77693882 0.00083143762 0)
(0.77612368 0.00077574631 0)
(0.77536363 0.00072388741 0)
(0.77465481 0.00067557996 0)
(0.77399368 0.00063056666 0)
(0.77337694 0.00058861063 0)
(0.77280154 0.00054949451 0)
(0.77226465 0.00051301717 0)
(0.77176364 0.00047899285 0)
(0.77129607 0.00044725043 0)
(0.77085967 0.00041763096 0)
(0.77045235 0.00038998907 0)
(0.77007212 0.00036418962 0)
(0.76971718 0.00034010916 0)
(0.76938581 0.00031763225 0)
(0.76907645 0.00029665086 0)
(0.76878761 0.00027706425 0)
(0.76851792 0.00025877759 0)
(0.7682661 0.00024170218 0)
(0.76803096 0.00022575565 0)
(0.76781139 0.00021086129 0)
(0.76760636 0.00019694919 0)
(0.76741489 0.00018395496 0)
(0.76723608 0.00017181925 0)
(0.7670691 0.00016048791 0)
(0.76691316 0.00014990812 0)
(0.76676752 0.00014003069 0)
(0.7666315 0.00013080688 0)
(0.76650447 0.00012219104 0)
(0.76638582 0.00011413981 0)
(0.76627501 0.00010661549 0)
(0.76617152 9.9582171e-05 0)
(0.76607486 9.301223e-05 0)
(0.76598458 8.6874674e-05 0)
(0.76590026 8.1148668e-05 0)
(0.76582151 7.5802655e-05 0)
(0.76574794 7.0817857e-05 0)
(0.76567924 6.6157772e-05 0)
(0.76561505 6.1808991e-05 0)
(0.76555512 5.7732694e-05 0)
(0.7654991 5.3930429e-05 0)
(0.76544684 5.0355153e-05 0)
(0.76539796 4.7037952e-05 0)
(0.76535239 4.3921181e-05 0)
(0.7653097 4.1053553e-05 0)
(0.76526997 3.8323257e-05 0)
(0.76523272 3.5844629e-05 0)
(0.76519804 3.3463994e-05 0)
(0.76516555 3.133215e-05 0)
(0.76513516 2.9189339e-05 0)
(0.76510713 2.7363992e-05 0)
(0.76507997 2.5517308e-05 0)
(0.76505663 2.4071325e-05 0)
(0.76503057 2.255471e-05 0)
(0.76501446 2.1596906e-05 0)
(0.76498346 2.0993391e-05 0)
(1.0014244 0.026824854 0)
(1.0291272 0.06279135 0)
(1.0654292 0.077736549 0)
(1.098962 0.080597196 0)
(1.1253149 0.078285167 0)
(1.145053 0.073153897 0)
(1.1594858 0.066111277 0)
(1.1694287 0.058162063 0)
(1.1755354 0.050296754 0)
(1.1785738 0.043150707 0)
(1.1793571 0.036972824 0)
(1.178595 0.031771631 0)
(1.1768304 0.027451838 0)
(1.1744518 0.023886766 0)
(1.1717287 0.020947618 0)
(1.1688444 0.018515779 0)
(1.1659195 0.016488084 0)
(1.1630317 0.014779502 0)
(1.1602295 0.013322985 0)
(1.1575415 0.012067132 0)
(1.1549828 0.010973 0)
(1.1525601 0.010011061 0)
(1.1502747 0.0091587462 0)
(1.1481246 0.0083986033 0)
(1.1461059 0.0077169491 0)
(1.1442134 0.0071028865 0)
(1.1424414 0.0065475902 0)
(1.1407838 0.0060437941 0)
(1.1392344 0.0055854253 0)
(1.1377869 0.0051673442 0)
(1.1364353 0.0047851569 0)
(1.1351738 0.0044350762 0)
(1.1339968 0.0041138168 0)
(1.1328987 0.0038185127 0)
(1.1318746 0.0035466524 0)
(1.1309195 0.003296026 0)
(1.1300289 0.0030646816 0)
(1.1291985 0.002850889 0)
(1.1284242 0.002653109 0)
(1.1277022 0.0024699676 0)
(1.1270291 0.0023002352 0)
(1.1264014 0.002142807 0)
(1.1258161 0.0019966884 0)
(1.1252702 0.0018609809 0)
(1.1247612 0.0017348711 0)
(1.1242865 0.0016176204 0)
(1.1238437 0.0015085567 0)
(1.1234307 0.0014070669 0)
(1.1230455 0.0013125902 0)
(1.1226861 0.0012246128 0)
(1.1223509 0.0011426631 0)
(1.1220381 0.0010663071 0)
(1.1217462 0.00099514521 0)
(1.1214739 0.00092880882 0)
(1.1212198 0.00086695816 0)
(1.1209827 0.00080927974 0)
(1.1207614 0.00075548436 0)
(1.1205548 0.00070530452 0)
(1.1203621 0.00065849191 0)
(1.1201821 0.00061481567 0)
(1.1200142 0.00057406136 0)
(1.1198574 0.00053602899 0)
(1.1197111 0.00050053272 0)
(1.1195745 0.00046739965 0)
(1.1194469 0.00043647 0)
(1.1193279 0.00040759536 0)
(1.1192167 0.00038063878 0)
(1.1191129 0.00035547289 0)
(1.119016 0.00033197933 0)
(1.1189255 0.00031004613 0)
(1.118841 0.00028956943 0)
(1.1187621 0.00027044902 0)
(1.1186885 0.00025259402 0)
(1.1186197 0.00023591672 0)
(1.1185554 0.0002203411 0)
(1.1184955 0.00020579144 0)
(1.1184394 0.00019220609 0)
(1.1183871 0.00017951729 0)
(1.1183382 0.00016767567 0)
(1.1182926 0.00015661394 0)
(1.11825 0.00014629423 0)
(1.1182103 0.0001366433 0)
(1.1181731 0.00012764289 0)
(1.1181384 0.00011921029 0)
(1.1181059 0.00011135908 0)
(1.1180757 0.00010398451 0)
(1.1180473 9.7152359e-05 0)
(1.1180211 9.0703805e-05 0)
(1.1179963 8.4786217e-05 0)
(1.1179734 7.9129204e-05 0)
(1.1179516 7.4027588e-05 0)
(1.1179318 6.9016908e-05 0)
(1.1179128 6.4662339e-05 0)
(1.1178955 6.0141538e-05 0)
(1.117879 5.6560675e-05 0)
(1.1178635 5.2424803e-05 0)
(1.11785 4.9744433e-05 0)
(1.1178349 4.5807499e-05 0)
(1.1178261 4.4318865e-05 0)
(1.1178083 4.0574663e-05 0)
(1.0007347 0.011814721 0)
(1.0178472 0.030860924 0)
(1.0462163 0.041434438 0)
(1.0799018 0.045193566 0)
(1.1132664 0.045502348 0)
(1.143782 0.044080305 0)
(1.1708941 0.04143998 0)
(1.1945687 0.037973676 0)
(1.2148582 0.034195728 0)
(1.2319652 0.030536886 0)
(1.2462683 0.027222043 0)
(1.2582339 0.024313918 0)
(1.2683135 0.021797886 0)
(1.2768875 0.019633657 0)
(1.2842554 0.017773824 0)
(1.2906479 0.01616965 0)
(1.296243 0.014775589 0)
(1.3011791 0.013552297 0)
(1.3055645 0.012467863 0)
(1.3094838 0.011497465 0)
(1.3130042 0.010622161 0)
(1.3161792 0.0098275118 0)
(1.3190526 0.0091024094 0)
(1.3216607 0.0084381752 0)
(1.3240343 0.0078279024 0)
(1.3261995 0.0072659731 0)
(1.3281786 0.0067477075 0)
(1.3299913 0.0062691158 0)
(1.3316544 0.0058267269 0)
(1.3331829 0.0054174729 0)
(1.3345896 0.0050386118 0)
(1.3358862 0.0046876729 0)
(1.3370827 0.0043624184 0)
(1.3381883 0.0040608133 0)
(1.3392108 0.003781003 0)
(1.3401576 0.0035212938 0)
(1.3410349 0.0032801373 0)
(1.3418486 0.0030561166 0)
(1.3426038 0.0028479334 0)
(1.3433051 0.0026543973 0)
(1.3439569 0.0024744159 0)
(1.3445629 0.002306986 0)
(1.3451267 0.0021511853 0)
(1.3456513 0.0020061659 0)
(1.3461398 0.0018711466 0)
(1.3465947 0.0017454082 0)
(1.3470185 0.0016282864 0)
(1.3474135 0.0015191683 0)
(1.3477816 0.0014174873 0)
(1.3481249 0.0013227192 0)
(1.3484449 0.0012343794 0)
(1.3487435 0.0011520192 0)
(1.349022 0.0010752226 0)
(1.3492818 0.0010036043 0)
(1.3495242 0.00093680701 0)
(1.3497505 0.00087449995 0)
(1.3499616 0.00081637574 0)
(1.3501587 0.00076214873 0)
(1.3503427 0.00071155299 0)
(1.3505145 0.00066434121 0)
(1.3506748 0.0006202835 0)
(1.3508245 0.00057916559 0)
(1.3509643 0.00054078858 0)
(1.3510948 0.00050496714 0)
(1.3512167 0.00047152965 0)
(1.3513305 0.0004403163 0)
(1.3514368 0.00041117898 0)
(1.3515361 0.0003839787 0)
(1.3516288 0.00035858652 0)
(1.3517153 0.00033488011 0)
(1.3517962 0.00031274669 0)
(1.3518717 0.00029207863 0)
(1.3519422 0.00027277931 0)
(1.3520081 0.00025475499 0)
(1.3520696 0.00023792541 0)
(1.3521271 0.00022220764 0)
(1.3521808 0.00020753539 0)
(1.3522309 0.00019383168 0)
(1.3522776 0.00018104298 0)
(1.3523215 0.00016909172 0)
(1.3523623 0.00015794147 0)
(1.3524005 0.00014751 0)
(1.352436 0.00013778743 0)
(1.3524695 0.00012867269 0)
(1.3525004 0.00012020218 0)
(1.3525296 0.00011224039 0)
(1.3525564 0.00010488298 0)
(1.3525823 9.7898357e-05 0)
(1.3526054 9.1531739e-05 0)
(1.3526281 8.540151e-05 0)
(1.3526479 7.9932486e-05 0)
(1.3526684 7.4425051e-05 0)
(1.352685 6.9803432e-05 0)
(1.3527036 6.4832711e-05 0)
(1.3527169 6.1120957e-05 0)
(1.3527349 5.6437294e-05 0)
(1.3527447 5.3740411e-05 0)
(1.3527628 4.9144259e-05 0)
(1.3527683 4.770335e-05 0)
(1.3527888 4.2956114e-05 0)
(1.0005903 0.0034629152 0)
(1.0136865 0.009366018 0)
(1.0370283 0.013046804 0)
(1.0674202 0.014563259 0)
(1.1000315 0.014854523 0)
(1.1316428 0.014564989 0)
(1.1610745 0.013888337 0)
(1.1880674 0.012919244 0)
(1.2125205 0.011806505 0)
(1.2343939 0.010696425 0)
(1.2538077 0.0096727405 0)
(1.2710339 0.0087628202 0)
(1.286401 0.0079659716 0)
(1.3002111 0.0072722127 0)
(1.3127102 0.006668807 0)
(1.3240903 0.006141924 0)
(1.3345036 0.0056780712 0)
(1.3440716 0.0052653201 0)
(1.3528927 0.0048939342 0)
(1.3610463 0.0045563949 0)
(1.3685975 0.0042470686 0)
(1.3756004 0.0039617743 0)
(1.3821012 0.003697396 0)
(1.3881402 0.0034515811 0)
(1.3937533 0.0032225174 0)
(1.3989728 0.0030087688 0)
(1.403828 0.0028091568 0)
(1.4083456 0.002622678 0)
(1.4125503 0.0024484487 0)
(1.4164646 0.0022856701 0)
(1.4201094 0.0021336068 0)
(1.423504 0.0019915752 0)
(1.426666 0.0018589349 0)
(1.4296121 0.0017350843 0)
(1.4323573 0.0016194572 0)
(1.4349159 0.0015115204 0)
(1.4373007 0.0014107723 0)
(1.4395241 0.0013167415 0)
(1.441597 0.0012289859 0)
(1.4435301 0.0011470905 0)
(1.4453328 0.0010706665 0)
(1.4470143 0.00099934977 0)
(1.4485827 0.00093279979 0)
(1.4500459 0.00087069848 0)
(1.451411 0.00081274881 0)
(1.4526846 0.00075867327 0)
(1.4538731 0.00070821245 0)
(1.4549822 0.00066112382 0)
(1.4560172 0.000617181 0)
(1.4569831 0.00057617261 0)
(1.4578847 0.00053790114 0)
(1.4587262 0.00050218304 0)
(1.4595117 0.00046884703 0)
(1.460245 0.00043773353 0)
(1.4609295 0.00040869395 0)
(1.4615685 0.00038159002 0)
(1.4621651 0.00035629234 0)
(1.4627221 0.00033267932 0)
(1.4632422 0.00031063769 0)
(1.4637278 0.00029006181 0)
(1.4641811 0.00027085304 0)
(1.4646045 0.00025292003 0)
(1.4649998 0.00023617765 0)
(1.4653689 0.00022054672 0)
(1.4657136 0.00020595354 0)
(1.4660355 0.00019232946 0)
(1.4663361 0.00017961059 0)
(1.4666168 0.00016773639 0)
(1.466879 0.00015665038 0)
(1.4671238 0.00014629878 0)
(1.4673524 0.00013663196 0)
(1.4675659 0.00012760326 0)
(1.4677654 0.0001191713 0)
(1.4679517 0.00011129604 0)
(1.4681255 0.00010394337 0)
(1.468288 9.7077416e-05 0)
(1.4684398 9.0669801e-05 0)
(1.4685815 8.4685654e-05 0)
(1.4687137 7.9101206e-05 0)
(1.4688375 7.3879207e-05 0)
(1.468953 6.9005756e-05 0)
(1.4690608 6.4444902e-05 0)
(1.4691613 6.019608e-05 0)
(1.4692557 5.620926e-05 0)
(1.4693434 5.2511762e-05 0)
(1.4694257 4.9036245e-05 0)
(1.4695018 4.582786e-05 0)
(1.4695742 4.2767887e-05 0)
(1.4696403 3.9998474e-05 0)
(1.4697037 3.7315013e-05 0)
(1.4697605 3.4926371e-05 0)
(1.4698173 3.2488348e-05 0)
(1.4698654 3.0494569e-05 0)
(1.4699166 2.8312344e-05 0)
(1.4699559 2.672564e-05 0)
(1.4700045 2.4633031e-05 0)
(1.4700341 2.3488486e-05 0)
(1.4700831 2.1424757e-05 0)
(1.4701 2.0812253e-05 0)
(1.4701556 1.8648435e-05 0)
(1.0005903 -0.0034629162 0)
(1.0136865 -0.0093660206 0)
(1.0370283 -0.013046807 0)
(1.0674202 -0.014563262 0)
(1.1000315 -0.014854525 0)
(1.1316428 -0.014564991 0)
(1.1610745 -0.013888338 0)
(1.1880674 -0.012919246 0)
(1.2125205 -0.011806507 0)
(1.2343939 -0.010696428 0)
(1.2538077 -0.0096727436 0)
(1.2710339 -0.0087628233 0)
(1.286401 -0.0079659746 0)
(1.3002111 -0.0072722154 0)
(1.3127102 -0.0066688092 0)
(1.3240903 -0.006141926 0)
(1.3345036 -0.005678073 0)
(1.3440716 -0.0052653218 0)
(1.3528927 -0.0048939357 0)
(1.3610463 -0.0045563964 0)
(1.3685975 -0.0042470705 0)
(1.3756004 -0.0039617768 0)
(1.3821012 -0.0036973987 0)
(1.3881402 -0.0034515835 0)
(1.3937533 -0.0032225194 0)
(1.3989728 -0.0030087707 0)
(1.403828 -0.0028091591 0)
(1.4083456 -0.0026226802 0)
(1.4125503 -0.0024484502 0)
(1.4164646 -0.0022856706 0)
(1.4201094 -0.0021336073 0)
(1.423504 -0.0019915764 0)
(1.426666 -0.001858937 0)
(1.4296121 -0.0017350871 0)
(1.4323573 -0.00161946 0)
(1.4349158 -0.0015115228 0)
(1.4373007 -0.0014107741 0)
(1.439524 -0.0013167429 0)
(1.441597 -0.0012289867 0)
(1.4435301 -0.0011470905 0)
(1.4453328 -0.001070666 0)
(1.4470143 -0.00099934958 0)
(1.4485827 -0.00093280074 0)
(1.4500459 -0.000870701 0)
(1.451411 -0.00081275253 0)
(1.4526846 -0.00075867719 0)
(1.4538731 -0.00070821542 0)
(1.4549821 -0.00066112508 0)
(1.4560172 -0.00061718021 0)
(1.4569831 -0.00057617022 0)
(1.4578847 -0.00053789873 0)
(1.4587262 -0.00050218197 0)
(1.4595117 -0.0004688481 0)
(1.460245 -0.00043773691 0)
(1.4609295 -0.00040869886 0)
(1.4615685 -0.00038159464 0)
(1.4621651 -0.00035629469 0)
(1.4627221 -0.00033267889 0)
(1.4632422 -0.00031063483 0)
(1.4637278 -0.00029005753 0)
(1.4641811 -0.00027084914 0)
(1.4646045 -0.00025291815 0)
(1.4649998 -0.00023617866 0)
(1.4653689 -0.0002205505 0)
(1.4657136 -0.00020595938 0)
(1.4660355 -0.0001923357 0)
(1.4663361 -0.00017961484 0)
(1.4666168 -0.00016773688 0)
(1.466879 -0.00015664657 0)
(1.4671238 -0.00014629183 0)
(1.4673524 -0.00013662468 0)
(1.4675659 -0.00012759841 0)
(1.4677654 -0.0001191708 0)
(1.4679517 -0.00011129994 0)
(1.4681255 -0.0001039501 0)
(1.468288 -9.7083938e-05 0)
(1.4684398 -9.0672402e-05 0)
(1.4685815 -8.4681879e-05 0)
(1.4687137 -7.9091933e-05 0)
(1.4688375 -7.3869697e-05 0)
(1.468953 -6.9000645e-05 0)
(1.4690608 -6.4444187e-05 0)
(1.4691613 -6.0199628e-05 0)
(1.4692557 -5.6218845e-05 0)
(1.4693434 -5.2519494e-05 0)
(1.4694257 -4.9033918e-05 0)
(1.4695018 -4.5821443e-05 0)
(1.4695742 -4.2764472e-05 0)
(1.4696403 -3.9985621e-05 0)
(1.4697037 -3.7294594e-05 0)
(1.4697605 -3.4930665e-05 0)
(1.4698173 -3.2520889e-05 0)
(1.4698655 -3.0513227e-05 0)
(1.4699166 -2.8296395e-05 0)
(1.4699559 -2.6706606e-05 0)
(1.4700045 -2.4632406e-05 0)
(1.4700341 -2.3492038e-05 0)
(1.4700831 -2.1424001e-05 0)
(1.4701 -2.082146e-05 0)
(1.4701556 -1.8664088e-05 0)
(1.0007347 -0.011814722 0)
(1.0178472 -0.030860927 0)
(1.0462163 -0.041434442 0)
(1.0799018 -0.04519357 0)
(1.1132664 -0.045502351 0)
(1.143782 -0.044080308 0)
(1.1708941 -0.041439982 0)
(1.1945687 -0.037973678 0)
(1.2148582 -0.03419573 0)
(1.2319652 -0.030536888 0)
(1.2462683 -0.027222046 0)
(1.2582339 -0.024313921 0)
(1.2683135 -0.021797889 0)
(1.2768875 -0.01963366 0)
(1.2842554 -0.017773826 0)
(1.2906479 -0.016169652 0)
(1.296243 -0.01477559 0)
(1.3011791 -0.013552298 0)
(1.3055645 -0.012467864 0)
(1.3094838 -0.011497466 0)
(1.3130042 -0.010622162 0)
(1.3161792 -0.0098275136 0)
(1.3190526 -0.0091024114 0)
(1.3216607 -0.0084381771 0)
(1.3240343 -0.0078279042 0)
(1.3261995 -0.007265975 0)
(1.3281786 -0.0067477095 0)
(1.3299913 -0.0062691174 0)
(1.3316544 -0.0058267277 0)
(1.3331829 -0.0054174733 0)
(1.3345896 -0.0050386123 0)
(1.3358862 -0.004687674 0)
(1.3370827 -0.0043624201 0)
(1.3381882 -0.0040608153 0)
(1.3392108 -0.003781005 0)
(1.3401576 -0.0035212957 0)
(1.3410349 -0.0032801391 0)
(1.3418486 -0.003056118 0)
(1.3426038 -0.0028479341 0)
(1.3433051 -0.0026543973 0)
(1.3439569 -0.0024744155 0)
(1.3445629 -0.0023069859 0)
(1.3451267 -0.0021511861 0)
(1.3456513 -0.0020061678 0)
(1.3461398 -0.0018711494 0)
(1.3465947 -0.001745411 0)
(1.3470185 -0.0016282887 0)
(1.3474135 -0.0015191693 0)
(1.3477816 -0.0014174869 0)
(1.3481249 -0.0013227181 0)
(1.3484449 -0.0012343785 0)
(1.3487435 -0.0011520191 0)
(1.349022 -0.0010752236 0)
(1.3492818 -0.0010036063 0)
(1.3495242 -0.00093680977 0)
(1.3497505 -0.00087450249 0)
(1.3499616 -0.00081637738 0)
(1.3501587 -0.00076214898 0)
(1.3503427 -0.00071155196 0)
(1.3505145 -0.00066433931 0)
(1.3506748 -0.0006202814 0)
(1.3508245 -0.00057916426 0)
(1.3509643 -0.00054078874 0)
(1.3510948 -0.00050496922 0)
(1.3512167 -0.00047153331 0)
(1.3513305 -0.00044032048 0)
(1.3514368 -0.00041118217 0)
(1.3515361 -0.00038397954 0)
(1.3516288 -0.00035858459 0)
(1.3517153 -0.00033487611 0)
(1.3517962 -0.00031274209 0)
(1.3518717 -0.00029207516 0)
(1.3519422 -0.00027277824 0)
(1.3520081 -0.00025475685 0)
(1.3520696 -0.00023792905 0)
(1.3521271 -0.00022221149 0)
(1.3521808 -0.00020753749 0)
(1.3522309 -0.00019383045 0)
(1.3522777 -0.00018103916 0)
(1.3523215 -0.00016908733 0)
(1.3523623 -0.00015793794 0)
(1.3524005 -0.00014750782 0)
(1.352436 -0.00013778794 0)
(1.3524695 -0.00012867631 0)
(1.3525004 -0.00012020655 0)
(1.3525296 -0.00011224143 0)
(1.3525565 -0.00010488157 0)
(1.3525823 -9.7895925e-05 0)
(1.3526054 -9.152784e-05 0)
(1.3526281 -8.5395304e-05 0)
(1.3526479 -7.9931028e-05 0)
(1.3526684 -7.4432075e-05 0)
(1.352685 -6.9805069e-05 0)
(1.3527037 -6.4827092e-05 0)
(1.352717 -6.1122762e-05 0)
(1.3527349 -5.6446013e-05 0)
(1.3527446 -5.3742924e-05 0)
(1.3527628 -4.9140634e-05 0)
(1.3527683 -4.770624e-05 0)
(1.3527888 -4.2961819e-05 0)
(1.0014244 -0.026824855 0)
(1.0291272 -0.062791352 0)
(1.0654292 -0.077736552 0)
(1.098962 -0.0805972 0)
(1.1253149 -0.07828517 0)
(1.145053 -0.073153899 0)
(1.1594858 -0.066111278 0)
(1.1694287 -0.058162063 0)
(1.1755354 -0.050296754 0)
(1.1785738 -0.043150708 0)
(1.1793571 -0.036972825 0)
(1.1785949 -0.031771633 0)
(1.1768304 -0.02745184 0)
(1.1744518 -0.023886768 0)
(1.1717287 -0.02094762 0)
(1.1688444 -0.01851578 0)
(1.1659195 -0.016488084 0)
(1.1630317 -0.014779502 0)
(1.1602295 -0.013322985 0)
(1.1575415 -0.012067133 0)
(1.1549828 -0.010973001 0)
(1.1525601 -0.010011062 0)
(1.1502747 -0.0091587472 0)
(1.1481246 -0.0083986045 0)
(1.1461059 -0.0077169506 0)
(1.1442134 -0.0071028882 0)
(1.1424414 -0.0065475917 0)
(1.1407838 -0.006043795 0)
(1.1392344 -0.0055854258 0)
(1.1377869 -0.0051673446 0)
(1.1364353 -0.0047851573 0)
(1.1351738 -0.0044350768 0)
(1.1339968 -0.0041138176 0)
(1.1328987 -0.0038185136 0)
(1.1318746 -0.0035466535 0)
(1.1309195 -0.0032960274 0)
(1.1300289 -0.0030646832 0)
(1.1291985 -0.0028508904 0)
(1.1284242 -0.0026531099 0)
(1.1277022 -0.0024699681 0)
(1.1270291 -0.0023002352 0)
(1.1264014 -0.0021428069 0)
(1.1258161 -0.0019966886 0)
(1.1252702 -0.0018609817 0)
(1.1247612 -0.0017348723 0)
(1.1242865 -0.001617622 0)
(1.1238437 -0.0015085583 0)
(1.1234307 -0.0014070681 0)
(1.1230455 -0.001312591 0)
(1.1226861 -0.0012246135 0)
(1.1223509 -0.0011426636 0)
(1.1220381 -0.0010663073 0)
(1.1217462 -0.00099514516 0)
(1.1214739 -0.00092880864 0)
(1.1212198 -0.00086695813 0)
(1.1209827 -0.0008092804 0)
(1.1207614 -0.00075548598 0)
(1.1205548 -0.00070530647 0)
(1.1203621 -0.00065849351 0)
(1.1201821 -0.00061481663 0)
(1.1200142 -0.00057406128 0)
(1.1198574 -0.0005360279 0)
(1.1197111 -0.0005005313 0)
(1.1195744 -0.00046739886 0)
(1.1194469 -0.00043647013 0)
(1.1193278 -0.00040759641 0)
(1.1192167 -0.00038064065 0)
(1.1191129 -0.00035547479 0)
(1.119016 -0.00033198063 0)
(1.1189255 -0.00031004659 0)
(1.118841 -0.00028956845 0)
(1.1187621 -0.00027044681 0)
(1.1186884 -0.00025259134 0)
(1.1186197 -0.00023591446 0)
(1.1185554 -0.00022033999 0)
(1.1184954 -0.00020579204 0)
(1.1184394 -0.00019220871 0)
(1.1183871 -0.00017952097 0)
(1.1183382 -0.00016767909 0)
(1.1182927 -0.00015661528 0)
(1.11825 -0.00014629227 0)
(1.1182103 -0.00013663895 0)
(1.118173 -0.00012763778 0)
(1.1181384 -0.00011920593 0)
(1.1181059 -0.00011135914 0)
(1.1180757 -0.00010398903 0)
(1.1180473 -9.7156442e-05 0)
(1.1180211 -9.0705415e-05 0)
(1.1179963 -8.4791509e-05 0)
(1.1179734 -7.9137607e-05 0)
(1.1179516 -7.402047e-05 0)
(1.1179318 -6.8990291e-05 0)
(1.1179128 -6.4646888e-05 0)
(1.1178955 -6.0157569e-05 0)
(1.117879 -5.6585167e-05 0)
(1.1178635 -5.2431396e-05 0)
(1.11785 -4.9736685e-05 0)
(1.1178349 -4.580086e-05 0)
(1.1178261 -4.431473e-05 0)
(1.1178083 -4.0570253e-05 0)
(1.0016583 -0.05381943 0)
(1.0359761 -0.10128444 0)
(1.0597199 -0.11073663 0)
(1.0628947 -0.10592202 0)
(1.0515569 -0.096228728 0)
(1.0340529 -0.083934061 0)
(1.0142795 -0.070327063 0)
(0.99360703 -0.056981334 0)
(0.97292577 -0.045107479 0)
(0.9531074 -0.03523675 0)
(0.93479538 -0.02740165 0)
(0.91829012 -0.021387228 0)
(0.90362379 -0.0168845 0)
(0.89068067 -0.01356971 0)
(0.87928174 -0.011147749 0)
(0.86923242 -0.0093736586 0)
(0.86034423 -0.0080569274 0)
(0.85244667 -0.0070571267 0)
(0.84539241 -0.006275238 0)
(0.83905793 -0.0056438286 0)
(0.83334126 -0.0051180914 0)
(0.82815884 -0.0046686728 0)
(0.82344212 -0.0042764176 0)
(0.81913467 -0.0039287387 0)
(0.81518961 -0.0036172032 0)
(0.81156765 -0.0033359698 0)
(0.80823544 -0.0030808033 0)
(0.8051644 -0.0028484682 0)
(0.80232979 -0.0026363689 0)
(0.79970999 -0.0024423385 0)
(0.79728597 -0.0022645191 0)
(0.79504086 -0.0021012904 0)
(0.79295963 -0.0019512259 0)
(0.7910288 -0.0018130634 0)
(0.78923627 -0.0016856836 0)
(0.7875711 -0.0015680924 0)
(0.78602338 -0.0014594054 0)
(0.78458411 -0.0013588354 0)
(0.78324511 -0.0012656801 0)
(0.78199889 -0.0011793116 0)
(0.7808386 -0.0010991673 0)
(0.77975799 -0.0010247416 0)
(0.77875127 -0.00095557923 0)
(0.77781317 -0.00089126871 0)
(0.77693881 -0.00083143734 0)
(0.77612367 -0.00077574669 0)
(0.77536362 -0.00072388852 0)
(0.77465481 -0.00067558161 0)
(0.77399367 -0.00063056855 0)
(0.77337693 -0.00058861264 0)
(0.77280153 -0.00054949589 0)
(0.77226464 -0.00051301741 0)
(0.77176363 -0.00047899195 0)
(0.77129606 -0.00044724838 0)
(0.77085966 -0.00041762895 0)
(0.77045234 -0.0003899881 0)
(0.77007211 -0.00036419079 0)
(0.76971717 -0.00034011192 0)
(0.76938581 -0.00031763568 0)
(0.76907644 -0.00029665404 0)
(0.7687876 -0.00027706593 0)
(0.76851791 -0.00025877705 0)
(0.76826609 -0.00024169977 0)
(0.76803095 -0.00022575206 0)
(0.76781138 -0.0002108579 0)
(0.76760635 -0.00019694723 0)
(0.76741488 -0.00018395548 0)
(0.76723608 -0.00017182255 0)
(0.7670691 -0.00016049278 0)
(0.76691316 -0.000149913 0)
(0.76676751 -0.00014003339 0)
(0.7666315 -0.00013080583 0)
(0.76650446 -0.00012218662 0)
(0.76638582 -0.00011413338 0)
(0.76627501 -0.00010660973 0)
(0.76617152 -9.957989e-05 0)
(0.76607486 -9.3014749e-05 0)
(0.76598458 -8.6881887e-05 0)
(0.76590026 -8.1157536e-05 0)
(0.76582151 -7.5809189e-05 0)
(0.76574794 -7.0818959e-05 0)
(0.76567924 -6.6152725e-05 0)
(0.76561504 -6.17998e-05 0)
(0.76555512 -5.7722301e-05 0)
(0.7654991 -5.3925548e-05 0)
(0.76544685 -5.0358161e-05 0)
(0.76539796 -4.7044016e-05 0)
(0.76535239 -4.3930014e-05 0)
(0.76530971 -4.1069205e-05 0)
(0.76526996 -3.833274e-05 0)
(0.7652327 -3.5828606e-05 0)
(0.76519805 -3.343312e-05 0)
(0.76516558 -3.1318469e-05 0)
(0.76513517 -2.9204241e-05 0)
(0.7651071 -2.7385913e-05 0)
(0.76507997 -2.5524287e-05 0)
(0.76505664 -2.406379e-05 0)
(0.76503057 -2.2545259e-05 0)
(0.76501445 -2.1587792e-05 0)
(0.76498346 -2.0984923e-05 0)
(0.91890839 -0.035821913 0)
(0.86271384 -0.062195638 0)
(0.7870597 -0.06251009 0)
(0.69536033 -0.054550395 0)
(0.61089745 -0.044531651 0)
(0.54411592 -0.034015972 0)
(0.49343012 -0.02418754 0)
(0.45479413 -0.01614423 0)
(0.42544582 -0.010265785 0)
(0.40347313 -0.006304145 0)
(0.38715766 -0.0037976294 0)
(0.3749622 -0.0023103384 0)
(0.36566192 -0.0014930154 0)
(0.35836272 -0.0010851186 0)
(0.35244268 -0.0009060723 0)
(0.34748201 -0.00084105135 0)
(0.34320348 -0.00082372362 0)
(0.33942726 -0.00081931007 0)
(0.33603793 -0.00081185199 0)
(0.33296114 -0.00079580153 0)
(0.33014778 -0.00077081194 0)
(0.32756384 -0.00073870993 0)
(0.3251842 -0.00070188955 0)
(0.32298902 -0.00066256563 0)
(0.32096172 -0.00062249931 0)
(0.31908785 -0.00058295704 0)
(0.31735449 -0.00054477116 0)
(0.31574995 -0.00050843392 0)
(0.3142636 -0.00047419168 0)
(0.31288574 -0.00044212494 0)
(0.31160755 -0.0004122099 0)
(0.31042101 -0.00038436204 0)
(0.30931883 -0.00035846518 0)
(0.30829438 -0.00033439021 0)
(0.30734165 -0.00031200633 0)
(0.30645515 -0.00029118713 0)
(0.30562991 -0.00027181379 0)
(0.30486136 -0.00025377647 0)
(0.30414535 -0.00023697438 0)
(0.30347807 -0.00022131525 0)
(0.302856 -0.00020671482 0)
(0.30227596 -0.0001930962 0)
(0.30173496 -0.00018038906 0)
(0.30123029 -0.00016852894 0)
(0.30075942 -0.00015745676 0)
(0.30032002 -0.00014711816 0)
(0.29990993 -0.00013746305 0)
(0.29952715 -0.00012844523 0)
(0.29916983 -0.00012002181 0)
(0.29883624 -0.0001121527 0)
(0.29852478 -0.00010480056 0)
(0.29823396 -9.7930768e-05 0)
(0.29796241 -9.1511104e-05 0)
(0.29770882 -8.5511679e-05 0)
(0.29747201 -7.990492e-05 0)
(0.29725084 -7.466524e-05 0)
(0.29704429 -6.976865e-05 0)
(0.29685138 -6.5192888e-05 0)
(0.2966712 -6.091724e-05 0)
(0.29650291 -5.6921992e-05 0)
(0.29634572 -5.3188467e-05 0)
(0.2961989 -4.9699262e-05 0)
(0.29606175 -4.6438123e-05 0)
(0.29593366 -4.3389766e-05 0)
(0.295814 -4.0540312e-05 0)
(0.29570224 -3.7877174e-05 0)
(0.29559784 -3.5388627e-05 0)
(0.29550032 -3.3063695e-05 0)
(0.29540922 -3.089205e-05 0)
(0.29532413 -2.886345e-05 0)
(0.29524464 -2.6968214e-05 0)
(0.29517039 -2.5196998e-05 0)
(0.29510103 -2.3541348e-05 0)
(0.29503624 -2.1993195e-05 0)
(0.29497572 -2.0546063e-05 0)
(0.29491919 -1.9193506e-05 0)
(0.29486638 -1.7930351e-05 0)
(0.29481705 -1.6750422e-05 0)
(0.29477097 -1.5649363e-05 0)
(0.29472793 -1.462042e-05 0)
(0.29468771 -1.3660382e-05 0)
(0.29465016 -1.2762068e-05 0)
(0.29461507 -1.1923773e-05 0)
(0.2945823 -1.1137516e-05 0)
(0.29455168 -1.0405465e-05 0)
(0.29452309 -9.7161703e-06 0)
(0.29449637 -9.0770635e-06 0)
(0.29447142 -8.4789875e-06 0)
(0.29444808 -7.9300698e-06 0)
(0.29442632 -7.3961088e-06 0)
(0.29440599 -6.909761e-06 0)
(0.294387 -6.4602682e-06 0)
(0.2943692 -6.0628407e-06 0)
(0.29435259 -5.6566089e-06 0)
(0.29433715 -5.2937186e-06 0)
(0.2943225 -4.9716123e-06 0)
(0.29430919 -4.6856586e-06 0)
(0.29429569 -4.5322822e-06 0)
(0.29428502 -4.4001393e-06 0)
(0.29426875 -5.0536127e-06 0)
)
;

boundaryField
{
    top
    {
        type            fixedValue;
        value           uniform (0 0 0);
    }
    inlet
    {
        type            fixedValue;
        value           uniform (1 0 0);
    }
    outlet
    {
        type            zeroGradient;
    }
    bottom
    {
        type            fixedValue;
        value           uniform (0 0 0);
    }
    back
    {
        type            empty;
    }
    front
    {
        type            empty;
    }
}


// ************************************************************************* //
