/*--------------------------------*- C++ -*----------------------------------*\
| =========                 |                                                 |
| \\      /  F ield         | OpenFOAM: The Open Source CFD Toolbox           |
|  \\    /   O peration     | Version:  v1812                                 |
|   \\  /    A nd           | Web:      www.OpenFOAM.com                      |
|    \\/     M anipulation  |                                                 |
\*---------------------------------------------------------------------------*/
FoamFile
{
    version     2.0;
    format      ascii;
    class       volScalarField;
    location    "15";
    object      p;
}
// * * * * * * * * * * * * * * * * * * * * * * * * * * * * * * * * * * * * * //

dimensions      [0 2 -2 0 0 0 0];


internalField   nonuniform List<scalar> 
1000
(
1.5146182
1.498121
1.4819429
1.465999
1.4502118
1.4345305
1.4189245
1.4033768
1.3878768
1.3724164
1.356989
1.3415892
1.3262127
1.3108566
1.2955186
1.2801969
1.2648902
1.249597
1.2343162
1.2190469
1.2037881
1.1885391
1.1732991
1.1580675
1.1428436
1.127627
1.1124171
1.0972134
1.0820155
1.0668231
1.0516357
1.0364531
1.0212748
1.0061006
0.99093032
0.97576357
0.96060015
0.94543986
0.93028247
0.9151278
0.89997566
0.88482589
0.86967833
0.85453282
0.83938924
0.82424745
0.80910733
0.79396877
0.77883166
0.7636959
0.7485614
0.73342808
0.71829584
0.70316462
0.68803435
0.67290495
0.65777637
0.64264854
0.62752142
0.61239495
0.59726908
0.58214378
0.56701899
0.55189469
0.53677083
0.52164738
0.50652431
0.4914016
0.47627921
0.46115711
0.4460353
0.43091373
0.4157924
0.40067129
0.38555037
0.37042963
0.35530906
0.34018865
0.32506837
0.30994821
0.29482818
0.27970825
0.26458842
0.24946867
0.234349
0.21922941
0.20410988
0.1889904
0.17387099
0.15875161
0.14363228
0.12851299
0.11339373
0.098274501
0.083155296
0.068036115
0.052916952
0.037797806
0.022678675
0.0075595535
1.5143379
1.4978074
1.4818321
1.4660611
1.4503329
1.4346399
1.4190079
1.4034433
1.3879352
1.3724696
1.3570366
1.3416308
1.3262488
1.3108882
1.2955467
1.2802223
1.2649131
1.2496179
1.2343353
1.2190644
1.2038042
1.1885539
1.1733128
1.1580801
1.1428553
1.1276378
1.1124271
1.0972227
1.0820242
1.0668311
1.0516432
1.03646
1.0212813
1.0061066
0.99093589
0.97576875
0.96060497
0.94544433
0.93028662
0.91513166
0.89997924
0.88482922
0.86968141
0.85453569
0.8393919
0.82424991
0.80910961
0.79397088
0.77883362
0.76369771
0.74856308
0.73342963
0.71829727
0.70316594
0.68803557
0.67290607
0.6577774
0.64264949
0.62752229
0.61239575
0.59726982
0.58214446
0.56701961
0.55189526
0.53677135
0.52164786
0.50652475
0.49140199
0.47627957
0.46115744
0.44603559
0.430914
0.41579265
0.40067151
0.38555057
0.37042981
0.35530923
0.34018879
0.3250685
0.30994833
0.29482828
0.27970834
0.2645885
0.24946874
0.23434906
0.21922946
0.20410992
0.18899045
0.17387102
0.15875164
0.14363231
0.12851301
0.11339375
0.098274517
0.08315531
0.068036126
0.052916962
0.037797814
0.022678683
0.0075595571
1.5138363
1.4971766
1.4814756
1.4660059
1.4504247
1.4347469
1.4190827
1.4034926
1.3879761
1.3725101
1.357076
1.3416663
1.3262793
1.3109142
1.2955693
1.2802424
1.2649313
1.2496343
1.2343501
1.2190778
1.2038164
1.1885651
1.1733231
1.1580896
1.142864
1.1276459
1.1124345
1.0972296
1.0820305
1.066837
1.0516486
1.0364651
1.0212859
1.006111
0.99093993
0.9757725
0.96060845
0.94544757
0.93028963
0.91513445
0.89998184
0.88483163
0.86968365
0.85453776
0.83939383
0.8242517
0.80911127
0.79397242
0.77883504
0.76369904
0.7485643
0.73343076
0.71829832
0.70316691
0.68803646
0.6729069
0.65777817
0.6426502
0.62752295
0.61239635
0.59727037
0.58214496
0.56702008
0.55189569
0.53677174
0.52164822
0.50652508
0.4914023
0.47627984
0.4611577
0.44603583
0.43091421
0.41579284
0.40067168
0.38555073
0.37042996
0.35530936
0.34018891
0.3250686
0.30994843
0.29482837
0.27970842
0.26458856
0.2494688
0.23434912
0.21922951
0.20410997
0.18899048
0.17387105
0.15875167
0.14363233
0.12851303
0.11339377
0.098274532
0.083155323
0.068036138
0.052916972
0.037797823
0.02267869
0.007559561
1.5133408
1.4965021
1.4810331
1.4658786
1.4504826
1.4348457
1.4191564
1.4035396
1.3880143
1.3725499
1.3571173
1.3417051
1.3263132
1.3109432
1.2955945
1.2802647
1.2649514
1.2496524
1.2343665
1.2190926
1.2038298
1.1885773
1.1733342
1.1580998
1.1428735
1.1276545
1.1124425
1.097237
1.0820374
1.0668434
1.0516545
1.0364705
1.021291
1.0061157
0.99094433
0.97577659
0.96061226
0.94545111
0.93029293
0.91513752
0.8999847
0.88483429
0.86968613
0.85454007
0.83939597
0.8242537
0.80911313
0.79397415
0.77883665
0.76370053
0.74856569
0.73343205
0.71829952
0.70316803
0.68803749
0.67290786
0.65777905
0.64265102
0.62752371
0.61239706
0.59727103
0.58214557
0.56702064
0.5518962
0.53677222
0.52164866
0.50652548
0.49140267
0.47628019
0.46115801
0.44603611
0.43091448
0.41579308
0.40067191
0.38555093
0.37043014
0.35530953
0.34018906
0.32506874
0.30994855
0.29482848
0.27970852
0.26458866
0.24946889
0.2343492
0.21922958
0.20411003
0.18899054
0.1738711
0.15875172
0.14363237
0.12851307
0.1133938
0.09827456
0.083155348
0.068036159
0.052916991
0.03779784
0.022678702
0.0075595703
1.513044
1.4960823
1.4807397
1.4657794
1.4505091
1.4349064
1.419204
1.40357
1.3880387
1.3725758
1.357145
1.341732
1.3263372
1.310964
1.2956127
1.2802811
1.2649662
1.2496658
1.2343787
1.2191037
1.20384
1.1885866
1.1733427
1.1581077
1.1428807
1.1276612
1.1124487
1.0972427
1.0820427
1.0668483
1.0516591
1.0364748
1.021295
1.0061194
0.99094776
0.97577979
0.96061524
0.94545389
0.93029552
0.91513993
0.89998695
0.88483638
0.86968808
0.85454189
0.83939767
0.82425528
0.8091146
0.79397552
0.77883793
0.76370172
0.7485668
0.73343308
0.71830048
0.70316892
0.68803832
0.67290863
0.65777977
0.64265168
0.62752432
0.61239763
0.59727155
0.58214606
0.56702109
0.55189662
0.53677261
0.52164902
0.50652581
0.49140297
0.47628047
0.46115827
0.44603635
0.4309147
0.41579329
0.40067209
0.3855511
0.3704303
0.35530967
0.34018919
0.32506886
0.30994866
0.29482858
0.27970861
0.26458874
0.24946896
0.23434926
0.21922964
0.20411008
0.18899059
0.17387115
0.15875176
0.14363241
0.1285131
0.11339383
0.098274585
0.08315537
0.068036179
0.052917008
0.037797855
0.022678714
0.0075595797
1.513044
1.4960823
1.4807397
1.4657794
1.4505091
1.4349064
1.419204
1.40357
1.3880387
1.3725758
1.357145
1.341732
1.3263372
1.310964
1.2956127
1.2802811
1.2649662
1.2496658
1.2343787
1.2191037
1.20384
1.1885866
1.1733427
1.1581077
1.1428807
1.1276612
1.1124487
1.0972427
1.0820427
1.0668483
1.0516591
1.0364748
1.021295
1.0061194
0.99094776
0.97577979
0.96061524
0.94545389
0.93029552
0.91513993
0.89998695
0.88483638
0.86968808
0.85454189
0.83939767
0.82425528
0.8091146
0.79397552
0.77883793
0.76370172
0.7485668
0.73343308
0.71830048
0.70316892
0.68803832
0.67290863
0.65777977
0.64265168
0.62752432
0.61239763
0.59727155
0.58214606
0.56702109
0.55189662
0.53677261
0.52164902
0.50652581
0.49140297
0.47628047
0.46115827
0.44603635
0.4309147
0.41579329
0.40067209
0.3855511
0.3704303
0.35530967
0.34018919
0.32506886
0.30994866
0.29482858
0.27970861
0.26458874
0.24946896
0.23434926
0.21922964
0.20411008
0.18899059
0.17387115
0.15875176
0.14363241
0.1285131
0.11339383
0.098274586
0.08315537
0.068036179
0.052917008
0.037797856
0.022678714
0.0075595801
1.5133409
1.4965021
1.4810331
1.4658786
1.4504826
1.4348457
1.4191564
1.4035396
1.3880143
1.3725499
1.3571173
1.3417051
1.3263132
1.3109432
1.2955945
1.2802648
1.2649514
1.2496524
1.2343665
1.2190926
1.2038298
1.1885773
1.1733342
1.1580998
1.1428735
1.1276545
1.1124426
1.097237
1.0820374
1.0668434
1.0516545
1.0364705
1.021291
1.0061157
0.99094433
0.97577659
0.96061226
0.94545111
0.93029293
0.91513752
0.8999847
0.88483429
0.86968613
0.85454007
0.83939597
0.8242537
0.80911313
0.79397415
0.77883665
0.76370053
0.74856569
0.73343205
0.71829952
0.70316802
0.68803749
0.67290786
0.65777905
0.64265102
0.62752371
0.61239706
0.59727103
0.58214557
0.56702064
0.5518962
0.53677222
0.52164866
0.50652548
0.49140267
0.47628019
0.46115801
0.44603611
0.43091448
0.41579308
0.40067191
0.38555093
0.37043014
0.35530953
0.34018906
0.32506874
0.30994855
0.29482848
0.27970852
0.26458866
0.24946889
0.2343492
0.21922958
0.20411003
0.18899054
0.1738711
0.15875172
0.14363237
0.12851307
0.1133938
0.098274561
0.083155348
0.06803616
0.052916991
0.037797841
0.022678703
0.0075595711
1.5138363
1.4971766
1.4814757
1.4660059
1.4504247
1.4347468
1.4190827
1.4034926
1.3879761
1.37251
1.357076
1.3416663
1.3262793
1.3109142
1.2955693
1.2802424
1.2649313
1.2496343
1.2343501
1.2190778
1.2038165
1.1885651
1.1733231
1.1580896
1.142864
1.1276459
1.1124345
1.0972296
1.0820305
1.066837
1.0516487
1.0364651
1.0212859
1.006111
0.99093993
0.9757725
0.96060845
0.94544757
0.93028963
0.91513445
0.89998184
0.88483163
0.86968365
0.85453776
0.83939382
0.8242517
0.80911127
0.79397242
0.77883504
0.76369903
0.7485643
0.73343076
0.71829832
0.70316691
0.68803646
0.6729069
0.65777817
0.6426502
0.62752294
0.61239635
0.59727037
0.58214496
0.56702008
0.55189569
0.53677174
0.52164822
0.50652508
0.4914023
0.47627984
0.46115769
0.44603583
0.43091421
0.41579284
0.40067168
0.38555073
0.37042996
0.35530936
0.34018891
0.3250686
0.30994843
0.29482837
0.27970842
0.26458856
0.2494688
0.23434912
0.21922951
0.20410997
0.18899048
0.17387105
0.15875167
0.14363233
0.12851303
0.11339377
0.098274534
0.083155324
0.068036138
0.052916973
0.037797824
0.022678691
0.0075595617
1.5143379
1.4978074
1.4818321
1.4660611
1.4503329
1.4346399
1.4190078
1.4034433
1.3879352
1.3724696
1.3570366
1.3416308
1.3262488
1.3108882
1.2955467
1.2802223
1.2649131
1.2496179
1.2343353
1.2190644
1.2038042
1.1885539
1.1733128
1.1580801
1.1428553
1.1276378
1.1124271
1.0972227
1.0820242
1.0668311
1.0516432
1.03646
1.0212813
1.0061066
0.99093589
0.97576875
0.96060497
0.94544433
0.93028662
0.91513166
0.89997924
0.88482921
0.86968141
0.85453568
0.8393919
0.82424991
0.80910961
0.79397088
0.77883362
0.76369771
0.74856308
0.73342962
0.71829727
0.70316594
0.68803556
0.67290607
0.6577774
0.64264949
0.62752229
0.61239575
0.59726982
0.58214446
0.56701961
0.55189526
0.53677135
0.52164786
0.50652475
0.49140199
0.47627957
0.46115744
0.44603559
0.430914
0.41579265
0.40067151
0.38555057
0.37042981
0.35530923
0.34018879
0.3250685
0.30994833
0.29482828
0.27970834
0.2645885
0.24946874
0.23434906
0.21922946
0.20410992
0.18899045
0.17387102
0.15875164
0.14363231
0.12851301
0.11339375
0.098274518
0.083155311
0.068036127
0.052916962
0.037797815
0.022678684
0.0075595575
1.5146181
1.498121
1.4819429
1.465999
1.4502118
1.4345304
1.4189245
1.4033768
1.3878767
1.3724164
1.356989
1.3415892
1.3262127
1.3108566
1.2955186
1.2801969
1.2648902
1.249597
1.2343162
1.2190469
1.2037881
1.1885391
1.1732991
1.1580675
1.1428436
1.127627
1.1124171
1.0972134
1.0820155
1.0668231
1.0516357
1.0364531
1.0212748
1.0061006
0.99093032
0.97576357
0.96060015
0.94543986
0.93028247
0.9151278
0.89997566
0.88482589
0.86967832
0.85453282
0.83938924
0.82424745
0.80910733
0.79396877
0.77883166
0.7636959
0.7485614
0.73342808
0.71829584
0.70316462
0.68803435
0.67290495
0.65777636
0.64264854
0.62752142
0.61239495
0.59726908
0.58214378
0.56701899
0.55189469
0.53677083
0.52164738
0.50652431
0.4914016
0.47627921
0.46115711
0.4460353
0.43091373
0.4157924
0.40067129
0.38555037
0.37042963
0.35530906
0.34018865
0.32506837
0.30994822
0.29482818
0.27970825
0.26458842
0.24946867
0.234349
0.21922941
0.20410988
0.18899041
0.17387099
0.15875161
0.14363228
0.12851299
0.11339373
0.098274502
0.083155297
0.068036115
0.052916953
0.037797807
0.022678676
0.0075595538
)
;

boundaryField
{
    top
    {
        type            zeroGradient;
    }
    inlet
    {
        type            fixedValue;
        value           uniform 1.523;
    }
    outlet
    {
        type            fixedValue;
        value           uniform 0;
    }
    bottom
    {
        type            zeroGradient;
    }
    back
    {
        type            empty;
    }
    front
    {
        type            empty;
    }
}


// ************************************************************************* //
