/*--------------------------------*- C++ -*----------------------------------*\
| =========                 |                                                 |
| \\      /  F ield         | OpenFOAM: The Open Source CFD Toolbox           |
|  \\    /   O peration     | Version:  v1812                                 |
|   \\  /    A nd           | Web:      www.OpenFOAM.com                      |
|    \\/     M anipulation  |                                                 |
\*---------------------------------------------------------------------------*/
FoamFile
{
    version     2.0;
    format      ascii;
    class       volScalarField;
    location    "5.8";
    object      p;
}
// * * * * * * * * * * * * * * * * * * * * * * * * * * * * * * * * * * * * * //

dimensions      [0 2 -2 0 0 0 0];


internalField   nonuniform List<scalar> 
1000
(
1.6762284
1.5551505
1.45917
1.3955139
1.3470044
1.3045323
1.2669971
1.2348254
1.207425
1.1835874
1.1621931
1.1424293
1.1237522
1.1058126
1.0883973
1.0713831
1.0547022
1.038318
1.0222098
1.0063639
0.99076895
0.97541385
0.96028716
0.94537693
0.93067094
0.91615698
0.90182304
0.8876576
0.87364963
0.85978876
0.84606524
0.83246998
0.81899451
0.80563096
0.79237202
0.77921093
0.76614141
0.75315768
0.74025438
0.72742658
0.71466971
0.70197958
0.68935233
0.67678437
0.6642724
0.65181332
0.63940423
0.62704239
0.61472518
0.60245008
0.59021462
0.57801638
0.56585299
0.55372206
0.54162124
0.52954819
0.51750061
0.5054762
0.49347275
0.48148809
0.46952014
0.45756694
0.44562662
0.43369747
0.42177789
0.40986645
0.39796186
0.38606296
0.37416877
0.36227842
0.35039116
0.33850638
0.32662355
0.31474227
0.30286216
0.29098297
0.27910448
0.2672265
0.25534891
0.2434716
0.2315945
0.21971755
0.20784071
0.19596394
0.18408724
0.17221057
0.16033393
0.1484573
0.13658068
0.12470406
0.11282744
0.10095083
0.08907423
0.077197646
0.065321066
0.053444486
0.0415679
0.029691319
0.017814739
0.0059382051
1.5590087
1.5040796
1.4431271
1.3915594
1.3482894
1.3093211
1.2737348
1.2419622
1.2140013
1.1892234
1.1668216
1.1461202
1.1266386
1.1080505
1.0901369
1.0727522
1.0558004
1.039219
1.0229663
1.0070128
0.99133576
0.97591623
0.96073739
0.94578373
0.93104069
0.91649449
0.90213211
0.88794129
0.87391052
0.86002904
0.84628683
0.83267456
0.81918356
0.80580578
0.79253378
0.77936066
0.76628003
0.75328598
0.74037308
0.72753629
0.71477099
0.70207291
0.68943814
0.67686306
0.66434431
0.65187878
0.63946355
0.62709588
0.61477314
0.60249281
0.59025244
0.57804961
0.56588195
0.55374709
0.54164269
0.5295664
0.51751591
0.50548893
0.49348322
0.48149661
0.46952699
0.45757237
0.44563088
0.43370076
0.4217804
0.40986833
0.39796324
0.38606396
0.37416948
0.3622789
0.35039148
0.33850659
0.32662368
0.31474234
0.3028622
0.29098299
0.27910448
0.26722649
0.2553489
0.24347159
0.23159449
0.21971754
0.2078407
0.19596394
0.18408723
0.17221056
0.16033393
0.1484573
0.13658068
0.12470406
0.11282744
0.10095083
0.089074226
0.07719764
0.065321059
0.053444479
0.041567888
0.029691299
0.017814696
0.0059381668
1.4981875
1.4720124
1.4336155
1.3924826
1.3533973
1.3168065
1.2825089
1.2507913
1.2219353
1.1958342
1.1720802
1.1501902
1.1297403
1.1103995
1.0919193
1.0741183
1.0568664
1.0400708
1.0236647
1.0075996
0.99183927
0.97635558
0.96112572
0.94613023
0.93135197
0.9167755
0.9023867
0.88817257
0.87412109
0.86022112
0.84646235
0.8328352
0.8193308
0.80594094
0.79265801
0.77947498
0.76638533
0.75338307
0.74046265
0.72761895
0.71484729
0.70214333
0.68950308
0.67692288
0.66439933
0.65192928
0.63950979
0.62713808
0.61481151
0.60252755
0.59028373
0.57807765
0.56590692
0.55376919
0.54166211
0.52958334
0.51753056
0.50550151
0.49349392
0.48150562
0.46953452
0.4575786
0.44563598
0.43370489
0.42178371
0.40987096
0.3979653
0.38606556
0.3741707
0.36227983
0.35039218
0.3385071
0.32662406
0.31474261
0.30286239
0.29098312
0.27910457
0.26722656
0.25534894
0.24347162
0.23159451
0.21971755
0.20784071
0.19596394
0.18408723
0.17221056
0.16033392
0.1484573
0.13658068
0.12470406
0.11282744
0.10095083
0.089074218
0.077197627
0.065321039
0.053444454
0.041567852
0.029691247
0.017814622
0.0059381102
1.4687789
1.4532808
1.4264109
1.392487
1.356686
1.3217347
1.2884328
1.2570797
1.2279491
1.2011576
1.17657
1.1538778
1.132726
1.1127973
1.093839
1.0756594
1.0581136
1.0410926
1.024514
1.008316
0.99245201
0.97688627
0.96159031
0.94654064
0.93171721
0.9171025
0.90268089
0.88843831
0.87436193
0.86044003
0.84666182
0.83301738
0.81949754
0.80609384
0.79279848
0.77960425
0.76650451
0.75349312
0.74056443
0.72771325
0.71493477
0.70222459
0.68957866
0.67699323
0.66446487
0.65199034
0.63956667
0.62719103
0.61486074
0.60257323
0.59032601
0.57811667
0.56594279
0.55380201
0.54169199
0.5296104
0.51755492
0.50552328
0.49351325
0.48152266
0.46954941
0.45759152
0.44564708
0.43371436
0.42179171
0.40987765
0.39797085
0.38607012
0.37417442
0.36228283
0.35039457
0.33850899
0.32662554
0.31474376
0.30286328
0.29098379
0.27910508
0.26722693
0.25534922
0.24347182
0.23159466
0.21971766
0.20784078
0.19596399
0.18408727
0.17221059
0.16033394
0.14845731
0.13658069
0.12470407
0.11282745
0.10095083
0.089074211
0.077197612
0.065321015
0.053444423
0.04156781
0.029691191
0.017814554
0.0059380618
1.4560474
1.444094
1.4218597
1.3915721
1.3577109
1.3237153
1.2910178
1.2600122
1.2309148
1.203903
1.1789759
1.1559263
1.1344448
1.1142272
1.0950236
1.0766414
1.0589325
1.041782
1.0251011
1.008822
0.99289304
0.97727449
0.96193498
0.94684883
0.93199438
0.91735292
0.90290797
0.88864484
0.87455023
0.86061206
0.84681929
0.83316174
0.8196301
0.80621575
0.79291075
0.77970781
0.76660018
0.75358164
0.74064647
0.7277894
0.71500558
0.70229054
0.68964018
0.67705071
0.66451863
0.65204068
0.63961382
0.6272352
0.61490209
0.6026119
0.59036212
0.57815028
0.56597398
0.55383085
0.54171853
0.52963468
0.51757701
0.50554325
0.49353117
0.48153862
0.46956352
0.45760388
0.44565783
0.43372361
0.42179961
0.40988433
0.39797645
0.38607477
0.37417823
0.36228593
0.35039707
0.33851098
0.32662711
0.31474499
0.30286423
0.29098452
0.27910563
0.26722735
0.25534953
0.24347205
0.23159482
0.21971778
0.20784086
0.19596405
0.18408731
0.17221062
0.16033396
0.14845733
0.1365807
0.12470408
0.11282745
0.10095082
0.089074204
0.077197601
0.065320997
0.053444402
0.041567782
0.029691157
0.017814516
0.0059380359
1.4560474
1.444094
1.4218597
1.3915721
1.3577109
1.3237153
1.2910178
1.2600122
1.2309148
1.203903
1.1789759
1.1559263
1.1344448
1.1142272
1.0950236
1.0766414
1.0589325
1.041782
1.0251011
1.008822
0.99289304
0.97727449
0.96193498
0.94684883
0.93199438
0.91735292
0.90290797
0.88864484
0.87455023
0.86061206
0.84681929
0.83316174
0.8196301
0.80621574
0.79291075
0.77970781
0.76660018
0.75358164
0.74064648
0.72778941
0.71500558
0.70229055
0.68964019
0.67705073
0.66451864
0.65204069
0.63961383
0.62723521
0.6149021
0.60261191
0.59036212
0.57815028
0.56597398
0.55383085
0.54171852
0.52963468
0.51757701
0.50554325
0.49353117
0.48153862
0.46956352
0.45760388
0.44565783
0.43372361
0.4217996
0.40988432
0.39797644
0.38607476
0.37417822
0.36228592
0.35039706
0.33851098
0.32662711
0.31474498
0.30286422
0.29098452
0.27910563
0.26722735
0.25534953
0.24347205
0.23159482
0.21971778
0.20784086
0.19596405
0.18408731
0.17221062
0.16033396
0.14845733
0.1365807
0.12470408
0.11282745
0.10095082
0.089074199
0.077197595
0.065320994
0.0534444
0.041567781
0.029691157
0.017814517
0.0059380364
1.4687789
1.4532808
1.4264109
1.392487
1.356686
1.3217347
1.2884328
1.2570797
1.2279491
1.2011576
1.17657
1.1538778
1.132726
1.1127972
1.093839
1.0756594
1.0581136
1.0410926
1.024514
1.008316
0.99245201
0.97688626
0.9615903
0.94654063
0.93171721
0.9171025
0.90268089
0.8884383
0.87436193
0.86044003
0.84666182
0.83301738
0.81949753
0.80609383
0.79279847
0.77960425
0.76650451
0.75349313
0.74056445
0.72771326
0.71493479
0.70222461
0.68957868
0.67699326
0.66446489
0.65199037
0.63956669
0.62719105
0.61486075
0.60257324
0.59032602
0.57811667
0.56594279
0.55380201
0.54169199
0.5296104
0.51755491
0.50552328
0.49351324
0.48152265
0.4695494
0.45759151
0.44564707
0.43371434
0.42179169
0.40987763
0.39797083
0.3860701
0.3741744
0.36228281
0.35039455
0.33850898
0.32662553
0.31474375
0.30286327
0.29098379
0.27910507
0.26722693
0.25534922
0.24347182
0.23159465
0.21971765
0.20784078
0.19596399
0.18408727
0.17221059
0.16033394
0.14845732
0.13658069
0.12470407
0.11282744
0.10095081
0.089074199
0.077197599
0.065321006
0.053444417
0.041567808
0.029691191
0.017814555
0.0059380631
1.4981875
1.4720124
1.4336155
1.3924826
1.3533973
1.3168065
1.2825089
1.2507913
1.2219352
1.1958342
1.1720802
1.1501902
1.1297403
1.1103995
1.0919193
1.0741183
1.0568664
1.0400708
1.0236647
1.0075996
0.99183926
0.97635558
0.96112571
0.94613023
0.93135197
0.9167755
0.9023867
0.88817257
0.87412109
0.86022112
0.84646235
0.8328352
0.8193308
0.80594094
0.79265801
0.77947498
0.76638534
0.75338308
0.74046266
0.72761898
0.71484732
0.70214336
0.68950312
0.67692292
0.66439937
0.65192931
0.63950982
0.6271381
0.61481152
0.60252756
0.59028373
0.57807765
0.56590692
0.55376918
0.5416621
0.52958333
0.51753056
0.5055015
0.49349391
0.48150561
0.46953451
0.45757859
0.44563596
0.43370487
0.42178369
0.40987093
0.39796527
0.38606553
0.37417068
0.36227981
0.35039216
0.33850708
0.32662404
0.31474259
0.30286238
0.29098311
0.27910456
0.26722655
0.25534894
0.24347161
0.2315945
0.21971755
0.2078407
0.19596394
0.18408723
0.17221057
0.16033393
0.14845731
0.13658069
0.12470406
0.11282743
0.10095081
0.089074201
0.077197611
0.065321026
0.053444447
0.041567851
0.029691249
0.017814624
0.0059381116
1.5590087
1.5040796
1.4431271
1.3915594
1.3482894
1.3093211
1.2737348
1.2419622
1.2140013
1.1892234
1.1668216
1.1461202
1.1266386
1.1080505
1.0901369
1.0727522
1.0558004
1.039219
1.0229663
1.0070128
0.99133576
0.97591623
0.96073739
0.94578373
0.93104069
0.91649449
0.90213211
0.88794129
0.87391052
0.86002904
0.84628683
0.83267455
0.81918355
0.80580578
0.79253378
0.77936066
0.76628004
0.753286
0.7403731
0.72753632
0.71477102
0.70207296
0.68943819
0.67686311
0.66434435
0.65187882
0.63946358
0.62709591
0.61477316
0.60249282
0.59025244
0.57804961
0.56588195
0.55374709
0.54164268
0.52956639
0.5175159
0.50548892
0.49348321
0.48149659
0.46952697
0.45757236
0.44563086
0.43370074
0.42178037
0.4098683
0.39796321
0.38606393
0.37416945
0.36227887
0.35039146
0.33850656
0.32662366
0.31474232
0.30286219
0.29098298
0.27910447
0.26722649
0.25534889
0.24347158
0.23159448
0.21971753
0.20784069
0.19596393
0.18408723
0.17221057
0.16033393
0.14845731
0.13658068
0.12470406
0.11282743
0.10095081
0.089074208
0.077197624
0.065321045
0.053444471
0.041567887
0.029691302
0.017814698
0.0059381676
1.6762284
1.5551505
1.45917
1.3955139
1.3470044
1.3045323
1.2669971
1.2348254
1.207425
1.1835874
1.1621931
1.1424293
1.1237522
1.1058126
1.0883973
1.0713831
1.0547022
1.038318
1.0222098
1.0063639
0.99076894
0.97541385
0.96028716
0.94537693
0.93067095
0.91615698
0.90182305
0.8876576
0.87364963
0.85978876
0.84606524
0.83246997
0.8189945
0.80563095
0.79237202
0.77921093
0.76614142
0.7531577
0.74025441
0.72742661
0.71466974
0.70197962
0.68935237
0.67678441
0.66427244
0.65181335
0.63940425
0.62704241
0.61472519
0.60245008
0.59021462
0.57801638
0.56585298
0.55372204
0.54162122
0.52954818
0.51750059
0.50547619
0.49347273
0.48148807
0.46952012
0.45756692
0.4456266
0.43369745
0.42177787
0.40986642
0.39796183
0.38606293
0.37416874
0.36227839
0.35039113
0.33850635
0.32662353
0.31474225
0.30286215
0.29098296
0.27910447
0.26722649
0.2553489
0.24347159
0.23159449
0.21971754
0.2078407
0.19596394
0.18408724
0.17221058
0.16033394
0.14845731
0.13658068
0.12470405
0.11282743
0.10095081
0.089074217
0.077197632
0.065321054
0.053444477
0.041567898
0.02969132
0.01781474
0.0059382055
)
;

boundaryField
{
    top
    {
        type            zeroGradient;
    }
    inlet
    {
        type            zeroGradient;
    }
    outlet
    {
        type            fixedValue;
        value           uniform 0;
    }
    bottom
    {
        type            zeroGradient;
    }
    back
    {
        type            empty;
    }
    front
    {
        type            empty;
    }
}


// ************************************************************************* //
