/*--------------------------------*- C++ -*----------------------------------*\
| =========                 |                                                 |
| \\      /  F ield         | OpenFOAM: The Open Source CFD Toolbox           |
|  \\    /   O peration     | Version:  v1812                                 |
|   \\  /    A nd           | Web:      www.OpenFOAM.com                      |
|    \\/     M anipulation  |                                                 |
\*---------------------------------------------------------------------------*/
FoamFile
{
    version     2.0;
    format      ascii;
    class       volScalarField;
    location    "3";
    object      p;
}
// * * * * * * * * * * * * * * * * * * * * * * * * * * * * * * * * * * * * * //

dimensions      [0 2 -2 0 0 0 0];


internalField   nonuniform List<scalar> 
1000
(
1.514174
1.497425
1.481514
1.4659796
1.4506005
1.435312
1.4200832
1.4048869
1.3897031
1.3745221
1.35934
1.3441562
1.3289708
1.3137842
1.2985968
1.283409
1.268221
1.2530328
1.2378446
1.2226563
1.2074681
1.1922798
1.1770915
1.1619032
1.146715
1.1315267
1.1163384
1.1011501
1.0859618
1.0707736
1.0555853
1.040397
1.0252087
1.0100205
0.99483217
0.9796439
0.96445562
0.94926734
0.93407906
0.91889079
0.90370251
0.88851423
0.87332595
0.85813767
0.8429494
0.82776112
0.81257284
0.79738456
0.78219628
0.76700801
0.75181973
0.73663145
0.72144317
0.7062549
0.69106662
0.67587834
0.66069006
0.64550179
0.63031351
0.61512523
0.59993695
0.58474868
0.5695604
0.55437212
0.53918384
0.52399556
0.50880729
0.49361901
0.47843073
0.46324245
0.44805417
0.4328659
0.41767762
0.40248934
0.38730106
0.37211279
0.35692451
0.34173623
0.32654795
0.31135968
0.2961714
0.28098312
0.26579484
0.25060657
0.23541829
0.22023001
0.20504173
0.18985346
0.17466518
0.1594769
0.14428862
0.12910034
0.11391207
0.098723787
0.083535509
0.068347232
0.053158955
0.037970679
0.022782407
0.0075941363
1.5137645
1.49704
1.481457
1.4660805
1.4506989
1.4353731
1.4201202
1.4049102
1.389717
1.3745294
1.3593436
1.3441579
1.3289715
1.3137845
1.2985969
1.2834091
1.268221
1.2530328
1.2378446
1.2226563
1.2074681
1.1922798
1.1770915
1.1619032
1.146715
1.1315267
1.1163384
1.1011501
1.0859618
1.0707736
1.0555853
1.040397
1.0252087
1.0100205
0.99483217
0.9796439
0.96445562
0.94926734
0.93407906
0.91889079
0.90370251
0.88851423
0.87332595
0.85813767
0.8429494
0.82776112
0.81257284
0.79738456
0.78219628
0.76700801
0.75181973
0.73663145
0.72144317
0.7062549
0.69106662
0.67587834
0.66069006
0.64550179
0.63031351
0.61512523
0.59993695
0.58474868
0.5695604
0.55437212
0.53918384
0.52399556
0.50880729
0.49361901
0.47843073
0.46324245
0.44805417
0.4328659
0.41767762
0.40248934
0.38730106
0.37211279
0.35692451
0.34173623
0.32654795
0.31135968
0.2961714
0.28098312
0.26579484
0.25060657
0.23541829
0.22023001
0.20504173
0.18985346
0.17466518
0.1594769
0.14428862
0.12910034
0.11391207
0.098723787
0.083535509
0.068347231
0.053158953
0.037970677
0.022782401
0.0075941323
1.5131943
1.4964289
1.4812452
1.4661052
1.4507599
1.4354135
1.4201478
1.404932
1.3897327
1.374539
1.359349
1.3441609
1.3289732
1.3137854
1.2985974
1.2834093
1.2682211
1.2530329
1.2378446
1.2226563
1.2074681
1.1922798
1.1770915
1.1619032
1.146715
1.1315267
1.1163384
1.1011501
1.0859618
1.0707736
1.0555853
1.040397
1.0252087
1.0100205
0.99483217
0.9796439
0.96445562
0.94926734
0.93407906
0.91889079
0.90370251
0.88851423
0.87332595
0.85813767
0.8429494
0.82776112
0.81257284
0.79738456
0.78219628
0.76700801
0.75181973
0.73663145
0.72144317
0.7062549
0.69106662
0.67587834
0.66069006
0.64550179
0.63031351
0.61512523
0.59993695
0.58474868
0.5695604
0.55437212
0.53918384
0.52399556
0.50880729
0.49361901
0.47843073
0.46324245
0.44805417
0.4328659
0.41767762
0.40248934
0.38730106
0.37211279
0.35692451
0.34173623
0.32654795
0.31135968
0.2961714
0.28098312
0.26579484
0.25060657
0.23541829
0.22023001
0.20504173
0.18985346
0.17466518
0.1594769
0.14428862
0.12910034
0.11391206
0.098723787
0.083535508
0.06834723
0.053158952
0.037970675
0.022782398
0.0075941297
1.5127543
1.4959234
1.4810384
1.4661044
1.4508055
1.4354491
1.4201751
1.4049551
1.3897501
1.3745503
1.3593556
1.3441646
1.3289753
1.3137864
1.2985979
1.2834096
1.2682212
1.2530329
1.2378446
1.2226564
1.2074681
1.1922798
1.1770915
1.1619032
1.146715
1.1315267
1.1163384
1.1011501
1.0859618
1.0707736
1.0555853
1.040397
1.0252087
1.0100205
0.99483217
0.9796439
0.96445562
0.94926734
0.93407906
0.91889079
0.90370251
0.88851423
0.87332595
0.85813767
0.8429494
0.82776112
0.81257284
0.79738456
0.78219628
0.76700801
0.75181973
0.73663145
0.72144317
0.7062549
0.69106662
0.67587834
0.66069006
0.64550179
0.63031351
0.61512523
0.59993695
0.58474868
0.5695604
0.55437212
0.53918384
0.52399556
0.50880729
0.49361901
0.47843073
0.46324245
0.44805417
0.4328659
0.41767762
0.40248934
0.38730106
0.37211279
0.35692451
0.34173623
0.32654795
0.31135968
0.2961714
0.28098312
0.26579484
0.25060657
0.23541829
0.22023001
0.20504173
0.18985345
0.17466518
0.1594769
0.14428862
0.12910034
0.11391206
0.098723786
0.083535508
0.06834723
0.053158951
0.037970674
0.022782397
0.0075941281
1.5125349
1.4956588
1.480922
1.4660997
1.4508301
1.4354703
1.4201921
1.4049697
1.3897614
1.3745577
1.35936
1.3441671
1.3289766
1.3137872
1.2985983
1.2834097
1.2682213
1.253033
1.2378447
1.2226564
1.2074681
1.1922798
1.1770915
1.1619032
1.146715
1.1315267
1.1163384
1.1011501
1.0859618
1.0707736
1.0555853
1.040397
1.0252087
1.0100205
0.99483217
0.9796439
0.96445562
0.94926734
0.93407906
0.91889079
0.90370251
0.88851423
0.87332595
0.85813767
0.8429494
0.82776112
0.81257284
0.79738456
0.78219628
0.76700801
0.75181973
0.73663145
0.72144317
0.7062549
0.69106662
0.67587834
0.66069006
0.64550179
0.63031351
0.61512523
0.59993695
0.58474868
0.5695604
0.55437212
0.53918384
0.52399556
0.50880729
0.49361901
0.47843073
0.46324245
0.44805417
0.4328659
0.41767762
0.40248934
0.38730106
0.37211279
0.35692451
0.34173623
0.32654795
0.31135968
0.2961714
0.28098312
0.26579484
0.25060657
0.23541829
0.22023001
0.20504173
0.18985345
0.17466518
0.1594769
0.14428862
0.12910034
0.11391206
0.098723786
0.083535508
0.068347229
0.053158951
0.037970673
0.022782396
0.0075941274
1.5125349
1.4956588
1.480922
1.4660997
1.45083
1.4354703
1.4201921
1.4049697
1.3897614
1.3745577
1.35936
1.3441671
1.3289766
1.3137872
1.2985983
1.2834097
1.2682213
1.253033
1.2378447
1.2226564
1.2074681
1.1922798
1.1770915
1.1619032
1.146715
1.1315267
1.1163384
1.1011501
1.0859618
1.0707736
1.0555853
1.040397
1.0252087
1.0100205
0.99483217
0.9796439
0.96445562
0.94926734
0.93407906
0.91889079
0.90370251
0.88851423
0.87332595
0.85813767
0.8429494
0.82776112
0.81257284
0.79738456
0.78219628
0.76700801
0.75181973
0.73663145
0.72144317
0.7062549
0.69106662
0.67587834
0.66069006
0.64550179
0.63031351
0.61512523
0.59993695
0.58474868
0.5695604
0.55437212
0.53918384
0.52399556
0.50880729
0.49361901
0.47843073
0.46324245
0.44805417
0.4328659
0.41767762
0.40248934
0.38730106
0.37211279
0.35692451
0.34173623
0.32654795
0.31135968
0.2961714
0.28098312
0.26579484
0.25060657
0.23541829
0.22023001
0.20504173
0.18985345
0.17466518
0.1594769
0.14428862
0.12910034
0.11391206
0.098723786
0.083535508
0.068347229
0.053158951
0.037970673
0.022782396
0.0075941274
1.5127543
1.4959234
1.4810384
1.4661044
1.4508055
1.4354492
1.4201751
1.4049551
1.3897501
1.3745503
1.3593556
1.3441646
1.3289752
1.3137864
1.2985979
1.2834095
1.2682212
1.2530329
1.2378446
1.2226564
1.2074681
1.1922798
1.1770915
1.1619032
1.146715
1.1315267
1.1163384
1.1011501
1.0859618
1.0707736
1.0555853
1.040397
1.0252087
1.0100205
0.99483217
0.9796439
0.96445562
0.94926734
0.93407906
0.91889079
0.90370251
0.88851423
0.87332595
0.85813767
0.8429494
0.82776112
0.81257284
0.79738456
0.78219629
0.76700801
0.75181973
0.73663145
0.72144317
0.7062549
0.69106662
0.67587834
0.66069006
0.64550179
0.63031351
0.61512523
0.59993695
0.58474868
0.5695604
0.55437212
0.53918384
0.52399556
0.50880729
0.49361901
0.47843073
0.46324245
0.44805417
0.4328659
0.41767762
0.40248934
0.38730106
0.37211279
0.35692451
0.34173623
0.32654795
0.31135968
0.2961714
0.28098312
0.26579484
0.25060657
0.23541829
0.22023001
0.20504173
0.18985345
0.17466518
0.1594769
0.14428862
0.12910034
0.11391206
0.098723786
0.083535508
0.068347229
0.053158951
0.037970674
0.022782397
0.0075941283
1.5131943
1.4964289
1.4812452
1.4661052
1.4507599
1.4354135
1.4201478
1.404932
1.3897327
1.374539
1.359349
1.3441609
1.3289732
1.3137854
1.2985974
1.2834093
1.2682211
1.2530329
1.2378446
1.2226563
1.2074681
1.1922798
1.1770915
1.1619032
1.146715
1.1315267
1.1163384
1.1011501
1.0859618
1.0707736
1.0555853
1.040397
1.0252087
1.0100205
0.99483217
0.9796439
0.96445562
0.94926734
0.93407906
0.91889079
0.90370251
0.88851423
0.87332595
0.85813767
0.8429494
0.82776112
0.81257284
0.79738456
0.78219628
0.76700801
0.75181973
0.73663145
0.72144317
0.7062549
0.69106662
0.67587834
0.66069006
0.64550179
0.63031351
0.61512523
0.59993695
0.58474868
0.5695604
0.55437212
0.53918384
0.52399556
0.50880729
0.49361901
0.47843073
0.46324245
0.44805417
0.4328659
0.41767762
0.40248934
0.38730106
0.37211279
0.35692451
0.34173623
0.32654795
0.31135968
0.2961714
0.28098312
0.26579484
0.25060657
0.23541829
0.22023001
0.20504173
0.18985345
0.17466518
0.1594769
0.14428862
0.12910034
0.11391206
0.098723786
0.083535508
0.06834723
0.053158952
0.037970675
0.022782399
0.0075941299
1.5137645
1.49704
1.481457
1.4660805
1.4506989
1.4353731
1.4201202
1.4049102
1.389717
1.3745294
1.3593436
1.3441578
1.3289715
1.3137845
1.2985969
1.2834091
1.268221
1.2530328
1.2378446
1.2226563
1.2074681
1.1922798
1.1770915
1.1619032
1.146715
1.1315267
1.1163384
1.1011501
1.0859618
1.0707736
1.0555853
1.040397
1.0252087
1.0100205
0.99483217
0.9796439
0.96445562
0.94926734
0.93407906
0.91889079
0.90370251
0.88851423
0.87332595
0.85813767
0.8429494
0.82776112
0.81257284
0.79738456
0.78219628
0.76700801
0.75181973
0.73663145
0.72144317
0.7062549
0.69106662
0.67587834
0.66069006
0.64550179
0.63031351
0.61512523
0.59993695
0.58474868
0.5695604
0.55437212
0.53918384
0.52399556
0.50880729
0.49361901
0.47843073
0.46324245
0.44805417
0.4328659
0.41767762
0.40248934
0.38730106
0.37211279
0.35692451
0.34173623
0.32654795
0.31135968
0.2961714
0.28098312
0.26579484
0.25060657
0.23541829
0.22023001
0.20504173
0.18985345
0.17466518
0.1594769
0.14428862
0.12910034
0.11391206
0.098723786
0.083535508
0.068347231
0.053158954
0.037970677
0.022782402
0.0075941325
1.514174
1.497425
1.481514
1.4659796
1.4506005
1.435312
1.4200832
1.4048869
1.3897031
1.374522
1.3593399
1.3441562
1.3289708
1.3137841
1.2985968
1.283409
1.2682209
1.2530328
1.2378446
1.2226563
1.2074681
1.1922798
1.1770915
1.1619032
1.146715
1.1315267
1.1163384
1.1011501
1.0859618
1.0707736
1.0555853
1.040397
1.0252087
1.0100205
0.99483217
0.9796439
0.96445562
0.94926734
0.93407906
0.91889079
0.90370251
0.88851423
0.87332595
0.85813767
0.8429494
0.82776112
0.81257284
0.79738456
0.78219629
0.76700801
0.75181973
0.73663145
0.72144317
0.7062549
0.69106662
0.67587834
0.66069006
0.64550179
0.63031351
0.61512523
0.59993695
0.58474868
0.5695604
0.55437212
0.53918384
0.52399556
0.50880729
0.49361901
0.47843073
0.46324245
0.44805417
0.4328659
0.41767762
0.40248934
0.38730106
0.37211279
0.35692451
0.34173623
0.32654795
0.31135968
0.2961714
0.28098312
0.26579484
0.25060657
0.23541829
0.22023001
0.20504173
0.18985345
0.17466518
0.1594769
0.14428862
0.12910034
0.11391206
0.098723786
0.083535509
0.068347231
0.053158955
0.03797068
0.022782408
0.0075941365
)
;

boundaryField
{
    top
    {
        type            zeroGradient;
    }
    inlet
    {
        type            fixedValue;
        value           uniform 1.523;
    }
    outlet
    {
        type            fixedValue;
        value           uniform 0;
    }
    bottom
    {
        type            zeroGradient;
    }
    back
    {
        type            empty;
    }
    front
    {
        type            empty;
    }
}


// ************************************************************************* //
