/*--------------------------------*- C++ -*----------------------------------*\
| =========                 |                                                 |
| \\      /  F ield         | OpenFOAM: The Open Source CFD Toolbox           |
|  \\    /   O peration     | Version:  v1812                                 |
|   \\  /    A nd           | Web:      www.OpenFOAM.com                      |
|    \\/     M anipulation  |                                                 |
\*---------------------------------------------------------------------------*/
FoamFile
{
    version     2.0;
    format      ascii;
    class       volVectorField;
    location    "3";
    object      U;
}
// * * * * * * * * * * * * * * * * * * * * * * * * * * * * * * * * * * * * * //

dimensions      [0 1 -1 0 0 0 0];


internalField   nonuniform List<vector> 
1000
(
(0.15069051 0.00045170926 0)
(0.14971157 0.00099873257 0)
(0.14783895 0.00083159659 0)
(0.1465093 0.00047595875 0)
(0.14577102 0.00023849437 0)
(0.14535878 0.00011946576 0)
(0.14512232 5.6523583e-05 0)
(0.14499897 2.1062249e-05 0)
(0.14494602 3.9365711e-06 0)
(0.14492895 -2.0168818e-06 0)
(0.14492624 -3.0021948e-06 0)
(0.144928 -2.3597033e-06 0)
(0.14493048 -1.5671095e-06 0)
(0.14493244 -9.5060473e-07 0)
(0.14493372 -5.4162802e-07 0)
(0.14493448 -2.9699391e-07 0)
(0.1449349 -1.5987305e-07 0)
(0.14493514 -8.5237181e-08 0)
(0.14493527 -4.514052e-08 0)
(0.14493534 -2.3528088e-08 0)
(0.14493538 -1.1982183e-08 0)
(0.1449354 -5.7179074e-09 0)
(0.14493541 -2.4800208e-09 0)
(0.14493542 -7.3436902e-10 0)
(0.14493542 4.8583751e-11 0)
(0.14493542 4.6338618e-10 0)
(0.14493542 5.1231464e-10 0)
(0.14493542 5.5847281e-10 0)
(0.14493542 4.7117279e-10 0)
(0.14493542 4.5631289e-10 0)
(0.14493542 3.3593588e-10 0)
(0.14493542 3.0372066e-10 0)
(0.14493542 1.8269104e-10 0)
(0.14493542 1.5946864e-10 0)
(0.14493542 4.5179883e-11 0)
(0.14493542 4.273344e-11 0)
(0.14493542 -4.613773e-11 0)
(0.14493542 -1.0774175e-11 0)
(0.14493542 -6.8721717e-11 0)
(0.14493542 -9.3095549e-12 0)
(0.14493542 -4.1952822e-11 0)
(0.14493542 4.0403429e-11 0)
(0.14493542 1.6117979e-11 0)
(0.14493542 9.3813251e-11 0)
(0.14493542 6.9532949e-11 0)
(0.14493542 1.3335335e-10 0)
(0.14493542 8.5776479e-11 0)
(0.14493542 1.235933e-10 0)
(0.14493542 5.6449891e-11 0)
(0.14493542 7.8627979e-11 0)
(0.14493542 -1.1290248e-11 0)
(0.14493542 7.7917987e-12 0)
(0.14493542 -7.8594259e-11 0)
(0.14493542 -5.9936094e-11 0)
(0.14493542 -1.3479498e-10 0)
(0.14493542 -1.0291023e-10 0)
(0.14493542 -1.5316488e-10 0)
(0.14493542 -9.6065041e-11 0)
(0.14493542 -1.2844601e-10 0)
(0.14493542 -5.4133718e-11 0)
(0.14493542 -6.8549476e-11 0)
(0.14493542 2.5039505e-11 0)
(0.14493542 6.0167838e-12 0)
(0.14493542 9.3067268e-11 0)
(0.14493542 7.9356095e-11 0)
(0.14493542 1.5512035e-10 0)
(0.14493542 1.226875e-10 0)
(0.14493542 1.7580309e-10 0)
(0.14493542 1.2685554e-10 0)
(0.14493542 1.6303578e-10 0)
(0.14493542 9.0918017e-11 0)
(0.14493542 1.0739693e-10 0)
(0.14493542 2.3361417e-11 0)
(0.14493542 3.9188763e-11 0)
(0.14493542 -5.6539397e-11 0)
(0.14493542 -4.7775569e-11 0)
(0.14493542 -1.3164283e-10 0)
(0.14493542 -1.1289415e-10 0)
(0.14493542 -1.8585386e-10 0)
(0.14493542 -1.553084e-10 0)
(0.14493542 -2.0687247e-10 0)
(0.14493542 -1.5446564e-10 0)
(0.14493542 -1.9060423e-10 0)
(0.14493542 -1.2276093e-10 0)
(0.14493542 -1.3888978e-10 0)
(0.14493542 -5.1202491e-11 0)
(0.14493542 -5.9790288e-11 0)
(0.14493542 3.9920213e-11 0)
(0.14493542 3.831265e-11 0)
(0.14493542 1.4196808e-10 0)
(0.14493542 1.5062219e-10 0)
(0.14493542 2.5972988e-10 0)
(0.14493542 3.0466295e-10 0)
(0.14493542 4.9028361e-10 0)
(0.14493542 7.3113861e-10 0)
(0.14493542 9.8514245e-10 0)
(0.14493542 1.4640113e-09 0)
(0.14493542 1.4295251e-09 0)
(0.14493541 7.6421953e-10 0)
(0.14493542 -2.050838e-09 0)
(0.31220884 0.00074149278 0)
(0.31314462 0.0021632086 0)
(0.31164485 0.0022016197 0)
(0.31034706 0.001570649 0)
(0.30959552 0.00097826931 0)
(0.30910473 0.00058293626 0)
(0.30875417 0.00032651924 0)
(0.3085333 0.00016221513 0)
(0.30841761 6.8114185e-05 0)
(0.30836545 2.2555859e-05 0)
(0.30834446 4.1372347e-06 0)
(0.3083372 -1.7158687e-06 0)
(0.30833547 -2.6979536e-06 0)
(0.30833566 -2.1623064e-06 0)
(0.30833622 -1.407726e-06 0)
(0.30833668 -8.2956952e-07 0)
(0.30833698 -4.6612538e-07 0)
(0.30833715 -2.5704233e-07 0)
(0.30833726 -1.4125587e-07 0)
(0.30833732 -7.7681988e-08 0)
(0.30833735 -4.2567199e-08 0)
(0.30833738 -2.2861357e-08 0)
(0.30833739 -1.1781192e-08 0)
(0.3083374 -5.5201936e-09 0)
(0.30833741 -2.1034466e-09 0)
(0.30833741 -2.6069619e-10 0)
(0.30833741 5.9106662e-10 0)
(0.30833741 9.7961539e-10 0)
(0.30833741 1.059482e-09 0)
(0.30833741 1.037005e-09 0)
(0.30833741 8.8803023e-10 0)
(0.30833741 7.4302796e-10 0)
(0.30833741 5.4797994e-10 0)
(0.30833741 3.9828837e-10 0)
(0.30833741 2.1597693e-10 0)
(0.30833741 1.0157849e-10 0)
(0.30833741 -8.7842573e-12 0)
(0.30833741 -4.7966925e-11 0)
(0.30833741 -9.345765e-11 0)
(0.30833741 -6.6055278e-11 0)
(0.30833741 -4.0473425e-11 0)
(0.30833741 3.5255109e-11 0)
(0.30833741 7.8270666e-11 0)
(0.30833741 1.6142059e-10 0)
(0.30833741 1.9882272e-10 0)
(0.30833741 2.5757886e-10 0)
(0.30833741 2.4410813e-10 0)
(0.30833741 2.4476311e-10 0)
(0.30833741 1.8590225e-10 0)
(0.30833741 1.4693574e-10 0)
(0.30833741 4.8890618e-11 0)
(0.30833741 -1.8133216e-11 0)
(0.30833741 -1.2000785e-10 0)
(0.30833741 -1.7340727e-10 0)
(0.30833741 -2.5771769e-10 0)
(0.30833741 -2.7967878e-10 0)
(0.30833741 -3.1197547e-10 0)
(0.30833741 -2.7658935e-10 0)
(0.30833741 -2.6381685e-10 0)
(0.30833741 -1.8807605e-10 0)
(0.30833741 -1.2993048e-10 0)
(0.30833741 -2.432781e-11 0)
(0.30833741 4.3382725e-11 0)
(0.30833741 1.5053953e-10 0)
(0.30833741 2.1453998e-10 0)
(0.30833741 3.0455219e-10 0)
(0.30833741 3.2719757e-10 0)
(0.30833741 3.6847183e-10 0)
(0.30833741 3.5046907e-10 0)
(0.30833741 3.504504e-10 0)
(0.30833741 2.8010286e-10 0)
(0.30833741 2.3125619e-10 0)
(0.30833741 1.3181376e-10 0)
(0.30833741 6.1658809e-11 0)
(0.30833741 -5.1642798e-11 0)
(0.30833741 -1.3028058e-10 0)
(0.30833741 -2.3767948e-10 0)
(0.30833741 -2.9264548e-10 0)
(0.30833741 -3.7944387e-10 0)
(0.30833741 -4.0606389e-10 0)
(0.30833741 -4.4709419e-10 0)
(0.30833741 -4.2352934e-10 0)
(0.30833741 -4.254967e-10 0)
(0.30833741 -3.6387775e-10 0)
(0.30833741 -3.1737071e-10 0)
(0.30833741 -2.1014367e-10 0)
(0.30833741 -1.3572898e-10 0)
(0.30833741 -1.2238917e-11 0)
(0.30833741 9.3962771e-11 0)
(0.30833741 2.4743664e-10 0)
(0.30833741 3.5803346e-10 0)
(0.30833741 5.0787976e-10 0)
(0.30833741 6.7486797e-10 0)
(0.30833741 8.9905702e-10 0)
(0.30833741 1.4184065e-09 0)
(0.30833742 1.3515874e-09 0)
(0.30833741 1.9571927e-09 0)
(0.30833742 1.3530197e-09 0)
(0.30833741 -4.3249921e-09 0)
(0.30833744 -1.24374e-08 0)
(0.39034923 0.00061227244 0)
(0.39284306 0.0021234315 0)
(0.39224258 0.0024577741 0)
(0.39179772 0.0020056454 0)
(0.39180748 0.0014198989 0)
(0.39182557 0.000941106 0)
(0.39174452 0.00057971213 0)
(0.39164987 0.00032166758 0)
(0.39158996 0.00015788195 0)
(0.39155931 6.7898174e-05 0)
(0.39154361 2.4773879e-05 0)
(0.39153561 6.6097417e-06 0)
(0.39153199 1.9948312e-07 0)
(0.3915306 -1.3376079e-06 0)
(0.39153012 -1.256371e-06 0)
(0.39152995 -8.4524956e-07 0)
(0.39152988 -5.0239923e-07 0)
(0.39152986 -2.8466463e-07 0)
(0.39152985 -1.5978363e-07 0)
(0.39152984 -9.0663453e-08 0)
(0.39152984 -5.2110365e-08 0)
(0.39152985 -2.9999934e-08 0)
(0.39152985 -1.6880978e-08 0)
(0.39152985 -9.0348098e-09 0)
(0.39152986 -4.3117502e-09 0)
(0.39152986 -1.5968044e-09 0)
(0.39152986 -5.592667e-11 0)
(0.39152986 7.0464044e-10 0)
(0.39152986 1.0567946e-09 0)
(0.39152986 1.1042104e-09 0)
(0.39152986 1.0379566e-09 0)
(0.39152986 8.5568747e-10 0)
(0.39152986 6.8034604e-10 0)
(0.39152986 4.6407999e-10 0)
(0.39152986 2.9583444e-10 0)
(0.39152986 1.2619383e-10 0)
(0.39152986 2.7754697e-11 0)
(0.39152986 -5.609577e-11 0)
(0.39152986 -6.7762388e-11 0)
(0.39152986 -6.6285856e-11 0)
(0.39152986 -2.157781e-12 0)
(0.39152986 4.6927633e-11 0)
(0.39152986 1.3496511e-10 0)
(0.39152986 1.8533404e-10 0)
(0.39152986 2.5987018e-10 0)
(0.39152986 2.7609659e-10 0)
(0.39152986 2.9563805e-10 0)
(0.39152986 2.5317607e-10 0)
(0.39152986 2.1917384e-10 0)
(0.39152986 1.3047868e-10 0)
(0.39152986 4.8534725e-11 0)
(0.39152986 -6.6133669e-11 0)
(0.39152986 -1.3856984e-10 0)
(0.39152986 -2.3719767e-10 0)
(0.39152986 -2.857258e-10 0)
(0.39152986 -3.4440656e-10 0)
(0.39152986 -3.3663244e-10 0)
(0.39152986 -3.3568464e-10 0)
(0.39152986 -2.7615792e-10 0)
(0.39152986 -2.2397892e-10 0)
(0.39152986 -1.1876339e-10 0)
(0.39152986 -2.8976357e-11 0)
(0.39152986 8.9457614e-11 0)
(0.39152986 1.6961258e-10 0)
(0.39152986 2.7862035e-10 0)
(0.39152986 3.3481757e-10 0)
(0.39152986 4.0153175e-10 0)
(0.39152986 4.0795377e-10 0)
(0.39152986 4.2621172e-10 0)
(0.39152986 3.811248e-10 0)
(0.39152987 3.4207799e-10 0)
(0.39152987 2.4904005e-10 0)
(0.39152987 1.7391254e-10 0)
(0.39152987 5.4189738e-11 0)
(0.39152986 -4.3769689e-11 0)
(0.39152986 -1.7152978e-10 0)
(0.39152986 -2.5436205e-10 0)
(0.39152986 -3.6158374e-10 0)
(0.39152986 -4.1871825e-10 0)
(0.39152986 -4.9006975e-10 0)
(0.39152986 -4.9765239e-10 0)
(0.39152986 -5.1716248e-10 0)
(0.39152986 -4.7761837e-10 0)
(0.39152986 -4.4740314e-10 0)
(0.39152986 -3.5528553e-10 0)
(0.39152986 -2.7579504e-10 0)
(0.39152986 -1.4754068e-10 0)
(0.39152986 -2.7433033e-11 0)
(0.39152986 1.3606854e-10 0)
(0.39152986 2.6888468e-10 0)
(0.39152986 4.3645284e-10 0)
(0.39152986 5.6078584e-10 0)
(0.39152986 8.1033063e-10 0)
(0.39152986 9.3042026e-10 0)
(0.39152986 1.3938119e-09 0)
(0.39152987 6.492545e-10 0)
(0.39152986 5.8440674e-11 0)
(0.39152988 -1.5062128e-09 0)
(0.39152985 -1.2572674e-08 0)
(0.39152988 -2.3485842e-08 0)
(0.42463386 0.00035758869 0)
(0.42779072 0.0013826866 0)
(0.4275502 0.0017229647 0)
(0.42765192 0.0015085892 0)
(0.42831469 0.0011389293 0)
(0.42886867 0.0007974639 0)
(0.42913754 0.00051603867 0)
(0.42924877 0.00030137186 0)
(0.42930355 0.00015700937 0)
(0.42933144 7.2837692e-05 0)
(0.42934162 2.9739316e-05 0)
(0.42934314 1.0123029e-05 0)
(0.4293423 2.3234269e-06 0)
(0.42934136 -1.7501135e-07 0)
(0.42934067 -6.3337492e-07 0)
(0.42934024 -5.1184922e-07 0)
(0.42933998 -3.2033476e-07 0)
(0.42933984 -1.8273031e-07 0)
(0.42933976 -1.0185444e-07 0)
(0.42933972 -5.7884381e-08 0)
(0.4293397 -3.3786051e-08 0)
(0.42933969 -2.0135083e-08 0)
(0.42933968 -1.1730184e-08 0)
(0.42933968 -6.5685992e-09 0)
(0.42933968 -3.1775628e-09 0)
(0.42933968 -1.2100482e-09 0)
(0.42933968 7.1521411e-11 0)
(0.42933968 6.3277273e-10 0)
(0.42933968 9.902889e-10 0)
(0.42933968 9.6351628e-10 0)
(0.42933968 9.6651143e-10 0)
(0.42933968 7.3185545e-10 0)
(0.42933969 6.2970736e-10 0)
(0.42933969 3.6215256e-10 0)
(0.42933969 2.7984707e-10 0)
(0.42933969 6.1936255e-11 0)
(0.42933969 4.8680035e-11 0)
(0.42933969 -7.8446002e-11 0)
(0.42933969 -2.9871819e-12 0)
(0.42933969 -6.1772096e-11 0)
(0.42933969 6.2394118e-11 0)
(0.42933969 4.6584333e-11 0)
(0.42933969 1.9499077e-10 0)
(0.42933969 1.7137314e-10 0)
(0.42933969 2.9270583e-10 0)
(0.42933969 2.2732788e-10 0)
(0.42933969 3.0060897e-10 0)
(0.42933969 1.8025758e-10 0)
(0.42933969 2.0157553e-10 0)
(0.42933969 4.0075495e-11 0)
(0.42933969 3.7114514e-11 0)
(0.42933969 -1.3055685e-10 0)
(0.42933969 -1.3343584e-10 0)
(0.42933969 -2.8448359e-10 0)
(0.42933969 -2.5121873e-10 0)
(0.42933969 -3.591034e-10 0)
(0.42933969 -2.7639811e-10 0)
(0.42933969 -3.3050653e-10 0)
(0.42933968 -1.9290018e-10 0)
(0.42933968 -2.0300034e-10 0)
(0.42933968 -3.3627e-11 0)
(0.42933968 -2.2217467e-11 0)
(0.42933968 1.5171627e-10 0)
(0.42933969 1.583367e-10 0)
(0.42933969 3.155087e-10 0)
(0.42933969 2.9345751e-10 0)
(0.42933969 4.1477917e-10 0)
(0.42933969 3.4628172e-10 0)
(0.42933969 4.1619486e-10 0)
(0.42933969 2.975852e-10 0)
(0.42933969 3.2317101e-10 0)
(0.42933969 1.6389985e-10 0)
(0.42933969 1.5764766e-10 0)
(0.42933969 -1.7152821e-11 0)
(0.42933969 -3.5045811e-11 0)
(0.42933969 -2.1500276e-10 0)
(0.42933969 -2.2530511e-10 0)
(0.42933969 -3.8475576e-10 0)
(0.42933969 -3.620504e-10 0)
(0.42933969 -4.8479375e-10 0)
(0.42933968 -4.2146295e-10 0)
(0.42933968 -4.9808244e-10 0)
(0.42933968 -3.8441197e-10 0)
(0.42933968 -4.1470649e-10 0)
(0.42933968 -2.589946e-10 0)
(0.42933968 -2.4939235e-10 0)
(0.42933968 -5.387797e-11 0)
(0.42933968 -1.1773458e-11 0)
(0.42933968 1.9966748e-10 0)
(0.42933968 2.5619614e-10 0)
(0.42933968 4.7926483e-10 0)
(0.42933969 5.59983e-10 0)
(0.42933969 8.9825167e-10 0)
(0.42933969 9.6609456e-10 0)
(0.42933969 1.3421718e-09 0)
(0.42933969 4.7971191e-10 0)
(0.42933968 -5.8549928e-10 0)
(0.4293397 -2.0694536e-09 0)
(0.42933967 -1.1942042e-08 0)
(0.42933968 -2.1425981e-08 0)
(0.43712542 0.00011342463 0)
(0.44046789 0.00046400397 0)
(0.44026329 0.00059875889 0)
(0.44054625 0.00054142644 0)
(0.44150911 0.00042078323 0)
(0.44234711 0.00030211147 0)
(0.44282186 0.00019997493 0)
(0.4430661 0.00011947208 0)
(0.4432014 6.3809413e-05 0)
(0.44327375 3.0472581e-05 0)
(0.44330552 1.2923474e-05 0)
(0.44331613 4.6932237e-06 0)
(0.44331862 1.2951803e-06 0)
(0.44331874 1.1006735e-07 0)
(0.44331832 -1.605381e-07 0)
(0.44331788 -1.555921e-07 0)
(0.44331759 -1.0060701e-07 0)
(0.44331743 -5.6497012e-08 0)
(0.44331735 -3.0403959e-08 0)
(0.4433173 -1.662555e-08 0)
(0.44331728 -9.3843851e-09 0)
(0.44331726 -5.3706679e-09 0)
(0.44331726 -2.9156791e-09 0)
(0.44331725 -1.3561245e-09 0)
(0.44331725 -3.2739097e-10 0)
(0.44331725 3.0892481e-10 0)
(0.44331725 6.9718029e-10 0)
(0.44331725 8.4984903e-10 0)
(0.44331725 8.8512958e-10 0)
(0.44331725 8.1380124e-10 0)
(0.44331726 7.1548527e-10 0)
(0.44331726 5.4970671e-10 0)
(0.44331726 4.0990144e-10 0)
(0.44331726 2.4750061e-10 0)
(0.44331726 1.5056492e-10 0)
(0.44331726 3.1631556e-11 0)
(0.44331726 4.7749686e-12 0)
(0.44331726 -3.4260689e-11 0)
(0.44331726 8.5896738e-12 0)
(0.44331726 1.1393199e-11 0)
(0.44331726 8.0560774e-11 0)
(0.44331726 1.1174271e-10 0)
(0.44331726 1.8719612e-10 0)
(0.44331726 2.0090944e-10 0)
(0.44331726 2.3651067e-10 0)
(0.44331726 2.1590432e-10 0)
(0.44331726 2.1562307e-10 0)
(0.44331726 1.4218265e-10 0)
(0.44331726 9.5964222e-11 0)
(0.44331726 1.6693575e-12 0)
(0.44331726 -3.6165775e-11 0)
(0.44331726 -1.3412765e-10 0)
(0.44331726 -1.8043426e-10 0)
(0.44331726 -2.4382198e-10 0)
(0.44331726 -2.4664911e-10 0)
(0.44331726 -2.7560204e-10 0)
(0.44331726 -2.4237021e-10 0)
(0.44331726 -2.2207118e-10 0)
(0.44331726 -1.3840264e-10 0)
(0.44331726 -9.416958e-11 0)
(0.44331726 2.1463981e-12 0)
(0.44331726 4.9587453e-11 0)
(0.44331726 1.5017218e-10 0)
(0.44331726 1.9239565e-10 0)
(0.44331726 2.5972925e-10 0)
(0.44331726 2.7948097e-10 0)
(0.44331726 3.1982688e-10 0)
(0.44331726 2.938358e-10 0)
(0.44331726 2.8701068e-10 0)
(0.44331726 2.2843467e-10 0)
(0.44331726 1.9643082e-10 0)
(0.44331726 1.0148292e-10 0)
(0.44331726 4.5741754e-11 0)
(0.44331726 -5.2804554e-11 0)
(0.44331726 -9.6432708e-11 0)
(0.44331726 -1.9133077e-10 0)
(0.44331726 -2.3885553e-10 0)
(0.44331726 -3.0437241e-10 0)
(0.44331726 -3.1588753e-10 0)
(0.44331726 -3.5601837e-10 0)
(0.44331726 -3.4116171e-10 0)
(0.44331726 -3.388979e-10 0)
(0.44331726 -2.7870223e-10 0)
(0.44331725 -2.4927331e-10 0)
(0.44331726 -1.6473612e-10 0)
(0.44331725 -1.0395515e-10 0)
(0.44331725 1.3613162e-11 0)
(0.44331725 7.8261953e-11 0)
(0.44331726 2.0219767e-10 0)
(0.44331725 2.996188e-10 0)
(0.44331726 4.5491243e-10 0)
(0.44331726 6.3188953e-10 0)
(0.44331726 9.1621965e-10 0)
(0.44331726 1.1483565e-09 0)
(0.44331726 1.3703614e-09 0)
(0.44331726 1.04116e-09 0)
(0.44331725 4.8872484e-10 0)
(0.44331726 -2.8617481e-10 0)
(0.44331723 -4.3575644e-09 0)
(0.44331724 -8.2133693e-09 0)
(0.43712549 -0.00011343205 0)
(0.44046785 -0.00046402861 0)
(0.44026324 -0.0005987679 0)
(0.44054626 -0.00054144468 0)
(0.44150914 -0.0004208589 0)
(0.44234713 -0.00030225793 0)
(0.44282185 -0.00020015756 0)
(0.44306608 -0.00011964828 0)
(0.44320137 -6.3955332e-05 0)
(0.44327372 -3.0581826e-05 0)
(0.44330548 -1.2999275e-05 0)
(0.4433161 -4.7408404e-06 0)
(0.44331859 -1.3220076e-06 0)
(0.44331872 -1.2283052e-07 0)
(0.4433183 1.5619983e-07 0)
(0.44331787 1.5626142e-07 0)
(0.44331758 1.035373e-07 0)
(0.44331742 6.0647811e-08 0)
(0.44331734 3.4502454e-08 0)
(0.4433173 2.0673509e-08 0)
(0.44331727 1.2856787e-08 0)
(0.44331726 8.6806419e-09 0)
(0.44331725 5.712303e-09 0)
(0.44331725 4.0809705e-09 0)
(0.44331725 2.6402474e-09 0)
(0.44331725 2.0315075e-09 0)
(0.44331725 1.2701883e-09 0)
(0.44331725 1.1099924e-09 0)
(0.44331725 6.239882e-10 0)
(0.44331725 6.5941507e-10 0)
(0.44331725 2.6834939e-10 0)
(0.44331726 3.6334932e-10 0)
(0.44331726 2.3595423e-11 0)
(0.44331726 1.8897735e-10 0)
(0.44331726 -1.0162103e-10 0)
(0.44331726 9.9574052e-11 0)
(0.44331726 -1.4901027e-10 0)
(0.44331726 1.0805737e-10 0)
(0.44331726 -1.0035298e-10 0)
(0.44331726 1.7087025e-10 0)
(0.44331726 -2.4432787e-11 0)
(0.44331726 2.6011056e-10 0)
(0.44331726 5.3258623e-11 0)
(0.44331726 2.9114532e-10 0)
(0.44331726 4.8498104e-11 0)
(0.44331726 2.685048e-10 0)
(0.44331726 -3.910938e-12 0)
(0.44331726 1.7738906e-10 0)
(0.44331726 -1.1324068e-10 0)
(0.44331726 8.1010866e-11 0)
(0.44331726 -2.1172875e-10 0)
(0.44331726 -2.9633874e-11 0)
(0.44331726 -2.9706377e-10 0)
(0.44331726 -6.8602908e-11 0)
(0.44331726 -3.0042893e-10 0)
(0.44331726 -5.6222805e-11 0)
(0.44331726 -2.6080347e-10 0)
(0.44331726 2.6448959e-11 0)
(0.44331726 -1.6225341e-10 0)
(0.44331726 1.1790017e-10 0)
(0.44331726 -7.2349823e-11 0)
(0.44331726 2.2623966e-10 0)
(0.44331726 3.4408185e-11 0)
(0.44331726 2.9251945e-10 0)
(0.44331726 7.529202e-11 0)
(0.44331726 3.2127926e-10 0)
(0.44331726 7.8373118e-11 0)
(0.44331726 2.820803e-10 0)
(0.44331726 1.3280843e-11 0)
(0.44331726 2.1810464e-10 0)
(0.44331726 -6.1649537e-11 0)
(0.44331726 1.216795e-10 0)
(0.44331726 -1.6562276e-10 0)
(0.44331726 3.4057093e-11 0)
(0.44331726 -2.4627643e-10 0)
(0.44331726 -5.4100749e-11 0)
(0.44331726 -3.1277225e-10 0)
(0.44331726 -8.214457e-11 0)
(0.44331726 -3.1556877e-10 0)
(0.44331726 -7.8929333e-11 0)
(0.44331726 -2.9331611e-10 0)
(0.44331726 -1.7034218e-11 0)
(0.44331726 -2.1659094e-10 0)
(0.44331726 5.2766053e-11 0)
(0.44331725 -1.386088e-10 0)
(0.44331725 1.5950561e-10 0)
(0.44331725 -1.9020293e-11 0)
(0.44331725 2.7653427e-10 0)
(0.44331726 1.121436e-10 0)
(0.44331726 4.2782638e-10 0)
(0.44331726 3.3310452e-10 0)
(0.44331726 7.489955e-10 0)
(0.44331726 7.8552646e-10 0)
(0.44331726 1.3358404e-09 0)
(0.44331726 1.2403833e-09 0)
(0.44331726 1.8459461e-09 0)
(0.44331725 2.1415235e-09 0)
(0.44331726 2.3492088e-09 0)
(0.44331724 5.5867264e-09 0)
(0.44331724 8.9159447e-09 0)
(0.42463374 -0.00035759557 0)
(0.42779068 -0.001382687 0)
(0.42755028 -0.0017229651 0)
(0.42765198 -0.0015086155 0)
(0.42831468 -0.0011390028 0)
(0.42886863 -0.00079758008 0)
(0.42913748 -0.00051617435 0)
(0.42924869 -0.00030150209 0)
(0.42930345 -0.00015711893 0)
(0.42933134 -7.2922426e-05 0)
(0.42934152 -2.9799553e-05 0)
(0.42934305 -1.0162747e-05 0)
(0.42934222 -2.3473497e-06 0)
(0.42934129 1.6235097e-07 0)
(0.42934062 6.2808578e-07 0)
(0.4293402 5.1074877e-07 0)
(0.42933994 3.2178776e-07 0)
(0.42933981 1.8512447e-07 0)
(0.42933974 1.0474735e-07 0)
(0.42933971 6.062532e-08 0)
(0.42933969 3.6520254e-08 0)
(0.42933968 2.2524633e-08 0)
(0.42933967 1.4062715e-08 0)
(0.42933968 8.5821362e-09 0)
(0.42933967 5.2060689e-09 0)
(0.42933968 2.9768249e-09 0)
(0.42933968 1.7113524e-09 0)
(0.42933968 8.417312e-10 0)
(0.42933968 4.6275939e-10 0)
(0.42933968 1.4061571e-10 0)
(0.42933968 6.5443657e-11 0)
(0.42933969 -9.1633051e-11 0)
(0.42933968 -5.2771223e-11 0)
(0.42933969 -1.2411902e-10 0)
(0.42933968 -5.0800766e-11 0)
(0.42933969 -1.0640311e-10 0)
(0.42933968 -1.8354315e-12 0)
(0.42933969 -2.9502518e-11 0)
(0.42933968 6.9402513e-11 0)
(0.42933969 2.6187684e-11 0)
(0.42933969 1.3079976e-10 0)
(0.42933969 8.5883601e-11 0)
(0.42933969 1.5514404e-10 0)
(0.42933969 6.592212e-11 0)
(0.42933969 1.2130028e-10 0)
(0.42933969 2.8457181e-11 0)
(0.42933969 5.4352841e-11 0)
(0.42933969 -6.1067553e-11 0)
(0.42933969 -1.9291916e-11 0)
(0.42933969 -1.1260721e-10 0)
(0.42933969 -7.3586162e-11 0)
(0.42933969 -1.6645925e-10 0)
(0.42933969 -8.914442e-11 0)
(0.42933969 -1.4213401e-10 0)
(0.42933969 -5.7388144e-11 0)
(0.42933969 -1.0719348e-10 0)
(0.42933968 3.7466207e-12 0)
(0.42933969 -2.1035518e-11 0)
(0.42933968 7.6048305e-11 0)
(0.42933969 2.6250039e-11 0)
(0.42933968 1.2839736e-10 0)
(0.42933969 8.5382172e-11 0)
(0.42933968 1.5917805e-10 0)
(0.42933969 7.8147285e-11 0)
(0.42933969 1.4671226e-10 0)
(0.42933969 6.5695391e-11 0)
(0.42933969 1.0487636e-10 0)
(0.42933969 -3.4886695e-12 0)
(0.42933969 3.9707292e-11 0)
(0.42933969 -5.3868346e-11 0)
(0.42933969 -1.7496013e-11 0)
(0.42933969 -1.2084836e-10 0)
(0.42933969 -6.506868e-11 0)
(0.42933969 -1.4242447e-10 0)
(0.42933969 -8.60339e-11 0)
(0.42933969 -1.6517698e-10 0)
(0.42933969 -7.8395098e-11 0)
(0.42933969 -1.266469e-10 0)
(0.42933969 -3.9113474e-11 0)
(0.42933969 -8.9113294e-11 0)
(0.42933968 1.9342851e-11 0)
(0.42933969 -1.0429665e-11 0)
(0.42933968 8.7344012e-11 0)
(0.42933969 3.9958743e-11 0)
(0.42933968 1.4556612e-10 0)
(0.42933968 1.1151102e-10 0)
(0.42933968 2.0196459e-10 0)
(0.42933969 1.4843478e-10 0)
(0.42933968 2.5272938e-10 0)
(0.42933969 2.4032761e-10 0)
(0.42933968 4.0030072e-10 0)
(0.42933969 4.77631e-10 0)
(0.42933969 7.2003773e-10 0)
(0.42933969 9.3631481e-10 0)
(0.42933969 9.9403514e-10 0)
(0.42933969 1.9038291e-09 0)
(0.42933968 2.8428757e-09 0)
(0.4293397 3.7558061e-09 0)
(0.42933967 1.2976267e-08 0)
(0.42933969 2.2051663e-08 0)
(0.39034896 -0.00061228439 0)
(0.39284285 -0.0021235047 0)
(0.39224245 -0.0024578752 0)
(0.39179764 -0.002005721 0)
(0.39180737 -0.0014199458 0)
(0.39182542 -0.00094114692 0)
(0.39174437 -0.00057976028 0)
(0.39164973 -0.00032171874 0)
(0.39158983 -0.00015792795 0)
(0.39155918 -6.793582e-05 0)
(0.39154349 -2.4803061e-05 0)
(0.3915355 -6.6317789e-06 0)
(0.39153189 -2.1499834e-07 0)
(0.39153052 1.3274387e-06 0)
(0.39153005 1.2505294e-06 0)
(0.3915299 8.4210437e-07 0)
(0.39152984 5.0132196e-07 0)
(0.39152983 2.8449133e-07 0)
(0.39152982 1.6059177e-07 0)
(0.39152982 9.1607435e-08 0)
(0.39152983 5.348001e-08 0)
(0.39152983 3.1159277e-08 0)
(0.39152984 1.8275838e-08 0)
(0.39152985 1.0152334e-08 0)
(0.39152985 5.6618246e-09 0)
(0.39152985 2.6457364e-09 0)
(0.39152986 1.2944529e-09 0)
(0.39152986 1.9429999e-10 0)
(0.39152986 2.8659383e-11 0)
(0.39152986 -4.0409656e-10 0)
(0.39152986 -2.1195435e-10 0)
(0.39152986 -4.5851413e-10 0)
(0.39152986 -1.5236336e-10 0)
(0.39152986 -3.6170518e-10 0)
(0.39152986 -5.133079e-11 0)
(0.39152986 -2.4620825e-10 0)
(0.39152986 8.3153968e-11 0)
(0.39152986 -1.2114348e-10 0)
(0.39152986 1.7312932e-10 0)
(0.39152986 -5.2238409e-11 0)
(0.39152986 2.3305972e-10 0)
(0.39152986 -2.9303102e-11 0)
(0.39152986 2.0384156e-10 0)
(0.39152986 -7.6993626e-11 0)
(0.39152987 1.5708364e-10 0)
(0.39152987 -1.4014378e-10 0)
(0.39152987 7.2025973e-11 0)
(0.39152987 -2.1626809e-10 0)
(0.39152987 2.8750506e-11 0)
(0.39152987 -2.4843641e-10 0)
(0.39152987 1.4803989e-12 0)
(0.39152986 -2.4155043e-10 0)
(0.39152987 5.0649845e-11 0)
(0.39152986 -1.7901277e-10 0)
(0.39152986 1.048679e-10 0)
(0.39152986 -1.1250994e-10 0)
(0.39152986 1.902287e-10 0)
(0.39152986 -4.2204817e-11 0)
(0.39152986 2.3241137e-10 0)
(0.39152986 -1.015715e-11 0)
(0.39152986 2.6567991e-10 0)
(0.39152986 -4.0204462e-12 0)
(0.39152986 2.2601298e-10 0)
(0.39152986 -5.7320036e-11 0)
(0.39152987 1.7689405e-10 0)
(0.39152986 -1.1929908e-10 0)
(0.39152987 9.1121809e-11 0)
(0.39152987 -1.9831698e-10 0)
(0.39152987 4.0340042e-11 0)
(0.39152987 -2.4632923e-10 0)
(0.39152987 -1.3189488e-11 0)
(0.39152987 -2.8085449e-10 0)
(0.39152987 -9.5448145e-12 0)
(0.39152987 -2.6100366e-10 0)
(0.39152987 1.065308e-11 0)
(0.39152987 -2.1391041e-10 0)
(0.39152987 9.0053028e-11 0)
(0.39152986 -1.3012889e-10 0)
(0.39152986 1.5726028e-10 0)
(0.39152986 -5.8842203e-11 0)
(0.39152986 2.4695955e-10 0)
(0.39152986 1.5213843e-11 0)
(0.39152986 2.9528896e-10 0)
(0.39152986 6.0623115e-11 0)
(0.39152986 3.456012e-10 0)
(0.39152986 8.837183e-11 0)
(0.39152986 3.345228e-10 0)
(0.39152986 6.804929e-11 0)
(0.39152986 3.2445572e-10 0)
(0.39152986 7.9035815e-11 0)
(0.39152986 3.464796e-10 0)
(0.39152987 1.5423446e-10 0)
(0.39152987 4.0680141e-10 0)
(0.39152987 2.3225514e-10 0)
(0.39152987 2.6082918e-10 0)
(0.39152987 1.001969e-09 0)
(0.39152987 1.479551e-09 0)
(0.39152988 2.5791739e-09 0)
(0.39152986 1.3261733e-08 0)
(0.39152989 2.3952999e-08 0)
(0.31220841 -0.00074150285 0)
(0.31314422 -0.0021632607 0)
(0.31164455 -0.00220168 0)
(0.31034684 -0.0015706714 0)
(0.30959532 -0.00097823965 0)
(0.30910456 -0.00058287869 0)
(0.30875404 -0.000326464 0)
(0.30853321 -0.00016217367 0)
(0.30841753 -6.8083237e-05 0)
(0.30836538 -2.2529586e-05 0)
(0.30834439 -4.1163311e-06 0)
(0.30833714 1.7307184e-06 0)
(0.30833542 2.7082381e-06 0)
(0.30833561 2.1692722e-06 0)
(0.30833618 1.4124307e-06 0)
(0.30833664 8.3307787e-07 0)
(0.30833695 4.6873497e-07 0)
(0.30833713 2.5937224e-07 0)
(0.30833724 1.4315127e-07 0)
(0.3083373 7.9492121e-08 0)
(0.30833734 4.4021206e-08 0)
(0.30833737 2.4286249e-08 0)
(0.30833739 1.2900548e-08 0)
(0.3083374 6.6797869e-09 0)
(0.3083374 3.0085114e-09 0)
(0.30833741 1.2262303e-09 0)
(0.30833741 1.1260227e-10 0)
(0.30833741 -1.9174928e-10 0)
(0.30833741 -4.9764341e-10 0)
(0.30833741 -4.0378875e-10 0)
(0.30833741 -5.1502054e-10 0)
(0.30833741 -3.0302302e-10 0)
(0.30833741 -3.712214e-10 0)
(0.30833741 -1.6157416e-10 0)
(0.30833741 -2.341392e-10 0)
(0.30833741 -1.5872793e-11 0)
(0.30833741 -1.0036742e-10 0)
(0.30833741 8.1069799e-11 0)
(0.30833741 -2.7370662e-11 0)
(0.30833741 1.4447328e-10 0)
(0.30833741 5.7255101e-12 0)
(0.30833741 1.3051204e-10 0)
(0.30833741 -3.2976366e-11 0)
(0.30833741 9.1638508e-11 0)
(0.30833742 -8.415746e-11 0)
(0.30833741 1.6707794e-11 0)
(0.30833742 -1.5469422e-10 0)
(0.30833741 -2.2074861e-11 0)
(0.30833742 -1.7617784e-10 0)
(0.30833741 -4.049867e-11 0)
(0.30833742 -1.7391275e-10 0)
(0.30833741 -1.9769286e-13 0)
(0.30833741 -1.1469774e-10 0)
(0.30833741 5.3213743e-11 0)
(0.30833741 -5.3979303e-11 0)
(0.30833741 1.3319877e-10 0)
(0.30833741 1.815495e-11 0)
(0.30833741 1.7353529e-10 0)
(0.30833741 4.1701325e-11 0)
(0.30833741 1.9887115e-10 0)
(0.30833741 4.6463347e-11 0)
(0.30833741 1.6399677e-10 0)
(0.30833741 -4.3687345e-12 0)
(0.30833741 1.1694754e-10 0)
(0.30833742 -6.2126817e-11 0)
(0.30833741 3.4310698e-11 0)
(0.30833742 -1.4442999e-10 0)
(0.30833742 -2.1684252e-11 0)
(0.30833742 -1.8856791e-10 0)
(0.30833742 -6.9715481e-11 0)
(0.30833742 -2.2280524e-10 0)
(0.30833742 -6.5989081e-11 0)
(0.30833742 -1.9830596e-10 0)
(0.30833741 -4.3211563e-11 0)
(0.30833742 -1.5963772e-10 0)
(0.30833741 2.7359778e-11 0)
(0.30833741 -7.6872353e-11 0)
(0.30833741 9.8580177e-11 0)
(0.30833741 -6.3751754e-12 0)
(0.30833741 1.8278632e-10 0)
(0.30833741 7.0330338e-11 0)
(0.30833741 2.334565e-10 0)
(0.30833741 1.0798915e-10 0)
(0.30833741 2.7320565e-10 0)
(0.30833741 1.3045267e-10 0)
(0.30833741 2.572268e-10 0)
(0.30833741 9.7425024e-11 0)
(0.30833741 2.2806632e-10 0)
(0.30833741 6.468081e-11 0)
(0.30833741 1.8194018e-10 0)
(0.30833742 1.5716657e-11 0)
(0.30833742 1.1554893e-10 0)
(0.30833742 -1.7761618e-10 0)
(0.30833742 -2.1908344e-10 0)
(0.30833742 -6.6996887e-10 0)
(0.30833742 -4.2823069e-10 0)
(0.30833742 -1.3417514e-09 0)
(0.30833742 -1.0907162e-09 0)
(0.30833741 4.490359e-09 0)
(0.30833744 1.2599012e-08 0)
(0.15069026 -0.0004517072 0)
(0.14971141 -0.00099872715 0)
(0.14783889 -0.00083158717 0)
(0.14650927 -0.00047593477 0)
(0.14577099 -0.00023844874 0)
(0.14535877 -0.00011940897 0)
(0.14512234 -5.6471557e-05 0)
(0.144999 -2.1021099e-05 0)
(0.14494606 -3.9036929e-06 0)
(0.14492897 2.0452606e-06 0)
(0.14492625 3.0256287e-06 0)
(0.144928 2.3775473e-06 0)
(0.14493047 1.5799572e-06 0)
(0.14493243 9.5974417e-07 0)
(0.14493371 5.478905e-07 0)
(0.14493447 3.0159207e-07 0)
(0.14493489 1.6304677e-07 0)
(0.14493513 8.7768947e-08 0)
(0.14493526 4.6885662e-08 0)
(0.14493533 2.5062615e-08 0)
(0.14493537 1.3007712e-08 0)
(0.14493539 6.7291899e-09 0)
(0.14493541 3.1168095e-09 0)
(0.14493541 1.4631499e-09 0)
(0.14493542 3.6862729e-10 0)
(0.14493542 9.1645307e-11 0)
(0.14493542 -2.5680404e-10 0)
(0.14493542 -1.3618734e-10 0)
(0.14493542 -3.0243173e-10 0)
(0.14493542 -1.2152488e-10 0)
(0.14493542 -2.4831434e-10 0)
(0.14493542 -4.5927281e-11 0)
(0.14493542 -1.8334432e-10 0)
(0.14493542 1.4023715e-11 0)
(0.14493542 -1.2291957e-10 0)
(0.14493542 7.1272322e-11 0)
(0.14493542 -8.4499528e-11 0)
(0.14493542 9.2494597e-11 0)
(0.14493542 -6.1905914e-11 0)
(0.14493542 1.1219608e-10 0)
(0.14493542 -6.3519314e-11 0)
(0.14493542 9.648763e-11 0)
(0.14493542 -7.5095475e-11 0)
(0.14493542 8.4277332e-11 0)
(0.14493542 -9.9505127e-11 0)
(0.14493542 5.5389105e-11 0)
(0.14493542 -1.1498795e-10 0)
(0.14493542 5.1434475e-11 0)
(0.14493542 -1.2435777e-10 0)
(0.14493542 4.5261625e-11 0)
(0.14493542 -1.1316663e-10 0)
(0.14493542 6.7322119e-11 0)
(0.14493542 -9.5316265e-11 0)
(0.14493542 8.2178364e-11 0)
(0.14493542 -6.8274085e-11 0)
(0.14493542 1.1280418e-10 0)
(0.14493542 -5.1833552e-11 0)
(0.14493542 1.2062675e-10 0)
(0.14493542 -4.0916659e-11 0)
(0.14493542 1.3124654e-10 0)
(0.14493542 -4.8460293e-11 0)
(0.14493542 1.1153495e-10 0)
(0.14493542 -6.1046411e-11 0)
(0.14493542 9.816453e-11 0)
(0.14493542 -8.7494018e-11 0)
(0.14493542 6.4904675e-11 0)
(0.14493542 -1.0876067e-10 0)
(0.14493542 5.2143624e-11 0)
(0.14493542 -1.297832e-10 0)
(0.14493542 3.2059777e-11 0)
(0.14493542 -1.3412511e-10 0)
(0.14493542 4.0710066e-11 0)
(0.14493542 -1.3003654e-10 0)
(0.14493542 4.4601444e-11 0)
(0.14493542 -1.1019335e-10 0)
(0.14493542 7.2083033e-11 0)
(0.14493542 -8.8968285e-11 0)
(0.14493542 8.8616084e-11 0)
(0.14493542 -6.015031e-11 0)
(0.14493542 1.2342012e-10 0)
(0.14493542 -4.1186562e-11 0)
(0.14493542 1.3588066e-10 0)
(0.14493542 -2.1358028e-11 0)
(0.14493542 1.5478202e-10 0)
(0.14493542 -2.0383284e-11 0)
(0.14493542 1.4331768e-10 0)
(0.14493542 -2.8109263e-11 0)
(0.14493542 1.3560957e-10 0)
(0.14493542 -4.752205e-11 0)
(0.14493542 1.0831573e-10 0)
(0.14493542 -7.9369218e-11 0)
(0.14493542 3.6446737e-11 0)
(0.14493542 -2.5452062e-10 0)
(0.14493542 -2.2757279e-10 0)
(0.14493542 -5.6114017e-10 0)