/*--------------------------------*- C++ -*----------------------------------*\
| =========                 |                                                 |
| \\      /  F ield         | OpenFOAM: The Open Source CFD Toolbox           |
|  \\    /   O peration     | Version:  v1812                                 |
|   \\  /    A nd           | Web:      www.OpenFOAM.com                      |
|    \\/     M anipulation  |                                                 |
\*---------------------------------------------------------------------------*/
FoamFile
{
    version     2.0;
    format      ascii;
    class       volScalarField;
    location    "5.55";
    object      p;
}
// * * * * * * * * * * * * * * * * * * * * * * * * * * * * * * * * * * * * * //

dimensions      [0 2 -2 0 0 0 0];


internalField   nonuniform List<scalar> 
1000
(
1.6766592
1.5555813
1.4596008
1.3959447
1.3474352
1.3049631
1.2674279
1.2352562
1.2078558
1.1840182
1.1626239
1.1428601
1.1241829
1.1062434
1.0888281
1.0718139
1.055133
1.0387488
1.0226406
1.0067947
0.99119975
0.97584466
0.96071799
0.94580778
0.93110183
0.91658792
0.90225406
0.88808873
0.87408094
0.86022032
0.84649717
0.83290243
0.81942771
0.80606519
0.79280769
0.77964853
0.7665816
0.75360123
0.74070225
0.72787987
0.71512972
0.70244772
0.68983014
0.67727347
0.66477442
0.65232987
0.63993681
0.62759234
0.61529358
0.60303772
0.59082193
0.5786434
0.56649931
0.55438688
0.54230333
0.53024594
0.51821203
0.50619904
0.49420451
0.48222613
0.47026174
0.45830934
0.44636713
0.43443347
0.42250693
0.41058624
0.39867033
0.38675826
0.37484925
0.36294266
0.35103795
0.33913469
0.32723254
0.31533122
0.30343053
0.2915303
0.2796304
0.26773074
0.25583126
0.24393189
0.23203261
0.22013339
0.20823421
0.19633505
0.18443591
0.17253679
0.16063767
0.14873856
0.13683945
0.12494034
0.11304122
0.10114211
0.089242994
0.077343898
0.065444817
0.05354574
0.04164665
0.029747556
0.017848462
0.0059494342
1.5594395
1.5045104
1.4435579
1.3919902
1.3487202
1.3097519
1.2741656
1.242393
1.2144321
1.1896542
1.1672523
1.146551
1.1270694
1.1084813
1.0905677
1.073183
1.0562311
1.0396497
1.0233971
1.0074436
0.99176656
0.97634704
0.96116821
0.94621457
0.93147156
0.9169254
0.90256308
0.88837235
0.87434172
0.86046045
0.84671855
0.83310672
0.81961636
0.80623948
0.79296874
0.77979733
0.766719
0.753728
0.74081904
0.72798728
0.71522824
0.70253782
0.68991223
0.67734794
0.66484165
0.65239021
0.63999065
0.62764003
0.61533552
0.6030743
0.59085357
0.57867051
0.56652232
0.55440621
0.54231939
0.53025913
0.51822274
0.50620762
0.49421131
0.48223144
0.47026582
0.45831243
0.44636942
0.43443514
0.42250813
0.41058708
0.3986709
0.38675863
0.37484948
0.36294279
0.35103802
0.33913472
0.32723254
0.31533121
0.30343051
0.29153028
0.27963038
0.26773073
0.25583124
0.24393188
0.23203261
0.22013339
0.2082342
0.19633505
0.18443591
0.17253678
0.16063767
0.14873856
0.13683945
0.12494034
0.11304123
0.10114211
0.089242993
0.077343892
0.065444806
0.053545728
0.041646636
0.029747535
0.017848412
0.0059493887
1.4986182
1.4724431
1.4340463
1.3929134
1.3538281
1.3172373
1.2829397
1.2512221
1.222366
1.196265
1.172511
1.150621
1.1301711
1.1108302
1.0923501
1.074549
1.0572972
1.0405016
1.0240955
1.0080304
0.99227007
0.97678639
0.96155653
0.94656106
0.93178283
0.9172064
0.90281766
0.88860362
0.87455228
0.86065252
0.84689404
0.83326732
0.81976354
0.80637455
0.79309283
0.77991146
0.76682404
0.75382473
0.74090814
0.72806931
0.71530373
0.70260721
0.68997591
0.67740625
0.66489488
0.65243865
0.64003452
0.6276796
0.61537101
0.60310594
0.59088158
0.57869514
0.56654382
0.55442481
0.54233536
0.5302727
0.51823417
0.50621717
0.49421919
0.48223788
0.47027103
0.4583166
0.44637272
0.43443772
0.42251012
0.4105886
0.39867205
0.38675949
0.37485011
0.36294325
0.35103835
0.33913495
0.3272327
0.31533132
0.30343059
0.29153033
0.27963041
0.26773075
0.25583126
0.24393189
0.23203261
0.22013339
0.2082342
0.19633505
0.18443591
0.17253678
0.16063767
0.14873856
0.13683945
0.12494034
0.11304123
0.10114211
0.089242988
0.077343879
0.06544478
0.053545695
0.041646591
0.029747474
0.017848324
0.0059493208
1.4692097
1.4537116
1.4268417
1.3929178
1.3571168
1.3221655
1.2888636
1.2575105
1.2283798
1.2015884
1.1770008
1.1543086
1.1331568
1.113228
1.0942698
1.0760901
1.0585444
1.0415234
1.0249448
1.0087468
0.99288281
0.97731707
0.96202113
0.94697148
0.93214808
0.91753342
0.90311188
0.88886939
0.87479317
0.8608715
0.84709362
0.83344965
0.81993047
0.80652771
0.79323363
0.78004115
0.76694373
0.75393539
0.74101062
0.72816437
0.71539203
0.70268932
0.69005231
0.67747735
0.66496104
0.65250015
0.64009162
0.62773247
0.61541984
0.60315087
0.59092274
0.57873266
0.56657783
0.55445545
0.54236277
0.53029706
0.51825564
0.50623594
0.49423547
0.48225187
0.47028295
0.45832666
0.44638113
0.43444469
0.42251584
0.41059325
0.39867578
0.38676246
0.37485245
0.36294507
0.35103975
0.33913602
0.32723351
0.31533193
0.30343104
0.29153065
0.27963065
0.26773092
0.25583138
0.24393197
0.23203267
0.22013343
0.20823423
0.19633507
0.18443592
0.17253679
0.16063767
0.14873856
0.13683945
0.12494034
0.11304123
0.10114211
0.08924298
0.077343862
0.06544475
0.053545654
0.041646536
0.029747404
0.01784824
0.0059492619
1.4564782
1.4445248
1.4222905
1.3920029
1.3581417
1.3241461
1.2914486
1.260443
1.2313456
1.2043337
1.1794067
1.1563571
1.1348756
1.1146579
1.0954544
1.0770722
1.0593633
1.0422128
1.0255319
1.0092528
0.99332384
0.9777053
0.9623658
0.94727968
0.93242526
0.91778385
0.90333899
0.88907597
0.87498153
0.86104362
0.8472512
0.83359418
0.82006326
0.80664991
0.79334629
0.78014519
0.76704
0.75402462
0.74109349
0.72824148
0.7154639
0.70275641
0.69011503
0.67753604
0.66501598
0.65255158
0.64013972
0.62777739
0.6154617
0.60318975
0.59095873
0.57876581
0.5666082
0.55448312
0.54238781
0.53031955
0.5182757
0.50625367
0.49425102
0.48226539
0.47029459
0.45833658
0.44638952
0.43445171
0.42252164
0.41059801
0.39867964
0.38676556
0.37485492
0.36294701
0.35104126
0.33913718
0.3272344
0.31533259
0.30343153
0.29153102
0.27963092
0.26773111
0.25583151
0.24393207
0.23203273
0.22013347
0.20823426
0.19633509
0.18443593
0.1725368
0.16063767
0.14873856
0.13683945
0.12494035
0.11304123
0.10114211
0.089242971
0.077343848
0.065444727
0.053545626
0.041646499
0.02974736
0.017848193
0.00594923
1.4564782
1.4445248
1.4222905
1.3920029
1.3581417
1.3241461
1.2914486
1.260443
1.2313456
1.2043337
1.1794067
1.1563571
1.1348756
1.1146579
1.0954544
1.0770722
1.0593633
1.0422128
1.0255319
1.0092528
0.99332384
0.9777053
0.9623658
0.94727968
0.93242526
0.91778385
0.90333899
0.88907597
0.87498153
0.86104362
0.8472512
0.83359418
0.82006326
0.80664991
0.79334629
0.78014519
0.76704
0.75402462
0.74109349
0.72824149
0.7154639
0.70275642
0.69011504
0.67753606
0.665016
0.65255159
0.64013973
0.62777741
0.61546171
0.60318976
0.59095874
0.57876582
0.56660821
0.55448312
0.54238781
0.53031955
0.51827569
0.50625366
0.49425101
0.48226537
0.47029458
0.45833657
0.44638951
0.4344517
0.42252164
0.410598
0.39867964
0.38676555
0.37485491
0.36294701
0.35104126
0.33913718
0.3272344
0.31533259
0.30343153
0.29153102
0.27963092
0.26773111
0.25583151
0.24393207
0.23203273
0.22013347
0.20823426
0.19633508
0.18443593
0.1725368
0.16063768
0.14873856
0.13683945
0.12494035
0.11304123
0.1011421
0.089242966
0.077343841
0.065444722
0.053545622
0.041646497
0.029747359
0.017848192
0.0059492302
1.4692097
1.4537116
1.4268417
1.3929178
1.3571168
1.3221655
1.2888636
1.2575105
1.2283798
1.2015884
1.1770008
1.1543086
1.1331568
1.113228
1.0942698
1.0760901
1.0585444
1.0415234
1.0249448
1.0087468
0.99288281
0.97731707
0.96202113
0.94697148
0.93214808
0.91753342
0.90311188
0.8888694
0.87479317
0.8608715
0.84709362
0.83344964
0.81993047
0.8065277
0.79323362
0.78004114
0.76694372
0.75393538
0.74101062
0.72816438
0.71539204
0.70268933
0.69005233
0.67747738
0.66496107
0.65250019
0.64009166
0.62773251
0.61541987
0.6031509
0.59092276
0.57873268
0.56657783
0.55445545
0.54236276
0.53029704
0.51825562
0.50623592
0.49423544
0.48225185
0.47028292
0.45832663
0.44638111
0.43444467
0.42251581
0.41059323
0.39867576
0.38676244
0.37485244
0.36294506
0.35103974
0.33913602
0.32723351
0.31533192
0.30343103
0.29153065
0.27963065
0.26773091
0.25583137
0.24393197
0.23203266
0.22013342
0.20823423
0.19633506
0.18443592
0.17253679
0.16063767
0.14873856
0.13683946
0.12494035
0.11304123
0.1011421
0.089242966
0.077343844
0.065444737
0.053545643
0.04164653
0.0297474
0.017848239
0.0059492629
1.4986182
1.4724431
1.4340463
1.3929134
1.3538281
1.3172373
1.2829397
1.2512221
1.222366
1.196265
1.172511
1.150621
1.1301711
1.1108302
1.0923501
1.074549
1.0572972
1.0405016
1.0240955
1.0080304
0.99227006
0.97678638
0.96155654
0.94656106
0.93178284
0.91720641
0.90281767
0.88860363
0.87455229
0.86065252
0.84689404
0.83326732
0.81976353
0.80637454
0.79309282
0.77991144
0.76682403
0.75382472
0.74090813
0.72806932
0.71530375
0.70260724
0.68997595
0.67740629
0.66489493
0.6524387
0.64003458
0.62767965
0.61537106
0.60310598
0.59088161
0.57869516
0.56654382
0.55442481
0.54233534
0.53027268
0.51823414
0.50621713
0.49421915
0.48223784
0.47027099
0.45831656
0.44637269
0.43443769
0.42251009
0.41058858
0.39867203
0.38675947
0.3748501
0.36294324
0.35103833
0.33913494
0.32723269
0.31533131
0.30343058
0.29153032
0.27963041
0.26773074
0.25583125
0.24393189
0.2320326
0.22013338
0.2082342
0.19633504
0.1844359
0.17253678
0.16063767
0.14873856
0.13683946
0.12494035
0.11304122
0.1011421
0.089242966
0.077343856
0.065444759
0.05354568
0.041646582
0.029747469
0.017848323
0.0059493217
1.5594395
1.5045104
1.4435579
1.3919902
1.3487202
1.3097519
1.2741656
1.242393
1.2144321
1.1896542
1.1672523
1.146551
1.1270694
1.1084813
1.0905677
1.073183
1.0562311
1.0396497
1.0233971
1.0074436
0.99176656
0.97634704
0.96116821
0.94621457
0.93147156
0.91692541
0.90256309
0.88837236
0.87434173
0.86046046
0.84671855
0.83310672
0.81961635
0.80623947
0.79296872
0.77979731
0.76671898
0.75372799
0.74081904
0.72798728
0.71522826
0.70253785
0.68991228
0.677348
0.66484171
0.65239028
0.63999071
0.62764009
0.61533558
0.60307435
0.5908536
0.57867053
0.56652233
0.5544062
0.54231937
0.5302591
0.5182227
0.50620758
0.49421126
0.48223139
0.47026577
0.45831239
0.44636938
0.43443511
0.42250809
0.41058705
0.39867087
0.38675861
0.37484946
0.36294278
0.351038
0.33913471
0.32723253
0.3153312
0.3034305
0.29153027
0.27963037
0.26773072
0.25583124
0.24393188
0.2320326
0.22013338
0.2082342
0.19633504
0.1844359
0.17253678
0.16063767
0.14873857
0.13683946
0.12494035
0.11304122
0.10114209
0.089242969
0.077343869
0.065444783
0.053545711
0.041646625
0.029747531
0.017848412
0.0059493896
1.6766592
1.5555813
1.4596008
1.3959447
1.3474352
1.3049631
1.2674279
1.2352562
1.2078558
1.1840182
1.1626239
1.1428601
1.1241829
1.1062434
1.0888281
1.0718139
1.055133
1.0387488
1.0226406
1.0067947
0.99119975
0.97584467
0.96071799
0.94580779
0.93110184
0.91658793
0.90225408
0.88808875
0.87408095
0.86022033
0.84649717
0.83290243
0.8194277
0.80606518
0.79280767
0.77964851
0.76658158
0.75360122
0.74070224
0.72787988
0.71512973
0.70244775
0.68983018
0.67727352
0.66477448
0.65232993
0.63993687
0.62759239
0.61529363
0.60303776
0.59082195
0.57864341
0.56649931
0.55438687
0.54230331
0.5302459
0.51821198
0.50619899
0.49420446
0.48222608
0.47026169
0.4583093
0.44636709
0.43443343
0.42250689
0.41058622
0.39867031
0.38675824
0.37484923
0.36294264
0.35103793
0.33913468
0.32723253
0.31533121
0.30343052
0.29153029
0.27963039
0.26773074
0.25583125
0.24393189
0.23203261
0.22013338
0.2082342
0.19633504
0.18443591
0.17253679
0.16063767
0.14873857
0.13683946
0.12494034
0.11304122
0.10114209
0.089242976
0.077343879
0.065444797
0.053545719
0.041646636
0.02974755
0.017848463
0.0059494361
)
;

boundaryField
{
    top
    {
        type            zeroGradient;
    }
    inlet
    {
        type            zeroGradient;
    }
    outlet
    {
        type            fixedValue;
        value           uniform 0;
    }
    bottom
    {
        type            zeroGradient;
    }
    back
    {
        type            empty;
    }
    front
    {
        type            empty;
    }
}


// ************************************************************************* //
