/*--------------------------------*- C++ -*----------------------------------*\
| =========                 |                                                 |
| \\      /  F ield         | OpenFOAM: The Open Source CFD Toolbox           |
|  \\    /   O peration     | Version:  v1812                                 |
|   \\  /    A nd           | Web:      www.OpenFOAM.com                      |
|    \\/     M anipulation  |                                                 |
\*---------------------------------------------------------------------------*/
FoamFile
{
    version     2.0;
    format      ascii;
    class       surfaceScalarField;
    location    "4.3";
    object      phi;
}
// * * * * * * * * * * * * * * * * * * * * * * * * * * * * * * * * * * * * * //

dimensions      [0 3 -1 0 0 0 0];
oriented        oriented;


internalField   nonuniform List<scalar> 
1890
(
0.0093061957
0.00069380425
0.0082843931
0.0010218027
0.0073298986
0.00095449449
0.0064869553
0.00084294332
0.0057695845
0.00071737075
0.0051898602
0.00057972435
0.0047381683
0.00045169191
0.0043951905
0.00034297779
0.0041390276
0.00025616283
0.0039491083
0.00018991931
0.0038078901
0.00014121825
0.0037013813
0.00010650877
0.0036190626
8.231868e-05
0.0035534187
6.5643987e-05
0.0034992945
5.4124127e-05
0.0034532587
4.60358e-05
0.0034130703
4.0188485e-05
0.0033772855
3.578477e-05
0.0033449779
3.230771e-05
0.003315544
2.9433849e-05
0.0032885772
2.6966884e-05
0.0032637875
2.4789785e-05
0.003240955
2.2832598e-05
0.0032199029
2.1052181e-05
0.0032004828
1.9420195e-05
0.0031825667
1.7916265e-05
0.0031660426
1.6524179e-05
0.0031508128
1.522992e-05
0.0031367921
1.4020856e-05
0.0031239066
1.2885656e-05
0.0031120922
1.1814456e-05
0.0031012933
1.0799089e-05
0.0030914601
9.8332118e-06
0.0030825478
8.9124169e-06
0.0030745137
8.0341535e-06
0.0030673161
7.1976173e-06
0.0030609127
6.4034014e-06
0.0030552595
5.6531868e-06
0.0030503103
4.9492685e-06
0.0030460161
4.2941902e-06
0.0030423257
3.690301e-06
0.0030391862
3.1394535e-06
0.0030365434
2.6427121e-06
0.0030343432
2.2002013e-06
0.0030325321
1.8110239e-06
0.0030310587
1.4732758e-06
0.0030298744
1.1841518e-06
0.0030289342
9.4008317e-07
0.0030281971
7.3699848e-07
0.0030276266
5.7044443e-07
0.0030271906
4.3584415e-07
0.0030268619
3.2864879e-07
0.0030266172
2.4454369e-07
0.0030264376
1.7952084e-07
0.0030263075
1.300055e-07
0.0030262146
9.2852665e-08
0.0030261492
6.5400609e-08
0.0030261037
4.5414084e-08
0.0030260726
3.108947e-08
0.0030260516
2.0973523e-08
0.0030260377
1.3944689e-08
0.0030260285
9.1320015e-09
0.0030260226
5.892744e-09
0.0030260189
3.743572e-09
0.0030260165
2.3444372e-09
0.0030260151
1.4447223e-09
0.0030260142
8.798245e-10
0.0030260137
5.2685546e-10
0.0030260134
3.1491602e-10
0.0030260132
1.8425498e-10
0.0030260131
1.1097347e-10
0.003026013
6.4250998e-11
0.003026013
4.1715434e-11
0.003026013
2.4206442e-11
0.003026013
1.8678868e-11
0.0030260129
1.0693177e-11
0.0030260129
1.0995772e-11
0.0030260129
5.5067537e-12
0.0030260129
8.0851277e-12
0.0030260129
2.9140032e-12
0.0030260129
7.3012597e-12
0.0030260129
1.491799e-12
0.0030260129
7.3844637e-12
0.0030260129
6.9124453e-13
0.0030260129
9.1146225e-12
0.0030260129
1.1231905e-12
0.0030260129
1.4353797e-11
0.0030260129
5.8622644e-12
0.0030260129
2.9951693e-11
0.0030260128
2.4660277e-11
0.0030260128
7.0314047e-11
0.0030260127
7.9905857e-11
0.0030260125
1.7622253e-10
0.0030260123
2.5350383e-10
0.0030260118
5.2524302e-10
0.0030260109
9.1448382e-10
0.0030260091
1.7860324e-09
0.0030260058
3.1899886e-09
0.003026
5.6980938e-09
8.3266312e-09
0.010339525
0.00035427932
0.010570754
0.00079057335
0.010606301
0.0009189482
0.010547573
0.00090167135
0.010422317
0.00084262618
0.010244356
0.00075768547
0.010039421
0.0006566272
0.009828743
0.00055365546
0.0096251357
0.00045977015
0.0094353025
0.00037975246
0.0092624298
0.00031409096
0.0091075368
0.00026140182
0.0089701597
0.00021969572
0.0088489118
0.00018689196
0.0087419865
0.00016104939
0.0086475158
0.00014050654
0.0085637292
0.00012397503
0.0084890637
0.00011045029
0.0084221883
9.9183177e-05
0.0083619931
8.9629079e-05
0.0083075638
8.1396234e-05
0.0082581509
7.4202657e-05
0.0082131406
6.7843003e-05
0.0081720282
6.216469e-05
0.008134397
5.7051444e-05
0.0080999011
5.2412218e-05
0.0080682518
4.8173593e-05
0.0080392071
4.4274728e-05
0.0080125636
4.0664365e-05
0.0079881501
3.7299296e-05
0.0079658209
3.4143658e-05
0.0079454515
3.1168503e-05
0.0079269332
2.8351547e-05
0.0079101688
2.5676839e-05
0.0078950686
2.31344e-05
0.0078815467
2.0719521e-05
0.0078695181
1.8431917e-05
0.0078588967
1.6274584e-05
0.0078495932
1.425267e-05
0.0078415152
1.2372225e-05
0.0078345663
1.0639105e-05
0.0078286477
9.0579521e-06
0.0078236589
7.6314362e-06
0.0078194993
6.359724e-06
0.00781607
5.2402246e-06
0.0078132756
4.2676008e-06
0.0078110256
3.4339873e-06
0.0078092362
2.7294118e-06
0.0078078308
2.1423119e-06
0.007806741
1.6601225e-06
0.0078059069
1.2698426e-06
0.0078052768
9.585826e-07
0.0078048073
7.1400352e-07
0.0078044621
5.2467339e-07
0.0078042117
3.8029569e-07
0.0078040326
2.7184755e-07
0.0078039064
1.9161196e-07
0.0078038186
1.3314888e-07
0.0078037585
9.1196394e-08
0.0078037179
6.1555621e-08
0.0078036909
4.0934414e-08
0.0078036732
2.6815837e-08
0.0078036618
1.7298906e-08
0.0078036546
1.0990391e-08
0.00780365
6.8739778e-09
0.0078036473
4.2349156e-09
0.0078036456
2.5705158e-09
0.0078036446
1.5386351e-09
0.007803644
9.1166274e-10
0.0078036436
5.3427831e-10
0.0078036434
3.1510422e-10
0.0078036433
1.8468218e-10
0.0078036433
1.1368091e-10
0.0078036432
6.9534875e-11
0.0078036432
4.8283541e-11
0.0078036432
3.1823203e-11
0.0078036431
2.6623295e-11
0.0078036431
1.7937465e-11
0.0078036431
1.8960464e-11
0.0078036431
1.1340726e-11
0.0078036431
1.6356016e-11
0.0078036431
7.5871298e-12
0.0078036431
1.6614243e-11
0.0078036431
5.7276858e-12
0.0078036431
2.0019292e-11
0.0078036431
6.9668606e-12
0.0078036431
3.0276804e-11
0.0078036431
1.7136987e-11
0.007803643
5.8208777e-11
0.007803643
5.5022124e-11
0.0078036429
1.3240789e-10
0.0078036428
1.704372e-10
0.0078036427
3.3228367e-10
0.0078036424
5.275091e-10
0.0078036421
9.5882742e-10
0.0078036413
1.7237601e-09
0.0078036401
2.9546274e-09
0.0078036381
5.1421421e-09
0.0078036361
7.5488409e-09
1.0571118e-08
0.010188704
0.00016557515
0.010530487
0.000448791
0.010851453
0.00059798176
0.011124174
0.00062895023
0.011350581
0.00061621883
0.011524486
0.00058378047
0.01164633
0.00053478402
0.011724155
0.00047583014
0.011767999
0.00041592603
0.011786639
0.00036111296
0.011787114
0.00031361548
0.011775058
0.00027345769
0.011754861
0.00023989315
0.011729769
0.00021198407
0.011702055
0.00018876324
0.011673241
0.00016932001
0.011644344
0.00015287255
0.011616012
0.00013878211
0.011588644
0.00012655086
0.011562471
0.0001158026
0.011537611
0.00010625625
0.011514113
9.7700928e-05
0.01149198
8.9975967e-05
0.011471188
8.2956088e-05
0.011451699
7.6541121e-05
0.011433462
7.0648946e-05
0.011416425
6.5210462e-05
0.011400534
6.0166074e-05
0.011385735
5.5463661e-05
0.011371976
5.1057748e-05
0.011359211
4.6909276e-05
0.011347393
4.2985601e-05
0.011336484
3.9260529e-05
0.011326447
3.5714416e-05
0.011317247
3.2334068e-05
0.011308854
2.9112435e-05
0.011301238
2.6047875e-05
0.01129437
2.3143221e-05
0.011288218
2.0404538e-05
0.01128275
1.7839824e-05
0.011277932
1.54576e-05
0.011273724
1.3265624e-05
0.011270086
1.1269734e-05
0.011266972
9.4729788e-06
0.011264338
7.8750409e-06
0.011262133
6.47199e-06
0.011260311
5.2563642e-06
0.011258823
4.217504e-06
0.011257623
3.342137e-06
0.011256668
2.6150506e-06
0.011255918
2.0198778e-06
0.011255336
1.5398148e-06
0.011254892
1.1583253e-06
0.011254557
8.5967241e-07
0.011254308
6.2937038e-07
0.011254125
4.5444039e-07
0.011253993
3.2357654e-07
0.011253899
2.2715992e-07
0.011253833
1.5720488e-07
0.011253788
1.0722705e-07
0.011253756
7.2070163e-08
0.011253736
4.7725996e-08
0.011253722
3.1131134e-08
0.011253713
2.0001116e-08
0.011253707
1.2655019e-08
0.011253703
7.8859293e-09
0.011253701
4.8427665e-09
0.0112537
2.9303298e-09
0.011253699
1.7542339e-09
0.011253698
1.0362702e-09
0.011253698
6.1352611e-10
0.011253698
3.5974703e-10
0.011253698
2.1866572e-10
0.011253698
1.32152e-10
0.011253698
8.8211389e-11
0.011253698
5.7539722e-11
0.011253698
4.5495813e-11
0.011253698
3.1353736e-11
0.011253698
3.0629805e-11
0.011253698
2.0039482e-11
0.011253698
2.5554155e-11
0.011253698
1.4203605e-11
0.011253698
2.469474e-11
0.011253698
1.1927166e-11
0.011253698
2.7927843e-11
0.011253698
1.4491925e-11
0.011253698
3.8297441e-11
0.011253698
2.8392856e-11
0.011253698
6.6548962e-11
0.011253698
7.4168425e-11
0.011253697
1.4020898e-10
0.011253697
2.0680575e-10
0.011253697
3.4342673e-10
0.011253697
6.0502214e-10
0.011253697
9.784111e-10
0.011253697
1.8115714e-09
0.011253698
2.7921209e-09
0.011253698
4.7290486e-09
0.011253699
6.348217e-09
8.6282635e-09
0.010097182
6.8393558e-05
0.010346961
0.00019901112
0.010662469
0.00028247388
0.010982753
0.00030866649
0.011290229
0.00030874341
0.011575251
0.00029875786
0.011829022
0.00028101339
0.012047864
0.0002569874
0.012233271
0.00023051951
0.012389239
0.00020514536
0.012520293
0.00018256146
0.012630752
0.00016299811
0.012724423
0.00014622257
0.012804507
0.00013189947
0.012873602
0.00011966868
0.012933756
0.00010916617
0.012986572
0.00010005647
0.013033296
9.2057816e-05
0.013074899
8.49482e-05
0.013112142
7.8559344e-05
0.013145633
7.2765632e-05
0.013175861
6.7472988e-05
0.013203227
6.2609644e-05
0.013228064
5.8119294e-05
0.013250648
5.395635e-05
0.013271215
5.0082817e-05
0.013289959
4.6465981e-05
0.013307048
4.3076831e-05
0.013322623
3.9889163e-05
0.013336801
3.687941e-05
0.013349684
3.4026739e-05
0.013361356
3.1313273e-05
0.013371892
2.8724299e-05
0.013381358
2.6248509e-05
0.013389814
2.3878174e-05
0.013397317
2.1609112e-05
0.013403925
1.9440485e-05
0.013409694
1.7374323e-05
0.013414683
1.5414953e-05
0.013418955
1.3568208e-05
0.013422572
1.1840642e-05
0.013425599
1.0238629e-05
0.013428101
8.7676198e-06
0.013430143
7.4314237e-06
0.013431786
6.2317398e-06
0.01343309
5.1678334e-06
0.01343411
4.2364606e-06
0.013434895
3.4319776e-06
0.013435491
2.7466279e-06
0.013435935
2.1709636e-06
0.01343626
1.6943322e-06
0.013436495
1.3054109e-06
0.01343666
9.9269573e-07
0.013436775
7.4496187e-07
0.013436853
5.5161091e-07
0.013436904
4.029528e-07
0.013436938
2.9036004e-07
0.013436958
2.0636298e-07
0.013436971
1.4463658e-07
0.013436978
9.9962619e-08
0.013436982
6.8115437e-08
0.013436984
4.5760277e-08
0.013436985
3.0304748e-08
0.013436985
1.9785444e-08
0.013436985
1.27355e-08
0.013436985
8.0838064e-09
0.013436985
5.0646808e-09
0.013436985
3.1320397e-09
0.013436985
1.9193972e-09
0.013436984
1.1637503e-09
0.013436984
7.0716331e-10
0.013436984
4.273123e-10
0.013436984
2.6530188e-10
0.013436984
1.6516424e-10
0.013436984
1.1042269e-10
0.013436984
7.3889982e-11
0.013436984
5.6137816e-11
0.013436984
4.0364391e-11
0.013436984
3.6317696e-11
0.013436984
2.6386438e-11
0.013436984
2.8745424e-11
0.013436984
1.9826705e-11
0.013436984
2.6619045e-11
0.013436984
1.8107931e-11
0.013436984
2.8319992e-11
0.013436984
2.1326905e-11
0.013436984
3.5953356e-11
0.013436984
3.4350821e-11
0.013436984
5.6234458e-11
0.013436984
7.0247769e-11
0.013436984
1.0560445e-10
0.013436984
1.6258877e-10
0.013436984
2.3358582e-10
0.013436985
4.1838359e-10
0.013436985
6.2066543e-10
0.013436986
1.1388861e-09
0.013436987
1.6592963e-09
0.013436989
2.731224e-09
0.013436991
3.5286263e-09
4.715895e-09
0.010068394
2.4090343e-12
0.010267405
8.5555886e-12
0.010549879
1.5702065e-11
0.010858545
2.4771949e-11
0.011167288
3.607559e-11
0.011466046
5.0433921e-11
0.011747059
6.7730441e-11
0.012004047
8.8882125e-11
0.012234566
1.1401185e-10
0.012439711
1.4454318e-10
0.012622273
1.8015341e-10
0.012785271
2.2084599e-10
0.012931493
2.6410702e-10
0.013063392
3.0759563e-10
0.01318306
3.465493e-10
0.013292226
3.7628689e-10
0.013392282
3.9173837e-10
0.01348434
3.8875482e-10
0.013569287
3.6453901e-10
0.013647846
3.16548e-10
0.013720612
2.4409629e-10
0.013788085
1.493519e-10
0.013850694
3.3747693e-11
0.013908814
-1.0245449e-10
0.01396277
-2.3990782e-10
0.014012853
-3.820372e-10
0.01405932
-5.111482e-10
0.014102397
-6.298978e-10
0.014142287
-7.1940173e-10
0.014179167
-7.8807683e-10
0.014213195
-8.1990998e-10
0.014244509
-8.2759235e-10
0.014273234
-7.9996346e-10
0.014299483
-7.5221676e-10
0.014323362
-6.7940702e-10
0.014344972
-5.9651054e-10
0.014364413
-5.0240698e-10
0.014381788
-4.0909453e-10
0.014397203
-3.1769293e-10
0.014410771
-2.3657262e-10
0.014422612
-1.664598e-10
0.014432851
-1.1027772e-10
0.014441619
-6.7546775e-11
0.01444905
-3.7055773e-11
0.014455282
-1.757909e-11
0.01446045
-4.557229e-12
0.014464686
3.0195706e-12
0.014468118
1.0259511e-11
0.014470865
1.7867326e-11
0.014473035
2.9663319e-11
0.01447473
4.2625726e-11
0.014476035
6.2504319e-11
0.014477028
8.1640527e-11
0.014477773
1.0692193e-10
0.014478324
1.2764787e-10
0.014478727
1.5271521e-10
0.014479017
1.6941577e-10
0.014479223
1.8872045e-10
0.014479368
1.9707681e-10
0.014479468
2.0757125e-10
0.014479535
2.061934e-10
0.014479581
2.0759101e-10
0.014479611
1.9771262e-10
0.014479631
1.9203855e-10
0.014479643
1.7629843e-10
0.014479651
1.6634869e-10
0.014479656
1.4785685e-10
0.014479659
1.3648971e-10
0.014479661
1.177292e-10
0.014479662
1.069455e-10
0.014479663
8.9685749e-11
0.014479663
8.0814838e-11
0.014479663
6.5936374e-11
0.014479663
5.9618944e-11
0.014479664
4.7516393e-11
0.014479664
4.3697648e-11
0.014479664
3.4296392e-11
0.014479664
3.2590838e-11
0.014479664
2.5511706e-11
0.014479664
2.5805601e-11
0.014479664
2.0563114e-11
0.014479664
2.2437953e-11
0.014479664
1.8813189e-11
0.014479664
2.2260289e-11
0.014479664
2.004126e-11
0.014479664
2.5122372e-11
0.014479664
2.4604712e-11
0.014479664
3.206987e-11
0.014479664
3.4141355e-11
0.014479664
4.3749263e-11
0.014479664
4.5825364e-11
0.014479664
5.25605e-11
0.014479664
4.8872997e-11
0.014479664
5.1076561e-11
0.014479665
4.4138771e-11
0.014479666
4.4014041e-11
0.014479668
4.2429219e-11
0.01447967
3.7683754e-11
0.014479674
2.3419005e-11
1.8001967e-11
0.010068394
-6.8393553e-05
0.010267405
-0.00019901111
0.010549879
-0.00028247385
0.010858545
-0.00030866644
0.011167288
-0.00030874335
0.011466046
-0.00029875776
0.01174706
-0.00028101326
0.012004047
-0.00025698723
0.012234566
-0.00023051929
0.012439711
-0.00020514508
0.012622273
-0.00018256112
0.012785271
-0.00016299769
0.012931493
-0.00014622208
0.013063392
-0.0001318989
0.01318306
-0.00011966804
0.013292226
-0.00010916548
0.013392282
-0.00010005576
0.01348434
-9.2057107e-05
0.013569288
-8.4947538e-05
0.013647847
-7.8558771e-05
0.013720612
-7.2765192e-05
0.013788085
-6.747272e-05
0.013850695
-6.2609584e-05
0.013908814
-5.8119465e-05
0.01396277
-5.3956763e-05
0.014012854
-5.008347e-05
0.01405932
-4.6466858e-05
0.014102397
-4.3077901e-05
0.014142287
-3.989039e-05
0.014179167
-3.6880742e-05
0.014213194
-3.4028134e-05
0.014244508
-3.1314672e-05
0.014273233
-2.8725665e-05
0.014299482
-2.6249792e-05
0.014323361
-2.3879355e-05
0.014344971
-2.1610155e-05
0.014364411
-1.9441391e-05
0.014381786
-1.7375075e-05
0.014397201
-1.5415569e-05
0.01441077
-1.3568689e-05
0.014422611
-1.1841011e-05
0.01443285
-1.02389e-05
0.014441617
-8.7678156e-06
0.014449049
-7.4315593e-06
0.014455281
-6.2318299e-06
0.014460449
-5.1678899e-06
0.014464685
-4.2364865e-06
0.014468117
-3.4319796e-06
0.014470864
-2.7465989e-06
0.014473035
-2.1709072e-06
0.014474729
-1.6942369e-06
0.014476034
-1.3052804e-06
0.014477027
-9.9251968e-07
0.014477772
-7.447473e-07
0.014478323
-5.5135126e-07
0.014478726
-4.0265967e-07
0.014479016
-2.9003136e-07
0.014479223
-2.060134e-07
0.014479367
-1.4426653e-07
0.014479467
-9.9587979e-08
0.014479535
-6.773712e-08
0.01447958
-4.5392804e-08
0.014479611
-2.9947315e-08
0.01447963
-1.9450415e-08
0.014479643
-1.2419958e-08
0.014479651
-7.7970513e-09
0.014479656
-4.8013491e-09
0.014479659
-2.8992824e-09
0.014479661
-1.7102317e-09
0.014479662
-9.8345877e-10
0.014479663
-5.4748034e-10
0.014479663
-2.927993e-10
0.014479663
-1.4750152e-10
0.014479663
-6.7564822e-11
0.014479663
-2.4579722e-11
0.014479663
-3.8243217e-12
0.014479664
7.1046138e-12
0.014479664
1.0694948e-11
0.014479664
1.2105827e-11
0.014479664
1.3433767e-11
0.014479664
1.1436604e-11
0.014479664
1.4724802e-11
0.014479664
1.1323924e-11
0.014479664
1.6752537e-11
0.014479664
1.2459225e-11
0.014479664
1.9188623e-11
0.014479664
1.3792399e-11
0.014479664
1.9211782e-11
0.014479664
9.972368e-12
0.014479664
5.626727e-12
0.014479664
-1.7497407e-11
0.014479664
-7.2314456e-11
0.014479664
-1.3966194e-10
0.014479664
-3.3193697e-10
0.014479665
-5.3544649e-10
0.014479666
-1.0580435e-09
0.014479668
-1.5825745e-09
0.01447967
-2.6716281e-09
0.014479674
-3.4741683e-09
-4.6797182e-09
0.010097182
-0.00016557515
0.010346961
-0.00044879098
0.010662469
-0.00059798174
0.010982753
-0.00062895019
0.011290229
-0.00061621877
0.011575251
-0.00058378038
0.011829022
-0.0005347839
0.012047865
-0.00047582999
0.012233271
-0.00041592584
0.012389239
-0.00036111273
0.012520293
-0.00031361519
0.012630752
-0.00027345735
0.012724423
-0.00023989275
0.012804508
-0.00021198362
0.012873602
-0.00018876275
0.012933756
-0.00016931948
0.012986573
-0.00015287201
0.013033297
-0.00013878159
0.0130749
-0.00012655038
0.013112143
-0.00011580219
0.013145634
-0.00010625594
0.013175862
-9.7700736e-05
0.013203228
-8.9975916e-05
0.013228065
-8.2956181e-05
0.013250649
-7.6541371e-05
0.013271215
-7.0649337e-05
0.013289959
-6.5210992e-05
0.013307048
-6.0166713e-05
0.013322622
-5.5464396e-05
0.0133368
-5.1058546e-05
0.013349682
-4.6910116e-05
0.013361354
-4.2986458e-05
0.01337189
-3.9261381e-05
0.013381356
-3.5715247e-05
0.013389811
-3.2334859e-05
0.013397314
-2.9113181e-05
0.013403922
-2.604856e-05
0.01340969
-2.3143849e-05
0.01341468
-2.0405095e-05
0.013418952
-1.7840318e-05
0.013422569
-1.5458023e-05
0.013425596
-1.3265986e-05
0.013428098
-1.1270031e-05
0.01343014
-9.4732186e-06
0.013431783
-7.8752241e-06
0.013433087
-6.472121e-06
0.013434107
-5.2564457e-06
0.013434893
-4.2175377e-06
0.013435488
-3.3421263e-06
0.013435933
-2.614996e-06
0.013436258
-2.0197834e-06
0.013436493
-1.5396816e-06
0.013436658
-1.158158e-06
0.013436773
-8.5947422e-07
0.013436851
-6.2914628e-07
0.013436902
-4.5419589e-07
0.013436936
-3.2331649e-07
0.013436957
-2.268913e-07
0.013436969
-1.5693161e-07
0.013436977
-1.0695656e-07
0.013436981
-7.1804629e-08
0.013436983
-4.7472235e-08
0.013436984
-3.0889417e-08
0.013436984
-1.9777199e-08
0.013436984
-1.244714e-08
0.013436984
-7.6985113e-09
0.013436984
-4.6727652e-09
0.013436984
-2.7809235e-09
0.013436984
-1.6213038e-09
0.013436984
-9.2213725e-10
0.013436984
-5.1354429e-10
0.013436984
-2.7591923e-10
0.013436984
-1.4577028e-10
0.013436984
-7.193716e-11
0.013436984
-3.5733078e-11
0.013436984
-1.4648111e-11
0.013436984
-7.1159596e-12
0.013436984
2.1040719e-13
0.013436984
-9.4523146e-13
0.013436984
5.2035335e-12
0.013436984
1.3627523e-13
0.013436984
9.0787223e-12
0.013436984
9.1731917e-13
0.013436984
1.2843945e-11
0.013436984
1.2276777e-12
0.013436984
1.5371319e-11
0.013436984
-1.1189098e-12
0.013436984
1.1448898e-11
0.013436984
-1.7017883e-11
0.013436984
-1.8651384e-11
0.013436984
-7.7292205e-11
0.013436984
-1.4342233e-10
0.013436984
-2.8020156e-10
0.013436985
-5.4799918e-10
0.013436985
-9.2554903e-10
0.013436986
-1.7617707e-09
0.013436987
-2.7372733e-09
0.013436989
-4.6757315e-09
0.013436992
-6.3120121e-09
-8.6034917e-09
0.010188704
-0.00035427932
0.010530487
-0.00079057334
0.010851453
-0.00091894818
0.011124174
-0.00090167132
0.011350581
-0.00084262613
0.011524486
-0.0007576854
0.01164633
-0.00065662712
0.011724155
-0.00055365536
0.011767999
-0.00045977003
0.011786639
-0.00037975231
0.011787114
-0.00031409079
0.011775059
-0.00026140162
0.011754861
-0.00021969549
0.011729769
-0.00018689171
0.011702056
-0.00016104913
0.011673242
-0.00014050626
0.011644345
-0.00012397475
0.011616013
-0.00011045002
0.011588646
-9.9182934e-05
0.011562473
-8.9628868e-05
0.011537613
-8.1396066e-05
0.011514114
-7.4202537e-05
0.011491981
-6.784294e-05
0.01147119
-6.2164687e-05
0.0114517
-5.70515e-05
0.011433463
-5.2412336e-05
0.011416426
-4.8173762e-05
0.011400534
-4.4274951e-05
0.011385734
-4.0664626e-05
0.011371975
-3.7299601e-05
0.011359209
-3.4143986e-05
0.011347392
-3.1168867e-05
0.011336482
-2.8351922e-05
0.011326444
-2.5677238e-05
0.011317244
-2.31348e-05
0.011308851
-2.0719934e-05
0.011301235
-1.843232e-05
0.011294366
-1.6274985e-05
0.011288214
-1.425305e-05
0.011282746
-1.2372586e-05
0.011277928
-1.0639435e-05
0.01127372
-9.0582484e-06
0.011270082
-7.6316952e-06
0.011266968
-6.359941e-06
0.011264334
-5.2404025e-06
0.011262129
-4.2677338e-06
0.011260307
-3.4340843e-06
0.011258819
-2.7294663e-06
0.011257619
-2.1423362e-06
0.011256664
-1.66011e-06
0.011255914
-1.2698073e-06
0.011255333
-9.5851807e-07
0.011254889
-7.1392383e-07
0.011254554
-5.2457246e-07
0.011254305
-3.8018719e-07
0.011254123
-2.7172555e-07
0.011253991
-1.914889e-07
0.011253897
-1.33019e-07
0.011253831
-9.1071029e-08
0.011253786
-6.1428674e-08
0.011253755
-4.0815772e-08
0.011253734
-2.6699314e-08
0.011253721
-1.7193394e-08
0.011253712
-1.0889257e-08
0.011253706
-6.7848394e-09
0.011253703
-4.151158e-09
0.0112537
-2.4990062e-09
0.011253699
-1.472554e-09
0.011253698
-8.5694171e-10
0.011253698
-4.8410482e-10
0.011253698
-2.7521743e-10
0.011253698
-1.4808963e-10
0.011253698
-8.5632202e-11
0.011253698
-4.3170535e-11
0.011253698
-2.9008227e-11
0.011253698
-1.2708896e-11
0.011253698
-1.2915178e-11
0.011253698
-3.2578297e-12
0.011253698
-8.2504033e-12
0.011253698
1.4417387e-12
0.011253698
-6.3610972e-12
0.011253698
5.7597095e-12
0.011253698
-5.4711064e-12
0.011253698
9.6041769e-12
0.011253698
-5.896305e-12
0.011253698
1.2330107e-11
0.011253698
-1.1404883e-11
0.011253698
7.5037457e-12
0.011253698
-3.4241502e-11
0.011253698
-2.5414631e-11
0.011253698
-1.0583056e-10
0.011253698
-1.3988504e-10
0.011253698
-3.0654281e-10
0.011253698
-5.0481015e-10
0.011253698
-9.3494006e-10
0.011253698
-1.6897044e-09
0.011253698
-2.9222735e-09
0.011253698
-5.1280575e-09
0.011253699
-7.5465541e-09
-1.0573661e-08
0.010339525
-0.00069380425
0.010570754
-0.0010218027
0.010606301
-0.00095449448
0.010547573
-0.00084294331
0.010422317
-0.00071737073
0.010244356
-0.00057972432
0.010039421
-0.00045169188
0.0098287432
-0.00034297775
0.0096251359
-0.00025616279
0.0094353029
-0.00018991927
0.0092624303
-0.0001412182
0.0091075374
-0.00010650872
0.0089701605
-8.2318622e-05
0.0088489127
-6.5643925e-05
0.0087419876
-5.4124061e-05
0.008647517
-4.603573e-05
0.0085637306
-4.018841e-05
0.0084890652
-3.5784692e-05
0.0084221898
-3.2307629e-05
0.0083619947
-2.9433768e-05
0.0083075653
-2.6966802e-05
0.0082581524
-2.4789706e-05
0.008213142
-2.2832523e-05
0.0081720294
-2.1052116e-05
0.008134398
-1.942014e-05
0.0080999019
-1.7916223e-05
0.0080682523
-1.6524152e-05
0.0080392073
-1.5229907e-05
0.0080125636
-1.4020862e-05
0.0079881497
-1.2885674e-05
0.0079658202
-1.1814493e-05
0.0079454505
-1.0799133e-05
0.0079269318
-9.8332764e-06
0.007910167
-8.9124838e-06
0.0078950665
-8.0342399e-06
0.0078815442
-7.1977017e-06
0.0078695154
-6.4035022e-06
0.0078588937
-5.6532838e-06
0.00784959
-4.9493758e-06
0.0078415117
-4.2942919e-06
0.0078345627
-3.6904053e-06
0.007828644
-3.1395524e-06
0.0078236551
-2.6428066e-06
0.0078194955
-2.200291e-06
0.0078160663
-1.8111032e-06
0.0078132719
-1.4733518e-06
0.0078110221
-1.1842138e-06
0.0078092328
-9.4014253e-07
0.0078078276
-7.3704219e-07
0.007806738
-5.704861e-07
0.0078059041
-4.3587034e-07
0.0078052743
-3.2867327e-07
0.0078048049
-2.4455373e-07
0.0078044599
-1.7952986e-07
0.0078042098
-1.3000209e-07
0.0078040309
-9.2848994e-08
0.0078039048
-6.538676e-08
0.0078038173
-4.5401359e-08
0.0078037573
-3.1069079e-08
0.0078037168
-2.0955406e-08
0.00780369
-1.3920965e-08
0.0078036724
-9.1119872e-09
0.0078036611
-5.8689628e-09
0.007803654
-3.7242964e-09
0.0078036496
-2.3224629e-09
0.0078036469
-1.4280606e-09
0.0078036453
-8.6122093e-10
0.0078036443
-5.1367958e-10
0.0078036438
-2.9986997e-10
0.0078036435
-1.7482919e-10
0.0078036433
-9.9528829e-11
0.0078036432
-5.811872e-11
0.0078036432
-3.2996377e-11
0.0078036432
-2.0592797e-11
0.0078036432
-1.225806e-11
0.0078036432
-8.5626812e-12
0.0078036432
-5.8613058e-12
0.0078036432
-4.1305532e-12
0.0078036432
-3.715822e-12
0.0078036432
-1.4124289e-12
0.0078036432
-2.6762962e-12
0.0078036432
6.7377983e-13
0.0078036432
-2.1190971e-12
0.0078036432
2.6211956e-12
0.0078036432
-2.3316632e-12
0.0078036432
3.9492736e-12
0.0078036432
-6.3913596e-12
0.0078036432
-6.7851005e-13
0.0078036432
-2.4719918e-11
0.0078036432
-2.5171337e-11
0.0078036431
-6.9285174e-11
0.007803643
-8.0195925e-11
0.0078036429
-1.6872278e-10
0.0078036426
-2.3664928e-10
0.0078036423
-4.9489411e-10
0.0078036415
-8.9026176e-10
0.0078036403
-1.7871377e-09
0.0078036383
-3.2143392e-09
0.0078036364
-5.7234248e-09
-8.3420559e-09
0.0093061957
0.0082843931
0.0073298986
0.0064869553
0.0057695846
0.0051898602
0.0047381684
0.0043951906
0.0041390278
0.0039491085
0.0038078903
0.0037013816
0.003619063
0.003553419
0.0034992949
0.0034532592
0.0034130707
0.003377286
0.0033449784
0.0033155446
0.0032885778
0.003263788
0.0032409555
0.0032199034
0.0032004833
0.0031825671
0.0031660429
0.003150813
0.0031367922
0.0031239065
0.003112092
0.0031012929
0.0030914596
0.0030825471
0.0030745129
0.0030673151
0.0030609116
0.0030552583
0.0030503089
0.0030460147
0.0030423243
0.0030391847
0.0030365419
0.0030343417
0.0030325306
0.0030310573
0.0030298731
0.003028933
0.0030281959
0.0030276255
0.0030271896
0.003026861
0.0030266164
0.0030264369
0.0030263069
0.0030262141
0.0030261487
0.0030261033
0.0030260722
0.0030260513
0.0030260374
0.0030260283
0.0030260224
0.0030260187
0.0030260164
0.003026015
0.0030260141
0.0030260136
0.0030260134
0.0030260132
0.0030260131
0.003026013
0.003026013
0.003026013
0.003026013
0.003026013
0.003026013
0.003026013
0.003026013
0.003026013
0.003026013
0.003026013
0.003026013
0.003026013
0.003026013
0.003026013
0.003026013
0.003026013
0.0030260129
0.0030260129
0.0030260128
0.0030260127
0.0030260126
0.0030260124
0.0030260119
0.003026011
0.0030260092
0.0030260059
0.0030260001
)
;

boundaryField
{
    top
    {
        type            calculated;
        value           uniform 0;
    }
    inlet
    {
        type            calculated;
        value           nonuniform List<scalar> 10(-0.01 -0.01 -0.01 -0.01 -0.01 -0.01 -0.01 -0.01 -0.01 -0.01);
    }
    outlet
    {
        type            calculated;
        value           nonuniform List<scalar> 10(0.0030259917 0.0078036338 0.011253701 0.013436995 0.014479678 0.014479679 0.013436996 0.011253701 0.0078036341 0.0030259918);
    }
    bottom
    {
        type            calculated;
        value           uniform 0;
    }
    back
    {
        type            empty;
        value           nonuniform 0();
    }
    front
    {
        type            empty;
        value           nonuniform 0();
    }
}


// ************************************************************************* //
