/*--------------------------------*- C++ -*----------------------------------*\
| =========                 |                                                 |
| \\      /  F ield         | OpenFOAM: The Open Source CFD Toolbox           |
|  \\    /   O peration     | Version:  v1812                                 |
|   \\  /    A nd           | Web:      www.OpenFOAM.com                      |
|    \\/     M anipulation  |                                                 |
\*---------------------------------------------------------------------------*/
FoamFile
{
    version     2.0;
    format      ascii;
    class       volVectorField;
    location    "9.6";
    object      U;
}
// * * * * * * * * * * * * * * * * * * * * * * * * * * * * * * * * * * * * * //

dimensions      [0 1 -1 0 0 0 0];


internalField   nonuniform List<vector> 
1000
(
(0.91890839 0.035821913 0)
(0.86271384 0.062195638 0)
(0.7870597 0.06251009 0)
(0.69536033 0.054550395 0)
(0.61089745 0.044531651 0)
(0.54411592 0.034015971 0)
(0.49343012 0.024187539 0)
(0.45479413 0.01614423 0)
(0.42544582 0.010265786 0)
(0.40347313 0.0063041453 0)
(0.38715767 0.0037976293 0)
(0.3749622 0.0023103378 0)
(0.36566193 0.0014930145 0)
(0.35836272 0.001085118 0)
(0.35244268 0.00090607237 0)
(0.34748201 0.0008410521 0)
(0.34320348 0.0008237247 0)
(0.33942726 0.00081931095 0)
(0.33603793 0.00081185231 0)
(0.33296114 0.00079580119 0)
(0.33014778 0.00077081109 0)
(0.32756384 0.0007387089 0)
(0.3251842 0.00070188873 0)
(0.32298902 0.00066256531 0)
(0.32096172 0.0006224996 0)
(0.31908785 0.00058295789 0)
(0.31735449 0.00054477232 0)
(0.31574995 0.00050843497 0)
(0.3142636 0.00047419222 0)
(0.31288574 0.00044212482 0)
(0.31160755 0.00041220918 0)
(0.31042101 0.00038436092 0)
(0.30931883 0.00035846405 0)
(0.30829438 0.00033438948 0)
(0.30734165 0.00031200624 0)
(0.30645515 0.00029118772 0)
(0.30562991 0.00027181496 0)
(0.30486136 0.00025377786 0)
(0.30414535 0.0002369755 0)
(0.30347806 0.00022131573 0)
(0.302856 0.0002067145 0)
(0.30227596 0.00019309516 0)
(0.30173496 0.00018038762 0)
(0.30123029 0.00016852762 0)
(0.30075942 0.00015745607 0)
(0.30032002 0.00014711846 0)
(0.29990992 0.00013746441 0)
(0.29952714 0.00012844726 0)
(0.29916982 0.0001200238 0)
(0.29883623 0.00011215404 0)
(0.29852477 0.0001048009 0)
(0.29823396 9.7930134e-05 0)
(0.2979624 9.1509919e-05 0)
(0.29770882 8.5510731e-05 0)
(0.297472 7.9905019e-05 0)
(0.29725083 7.4666938e-05 0)
(0.29704427 6.9772287e-05 0)
(0.29685135 6.5198256e-05 0)
(0.29667116 6.0923538e-05 0)
(0.29650287 5.6928273e-05 0)
(0.29634567 5.3194024e-05 0)
(0.29619885 4.9703843e-05 0)
(0.2960617 4.6441991e-05 0)
(0.2959336 4.3393853e-05 0)
(0.29581394 4.0545659e-05 0)
(0.29570216 3.7884193e-05 0)
(0.29559776 3.5396845e-05 0)
(0.29550024 3.3071423e-05 0)
(0.29540915 3.0896391e-05 0)
(0.29532409 2.8861085e-05 0)
(0.29524465 2.6955635e-05 0)
(0.29517048 2.5171377e-05 0)
(0.29510123 2.350024e-05 0)
(0.2950366 2.1934865e-05 0)
(0.29497628 2.0468028e-05 0)
(0.29492001 1.909249e-05 0)
(0.29486753 1.7801021e-05 0)
(0.29481864 1.658656e-05 0)
(0.2947731 1.5442524e-05 0)
(0.29473072 1.4363388e-05 0)
(0.29469133 1.3344651e-05 0)
(0.29465474 1.2382689e-05 0)
(0.2946208 1.1475089e-05 0)
(0.29458935 1.0618374e-05 0)
(0.29456025 9.8109792e-06 0)
(0.29453339 9.0476736e-06 0)
(0.29450864 8.328044e-06 0)
(0.29448588 7.6448897e-06 0)
(0.294465 7.0020394e-06 0)
(0.29444592 6.3896738e-06 0)
(0.29442848 5.819766e-06 0)
(0.29441264 5.2759114e-06 0)
(0.29439824 4.7816708e-06 0)
(0.29438524 4.3068508e-06 0)
(0.2943735 3.8887613e-06 0)
(0.29436296 3.4832729e-06 0)
(0.29435359 3.1388449e-06 0)
(0.29434496 2.8300233e-06 0)
(0.29433795 2.5818787e-06 0)
(0.29432918 2.5514492e-06 0)
(1.0016583 0.05381943 0)
(1.0359761 0.10128444 0)
(1.0597199 0.11073663 0)
(1.0628947 0.10592202 0)
(1.0515569 0.096228728 0)
(1.0340529 0.083934061 0)
(1.0142795 0.070327063 0)
(0.99360703 0.056981334 0)
(0.97292577 0.045107479 0)
(0.9531074 0.03523675 0)
(0.93479538 0.02740165 0)
(0.91829012 0.021387227 0)
(0.90362379 0.016884498 0)
(0.89068067 0.013569708 0)
(0.87928174 0.011147749 0)
(0.86923242 0.0093736596 0)
(0.86034423 0.0080569293 0)
(0.85244667 0.0070571286 0)
(0.84539241 0.0062752391 0)
(0.83905793 0.0056438285 0)
(0.83334126 0.0051180902 0)
(0.82815884 0.0046686709 0)
(0.82344212 0.0042764157 0)
(0.81913467 0.0039287376 0)
(0.81518962 0.0036172031 0)
(0.81156765 0.003335971 0)
(0.80823544 0.0030808053 0)
(0.8051644 0.0028484706 0)
(0.80232979 0.0026363706 0)
(0.79970999 0.0024423391 0)
(0.79728597 0.0022645184 0)
(0.79504086 0.0021012886 0)
(0.79295963 0.0019512236 0)
(0.79102881 0.0018130616 0)
(0.78923627 0.0016856829 0)
(0.7875711 0.0015680931 0)
(0.78602338 0.0014594075 0)
(0.78458411 0.0013588383 0)
(0.7832451 0.001265683 0)
(0.78199888 0.0011793136 0)
(0.7808386 0.0010991679 0)
(0.77975798 0.0010247407 0)
(0.77875127 0.0009555771 0)
(0.77781317 0.00089126625 0)
(0.77693881 0.00083143564 0)
(0.77612367 0.0007757467 0)
(0.77536361 0.00072389079 0)
(0.77465479 0.00067558585 0)
(0.77399366 0.00063057357 0)
(0.77337691 0.00058861702 0)
(0.77280151 0.00054949855 0)
(0.77226462 0.00051301797 0)
(0.77176361 0.00047899087 0)
(0.77129604 0.00044724704 0)
(0.77085965 0.00041762907 0)
(0.77045232 0.00038999102 0)
(0.77007208 0.00036419737 0)
(0.76971713 0.0003401221 0)
(0.76938576 0.00031764801 0)
(0.76907639 0.0002966662 0)
(0.76878755 0.00027707557 0)
(0.76851786 0.00025878233 0)
(0.76826605 0.00024169939 0)
(0.76803092 0.00022574569 0)
(0.76781137 0.00021084543 0)
(0.76760636 0.00019692742 0)
(0.76741492 0.00018392457 0)
(0.76723616 0.00017177355 0)
(0.76706926 0.00016041476 0)
(0.76691344 0.00014979234 0)
(0.76676797 0.00013985434 0)
(0.76663219 0.00013055254 0)
(0.76650547 0.00012184238 0)
(0.76638722 0.00011368209 0)
(0.76627691 0.00010603258 0)
(0.76617404 9.88563e-05 0)
(0.76607816 9.211802e-05 0)
(0.76598884 8.5783641e-05 0)
(0.76590569 7.9822663e-05 0)
(0.76582835 7.4206036e-05 0)
(0.76575647 6.8910434e-05 0)
(0.76568974 6.3912417e-05 0)
(0.76562785 5.9196475e-05 0)
(0.76557054 5.4741568e-05 0)
(0.76551754 5.053907e-05 0)
(0.76546863 4.6565123e-05 0)
(0.76542355 4.282029e-05 0)
(0.76538215 3.9272998e-05 0)
(0.76534415 3.5942057e-05 0)
(0.76530945 3.2779364e-05 0)
(0.76527772 2.9837377e-05 0)
(0.76524895 2.7030925e-05 0)
(0.76522274 2.4472377e-05 0)
(0.76519914 2.1999387e-05 0)
(0.76517785 1.9832216e-05 0)
(0.76515859 1.7658755e-05 0)
(0.76514192 1.5916803e-05 0)
(0.76512559 1.4003063e-05 0)
(0.76511449 1.2860274e-05 0)
(0.76509722 1.1210011e-05 0)
(1.0014244 0.026824854 0)
(1.0291272 0.062791352 0)
(1.0654292 0.077736552 0)
(1.098962 0.0805972 0)
(1.1253149 0.078285171 0)
(1.145053 0.0731539 0)
(1.1594858 0.066111279 0)
(1.1694287 0.058162064 0)
(1.1755354 0.050296754 0)
(1.1785738 0.043150708 0)
(1.1793571 0.036972825 0)
(1.1785949 0.031771631 0)
(1.1768304 0.027451839 0)
(1.1744518 0.023886768 0)
(1.1717287 0.02094762 0)
(1.1688444 0.018515781 0)
(1.1659195 0.016488086 0)
(1.1630317 0.014779504 0)
(1.1602295 0.013322986 0)
(1.1575415 0.012067133 0)
(1.1549828 0.010973 0)
(1.1525601 0.010011061 0)
(1.1502747 0.0091587457 0)
(1.1481246 0.0083986034 0)
(1.1461059 0.0077169503 0)
(1.1442134 0.0071028887 0)
(1.1424414 0.006547593 0)
(1.1407838 0.0060437969 0)
(1.1392344 0.0055854276 0)
(1.1377869 0.0051673457 0)
(1.1364353 0.0047851573 0)
(1.1351738 0.0044350758 0)
(1.1339968 0.004113816 0)
(1.1328987 0.0038185121 0)
(1.1318746 0.0035466528 0)
(1.1309195 0.0032960279 0)
(1.1300289 0.0030646849 0)
(1.1291985 0.0028508931 0)
(1.1284242 0.002653113 0)
(1.1277022 0.0024699708 0)
(1.1270291 0.002300237 0)
(1.1264014 0.0021428075 0)
(1.1258161 0.001996688 0)
(1.1252702 0.0018609805 0)
(1.1247612 0.0017348715 0)
(1.1242865 0.0016176225 0)
(1.1238437 0.0015085608 0)
(1.1234307 0.0014070727 0)
(1.1230455 0.001312597 0)
(1.1226861 0.0012246195 0)
(1.1223509 0.0011426685 0)
(1.1220381 0.0010663105 0)
(1.1217462 0.00099514691 0)
(1.1214739 0.00092881011 0)
(1.1212198 0.00086696096 0)
(1.1209827 0.00080928602 0)
(1.1207613 0.00075549503 0)
(1.1205548 0.00070531894 0)
(1.120362 0.00065850825 0)
(1.1201821 0.0006148313 0)
(1.1200141 0.00057407324 0)
(1.1198574 0.00053603455 0)
(1.119711 0.00050052995 0)
(1.1195744 0.00046738718 0)
(1.1194469 0.00043644556 0)
(1.1193279 0.00040755509 0)
(1.1192167 0.00038057518 0)
(1.1191129 0.00035537395 0)
(1.1190161 0.00033182778 0)
(1.1189256 0.00030982057 0)
(1.1188412 0.00028924409 0)
(1.1187624 0.00026999706 0)
(1.1186889 0.00025198529 0)
(1.1186202 0.00023512061 0)
(1.1185562 0.00021932068 0)
(1.1184965 0.00020450756 0)
(1.1184407 0.00019060885 0)
(1.1183888 0.00017755494 0)
(1.1183403 0.00016528367 0)
(1.1182952 0.00015373421 0)
(1.1182533 0.00014285698 0)
(1.1182142 0.0001326 0)
(1.1181779 0.00012292821 0)
(1.1181443 0.00011379408 0)
(1.118113 0.00010517924 0)
(1.1180841 9.7031003e-05 0)
(1.1180572 8.9355491e-05 0)
(1.1180325 8.2079668e-05 0)
(1.1180097 7.525558e-05 0)
(1.1179888 6.8759686e-05 0)
(1.1179695 6.2735204e-05 0)
(1.1179521 5.6940326e-05 0)
(1.1179358 5.1706667e-05 0)
(1.1179214 4.6526606e-05 0)
(1.117908 4.2133114e-05 0)
(1.117896 3.7430969e-05 0)
(1.1178854 3.4027123e-05 0)
(1.1178749 2.9568883e-05 0)
(1.1178681 2.7541134e-05 0)
(1.1178566 2.3014888e-05 0)
(1.0007347 0.011814721 0)
(1.0178472 0.030860926 0)
(1.0462163 0.041434441 0)
(1.0799018 0.04519357 0)
(1.1132664 0.045502351 0)
(1.143782 0.044080308 0)
(1.1708941 0.041439982 0)
(1.1945687 0.037973678 0)
(1.2148582 0.034195729 0)
(1.2319652 0.030536887 0)
(1.2462683 0.027222044 0)
(1.2582339 0.02431392 0)
(1.2683135 0.021797888 0)
(1.2768875 0.019633659 0)
(1.2842554 0.017773826 0)
(1.2906479 0.016169652 0)
(1.296243 0.014775591 0)
(1.3011791 0.013552298 0)
(1.3055645 0.012467864 0)
(1.3094838 0.011497466 0)
(1.3130042 0.010622161 0)
(1.3161792 0.0098275127 0)
(1.3190526 0.0091024104 0)
(1.3216607 0.0084381763 0)
(1.3240343 0.0078279038 0)
(1.3261995 0.007265975 0)
(1.3281786 0.0067477098 0)
(1.3299913 0.0062691181 0)
(1.3316544 0.0058267289 0)
(1.3331829 0.0054174744 0)
(1.3345896 0.0050386129 0)
(1.3358862 0.0046876738 0)
(1.3370827 0.0043624192 0)
(1.3381883 0.0040608144 0)
(1.3392108 0.0037810046 0)
(1.3401576 0.0035212961 0)
(1.3410349 0.0032801403 0)
(1.3418486 0.00305612 0)
(1.3426038 0.0028479367 0)
(1.3433051 0.0026544001 0)
(1.3439569 0.0024744181 0)
(1.3445629 0.0023069877 0)
(1.3451267 0.0021511871 0)
(1.3456513 0.0020061681 0)
(1.3461398 0.0018711497 0)
(1.3465947 0.0017454122 0)
(1.3470185 0.0016282913 0)
(1.3474135 0.0015191737 0)
(1.3477816 0.0014174928 0)
(1.3481248 0.0013227246 0)
(1.3484449 0.0012343845 0)
(1.3487435 0.0011520238 0)
(1.349022 0.0010752272 0)
(1.3492818 0.0010036095 0)
(1.3495242 0.00093681389 0)
(1.3497505 0.00087450891 0)
(1.3499616 0.00081638664 0)
(1.3501587 0.00076216094 0)
(1.3503427 0.00071156559 0)
(1.3505145 0.00066435305 0)
(1.3506748 0.0006202931 0)
(1.3508245 0.00057917158 0)
(1.3509643 0.00054078941 0)
(1.3510948 0.00050496104 0)
(1.3512167 0.00047151358 0)
(1.3513305 0.00044028546 0)
(1.3514368 0.00041112536 0)
(1.351536 0.00038389148 0)
(1.3516286 0.00035845085 0)
(1.3517151 0.00033467882 0)
(1.3517959 0.00031245901 0)
(1.3518713 0.00029168229 0)
(1.3519416 0.00027224744 0)
(1.3520073 0.00025405914 0)
(1.3520685 0.00023702899 0)
(1.3521256 0.00022107281 0)
(1.3521788 0.00020611285 0)
(1.3522284 0.00019207385 0)
(1.3522745 0.00017888887 0)
(1.3523173 0.0001664911 0)
(1.3523572 0.00015482718 0)
(1.3523942 0.00014383776 0)
(1.3524284 0.00013348627 0)
(1.3524601 0.00012371538 0)
(1.3524893 0.00011450997 0)
(1.3525164 0.00010580172 0)
(1.3525411 9.7610304e-05 0)
(1.3525639 8.9832228e-05 0)
(1.3525846 8.2556442e-05 0)
(1.3526038 7.5594642e-05 0)
(1.3526208 6.9179302e-05 0)
(1.3526369 6.2929331e-05 0)
(1.3526505 5.7374687e-05 0)
(1.3526641 5.1716207e-05 0)
(1.3526744 4.7096057e-05 0)
(1.3526861 4.1848703e-05 0)
(1.3526933 3.834107e-05 0)
(1.352704 3.3228022e-05 0)
(1.3527079 3.1188166e-05 0)
(1.3527189 2.5862823e-05 0)
(1.0005903 0.0034629157 0)
(1.0136865 0.0093660195 0)
(1.0370283 0.013046806 0)
(1.0674202 0.014563261 0)
(1.1000315 0.014854525 0)
(1.1316428 0.014564991 0)
(1.1610745 0.013888338 0)
(1.1880674 0.012919245 0)
(1.2125205 0.011806506 0)
(1.2343939 0.010696426 0)
(1.2538077 0.0096727417 0)
(1.2710339 0.0087628217 0)
(1.286401 0.0079659735 0)
(1.3002112 0.0072722148 0)
(1.3127102 0.006668809 0)
(1.3240903 0.0061419258 0)
(1.3345036 0.0056780728 0)
(1.3440716 0.0052653214 0)
(1.3528927 0.0048939353 0)
(1.3610463 0.0045563957 0)
(1.3685975 0.0042470694 0)
(1.3756004 0.0039617755 0)
(1.3821012 0.0036973974 0)
(1.3881402 0.0034515826 0)
(1.3937533 0.003222519 0)
(1.3989728 0.0030087707 0)
(1.403828 0.002809159 0)
(1.4083456 0.0026226803 0)
(1.4125503 0.0024484506 0)
(1.4164646 0.0022856713 0)
(1.4201094 0.0021336076 0)
(1.423504 0.001991576 0)
(1.4266661 0.0018589362 0)
(1.4296121 0.0017350862 0)
(1.4323573 0.0016194597 0)
(1.4349159 0.0015115233 0)
(1.4373007 0.0014107754 0)
(1.4395241 0.0013167448 0)
(1.441597 0.0012289889 0)
(1.4435301 0.001147093 0)
(1.4453328 0.0010706684 0)
(1.4470143 0.00099935153 0)
(1.4485827 0.00093280204 0)
(1.4500459 0.00087070177 0)
(1.451411 0.0008127533 0)
(1.4526846 0.00075867864 0)
(1.4538731 0.00070821812 0)
(1.4549822 0.00066112928 0)
(1.4560172 0.00061718577 0)
(1.4569831 0.00057617656 0)
(1.4578847 0.00053790473 0)
(1.4587262 0.00050218679 0)
(1.4595117 0.00046885162 0)
(1.460245 0.00043773956 0)
(1.4609295 0.0004087017 0)
(1.4615685 0.00038159887 0)
(1.4621651 0.00035630124 0)
(1.4627221 0.00033268757 0)
(1.4632422 0.00031064475 0)
(1.4637278 0.00029006746 0)
(1.4641812 0.00027085748 0)
(1.4646045 0.00025292337 0)
(1.4649998 0.0002361799 0)
(1.4653689 0.00022054734 0)
(1.4657136 0.00020595121 0)
(1.4660355 0.0001923215 0)
(1.466336 0.00017959265 0)
(1.4666167 0.00016770314 0)
(1.4668787 0.00015659531 0)
(1.4671234 0.00014621534 0)
(1.4673518 0.00013651305 0)
(1.4675651 0.00012744154 0)
(1.4677642 0.00011895734 0)
(1.46795 0.0001110191 0)
(1.4681233 0.00010358858 0)
(1.468285 9.6628646e-05 0)
(1.4684358 9.0105328e-05 0)
(1.4685763 8.3985335e-05 0)
(1.4687072 7.8239606e-05 0)
(1.4688291 7.2838849e-05 0)
(1.4689425 6.7760624e-05 0)
(1.4690479 6.2978541e-05 0)
(1.4691458 5.8478127e-05 0)
(1.4692366 5.423219e-05 0)
(1.4693206 5.023644e-05 0)
(1.4693984 4.6456063e-05 0)
(1.46947 4.2904741e-05 0)
(1.4695363 3.9527681e-05 0)
(1.4695968 3.6376013e-05 0)
(1.469653 3.3348575e-05 0)
(1.4697035 3.0573727e-05 0)
(1.4697509 2.784715e-05 0)
(1.4697922 2.5452509e-05 0)
(1.4698323 2.2969476e-05 0)
(1.4698649 2.0989526e-05 0)
(1.4698995 1.8664596e-05 0)
(1.4699231 1.7174704e-05 0)
(1.4699551 1.4886132e-05 0)
(1.4699683 1.4023717e-05 0)
(1.4700022 1.1629606e-05 0)
(1.0005903 -0.003462916 0)
(1.0136865 -0.0093660198 0)
(1.0370283 -0.013046806 0)
(1.0674202 -0.014563261 0)
(1.1000315 -0.014854524 0)
(1.1316428 -0.01456499 0)
(1.1610745 -0.013888338 0)
(1.1880674 -0.012919245 0)
(1.2125205 -0.011806507 0)
(1.2343939 -0.010696427 0)
(1.2538077 -0.0096727426 0)
(1.2710339 -0.0087628224 0)
(1.286401 -0.0079659736 0)
(1.3002112 -0.0072722142 0)
(1.3127102 -0.0066688079 0)
(1.3240903 -0.0061419245 0)
(1.3345036 -0.0056780716 0)
(1.3440716 -0.0052653207 0)
(1.3528927 -0.0048939353 0)
(1.3610463 -0.0045563964 0)
(1.3685975 -0.0042470705 0)
(1.3756004 -0.0039617764 0)
(1.3821012 -0.0036973978 0)
(1.3881402 -0.0034515821 0)
(1.3937533 -0.0032225175 0)
(1.3989728 -0.0030087685 0)
(1.403828 -0.0028091565 0)
(1.4083456 -0.002622678 0)
(1.4125503 -0.002448449 0)
(1.4164646 -0.0022856705 0)
(1.4201094 -0.0021336076 0)
(1.423504 -0.0019915763 0)
(1.4266661 -0.0018589361 0)
(1.4296121 -0.0017350851 0)
(1.4323573 -0.0016194571 0)
(1.4349159 -0.0015115194 0)
(1.4373007 -0.0014107705 0)
(1.4395241 -0.0013167395 0)
(1.441597 -0.001228984 0)
(1.4435301 -0.0011470888 0)
(1.4453328 -0.0010706651 0)
(1.4470143 -0.0009993487 0)
(1.4485827 -0.00093279902 0)
(1.4500459 -0.00087069774 0)
(1.451411 -0.00081274767 0)
(1.4526846 -0.00075867124 0)
(1.4538731 -0.00070820922 0)
(1.4549822 -0.00066111963 0)
(1.4560172 -0.00061717622 0)
(1.4569831 -0.00057616785 0)
(1.4578847 -0.00053789721 0)
(1.4587262 -0.00050218017 0)
(1.4595117 -0.00046884522 0)
(1.460245 -0.00043773238 0)
(1.4609295 -0.00040869296 0)
(1.4615685 -0.00038158836 0)
(1.4621652 -0.00035628933 0)
(1.4627222 -0.0003326754 0)
(1.4632422 -0.00031063358 0)
(1.4637278 -0.00029005838 0)
(1.4641812 -0.00027085101 0)
(1.4646045 -0.00025291907 0)
(1.4649998 -0.00023617685 0)
(1.465369 -0.00022054422 0)
(1.4657136 -0.00020594715 0)
(1.4660355 -0.00019231655 0)
(1.4663361 -0.0001795878 0)
(1.4666167 -0.00016770026 0)
(1.4668787 -0.00015659653 0)
(1.4671234 -0.00014622224 0)
(1.4673518 -0.00013652643 0)
(1.4675651 -0.00012746043 0)
(1.4677642 -0.00011898022 0)
(1.46795 -0.00011104363 0)
(1.4681233 -0.00010361334 0)
(1.468285 -9.6653267e-05 0)
(1.4684358 -9.0131092e-05 0)
(1.4685763 -8.4014358e-05 0)
(1.4687072 -7.827452e-05 0)
(1.4688291 -7.2880747e-05 0)
(1.4689425 -6.7809669e-05 0)
(1.4690479 -6.3032153e-05 0)
(1.4691458 -5.8533372e-05 0)
(1.4692366 -5.4285153e-05 0)
(1.4693206 -5.0284821e-05 0)
(1.4693984 -4.6498678e-05 0)
(1.46947 -4.2942522e-05 0)
(1.4695363 -3.9562063e-05 0)
(1.4695968 -3.6408834e-05 0)
(1.469653 -3.3380045e-05 0)
(1.4697035 -3.0602888e-05 0)
(1.4697509 -2.7871389e-05 0)
(1.4697922 -2.5468951e-05 0)
(1.4698323 -2.2975572e-05 0)
(1.4698648 -2.0984798e-05 0)
(1.4698995 -1.8650615e-05 0)
(1.4699231 -1.7153737e-05 0)
(1.469955 -1.4860069e-05 0)
(1.4699683 -1.3996996e-05 0)
(1.4700021 -1.159801e-05 0)
(1.0007347 -0.011814722 0)
(1.0178472 -0.030860927 0)
(1.0462163 -0.041434441 0)
(1.0799018 -0.045193569 0)
(1.1132664 -0.04550235 0)
(1.143782 -0.044080307 0)
(1.1708941 -0.041439982 0)
(1.1945687 -0.037973678 0)
(1.2148582 -0.03419573 0)
(1.2319652 -0.030536887 0)
(1.2462683 -0.027222045 0)
(1.2582339 -0.02431392 0)
(1.2683135 -0.021797887 0)
(1.2768875 -0.019633659 0)
(1.2842554 -0.017773825 0)
(1.2906479 -0.016169651 0)
(1.296243 -0.01477559 0)
(1.3011791 -0.013552298 0)
(1.3055645 -0.012467865 0)
(1.3094838 -0.011497467 0)
(1.3130042 -0.010622162 0)
(1.3161792 -0.0098275132 0)
(1.3190526 -0.0091024102 0)
(1.3216607 -0.0084381752 0)
(1.3240343 -0.007827902 0)
(1.3261995 -0.0072659728 0)
(1.3281786 -0.0067477078 0)
(1.3299913 -0.0062691167 0)
(1.3316544 -0.0058267282 0)
(1.3331829 -0.0054174745 0)
(1.3345896 -0.0050386132 0)
(1.3358862 -0.0046876739 0)
(1.3370827 -0.0043624185 0)
(1.3381883 -0.0040608126 0)
(1.3392108 -0.0037810016 0)
(1.3401576 -0.0035212922 0)
(1.3410349 -0.003280136 0)
(1.3418486 -0.0030561159 0)
(1.3426038 -0.0028479332 0)
(1.3433051 -0.0026543975 0)
(1.3439569 -0.0024744159 0)
(1.3445629 -0.0023069855 0)
(1.3451267 -0.0021511841 0)
(1.3456513 -0.0020061638 0)
(1.3461398 -0.0018711439 0)
(1.3465947 -0.0017454051 0)
(1.3470185 -0.0016282834 0)
(1.3474135 -0.0015191659 0)
(1.3477816 -0.0014174857 0)
(1.3481249 -0.0013227186 0)
(1.3484449 -0.0012343792 0)
(1.3487435 -0.0011520188 0)
(1.349022 -0.0010752215 0)
(1.3492818 -0.0010036025 0)
(1.3495243 -0.00093680536 0)
(1.3497505 -0.0008744991 0)
(1.3499617 -0.00081637653 0)
(1.3501588 -0.0007621516 0)
(1.3503427 -0.00071155802 0)
(1.3505145 -0.00066434772 0)
(1.3506748 -0.00062028963 0)
(1.3508246 -0.00057916917 0)
(1.3509644 -0.00054078683 0)
(1.3510949 -0.00050495749 0)
(1.3512168 -0.00047150901 0)
(1.3513306 -0.00044028062 0)
(1.3514368 -0.00041112198 0)
(1.3515361 -0.0003838914 0)
(1.3516287 -0.00035845552 0)
(1.3517152 -0.00033468883 0)
(1.3517959 -0.0003124735 0)
(1.3518713 -0.00029169992 0)
(1.3519417 -0.00027226624 0)
(1.3520073 -0.00025407793 0)
(1.3520686 -0.00023704758 0)
(1.3521257 -0.0002210922 0)
(1.3521789 -0.00020613492 0)
(1.3522284 -0.00019210063 0)
(1.3522745 -0.00017892135 0)
(1.3523173 -0.00016652934 0)
(1.3523572 -0.00015486912 0)
(1.3523941 -0.00014388112 0)
(1.3524284 -0.00013352807 0)
(1.3524601 -0.00012375388 0)
(1.3524893 -0.00011454434 0)
(1.3525163 -0.00010583259 0)
(1.352541 -9.7638737e-05 0)
(1.3525638 -8.9859527e-05 0)
(1.3525845 -8.258258e-05 0)
(1.3526037 -7.561899e-05 0)
(1.3526207 -6.9199836e-05 0)
(1.3526368 -6.294406e-05 0)
(1.3526504 -5.7381905e-05 0)
(1.3526639 -5.1715117e-05 0)
(1.3526743 -4.7087692e-05 0)
(1.352686 -4.1833893e-05 0)
(1.3526932 -3.83236e-05 0)
(1.3527039 -3.3206061e-05 0)
(1.3527077 -3.1164665e-05 0)
(1.3527188 -2.5835181e-05 0)
(1.0014244 -0.026824854 0)
(1.0291272 -0.062791352 0)
(1.0654292 -0.077736552 0)
(1.098962 -0.0805972 0)
(1.1253149 -0.078285171 0)
(1.145053 -0.0731539 0)
(1.1594858 -0.066111279 0)
(1.1694287 -0.058162064 0)
(1.1755354 -0.050296755 0)
(1.1785738 -0.043150709 0)
(1.1793571 -0.036972825 0)
(1.178595 -0.031771631 0)
(1.1768304 -0.027451838 0)
(1.1744518 -0.023886766 0)
(1.1717287 -0.020947619 0)
(1.1688444 -0.018515781 0)
(1.1659195 -0.016488086 0)
(1.1630317 -0.014779504 0)
(1.1602295 -0.013322987 0)
(1.1575415 -0.012067134 0)
(1.1549828 -0.010973001 0)
(1.1525601 -0.01001106 0)
(1.1502747 -0.0091587445 0)
(1.1481246 -0.0083986017 0)
(1.1461059 -0.0077169485 0)
(1.1442134 -0.0071028873 0)
(1.1424414 -0.0065475923 0)
(1.1407838 -0.006043797 0)
(1.1392343 -0.0055854282 0)
(1.1377869 -0.0051673464 0)
(1.1364353 -0.0047851577 0)
(1.1351738 -0.0044350753 0)
(1.1339968 -0.0041138144 0)
(1.1328987 -0.0038185096 0)
(1.1318746 -0.0035466497 0)
(1.1309195 -0.0032960248 0)
(1.1300289 -0.0030646823 0)
(1.1291985 -0.0028508913 0)
(1.1284242 -0.002653112 0)
(1.1277022 -0.0024699702 0)
(1.1270291 -0.0023002361 0)
(1.1264014 -0.0021428058 0)
(1.1258161 -0.0019966849 0)
(1.1252703 -0.0018609761 0)
(1.1247612 -0.0017348662 0)
(1.1242865 -0.0016176169 0)
(1.1238437 -0.0015085557 0)
(1.1234308 -0.0014070686 0)
(1.1230455 -0.001312594 0)
(1.1226861 -0.0012246172 0)
(1.1223509 -0.0011426661 0)
(1.1220381 -0.0010663073 0)
(1.1217463 -0.00099514214 0)
(1.1214739 -0.00092880383 0)
(1.1212198 -0.00086695373 0)
(1.1209827 -0.00080927884 0)
(1.1207614 -0.00075548908 0)
(1.1205549 -0.00070531497 0)
(1.1203621 -0.00065850641 0)
(1.1201821 -0.00061483095 0)
(1.1200142 -0.00057407313 0)
(1.1198574 -0.00053603353 0)
(1.1197111 -0.00050052718 0)
(1.1195745 -0.00046738293 0)
(1.119447 -0.00043644099 0)
(1.1193279 -0.000407552 0)
(1.1192168 -0.00038057543 0)
(1.119113 -0.00035537854 0)
(1.1190161 -0.00033183648 0)
(1.1189257 -0.00030983221 0)
(1.1188413 -0.00028925639 0)
(1.1187625 -0.00027000849 0)
(1.1186889 -0.00025199461 0)
(1.1186203 -0.00023512864 0)
(1.1185562 -0.00021932891 0)
(1.1184965 -0.00020451853 0)
(1.1184407 -0.00019062415 0)
(1.1183887 -0.0001775755 0)
(1.1183403 -0.000165308 0)
(1.1182952 -0.00015376058 0)
(1.1182532 -0.00014288192 0)
(1.1182142 -0.00013262211 0)
(1.1181779 -0.00012294599 0)
(1.1181442 -0.00011380892 0)
(1.1181129 -0.00010519217 0)
(1.1180839 -9.7044336e-05 0)
(1.1180571 -8.9369556e-05 0)
(1.1180324 -8.2094737e-05 0)
(1.1180095 -7.5269406e-05 0)
(1.1179887 -6.8770792e-05 0)
(1.1179693 -6.2741032e-05 0)
(1.1179519 -5.6940491e-05 0)
(1.1179356 -5.1701322e-05 0)
(1.1179212 -4.6518222e-05 0)
(1.1179078 -4.212329e-05 0)
(1.1178958 -3.7420597e-05 0)
(1.1178852 -3.401482e-05 0)
(1.1178747 -2.9554436e-05 0)
(1.1178679 -2.7524484e-05 0)
(1.1178565 -2.2996201e-05 0)
(1.0016583 -0.05381943 0)
(1.0359761 -0.10128444 0)
(1.0597199 -0.11073663 0)
(1.0628947 -0.10592202 0)
(1.0515569 -0.096228728 0)
(1.0340529 -0.083934061 0)
(1.0142795 -0.070327064 0)
(0.99360702 -0.056981334 0)
(0.97292576 -0.04510748 0)
(0.9531074 -0.03523675 0)
(0.93479539 -0.027401649 0)
(0.91829012 -0.021387226 0)
(0.90362379 -0.016884497 0)
(0.89068068 -0.013569708 0)
(0.87928174 -0.011147749 0)
(0.86923241 -0.00937366 0)
(0.86034423 -0.0080569302 0)
(0.85244666 -0.0070571297 0)
(0.84539241 -0.00627524 0)
(0.83905793 -0.0056438289 0)
(0.83334127 -0.0051180898 0)
(0.82815884 -0.0046686698 0)
(0.82344213 -0.0042764143 0)
(0.81913467 -0.0039287362 0)
(0.81518962 -0.0036172021 0)
(0.81156765 -0.0033359707 0)
(0.80823543 -0.0030808058 0)
(0.80516439 -0.0028484716 0)
(0.80232979 -0.0026363717 0)
(0.79970999 -0.0024423398 0)
(0.79728597 -0.0022645183 0)
(0.79504087 -0.0021012876 0)
(0.79295964 -0.0019512218 0)
(0.79102881 -0.0018130594 0)
(0.78923628 -0.0016856809 0)
(0.78757111 -0.0015680917 0)
(0.78602338 -0.001459407 0)
(0.78458411 -0.0013588386 0)
(0.78324511 -0.0012656837 0)
(0.78199889 -0.0011793142 0)
(0.78083861 -0.0010991677 0)
(0.779758 -0.0010247393 0)
(0.77875129 -0.00095557467 0)
(0.77781319 -0.00089126308 0)
(0.77693883 -0.00083143237 0)
(0.77612369 -0.00077574406 0)
(0.77536363 -0.00072388921 0)
(0.77465481 -0.00067558541 0)
(0.77399368 -0.00063057387 0)
(0.77337694 -0.0005886173 0)
(0.77280154 -0.00054949806 0)
(0.77226466 -0.00051301613 0)
(0.77176365 -0.00047898767 0)
(0.77129609 -0.00044724301 0)
(0.77085969 -0.00041762511 0)
(0.77045236 -0.00038998821 0)
(0.77007213 -0.00036419631 0)
(0.76971717 -0.00034012288 0)
(0.7693858 -0.00031764995 0)
(0.76907644 -0.00029666811 0)
(0.7687876 -0.00027707633 0)
(0.76851792 -0.00025878117 0)
(0.76826611 -0.00024169651 0)
(0.76803099 -0.00022574211 0)
(0.76781143 -0.00021084272 0)
(0.76760641 -0.00019692718 0)
(0.76741496 -0.00018392756 0)
(0.7672362 -0.00017177948 0)
(0.7670693 -0.00016042227 0)
(0.76691347 -0.00014979934 0)
(0.76676801 -0.00013985922 0)
(0.76663223 -0.0001305543 0)
(0.7665055 -0.00012184172 0)
(0.76638724 -0.00011368064 0)
(0.76627692 -0.00010603264 0)
(0.76617403 -9.8859652e-05 0)
(0.76607813 -9.2125268e-05 0)
(0.76598879 -8.5793703e-05 0)
(0.76590563 -7.9833612e-05 0)
(0.76582828 -7.4215056e-05 0)
(0.76575639 -6.8916098e-05 0)
(0.76568966 -6.3913926e-05 0)
(0.76562776 -5.9195205e-05 0)
(0.76557044 -5.4739249e-05 0)
(0.76551741 -5.0537883e-05 0)
(0.76546849 -4.6566058e-05 0)
(0.76542339 -4.2823487e-05 0)
(0.76538199 -3.9276946e-05 0)
(0.76534398 -3.5945202e-05 0)
(0.76530928 -3.2779637e-05 0)
(0.76527755 -2.9834227e-05 0)
(0.76524878 -2.7024945e-05 0)
(0.76522258 -2.4465748e-05 0)
(0.76519898 -2.1994462e-05 0)
(0.76517767 -1.9828871e-05 0)
(0.76515842 -1.7655068e-05 0)
(0.76514175 -1.5911529e-05 0)
(0.76512544 -1.3996508e-05 0)
(0.76511435 -1.2855272e-05 0)
(0.76509709 -1.1204086e-05 0)
(0.91890839 -0.035821912 0)
(0.86271384 -0.062195638 0)
(0.7870597 -0.06251009 0)
(0.69536033 -0.054550395 0)
(0.61089745 -0.044531651 0)
(0.54411592 -0.034015972 0)
(0.49343012 -0.02418754 0)
(0.45479413 -0.01614423 0)
(0.42544582 -0.010265786 0)
(0.40347313 -0.0063041451 0)
(0.38715767 -0.0037976289 0)
(0.3749622 -0.0023103373 0)
(0.36566193 -0.0014930141 0)
(0.35836272 -0.0010851178 0)
(0.35244267 -0.00090607243 0)
(0.347482 -0.00084105247 0)
(0.34320347 -0.00082372525 0)
(0.33942725 -0.0008193115 0)
(0.33603793 -0.00081185265 0)
(0.33296114 -0.00079580119 0)
(0.33014778 -0.00077081073 0)
(0.32756385 -0.00073870826 0)
(0.3251842 -0.00070188802 0)
(0.32298902 -0.00066256475 0)
(0.32096172 -0.00062249937 0)
(0.31908785 -0.00058295808 0)
(0.31735449 -0.00054477285 0)
(0.31574995 -0.00050843566 0)
(0.3142636 -0.00047419282 0)
(0.31288574 -0.00044212509 0)
(0.31160755 -0.000412209 0)
(0.31042102 -0.00038436029 0)
(0.30931883 -0.00035846315 0)
(0.30829439 -0.00033438857 0)
(0.30734165 -0.00031200558 0)
(0.30645516 -0.00029118753 0)
(0.30562991 -0.00027181524 0)
(0.30486136 -0.00025377851 0)
(0.30414535 -0.00023697623 0)
(0.30347806 -0.00022131621 0)
(0.30285601 -0.00020671451 0)
(0.30227596 -0.00019309459 0)
(0.30173497 -0.00018038661 0)
(0.3012303 -0.00016852644 0)
(0.30075943 -0.00015745508 0)
(0.30032002 -0.00014711798 0)
(0.29990993 -0.00013746454 0)
(0.29952715 -0.00012844793 0)
(0.29916983 -0.00012002468 0)
(0.29883624 -0.0001121547 0)
(0.29852478 -0.00010480103 0)
(0.29823397 -9.7929519e-05 0)
(0.29796242 -9.150874e-05 0)
(0.29770884 -8.5509356e-05 0)
(0.29747202 -7.9903948e-05 0)
(0.29725085 -7.4666645e-05 0)
(0.29704429 -6.9772879e-05 0)
(0.29685136 -6.5199595e-05 0)
(0.29667118 -6.0925094e-05 0)
(0.29650288 -5.6929393e-05 0)
(0.2963457 -5.3194256e-05 0)
(0.29619887 -4.9702962e-05 0)
(0.29606173 -4.6440369e-05 0)
(0.29593363 -4.339214e-05 0)
(0.29581396 -4.0544641e-05 0)
(0.29570218 -3.788451e-05 0)
(0.29559777 -3.5398537e-05 0)
(0.29550024 -3.3074026e-05 0)
(0.29540916 -3.0899024e-05 0)
(0.2953241 -2.8862613e-05 0)
(0.29524466 -2.6955584e-05 0)
(0.29517049 -2.5169453e-05 0)
(0.29510124 -2.3497335e-05 0)
(0.2950366 -2.1931882e-05 0)
(0.29497627 -2.0466259e-05 0)
(0.29491999 -1.9092443e-05 0)
(0.29486751 -1.7802772e-05 0)
(0.2948186 -1.6588999e-05 0)
(0.29477306 -1.5444784e-05 0)
(0.29473069 -1.4363847e-05 0)
(0.29469129 -1.3343336e-05 0)
(0.2946547 -1.2379293e-05 0)
(0.29462076 -1.1471117e-05 0)
(0.2945893 -1.0614523e-05 0)
(0.2945602 -9.8086515e-06 0)
(0.29453333 -9.0467821e-06 0)
(0.29450857 -8.3287192e-06 0)
(0.29448581 -7.6457438e-06 0)
(0.29446493 -7.0026052e-06 0)
(0.29444585 -6.3886376e-06 0)
(0.29442842 -5.8177174e-06 0)
(0.29441258 -5.2733704e-06 0)
(0.29439818 -4.7803519e-06 0)
(0.29438518 -4.3068981e-06 0)
(0.29437344 -3.8896802e-06 0)
(0.2943629 -3.4830809e-06 0)
(0.29435354 -3.1390883e-06 0)
(0.2943449 -2.829997e-06 0)
(0.29433789 -2.5830447e-06 0)
(0.29432913 -2.5513145e-06 0)
)
;

boundaryField
{
    top
    {
        type            fixedValue;
        value           uniform (0 0 0);
    }
    inlet
    {
        type            fixedValue;
        value           uniform (1 0 0);
    }
    outlet
    {
        type            zeroGradient;
    }
    bottom
    {
        type            fixedValue;
        value           uniform (0 0 0);
    }
    back
    {
        type            empty;
    }
    front
    {
        type            empty;
    }
}


// ************************************************************************* //
