/*--------------------------------*- C++ -*----------------------------------*\
| =========                 |                                                 |
| \\      /  F ield         | OpenFOAM: The Open Source CFD Toolbox           |
|  \\    /   O peration     | Version:  v1812                                 |
|   \\  /    A nd           | Web:      www.OpenFOAM.com                      |
|    \\/     M anipulation  |                                                 |
\*---------------------------------------------------------------------------*/
FoamFile
{
    version     2.0;
    format      ascii;
    class       volVectorField;
    location    "1";
    object      U;
}
// * * * * * * * * * * * * * * * * * * * * * * * * * * * * * * * * * * * * * //

dimensions      [0 1 -1 0 0 0 0];


internalField   nonuniform List<vector> 
1000
(
(0.079112672 0.00017495092 0)
(0.079377961 0.00014287276 0)
(0.07879274 -3.0738859e-05 0)
(0.078885362 -4.5185741e-05 0)
(0.078978132 -2.6148178e-06 0)
(0.078959251 1.0640726e-05 0)
(0.078944943 9.2388877e-06 0)
(0.078938008 7.1400224e-06 0)
(0.078929874 4.9190101e-06 0)
(0.078923673 2.9707751e-06 0)
(0.078920141 1.6999583e-06 0)
(0.078918161 9.6193124e-07 0)
(0.078917018 5.3861274e-07 0)
(0.07891637 2.9813758e-07 0)
(0.07891601 1.6379997e-07 0)
(0.078915812 8.9544377e-08 0)
(0.078915704 4.8641797e-08 0)
(0.078915645 2.6241219e-08 0)
(0.078915614 1.4042645e-08 0)
(0.078915597 7.4754769e-09 0)
(0.078915588 3.9423796e-09 0)
(0.078915583 2.0735713e-09 0)
(0.078915581 1.0649176e-09 0)
(0.078915579 5.4708481e-10 0)
(0.078915579 2.6184096e-10 0)
(0.078915579 1.2723362e-10 0)
(0.078915578 2.7992076e-11 0)
(0.078915578 -2.6045465e-11 0)
(0.078915579 -7.8376944e-11 0)
(0.078915579 -9.1082175e-11 0)
(0.078915579 -1.0797381e-10 0)
(0.078915579 -9.3004679e-11 0)
(0.078915579 -8.324544e-11 0)
(0.078915579 -4.7744081e-11 0)
(0.078915579 -2.5948506e-11 0)
(0.078915579 1.7005888e-11 0)
(0.078915579 3.5912889e-11 0)
(0.078915579 7.0560038e-11 0)
(0.078915579 7.3648171e-11 0)
(0.078915579 8.7147459e-11 0)
(0.078915579 7.1370108e-11 0)
(0.078915578 6.6593712e-11 0)
(0.078915578 3.1907835e-11 0)
(0.078915578 1.3981258e-11 0)
(0.078915578 -2.7230335e-11 0)
(0.078915579 -4.8935945e-11 0)
(0.078915579 -8.84824e-11 0)
(0.078915579 -1.0093857e-10 0)
(0.078915579 -1.2112362e-10 0)
(0.078915579 -1.13673e-10 0)
(0.07891558 -1.1621339e-10 0)
(0.07891558 -9.0759744e-11 0)
(0.07891558 -7.4093624e-11 0)
(0.07891558 -3.2228802e-11 0)
(0.07891558 -8.1272282e-12 0)
(0.07891558 4.0455015e-11 0)
(0.07891558 6.9319608e-11 0)
(0.078915579 1.1218434e-10 0)
(0.078915579 1.2814705e-10 0)
(0.078915579 1.5539929e-10 0)
(0.078915579 1.5538793e-10 0)
(0.078915578 1.6569766e-10 0)
(0.078915578 1.4498791e-10 0)
(0.078915578 1.3588502e-10 0)
(0.078915578 9.9404096e-11 0)
(0.078915578 7.602976e-11 0)
(0.078915578 2.5656488e-11 0)
(0.078915578 -4.7435365e-12 0)
(0.078915578 -6.1333572e-11 0)
(0.078915578 -9.4451258e-11 0)
(0.078915578 -1.4156704e-10 0)
(0.078915579 -1.6443955e-10 0)
(0.078915579 -1.9678879e-10 0)
(0.078915579 -2.0369433e-10 0)
(0.078915579 -2.2054528e-10 0)
(0.07891558 -2.1067833e-10 0)
(0.07891558 -2.0747404e-10 0)
(0.07891558 -1.7899803e-10 0)
(0.07891558 -1.6151258e-10 0)
(0.07891558 -1.2037823e-10 0)
(0.078915581 -8.8261128e-11 0)
(0.078915581 -3.2776034e-11 0)
(0.078915581 7.8853204e-12 0)
(0.07891558 7.9857251e-11 0)
(0.07891558 1.360163e-10 0)
(0.07891558 2.0469466e-10 0)
(0.07891558 2.3932214e-10 0)
(0.07891558 2.661012e-10 0)
(0.078915579 2.2456722e-10 0)
(0.078915579 1.2691916e-10 0)
(0.07891558 -1.5718543e-10 0)
(0.078915581 -7.7157194e-10 0)
(0.078915585 -2.3799255e-09 0)
(0.078915591 -6.0283754e-09 0)
(0.078915588 -1.3986767e-08 0)
(0.078915636 -4.1961089e-08 0)
(0.078915978 -1.221294e-07 0)
(0.078915963 -1.5740288e-07 0)
(0.078914561 9.1197468e-08 0)
(0.078917599 2.9551653e-07 0)
(0.13187217 0.00027976063 0)
(0.13344739 0.00016882033 0)
(0.13241963 -0.00014864391 0)
(0.1325457 -0.00015716156 0)
(0.13274986 -5.6030424e-05 0)
(0.13274675 -7.6214812e-06 0)
(0.13274999 5.7355717e-06 0)
(0.13276361 9.2149479e-06 0)
(0.13276605 8.0875171e-06 0)
(0.13276468 5.5634972e-06 0)
(0.13276371 3.4799531e-06 0)
(0.13276304 2.10082e-06 0)
(0.13276252 1.2381564e-06 0)
(0.13276217 7.1538865e-07 0)
(0.13276195 4.077521e-07 0)
(0.13276182 2.3004801e-07 0)
(0.13276174 1.2856204e-07 0)
(0.13276169 7.1170753e-08 0)
(0.13276167 3.9016842e-08 0)
(0.13276165 2.1197921e-08 0)
(0.13276165 1.1409733e-08 0)
(0.13276164 6.0828639e-09 0)
(0.13276164 3.1945929e-09 0)
(0.13276164 1.6483476e-09 0)
(0.13276164 8.165428e-10 0)
(0.13276164 3.7053964e-10 0)
(0.13276164 1.0839145e-10 0)
(0.13276164 -4.5310914e-11 0)
(0.13276164 -1.4392982e-10 0)
(0.13276164 -1.8703115e-10 0)
(0.13276164 -2.0737401e-10 0)
(0.13276164 -1.9146143e-10 0)
(0.13276164 -1.5966136e-10 0)
(0.13276164 -1.0536084e-10 0)
(0.13276164 -5.0581113e-11 0)
(0.13276164 1.3107817e-11 0)
(0.13276164 6.5626609e-11 0)
(0.13276164 1.1178629e-10 0)
(0.13276164 1.363617e-10 0)
(0.13276164 1.4757491e-10 0)
(0.13276164 1.3553927e-10 0)
(0.13276164 1.1164131e-10 0)
(0.13276164 6.3984734e-11 0)
(0.13276164 1.3366532e-11 0)
(0.13276164 -4.5132778e-11 0)
(0.13276164 -9.9649179e-11 0)
(0.13276164 -1.5574777e-10 0)
(0.13276164 -1.9486616e-10 0)
(0.13276164 -2.2119267e-10 0)
(0.13276164 -2.2275314e-10 0)
(0.13276164 -2.1498217e-10 0)
(0.13276164 -1.8155338e-10 0)
(0.13276164 -1.3668706e-10 0)
(0.13276164 -7.2998888e-11 0)
(0.13276164 -1.0384897e-11 0)
(0.13276164 6.1176506e-11 0)
(0.13276164 1.3070729e-10 0)
(0.13276164 1.9755922e-10 0)
(0.13276164 2.4548745e-10 0)
(0.13276164 2.8615774e-10 0)
(0.13276164 3.0390187e-10 0)
(0.13276164 3.1168131e-10 0)
(0.13276164 2.897262e-10 0)
(0.13276164 2.5921971e-10 0)
(0.13276164 2.0622071e-10 0)
(0.13276164 1.4780319e-10 0)
(0.13276164 6.9174423e-11 0)
(0.13276164 -7.5830038e-12 0)
(0.13276164 -9.166038e-11 0)
(0.13276164 -1.6906818e-10 0)
(0.13276164 -2.4879746e-10 0)
(0.13276164 -3.0878314e-10 0)
(0.13276164 -3.6296753e-10 0)
(0.13276164 -3.9247357e-10 0)
(0.13276164 -4.1699446e-10 0)
(0.13276164 -4.1388871e-10 0)
(0.13276164 -4.0038867e-10 0)
(0.13276164 -3.6203476e-10 0)
(0.13276164 -3.2029427e-10 0)
(0.13276164 -2.5782336e-10 0)
(0.13276164 -1.8934068e-10 0)
(0.13276164 -1.0316629e-10 0)
(0.13276164 -1.5850036e-11 0)
(0.13276164 9.0476376e-11 0)
(0.13276164 1.9994878e-10 0)
(0.13276164 2.9500742e-10 0)
(0.13276164 3.3086968e-10 0)
(0.13276164 2.6951925e-10 0)
(0.13276164 4.0654276e-11 0)
(0.13276164 -4.6495502e-10 0)
(0.13276164 -1.5147057e-09 0)
(0.13276164 -3.6483013e-09 0)
(0.13276165 -8.4019556e-09 0)
(0.13276166 -1.8512662e-08 0)
(0.13276165 -3.7770908e-08 0)
(0.13276167 -9.1765956e-08 0)
(0.13276219 -2.5184145e-07 0)
(0.13276184 -3.5004491e-07 0)
(0.13275826 1.824413e-07 0)
(0.13276551 6.6094912e-07 0)
(0.14694343 0.00015373238 0)
(0.14885979 5.5081262e-06 0)
(0.14746328 -0.00021148475 0)
(0.14743878 -0.00019221436 0)
(0.14759084 -9.6946159e-05 0)
(0.14755523 -3.7960963e-05 0)
(0.1475519 -1.0672629e-05 0)
(0.14756909 8.7384598e-07 0)
(0.14757522 4.0847574e-06 0)
(0.14757676 3.8598424e-06 0)
(0.14757795 2.8447921e-06 0)
(0.14757867 1.9071416e-06 0)
(0.14757898 1.2111629e-06 0)
(0.14757911 7.4147887e-07 0)
(0.14757917 4.4271483e-07 0)
(0.1475792 2.5945138e-07 0)
(0.14757922 1.4969129e-07 0)
(0.14757922 8.5161464e-08 0)
(0.14757923 4.7830487e-08 0)
(0.14757923 2.6531975e-08 0)
(0.14757923 1.4544189e-08 0)
(0.14757923 7.8617129e-09 0)
(0.14757923 4.1917858e-09 0)
(0.14757923 2.1857221e-09 0)
(0.14757923 1.0986215e-09 0)
(0.14757923 4.9348756e-10 0)
(0.14757923 1.6821718e-10 0)
(0.14757923 -1.8164371e-11 0)
(0.14757923 -1.0757206e-10 0)
(0.14757923 -1.5895556e-10 0)
(0.14757923 -1.6806884e-10 0)
(0.14757923 -1.6099253e-10 0)
(0.14757923 -1.2674873e-10 0)
(0.14757923 -8.8829697e-11 0)
(0.14757923 -3.8069267e-11 0)
(0.14757923 5.2582924e-12 0)
(0.14757923 5.4630962e-11 0)
(0.14757923 8.4079025e-11 0)
(0.14757923 1.0837322e-10 0)
(0.14757923 1.1285429e-10 0)
(0.14757923 1.0915214e-10 0)
(0.14757923 8.2862846e-11 0)
(0.14757923 5.1186323e-11 0)
(0.14757923 3.2168454e-12 0)
(0.14757923 -3.7529112e-11 0)
(0.14757923 -8.6286671e-11 0)
(0.14757923 -1.244885e-10 0)
(0.14757923 -1.5813105e-10 0)
(0.14757923 -1.7571752e-10 0)
(0.14757923 -1.8499893e-10 0)
(0.14757923 -1.7423469e-10 0)
(0.14757923 -1.547236e-10 0)
(0.14757923 -1.1322615e-10 0)
(0.14757923 -7.0244731e-11 0)
(0.14757923 -1.2562521e-11 0)
(0.14757923 3.8609954e-11 0)
(0.14757923 9.8645169e-11 0)
(0.14757923 1.484989e-10 0)
(0.14757923 1.9457799e-10 0)
(0.14757923 2.2571631e-10 0)
(0.14757923 2.5141377e-10 0)
(0.14757923 2.5456108e-10 0)
(0.14757923 2.4895125e-10 0)
(0.14757923 2.2047571e-10 0)
(0.14757923 1.8791239e-10 0)
(0.14757923 1.3497616e-10 0)
(0.14757923 8.0620496e-11 0)
(0.14757923 1.2132051e-11 0)
(0.14757923 -4.7766681e-11 0)
(0.14757923 -1.1474263e-10 0)
(0.14757923 -1.759588e-10 0)
(0.14757923 -2.3611496e-10 0)
(0.14757923 -2.7906381e-10 0)
(0.14757923 -3.1709148e-10 0)
(0.14757923 -3.3514234e-10 0)
(0.14757923 -3.4667099e-10 0)
(0.14757923 -3.3458546e-10 0)
(0.14757923 -3.1930507e-10 0)
(0.14757923 -2.8469504e-10 0)
(0.14757923 -2.4912701e-10 0)
(0.14757923 -1.9503112e-10 0)
(0.14757923 -1.4264671e-10 0)
(0.14757923 -7.2646583e-11 0)
(0.14757923 -7.6177782e-12 0)
(0.14757923 6.3598381e-11 0)
(0.14757923 9.8438073e-11 0)
(0.14757923 5.8997828e-11 0)
(0.14757923 -1.4438058e-10 0)
(0.14757923 -5.8785647e-10 0)
(0.14757923 -1.4967526e-09 0)
(0.14757923 -3.2008035e-09 0)
(0.14757923 -6.5023106e-09 0)
(0.14757923 -1.3075641e-08 0)
(0.14757924 -2.6119763e-08 0)
(0.1475792 -4.947146e-08 0)
(0.14757917 -9.7976183e-08 0)
(0.14757967 -2.1834297e-07 0)
(0.14757931 -2.8839637e-07 0)
(0.14757489 1.7291096e-07 0)
(0.14758347 6.0397659e-07 0)
(0.1506722 6.8387083e-05 0)
(0.15261905 -2.0602046e-05 0)
(0.15105844 -0.00013361629 0)
(0.15095466 -0.00012643812 0)
(0.15106132 -7.3514548e-05 0)
(0.15099444 -3.4180717e-05 0)
(0.15097654 -1.2931488e-05 0)
(0.15098823 -2.8612784e-06 0)
(0.15099232 9.5867074e-07 0)
(0.15099352 1.7879733e-06 0)
(0.15099508 1.599021e-06 0)
(0.15099627 1.1842351e-06 0)
(0.15099696 8.0106945e-07 0)
(0.15099736 5.1324689e-07 0)
(0.1509976 3.1707006e-07 0)
(0.15099775 1.9068807e-07 0)
(0.15099783 1.1230758e-07 0)
(0.15099787 6.4918349e-08 0)
(0.1509979 3.6942551e-08 0)
(0.15099792 2.0671693e-08 0)
(0.15099792 1.1413942e-08 0)
(0.15099793 6.1758056e-09 0)
(0.15099793 3.3041503e-09 0)
(0.15099793 1.7004917e-09 0)
(0.15099793 8.5544635e-10 0)
(0.15099793 3.7102693e-10 0)
(0.15099793 1.3942435e-10 0)
(0.15099793 -1.0509883e-11 0)
(0.15099793 -5.4161105e-11 0)
(0.15099793 -1.0092303e-10 0)
(0.15099793 -8.3923412e-11 0)
(0.15099793 -9.3347465e-11 0)
(0.15099793 -5.1891163e-11 0)
(0.15099793 -4.4727054e-11 0)
(0.15099793 5.0704735e-12 0)
(0.15099793 1.4942255e-11 0)
(0.15099793 5.9041012e-11 0)
(0.15099793 6.1370915e-11 0)
(0.15099793 9.0290279e-11 0)
(0.15099793 7.1440062e-11 0)
(0.15099793 8.2882612e-11 0)
(0.15099793 4.7184923e-11 0)
(0.15099793 4.3021119e-11 0)
(0.15099793 -3.0702313e-12 0)
(0.15099793 -1.5623637e-11 0)
(0.15099793 -6.3492746e-11 0)
(0.15099793 -7.234826e-11 0)
(0.15099793 -1.1174247e-10 0)
(0.15099793 -1.0421097e-10 0)
(0.15099793 -1.281876e-10 0)
(0.15099793 -1.0404368e-10 0)
(0.15099793 -1.1083881e-10 0)
(0.15099793 -7.1117536e-11 0)
(0.15099793 -6.2120513e-11 0)
(0.15099793 -1.1519691e-11 0)
(0.15099793 7.0095413e-12 0)
(0.15099793 6.1525851e-11 0)
(0.15099793 7.8057267e-11 0)
(0.15099793 1.2806637e-10 0)
(0.15099793 1.3003859e-10 0)
(0.15099793 1.6721966e-10 0)
(0.15099793 1.5428367e-10 0)
(0.15099793 1.7532178e-10 0)
(0.15099793 1.4483923e-10 0)
(0.15099793 1.4687375e-10 0)
(0.15099793 1.0023016e-10 0)
(0.15099793 8.6021058e-11 0)
(0.15099793 2.8952303e-11 0)
(0.15099793 4.3271263e-12 0)
(0.15099793 -5.7124728e-11 0)
(0.15099793 -7.7818717e-11 0)
(0.15099793 -1.3636849e-10 0)
(0.15099793 -1.4882542e-10 0)
(0.15099793 -1.9701561e-10 0)
(0.15099793 -1.9825852e-10 0)
(0.15099793 -2.3134038e-10 0)
(0.15099793 -2.1675271e-10 0)
(0.15099793 -2.3267689e-10 0)
(0.15099793 -2.0375649e-10 0)
(0.15099793 -2.0639049e-10 0)
(0.15099793 -1.6709013e-10 0)
(0.15099793 -1.5873454e-10 0)
(0.15099793 -1.0927144e-10 0)
(0.15099793 -9.1112647e-11 0)
(0.15099793 -4.6774716e-11 0)
(0.15099793 -6.2364365e-11 0)
(0.15099793 -1.0846125e-10 0)
(0.15099793 -3.1640448e-10 0)
(0.15099793 -7.1301551e-10 0)
(0.15099793 -1.5360262e-09 0)
(0.15099793 -3.0198714e-09 0)
(0.15099793 -5.8357058e-09 0)
(0.15099793 -1.1081687e-08 0)
(0.15099793 -2.0910015e-08 0)
(0.15099788 -3.7726009e-08 0)
(0.15099782 -6.6866788e-08 0)
(0.1509983 -1.2291554e-07 0)
(0.150998 -1.4613664e-07 0)
(0.15099338 8.9245002e-08 0)
(0.15100218 3.2218485e-07 0)
(0.15143154 1.8832076e-05 0)
(0.15337641 -8.8003598e-06 0)
(0.15177995 -4.2747625e-05 0)
(0.15166258 -4.1963273e-05 0)
(0.1517559 -2.6064454e-05 0)
(0.15167532 -1.2969836e-05 0)
(0.15164867 -5.4052967e-06 0)
(0.15165586 -1.643728e-06 0)
(0.15165775 -4.4596207e-08 0)
(0.151658 4.2678787e-07 0)
(0.15165931 4.6672343e-07 0)
(0.15166052 3.7334814e-07 0)
(0.15166129 2.6327484e-07 0)
(0.15166178 1.7310243e-07 0)
(0.15166209 1.0853217e-07 0)
(0.15166228 6.5676386e-08 0)
(0.15166239 3.8675762e-08 0)
(0.15166246 2.2231862e-08 0)
(0.1516625 1.2471394e-08 0)
(0.15166252 6.8127601e-09 0)
(0.15166253 3.6144545e-09 0)
(0.15166254 1.8511526e-09 0)
(0.15166254 9.0021709e-10 0)
(0.15166255 3.980409e-10 0)
(0.15166255 1.4324683e-10 0)
(0.15166255 2.196612e-11 0)
(0.15166255 -3.4606253e-11 0)
(0.15166255 -5.457613e-11 0)
(0.15166255 -5.5792369e-11 0)
(0.15166255 -4.797836e-11 0)
(0.15166255 -3.3590102e-11 0)
(0.15166255 -2.1836854e-11 0)
(0.15166255 -5.2759905e-12 0)
(0.15166255 8.4791188e-12 0)
(0.15166255 2.5032566e-11 0)
(0.15166255 3.4392602e-11 0)
(0.15166255 4.5024321e-11 0)
(0.15166255 5.0509856e-11 0)
(0.15166255 5.7107399e-11 0)
(0.15166255 5.118659e-11 0)
(0.15166255 4.7984616e-11 0)
(0.15166255 3.7650178e-11 0)
(0.15166255 2.9127564e-11 0)
(0.15166255 1.2663429e-11 0)
(0.15166255 -1.7475739e-12 0)
(0.15166255 -1.7945031e-11 0)
(0.15166255 -2.9285828e-11 0)
(0.15166255 -4.6317526e-11 0)
(0.15166255 -5.3204883e-11 0)
(0.15166255 -6.077719e-11 0)
(0.15166255 -5.9745891e-11 0)
(0.15166255 -6.1094913e-11 0)
(0.15166255 -5.3790152e-11 0)
(0.15166255 -4.4257011e-11 0)
(0.15166255 -2.8849035e-11 0)
(0.15166255 -1.4626709e-11 0)
(0.15166255 5.3651813e-12 0)
(0.15166255 2.2859576e-11 0)
(0.15166255 4.5130448e-11 0)
(0.15166255 5.739945e-11 0)
(0.15166255 7.3481987e-11 0)
(0.15166255 8.2636036e-11 0)
(0.15166255 9.4542213e-11 0)
(0.15166255 9.449384e-11 0)
(0.15166255 9.5186881e-11 0)
(0.15166255 8.7456851e-11 0)
(0.15166255 7.8485473e-11 0)
(0.15166255 5.9314505e-11 0)
(0.15166255 4.1647489e-11 0)
(0.15166255 1.7196932e-11 0)
(0.15166255 -3.1983333e-12 0)
(0.15166255 -2.8830253e-11 0)
(0.15166255 -5.0587913e-11 0)
(0.15166255 -7.2903053e-11 0)
(0.15166255 -9.0493034e-11 0)
(0.15166255 -1.0966652e-10 0)
(0.15166255 -1.2285004e-10 0)
(0.15166255 -1.3335101e-10 0)
(0.15166255 -1.393029e-10 0)
(0.15166255 -1.4469623e-10 0)
(0.15166255 -1.4806677e-10 0)
(0.15166255 -1.4818979e-10 0)
(0.15166255 -1.4478019e-10 0)
(0.15166255 -1.4028881e-10 0)
(0.15166255 -1.3163401e-10 0)
(0.15166255 -1.30335e-10 0)
(0.15166255 -1.4588372e-10 0)
(0.15166255 -2.0893993e-10 0)
(0.15166255 -3.6177957e-10 0)
(0.15166255 -6.6076502e-10 0)
(0.15166254 -1.2308781e-09 0)
(0.15166254 -2.2644384e-09 0)
(0.15166254 -4.1774218e-09 0)
(0.15166253 -7.6334653e-09 0)
(0.15166248 -1.3461472e-08 0)
(0.15166241 -2.2790438e-08 0)
(0.15166288 -3.7946974e-08 0)
(0.15166262 -4.1772887e-08 0)
(0.15165798 2.4967106e-08 0)
(0.15166678 9.3829325e-08 0)
(0.15143154 -1.8831056e-05 0)
(0.15337637 8.7723777e-06 0)
(0.15177992 4.2695533e-05 0)
(0.15166257 4.1903453e-05 0)
(0.15175589 2.6002215e-05 0)
(0.15167531 1.2913967e-05 0)
(0.15164867 5.3620654e-06 0)
(0.15165586 1.6105291e-06 0)
(0.15165775 1.5026723e-08 0)
(0.151658 -4.5262578e-07 0)
(0.15165932 -4.8925456e-07 0)
(0.15166052 -3.9243422e-07 0)
(0.15166129 -2.7928258e-07 0)
(0.15166178 -1.8617957e-07 0)
(0.15166209 -1.1917568e-07 0)
(0.15166228 -7.4089711e-08 0)
(0.15166239 -4.5306009e-08 0)
(0.15166246 -2.725731e-08 0)
(0.1516625 -1.6310977e-08 0)
(0.15166252 -9.6371753e-09 0)
(0.15166253 -5.7481849e-09 0)
(0.15166254 -3.3605909e-09 0)
(0.15166254 -2.0336269e-09 0)
(0.15166255 -1.1753229e-09 0)
(0.15166255 -7.4066415e-10 0)
(0.15166255 -4.0207476e-10 0)
(0.15166255 -2.7609301e-10 0)
(0.15166255 -1.1235033e-10 0)
(0.15166255 -9.7335879e-11 0)
(0.15166255 -1.1216952e-12 0)
(0.15166255 -2.6268148e-11 0)
(0.15166255 4.4167373e-11 0)
(0.15166255 4.1425746e-12 0)
(0.15166255 6.5934729e-11 0)
(0.15166255 1.4411293e-11 0)
(0.15166255 6.2620373e-11 0)
(0.15166255 1.0004639e-11 0)
(0.15166255 5.9845197e-11 0)
(0.15166255 3.2496222e-12 0)
(0.15166255 5.3534304e-11 0)
(0.15166255 -1.052425e-12 0)
(0.15166255 5.2268856e-11 0)
(0.15166255 -2.0321285e-13 0)
(0.15166255 4.7000844e-11 0)
(0.15166255 -5.3727163e-12 0)
(0.15166255 4.3825205e-11 0)
(0.15166255 -1.0924776e-11 0)
(0.15166255 3.3398354e-11 0)
(0.15166255 -2.6853343e-11 0)
(0.15166255 1.8746862e-11 0)
(0.15166255 -4.2740424e-11 0)
(0.15166255 -1.1661669e-12 0)
(0.15166255 -5.763863e-11 0)
(0.15166255 -1.1927889e-11 0)
(0.15166255 -6.4926551e-11 0)
(0.15166255 -1.6797868e-11 0)
(0.15166255 -6.4096863e-11 0)
(0.15166255 -6.2737825e-12 0)
(0.15166255 -5.0209177e-11 0)
(0.15166255 1.4140038e-11 0)
(0.15166255 -2.6820604e-11 0)
(0.15166255 4.4584521e-11 0)
(0.15166255 1.7890986e-12 0)
(0.15166255 6.7370281e-11 0)
(0.15166255 2.722831e-11 0)
(0.15166255 9.2319763e-11 0)
(0.15166255 4.7596311e-11 0)
(0.15166255 1.0100453e-10 0)
(0.15166255 5.0385309e-11 0)
(0.15166255 9.8542501e-11 0)
(0.15166255 4.0032306e-11 0)
(0.15166255 7.6191894e-11 0)
(0.15166255 1.1318917e-11 0)
(0.15166255 4.7424166e-11 0)
(0.15166255 -1.8810835e-11 0)
(0.15166255 1.3502763e-11 0)
(0.15166255 -5.1167928e-11 0)
(0.15166255 -1.7131698e-11 0)
(0.15166255 -8.5617662e-11 0)
(0.15166255 -6.1167673e-11 0)
(0.15166255 -1.3095402e-10 0)
(0.15166255 -1.0560357e-10 0)
(0.15166255 -1.7488814e-10 0)
(0.15166255 -1.4501053e-10 0)
(0.15166255 -1.9206267e-10 0)
(0.15166255 -1.200031e-10 0)
(0.15166255 -1.119287e-10 0)
(0.15166255 5.4887378e-11 0)
(0.15166255 1.9839915e-10 0)
(0.15166255 5.8427104e-10 0)
(0.15166254 1.1555181e-09 0)
(0.15166254 2.3306854e-09 0)
(0.15166254 4.3354014e-09 0)
(0.15166253 8.0104327e-09 0)
(0.15166248 1.3897485e-08 0)
(0.15166241 2.329315e-08 0)
(0.15166288 3.8327407e-08 0)
(0.15166262 4.1986283e-08 0)
(0.15165798 -2.4910601e-08 0)
(0.15166678 -9.3837773e-08 0)
(0.15067221 -6.841407e-05 0)
(0.15261904 2.0571371e-05 0)
(0.15105843 0.00013356846 0)
(0.15095464 0.00012637371 0)
(0.1510613 7.3450007e-05 0)
(0.15099444 3.4129481e-05 0)
(0.15097655 1.2893149e-05 0)
(0.15098823 2.8300596e-06 0)
(0.15099233 -9.8292651e-07 0)
(0.15099353 -1.8088903e-06 0)
(0.15099508 -1.6173067e-06 0)
(0.15099628 -1.1999881e-06 0)
(0.15099697 -8.1424952e-07 0)
(0.15099737 -5.2424479e-07 0)
(0.15099761 -3.2599881e-07 0)
(0.15099775 -1.9790594e-07 0)
(0.15099783 -1.1799971e-07 0)
(0.15099788 -6.9413694e-08 0)
(0.1509979 -4.0360607e-08 0)
(0.15099792 -2.3290144e-08 0)
(0.15099792 -1.3324147e-08 0)
(0.15099793 -7.6160083e-09 0)
(0.15099793 -4.3211549e-09 0)
(0.15099793 -2.4713876e-09 0)
(0.15099793 -1.3759577e-09 0)
(0.15099793 -7.8024787e-10 0)
(0.15099793 -4.0536671e-10 0)
(0.15099793 -2.2004288e-10 0)
(0.15099793 -7.2811745e-11 0)
(0.15099793 -1.6536807e-11 0)
(0.15099793 4.2599473e-11 0)
(0.15099793 4.3857371e-11 0)
(0.15099793 7.1519829e-11 0)
(0.15099793 5.0618191e-11 0)
(0.15099793 5.8855289e-11 0)
(0.15099793 2.48396e-11 0)
(0.15099793 3.2278765e-11 0)
(0.15099793 8.6662978e-13 0)
(0.15099793 9.9793148e-12 0)
(0.15099793 -1.5963464e-11 0)
(0.15099793 7.3338621e-12 0)
(0.15099793 -5.8869115e-12 0)
(0.15099793 2.0541505e-11 0)
(0.15099793 1.131183e-11 0)
(0.15099793 4.450874e-11 0)
(0.15099793 3.677941e-11 0)
(0.15099793 6.0930566e-11 0)
(0.15099793 4.175699e-11 0)
(0.15099793 6.0286564e-11 0)
(0.15099793 3.403475e-11 0)
(0.15099793 4.1416456e-11 0)
(0.15099793 6.0685523e-12 0)
(0.15099793 8.7603147e-12 0)
(0.15099793 -2.8647896e-11 0)
(0.15099793 -2.9659929e-11 0)
(0.15099793 -6.8365155e-11 0)
(0.15099793 -6.122914e-11 0)
(0.15099793 -8.9286464e-11 0)
(0.15099793 -7.393412e-11 0)
(0.15099793 -9.2234524e-11 0)
(0.15099793 -6.0619735e-11 0)
(0.15099793 -6.6209308e-11 0)
(0.15099793 -3.2519301e-11 0)
(0.15099793 -3.1921585e-11 0)
(0.15099793 1.1493007e-11 0)
(0.15099793 1.8510109e-11 0)
(0.15099793 6.0973694e-11 0)
(0.15099793 6.2576403e-11 0)
(0.15099793 1.0386033e-10 0)
(0.15099793 1.0317315e-10 0)
(0.15099793 1.3032141e-10 0)
(0.15099793 1.1413052e-10 0)
(0.15099793 1.3192448e-10 0)
(0.15099793 1.066523e-10 0)
(0.15099793 1.1099626e-10 0)
(0.15099793 7.8036854e-11 0)
(0.15099793 7.9717023e-11 0)
(0.15099793 4.1673902e-11 0)
(0.15099793 3.2467377e-11 0)
(0.15099793 -1.9849169e-11 0)
(0.15099793 -3.6197744e-11 0)
(0.15099793 -9.7198233e-11 0)
(0.15099793 -1.2495575e-10 0)
(0.15099793 -1.8424268e-10 0)
(0.15099793 -1.7860121e-10 0)
(0.15099793 -1.667165e-10 0)
(0.15099793 -3.5736255e-11 0)
(0.15099793 1.7897366e-10 0)
(0.15099793 6.6156743e-10 0)
(0.15099793 1.4802935e-09 0)
(0.15099793 3.0372858e-09 0)
(0.15099793 5.8762974e-09 0)
(0.15099793 1.1282565e-08 0)
(0.15099793 2.1213219e-08 0)
(0.15099788 3.8180898e-08 0)
(0.15099782 6.7325627e-08 0)
(0.1509983 1.2325991e-07 0)
(0.150998 1.4629162e-07 0)
(0.15099338 -8.9227862e-08 0)
(0.15100218 -3.2221586e-07 0)
(0.14694341 -0.0001537466 0)
(0.14885984 -5.5393957e-06 0)
(0.14746327 0.0002114546 0)
(0.14743876 0.00019218721 0)
(0.14759083 9.6911748e-05 0)
(0.14755521 3.7930474e-05 0)
(0.1475519 1.0646872e-05 0)
(0.14756909 -8.9764927e-07 0)
(0.14757522 -4.103275e-06 0)
(0.14757676 -3.8743823e-06 0)
(0.14757795 -2.8561983e-06 0)
(0.14757868 -1.9167135e-06 0)
(0.14757899 -1.219237e-06 0)
(0.14757912 -7.4847842e-07 0)
(0.14757918 -4.4860613e-07 0)
(0.14757921 -2.6443491e-07 0)
(0.14757922 -1.5366659e-07 0)
(0.14757923 -8.8385248e-08 0)
(0.14757923 -5.030124e-08 0)
(0.14757923 -2.8468129e-08 0)
(0.14757923 -1.5942926e-08 0)
(0.14757923 -8.9718834e-09 0)
(0.14757923 -4.9807655e-09 0)
(0.14757923 -2.8165649e-09 0)
(0.14757923 -1.5183994e-09 0)
(0.14757923 -8.6093247e-10 0)
(0.14757923 -3.9497982e-10 0)
(0.14757923 -2.0998415e-10 0)
(0.14757923 -1.0583816e-11 0)
(0.14757923 1.8833508e-11 0)
(0.14757923 1.1342161e-10 0)
(0.14757923 7.3859505e-11 0)
(0.14757923 1.2386349e-10 0)
(0.14757923 4.8388186e-11 0)
(0.14757923 7.2957158e-11 0)
(0.14757923 -7.3026711e-12 0)
(0.14757923 2.0953476e-11 0)
(0.14757923 -5.4660741e-11 0)
(0.14757923 -1.4694726e-11 0)
(0.14757923 -7.0564646e-11 0)
(0.14757923 -5.5863837e-12 0)
(0.14757923 -4.3519704e-11 0)
(0.14757923 2.9145828e-11 0)
(0.14757923 4.9752934e-12 0)
(0.14757923 8.7204813e-11 0)
(0.14757923 5.8311248e-11 0)
(0.14757923 1.2651678e-10 0)
(0.14757923 8.686693e-11 0)
(0.14757923 1.4457749e-10 0)
(0.14757923 8.0870154e-11 0)
(0.14757923 1.1369477e-10 0)
(0.14757923 3.5466296e-11 0)
(0.14757923 5.613079e-11 0)
(0.14757923 -3.2814944e-11 0)
(0.14757923 -2.2375616e-11 0)
(0.14757923 -1.1045604e-10 0)
(0.14757923 -8.8352705e-11 0)
(0.14757923 -1.6761707e-10 0)
(0.14757923 -1.3427006e-10 0)
(0.14757923 -1.9450681e-10 0)
(0.14757923 -1.2991054e-10 0)
(0.14757923 -1.7408017e-10 0)
(0.14757923 -9.524009e-11 0)
(0.14757923 -1.1808034e-10 0)
(0.14757923 -2.2421784e-11 0)
(0.14757923 -3.5669434e-11 0)
(0.14757923 5.9999621e-11 0)
(0.14757923 5.3529735e-11 0)
(0.14757923 1.5095486e-10 0)
(0.14757923 1.3659147e-10 0)
(0.14757923 2.1508711e-10 0)
(0.14757923 1.8670333e-10 0)
(0.14757923 2.5229833e-10 0)
(0.14757923 2.0189396e-10 0)
(0.14757923 2.438293e-10 0)
(0.14757923 1.784132e-10 0)
(0.14757923 2.0879472e-10 0)
(0.14757923 1.2758176e-10 0)
(0.14757923 1.3970886e-10 0)
(0.14757923 4.5561309e-11 0)
(0.14757923 4.1618643e-11 0)
(0.14757923 -7.5590016e-11 0)
(0.14757923 -1.047045e-10 0)
(0.14757923 -2.2719861e-10 0)
(0.14757923 -2.2571562e-10 0)
(0.14757923 -2.7326527e-10 0)
(0.14757923 -1.1828191e-10 0)
(0.14757923 8.4558416e-11 0)
(0.14757923 6.4861375e-10 0)
(0.14757923 1.5272137e-09 0)
(0.14757923 3.2957614e-09 0)
(0.14757923 6.5613138e-09 0)
(0.14757923 1.3265432e-08 0)
(0.14757924 2.6353917e-08 0)
(0.1475792 4.9893984e-08 0)
(0.14757917 9.836535e-08 0)
(0.14757967 2.1857813e-07 0)
(0.14757931 2.8845172e-07 0)
(0.14757489 -1.7294655e-07 0)
(0.14758347 -6.0403931e-07 0)
(0.13187226 -0.00027971194 0)
(0.13344738 -0.00016873753 0)
(0.13241966 0.00014875366 0)
(0.13254571 0.00015724782 0)
(0.13274985 5.6088162e-05 0)
(0.13274676 7.6475012e-06 0)
(0.13274999 -5.7296453e-06 0)
(0.13276361 -9.2135638e-06 0)
(0.13276606 -8.0874394e-06 0)
(0.13276469 -5.5627242e-06 0)
(0.13276372 -3.4790662e-06 0)
(0.13276305 -2.1004084e-06 0)
(0.13276253 -1.2385988e-06 0)
(0.13276218 -7.164142e-07 0)
(0.13276196 -4.0919942e-07 0)
(0.13276182 -2.3155201e-07 0)
(0.13276174 -1.299964e-07 0)
(0.1327617 -7.2369452e-08 0)
(0.13276167 -4.0024971e-08 0)
(0.13276166 -2.192714e-08 0)
(0.13276165 -1.1955673e-08 0)
(0.13276164 -6.4028245e-09 0)
(0.13276164 -3.4361332e-09 0)
(0.13276164 -1.8000307e-09 0)
(0.13276164 -9.8278313e-10 0)
(0.13276164 -4.7898456e-10 0)
(0.13276164 -2.3827077e-10 0)
(0.13276164 -3.5292282e-11 0)
(0.13276164 2.7772064e-11 0)
(0.13276164 1.1724533e-10 0)
(0.13276164 1.0715994e-10 0)
(0.13276164 1.4184214e-10 0)
(0.13276164 8.7714499e-11 0)
(0.13276164 8.7068715e-11 0)
(0.13276164 1.3529877e-11 0)
(0.13276164 1.0683514e-11 0)
(0.13276164 -5.9310829e-11 0)
(0.13276164 -5.3115198e-11 0)
(0.13276164 -1.0244654e-10 0)
(0.13276164 -6.5954803e-11 0)
(0.13276164 -8.8738707e-11 0)
(0.13276164 -3.1162005e-11 0)
(0.13276164 -3.0390266e-11 0)
(0.13276164 4.5712581e-11 0)
(0.13276164 5.3674855e-11 0)
(0.13276164 1.2167547e-10 0)
(0.13276164 1.1825203e-10 0)
(0.13276164 1.7239486e-10 0)
(0.13276164 1.4569887e-10 0)
(0.13276164 1.7210155e-10 0)
(0.13276164 1.1445822e-10 0)
(0.13276164 1.1788474e-10 0)
(0.13276164 4.2307812e-11 0)
(0.13276164 2.4721479e-11 0)
(0.13276164 -6.1470784e-11 0)
(0.13276164 -7.5939477e-11 0)
(0.13276164 -1.5385771e-10 0)
(0.13276164 -1.5927687e-10 0)
(0.13276164 -2.2159879e-10 0)
(0.13276164 -1.9963283e-10 0)
(0.13276164 -2.3901203e-10 0)
(0.13276164 -1.9176301e-10 0)
(0.13276164 -2.0069254e-10 0)
(0.13276164 -1.2569932e-10 0)
(0.13276164 -1.1335427e-10 0)
(0.13276164 -2.8434671e-11 0)
(0.13276164 -5.2594479e-12 0)
(0.13276164 9.0544064e-11 0)
(0.13276164 1.1362747e-10 0)
(0.13276164 1.9185181e-10 0)
(0.13276164 2.0266069e-10 0)
(0.13276164 2.7401771e-10 0)
(0.13276164 2.6800599e-10 0)
(0.13276164 3.1342442e-10 0)
(0.13276164 2.7974174e-10 0)
(0.13276164 3.0042561e-10 0)
(0.13276164 2.4413179e-10 0)
(0.13276164 2.4049116e-10 0)
(0.13276164 1.6336677e-10 0)
(0.13276164 1.4580352e-10 0)
(0.13276164 4.9404557e-11 0)
(0.13276164 4.7776501e-12 0)
(0.13276164 -1.1502395e-10 0)
(0.13276164 -1.7255921e-10 0)
(0.13276164 -2.9278964e-10 0)
(0.13276164 -3.0862503e-10 0)
(0.13276164 -3.2309004e-10 0)
(0.13276164 -1.5488362e-10 0)
(0.13276164 7.6621272e-11 0)
(0.13276164 6.3752605e-10 0)
(0.13276164 1.6359089e-09 0)
(0.13276164 3.8053058e-09 0)
(0.13276165 8.5404685e-09 0)
(0.13276166 1.8774397e-08 0)
(0.13276165 3.8131022e-08 0)
(0.13276167 9.2109931e-08 0)
(0.13276219 2.5195797e-07 0)
(0.13276184 3.4997763e-07 0)
(0.13275826 -1.8251974e-07 0)
(0.13276551 -6.6102475e-07 0)
(0.079112759 -0.00017490189 0)
(0.079377969 -0.00014277447 0)
(0.078792738 3.0866187e-05 0)
(0.078885361 4.5273119e-05 0)
(0.078978148 2.6788827e-06 0)
(0.078959271 -1.0607352e-05 0)
(0.078944967 -9.2264668e-06 0)
(0.07893803 -7.1315429e-06 0)
(0.078929891 -4.9122206e-06 0)
(0.078923685 -2.9653425e-06 0)
(0.07892015 -1.695896e-06 0)
(0.078918169 -9.5905709e-07 0)
(0.078917025 -5.3695601e-07 0)
(0.078916377 -2.9720854e-07 0)
(0.078916016 -1.6342269e-07 0)
(0.078915818 -8.9408269e-08 0)
(0.078915708 -4.8719527e-08 0)
(0.078915649 -2.6322038e-08 0)
(0.078915617 -1.415864e-08 0)
(0.078915599 -7.5023786e-09 0)
(0.07891559 -3.9600478e-09 0)
(0.078915585 -1.9743122e-09 0)
(0.078915582 -9.9323129e-10 0)
(0.078915581 -4.5692751e-10 0)
(0.07891558 -2.534155e-10 0)
(0.078915579 -9.2794983e-11 0)
(0.078915579 -6.1313969e-11 0)
(0.078915579 1.9718122e-11 0)
(0.078915579 1.4362405e-11 0)
(0.078915579 6.8222077e-11 0)
(0.078915579 4.0088899e-11 0)
(0.078915579 7.2930204e-11 0)
(0.078915579 2.4537544e-11 0)
(0.078915579 4.3439732e-11 0)
(0.078915579 -9.590945e-12 0)
(0.078915579 8.1991289e-12 0)
(0.078915579 -4.7180888e-11 0)
(0.078915579 -2.5133627e-11 0)
(0.078915579 -6.7856223e-11 0)
(0.078915579 -3.2383273e-11 0)
(0.078915579 -6.4609806e-11 0)
(0.078915579 -1.7610847e-11 0)
(0.078915579 -3.3787504e-11 0)
(0.078915579 2.401581e-11 0)
(0.078915579 9.8111436e-12 0)
(0.078915579 6.535608e-11 0)
(0.078915579 4.8327623e-11 0)
(0.078915579 9.3771732e-11 0)
(0.078915579 6.2333534e-11 0)
(0.078915579 9.7081312e-11 0)
(0.078915579 5.3321246e-11 0)
(0.07891558 7.5341362e-11 0)
(0.07891558 1.9384008e-11 0)
(0.07891558 2.9774627e-11 0)
(0.07891558 -3.0625323e-11 0)
(0.07891558 -2.0259732e-11 0)
(0.078915579 -8.0683478e-11 0)
(0.078915579 -6.5603224e-11 0)
(0.078915579 -1.1533316e-10 0)
(0.078915579 -8.8164162e-11 0)
(0.078915579 -1.3278654e-10 0)
(0.078915578 -9.0815923e-11 0)
(0.078915578 -1.1569391e-10 0)
(0.078915578 -6.0210552e-11 0)
(0.078915578 -7.7694181e-11 0)
(0.078915578 -1.6569003e-11 0)
(0.078915578 -2.269296e-11 0)
(0.078915578 4.3460058e-11 0)
(0.078915578 3.5618387e-11 0)
(0.078915578 9.3589152e-11 0)
(0.078915578 8.3190136e-11 0)
(0.078915579 1.4016112e-10 0)
(0.078915579 1.2055253e-10 0)
(0.078915579 1.6557073e-10 0)
(0.078915579 1.3399275e-10 0)
(0.07891558 1.6408487e-10 0)
(0.07891558 1.1769482e-10 0)
(0.07891558 1.3445053e-10 0)
(0.07891558 8.0282718e-11 0)
(0.07891558 9.1519796e-11 0)
(0.07891558 2.6992159e-11 0)
(0.07891558 2.593255e-11 0)
(0.07891558 -4.7201828e-11 0)
(0.07891558 -5.5819503e-11 0)
(0.07891558 -1.427436e-10 0)
(0.07891558 -1.451457e-10 0)