/*--------------------------------*- C++ -*----------------------------------*\
| =========                 |                                                 |
| \\      /  F ield         | OpenFOAM: The Open Source CFD Toolbox           |
|  \\    /   O peration     | Version:  v1812                                 |
|   \\  /    A nd           | Web:      www.OpenFOAM.com                      |
|    \\/     M anipulation  |                                                 |
\*---------------------------------------------------------------------------*/
FoamFile
{
    version     2.0;
    format      ascii;
    class       volScalarField;
    location    "8";
    object      p;
}
// * * * * * * * * * * * * * * * * * * * * * * * * * * * * * * * * * * * * * //

dimensions      [0 2 -2 0 0 0 0];


internalField   nonuniform List<scalar> 
1000
(
1.67541
1.5543321
1.4583516
1.3946955
1.346186
1.3037139
1.2661787
1.2340069
1.2066066
1.182769
1.1613747
1.1416109
1.1229337
1.1049942
1.0875789
1.0705647
1.0538838
1.0374996
1.0213914
1.0055455
0.9899505
0.9745954
0.95946872
0.94455849
0.9298525
0.9153385
0.90100452
0.886839
0.87283093
0.85896992
0.8452462
0.83165066
0.81817478
0.80481063
0.79155081
0.77838846
0.76531715
0.75233093
0.73942424
0.7265919
0.71382908
0.70113126
0.68849422
0.67591402
0.66338696
0.65090959
0.63847867
0.6260912
0.61374434
0.60143548
0.58916217
0.5769221
0.56471315
0.55253329
0.54038067
0.52825352
0.5161502
0.50406919
0.49200907
0.47996853
0.46794636
0.45594142
0.44395267
0.43197912
0.42001984
0.40807398
0.39614071
0.38421929
0.37230899
0.36040918
0.34851923
0.33663856
0.32476658
0.31290274
0.30104648
0.28919724
0.27735452
0.26551782
0.25368668
0.2418607
0.23003946
0.21822256
0.20640961
0.19460019
0.18279388
0.1709903
0.1591891
0.14738999
0.13559274
0.12379716
0.11200307
0.10021027
0.088418563
0.076627752
0.064837644
0.053048086
0.041258972
0.029470251
0.017681891
0.0058938412
1.5581903
1.5032612
1.4423087
1.390741
1.347471
1.3085027
1.2729164
1.2411438
1.2131829
1.188405
1.1660031
1.1453018
1.1258202
1.1072321
1.0893185
1.0719338
1.0549819
1.0384005
1.0221478
1.0061943
0.99051731
0.97509778
0.95991895
0.9449653
0.93022226
0.91567604
0.90131362
0.88712273
0.87309188
0.85921028
0.84546791
0.83185541
0.81836407
0.8049858
0.79171307
0.77853888
0.7654567
0.75246049
0.73954459
0.72670376
0.7139331
0.70122803
0.68858428
0.67599786
0.66346505
0.65098234
0.63854647
0.62615438
0.61380325
0.60149041
0.58921338
0.57696985
0.56475767
0.55257481
0.54041937
0.52828959
0.51618381
0.5041005
0.49203822
0.47999564
0.46797155
0.4559648
0.44397433
0.43199916
0.42003835
0.40809103
0.39615638
0.38423365
0.37232212
0.36042113
0.34853006
0.33664833
0.32477536
0.3129106
0.30105347
0.28920345
0.27735999
0.26552262
0.25369086
0.2418643
0.23004254
0.21822518
0.20641182
0.19460204
0.18279543
0.1709916
0.15919018
0.14739089
0.13559347
0.12379774
0.1120035
0.10021059
0.088418806
0.076627939
0.064837793
0.05304821
0.041259071
0.02947032
0.017681935
0.0058938393
1.497369
1.4711939
1.4327971
1.3916642
1.3525789
1.3159881
1.2816904
1.2499729
1.2211168
1.1950157
1.1712618
1.1493718
1.1289219
1.109581
1.0911009
1.0732999
1.056048
1.0392524
1.0228463
1.0067812
0.99102081
0.97553713
0.96030728
0.9453118
0.93053354
0.91595705
0.90156822
0.88735403
0.87330247
0.85940239
0.84564346
0.83201608
0.81851136
0.80512102
0.79183739
0.77865332
0.76556219
0.75255783
0.73963452
0.72678691
0.71401005
0.70129931
0.68865035
0.67605916
0.66352194
0.65103518
0.63859557
0.62620004
0.61384572
0.60152992
0.58925016
0.57700409
0.56478955
0.55260449
0.54044702
0.52831535
0.51620781
0.50412286
0.49205905
0.48001504
0.46798961
0.45598159
0.44398994
0.43201365
0.42005179
0.40810348
0.3961679
0.38424429
0.37233192
0.36043013
0.3485383
0.33665585
0.3247822
0.31291679
0.30105907
0.28920849
0.27736452
0.26552666
0.25369445
0.24186746
0.23004529
0.21822756
0.20641386
0.19460379
0.18279694
0.17099289
0.1591913
0.14739184
0.13559427
0.12379839
0.11200402
0.10021099
0.088419108
0.076628175
0.064837984
0.053048374
0.041259205
0.029470418
0.017681982
0.0058938468
1.4679605
1.4524624
1.4255925
1.3916686
1.3558676
1.3209163
1.2876143
1.2562613
1.2271306
1.2003391
1.1757516
1.1530594
1.1319076
1.1119788
1.0930206
1.0748409
1.0572952
1.0402742
1.0236955
1.0074975
0.99163355
0.97606782
0.96077186
0.9457222
0.93089878
0.91628405
0.90186241
0.88761976
0.87354329
0.85962126
0.84584288
0.83219818
0.81867798
0.80527375
0.79197761
0.77878227
0.76568093
0.75266732
0.73973558
0.7268803
0.71409643
0.70137927
0.68872444
0.67612785
0.66358568
0.65109435
0.63865054
0.62625114
0.61389323
0.60157412
0.58929129
0.57704238
0.56482521
0.55263771
0.54047798
0.52834421
0.51623474
0.50414798
0.4920825
0.48003695
0.46801007
0.45600071
0.44400781
0.43203035
0.4200674
0.40811808
0.39618155
0.38425704
0.37234382
0.36044123
0.34854864
0.33666546
0.32479112
0.31292505
0.30106671
0.28921553
0.277371
0.2655326
0.25369986
0.24187237
0.23004972
0.21823152
0.20641739
0.19460692
0.18279971
0.17099535
0.15919346
0.14739374
0.13559592
0.1237998
0.11200521
0.10021198
0.088419919
0.076628845
0.064838539
0.053048841
0.041259587
0.029470729
0.017682185
0.0058939854
1.455229
1.4432756
1.4210413
1.3907537
1.3568925
1.3228969
1.2901993
1.2591938
1.2300964
1.2030845
1.1781575
1.1551079
1.1336264
1.1134088
1.0942052
1.075823
1.0581141
1.0409636
1.0242827
1.0080036
0.99207459
0.97645604
0.96111653
0.94603039
0.93117594
0.91653447
0.90208949
0.88782628
0.87373157
0.85979326
0.84600028
0.83234245
0.8188104
0.80539545
0.79208961
0.77888545
0.76577609
0.75275516
0.73981675
0.72695537
0.71416591
0.70144362
0.68878409
0.67618317
0.66363701
0.65114202
0.63869483
0.6262923
0.61393151
0.60160973
0.58932443
0.57707323
0.56485394
0.55266448
0.54050293
0.52836749
0.51625645
0.50416826
0.49210144
0.48005465
0.46802663
0.45601621
0.44402232
0.43204394
0.42008015
0.40813003
0.39619276
0.38426756
0.37235369
0.36045049
0.34855731
0.33667357
0.32479869
0.31293212
0.30107329
0.28922165
0.27737667
0.26553783
0.25370467
0.24187677
0.23005371
0.21823513
0.20642064
0.19460984
0.18280232
0.17099767
0.15919553
0.14739556
0.13559751
0.12380117
0.11200638
0.10021296
0.088420742
0.076629533
0.064839113
0.053049324
0.041259981
0.029471058
0.017682411
0.0058941539
1.455229
1.4432756
1.4210413
1.3907537
1.3568925
1.3228969
1.2901993
1.2591938
1.2300964
1.2030845
1.1781575
1.1551079
1.1336264
1.1134088
1.0942052
1.075823
1.0581141
1.0409636
1.0242827
1.0080036
0.99207458
0.97645604
0.96111653
0.94603039
0.93117595
0.91653447
0.90208949
0.88782628
0.87373157
0.85979326
0.84600027
0.83234245
0.81881039
0.80539545
0.79208961
0.77888545
0.76577609
0.75275517
0.73981676
0.72695537
0.71416591
0.70144362
0.68878408
0.67618316
0.66363701
0.65114202
0.63869483
0.6262923
0.61393151
0.60160974
0.58932443
0.57707324
0.56485394
0.55266448
0.54050293
0.52836749
0.51625645
0.50416826
0.49210145
0.48005465
0.46802663
0.45601621
0.44402232
0.43204395
0.42008015
0.40813004
0.39619277
0.38426756
0.37235369
0.36045048
0.3485573
0.33667356
0.32479869
0.31293212
0.30107329
0.28922166
0.27737667
0.26553783
0.25370467
0.24187676
0.2300537
0.21823512
0.20642063
0.19460984
0.18280232
0.17099768
0.15919554
0.14739557
0.13559751
0.12380117
0.11200637
0.10021295
0.088420735
0.076629528
0.064839109
0.053049323
0.041259981
0.029471058
0.017682412
0.0058941547
1.4679605
1.4524624
1.4255925
1.3916686
1.3558676
1.3209163
1.2876143
1.2562613
1.2271306
1.2003391
1.1757516
1.1530594
1.1319076
1.1119788
1.0930206
1.0748409
1.0572952
1.0402742
1.0236955
1.0074975
0.99163355
0.97606781
0.96077186
0.9457222
0.93089878
0.91628406
0.90186242
0.88761976
0.87354329
0.85962126
0.84584287
0.83219817
0.81867797
0.80527374
0.79197761
0.77878227
0.76568094
0.75266732
0.73973559
0.7268803
0.71409643
0.70137927
0.68872443
0.67612784
0.66358567
0.65109435
0.63865055
0.62625115
0.61389324
0.60157413
0.5892913
0.57704239
0.56482521
0.55263771
0.54047798
0.52834422
0.51623474
0.50414799
0.49208251
0.48003695
0.46801007
0.45600072
0.44400781
0.43203036
0.42006742
0.40811809
0.39618156
0.38425704
0.37234381
0.36044121
0.34854862
0.33666544
0.32479111
0.31292505
0.30106672
0.28921555
0.27737102
0.2655326
0.25369985
0.24187234
0.23004967
0.21823148
0.20641736
0.19460691
0.18279972
0.17099537
0.15919349
0.14739376
0.13559593
0.12379979
0.11200519
0.10021195
0.088419897
0.076628829
0.06483853
0.053048838
0.041259588
0.029470733
0.01768219
0.0058939874
1.497369
1.4711939
1.4327971
1.3916642
1.3525789
1.3159881
1.2816904
1.2499729
1.2211168
1.1950157
1.1712618
1.1493718
1.1289219
1.1095811
1.0911009
1.0732999
1.056048
1.0392524
1.0228463
1.0067812
0.9910208
0.97553713
0.96030728
0.9453118
0.93053355
0.91595706
0.90156822
0.88735403
0.87330246
0.85940238
0.84564344
0.83201607
0.81851135
0.80512102
0.79183739
0.77865333
0.7655622
0.75255785
0.73963452
0.72678691
0.71401004
0.70129929
0.68865034
0.67605914
0.66352194
0.65103518
0.63859558
0.62620006
0.61384574
0.60152994
0.58925016
0.57700409
0.56478955
0.55260449
0.54044702
0.52831535
0.51620782
0.50412287
0.49205906
0.48001505
0.46798961
0.4559816
0.44398995
0.43201367
0.42005181
0.4081035
0.39616791
0.38424428
0.3723319
0.36043009
0.34853826
0.33665581
0.32478218
0.3129168
0.3010591
0.28920853
0.27736455
0.26552666
0.25369442
0.2418674
0.23004522
0.21822749
0.20641382
0.19460378
0.18279696
0.17099294
0.15919134
0.14739187
0.13559428
0.12379837
0.11200399
0.10021095
0.088419076
0.076628154
0.064837975
0.053048373
0.041259209
0.029470424
0.017681989
0.0058938499
1.5581903
1.5032612
1.4423087
1.390741
1.347471
1.3085027
1.2729164
1.2411438
1.2131828
1.188405
1.1660031
1.1453018
1.1258202
1.1072321
1.0893185
1.0719338
1.0549819
1.0384005
1.0221478
1.0061943
0.9905173
0.97509778
0.95991895
0.94496531
0.93022227
0.91567605
0.90131363
0.88712273
0.87309187
0.85921027
0.84546789
0.83185539
0.81836406
0.8049858
0.79171308
0.77853889
0.76545672
0.7524605
0.7395446
0.72670376
0.71393308
0.70122801
0.68858426
0.67599785
0.66346505
0.65098234
0.63854648
0.6261544
0.61380327
0.60149042
0.58921339
0.57696986
0.56475767
0.55257481
0.54041937
0.5282896
0.51618382
0.50410051
0.49203822
0.47999565
0.46797156
0.45596481
0.44397435
0.43199918
0.42003838
0.40809105
0.39615639
0.38423364
0.37232209
0.36042108
0.34853001
0.3366483
0.32477536
0.31291062
0.30105352
0.28920349
0.27736002
0.26552261
0.25369081
0.24186423
0.23004246
0.21822511
0.20641179
0.19460205
0.18279547
0.17099165
0.15919023
0.14739091
0.13559346
0.12379771
0.11200346
0.10021056
0.088418777
0.076627922
0.064837784
0.053048208
0.041259072
0.029470327
0.017681945
0.0058938452
1.67541
1.5543321
1.4583516
1.3946955
1.346186
1.3037139
1.2661787
1.2340069
1.2066066
1.182769
1.1613747
1.1416109
1.1229337
1.1049942
1.0875789
1.0705647
1.0538838
1.0374996
1.0213914
1.0055455
0.98995049
0.9745954
0.95946872
0.9445585
0.92985251
0.91533851
0.90100453
0.886839
0.87283093
0.85896991
0.84524619
0.83165065
0.81817477
0.80481063
0.79155082
0.77838847
0.76531717
0.75233095
0.73942425
0.7265919
0.71382907
0.70113125
0.68849421
0.67591401
0.66338696
0.6509096
0.63847869
0.62609121
0.61374436
0.6014355
0.58916218
0.57692211
0.56471315
0.5525333
0.54038067
0.52825352
0.5161502
0.50406919
0.49200907
0.47996854
0.46794637
0.45594144
0.44395269
0.43197915
0.42001987
0.40807399
0.39614071
0.38421926
0.37230895
0.36040913
0.34851919
0.33663854
0.32476659
0.31290277
0.30104651
0.28919727
0.27735452
0.26551779
0.25368662
0.24186062
0.23003939
0.21822252
0.2064096
0.19460021
0.18279391
0.17099033
0.15918912
0.14739
0.13559274
0.12379715
0.11200305
0.10021025
0.088418545
0.076627733
0.064837622
0.053048068
0.041258964
0.02947026
0.01768191
0.0058938513
)
;

boundaryField
{
    top
    {
        type            zeroGradient;
    }
    inlet
    {
        type            zeroGradient;
    }
    outlet
    {
        type            fixedValue;
        value           uniform 0;
    }
    bottom
    {
        type            zeroGradient;
    }
    back
    {
        type            empty;
    }
    front
    {
        type            empty;
    }
}


// ************************************************************************* //
