/*--------------------------------*- C++ -*----------------------------------*\
| =========                 |                                                 |
| \\      /  F ield         | OpenFOAM: The Open Source CFD Toolbox           |
|  \\    /   O peration     | Version:  v1812                                 |
|   \\  /    A nd           | Web:      www.OpenFOAM.com                      |
|    \\/     M anipulation  |                                                 |
\*---------------------------------------------------------------------------*/
FoamFile
{
    version     2.0;
    format      ascii;
    class       volScalarField;
    location    "13.25";
    object      p;
}
// * * * * * * * * * * * * * * * * * * * * * * * * * * * * * * * * * * * * * //

dimensions      [0 2 -2 0 0 0 0];


internalField   nonuniform List<scalar> 
1000
(
1.6755988
1.5545209
1.4585404
1.3948843
1.3463748
1.3039027
1.2663675
1.2341958
1.2067954
1.1829578
1.1615635
1.1417997
1.1231225
1.105183
1.0877676
1.0707535
1.0540726
1.0376884
1.0215802
1.0057343
0.99013932
0.97478421
0.95965751
0.94474726
0.93004126
0.91552727
0.9011933
0.8870278
0.87301975
0.85915876
0.84543504
0.83183949
0.81836359
0.80499941
0.79173958
0.77857721
0.7655059
0.7525197
0.73961304
0.72678073
0.71401794
0.70132012
0.68868308
0.67610285
0.66357576
0.65109836
0.63866743
0.62627995
0.61393311
0.60162426
0.58935095
0.57711085
0.56490181
0.55272182
0.54056898
0.52844153
0.51633782
0.50425631
0.49219555
0.48015419
0.46813095
0.45612466
0.4441342
0.43215854
0.42019672
0.40824783
0.39631103
0.38438554
0.37247062
0.36056556
0.34866972
0.3367825
0.32490331
0.31303164
0.301167
0.28930893
0.27745701
0.26561083
0.25377002
0.24193422
0.2301031
0.21827633
0.20645364
0.19463475
0.18281943
0.17100745
0.15919858
0.14739264
0.13558942
0.12378873
0.11199039
0.10019429
0.088400243
0.076608107
0.064817769
0.053029156
0.041242188
0.029456643
0.017672706
0.0058897259
1.5583791
1.50345
1.4424975
1.3909298
1.3476598
1.3086914
1.2731052
1.2413326
1.2133717
1.1885938
1.1661919
1.1454906
1.1260089
1.1074209
1.0895073
1.0721226
1.0551707
1.0385893
1.0223367
1.0063832
0.99070613
0.97528659
0.96010774
0.94515407
0.93041102
0.9158648
0.90150239
0.88731153
0.87328069
0.85939912
0.84565675
0.83204425
0.81855289
0.80517459
0.79190184
0.77872763
0.76564545
0.75264925
0.73973339
0.72689259
0.71412195
0.70141689
0.68877314
0.6761867
0.66365385
0.65117111
0.63873522
0.62634314
0.61399202
0.60167919
0.58940217
0.57715863
0.56494639
0.5527634
0.54060778
0.52847774
0.51637162
0.50428785
0.49222499
0.48018167
0.46815661
0.45614861
0.44415656
0.43217942
0.42021621
0.40826603
0.39632803
0.38440142
0.37248544
0.3605794
0.34868265
0.33679457
0.32491458
0.31304217
0.30117683
0.28931812
0.27746559
0.26561885
0.25377751
0.24194121
0.23010962
0.21828242
0.20645933
0.19464007
0.1828244
0.17101209
0.15920292
0.14739669
0.1355932
0.12379226
0.11199367
0.10019735
0.08840312
0.076610793
0.064820262
0.053031456
0.041244361
0.029458534
0.017674383
0.0058905606
1.4975578
1.4713827
1.4329859
1.391853
1.3527677
1.3161769
1.2818793
1.2501617
1.2213056
1.1952045
1.1714506
1.1495605
1.1291107
1.1097698
1.0912897
1.0734886
1.0562368
1.0394412
1.0230351
1.00697
0.99120963
0.97572594
0.96049607
0.94550057
0.9307223
0.91614581
0.90175699
0.88754282
0.87349128
0.85959122
0.8458323
0.83220492
0.81870018
0.80530982
0.79202616
0.77884207
0.76575093
0.75274659
0.7398233
0.72697573
0.7141989
0.70148817
0.68883921
0.676248
0.66371076
0.65122396
0.63878434
0.6263888
0.61403449
0.6017187
0.58943895
0.57719287
0.56497827
0.55279311
0.54063546
0.52850354
0.51639567
0.50431028
0.49224591
0.48020117
0.46817479
0.45616557
0.44417238
0.43219418
0.42022999
0.4082789
0.39634005
0.38441263
0.37249591
0.36058917
0.34869176
0.33680306
0.32492251
0.31304958
0.30118376
0.28932459
0.27747164
0.2656245
0.25378278
0.24194613
0.2301142
0.21828669
0.20646331
0.1946438
0.18282789
0.17101537
0.15920598
0.14739955
0.13559587
0.12379474
0.11199596
0.10019947
0.088405114
0.076612678
0.06482198
0.053033044
0.041245759
0.02945972
0.017675048
0.0058910151
1.4681493
1.4526512
1.4257813
1.3918574
1.3560564
1.3211051
1.2878032
1.2564501
1.2273194
1.2005279
1.1759404
1.1532482
1.1320964
1.1121676
1.0932094
1.0750297
1.057484
1.040463
1.0238844
1.0076864
0.99182237
0.97625663
0.96096066
0.94591098
0.93108755
0.91647282
0.90205118
0.88780855
0.8737321
0.85981009
0.84603172
0.83238702
0.8188668
0.80546255
0.79216639
0.77897102
0.76586968
0.75285607
0.73992436
0.72706912
0.71428528
0.70156813
0.6889133
0.6763167
0.6637745
0.65128315
0.63883931
0.6264399
0.61408199
0.60176289
0.58948006
0.57723114
0.5650139
0.55282629
0.54066637
0.52853235
0.51642253
0.50433532
0.49226925
0.48022294
0.46819509
0.45618449
0.44419003
0.43221064
0.42024535
0.40829324
0.39635344
0.38442514
0.37250758
0.36060006
0.34870192
0.33681254
0.32493135
0.31305782
0.30119146
0.2893318
0.27747838
0.2656308
0.25378867
0.24195162
0.23011931
0.21829145
0.20646775
0.19464794
0.18283177
0.17101901
0.1592094
0.14740275
0.13559883
0.12379751
0.11199853
0.10020186
0.088407271
0.076614754
0.064823925
0.053034872
0.041247186
0.029461068
0.017675882
0.0058920474
1.4554178
1.4434644
1.42123
1.3909425
1.3570813
1.3230857
1.2903881
1.2593826
1.2302852
1.2032733
1.1783463
1.1552967
1.1338152
1.1135975
1.0943939
1.0760117
1.0583028
1.0411524
1.0244715
1.0081924
0.99226341
0.97664485
0.96130533
0.94621917
0.93136471
0.91672323
0.90227826
0.88801507
0.87392038
0.85998209
0.84618912
0.83253129
0.81899922
0.80558425
0.79227838
0.7790742
0.76596484
0.75294392
0.74000554
0.72714418
0.71435475
0.70163248
0.68897295
0.67637201
0.66382583
0.65133081
0.6388836
0.62648106
0.61412027
0.60179849
0.58951319
0.57726196
0.56504259
0.55285301
0.54069126
0.52855554
0.51644415
0.50435548
0.49228805
0.48024047
0.46821143
0.45619973
0.44420424
0.43222389
0.42025771
0.40830477
0.39636421
0.3844352
0.37251698
0.36060883
0.3487101
0.33682017
0.32493846
0.31306446
0.30119765
0.28933758
0.27748379
0.26563586
0.2537934
0.24195604
0.23012344
0.21829529
0.20647132
0.19465128
0.18283488
0.17102192
0.15921213
0.14740531
0.13560121
0.12379975
0.11200065
0.10020378
0.088408978
0.076616476
0.064825504
0.053036245
0.041248275
0.029462299
0.017676761
0.0058930745
1.4554178
1.4434644
1.42123
1.3909425
1.3570813
1.3230857
1.2903881
1.2593826
1.2302852
1.2032733
1.1783463
1.1552967
1.1338152
1.1135975
1.0943939
1.0760117
1.0583028
1.0411524
1.0244715
1.0081924
0.99226341
0.97664485
0.96130533
0.94621917
0.93136471
0.91672323
0.90227826
0.88801507
0.87392038
0.85998209
0.84618912
0.83253129
0.81899922
0.80558425
0.79227838
0.7790742
0.76596484
0.75294392
0.74000553
0.72714418
0.71435475
0.70163248
0.68897295
0.67637202
0.66382584
0.65133082
0.6388836
0.62648106
0.61412027
0.60179849
0.58951318
0.57726196
0.56504259
0.55285301
0.54069127
0.52855555
0.51644415
0.50435548
0.49228804
0.48024046
0.46821142
0.45619972
0.44420424
0.4322239
0.42025772
0.40830478
0.39636421
0.38443519
0.37251697
0.36060882
0.34871009
0.33682016
0.32493846
0.31306447
0.30119767
0.2893376
0.2774838
0.26563586
0.25379338
0.24195601
0.23012342
0.21829529
0.20647134
0.1946513
0.18283491
0.17102193
0.15921213
0.14740529
0.13560117
0.12379974
0.11200065
0.10020376
0.08840901
0.076616571
0.06482553
0.053036168
0.041248211
0.029462301
0.017676787
0.005893087
1.4681493
1.4526512
1.4257813
1.3918574
1.3560564
1.3211051
1.2878032
1.2564501
1.2273194
1.2005279
1.1759404
1.1532482
1.1320964
1.1121676
1.0932094
1.0750297
1.057484
1.040463
1.0238844
1.0076864
0.99182238
0.97625663
0.96096066
0.94591098
0.93108755
0.91647282
0.90205118
0.88780854
0.8737321
0.85981009
0.84603172
0.83238702
0.8188668
0.80546255
0.79216639
0.77897102
0.76586968
0.75285607
0.73992436
0.72706911
0.71428527
0.70156813
0.68891331
0.6763167
0.66377451
0.65128315
0.63883932
0.6264399
0.61408199
0.60176289
0.58948005
0.57723113
0.5650139
0.55282629
0.54066639
0.52853236
0.51642254
0.50433532
0.49226924
0.48022292
0.46819507
0.45618448
0.44419003
0.43221066
0.42024538
0.40829326
0.39635345
0.38442514
0.37250757
0.36060003
0.34870189
0.33681252
0.32493135
0.31305785
0.3011915
0.28933183
0.2774784
0.26563079
0.25378863
0.24195157
0.23011927
0.21829144
0.20646777
0.19464799
0.18283182
0.17101904
0.15920939
0.1474027
0.13559877
0.12379748
0.11199852
0.10020184
0.08840734
0.076614913
0.064823956
0.053034727
0.041247075
0.029461084
0.017675929
0.0058920656
1.4975578
1.4713827
1.4329859
1.391853
1.3527677
1.3161769
1.2818793
1.2501617
1.2213056
1.1952045
1.1714506
1.1495605
1.1291107
1.1097698
1.0912897
1.0734886
1.0562368
1.0394412
1.0230351
1.00697
0.99120963
0.97572594
0.96049608
0.94550058
0.93072231
0.91614582
0.90175699
0.88754282
0.87349127
0.85959121
0.84583229
0.83220492
0.81870018
0.80530982
0.79202616
0.77884208
0.76575094
0.75274659
0.7398233
0.72697572
0.71419889
0.70148816
0.68883921
0.676248
0.66371076
0.65122397
0.63878434
0.62638881
0.61403448
0.6017187
0.58943894
0.57719286
0.56497826
0.55279311
0.54063547
0.52850355
0.51639568
0.50431029
0.4922459
0.48020116
0.46817478
0.45616555
0.44417237
0.43219418
0.42023001
0.40827892
0.39634007
0.38441264
0.3724959
0.36058915
0.34869173
0.33680304
0.3249225
0.31304958
0.30118378
0.28932462
0.27747167
0.26562451
0.25378277
0.2419461
0.23011416
0.21828667
0.20646331
0.19464382
0.18282793
0.1710154
0.159206
0.14739953
0.13559583
0.12379471
0.11199593
0.10019946
0.088405169
0.076612748
0.064821979
0.053032999
0.041245725
0.029459708
0.017675055
0.005891023
1.5583791
1.50345
1.4424975
1.3909298
1.3476598
1.3086915
1.2731052
1.2413326
1.2133717
1.1885938
1.1661919
1.1454906
1.1260089
1.1074209
1.0895073
1.0721226
1.0551707
1.0385893
1.0223367
1.0063832
0.99070613
0.97528659
0.96010774
0.94515408
0.93041102
0.91586481
0.9015024
0.88731153
0.87328069
0.85939911
0.84565675
0.83204424
0.81855289
0.80517459
0.79190184
0.77872763
0.76564546
0.75264926
0.73973339
0.72689258
0.71412194
0.70141688
0.68877313
0.6761867
0.66365386
0.65117112
0.63873523
0.62634315
0.61399202
0.60167919
0.58940216
0.57715862
0.56494637
0.5527634
0.54060778
0.52847775
0.51637163
0.50428787
0.492225
0.48018167
0.4681566
0.45614859
0.44415654
0.43217941
0.42021622
0.40826605
0.39632805
0.38440144
0.37248545
0.3605794
0.34868263
0.33679454
0.32491456
0.31304216
0.30117684
0.28931814
0.27746562
0.26561887
0.25377751
0.2419412
0.23010959
0.21828239
0.20645931
0.19464007
0.18282441
0.17101212
0.15920294
0.14739671
0.1355932
0.12379224
0.11199365
0.10019734
0.088403124
0.076610786
0.064820255
0.053031473
0.041244387
0.02945854
0.017674374
0.0058905562
1.6755988
1.5545209
1.4585404
1.3948843
1.3463748
1.3039027
1.2663675
1.2341958
1.2067954
1.1829578
1.1615635
1.1417997
1.1231225
1.105183
1.0877677
1.0707535
1.0540726
1.0376884
1.0215802
1.0057343
0.99013931
0.9747842
0.95965751
0.94474727
0.93004127
0.91552727
0.90119331
0.8870278
0.87301975
0.85915875
0.84543504
0.83183949
0.81836359
0.80499941
0.79173958
0.77857721
0.76550591
0.75251971
0.73961305
0.72678073
0.71401793
0.70132012
0.68868307
0.67610285
0.66357576
0.65109837
0.63866744
0.62627996
0.61393311
0.60162426
0.58935094
0.57711084
0.5649018
0.55272181
0.54056898
0.52844154
0.51633783
0.50425632
0.49219556
0.48015419
0.46813094
0.45612464
0.44413418
0.43215853
0.42019672
0.40824784
0.39631106
0.38438557
0.37247063
0.36056556
0.34866971
0.33678247
0.32490329
0.31303163
0.301167
0.28930895
0.27745704
0.26561086
0.25377004
0.24193422
0.23010307
0.2182763
0.20645361
0.19463474
0.18281944
0.17100747
0.15919861
0.14739266
0.13558942
0.12378871
0.11199037
0.10019427
0.088400216
0.076608077
0.064817773
0.053029195
0.041242225
0.029456655
0.0176727
0.0058897197
)
;

boundaryField
{
    top
    {
        type            zeroGradient;
    }
    inlet
    {
        type            zeroGradient;
    }
    outlet
    {
        type            fixedValue;
        value           uniform 0;
    }
    bottom
    {
        type            zeroGradient;
    }
    back
    {
        type            empty;
    }
    front
    {
        type            empty;
    }
}


// ************************************************************************* //
