/*--------------------------------*- C++ -*----------------------------------*\
| =========                 |                                                 |
| \\      /  F ield         | OpenFOAM: The Open Source CFD Toolbox           |
|  \\    /   O peration     | Version:  v1812                                 |
|   \\  /    A nd           | Web:      www.OpenFOAM.com                      |
|    \\/     M anipulation  |                                                 |
\*---------------------------------------------------------------------------*/
FoamFile
{
    version     2.0;
    format      ascii;
    class       surfaceScalarField;
    location    "13.25";
    object      phi;
}
// * * * * * * * * * * * * * * * * * * * * * * * * * * * * * * * * * * * * * //

dimensions      [0 3 -1 0 0 0 0];
oriented        oriented;


internalField   nonuniform List<scalar> 
1890
(
0.0093061957
0.00069380425
0.0082843931
0.0010218027
0.0073298986
0.00095449449
0.0064869553
0.00084294334
0.0057695845
0.00071737081
0.00518986
0.00057972444
0.004738168
0.00045169205
0.00439519
0.00034297801
0.0041390268
0.00025616317
0.0039491069
0.00018991982
0.003807888
0.00014121896
0.0037013782
0.00010650979
0.003619058
8.2320221e-05
0.0035534117
6.5646249e-05
0.0034992845
5.4127261e-05
0.0034532444
4.6040054e-05
0.0034130501
4.0194297e-05
0.0033772574
3.5792756e-05
0.0033449386
3.2318755e-05
0.0033154893
2.9449274e-05
0.0032885008
2.6988567e-05
0.0032636805
2.4820293e-05
0.003240805
2.2875477e-05
0.0032196926
2.111242e-05
0.0032001879
1.9504663e-05
0.0031821539
1.8034029e-05
0.0031654672
1.6686739e-05
0.0031500158
1.5451373e-05
0.0031356979
1.4317865e-05
0.0031224208
1.3277066e-05
0.0031101003
1.2320579e-05
0.0030986595
1.1440706e-05
0.0030880291
1.0630422e-05
0.0030781458
9.8833593e-06
0.003068952
9.1937742e-06
0.0030603955
8.5565087e-06
0.0030524286
7.9669375e-06
0.0030450076
7.4209229e-06
0.0030380929
6.91476e-06
0.0030316477
6.4451266e-06
0.0030256387
6.0090424e-06
0.0030200349
5.603823e-06
0.0030148078
5.2270448e-06
0.0030099313
4.8765151e-06
0.0030053811
4.5502402e-06
0.0030011347
4.2464094e-06
0.0029971713
3.9633656e-06
0.0029934717
3.6995962e-06
0.002990018
3.4537145e-06
0.0029867936
3.2244441e-06
0.0029837829
3.010617e-06
0.0029809718
2.8111515e-06
0.0029783467
2.6250512e-06
0.0029758953
2.451395e-06
0.002973606
2.2893263e-06
0.002971468
2.1380558e-06
0.0029694711
1.9968455e-06
0.0029676061
1.8650121e-06
0.0029658642
1.7419231e-06
0.0029642372
1.6269856e-06
0.0029627175
1.5196593e-06
0.0029612981
1.4194333e-06
0.0029599722
1.3258393e-06
0.0029587338
1.2384344e-06
0.002957577
1.1568062e-06
0.0029564964
1.0805713e-06
0.0029554871
1.0093676e-06
0.0029545442
9.4285708e-07
0.0029536635
8.8073095e-07
0.0029528408
8.2269341e-07
0.0029520723
7.6848109e-07
0.0029513545
7.1784157e-07
0.0029506839
6.7054481e-07
0.0029500575
6.2636948e-07
0.0029494724
5.8511647e-07
0.0029489259
5.4657885e-07
0.0029484153
5.1058734e-07
0.0029479384
4.769481e-07
0.0029474928
4.4553198e-07
0.0029470766
4.1615977e-07
0.0029466879
3.8874401e-07
0.0029463248
3.6310551e-07
0.0029459855
3.3920623e-07
0.0029456687
3.1683309e-07
0.0029453727
2.9601919e-07
0.0029450963
2.7647554e-07
0.0029448379
2.5835186e-07
0.0029445967
2.4123074e-07
0.0029443712
2.2545168e-07
0.0029441608
2.1043699e-07
0.002943964
1.967986e-07
0.0029437803
1.8359444e-07
0.0029436085
1.7184789e-07
0.0029434482
1.6029551e-07
0.0029432979
1.5036825e-07
0.0029431574
1.4048379e-07
0.0029430253
1.3213677e-07
0.0029429002
1.2506657e-07
0.0029427808
1.1940825e-07
1.2573293e-07
0.010339525
0.00035427932
0.010570754
0.00079057335
0.010606301
0.00091894821
0.010547572
0.00090167138
0.010422317
0.00084262624
0.010244356
0.00075768559
0.010039421
0.00065662744
0.0098287427
0.00055365585
0.009625135
0.00045977082
0.0094353013
0.00037975353
0.0092624277
0.00031409258
0.0091075332
0.00026140426
0.008970154
0.00021969949
0.0088489023
0.00018689787
0.0087419716
0.00016105803
0.0086474927
0.00014051895
0.008563694
0.00012399297
0.0084890108
0.000110476
0.0084221096
9.9219863e-05
0.0083618775
8.9681391e-05
0.0083073954
8.1470655e-05
0.0082579079
7.4307837e-05
0.0082127929
6.7990495e-05
0.0081715353
6.2369996e-05
0.0081337049
5.7335028e-05
0.0080989388
5.2800202e-05
0.0080669272
4.8698282e-05
0.0080374036
4.4974964e-05
0.0080101361
4.158539e-05
0.0079849213
3.8491836e-05
0.0079615798
3.5662138e-05
0.0079399519
3.3068592e-05
0.0079198952
3.0687158e-05
0.0079012817
2.8496846e-05
0.0078839962
2.6479251e-05
0.0078679345
2.4618166e-05
0.0078530022
2.2899273e-05
0.0078391133
2.1309873e-05
0.0078261893
1.9838676e-05
0.0078141589
1.8475608e-05
0.0078029562
1.7211646e-05
0.0077925214
1.6038692e-05
0.007782799
1.4949447e-05
0.0077737382
1.3937315e-05
0.0077652921
1.2996317e-05
0.0077574175
1.2121023e-05
0.0077500744
1.1306487e-05
0.0077432258
1.0548192e-05
0.0077368375
9.8420071e-06
0.0077308778
9.1841482e-06
0.0077253172
8.571135e-06
0.0077201286
7.9997712e-06
0.0077152866
7.4671111e-06
0.0077107675
6.9704316e-06
0.0077065496
6.5072208e-06
0.0077026126
6.0751505e-06
0.0076989373
5.6720678e-06
0.0076955064
5.2959766e-06
0.0076923033
4.9450253e-06
0.0076893127
4.6175046e-06
0.0076865206
4.3118214e-06
0.0076839135
4.0265021e-06
0.0076814792
3.7601749e-06
0.007679206
3.5115576e-06
0.0076770834
3.2794582e-06
0.0076751012
3.0627598e-06
0.0076732502
2.8604317e-06
0.0076715215
2.6715063e-06
0.0076699072
2.4950878e-06
0.0076683995
2.3303442e-06
0.0076669914
2.1765067e-06
0.0076656764
2.0328431e-06
0.0076644483
1.8986978e-06
0.0076633012
1.7734212e-06
0.0076622299
1.6564416e-06
0.0076612294
1.5471773e-06
0.0076602948
1.4451433e-06
0.0076594219
1.3498078e-06
0.0076586067
1.2607915e-06
0.0076578452
1.1775951e-06
0.007657134
1.099963e-06
0.0076564697
1.0273723e-06
0.0076558492
9.5970815e-07
0.0076552697
8.9635958e-07
0.0076547283
8.37408e-07
0.0076542228
7.820531e-07
0.0076537504
7.3072327e-07
0.0076533094
6.8226009e-07
0.0076528971
6.3765013e-07
0.0076525125
5.9506993e-07
0.0076521527
5.5658661e-07
0.0076518172
5.1907909e-07
0.0076515029
4.8614353e-07
0.0076512106
4.5267658e-07
0.0076509355
4.2543777e-07
0.0076506807
3.9529616e-07
0.0076504385
3.7426191e-07
0.0076502165
3.4707618e-07
0.0076499999
3.3603927e-07
3.1071186e-07
0.010188704
0.00016557516
0.010530487
0.000448791
0.010851453
0.00059798178
0.011124174
0.00062895025
0.011350581
0.00061621887
0.011524486
0.00058378055
0.01164633
0.0005347842
0.011724155
0.00047583049
0.011767999
0.00041592665
0.011786639
0.00036111399
0.011787114
0.00031361711
0.011775058
0.00027346026
0.011754861
0.00023989719
0.011729768
0.00021199032
0.011702054
0.00018877261
0.011673239
0.00016933388
0.011644339
0.00015289296
0.011616003
0.00013881182
0.011588629
0.00012659378
0.011562446
0.00011586444
0.011537572
0.00010634493
0.011514052
9.7827001e-05
0.01149189
9.0153367e-05
0.011471056
8.3203376e-05
0.011451509
7.6882624e-05
0.011433193
7.111557e-05
0.011416051
6.5840298e-05
0.011400021
6.1004907e-05
0.011385042
5.6565063e-05
0.011371051
5.2482327e-05
0.01135799
4.8723016e-05
0.011345801
4.525738e-05
0.01133443
4.2058993e-05
0.011323822
3.9104279e-05
0.011313929
3.6372136e-05
0.011304704
3.3843625e-05
0.011296101
3.1501708e-05
0.01128808
2.9331024e-05
0.011280601
2.7317698e-05
0.011273628
2.5449165e-05
0.011267125
2.3714031e-05
0.011261062
2.2101935e-05
0.011255408
2.0603444e-05
0.011250135
1.920995e-05
0.011245218
1.7913583e-05
0.011240632
1.6707138e-05
0.011236354
1.558401e-05
0.011232364
1.4538136e-05
0.011228643
1.3563943e-05
0.01122517
1.2656295e-05
0.011221931
1.1810463e-05
0.011218909
1.1022077e-05
0.011216089
1.0287102e-05
0.011213457
9.6018054e-06
0.011211002
8.9627271e-06
0.01120871
8.3666652e-06
0.011206572
7.8106489e-06
0.011204576
7.2919263e-06
0.011202713
6.8079468e-06
0.011200974
6.3563411e-06
0.011199351
5.9349164e-06
0.011197836
5.5416234e-06
0.011196421
5.1745616e-06
0.011195101
4.8319574e-06
0.011193868
4.5121562e-06
0.011192718
4.2136177e-06
0.011191643
3.9349085e-06
0.01119064
3.6746971e-06
0.011189703
3.4317531e-06
0.011188829
3.2049164e-06
0.011188012
2.9931304e-06
0.011187249
2.7953849e-06
0.011186537
2.6107563e-06
0.011185872
2.4383487e-06
0.011185252
2.2773714e-06
0.011184672
2.1270141e-06
0.01118413
1.9866221e-06
0.011183625
1.8554569e-06
0.011183152
1.7330121e-06
0.011182711
1.6185813e-06
0.011182299
1.5118294e-06
0.011181915
1.4120059e-06
0.011181556
1.3189876e-06
0.01118122
1.2318501e-06
0.011180907
1.1508294e-06
0.011180614
1.0746436e-06
0.011180341
1.0041489e-06
0.011180086
9.3737898e-07
0.011179847
8.7626247e-07
0.011179624
8.1747427e-07
0.011179416
7.6495889e-07
0.011179222
7.1278747e-07
0.01117904
6.6840735e-07
0.011178872
6.2114286e-07
0.011178712
5.8526071e-07
0.011178566
5.4111285e-07
0.011178425
5.1512241e-07
0.0111783
4.7214246e-07
0.011178177
4.590735e-07
4.1610434e-07
0.010097182
6.8393564e-05
0.010346961
0.00019901113
0.010662469
0.00028247387
0.010982753
0.00030866648
0.011290229
0.00030874341
0.011575251
0.00029875788
0.011829022
0.00028101346
0.012047865
0.00025698756
0.012233272
0.00023051982
0.01238924
0.00020514589
0.012520295
0.00018256235
0.012630755
0.00016299957
0.012724428
0.00014622492
0.012804515
0.00013190313
0.012873613
0.00011967427
0.012933772
0.00010917461
0.012986596
0.00010006906
0.013033332
9.2076359e-05
0.01307495
8.4975248e-05
0.013112216
7.8598612e-05
0.013145739
7.2822306e-05
0.013176012
6.7553944e-05
0.013203441
6.2723932e-05
0.013228366
5.8278903e-05
0.013251071
5.4176992e-05
0.013271802
5.0384433e-05
0.01329077
4.687316e-05
0.013308155
4.3619172e-05
0.013324119
4.0601452e-05
0.0133388
3.7801272e-05
0.013352321
3.520175e-05
0.013364791
3.2787533e-05
0.013376306
3.0544602e-05
0.01338695
2.8460104e-05
0.0133968
2.6522237e-05
0.013405923
2.4720148e-05
0.013414381
2.3043848e-05
0.013422228
2.148414e-05
0.013429513
2.0032548e-05
0.013436281
1.8681255e-05
0.013442572
1.7423048e-05
0.013448423
1.6251269e-05
0.013453866
1.5159763e-05
0.013458933
1.4142841e-05
0.013463652
1.3195242e-05
0.013468047
1.2312094e-05
0.013472142
1.1488888e-05
0.013475959
1.0721448e-05
0.013479517
1.0005905e-05
0.013482834
9.3386714e-06
0.013485928
8.7164156e-06
0.013488814
8.1360476e-06
0.013491507
7.5946938e-06
0.013494019
7.0896809e-06
0.013496363
6.6185286e-06
0.013498551
6.1789246e-06
0.013500593
5.7687242e-06
0.013502499
5.3859339e-06
0.013504278
5.0287012e-06
0.013505939
4.6953029e-06
0.01350749
4.384133e-06
0.013508938
4.0936994e-06
0.01351029
3.8226065e-06
0.013511552
3.5695509e-06
0.013512731
3.3333222e-06
0.013513832
3.1127813e-06
0.01351486
2.9068792e-06
0.01351582
2.7146311e-06
0.013516716
2.5351338e-06
0.013517554
2.3675398e-06
0.013518336
2.2110667e-06
0.013519066
2.0649663e-06
0.013519748
1.928565e-06
0.013520386
1.8011881e-06
0.013520981
1.6822547e-06
0.013521537
1.5711625e-06
0.013522056
1.4674345e-06
0.013522541
1.3705193e-06
0.013522994
1.2800581e-06
0.013523417
1.1955117e-06
0.013523812
1.1166593e-06
0.013524181
1.042903e-06
0.013524526
9.7420866e-07
0.013524848
9.0981886e-07
0.013525149
8.5000849e-07
0.01352543
7.9367409e-07
0.013525692
7.4164968e-07
0.013525937
6.9223588e-07
0.013526166
6.4725031e-07
0.01352638
6.035908e-07
0.01352658
5.6504173e-07
0.013526767
5.2620702e-07
0.013526941
4.9393196e-07
0.013527104
4.5824281e-07
0.013527257
4.325029e-07
0.013527399
3.9895343e-07
0.013527533
3.80814e-07
0.013527658
3.4699233e-07
0.013527779
3.3801813e-07
3.056992e-07
0.010068394
4.0345308e-12
0.010267405
2.4090208e-12
0.010549879
-1.6266419e-12
0.010858545
-2.7410475e-12
0.011167288
-2.5066435e-12
0.011466046
-8.5231285e-13
0.01174706
1.3113969e-12
0.012004047
1.2001644e-12
0.012234567
2.0125179e-12
0.012439713
1.94671e-12
0.012622275
9.4457118e-13
0.012785275
-1.2850307e-12
0.0129315
-1.3818225e-12
0.013063403
-1.6169853e-12
0.013183077
-1.8869106e-12
0.013292252
-1.0845697e-12
0.013392321
1.0967146e-12
0.013484397
1.0905936e-12
0.013569373
1.6653403e-12
0.013647971
3.2160827e-12
0.013720793
3.8424564e-12
0.013788347
2.9121048e-12
0.013851071
1.5474452e-12
0.01390935
1.4796032e-12
0.013963527
-1.9166957e-12
0.014013912
-4.5873136e-12
0.014060785
-5.2257479e-12
0.014104404
-5.3452384e-12
0.014145005
-4.6211935e-12
0.014182807
-4.0291261e-12
0.014218009
7.7687242e-13
0.014250796
4.443168e-12
0.014281341
5.123201e-12
0.014309801
6.1896752e-12
0.014336323
5.0900658e-12
0.014361043
2.0978143e-12
0.014384087
-2.1345025e-12
0.014405571
-3.84222e-12
0.014425604
-4.269953e-12
0.014444285
-4.0965376e-12
0.014461708
-1.2136787e-12
0.014477959
3.2983403e-12
0.014493119
5.0835748e-12
0.014507262
6.0249986e-12
0.014520457
5.9232462e-12
0.014532769
3.0161837e-12
0.014544258
-2.1930225e-13
0.014554979
-1.3793787e-12
0.014564985
-3.1121308e-12
0.014574324
-4.211677e-12
0.01458304
-4.2537475e-13
0.014591177
3.7186259e-12
0.014598771
8.0205478e-12
0.014605861
1.0236861e-11
0.014612479
9.2727229e-12
0.014618658
5.6616512e-12
0.014624427
5.8363094e-13
0.014629813
-2.7923177e-12
0.014634842
-2.4405008e-12
0.014639537
-9.8774122e-13
0.014643921
3.8526262e-12
0.014648015
9.4302897e-12
0.014651837
1.4432711e-11
0.014655407
1.4244421e-11
0.01465874
1.1325865e-11
0.014661853
7.1845257e-12
0.01466476
1.0451881e-12
0.014667475
-3.3315394e-12
0.01467001
-2.7640404e-12
0.014672377
5.5514955e-13
0.014674588
8.6390548e-12
0.014676653
1.672691e-11
0.014678582
1.7930089e-11
0.014680383
1.8281754e-11
0.014682065
1.4131631e-11
0.014683636
4.173306e-12
0.014685104
-3.9686863e-12
0.014686474
-8.409488e-12
0.014687754
-5.9980348e-12
0.01468895
6.8014601e-13
0.014690067
1.0938978e-11
0.014691109
1.9174155e-11
0.014692084
1.4054757e-11
0.014692993
9.4995075e-12
0.014693843
2.7751215e-12
0.014694637
-1.2915827e-11
0.014695379
-2.1187636e-11
0.014696071
-1.3841695e-12
0.014696718
3.3940854e-12
0.014697322
-3.8232193e-11
0.014697887
6.1911497e-12
0.014698413
6.5049393e-11
0.014698907
-3.243858e-11
0.014699365
-1.3293574e-10
0.014699798
-3.9705954e-11
0.014700197
5.0083809e-11
0.014700578
-2.1954443e-12
0.014700925
-4.6486726e-11
0.014701263
-3.2638369e-11
-2.3819448e-11
0.010068394
-6.8393557e-05
0.010267405
-0.00019901112
0.010549879
-0.00028247387
0.010858545
-0.00030866649
0.011167288
-0.00030874342
0.011466046
-0.00029875789
0.01174706
-0.00028101346
0.012004047
-0.00025698756
0.012234567
-0.00023051982
0.012439713
-0.00020514589
0.012622275
-0.00018256235
0.012785275
-0.00016299957
0.0129315
-0.00014622492
0.013063403
-0.00013190313
0.013183077
-0.00011967427
0.013292252
-0.00010917461
0.013392321
-0.00010006907
0.013484397
-9.207636e-05
0.013569373
-8.4975247e-05
0.013647971
-7.8598609e-05
0.013720794
-7.2822301e-05
0.013788347
-6.7553939e-05
0.013851071
-6.2723928e-05
0.01390935
-5.8278902e-05
0.013963527
-5.4176993e-05
0.014013912
-5.0384438e-05
0.014060785
-4.6873169e-05
0.014104404
-4.3619182e-05
0.014145005
-4.0601461e-05
0.014182807
-3.7801279e-05
0.014218009
-3.520175e-05
0.014250796
-3.2787527e-05
0.014281341
-3.0544592e-05
0.014309801
-2.8460093e-05
0.014336323
-2.6522227e-05
0.014361043
-2.4720142e-05
0.014384087
-2.3043848e-05
0.014405571
-2.1484145e-05
0.014425604
-2.0032556e-05
0.014444285
-1.8681263e-05
0.014461708
-1.7423054e-05
0.014477959
-1.6251268e-05
0.014493119
-1.5159756e-05
0.014507262
-1.4142831e-05
0.014520457
-1.319523e-05
0.014532769
-1.2312084e-05
0.014544258
-1.1488882e-05
0.014554979
-1.0721448e-05
0.014564985
-1.0005911e-05
0.014574324
-9.3386781e-06
0.014583041
-8.716421e-06
0.014591177
-8.1360465e-06
0.014598771
-7.5946844e-06
0.014605861
-7.0896672e-06
0.014612479
-6.6185111e-06
0.014618658
-6.1789088e-06
0.014624427
-5.7687134e-06
0.014629813
-5.3859294e-06
0.014634842
-5.0287016e-06
0.014639537
-4.6953049e-06
0.014643921
-4.3841349e-06
0.014648015
-4.093694e-06
0.014651837
-3.8225915e-06
0.014655407
-3.5695308e-06
0.01465874
-3.3332981e-06
0.014661853
-3.1127588e-06
0.01466476
-2.9068613e-06
0.014667475
-2.7146238e-06
0.01467001
-2.5351344e-06
0.014672377
-2.3675403e-06
0.014674588
-2.2110648e-06
0.014676653
-2.0649576e-06
0.014678582
-1.9285429e-06
0.014680383
-1.8011596e-06
0.014682065
-1.682225e-06
0.014683636
-1.5711381e-06
0.014685104
-1.4674215e-06
0.014686474
-1.3705191e-06
0.014687754
-1.2800649e-06
0.01468895
-1.1955173e-06
0.014690067
-1.1166614e-06
0.01469111
-1.0429007e-06
0.014692084
-9.7419776e-07
0.014692993
-9.0980011e-07
0.014693843
-8.4999102e-07
0.014694637
-7.9366755e-07
0.014695379
-7.4165069e-07
0.014696071
-6.9223761e-07
0.014696718
-6.4728296e-07
0.014697322
-6.0363325e-07
0.014697887
-5.6504347e-07
0.014698413
-5.2622405e-07
0.014698907
-4.9400716e-07
0.014699365
-4.5831452e-07
0.014699798
-4.3251946e-07
0.014700197
-3.9894911e-07
0.014700578
-3.8085185e-07
0.014700925
-3.4707732e-07
0.014701263
-3.3809322e-07
-3.0575636e-07
0.010097182
-0.00016557515
0.010346961
-0.000448791
0.010662469
-0.00059798177
0.010982753
-0.00062895025
0.011290229
-0.00061621887
0.011575251
-0.00058378055
0.011829022
-0.0005347842
0.012047865
-0.00047583049
0.012233272
-0.00041592665
0.01238924
-0.000361114
0.012520295
-0.00031361712
0.012630755
-0.00027346026
0.012724428
-0.00023989719
0.012804515
-0.00021199031
0.012873613
-0.00018877261
0.012933772
-0.00016933388
0.012986596
-0.00015289296
0.013033332
-0.00013881183
0.01307495
-0.00012659379
0.013112216
-0.00011586444
0.013145739
-0.00010634493
0.013176012
-9.7827e-05
0.013203441
-9.0153364e-05
0.013228366
-8.3203371e-05
0.013251071
-7.6882621e-05
0.013271802
-7.111557e-05
0.01329077
-6.58403e-05
0.013308155
-6.1004914e-05
0.013324119
-5.6565071e-05
0.0133388
-5.2482334e-05
0.013352321
-4.8723019e-05
0.013364791
-4.525738e-05
0.013376306
-4.2058989e-05
0.01338695
-3.9104271e-05
0.0133968
-3.6372127e-05
0.013405923
-3.3843617e-05
0.013414381
-3.1501703e-05
0.013422228
-2.9331024e-05
0.013429513
-2.7317703e-05
0.013436281
-2.5449174e-05
0.013442572
-2.3714039e-05
0.013448423
-2.2101941e-05
0.013453866
-2.0603446e-05
0.013458933
-1.9209944e-05
0.013463652
-1.7913571e-05
0.013468047
-1.6707123e-05
0.013472142
-1.5583998e-05
0.013475959
-1.453813e-05
0.013479517
-1.3563943e-05
0.013482834
-1.2656302e-05
0.013485928
-1.1810471e-05
0.013488814
-1.1022085e-05
0.013491507
-1.0287107e-05
0.013494019
-9.6018012e-06
0.013496363
-8.9627142e-06
0.013498551
-8.3666449e-06
0.013500593
-7.8106258e-06
0.013502499
-7.291907e-06
0.013504278
-6.8079384e-06
0.013505939
-6.356347e-06
0.01350749
-5.9349275e-06
0.013508938
-5.5416361e-06
0.01351029
-5.1745703e-06
0.013511552
-4.831952e-06
0.013512731
-4.5121344e-06
0.013513832
-4.2135845e-06
0.01351486
-3.9348755e-06
0.01351582
-3.6746707e-06
0.013516716
-3.4317404e-06
0.013517554
-3.2049229e-06
0.013518336
-2.9931474e-06
0.013519066
-2.7954017e-06
0.013519749
-2.6107669e-06
0.013520386
-2.4383409e-06
0.013520981
-2.2773436e-06
0.013521537
-2.1269742e-06
0.013522056
-1.9865801e-06
0.013522541
-1.8554253e-06
0.013522994
-1.7330041e-06
0.013523417
-1.618601e-06
0.013523812
-1.5118687e-06
0.013524181
-1.4120441e-06
0.013524526
-1.3190082e-06
0.013524848
-1.2318415e-06
0.013525149
-1.1507941e-06
0.01352543
-1.0745935e-06
0.013525692
-1.0041026e-06
0.013525937
-9.3737532e-07
0.013526166
-8.7630241e-07
0.01352638
-8.175201e-07
0.01352658
-7.6501481e-07
0.013526767
-7.1289456e-07
0.013526941
-6.6848356e-07
0.013527104
-6.2107467e-07
0.013527257
-5.8516084e-07
0.013527399
-5.4115889e-07
0.013527533
-5.1524238e-07
0.013527658
-4.7220457e-07
0.013527779
-4.591209e-07
-4.1617352e-07
0.010188704
-0.00035427932
0.010530487
-0.00079057335
0.010851453
-0.00091894821
0.011124174
-0.00090167137
0.011350581
-0.00084262624
0.011524486
-0.00075768559
0.01164633
-0.00065662744
0.011724155
-0.00055365586
0.011767999
-0.00045977083
0.011786639
-0.00037975354
0.011787114
-0.00031409259
0.011775058
-0.00026140426
0.011754861
-0.00021969949
0.011729768
-0.00018689786
0.011702054
-0.00016105802
0.011673239
-0.00014051895
0.011644339
-0.00012399297
0.011616003
-0.000110476
0.011588629
-9.9219868e-05
0.011562446
-8.9681398e-05
0.011537572
-8.1470661e-05
0.011514052
-7.430784e-05
0.01149189
-6.7990493e-05
0.011471056
-6.2369992e-05
0.011451509
-5.7335023e-05
0.011433193
-5.2800196e-05
0.011416051
-4.869828e-05
0.011400021
-4.4974965e-05
0.011385042
-4.1585394e-05
0.011371051
-3.8491842e-05
0.01135799
-3.5662144e-05
0.011345801
-3.3068596e-05
0.01133443
-3.0687158e-05
0.011323822
-2.8496843e-05
0.011313929
-2.6479245e-05
0.011304704
-2.4618159e-05
0.011296101
-2.2899265e-05
0.01128808
-2.1309868e-05
0.011280601
-1.9838676e-05
0.011273628
-1.8475612e-05
0.011267125
-1.7211654e-05
0.011261062
-1.6038701e-05
0.011255408
-1.4949453e-05
0.011250135
-1.3937315e-05
0.011245218
-1.2996312e-05
0.011240632
-1.2121014e-05
0.011236354
-1.1306476e-05
0.011232364
-1.0548182e-05
0.011228643
-9.8420018e-06
0.01122517
-9.1841471e-06
0.011221931
-8.5711408e-06
0.011218909
-7.9997824e-06
0.011216089
-7.4671215e-06
0.011213457
-6.9704377e-06
0.011211002
-6.5072184e-06
0.01120871
-6.0751391e-06
0.011206572
-5.6720485e-06
0.011204576
-5.2959552e-06
0.011202713
-4.945011e-06
0.011200974
-4.6174988e-06
0.011199351
-4.3118278e-06
0.011197836
-4.0265186e-06
0.011196422
-3.7601925e-06
0.011195101
-3.5115672e-06
0.011193868
-3.2794539e-06
0.011192718
-3.0627428e-06
0.011191643
-2.8604033e-06
0.01119064
-2.6714742e-06
0.011189703
-2.4950654e-06
0.011188829
-2.3303368e-06
0.011188012
-2.1765165e-06
0.01118725
-2.0328685e-06
0.011186537
-1.8987241e-06
0.011185873
-1.7734365e-06
0.011185252
-1.6564378e-06
0.011184672
-1.5471506e-06
0.01118413
-1.4451011e-06
0.011183625
-1.3497658e-06
0.011183152
-1.2607676e-06
0.011182711
-1.1776001e-06
0.0111823
-1.0999937e-06
0.011181915
-1.0274187e-06
0.011181556
-9.5974707e-07
0.01118122
-8.9637582e-07
0.011180907
-8.3739475e-07
0.011180614
-7.820086e-07
0.011180341
-7.3067434e-07
0.011180086
-6.8223467e-07
0.011179847
-6.3764706e-07
0.011179625
-5.9509429e-07
0.011179416
-5.566712e-07
0.011179223
-5.1918258e-07
0.01117904
-4.8616564e-07
0.011178872
-4.5263773e-07
0.011178712
-4.2542205e-07
0.011178566
-3.9528771e-07
0.011178425
-3.7425416e-07
0.0111783
-3.471209e-07
0.011178177
-3.3611507e-07
-3.107779e-07
0.010339525
-0.00069380425
0.010570754
-0.0010218027
0.010606301
-0.00095449449
0.010547572
-0.00084294334
0.010422317
-0.0007173708
0.010244356
-0.00057972444
0.010039421
-0.00045169205
0.0098287427
-0.00034297801
0.009625135
-0.00025616317
0.0094353013
-0.00018991983
0.0092624277
-0.00014121897
0.0091075332
-0.0001065098
0.008970154
-8.232022e-05
0.0088489023
-6.5646245e-05
0.0087419716
-5.4127255e-05
0.0086474927
-4.6040049e-05
0.008563694
-4.0194294e-05
0.0084890108
-3.5792757e-05
0.0084221096
-3.2318758e-05
0.0083618775
-2.9449278e-05
0.0083073954
-2.6988572e-05
0.0082579079
-2.4820296e-05
0.0082127929
-2.2875477e-05
0.0081715353
-2.1112418e-05
0.0081337049
-1.950466e-05
0.0080989388
-1.8034025e-05
0.0080669272
-1.6686736e-05
0.0080374036
-1.5451372e-05
0.0080101361
-1.4317866e-05
0.0079849213
-1.3277068e-05
0.0079615798
-1.2320583e-05
0.0079399519
-1.144071e-05
0.0079198952
-1.0630424e-05
0.0079012817
-9.8833596e-06
0.0078839962
-9.1937731e-06
0.0078679345
-8.556505e-06
0.0078530022
-7.9669331e-06
0.0078391133
-7.4209192e-06
0.0078261893
-6.9147575e-06
0.0078141589
-6.4451269e-06
0.0078029562
-6.0090454e-06
0.0077925214
-5.6038276e-06
0.007782799
-5.2270495e-06
0.0077737382
-4.8765178e-06
0.0077652921
-4.5502412e-06
0.0077574175
-4.2464066e-06
0.0077500744
-3.9633603e-06
0.0077432258
-3.6995898e-06
0.0077368375
-3.4537081e-06
0.0077308778
-3.2244416e-06
0.0077253173
-3.0106183e-06
0.0077201286
-2.8111568e-06
0.0077152866
-2.6250584e-06
0.0077107675
-2.4514008e-06
0.0077065497
-2.28933e-06
0.0077026126
-2.1380535e-06
0.0076989374
-1.9968376e-06
0.0076955064
-1.8650017e-06
0.0076923033
-1.741912e-06
0.0076893128
-1.6269797e-06
0.0076865206
-1.5196591e-06
0.0076839135
-1.4194409e-06
0.0076814792
-1.3258498e-06
0.0076792061
-1.2384439e-06
0.0076770834
-1.1568122e-06
0.0076751013
-1.0805688e-06
0.0076732502
-1.009356e-06
0.0076715216
-9.4284093e-07
0.0076699072
-8.807145e-07
0.0076683996
-8.2268403e-07
0.0076669915
-7.6848207e-07
0.0076656765
-7.1785251e-07
0.0076644484
-6.7056262e-07
0.0076633013
-6.2638553e-07
0.00766223
-5.8512341e-07
0.0076612294
-5.4657231e-07
0.0076602949
-5.1056812e-07
0.007659422
-4.7692559e-07
0.0076586068
-4.4551434e-07
0.0076578453
-4.1615369e-07
0.0076571341
-3.8875389e-07
0.0076564698
-3.6312615e-07
0.0076558493
-3.3923137e-07
0.0076552698
-3.168514e-07
0.0076547284
-2.9602178e-07
0.0076542229
-2.7646152e-07
0.0076537505
-2.5832706e-07
0.0076533095
-2.4120866e-07
0.0076528973
-2.2543904e-07
0.0076525126
-2.104452e-07
0.0076521528
-1.968357e-07
0.0076518172
-1.8363224e-07
0.0076515029
-1.7185287e-07
0.0076512106
-1.6029775e-07
0.0076509356
-1.5038243e-07
0.0076506807
-1.4047373e-07
0.0076504385
-1.3210451e-07
0.0076502165
-1.2506059e-07
0.0076499998
-1.1944012e-07
-1.257657e-07
0.0093061957
0.0082843931
0.0073298986
0.0064869553
0.0057695845
0.00518986
0.004738168
0.00439519
0.0041390268
0.003949107
0.003807888
0.0037013782
0.003619058
0.0035534117
0.0034992845
0.0034532444
0.0034130501
0.0033772574
0.0033449386
0.0033154893
0.0032885008
0.0032636805
0.003240805
0.0032196926
0.0032001879
0.0031821539
0.0031654672
0.0031500158
0.0031356979
0.0031224208
0.0031101003
0.0030986596
0.0030880291
0.0030781458
0.003068952
0.0030603955
0.0030524286
0.0030450076
0.0030380929
0.0030316478
0.0030256387
0.0030200349
0.0030148078
0.0030099313
0.0030053811
0.0030011347
0.0029971713
0.0029934717
0.002990018
0.0029867936
0.0029837829
0.0029809718
0.0029783467
0.0029758953
0.002973606
0.002971468
0.0029694711
0.0029676061
0.0029658642
0.0029642372
0.0029627176
0.0029612981
0.0029599723
0.0029587338
0.002957577
0.0029564964
0.0029554871
0.0029545442
0.0029536635
0.0029528408
0.0029520724
0.0029513545
0.002950684
0.0029500576
0.0029494724
0.0029489259
0.0029484153
0.0029479384
0.0029474929
0.0029470767
0.002946688
0.0029463248
0.0029459856
0.0029456688
0.0029453727
0.0029450963
0.0029448379
0.0029445967
0.0029443713
0.0029441608
0.002943964
0.0029437804
0.0029436085
0.0029434482
0.0029432978
0.0029431574
0.0029430252
0.0029429002
0.0029427808
)
;

boundaryField
{
    top
    {
        type            calculated;
        value           uniform 0;
    }
    inlet
    {
        type            calculated;
        value           nonuniform List<scalar> 10(-0.01 -0.01 -0.01 -0.01 -0.01 -0.01 -0.01 -0.01 -0.01 -0.01);
    }
    outlet
    {
        type            calculated;
        value           nonuniform List<scalar> 10(0.002942655 0.0076498149 0.011178072 0.01352789 0.014701569 0.014701569 0.01352789 0.011178072 0.0076498148 0.002942655);
    }
    bottom
    {
        type            calculated;
        value           uniform 0;
    }
    back
    {
        type            empty;
        value           nonuniform 0();
    }
    front
    {
        type            empty;
        value           nonuniform 0();
    }
}


// ************************************************************************* //
