/*--------------------------------*- C++ -*----------------------------------*\
| =========                 |                                                 |
| \\      /  F ield         | OpenFOAM: The Open Source CFD Toolbox           |
|  \\    /   O peration     | Version:  v1812                                 |
|   \\  /    A nd           | Web:      www.OpenFOAM.com                      |
|    \\/     M anipulation  |                                                 |
\*---------------------------------------------------------------------------*/
FoamFile
{
    version     2.0;
    format      ascii;
    class       volVectorField;
    location    "14.8";
    object      U;
}
// * * * * * * * * * * * * * * * * * * * * * * * * * * * * * * * * * * * * * //

dimensions      [0 1 -1 0 0 0 0];


internalField   nonuniform List<vector> 
1000
(
(0.91890839 0.035821912 0)
(0.86271384 0.062195638 0)
(0.7870597 0.062510089 0)
(0.69536033 0.054550394 0)
(0.61089745 0.04453165 0)
(0.54411592 0.034015971 0)
(0.49343012 0.02418754 0)
(0.45479414 0.016144231 0)
(0.42544583 0.010265786 0)
(0.40347313 0.0063041455 0)
(0.38715766 0.0037976295 0)
(0.37496219 0.0023103384 0)
(0.36566192 0.0014930152 0)
(0.35836272 0.0010851184 0)
(0.35244267 0.00090607209 0)
(0.347482 0.00084105114 0)
(0.34320348 0.00082372356 0)
(0.33942726 0.00081931 0)
(0.33603793 0.00081185212 0)
(0.33296114 0.00079580172 0)
(0.33014778 0.00077081242 0)
(0.32756384 0.0007387104 0)
(0.3251842 0.00070188993 0)
(0.32298902 0.00066256576 0)
(0.32096172 0.00062249913 0)
(0.31908785 0.00058295645 0)
(0.31735449 0.00054477064 0)
(0.31574995 0.00050843332 0)
(0.3142636 0.00047419144 0)
(0.31288574 0.00044212487 0)
(0.31160755 0.00041221033 0)
(0.31042101 0.00038436271 0)
(0.30931883 0.00035846594 0)
(0.30829438 0.00033439086 0)
(0.30734165 0.00031200652 0)
(0.30645515 0.00029118674 0)
(0.30562991 0.00027181286 0)
(0.30486136 0.00025377536 0)
(0.30414535 0.00023697354 0)
(0.30347807 0.00022131472 0)
(0.30285601 0.00020671507 0)
(0.30227596 0.00019309694 0)
(0.30173496 0.0001803902 0)
(0.30123029 0.00016853009 0)
(0.30075942 0.00015745737 0)
(0.30032002 0.00014711821 0)
(0.29990993 0.00013746218 0)
(0.29952715 0.00012844385 0)
(0.29916983 0.00012002031 0)
(0.29883624 0.00011215124 0)
(0.29852478 0.00010480011 0)
(0.29823397 9.7931304e-05 0)
(0.29796241 9.1512658e-05 0)
(0.29770882 8.5513937e-05 0)
(0.29747201 7.990666e-05 0)
(0.29725084 7.4665999e-05 0)
(0.29704429 6.9767441e-05 0)
(0.29685137 6.5190551e-05 0)
(0.2966712 6.0914456e-05 0)
(0.29650291 5.6919588e-05 0)
(0.29634572 5.318768e-05 0)
(0.2961989 4.9700232e-05 0)
(0.29606176 4.6440759e-05 0)
(0.29593366 4.3393269e-05 0)
(0.295814 4.0543218e-05 0)
(0.29570223 3.7878509e-05 0)
(0.29559783 3.5387406e-05 0)
(0.29550031 3.3059914e-05 0)
(0.29540922 3.088751e-05 0)
(0.29532413 2.8859366e-05 0)
(0.29524465 2.6966744e-05 0)
(0.2951704 2.5199031e-05 0)
(0.29510104 2.3545957e-05 0)
(0.29503624 2.199893e-05 0)
(0.29497572 2.0550334e-05 0)
(0.29491918 1.9194245e-05 0)
(0.29486637 1.7927245e-05 0)
(0.29481705 1.6743839e-05 0)
(0.29477097 1.5642474e-05 0)
(0.29472794 1.4616047e-05 0)
(0.29468773 1.3660626e-05 0)
(0.29465017 1.2767312e-05 0)
(0.29461507 1.1931496e-05 0)
(0.29458229 1.114548e-05 0)
(0.29455166 1.0408301e-05 0)
(0.29452307 9.7132778e-06 0)
(0.29449635 9.0720834e-06 0)
(0.29447142 8.469579e-06 0)
(0.2944481 7.917604e-06 0)
(0.29442634 7.3966497e-06 0)
(0.29440599 6.926335e-06 0)
(0.294387 6.4733432e-06 0)
(0.2943692 6.0626756e-06 0)
(0.29435258 5.6510371e-06 0)
(0.29433714 5.2891644e-06 0)
(0.29432249 4.9680262e-06 0)
(0.29430919 4.6870317e-06 0)
(0.29429569 4.538196e-06 0)
(0.29428502 4.4051657e-06 0)
(0.29426874 5.0574489e-06 0)
(1.0016583 0.05381943 0)
(1.0359761 0.10128443 0)
(1.0597199 0.11073663 0)
(1.0628947 0.10592201 0)
(1.0515569 0.096228725 0)
(1.0340529 0.083934059 0)
(1.0142795 0.070327062 0)
(0.99360703 0.056981334 0)
(0.97292577 0.04510748 0)
(0.9531074 0.03523675 0)
(0.93479539 0.02740165 0)
(0.91829012 0.021387228 0)
(0.90362379 0.0168845 0)
(0.89068067 0.013569709 0)
(0.87928174 0.011147749 0)
(0.86923241 0.0093736583 0)
(0.86034423 0.0080569275 0)
(0.85244667 0.0070571268 0)
(0.84539241 0.0062752382 0)
(0.83905793 0.0056438289 0)
(0.83334126 0.0051180919 0)
(0.82815884 0.0046686733 0)
(0.82344212 0.0042764181 0)
(0.81913467 0.003928739 0)
(0.81518962 0.0036172031 0)
(0.81156765 0.0033359693 0)
(0.80823544 0.0030808026 0)
(0.8051644 0.0028484675 0)
(0.80232979 0.0026363683 0)
(0.79970999 0.0024423381 0)
(0.79728597 0.0022645192 0)
(0.79504086 0.002101291 0)
(0.79295963 0.0019512268 0)
(0.79102881 0.0018130644 0)
(0.78923627 0.0016856844 0)
(0.7875711 0.0015680924 0)
(0.78602338 0.0014594046 0)
(0.78458411 0.001358834 0)
(0.78324511 0.0012656787 0)
(0.78199889 0.0011793105 0)
(0.78083861 0.0010991669 0)
(0.77975799 0.0010247421 0)
(0.77875128 0.00095558039 0)
(0.77781318 0.00089127019 0)
(0.77693881 0.00083143847 0)
(0.77612368 0.00077574713 0)
(0.77536362 0.00072388803 0)
(0.77465481 0.00067558029 0)
(0.77399367 0.00063056668 0)
(0.77337693 0.00058861044 0)
(0.77280153 0.00054949426 0)
(0.77226464 0.00051301706 0)
(0.77176363 0.00047899305 0)
(0.77129607 0.000447251 0)
(0.77085967 0.00041763183 0)
(0.77045234 0.00038999005 0)
(0.77007212 0.00036419047 0)
(0.76971717 0.00034010963 0)
(0.76938581 0.00031763221 0)
(0.76907644 0.00029665035 0)
(0.7687876 0.00027706352 0)
(0.76851791 0.00025877699 0)
(0.7682661 0.00024170202 0)
(0.76803096 0.00022575608 0)
(0.76781139 0.00021086224 0)
(0.76760636 0.00019695035 0)
(0.76741488 0.00018395591 0)
(0.76723608 0.00017181961 0)
(0.76706909 0.00016048749 0)
(0.76691315 0.00014990699 0)
(0.76676751 0.00014002923 0)
(0.7666315 0.00013080565 0)
(0.76650447 0.00012219054 0)
(0.76638582 0.00011414033 0)
(0.76627501 0.0001066169 0)
(0.76617152 9.9583981e-05 0)
(0.76607486 9.301375e-05 0)
(0.76598458 8.6875291e-05 0)
(0.76590025 8.1148105e-05 0)
(0.76582151 7.5801086e-05 0)
(0.76574793 7.08159e-05 0)
(0.76567924 6.6156288e-05 0)
(0.76561505 6.1808711e-05 0)
(0.76555512 5.7733831e-05 0)
(0.76549911 5.3932642e-05 0)
(0.76544684 5.0357734e-05 0)
(0.76539796 4.7039923e-05 0)
(0.76535239 4.3921552e-05 0)
(0.7653097 4.105217e-05 0)
(0.76526996 3.8321034e-05 0)
(0.76523272 3.5842551e-05 0)
(0.76519803 3.3462602e-05 0)
(0.76516555 3.1332181e-05 0)
(0.76513517 2.9191398e-05 0)
(0.76510714 2.7367166e-05 0)
(0.76507998 2.5519599e-05 0)
(0.76505662 2.4071474e-05 0)
(0.76503057 2.2553139e-05 0)
(0.76501445 2.1594354e-05 0)
(0.76498345 2.0991857e-05 0)
(1.0014244 0.026824854 0)
(1.0291272 0.06279135 0)
(1.0654292 0.077736549 0)
(1.098962 0.080597196 0)
(1.1253149 0.078285167 0)
(1.145053 0.073153897 0)
(1.1594858 0.066111277 0)
(1.1694287 0.058162062 0)
(1.1755354 0.050296754 0)
(1.1785738 0.043150708 0)
(1.1793571 0.036972825 0)
(1.1785949 0.031771632 0)
(1.1768304 0.02745184 0)
(1.1744518 0.023886768 0)
(1.1717287 0.02094762 0)
(1.1688444 0.01851578 0)
(1.1659195 0.016488085 0)
(1.1630317 0.014779503 0)
(1.1602295 0.013322985 0)
(1.1575415 0.012067133 0)
(1.1549828 0.010973001 0)
(1.1525601 0.010011062 0)
(1.1502747 0.0091587472 0)
(1.1481246 0.0083986043 0)
(1.1461059 0.0077169503 0)
(1.1442134 0.0071028877 0)
(1.1424414 0.0065475913 0)
(1.1407838 0.006043795 0)
(1.1392344 0.0055854258 0)
(1.1377869 0.0051673446 0)
(1.1364353 0.0047851573 0)
(1.1351738 0.0044350767 0)
(1.1339968 0.0041138174 0)
(1.1328987 0.0038185135 0)
(1.1318746 0.0035466534 0)
(1.1309195 0.0032960271 0)
(1.1300289 0.0030646827 0)
(1.1291985 0.00285089 0)
(1.1284242 0.0026531097 0)
(1.1277022 0.002469968 0)
(1.1270291 0.0023002354 0)
(1.1264014 0.0021428072 0)
(1.1258161 0.0019966887 0)
(1.1252702 0.0018609815 0)
(1.1247612 0.0017348719 0)
(1.1242865 0.0016176213 0)
(1.1238437 0.0015085576 0)
(1.1234307 0.0014070678 0)
(1.1230455 0.001312591 0)
(1.1226861 0.0012246134 0)
(1.1223509 0.0011426634 0)
(1.1220381 0.0010663073 0)
(1.1217462 0.00099514525 0)
(1.1214739 0.00092880893 0)
(1.1212198 0.00086695848 0)
(1.1209827 0.00080928036 0)
(1.1207614 0.00075548528 0)
(1.1205548 0.00070530561 0)
(1.1203621 0.00065849293 0)
(1.1201821 0.00061481635 0)
(1.1200142 0.00057406155 0)
(1.1198574 0.00053602874 0)
(1.1197111 0.00050053225 0)
(1.1195745 0.00046739931 0)
(1.1194469 0.00043647007 0)
(1.1193278 0.00040759596 0)
(1.1192167 0.0003806398 0)
(1.1191129 0.00035547401 0)
(1.119016 0.00033198016 0)
(1.1189255 0.00031004632 0)
(1.118841 0.00028956881 0)
(1.1187621 0.00027044774 0)
(1.1186884 0.00025259251 0)
(1.1186197 0.00023591555 0)
(1.1185554 0.00022034077 0)
(1.1184954 0.00020579215 0)
(1.1184394 0.00019220759 0)
(1.1183871 0.00017951903 0)
(1.1183383 0.00016767707 0)
(1.1182926 0.00015661441 0)
(1.11825 0.0001462934 0)
(1.1182103 0.00013664144 0)
(1.118173 0.00012764093 0)
(1.1181384 0.00011920907 0)
(1.1181059 0.00011135894 0)
(1.1180757 0.00010398582 0)
(1.1180473 9.7155197e-05 0)
(1.1180211 9.0706753e-05 0)
(1.1179962 8.4787527e-05 0)
(1.1179734 7.912899e-05 0)
(1.1179516 7.402667e-05 0)
(1.1179319 6.9014871e-05 0)
(1.1179128 6.4659423e-05 0)
(1.1178955 6.0140315e-05 0)
(1.117879 5.6562361e-05 0)
(1.1178635 5.2427629e-05 0)
(1.11785 4.9746545e-05 0)
(1.1178348 4.5808938e-05 0)
(1.1178262 4.4318491e-05 0)
(1.1178083 4.0573113e-05 0)
(1.0007347 0.011814721 0)
(1.0178472 0.030860924 0)
(1.0462163 0.041434438 0)
(1.0799018 0.045193566 0)
(1.1132664 0.045502348 0)
(1.143782 0.044080305 0)
(1.1708941 0.04143998 0)
(1.1945687 0.037973676 0)
(1.2148582 0.034195728 0)
(1.2319652 0.030536886 0)
(1.2462683 0.027222044 0)
(1.2582339 0.02431392 0)
(1.2683135 0.021797887 0)
(1.2768875 0.019633659 0)
(1.2842554 0.017773826 0)
(1.2906479 0.016169652 0)
(1.296243 0.014775591 0)
(1.3011791 0.013552298 0)
(1.3055645 0.012467864 0)
(1.3094838 0.011497466 0)
(1.3130042 0.010622162 0)
(1.3161792 0.0098275132 0)
(1.3190526 0.0091024108 0)
(1.3216607 0.0084381765 0)
(1.3240343 0.0078279038 0)
(1.3261995 0.0072659745 0)
(1.3281786 0.0067477091 0)
(1.3299913 0.0062691172 0)
(1.3316544 0.0058267279 0)
(1.3331829 0.0054174736 0)
(1.3345896 0.0050386125 0)
(1.3358862 0.0046876737 0)
(1.3370827 0.0043624193 0)
(1.3381882 0.0040608143 0)
(1.3392108 0.0037810039 0)
(1.3401576 0.0035212948 0)
(1.3410349 0.0032801386 0)
(1.3418486 0.0030561179 0)
(1.3426038 0.0028479346 0)
(1.3433051 0.0026543982 0)
(1.3439569 0.0024744165 0)
(1.3445629 0.0023069864 0)
(1.3451267 0.0021511858 0)
(1.3456513 0.0020061665 0)
(1.3461398 0.0018711475 0)
(1.3465947 0.0017454091 0)
(1.3470185 0.0016282873 0)
(1.3474135 0.0015191691 0)
(1.3477816 0.0014174879 0)
(1.3481249 0.0013227198 0)
(1.3484449 0.0012343802 0)
(1.3487435 0.00115202 0)
(1.349022 0.0010752234 0)
(1.3492818 0.0010036049 0)
(1.3495242 0.00093680749 0)
(1.3497505 0.00087450033 0)
(1.3499616 0.00081637611 0)
(1.3501587 0.00076214925 0)
(1.3503427 0.00071155375 0)
(1.3505145 0.00066434211 0)
(1.3506748 0.00062028434 0)
(1.3508245 0.00057916621 0)
(1.3509643 0.00054078895 0)
(1.3510948 0.00050496734 0)
(1.3512167 0.00047152986 0)
(1.3513305 0.00044031672 0)
(1.3514368 0.00041117966 0)
(1.3515361 0.0003839795 0)
(1.3516288 0.00035858728 0)
(1.3517153 0.00033488064 0)
(1.3517962 0.00031274674 0)
(1.3518717 0.00029207808 0)
(1.3519422 0.00027277829 0)
(1.3520081 0.0002547538 0)
(1.3520696 0.00023792452 0)
(1.3521271 0.00022220746 0)
(1.3521807 0.00020753592 0)
(1.3522309 0.00019383256 0)
(1.3522777 0.00018104403 0)
(1.3523215 0.00016909284 0)
(1.3523623 0.00015794202 0)
(1.3524005 0.00014750917 0)
(1.352436 0.00013778579 0)
(1.3524695 0.00012867153 0)
(1.3525004 0.00012020127 0)
(1.3525296 0.00011223936 0)
(1.3525564 0.00010488384 0)
(1.3525823 9.7901782e-05 0)
(1.3526054 9.1534071e-05 0)
(1.3526281 8.5401141e-05 0)
(1.3526479 7.9932854e-05 0)
(1.3526685 7.4426429e-05 0)
(1.352685 6.9801199e-05 0)
(1.3527035 6.4828521e-05 0)
(1.3527169 6.1121203e-05 0)
(1.352735 5.6440789e-05 0)
(1.3527447 5.3741493e-05 0)
(1.3527627 4.9143807e-05 0)
(1.3527683 4.7704081e-05 0)
(1.3527889 4.2956198e-05 0)
(1.0005903 0.0034629152 0)
(1.0136865 0.009366018 0)
(1.0370283 0.013046804 0)
(1.0674202 0.014563259 0)
(1.1000315 0.014854523 0)
(1.1316428 0.014564989 0)
(1.1610745 0.013888337 0)
(1.1880674 0.012919244 0)
(1.2125205 0.011806505 0)
(1.2343939 0.010696426 0)
(1.2538077 0.009672741 0)
(1.2710339 0.0087628211 0)
(1.286401 0.0079659729 0)
(1.3002112 0.0072722142 0)
(1.3127102 0.0066688087 0)
(1.3240903 0.0061419257 0)
(1.3345036 0.0056780728 0)
(1.3440716 0.0052653216 0)
(1.3528927 0.0048939356 0)
(1.3610463 0.0045563962 0)
(1.3685975 0.0042470699 0)
(1.3756004 0.0039617758 0)
(1.3821012 0.0036973975 0)
(1.3881402 0.0034515824 0)
(1.3937533 0.0032225186 0)
(1.3989728 0.0030087701 0)
(1.403828 0.0028091583 0)
(1.4083456 0.0026226795 0)
(1.4125503 0.0024484499 0)
(1.4164646 0.0022856709 0)
(1.4201094 0.0021336075 0)
(1.423504 0.001991576 0)
(1.426666 0.001858936 0)
(1.4296121 0.0017350855 0)
(1.4323573 0.0016194583 0)
(1.4349159 0.0015115214 0)
(1.4373007 0.0014107734 0)
(1.4395241 0.0013167428 0)
(1.441597 0.0012289872 0)
(1.4435301 0.0011470916 0)
(1.4453328 0.0010706672 0)
(1.4470143 0.00099935017 0)
(1.4485827 0.00093280025 0)
(1.4500459 0.00087069922 0)
(1.451411 0.00081274984 0)
(1.4526846 0.0007586744 0)
(1.4538731 0.00070821345 0)
(1.4549822 0.00066112449 0)
(1.4560172 0.00061718134 0)
(1.4569831 0.00057617288 0)
(1.4578847 0.00053790165 0)
(1.4587262 0.00050218391 0)
(1.4595117 0.00046884811 0)
(1.460245 0.00043773465 0)
(1.4609295 0.00040869496 0)
(1.4615685 0.00038159074 0)
(1.4621651 0.00035629271 0)
(1.4627221 0.00033267948 0)
(1.4632422 0.00031063792 0)
(1.4637278 0.00029006226 0)
(1.4641812 0.00027085367 0)
(1.4646045 0.00025292075 0)
(1.4649998 0.00023617839 0)
(1.4653689 0.00022054745 0)
(1.4657136 0.00020595427 0)
(1.4660355 0.00019233029 0)
(1.4663361 0.00017961151 0)
(1.4666168 0.00016773721 0)
(1.466879 0.00015665095 0)
(1.4671238 0.00014629909 0)
(1.4673524 0.00013663193 0)
(1.467566 0.00012760282 0)
(1.4677654 0.00011917054 0)
(1.4679516 0.00011129517 0)
(1.4681256 0.00010394267 0)
(1.468288 9.7077291e-05 0)
(1.4684397 9.0670292e-05 0)
(1.4685815 8.468617e-05 0)
(1.4687138 7.9101456e-05 0)
(1.4688375 7.3879703e-05 0)
(1.4689529 6.9006463e-05 0)
(1.4690609 6.4444568e-05 0)
(1.4691614 6.0194562e-05 0)
(1.4692557 5.6208472e-05 0)
(1.4693433 5.25118e-05 0)
(1.4694257 4.9034951e-05 0)
(1.4695018 4.582679e-05 0)
(1.4695742 4.2770568e-05 0)
(1.4696402 4.0001806e-05 0)
(1.4697037 3.7314013e-05 0)
(1.4697606 3.4924994e-05 0)
(1.4698174 3.2491337e-05 0)
(1.4698654 3.0495447e-05 0)
(1.4699164 2.8307411e-05 0)
(1.4699559 2.6723897e-05 0)
(1.4700047 2.4637772e-05 0)
(1.4700341 2.3490813e-05 0)
(1.4700829 2.1421726e-05 0)
(1.4700999 2.0810862e-05 0)
(1.4701557 1.8648912e-05 0)
(1.0005903 -0.0034629162 0)
(1.0136865 -0.0093660206 0)
(1.0370283 -0.013046807 0)
(1.0674202 -0.014563262 0)
(1.1000315 -0.014854525 0)
(1.1316428 -0.014564991 0)
(1.1610745 -0.013888339 0)
(1.1880674 -0.012919246 0)
(1.2125205 -0.011806507 0)
(1.2343939 -0.010696428 0)
(1.2538077 -0.0096727433 0)
(1.2710339 -0.0087628229 0)
(1.286401 -0.007965974 0)
(1.3002112 -0.0072722147 0)
(1.3127102 -0.0066688084 0)
(1.3240903 -0.0061419251 0)
(1.3345036 -0.0056780721 0)
(1.3440716 -0.0052653208 0)
(1.3528927 -0.0048939348 0)
(1.3610463 -0.0045563955 0)
(1.3685975 -0.0042470695 0)
(1.3756004 -0.0039617756 0)
(1.3821012 -0.0036973975 0)
(1.3881402 -0.0034515825 0)
(1.3937533 -0.0032225186 0)
(1.3989728 -0.0030087699 0)
(1.403828 -0.0028091579 0)
(1.4083456 -0.002622679 0)
(1.4125503 -0.0024484493 0)
(1.4164646 -0.0022856701 0)
(1.4201094 -0.0021336068 0)
(1.423504 -0.0019915757 0)
(1.426666 -0.0018589361 0)
(1.4296121 -0.0017350861 0)
(1.4323573 -0.0016194592 0)
(1.4349159 -0.001511522 0)
(1.4373007 -0.0014107733 0)
(1.4395241 -0.001316742 0)
(1.441597 -0.0012289857 0)
(1.4435301 -0.0011470897 0)
(1.4453328 -0.0010706655 0)
(1.4470143 -0.00099934931 0)
(1.4485827 -0.00093280035 0)
(1.4500459 -0.0008707003 0)
(1.451411 -0.00081275155 0)
(1.4526846 -0.00075867614 0)
(1.4538731 -0.00070821456 0)
(1.4549822 -0.0006611246 0)
(1.4560172 -0.00061718009 0)
(1.4569831 -0.00057617018 0)
(1.4578847 -0.00053789841 0)
(1.4587262 -0.00050218122 0)
(1.4595117 -0.00046884705 0)
(1.460245 -0.00043773574 0)
(1.4609295 -0.00040869778 0)
(1.4615685 -0.00038159386 0)
(1.4621651 -0.00035629433 0)
(1.4627221 -0.00033267885 0)
(1.4632422 -0.00031063482 0)
(1.4637278 -0.00029005736 0)
(1.4641812 -0.00027084877 0)
(1.4646045 -0.00025291756 0)
(1.4649998 -0.00023617788 0)
(1.4653689 -0.00022054959 0)
(1.4657136 -0.0002059584 0)
(1.4660355 -0.00019233466 0)
(1.4663361 -0.00017961384 0)
(1.4666168 -0.00016773616 0)
(1.466879 -0.00015664624 0)
(1.4671238 -0.00014629183 0)
(1.4673524 -0.00013662498 0)
(1.467566 -0.00012759895 0)
(1.4677654 -0.00011917141 0)
(1.4679516 -0.00011130045 0)
(1.4681256 -0.00010395035 0)
(1.468288 -9.7083702e-05 0)
(1.4684397 -9.0671794e-05 0)
(1.4685815 -8.4681569e-05 0)
(1.4687138 -7.909214e-05 0)
(1.4688375 -7.3869727e-05 0)
(1.4689529 -6.9000348e-05 0)
(1.4690608 -6.4444606e-05 0)
(1.4691614 -6.0200826e-05 0)
(1.4692557 -5.6219084e-05 0)
(1.4693433 -5.2518866e-05 0)
(1.4694256 -4.9034725e-05 0)
(1.4695018 -4.5822506e-05 0)
(1.4695742 -4.2762441e-05 0)
(1.4696402 -3.9983029e-05 0)
(1.4697037 -3.7296044e-05 0)
(1.4697606 -3.4932378e-05 0)
(1.4698174 -3.2518045e-05 0)
(1.4698653 -3.0511734e-05 0)
(1.4699164 -2.8300145e-05 0)
(1.469956 -2.6707588e-05 0)
(1.4700048 -2.4627891e-05 0)
(1.4700341 -2.3490567e-05 0)
(1.4700828 -2.142817e-05 0)
(1.4701 -2.0823376e-05 0)
(1.4701557 -1.8663454e-05 0)
(1.0007347 -0.011814722 0)
(1.0178472 -0.030860927 0)
(1.0462163 -0.041434442 0)
(1.0799018 -0.04519357 0)
(1.1132664 -0.045502351 0)
(1.143782 -0.044080308 0)
(1.1708941 -0.041439982 0)
(1.1945687 -0.037973678 0)
(1.2148582 -0.03419573 0)
(1.2319652 -0.030536887 0)
(1.2462683 -0.027222046 0)
(1.2582339 -0.024313921 0)
(1.2683135 -0.021797888 0)
(1.2768875 -0.01963366 0)
(1.2842554 -0.017773826 0)
(1.2906479 -0.016169652 0)
(1.296243 -0.01477559 0)
(1.3011791 -0.013552297 0)
(1.3055645 -0.012467863 0)
(1.3094838 -0.011497466 0)
(1.3130042 -0.010622161 0)
(1.3161792 -0.0098275129 0)
(1.3190526 -0.0091024107 0)
(1.3216607 -0.0084381765 0)
(1.3240343 -0.0078279037 0)
(1.3261995 -0.0072659745 0)
(1.3281786 -0.0067477089 0)
(1.3299913 -0.0062691168 0)
(1.3316544 -0.0058267273 0)
(1.3331829 -0.005417473 0)
(1.3345896 -0.0050386119 0)
(1.3358862 -0.0046876734 0)
(1.3370827 -0.0043624194 0)
(1.3381882 -0.0040608147 0)
(1.3392108 -0.0037810045 0)
(1.3401576 -0.0035212952 0)
(1.3410349 -0.0032801386 0)
(1.3418486 -0.0030561175 0)
(1.3426038 -0.0028479336 0)
(1.3433051 -0.0026543969 0)
(1.3439569 -0.0024744153 0)
(1.3445629 -0.0023069856 0)
(1.3451267 -0.0021511857 0)
(1.3456513 -0.0020061671 0)
(1.3461398 -0.0018711487 0)
(1.3465947 -0.0017454104 0)
(1.3470185 -0.0016282883 0)
(1.3474135 -0.0015191692 0)
(1.3477816 -0.0014174869 0)
(1.3481249 -0.0013227181 0)
(1.3484449 -0.0012343781 0)
(1.3487435 -0.0011520183 0)
(1.349022 -0.0010752226 0)
(1.3492818 -0.0010036054 0)
(1.3495242 -0.000936809 0)
(1.3497505 -0.00087450203 0)
(1.3499616 -0.00081637727 0)
(1.3501587 -0.00076214906 0)
(1.3503427 -0.00071155201 0)
(1.3505145 -0.0006643392 0)
(1.3506748 -0.00062028106 0)
(1.3508245 -0.00057916365 0)
(1.3509643 -0.00054078791 0)
(1.3510948 -0.00050496827 0)
(1.3512167 -0.00047153235 0)
(1.3513305 -0.00044031963 0)
(1.3514368 -0.0004111816 0)
(1.3515361 -0.00038397938 0)
(1.3516288 -0.0003585848 0)
(1.3517153 -0.00033487653 0)
(1.3517962 -0.00031274259 0)
(1.3518717 -0.00029207556 0)
(1.3519422 -0.00027277839 0)
(1.3520081 -0.00025475671 0)
(1.3520696 -0.00023792867 0)
(1.3521271 -0.00022221097 0)
(1.3521807 -0.00020753718 0)
(1.3522309 -0.0001938307 0)
(1.3522777 -0.00018103973 0)
(1.3523215 -0.00016908768 0)
(1.3523623 -0.00015793814 0)
(1.3524005 -0.00014750823 0)
(1.352436 -0.00013778812 0)
(1.3524695 -0.00012867563 0)
(1.3525004 -0.00012020587 0)
(1.3525296 -0.00011224173 0)
(1.3525565 -0.00010488157 0)
(1.3525822 -9.7894694e-05 0)
(1.3526054 -9.1527572e-05 0)
(1.3526281 -8.539694e-05 0)
(1.352648 -7.9931187e-05 0)
(1.3526684 -7.4429993e-05 0)
(1.3526849 -6.9804782e-05 0)
(1.3527036 -6.4828414e-05 0)
(1.3527171 -6.1121418e-05 0)
(1.3527349 -5.6443882e-05 0)
(1.3527446 -5.3744409e-05 0)
(1.3527628 -4.914381e-05 0)
(1.3527684 -4.770656e-05 0)
(1.3527889 -4.2961241e-05 0)
(1.0014244 -0.026824855 0)
(1.0291272 -0.062791352 0)
(1.0654292 -0.077736552 0)
(1.098962 -0.0805972 0)
(1.1253149 -0.07828517 0)
(1.145053 -0.073153899 0)
(1.1594858 -0.066111278 0)
(1.1694287 -0.058162063 0)
(1.1755354 -0.050296754 0)
(1.1785738 -0.043150708 0)
(1.1793571 -0.036972825 0)
(1.1785949 -0.031771633 0)
(1.1768304 -0.02745184 0)
(1.1744518 -0.023886769 0)
(1.1717287 -0.02094762 0)
(1.1688444 -0.01851578 0)
(1.1659195 -0.016488084 0)
(1.1630317 -0.014779502 0)
(1.1602295 -0.013322985 0)
(1.1575415 -0.012067132 0)
(1.1549828 -0.010973001 0)
(1.1525601 -0.010011062 0)
(1.1502747 -0.0091587469 0)
(1.1481246 -0.0083986042 0)
(1.1461059 -0.0077169504 0)
(1.1442134 -0.007102888 0)
(1.1424414 -0.0065475915 0)
(1.1407838 -0.0060437948 0)
(1.1392344 -0.0055854256 0)
(1.1377869 -0.0051673443 0)
(1.1364353 -0.0047851569 0)
(1.1351738 -0.0044350763 0)
(1.1339968 -0.0041138172 0)
(1.1328987 -0.0038185133 0)
(1.1318746 -0.0035466533 0)
(1.1309195 -0.0032960273 0)
(1.1300289 -0.0030646832 0)
(1.1291985 -0.0028508903 0)
(1.1284242 -0.0026531097 0)
(1.1277022 -0.0024699679 0)
(1.1270291 -0.0023002349 0)
(1.1264014 -0.0021428065 0)
(1.1258161 -0.0019966881 0)
(1.1252702 -0.0018609813 0)
(1.1247612 -0.0017348721 0)
(1.1242865 -0.0016176219 0)
(1.1238437 -0.0015085583 0)
(1.1234307 -0.0014070681 0)
(1.1230455 -0.0013125909 0)
(1.1226861 -0.0012246132 0)
(1.1223509 -0.0011426631 0)
(1.1220381 -0.0010663067 0)
(1.1217462 -0.00099514448 0)
(1.1214739 -0.00092880811 0)
(1.1212198 -0.00086695785 0)
(1.1209827 -0.00080928037 0)
(1.1207614 -0.00075548612 0)
(1.1205548 -0.00070530663 0)
(1.1203621 -0.00065849351 0)
(1.1201821 -0.00061481638 0)
(1.1200142 -0.00057406074 0)
(1.1198574 -0.00053602714 0)
(1.1197111 -0.00050053045 0)
(1.1195745 -0.00046739812 0)
(1.1194469 -0.00043646964 0)
(1.1193278 -0.00040759628 0)
(1.1192167 -0.00038064089 0)
(1.1191129 -0.0003554753 0)
(1.119016 -0.00033198118 0)
(1.1189255 -0.00031004697 0)
(1.118841 -0.0002895685 0)
(1.1187621 -0.00027044649 0)
(1.1186884 -0.00025259076 0)
(1.1186197 -0.00023591385 0)
(1.1185554 -0.00022033962 0)
(1.1184954 -0.00020579209 0)
(1.1184394 -0.00019220924 0)
(1.1183871 -0.00017952177 0)
(1.1183383 -0.00016767974 0)
(1.1182927 -0.00015661551 0)
(1.11825 -0.00014629208 0)
(1.1182103 -0.00013663837 0)
(1.1181731 -0.00012763685 0)
(1.1181384 -0.000119205 0)
(1.1181059 -0.00011135877 0)
(1.1180757 -0.00010398921 0)
(1.1180473 -9.7156722e-05 0)
(1.1180211 -9.0705859e-05 0)
(1.1179963 -8.4792298e-05 0)
(1.1179734 -7.9137919e-05 0)
(1.1179516 -7.4019508e-05 0)
(1.1179318 -6.8989044e-05 0)
(1.1179128 -6.4646318e-05 0)
(1.1178955 -6.0157124e-05 0)
(1.117879 -5.6584645e-05 0)
(1.1178635 -5.2432171e-05 0)
(1.11785 -4.9738351e-05 0)
(1.1178349 -4.5802143e-05 0)
(1.1178262 -4.431507e-05 0)
(1.1178083 -4.0570297e-05 0)
(1.0016583 -0.05381943 0)
(1.0359761 -0.10128444 0)
(1.0597199 -0.11073663 0)
(1.0628947 -0.10592202 0)
(1.0515569 -0.096228728 0)
(1.0340529 -0.083934061 0)
(1.0142795 -0.070327063 0)
(0.99360703 -0.056981334 0)
(0.97292577 -0.045107479 0)
(0.9531074 -0.03523675 0)
(0.93479538 -0.02740165 0)
(0.91829012 -0.021387228 0)
(0.90362379 -0.0168845 0)
(0.89068067 -0.01356971 0)
(0.87928174 -0.011147749 0)
(0.86923242 -0.0093736586 0)
(0.86034423 -0.0080569274 0)
(0.85244667 -0.0070571266 0)
(0.84539241 -0.0062752378 0)
(0.83905793 -0.0056438284 0)
(0.83334126 -0.0051180911 0)
(0.82815884 -0.0046686726 0)
(0.82344212 -0.0042764176 0)
(0.81913467 -0.0039287387 0)
(0.81518962 -0.0036172032 0)
(0.81156765 -0.0033359698 0)
(0.80823544 -0.0030808032 0)
(0.8051644 -0.002848468 0)
(0.80232979 -0.0026363686 0)
(0.79970999 -0.0024423382 0)
(0.79728597 -0.0022645189 0)
(0.79504086 -0.0021012903 0)
(0.79295963 -0.0019512259 0)
(0.7910288 -0.0018130635 0)
(0.78923627 -0.0016856838 0)
(0.7875711 -0.0015680925 0)
(0.78602338 -0.0014594054 0)
(0.78458412 -0.0013588352 0)
(0.78324511 -0.0012656798 0)
(0.78199889 -0.0011793113 0)
(0.78083861 -0.001099167 0)
(0.77975799 -0.0010247414 0)
(0.77875128 -0.00095557914 0)
(0.77781318 -0.00089126874 0)
(0.77693881 -0.00083143744 0)
(0.77612368 -0.00077574679 0)
(0.77536362 -0.00072388852 0)
(0.77465481 -0.00067558145 0)
(0.77399368 -0.00063056821 0)
(0.77337694 -0.00058861218 0)
(0.77280153 -0.0005494954 0)
(0.77226464 -0.00051301703 0)
(0.77176363 -0.00047899176 0)
(0.77129606 -0.0004472484 0)
(0.77085967 -0.00041762913 0)
(0.77045234 -0.00038998831 0)
(0.77007212 -0.00036419089 0)
(0.76971717 -0.00034011182 0)
(0.76938581 -0.00031763533 0)
(0.76907645 -0.0002966535 0)
(0.7687876 -0.00027706532 0)
(0.76851791 -0.00025877654 0)
(0.7682661 -0.00024169951 0)
(0.76803096 -0.00022575211 0)
(0.76781139 -0.00021085824 0)
(0.76760636 -0.00019694773 0)
(0.76741489 -0.00018395596 0)
(0.76723608 -0.0001718228 0)
(0.7670691 -0.00016049269 0)
(0.76691316 -0.00014991258 0)
(0.76676752 -0.00014003277 0)
(0.7666315 -0.00013080526 0)
(0.76650446 -0.00012218634 0)
(0.76638582 -0.00011413352 0)
(0.76627501 -0.00010661027 0)
(0.76617152 -9.958062e-05 0)
(0.76607486 -9.3015371e-05 0)
(0.76598459 -8.6882118e-05 0)
(0.76590026 -8.1157243e-05 0)
(0.76582151 -7.580846e-05 0)
(0.76574794 -7.0818038e-05 0)
(0.76567924 -6.6151896e-05 0)
(0.76561505 -6.179936e-05 0)
(0.76555512 -5.7722424e-05 0)
(0.76549911 -5.3926126e-05 0)
(0.76544685 -5.0358896e-05 0)
(0.76539797 -4.7044673e-05 0)
(0.7653524 -4.3930267e-05 0)
(0.76530971 -4.1068723e-05 0)
(0.76526996 -3.8331703e-05 0)
(0.76523271 -3.5827664e-05 0)
(0.76519805 -3.3432604e-05 0)
(0.76516558 -3.1318246e-05 0)
(0.76513517 -2.9204454e-05 0)
(0.76510712 -2.7386859e-05 0)
(0.76507998 -2.552584e-05 0)
(0.76505664 -2.4064993e-05 0)
(0.76503057 -2.2545865e-05 0)
(0.76501445 -2.1587304e-05 0)
(0.76498347 -2.0984421e-05 0)
(0.91890839 -0.035821913 0)
(0.86271384 -0.062195638 0)
(0.7870597 -0.06251009 0)
(0.69536033 -0.054550395 0)
(0.61089745 -0.044531651 0)
(0.54411592 -0.034015972 0)
(0.49343012 -0.02418754 0)
(0.45479413 -0.01614423 0)
(0.42544582 -0.010265785 0)
(0.40347313 -0.006304145 0)
(0.38715766 -0.0037976294 0)
(0.3749622 -0.0023103385 0)
(0.36566192 -0.0014930154 0)
(0.35836272 -0.0010851186 0)
(0.35244268 -0.00090607228 0)
(0.34748201 -0.00084105131 0)
(0.34320348 -0.00082372356 0)
(0.33942726 -0.00081931 0)
(0.33603793 -0.00081185194 0)
(0.33296114 -0.0007958015 0)
(0.33014778 -0.00077081193 0)
(0.32756384 -0.00073870995 0)
(0.3251842 -0.00070188956 0)
(0.32298902 -0.00066256563 0)
(0.32096172 -0.00062249928 0)
(0.31908785 -0.00058295698 0)
(0.31735449 -0.00054477109 0)
(0.31574996 -0.00050843385 0)
(0.3142636 -0.00047419163 0)
(0.31288574 -0.00044212493 0)
(0.31160755 -0.00041220993 0)
(0.31042101 -0.00038436208 0)
(0.30931883 -0.00035846521 0)
(0.30829438 -0.00033439023 0)
(0.30734165 -0.0003120063 0)
(0.30645515 -0.00029118706 0)
(0.30562991 -0.00027181369 0)
(0.30486136 -0.00025377637 0)
(0.30414535 -0.0002369743 0)
(0.30347807 -0.0002213152 0)
(0.30285601 -0.00020671481 0)
(0.30227596 -0.00019309623 0)
(0.30173496 -0.00018038909 0)
(0.30123029 -0.00016852896 0)
(0.30075942 -0.00015745674 0)
(0.30032002 -0.00014711809 0)
(0.29990993 -0.00013746293 0)
(0.29952715 -0.00012844509 0)
(0.29916983 -0.00012002168 0)
(0.29883624 -0.0001121526 0)
(0.29852478 -0.00010480052 0)
(0.29823397 -9.7930786e-05 0)
(0.29796241 -9.1511159e-05 0)
(0.29770882 -8.5511735e-05 0)
(0.29747201 -7.9904936e-05 0)
(0.29725084 -7.466519e-05 0)
(0.29704429 -6.9768529e-05 0)
(0.29685138 -6.519272e-05 0)
(0.2966712 -6.0917068e-05 0)
(0.29650291 -5.6921863e-05 0)
(0.29634572 -5.3188421e-05 0)
(0.2961989 -4.969931e-05 0)
(0.29606176 -4.6438246e-05 0)
(0.29593366 -4.3389916e-05 0)
(0.29581401 -4.0540432e-05 0)
(0.29570224 -3.7877214e-05 0)
(0.29559784 -3.5388565e-05 0)
(0.29550032 -3.3063545e-05 0)
(0.29540922 -3.0891864e-05 0)
(0.29532413 -2.8863298e-05 0)
(0.29524464 -2.6968159e-05 0)
(0.29517039 -2.5197068e-05 0)
(0.29510103 -2.3541521e-05 0)
(0.29503624 -2.1993404e-05 0)
(0.29497572 -2.054622e-05 0)
(0.29491919 -1.9193539e-05 0)
(0.29486638 -1.7930227e-05 0)
(0.29481706 -1.6750171e-05 0)
(0.29477097 -1.5649065e-05 0)
(0.29472793 -1.4620174e-05 0)
(0.29468771 -1.3660268e-05 0)
(0.29465016 -1.2762119e-05 0)
(0.29461507 -1.1923964e-05 0)
(0.2945823 -1.1137758e-05 0)
(0.29455168 -1.0405642e-05 0)
(0.29452309 -9.7161996e-06 0)
(0.29449637 -9.0769219e-06 0)
(0.29447142 -8.478708e-06 0)
(0.29444808 -7.9297445e-06 0)
(0.29442632 -7.3958525e-06 0)
(0.29440599 -6.9097026e-06 0)
(0.294387 -6.4604891e-06 0)
(0.2943692 -6.0632715e-06 0)
(0.29435259 -5.6570516e-06 0)
(0.29433715 -5.2940148e-06 0)
(0.2943225 -4.9717288e-06 0)
(0.29430919 -4.6855828e-06 0)
(0.29429569 -4.5321332e-06 0)
(0.29428502 -4.3999688e-06 0)
(0.29426875 -5.0538207e-06 0)
)
;

boundaryField
{
    top
    {
        type            fixedValue;
        value           uniform (0 0 0);
    }
    inlet
    {
        type            fixedValue;
        value           uniform (1 0 0);
    }
    outlet
    {
        type            zeroGradient;
    }
    bottom
    {
        type            fixedValue;
        value           uniform (0 0 0);
    }
    back
    {
        type            empty;
    }
    front
    {
        type            empty;
    }
}


// ************************************************************************* //
