/*--------------------------------*- C++ -*----------------------------------*\
| =========                 |                                                 |
| \\      /  F ield         | OpenFOAM: The Open Source CFD Toolbox           |
|  \\    /   O peration     | Version:  v1812                                 |
|   \\  /    A nd           | Web:      www.OpenFOAM.com                      |
|    \\/     M anipulation  |                                                 |
\*---------------------------------------------------------------------------*/
FoamFile
{
    version     2.0;
    format      ascii;
    class       volVectorField;
    location    "108";
    object      U;
}
// * * * * * * * * * * * * * * * * * * * * * * * * * * * * * * * * * * * * * //

dimensions      [0 1 -1 0 0 0 0];


internalField   nonuniform List<vector> 
1000
(
(0.92241905 0.034487138 0)
(0.87132478 0.058494328 0)
(0.78815633 0.05621487 0)
(0.69388548 0.045746924 0)
(0.61395329 0.03451106 0)
(0.55015833 0.024456415 0)
(0.49940112 0.016279987 0)
(0.45984778 0.010228166 0)
(0.42978246 0.0061010091 0)
(0.4072318 0.0034637539 0)
(0.39031208 0.0018585109 0)
(0.37749589 0.00095335866 0)
(0.36763738 0.00049218142 0)
(0.35987522 0.00029072887 0)
(0.35358862 0.00022867045 0)
(0.34834769 0.00023297014 0)
(0.34386163 0.00026215265 0)
(0.33993605 0.00029461016 0)
(0.33644165 0.00032057847 0)
(0.33329197 0.00033687671 0)
(0.33042811 0.00034364106 0)
(0.32780871 0.00034242683 0)
(0.32540338 0.00033518801 0)
(0.32318875 0.00032377919 0)
(0.32114588 0.00030974456 0)
(0.31925886 0.00029425968 0)
(0.31751388 0.00027815486 0)
(0.31589874 0.00026198209 0)
(0.3144025 0.000246099 0)
(0.31301535 0.00023074183 0)
(0.31172843 0.00021607166 0)
(0.3105337 0.0002021923 0)
(0.30942388 0.00018915179 0)
(0.3083923 0.00017694568 0)
(0.30743293 0.00016552972 0)
(0.30654024 0.0001548409 0)
(0.30570921 0.00014481808 0)
(0.30493527 0.0001354136 0)
(0.30421425 0.00012659479 0)
(0.3035423 0.00011833761 0)
(0.30291592 0.00011061909 0)
(0.30233187 0.00010341222 0)
(0.30178717 9.6685218e-05 0)
(0.30127904 9.0403656e-05 0)
(0.30080496 8.4533641e-05 0)
(0.30036257 7.9044019e-05 0)
(0.29994969 7.3907346e-05 0)
(0.29956431 6.9099266e-05 0)
(0.29920458 6.4597995e-05 0)
(0.29886876 6.0382879e-05 0)
(0.29855526 5.643513e-05 0)
(0.29826257 5.2736362e-05 0)
(0.2979893 4.9271826e-05 0)
(0.29773411 4.6027754e-05 0)
(0.29749577 4.2996766e-05 0)
(0.29727308 4.017183e-05 0)
(0.29706491 3.7553102e-05 0)
(0.29687018 3.5137392e-05 0)
(0.29668791 3.2926911e-05 0)
(0.29651719 3.0914647e-05 0)
(0.29635721 2.9096281e-05 0)
(0.29620731 2.745202e-05 0)
(0.29606692 2.5964823e-05 0)
(0.29593568 2.4598572e-05 0)
(0.29581328 2.3326448e-05 0)
(0.29569963 2.2101153e-05 0)
(0.29559463 2.0898117e-05 0)
(0.29549832 1.9669494e-05 0)
(0.29541068 1.8409329e-05 0)
(0.29533175 1.707853e-05 0)
(0.29526141 1.5702902e-05 0)
(0.29519956 1.4252323e-05 0)
(0.29514584 1.2789706e-05 0)
(0.29509998 1.1282573e-05 0)
(0.29506133 9.8302049e-06 0)
(0.29502948 8.3771569e-06 0)
(0.29500354 7.0582584e-06 0)
(0.29498306 5.7697664e-06 0)
(0.29496699 4.6885242e-06 0)
(0.294955 3.6359945e-06 0)
(0.29494594 2.8497889e-06 0)
(0.29493975 2.0489676e-06 0)
(0.29493519 1.5637372e-06 0)
(0.29493258 9.8071931e-07 0)
(0.29493059 7.640132e-07 0)
(0.29492996 3.3648689e-07 0)
(0.29492921 3.3568204e-07 0)
(0.29492949 7.392359e-10 0)
(0.29492923 1.541239e-07 0)
(0.29492974 -1.1810591e-07 0)
(0.29492967 1.1083478e-07 0)
(0.29492981 -4.8904475e-08 0)
(0.29493002 1.1518595e-07 0)
(0.29492892 2.7553248e-07 0)
(0.29492993 5.0434291e-08 0)
(0.29492602 9.6088237e-07 0)
(0.2949292 -7.1627123e-07 0)
(0.29492114 7.3827538e-07 0)
(0.29493012 -6.7313775e-06 0)
(0.29493207 -8.1612474e-06 0)
(1.003271 0.054817095 0)
(1.0472129 0.10100035 0)
(1.066112 0.11153423 0)
(1.0625934 0.10907373 0)
(1.0508094 0.099917527 0)
(1.0345 0.087034603 0)
(1.014893 0.0729258 0)
(0.99382462 0.05936706 0)
(0.97290666 0.047360876 0)
(0.95311343 0.037329022 0)
(0.93493756 0.029286337 0)
(0.91857686 0.023049513 0)
(0.90402629 0.018325302 0)
(0.89116438 0.014797169 0)
(0.87981419 0.01217669 0)
(0.86978457 0.010224554 0)
(0.8608929 0.0087541133 0)
(0.85297563 0.0076262681 0)
(0.84589186 0.0067408511 0)
(0.83952301 0.006027562 0)
(0.83377062 0.0054379521 0)
(0.82855329 0.0049390028 0)
(0.82380376 0.0045083034 0)
(0.81946618 0.0041305888 0)
(0.81549383 0.0037953246 0)
(0.81184728 0.0034950614 0)
(0.80849296 0.0032243396 0)
(0.80540199 0.0029789929 0)
(0.80254934 0.0027557327 0)
(0.79991316 0.0025519075 0)
(0.79747425 0.0023653527 0)
(0.79521556 0.0021942747 0)
(0.79312192 0.002037148 0)
(0.79117973 0.0018926318 0)
(0.78937674 0.0017595186 0)
(0.78770189 0.0016367142 0)
(0.78614521 0.0015232384 0)
(0.78469763 0.0014182291 0)
(0.78335091 0.0013209387 0)
(0.78209753 0.0012307179 0)
(0.78093062 0.0011469961 0)
(0.77984386 0.0010692607 0)
(0.77883144 0.00099704379 0)
(0.77788804 0.00092991465 0)
(0.77700874 0.000867477 0)
(0.77618901 0.00080936812 0)
(0.77542467 0.00075525715 0)
(0.77471187 0.00070484377 0)
(0.77404704 0.00065785578 0)
(0.77342687 0.00061404755 0)
(0.77284828 0.00057319967 0)
(0.77230839 0.00053511638 0)
(0.77180453 0.00049962795 0)
(0.77133416 0.00046658174 0)
(0.77089492 0.00043584658 0)
(0.77048458 0.00040729173 0)
(0.77010107 0.00038079521 0)
(0.76974252 0.00035620997 0)
(0.76940721 0.00033338463 0)
(0.7690937 0.00031212122 0)
(0.76880073 0.0002922187 0)
(0.76852737 0.00027342483 0)
(0.76827286 0.00025551034 0)
(0.76803675 0.0002382097 0)
(0.76781868 0.00022132882 0)
(0.76761855 0.00020465687 0)
(0.76743616 0.00018810995 0)
(0.76727148 0.00017158648 0)
(0.76712418 0.00015515924 0)
(0.76699409 0.00013884131 0)
(0.76688044 0.00012285743 0)
(0.76678279 0.00010728076 0)
(0.76669984 9.2440351e-05 0)
(0.76663091 7.8374776e-05 0)
(0.76657418 6.5461087e-05 0)
(0.76652892 5.3601943e-05 0)
(0.76649293 4.3195867e-05 0)
(0.76646571 3.392661e-05 0)
(0.76644476 2.6242202e-05 0)
(0.76643018 1.954668e-05 0)
(0.76641914 1.4425013e-05 0)
(0.76641263 9.9459723e-06 0)
(0.76640742 6.9686263e-06 0)
(0.76640555 4.1513151e-06 0)
(0.76640328 2.7991229e-06 0)
(0.7664038 1.0483745e-06 0)
(0.76640269 8.3653716e-07 0)
(0.76640416 -3.5831707e-07 0)
(0.76640344 1.9116774e-07 0)
(0.76640485 -7.822912e-07 0)
(0.76640457 2.4918421e-07 0)
(0.7664047 -5.5757528e-07 0)
(0.76640599 6.8747945e-07 0)
(0.76640242 4.7517427e-07 0)
(0.76640795 1.4845643e-06 0)
(0.76639532 3.105291e-06 0)
(0.76641019 2.755611e-06 0)
(0.7663761 7.6045009e-06 0)
(0.7664103 2.4983519e-06 0)
(0.76633651 4.2801965e-06 0)
(1.0001503 0.028832875 0)
(1.0314833 0.059420851 0)
(1.0675718 0.071130968 0)
(1.0976325 0.075530464 0)
(1.122939 0.074771643 0)
(1.1433305 0.070076815 0)
(1.1583159 0.063250552 0)
(1.1684315 0.055736677 0)
(1.1746341 0.048415347 0)
(1.1778353 0.041758145 0)
(1.1788249 0.035964083 0)
(1.1782597 0.031054898 0)
(1.1766545 0.026957977 0)
(1.1743937 0.023560784 0)
(1.1717527 0.020743684 0)
(1.1689226 0.018396527 0)
(1.1660319 0.016425342 0)
(1.1631643 0.014753651 0)
(1.1603724 0.013321051 0)
(1.1576878 0.012080681 0)
(1.155128 0.010996492 0)
(1.1527013 0.010040785 0)
(1.1504103 0.0091921841 0)
(1.1482539 0.0084340529 0)
(1.1462286 0.0077532773 0)
(1.1443296 0.0071393489 0)
(1.1425512 0.0065836837 0)
(1.1408873 0.0060791407 0)
(1.1393318 0.005619704 0)
(1.1378785 0.005200277 0)
(1.1365215 0.0048165344 0)
(1.1352548 0.0044647886 0)
(1.1340729 0.004141859 0)
(1.1329703 0.0038449567 0)
(1.1319419 0.0035715998 0)
(1.1309827 0.003319566 0)
(1.1300882 0.0030868717 0)
(1.129254 0.0028717595 0)
(1.1284761 0.0026726825 0)
(1.1277508 0.0024882775 0)
(1.1270746 0.0023173346 0)
(1.126444 0.0021587674 0)
(1.1258559 0.0020115906 0)
(1.1253076 0.0018749048 0)
(1.1247962 0.0017478882 0)
(1.1243192 0.0016297905 0)
(1.1238743 0.0015199289 0)
(1.1234594 0.0014176833 0)
(1.1230723 0.0013224941 0)
(1.1227112 0.0012338568 0)
(1.1223743 0.0011513217 0)
(1.1220598 0.0010744844 0)
(1.1217663 0.0010029852 0)
(1.1214923 0.00093648917 0)
(1.1212364 0.00087468467 0)
(1.1209972 0.00081724938 0)
(1.1207737 0.000763855 0)
(1.120565 0.00071412487 0)
(1.12037 0.00066766087 0)
(1.1201883 0.0006240007 0)
(1.1200191 0.00058268195 0)
(1.1198623 0.00054319844 0)
(1.1197176 0.00050510751 0)
(1.1195848 0.00046796818 0)
(1.1194639 0.00043148875 0)
(1.1193548 0.00039541342 0)
(1.1192573 0.00035970979 0)
(1.1191714 0.00032436419 0)
(1.1190965 0.0002896282 0)
(1.1190324 0.00025568211 0)
(1.1189781 0.00022299051 0)
(1.1189333 0.00019178709 0)
(1.1188966 0.00016262603 0)
(1.1188677 0.00013561763 0)
(1.1188448 0.0001113013 0)
(1.1188281 8.9510678e-05 0)
(1.118815 7.0744735e-05 0)
(1.1188067 5.445892e-05 0)
(1.1188 4.1191294e-05 0)
(1.1187969 2.9953732e-05 0)
(1.1187937 2.1503806e-05 0)
(1.1187937 1.4330469e-05 0)
(1.1187919 9.6794173e-06 0)
(1.1187936 5.3583746e-06 0)
(1.1187921 3.4603293e-06 0)
(1.1187946 8.087743e-07 0)
(1.1187927 8.2450312e-07 0)
(1.1187957 -1.1600936e-06 0)
(1.1187933 2.5975897e-07 0)
(1.1187963 -1.8266673e-06 0)
(1.118794 8.4556773e-07 0)
(1.118796 -1.8482748e-06 0)
(1.1187953 2.2548007e-06 0)
(1.1187938 -1.1185627e-06 0)
(1.1187983 4.8960738e-06 0)
(1.1187874 1.8998403e-06 0)
(1.1188032 1.0712885e-05 0)
(1.1187699 1.2610327e-05 0)
(1.118805 2.6047759e-05 0)
(1.1187286 4.6247066e-05 0)
(0.99973847 0.01235542 0)
(1.0184395 0.03025194 0)
(1.0484404 0.03961205 0)
(1.0802132 0.044574128 0)
(1.1117125 0.046231243 0)
(1.1417317 0.04518731 0)
(1.1688992 0.042438567 0)
(1.1926147 0.038841857 0)
(1.2129156 0.034971887 0)
(1.2301011 0.031197141 0)
(1.2445727 0.027728488 0)
(1.2567612 0.02465771 0)
(1.2670716 0.021999839 0)
(1.2758542 0.019726014 0)
(1.2833979 0.017787093 0)
(1.2899342 0.01612877 0)
(1.2956457 0.014699979 0)
(1.3006755 0.01345675 0)
(1.3051355 0.012363257 0)
(1.309114 0.011391336 0)
(1.3126811 0.010519322 0)
(1.3158934 0.0097307281 0)
(1.3187971 0.0090130299 0)
(1.3214304 0.0083566468 0)
(1.3238253 0.0077541418 0)
(1.3260088 0.0071996049 0)
(1.328004 0.0066881966 0)
(1.3298308 0.0062158341 0)
(1.3315065 0.0057789962 0)
(1.3330461 0.0053746109 0)
(1.3344631 0.0049999843 0)
(1.3357691 0.0046527373 0)
(1.3369744 0.00433074 0)
(1.338088 0.0040320506 0)
(1.3391179 0.0037548735 0)
(1.3400714 0.003497541 0)
(1.3409549 0.0032585121 0)
(1.3417741 0.0030363772 0)
(1.3425344 0.0028298564 0)
(1.3432406 0.0026377891 0)
(1.3438968 0.0024591179 0)
(1.344507 0.0022928716 0)
(1.3450745 0.002138152 0)
(1.3456028 0.0019941251 0)
(1.3460945 0.0018600177 0)
(1.3465525 0.0017351131 0)
(1.3469791 0.0016187524 0)
(1.3473766 0.0015103305 0)
(1.3477472 0.0014092972 0)
(1.3480927 0.0013151521 0)
(1.3484148 0.0012274449 0)
(1.3487153 0.0011457645 0)
(1.3489955 0.0010697357 0)
(1.3492571 0.00099899847 0)
(1.3495012 0.00093320156 0)
(1.3497292 0.00087197307 0)
(1.3499421 0.00081492064 0)
(1.3501413 0.00076160156 0)
(1.3503275 0.00071154662 0)
(1.3505018 0.00066423601 0)
(1.3506649 0.0006191599 0)
(1.3508175 0.00057579409 0)
(1.3509601 0.00053369926 0)
(1.3510931 0.00049247375 0)
(1.3512166 0.00045188478 0)
(1.3513311 0.00041176439 0)
(1.3514363 0.00037217144 0)
(1.3515325 0.00033319653 0)
(1.3516195 0.00029517528 0)
(1.3516978 0.00025837025 0)
(1.3517669 0.00022328712 0)
(1.3518278 0.00019019479 0)
(1.35188 0.00015963055 0)
(1.351925 0.00013169057 0)
(1.3519619 0.00010684898 0)
(1.3519932 8.4891369e-05 0)
(1.3520173 6.6230544e-05 0)
(1.3520378 5.0258385e-05 0)
(1.352052 3.7442266e-05 0)
(1.3520647 2.6717947e-05 0)
(1.3520715 1.8831883e-05 0)
(1.3520794 1.215334e-05 0)
(1.3520812 8.0427662e-06 0)
(1.3520866 4.0554813e-06 0)
(1.3520848 2.6493071e-06 0)
(1.3520898 7.469894e-08 0)
(1.3520851 6.1439348e-07 0)
(1.3520912 -1.6538802e-06 0)
(1.3520839 5.0803497e-07 0)
(1.3520923 -2.4017801e-06 0)
(1.3520819 1.5355406e-06 0)
(1.3520938 -2.8352434e-06 0)
(1.3520797 3.4896607e-06 0)
(1.3520964 -2.8376383e-06 0)
(1.3520778 6.8560733e-06 0)
(1.3521009 -4.4467775e-07 0)
(1.3520769 1.3949542e-05 0)
(1.3521091 1.2896363e-05 0)
(1.3520768 3.4822995e-05 0)
(1.3521146 6.5946282e-05 0)
(0.99995388 0.0035944824 0)
(1.0140006 0.0095669618 0)
(1.0391252 0.012868147 0)
(1.0682249 0.014559237 0)
(1.0987449 0.015147454 0)
(1.1293714 0.014873897 0)
(1.158664 0.014054172 0)
(1.185715 0.012960603 0)
(1.2102173 0.011777812 0)
(1.2321785 0.010624559 0)
(1.2517646 0.0095680679 0)
(1.2692272 0.0086360404 0)
(1.2848439 0.0078306431 0)
(1.2988788 0.0071400851 0)
(1.3115636 0.0065468626 0)
(1.3230929 0.0060328458 0)
(1.3336258 0.0055818828 0)
(1.3432905 0.0051807829 0)
(1.3521902 0.0048193719 0)
(1.3604082 0.0044900974 0)
(1.3680126 0.0041874828 0)
(1.3750606 0.0039075942 0)
(1.3816005 0.0036475952 0)
(1.3876743 0.0034054032 0)
(1.3933189 0.0031794379 0)
(1.3985674 0.0029684409 0)
(1.4034494 0.002771352 0)
(1.4079918 0.0025872326 0)
(1.4122195 0.0024152259 0)
(1.4161552 0.0022545436 0)
(1.4198201 0.0021044604 0)
(1.4232335 0.001964308 0)
(1.4264133 0.0018334637 0)
(1.4293761 0.0017113378 0)
(1.4321369 0.0015973652 0)
(1.4347099 0.0014910048 0)
(1.4371083 0.001391743 0)
(1.4393441 0.0012990997 0)
(1.4414287 0.0012126301 0)
(1.4433727 0.0011319237 0)
(1.4451857 0.0010566002 0)
(1.4468767 0.00098630473 0)
(1.4484541 0.00092070443 0)
(1.4499257 0.00085948613 0)
(1.4512986 0.00080235572 0)
(1.4525795 0.00074903788 0)
(1.4537748 0.00069927676 0)
(1.4548902 0.00065283548 0)
(1.4559311 0.00060949724 0)
(1.4569026 0.00056906311 0)
(1.4578094 0.00053135291 0)
(1.4586559 0.00049619954 0)
(1.4594463 0.00046344861 0)
(1.4601844 0.00043294785 0)
(1.4608738 0.00040454608 0)
(1.4615181 0.00037807887 0)
(1.4621201 0.00035337177 0)
(1.4626829 0.00033022636 0)
(1.4632087 0.00030843457 0)
(1.4636998 0.00028776766 0)
(1.4641579 0.00026800603 0)
(1.4645843 0.00024892801 0)
(1.4649801 0.00023035455 0)
(1.465346 0.00021212776 0)
(1.4656824 0.00019416655 0)
(1.4659898 0.00017642067 0)
(1.4662684 0.00015893697 0)
(1.466519 0.00014177565 0)
(1.4667415 0.00012509679 0)
(1.4669375 0.00010902628 0)
(1.4671072 9.3785714e-05 0)
(1.4672531 7.9491775e-05 0)
(1.4673755 6.6367806e-05 0)
(1.467478 5.4445524e-05 0)
(1.4675606 4.3914301e-05 0)
(1.4676279 3.4665192e-05 0)
(1.4676793 2.6862755e-05 0)
(1.4677205 2.0223832e-05 0)
(1.4677491 1.4948227e-05 0)
(1.4677726 1.0547971e-05 0)
(1.4677858 7.367783e-06 0)
(1.4677988 4.6535748e-06 0)
(1.4678021 3.059675e-06 0)
(1.4678101 1.4298375e-06 0)
(1.467807 9.7313849e-07 0)
(1.4678142 -1.3403745e-07 0)
(1.4678062 2.5228606e-07 0)
(1.4678159 -8.2453672e-07 0)
(1.4678027 3.1507708e-07 0)
(1.467818 -1.1708175e-06 0)
(1.4677976 8.5152327e-07 0)
(1.4678223 -1.4461006e-06 0)
(1.4677908 1.7889883e-06 0)
(1.4678311 -1.5805463e-06 0)
(1.4677821 3.325889e-06 0)
(1.4678479 -6.3393692e-07 0)
(1.467773 6.4727824e-06 0)
(1.4678826 5.5999803e-06 0)
(1.4677708 1.6159133e-05 0)
(1.4679355 3.1592196e-05 0)
(0.99995388 -0.0035944823 0)
(1.0140006 -0.0095669618 0)
(1.0391252 -0.012868147 0)
(1.0682249 -0.014559237 0)
(1.0987449 -0.015147454 0)
(1.1293714 -0.014873898 0)
(1.158664 -0.014054172 0)
(1.185715 -0.012960603 0)
(1.2102173 -0.011777812 0)
(1.2321785 -0.010624559 0)
(1.2517646 -0.0095680679 0)
(1.2692272 -0.0086360403 0)
(1.2848439 -0.007830643 0)
(1.2988788 -0.0071400853 0)
(1.3115636 -0.0065468632 0)
(1.3230929 -0.0060328466 0)
(1.3336258 -0.0055818832 0)
(1.3432905 -0.005180782 0)
(1.3521902 -0.0048193694 0)
(1.3604082 -0.0044900937 0)
(1.3680126 -0.0041874792 0)
(1.3750606 -0.0039075924 0)
(1.3816005 -0.0036475959 0)
(1.3876743 -0.0034054061 0)
(1.3933189 -0.0031794414 0)
(1.3985674 -0.0029684432 0)
(1.4034494 -0.0027713521 0)
(1.4079918 -0.0025872302 0)
(1.4122195 -0.0024152219 0)
(1.4161552 -0.0022545388 0)
(1.4198201 -0.0021044555 0)
(1.4232335 -0.0019643034 0)
(1.4264133 -0.0018334593 0)
(1.4293761 -0.0017113335 0)
(1.4321369 -0.0015973608 0)
(1.4347099 -0.0014909999 0)
(1.4371083 -0.0013917373 0)
(1.4393441 -0.0012990926 0)
(1.4414287 -0.0012126213 0)
(1.4433727 -0.0011319129 0)
(1.4451857 -0.0010565877 0)
(1.4468767 -0.00098629066 0)
(1.4484541 -0.00092068943 0)
(1.4499257 -0.00085947051 0)
(1.4512986 -0.00080234002 0)
(1.4525795 -0.00074902262 0)
(1.4537748 -0.00069926257 0)
(1.4548902 -0.00065282354 0)
(1.4559311 -0.00060948832 0)
(1.4569026 -0.00056905932 0)
(1.4578094 -0.00053135517 0)
(1.4586559 -0.00049621093 0)
(1.4594462 -0.00046346996 0)
(1.4601843 -0.00043298227 0)
(1.4608738 -0.00040459363 0)
(1.461518 -0.00037814171 0)
(1.4621201 -0.00035344915 0)
(1.4626828 -0.00033031874 0)
(1.4632087 -0.00030854035 0)
(1.4636998 -0.00028788506 0)
(1.4641578 -0.00026813302 0)
(1.4645842 -0.0002490612 0)
(1.46498 -0.00023049235 0)
(1.4653459 -0.00021226609 0)
(1.4656822 -0.00019430449 0)
(1.4659897 -0.0001765544 0)
(1.4662683 -0.00015906662 0)
(1.4665188 -0.0001418985 0)
(1.4667414 -0.00012521369 0)
(1.4669374 -0.00010913548 0)
(1.4671071 -9.3888343e-05 0)
(1.467253 -7.9586907e-05 0)
(1.4673754 -6.6456491e-05 0)
(1.4674779 -5.4527031e-05 0)
(1.4675604 -4.3989345e-05 0)
(1.4676278 -3.4732918e-05 0)
(1.4676791 -2.6923737e-05 0)
(1.4677204 -2.0276918e-05 0)
(1.467749 -1.4994122e-05 0)
(1.4677725 -1.0585376e-05 0)
(1.4677857 -7.3978972e-06 0)
(1.4677987 -4.6751763e-06 0)
(1.467802 -3.0747028e-06 0)
(1.4678101 -1.4374514e-06 0)
(1.4678069 -9.7594706e-07 0)
(1.4678142 1.3675001e-07 0)
(1.4678062 -2.4686259e-07 0)
(1.4678158 8.3390304e-07 0)
(1.4678027 -3.0425353e-07 0)
(1.4678179 1.1854922e-06 0)
(1.4677975 -8.3556058e-07 0)
(1.4678223 1.4667039e-06 0)
(1.4677908 -1.7664846e-06 0)
(1.467831 1.6081258e-06 0)
(1.4677821 -3.2954269e-06 0)
(1.4678479 6.6585622e-07 0)
(1.467773 -6.4426063e-06 0)
(1.4678826 -5.5773728e-06 0)
(1.4677707 -1.6145918e-05 0)
(1.4679355 -3.1581835e-05 0)
(0.99973847 -0.01235542 0)
(1.0184395 -0.03025194 0)
(1.0484404 -0.03961205 0)
(1.0802132 -0.044574128 0)
(1.1117125 -0.046231243 0)
(1.1417317 -0.04518731 0)
(1.1688992 -0.042438567 0)
(1.1926147 -0.038841857 0)
(1.2129156 -0.034971887 0)
(1.2301011 -0.031197141 0)
(1.2445727 -0.027728488 0)
(1.2567612 -0.02465771 0)
(1.2670716 -0.021999839 0)
(1.2758542 -0.019726014 0)
(1.2833979 -0.017787093 0)
(1.2899342 -0.01612877 0)
(1.2956457 -0.014699979 0)
(1.3006755 -0.013456749 0)
(1.3051355 -0.012363255 0)
(1.309114 -0.011391334 0)
(1.3126811 -0.010519319 0)
(1.3158934 -0.0097307269 0)
(1.3187971 -0.0090130301 0)
(1.3214304 -0.0083566482 0)
(1.3238253 -0.0077541435 0)
(1.3260088 -0.0071996058 0)
(1.328004 -0.006688196 0)
(1.3298308 -0.0062158323 0)
(1.3315065 -0.0057789936 0)
(1.3330461 -0.005374608 0)
(1.3344631 -0.0049999814 0)
(1.3357691 -0.0046527343 0)
(1.3369744 -0.0043307367 0)
(1.338088 -0.0040320469 0)
(1.3391179 -0.0037548694 0)
(1.3400714 -0.0034975363 0)
(1.3409549 -0.0032585068 0)
(1.3417741 -0.003036371 0)
(1.3425345 -0.002829849 0)
(1.3432406 -0.0026377802 0)
(1.3438968 -0.0024591076 0)
(1.344507 -0.0022928597 0)
(1.3450746 -0.0021381389 0)
(1.3456028 -0.001994111 0)
(1.3460945 -0.0018600029 0)
(1.3465525 -0.001735098 0)
(1.3469791 -0.0016187377 0)
(1.3473767 -0.0015103167 0)
(1.3477472 -0.0014092856 0)
(1.3480927 -0.0013151438 0)
(1.3484148 -0.0012274418 0)
(1.3487153 -0.001145768 0)
(1.3489955 -0.0010697482 0)
(1.349257 -0.00099902115 0)
(1.3495011 -0.0009332365 0)
(1.3497291 -0.00087202068 0)
(1.349942 -0.00081498195 0)
(1.3501411 -0.00076167587 0)
(1.3503273 -0.00071163342 0)
(1.3505016 -0.00066433343 0)
(1.3506647 -0.00061926592 0)
(1.3508173 -0.00057590645 0)
(1.3509598 -0.0005338152 0)
(1.3510928 -0.00049259146 0)
(1.3512163 -0.00045200134 0)
(1.3513308 -0.00041187907 0)
(1.3514359 -0.00037228182 0)
(1.3515322 -0.00033330333 0)
(1.3516192 -0.00029527647 0)
(1.3516975 -0.00025846762 0)
(1.3517665 -0.00022337871 0)
(1.3518275 -0.00019028303 0)
(1.3518796 -0.00015971312 0)
(1.3519246 -0.00013177004 0)
(1.3519615 -0.00010692236 0)
(1.3519928 -8.4961219e-05 0)
(1.352017 -6.6293275e-05 0)
(1.3520375 -5.0316677e-05 0)
(1.3520516 -3.7492148e-05 0)
(1.3520644 -2.6762539e-05 0)
(1.3520713 -1.8867163e-05 0)
(1.3520792 -1.2183188e-05 0)
(1.3520809 -8.0633647e-06 0)
(1.3520864 -4.0717182e-06 0)
(1.3520846 -2.657453e-06 0)
(1.3520896 -8.0525828e-08 0)
(1.3520849 -6.1364534e-07 0)
(1.352091 1.6549166e-06 0)
(1.3520837 -5.0098334e-07 0)
(1.3520922 2.4082199e-06 0)
(1.3520818 -1.5223043e-06 0)
(1.3520937 2.8478356e-06 0)
(1.3520797 -3.469719e-06 0)
(1.3520964 2.856592e-06 0)
(1.3520778 -6.8336582e-06 0)
(1.3521009 4.6642001e-07 0)
(1.3520769 -1.3933462e-05 0)
(1.3521091 -1.288556e-05 0)
(1.3520767 -3.4817162e-05 0)
(1.3521146 -6.5942329e-05 0)
(1.0001503 -0.028832874 0)
(1.0314833 -0.059420851 0)
(1.0675718 -0.071130968 0)
(1.0976325 -0.075530464 0)
(1.122939 -0.074771643 0)
(1.1433305 -0.070076815 0)
(1.1583159 -0.063250552 0)
(1.1684315 -0.055736677 0)
(1.1746341 -0.048415347 0)
(1.1778353 -0.041758145 0)
(1.1788249 -0.035964083 0)
(1.1782597 -0.031054898 0)
(1.1766545 -0.026957977 0)
(1.1743937 -0.023560783 0)
(1.1717527 -0.020743684 0)
(1.1689226 -0.018396527 0)
(1.1660319 -0.016425342 0)
(1.1631643 -0.01475365 0)
(1.1603724 -0.013321051 0)
(1.1576878 -0.012080681 0)
(1.155128 -0.010996491 0)
(1.1527013 -0.010040784 0)
(1.1504103 -0.0091921841 0)
(1.1482539 -0.0084340531 0)
(1.1462286 -0.0077532774 0)
(1.1443296 -0.0071393484 0)
(1.1425512 -0.0065836825 0)
(1.1408873 -0.0060791391 0)
(1.1393318 -0.0056197023 0)
(1.1378785 -0.0052002759 0)
(1.1365215 -0.004816534 0)
(1.1352548 -0.0044647884 0)
(1.1340729 -0.0041418585 0)
(1.1329703 -0.0038449551 0)
(1.1319419 -0.003571597 0)
(1.1309827 -0.0033195621 0)
(1.1300882 -0.003086867 0)
(1.129254 -0.0028717545 0)
(1.1284761 -0.0026726773 0)
(1.1277509 -0.002488272 0)
(1.1270746 -0.0023173285 0)
(1.126444 -0.0021587603 0)
(1.125856 -0.002011582 0)
(1.1253076 -0.0018748947 0)
(1.1247962 -0.0017478767 0)
(1.1243193 -0.0016297774 0)
(1.1238744 -0.0015199149 0)
(1.1234594 -0.0014176682 0)
(1.1230724 -0.0013224795 0)
(1.1227112 -0.0012338428 0)
(1.1223743 -0.0011513106 0)
(1.1220599 -0.0010744765 0)
(1.1217663 -0.0010029833 0)
(1.1214923 -0.00093649404 0)
(1.1212363 -0.00087469852 0)
(1.1209971 -0.00081727316 0)
(1.1207736 -0.00076388897 0)
(1.1205648 -0.00071417009 0)
(1.1203698 -0.00066771506 0)
(1.120188 -0.00062406506 0)
(1.1200189 -0.00058275194 0)
(1.119862 -0.00054327552 0)
(1.1197172 -0.00050518615 0)
(1.1195845 -0.00046805032 0)
(1.1194635 -0.00043156941 0)
(1.1193544 -0.00039549486 0)
(1.1192569 -0.00035978863 0)
(1.119171 -0.00032444253 0)
(1.119096 -0.00028970455 0)
(1.1190319 -0.00025575782 0)
(1.1189776 -0.00022306547 0)
(1.1189328 -0.00019186149 0)
(1.1188961 -0.00016270024 0)
(1.1188672 -0.0001356908 0)
(1.1188443 -0.00011137363 0)
(1.1188276 -8.958069e-05 0)
(1.1188146 -7.0812072e-05 0)
(1.1188062 -5.4522226e-05 0)
(1.1187995 -4.1249743e-05 0)
(1.1187965 -3.0006682e-05 0)
(1.1187933 -2.1550163e-05 0)
(1.1187933 -1.437068e-05 0)
(1.1187916 -9.7125378e-06 0)
(1.1187932 -5.3858644e-06 0)
(1.1187917 -3.4815156e-06 0)
(1.1187943 -8.2579856e-07 0)
(1.1187924 -8.3676121e-07 0)
(1.1187955 1.1505474e-06 0)
(1.1187931 -2.6549492e-07 0)
(1.1187961 1.823501e-06 0)
(1.1187938 -8.4486023e-07 0)
(1.1187959 1.8531306e-06 0)
(1.1187952 -2.247075e-06 0)
(1.1187937 1.1306914e-06 0)
(1.1187982 -4.8874249e-06 0)
(1.1187873 -1.8946566e-06 0)
(1.1188031 -1.0714078e-05 0)
(1.1187698 -1.2613111e-05 0)
(1.1188049 -2.6053703e-05 0)
(1.1187286 -4.62513e-05 0)
(1.003271 -0.054817095 0)
(1.0472129 -0.10100035 0)
(1.066112 -0.11153423 0)
(1.0625934 -0.10907373 0)
(1.0508094 -0.099917527 0)
(1.0345 -0.087034603 0)
(1.014893 -0.0729258 0)
(0.99382462 -0.05936706 0)
(0.97290666 -0.047360876 0)
(0.95311343 -0.037329022 0)
(0.93493756 -0.029286337 0)
(0.91857686 -0.023049513 0)
(0.90402629 -0.018325302 0)
(0.89116438 -0.014797168 0)
(0.87981419 -0.01217669 0)
(0.86978457 -0.010224554 0)
(0.8608929 -0.0087541132 0)
(0.85297563 -0.0076262679 0)
(0.84589186 -0.0067408509 0)
(0.83952302 -0.0060275618 0)
(0.83377062 -0.0054379521 0)
(0.82855328 -0.0049390031 0)
(0.82380375 -0.0045083041 0)
(0.81946617 -0.0041305894 0)
(0.81549383 -0.0037953247 0)
(0.81184729 -0.0034950603 0)
(0.80849297 -0.0032243372 0)
(0.80540199 -0.00297899 0)
(0.80254934 -0.0027557305 0)
(0.79991316 -0.0025519071 0)
(0.79747424 -0.0023653545 0)
(0.79521556 -0.002194278 0)
(0.79312193 -0.0020371512 0)
(0.79117974 -0.0018926332 0)
(0.78937674 -0.0017595175 0)
(0.7877019 -0.0016367108 0)
(0.78614522 -0.0015232339 0)
(0.78469764 -0.0014182248 0)
(0.78335092 -0.0013209354 0)
(0.78209755 -0.0012307159 0)
(0.78093064 -0.0011469949 0)
(0.77984389 -0.0010692593 0)
(0.77883147 -0.00099704143 0)
(0.77788808 -0.00092991062 0)
(0.77700878 -0.00086747132 0)
(0.77618905 -0.00080936051 0)
(0.77542472 -0.00075524799 0)
(0.77471192 -0.00070483305 0)
(0.77404709 -0.00065784401 0)
(0.77342692 -0.00061403507 0)
(0.77284832 -0.00057318699 0)
(0.77230843 -0.00053510429 0)
(0.77180455 -0.00049961692 0)
(0.77133416 -0.00046657338 0)
(0.7708949 -0.00043584136 0)
(0.77048454 -0.00040729166 0)
(0.770101 -0.0003808 0)
(0.76974242 -0.00035622144 0)
(0.76940708 -0.00033340168 0)
(0.76909354 -0.00031214521 0)
(0.76880054 -0.00029224774 0)
(0.76852716 -0.00027345937 0)
(0.76827261 -0.00025554811 0)
(0.76803648 -0.00023825058 0)
(0.76781839 -0.00022137111 0)
(0.76761824 -0.00020470022 0)
(0.76743582 -0.00018815351 0)
(0.76727113 -0.00017162983 0)
(0.76712381 -0.00015520271 0)
(0.7669937 -0.00013888458 0)
(0.76688004 -0.00012290162 0)
(0.76678237 -0.00010732527 0)
(0.76669942 -9.2486511e-05 0)
(0.76663047 -7.8421619e-05 0)
(0.76657374 -6.5509769e-05 0)
(0.76652847 -5.3650945e-05 0)
(0.76649248 -4.3245866e-05 0)
(0.76646527 -3.3975793e-05 0)
(0.76644433 -2.6290885e-05 0)
(0.76642975 -1.9593046e-05 0)
(0.76641873 -1.4469178e-05 0)
(0.76641223 -9.9865977e-06 0)
(0.76640703 -7.0058115e-06 0)
(0.76640519 -4.184398e-06 0)
(0.76640294 -2.8282756e-06 0)
(0.76640348 -1.0736952e-06 0)
(0.7664024 -8.5818186e-07 0)
(0.7664039 3.3988076e-07 0)
(0.7664032 -2.0632203e-07 0)
(0.76640464 7.700168e-07 0)
(0.7664044 -2.5762605e-07 0)
(0.76640454 5.5242768e-07 0)
(0.76640586 -6.8977708e-07 0)
(0.76640229 -4.7851013e-07 0)
(0.76640782 -1.49342e-06 0)
(0.76639519 -3.1167432e-06 0)
(0.76641006 -2.7665395e-06 0)
(0.76637598 -7.6042997e-06 0)
(0.7664102 -2.4944041e-06 0)
(0.76633643 -4.2773823e-06 0)
(0.92241905 -0.034487138 0)
(0.87132478 -0.058494328 0)
(0.78815633 -0.05621487 0)
(0.69388548 -0.045746924 0)
(0.61395329 -0.03451106 0)
(0.55015833 -0.024456415 0)
(0.49940112 -0.016279987 0)
(0.45984778 -0.010228166 0)
(0.42978246 -0.0061010092 0)
(0.4072318 -0.0034637539 0)
(0.39031208 -0.0018585108 0)
(0.37749589 -0.00095335849 0)
(0.36763738 -0.00049218123 0)
(0.35987522 -0.00029072883 0)
(0.35358862 -0.00022867074 0)
(0.3483477 -0.00023297077 0)
(0.34386163 -0.00026215331 0)
(0.33993606 -0.00029461032 0)
(0.33644166 -0.00032057776 0)
(0.33329196 -0.00033687527 0)
(0.3304281 -0.00034363975 0)
(0.32780869 -0.00034242672 0)
(0.32540338 -0.00033518955 0)
(0.32318875 -0.00032378171 0)
(0.32114589 -0.00030974631 0)
(0.31925888 -0.00029425919 0)
(0.3175139 -0.00027815184 0)
(0.31589874 -0.00026197796 0)
(0.31440249 -0.00024609621 0)
(0.31301534 -0.00023074208 0)
(0.31172842 -0.00021607514 0)
(0.3105337 -0.00020219731 0)
(0.30942388 -0.00018915582 0)
(0.30839231 -0.00017694696 0)
(0.30743293 -0.0001655278 0)
(0.30654024 -0.00015483701 0)
(0.30570921 -0.00014481405 0)
(0.30493528 -0.00013541104 0)
(0.30421425 -0.0001265944 0)
(0.30354231 -0.00011833898 0)
(0.30291593 -0.00011062131 0)
(0.30233188 -0.00010341412 0)
(0.30178718 -9.6686228e-05 0)
(0.30127906 -9.0403417e-05 0)
(0.30080497 -8.4532449e-05 0)
(0.30036258 -7.9042008e-05 0)
(0.2999497 -7.3904811e-05 0)
(0.29956433 -6.9096339e-05 0)
(0.2992046 -6.4594499e-05 0)
(0.29886878 -6.0379062e-05 0)
(0.29855528 -5.6430246e-05 0)
(0.29826258 -5.2731064e-05 0)
(0.29798931 -4.926524e-05 0)
(0.29773412 -4.6021198e-05 0)
(0.29749577 -4.2989666e-05 0)
(0.29727307 -4.01655e-05 0)
(0.29706489 -3.7547422e-05 0)
(0.29687016 -3.5133025e-05 0)
(0.29668788 -3.2924735e-05 0)
(0.29651714 -3.0914121e-05 0)
(0.29635715 -2.9099052e-05 0)
(0.29620724 -2.7455951e-05 0)
(0.29606684 -2.5972141e-05 0)
(0.29593558 -2.4606222e-05 0)
(0.29581318 -2.333684e-05 0)
(0.29569951 -2.2111053e-05 0)
(0.2955945 -2.0909448e-05 0)
(0.29549819 -1.9679931e-05 0)
(0.29541054 -1.8420101e-05 0)
(0.29533161 -1.7088905e-05 0)
(0.29526125 -1.5712989e-05 0)
(0.2951994 -1.4262998e-05 0)
(0.29514567 -1.2799982e-05 0)
(0.29509981 -1.1294627e-05 0)
(0.29506115 -9.8420297e-06 0)
(0.2950293 -8.3915083e-06 0)
(0.29500335 -7.0724059e-06 0)
(0.29498287 -5.7865205e-06 0)
(0.2949668 -4.7048053e-06 0)
(0.29495482 -3.6543145e-06 0)
(0.29494576 -2.8670838e-06 0)
(0.29493957 -2.0674501e-06 0)
(0.29493502 -1.5805468e-06 0)
(0.29493242 -9.9798508e-07 0)
(0.29493043 -7.7918298e-07 0)
(0.29492981 -3.5174577e-07 0)
(0.29492908 -3.487056e-07 0)
(0.29492938 -1.3718769e-08 0)
(0.29492913 -1.6485425e-07 0)
(0.29492965 1.0781257e-07 0)
(0.29492959 -1.1773496e-07 0)
(0.29492974 4.2755901e-08 0)
(0.29492995 -1.1857746e-07 0)
(0.29492884 -2.8491896e-07 0)
(0.29492985 -5.983309e-08 0)
(0.29492594 -9.6994512e-07 0)
(0.29492914 7.1433621e-07 0)
(0.29492109 -7.3092188e-07 0)
(0.29493008 6.7416946e-06 0)
(0.29493203 8.1658979e-06 0)
)
;

boundaryField
{
    top
    {
        type            fixedValue;
        value           uniform (0 0 0);
    }
    inlet
    {
        type            fixedValue;
        value           uniform (1 0 0);
    }
    outlet
    {
        type            zeroGradient;
    }
    bottom
    {
        type            fixedValue;
        value           uniform (0 0 0);
    }
    back
    {
        type            empty;
    }
    front
    {
        type            empty;
    }
}


// ************************************************************************* //
