/*--------------------------------*- C++ -*----------------------------------*\
| =========                 |                                                 |
| \\      /  F ield         | OpenFOAM: The Open Source CFD Toolbox           |
|  \\    /   O peration     | Version:  v1812                                 |
|   \\  /    A nd           | Web:      www.OpenFOAM.com                      |
|    \\/     M anipulation  |                                                 |
\*---------------------------------------------------------------------------*/
FoamFile
{
    version     2.0;
    format      ascii;
    class       surfaceScalarField;
    location    "17.55";
    object      phi;
}
// * * * * * * * * * * * * * * * * * * * * * * * * * * * * * * * * * * * * * //

dimensions      [0 3 -1 0 0 0 0];
oriented        oriented;


internalField   nonuniform List<scalar> 
1890
(
0.0093061958
0.00069380425
0.0082843931
0.0010218027
0.0073298986
0.00095449446
0.0064869553
0.00084294331
0.0057695845
0.00071737078
0.00518986
0.00057972443
0.004738168
0.00045169205
0.00439519
0.00034297802
0.0041390268
0.00025616318
0.003949107
0.00018991983
0.003807888
0.00014121897
0.0037013782
0.0001065098
0.003619058
8.2320219e-05
0.0035534117
6.5646243e-05
0.0034992845
5.4127248e-05
0.0034532444
4.6040037e-05
0.0034130502
4.0194282e-05
0.0033772574
3.5792748e-05
0.0033449386
3.2318757e-05
0.0033154894
2.9449282e-05
0.0032885008
2.6988583e-05
0.0032636805
2.4820307e-05
0.003240805
2.2875484e-05
0.0032196926
2.1112417e-05
0.0032001879
1.9504651e-05
0.0031821539
1.8034006e-05
0.0031654672
1.6686718e-05
0.0031500158
1.5451355e-05
0.0031356979
1.431786e-05
0.0031224209
1.3277069e-05
0.0031101003
1.2320594e-05
0.0030986596
1.1440725e-05
0.0030880291
1.063044e-05
0.0030781458
9.88337e-06
0.003068952
9.1937732e-06
0.0030603955
8.5564943e-06
0.0030524286
7.9669128e-06
0.0030450076
7.4208967e-06
0.0030380929
6.9147425e-06
0.0030316478
6.4451214e-06
0.0030256387
6.0090561e-06
0.0030200349
5.603848e-06
0.0030148078
5.2270771e-06
0.0030099313
4.8765426e-06
0.0030053811
4.550253e-06
0.0030011346
4.2464042e-06
0.0029971713
3.9633382e-06
0.0029934717
3.699559e-06
0.002990018
3.4536793e-06
0.0029867936
3.2244204e-06
0.002983783
3.0106191e-06
0.0029809718
2.8111764e-06
0.0029783467
2.6250949e-06
0.0029758953
2.4514444e-06
0.002973606
2.2893593e-06
0.0029714679
2.1380629e-06
0.0029694711
1.9968109e-06
0.0029676061
1.8649544e-06
0.0029658642
1.741859e-06
0.0029642372
1.62694e-06
0.0029627176
1.5196525e-06
0.0029612982
1.4194677e-06
0.0029599723
1.3259073e-06
0.0029587338
1.238512e-06
0.002957577
1.156862e-06
0.0029564964
1.0805846e-06
0.002955487
1.0093245e-06
0.0029545442
9.4276755e-07
0.0029536635
8.8063367e-07
0.0029528409
8.2261793e-07
0.0029520724
7.6846664e-07
0.0029513546
7.1789775e-07
0.002950684
6.7064925e-07
0.0029500575
6.2648546e-07
0.0029494724
5.8519211e-07
0.0029489258
5.4658012e-07
0.0029484152
5.1051209e-07
0.0029479383
4.7681327e-07
0.0029474929
4.4539853e-07
0.0029470768
4.1607719e-07
0.002946688
3.8875222e-07
0.0029463249
3.6320957e-07
0.0029459856
3.3935663e-07
0.0029456687
3.1698417e-07
0.0029453726
2.9608205e-07
0.0029450962
2.7642302e-07
0.0029448379
2.5821287e-07
0.0029445967
2.410577e-07
0.0029443712
2.2532697e-07
0.0029441609
2.1041241e-07
0.0029439642
1.9684745e-07
0.0029437803
1.8377491e-07
0.0029436083
1.7211566e-07
0.002943448
1.6037912e-07
0.0029432978
1.5018762e-07
0.0029431574
1.4029319e-07
0.0029430254
1.3210865e-07
0.0029429003
1.2511262e-07
0.0029427808
1.1941336e-07
1.2577239e-07
0.010339525
0.00035427931
0.010570754
0.00079057333
0.010606301
0.00091894817
0.010547572
0.00090167133
0.010422317
0.0008426262
0.010244356
0.00075768557
0.010039421
0.00065662743
0.0098287427
0.00055365586
0.009625135
0.00045977083
0.0094353013
0.00037975353
0.0092624277
0.00031409258
0.0091075333
0.00026140425
0.008970154
0.00021969948
0.0088489024
0.00018689785
0.0087419716
0.00016105801
0.0086474927
0.00014051893
0.008563694
0.00012399295
0.0084890108
0.00011047599
0.0084221097
9.9219866e-05
0.0083618776
8.9681405e-05
0.0083073955
8.1470669e-05
0.0082579079
7.4307847e-05
0.0082127929
6.7990494e-05
0.0081715354
6.2369982e-05
0.008133705
5.7335004e-05
0.0080989388
5.2800172e-05
0.0080669273
4.8698255e-05
0.0080374037
4.4974949e-05
0.0080101362
4.1585387e-05
0.0079849214
3.8491847e-05
0.0079615798
3.5662155e-05
0.0079399519
3.3068612e-05
0.0079198952
3.068717e-05
0.0079012817
2.8496847e-05
0.0078839962
2.6479237e-05
0.0078679346
2.4618138e-05
0.0078530023
2.2899239e-05
0.0078391133
2.1309843e-05
0.0078261894
1.9838662e-05
0.0078141589
1.8475615e-05
0.0078029563
1.721167e-05
0.0077925214
1.6038731e-05
0.007782799
1.4949484e-05
0.0077737382
1.3937341e-05
0.0077652921
1.2996323e-05
0.0077574175
1.2121002e-05
0.0077500744
1.130645e-05
0.0077432258
1.0548146e-05
0.0077368375
9.8419706e-06
0.0077308778
9.1841347e-06
0.0077253173
8.571147e-06
0.0077201287
7.999816e-06
0.0077152866
7.4671685e-06
0.0077107675
6.9704863e-06
0.0077065496
6.5072506e-06
0.0077026125
6.0751345e-06
0.0076989373
5.6720132e-06
0.0076955064
5.2958955e-06
0.0076923033
4.9449551e-06
0.0076893128
4.6174692e-06
0.0076865206
4.3118337e-06
0.0076839135
4.026568e-06
0.0076814792
3.7602638e-06
0.007679206
3.511643e-06
0.0076770834
3.2795044e-06
0.0076751012
3.0627428e-06
0.0076732501
2.8603534e-06
0.0076715215
2.6713903e-06
0.0076699072
2.4949726e-06
0.0076683995
2.3302856e-06
0.0076669915
2.1765239e-06
0.0076656765
2.0329395e-06
0.0076644483
1.8988376e-06
0.0076633012
1.7735437e-06
0.0076622299
1.656495e-06
0.0076612293
1.547133e-06
0.0076602948
1.4450075e-06
0.007659422
1.3496369e-06
0.0076586068
1.2606467e-06
0.0076578453
1.1775467e-06
0.0076571341
1.1000346e-06
0.0076564698
1.0275311e-06
0.0076558493
9.5989787e-07
0.0076552697
8.9649929e-07
0.0076547282
8.3743648e-07
0.0076542228
7.81895e-07
0.0076537505
7.3046761e-07
0.0076533094
6.8214414e-07
0.0076528972
6.3760689e-07
0.0076525127
5.9496511e-07
0.0076521529
5.5670694e-07
0.0076518171
5.1953408e-07
0.0076515027
4.8639942e-07
0.0076512105
4.5245043e-07
0.0076509355
4.2511095e-07
0.0076506807
3.9526632e-07
0.0076504386
3.7432521e-07
0.0076502165
3.470985e-07
0.0076499999
3.3607326e-07
3.1077188e-07
0.010188704
0.00016557515
0.010530487
0.00044879097
0.010851453
0.00059798174
0.011124174
0.00062895021
0.011350581
0.00061621883
0.011524486
0.00058378053
0.01164633
0.00053478419
0.011724155
0.00047583049
0.011767999
0.00041592665
0.011786639
0.00036111399
0.011787114
0.0003136171
0.011775058
0.00027346024
0.011754861
0.00023989717
0.011729768
0.00021199029
0.011702054
0.00018877259
0.011673239
0.00016933387
0.011644339
0.00015289295
0.011616003
0.00013881182
0.011588629
0.00012659379
0.011562446
0.00011586444
0.011537572
0.00010634493
0.011514052
9.7826991e-05
0.01149189
9.0153353e-05
0.011471056
8.3203356e-05
0.011451509
7.6882601e-05
0.011433193
7.1115548e-05
0.011416051
6.5840283e-05
0.011400021
6.1004899e-05
0.011385042
5.6565064e-05
0.011371051
5.2482334e-05
0.01135799
4.8723027e-05
0.011345801
4.5257387e-05
0.01133443
4.205899e-05
0.011323822
3.9104264e-05
0.011313929
3.6372108e-05
0.011304704
3.3843592e-05
0.011296101
3.1501679e-05
0.01128808
2.9331009e-05
0.011280601
2.7317698e-05
0.011273628
2.5449179e-05
0.011267125
2.3714058e-05
0.011261062
2.2101962e-05
0.011255408
2.0603466e-05
0.011250135
1.9209956e-05
0.011245218
1.7913571e-05
0.011240632
1.6707114e-05
0.011236354
1.558398e-05
0.011232364
1.4538114e-05
0.011228643
1.3563932e-05
0.01122517
1.26563e-05
0.011221931
1.1810492e-05
0.011218909
1.1022115e-05
0.011216089
1.0287142e-05
0.011213457
9.6018283e-06
0.011211002
8.9627199e-06
0.01120871
8.36663e-06
0.011206572
7.8105961e-06
0.011204576
7.2918829e-06
0.011202713
6.8079237e-06
0.011200974
6.3563492e-06
0.011199351
5.9349588e-06
0.011197836
5.5416783e-06
0.011196421
5.174616e-06
0.011195101
4.8319821e-06
0.011193868
4.5121427e-06
0.011192718
4.2135666e-06
0.011191643
3.9348353e-06
0.01119064
3.6746289e-06
0.011189703
3.4317193e-06
0.011188829
3.204927e-06
0.011188012
2.9931938e-06
0.011187249
2.795468e-06
0.011186537
2.6108254e-06
0.011185873
2.4383734e-06
0.011185252
2.2773345e-06
0.011184672
2.1269238e-06
0.01118413
1.9865116e-06
0.011183625
1.8553674e-06
0.011183152
1.7329911e-06
0.011182711
1.6186423e-06
0.011182299
1.5119379e-06
0.011181915
1.4121165e-06
0.011181556
1.3190601e-06
0.01118122
1.2318423e-06
0.011180907
1.1506913e-06
0.011180614
1.0745121e-06
0.011180341
1.0041076e-06
0.011180086
9.372771e-07
0.011179847
8.761919e-07
0.011179624
8.1774133e-07
0.011179416
7.6532221e-07
0.011179222
7.1275674e-07
0.01117904
6.680982e-07
0.011178872
6.2101606e-07
0.011178712
5.8530799e-07
0.011178566
5.4115633e-07
0.011178425
5.1517254e-07
0.0111783
4.7224434e-07
0.011178177
4.5904748e-07
4.1608555e-07
0.010097182
6.8393549e-05
0.010346961
0.0001990111
0.010662469
0.00028247385
0.010982753
0.00030866646
0.011290229
0.00030874339
0.011575251
0.00029875786
0.011829022
0.00028101344
0.012047865
0.00025698754
0.012233272
0.00023051981
0.01238924
0.00020514589
0.012520295
0.00018256234
0.012630755
0.00016299955
0.012724428
0.00014622488
0.012804515
0.0001319031
0.012873613
0.00011967425
0.012933772
0.0001091746
0.012986596
0.00010006906
0.013033332
9.2076355e-05
0.01307495
8.4975243e-05
0.013112216
7.8598603e-05
0.013145739
7.2822291e-05
0.013176012
6.7553926e-05
0.013203441
6.2723912e-05
0.013228366
5.8278884e-05
0.013251071
5.4176977e-05
0.013271802
5.038442e-05
0.01329077
4.687315e-05
0.013308155
4.3619166e-05
0.013324119
4.060145e-05
0.0133388
3.7801276e-05
0.013352321
3.5201753e-05
0.013364791
3.2787532e-05
0.013376306
3.0544591e-05
0.01338695
2.8460081e-05
0.0133968
2.6522208e-05
0.013405923
2.4720119e-05
0.013414381
2.3043827e-05
0.013422228
2.148413e-05
0.013429513
2.0032551e-05
0.013436281
1.8681267e-05
0.013442572
1.7423063e-05
0.013448423
1.6251284e-05
0.013453866
1.5159769e-05
0.013458933
1.4142837e-05
0.013463652
1.3195228e-05
0.013468047
1.2312076e-05
0.013472142
1.1488874e-05
0.013475959
1.0721442e-05
0.013479517
1.0005912e-05
0.013482834
9.3386904e-06
0.013485928
8.7164405e-06
0.013488814
8.1360755e-06
0.013491507
7.5947077e-06
0.013494019
7.089676e-06
0.013496363
6.6185055e-06
0.013498551
6.1788952e-06
0.013500593
5.7687023e-06
0.013502499
5.3859257e-06
0.013504278
5.0287127e-06
0.013505939
4.6953322e-06
0.01350749
4.3841665e-06
0.013508938
4.0937297e-06
0.01351029
3.8226153e-06
0.013511552
3.5695349e-06
0.013512731
3.3332802e-06
0.013513832
3.1127302e-06
0.01351486
2.9068399e-06
0.01351582
2.7146186e-06
0.013516716
2.5351552e-06
0.013517554
2.3675937e-06
0.013518336
2.211122e-06
0.013519066
2.0650047e-06
0.013519749
1.9285638e-06
0.013520386
1.8011416e-06
0.013520981
1.6821827e-06
0.013521537
1.5710881e-06
0.013522056
1.4673883e-06
0.013522541
1.3705222e-06
0.013522994
1.2801096e-06
0.013523417
1.1955967e-06
0.013523812
1.1167365e-06
0.013524181
1.0429319e-06
0.013524526
9.7416962e-07
0.013524848
9.0971026e-07
0.013525149
8.4991883e-07
0.013525429
7.9366103e-07
0.013525692
7.4160276e-07
0.013525938
6.9217493e-07
0.013526166
6.4742271e-07
0.01352638
6.0397705e-07
0.01352658
5.6505747e-07
0.013526767
5.2580023e-07
0.013526941
4.9377786e-07
0.013527104
4.5844438e-07
0.013527257
4.3257194e-07
0.013527399
3.9889303e-07
0.013527533
3.8081488e-07
0.013527658
3.4706762e-07
0.013527779
3.3803048e-07
3.0565506e-07
0.010068394
-5.0930398e-12
0.010267405
-1.3187705e-11
0.010549879
-1.4258993e-11
0.010858545
-1.2254087e-11
0.011167288
-9.6171767e-12
0.011466046
-9.6819857e-12
0.01174706
-1.0517818e-11
0.012004047
-1.1901284e-11
0.012234567
-1.3181918e-11
0.012439713
-1.4950154e-11
0.012622275
-1.5875656e-11
0.012785275
-1.5328373e-11
0.0129315
-1.4051449e-11
0.013063403
-1.1415471e-11
0.013183077
-9.1457222e-12
0.013292252
-9.3924639e-12
0.013392321
-1.1101558e-11
0.013484397
-1.1564826e-11
0.013569373
-8.9517696e-12
0.013647971
-7.2420468e-12
0.013720793
-9.3244522e-12
0.013788347
-1.2662603e-11
0.013851071
-1.1771261e-11
0.01390935
-1.0376267e-11
0.013963527
-1.0311079e-11
0.014013912
-1.130805e-11
0.014060785
-1.3330674e-11
0.014104404
-1.3179983e-11
0.014145005
-8.8012651e-12
0.014182807
-3.6109652e-12
0.014218009
8.5208561e-13
0.014250796
6.1665902e-13
0.014281341
-4.1080323e-12
0.014309801
-1.169911e-11
0.014336323
-1.8560376e-11
0.014361043
-2.1314007e-11
0.014384087
-1.8362478e-11
0.014405571
-1.2165457e-11
0.014425604
-4.8684645e-12
0.014444285
2.1802675e-12
0.014461708
5.9887278e-12
0.014477959
5.3950688e-12
0.014493119
3.4849448e-12
0.014507262
2.4410026e-13
0.014520457
-3.5966466e-12
0.014532769
-4.3746365e-12
0.014544258
-3.2849186e-12
0.014554979
-3.6605525e-13
0.014564985
5.660418e-12
0.014574324
1.3801317e-11
0.014583041
1.9001088e-11
0.014591177
1.5363211e-11
0.014598771
8.2551449e-12
0.014605861
-4.596719e-13
0.014612479
-1.0282236e-11
0.014618658
-1.1449926e-11
0.014624427
-4.047358e-12
0.014629813
6.106268e-12
0.014634842
1.8953832e-11
0.014639537
2.4944349e-11
0.014643921
2.2197744e-11
0.014648015
1.2178824e-11
0.014651837
1.4624255e-12
0.014655407
-1.285137e-11
0.01465874
-2.1236813e-11
0.014661853
-1.719502e-11
0.01466476
-5.3150377e-12
0.014667474
1.3236477e-11
0.01467001
3.154214e-11
0.014672377
3.8774585e-11
0.014674588
3.5319335e-11
0.014676653
1.5623865e-11
0.014678582
-7.3385221e-12
0.014680383
-3.0832648e-11
0.014682065
-4.5324104e-11
0.014683636
-3.3149846e-11
0.014685104
-6.103709e-12
0.014686474
2.9172537e-11
0.014687754
5.4375359e-11
0.01468895
5.5326075e-11
0.014690067
3.3868902e-11
0.014691109
-4.5754103e-12
0.014692083
-5.0718783e-11
0.014692994
-6.1084918e-11
0.014693844
-2.7701016e-11
0.014694636
-9.2643534e-12
0.014695378
5.004805e-12
0.014696072
7.201831e-11
0.014696719
1.4234925e-10
0.014697321
4.9034896e-11
0.014697887
-8.0120929e-11
0.014698414
-7.6986389e-11
0.014698907
-8.1800708e-11
0.014699364
-2.4464345e-11
0.014699798
9.1126736e-11
0.014700198
1.3539043e-10
0.014700578
-5.657411e-12
0.014700924
-1.2355695e-10
0.014701262
-6.584723e-11
-4.4349838e-11
0.010068394
-6.8393558e-05
0.010267405
-0.00019901113
0.010549879
-0.00028247388
0.010858545
-0.00030866649
0.011167288
-0.00030874342
0.011466046
-0.00029875789
0.01174706
-0.00028101346
0.012004047
-0.00025698756
0.012234567
-0.00023051983
0.012439713
-0.00020514591
0.012622275
-0.00018256236
0.012785275
-0.00016299958
0.0129315
-0.00014622492
0.013063403
-0.00013190313
0.013183077
-0.00011967427
0.013292252
-0.00010917462
0.013392321
-0.00010006908
0.013484397
-9.207637e-05
0.013569373
-8.4975255e-05
0.013647971
-7.8598616e-05
0.013720793
-7.2822309e-05
0.013788347
-6.7553944e-05
0.013851071
-6.2723932e-05
0.01390935
-5.8278904e-05
0.013963527
-5.4176996e-05
0.014013912
-5.0384443e-05
0.014060785
-4.6873175e-05
0.014104404
-4.3619188e-05
0.014145005
-4.0601464e-05
0.014182807
-3.780128e-05
0.014218008
-3.5201754e-05
0.014250796
-3.2787534e-05
0.014281341
-3.0544601e-05
0.014309801
-2.8460105e-05
0.014336323
-2.6522239e-05
0.014361043
-2.4720152e-05
0.014384087
-2.3043857e-05
0.014405571
-2.1484152e-05
0.014425604
-2.0032558e-05
0.014444285
-1.8681261e-05
0.014461708
-1.7423054e-05
0.014477959
-1.6251271e-05
0.014493119
-1.5159759e-05
0.014507262
-1.4142834e-05
0.014520457
-1.3195233e-05
0.014532769
-1.2312085e-05
0.014544258
-1.1488881e-05
0.014554979
-1.0721443e-05
0.014564985
-1.00059e-05
0.014574324
-9.3386676e-06
0.01458304
-8.7164172e-06
0.014591177
-8.1360499e-06
0.014598771
-7.5946935e-06
0.014605861
-7.0896761e-06
0.014612479
-6.6185139e-06
0.014618658
-6.1789031e-06
0.014624427
-5.7687012e-06
0.014629813
-5.3859181e-06
0.014634842
-5.0286927e-06
0.014639537
-4.695297e-06
0.014643921
-4.3841369e-06
0.014648015
-4.0937085e-06
0.014651837
-3.8226127e-06
0.014655407
-3.5695481e-06
0.01465874
-3.333309e-06
0.014661853
-3.1127578e-06
0.01466476
-2.9068447e-06
0.014667474
-2.7146004e-06
0.01467001
-2.5351175e-06
0.014672377
-2.3675354e-06
0.014674588
-2.2110814e-06
0.014676653
-2.0649863e-06
0.014678582
-1.9285764e-06
0.014680383
-1.8011861e-06
0.014682065
-1.6822317e-06
0.014683636
-1.5711212e-06
0.014685104
-1.4673848e-06
0.014686474
-1.3704847e-06
0.014687754
-1.2800576e-06
0.01468895
-1.1955354e-06
0.014690067
-1.1166996e-06
0.014691109
-1.0429543e-06
0.014692083
-9.7422536e-07
0.014692994
-9.0977316e-07
0.014693844
-8.499547e-07
0.014694636
-7.9366705e-07
0.014695378
-7.4159271e-07
0.014696072
-6.9210411e-07
0.014696719
-6.4726191e-07
0.014697321
-6.0383161e-07
0.014697887
-5.6525932e-07
0.014698414
-5.2607779e-07
0.014698907
-4.9357756e-07
0.014699364
-4.582274e-07
0.014699798
-4.327864e-07
0.014700198
-3.9907947e-07
0.014700578
-3.8080047e-07
0.014700924
-3.4704096e-07
0.014701262
-3.3802352e-07
-3.0570148e-07
0.010097182
-0.00016557515
0.010346961
-0.000448791
0.010662469
-0.00059798177
0.010982753
-0.00062895025
0.011290229
-0.00061621886
0.011575251
-0.00058378055
0.011829022
-0.0005347842
0.012047865
-0.0004758305
0.012233272
-0.00041592666
0.01238924
-0.000361114
0.012520295
-0.00031361712
0.012630755
-0.00027346026
0.012724428
-0.00023989719
0.012804515
-0.00021199031
0.012873613
-0.00018877261
0.012933772
-0.00016933388
0.012986596
-0.00015289296
0.013033332
-0.00013881183
0.01307495
-0.00012659379
0.013112216
-0.00011586445
0.013145739
-0.00010634494
0.013176012
-9.7827004e-05
0.013203441
-9.0153367e-05
0.013228366
-8.3203371e-05
0.013251071
-7.688262e-05
0.013271802
-7.1115568e-05
0.01329077
-6.5840299e-05
0.013308155
-6.1004911e-05
0.013324119
-5.656507e-05
0.0133388
-5.2482338e-05
0.013352321
-4.8723026e-05
0.013364791
-4.525739e-05
0.013376305
-4.2059e-05
0.01338695
-3.9104279e-05
0.0133968
-3.6372131e-05
0.013405923
-3.3843619e-05
0.013414381
-3.1501702e-05
0.013422228
-2.9331021e-05
0.013429513
-2.73177e-05
0.013436281
-2.5449174e-05
0.013442572
-2.3714041e-05
0.013448422
-2.2101947e-05
0.013453866
-2.0603455e-05
0.013458933
-1.9209953e-05
0.013463652
-1.7913575e-05
0.013468047
-1.6707121e-05
0.013472142
-1.5583989e-05
0.013475958
-1.4538114e-05
0.013479517
-1.3563928e-05
0.013482834
-1.2656294e-05
0.013485928
-1.1810472e-05
0.013488814
-1.1022096e-05
0.013491507
-1.0287123e-05
0.013494019
-9.601816e-06
0.013496363
-8.9627188e-06
0.013498551
-8.3666386e-06
0.013500593
-7.8106146e-06
0.013502499
-7.2918894e-06
0.013504278
-6.80792e-06
0.013505939
-6.3563379e-06
0.01350749
-5.9349308e-06
0.013508938
-5.5416519e-06
0.01351029
-5.1745961e-06
0.013511552
-4.831982e-06
0.013512731
-4.5121521e-06
0.013513832
-4.213581e-06
0.01351486
-3.9348537e-06
0.01351582
-3.674637e-06
0.013516716
-3.4317116e-06
0.013517554
-3.2049167e-06
0.013518336
-2.9931648e-06
0.013519066
-2.7954413e-06
0.013519749
-2.6108115e-06
0.013520386
-2.4383737e-06
0.013520981
-2.2773508e-06
0.013521537
-2.1269549e-06
0.013522056
-1.9865455e-06
0.013522541
-1.8553883e-06
0.013522994
-1.732983e-06
0.013523417
-1.6186082e-06
0.013523812
-1.5118948e-06
0.013524181
-1.4120849e-06
0.013524526
-1.3190501e-06
0.013524848
-1.2318522e-06
0.013525149
-1.1507685e-06
0.013525429
-1.0745696e-06
0.013525692
-1.0040528e-06
0.013525938
-9.3723261e-07
0.013526166
-8.7630067e-07
0.01352638
-8.1778931e-07
0.01352658
-7.6502209e-07
0.013526767
-7.1250378e-07
0.013526941
-6.6836099e-07
0.013527104
-6.2136531e-07
0.013527257
-5.8526478e-07
0.013527399
-5.4101577e-07
0.013527533
-5.1516632e-07
0.013527658
-4.7222964e-07
0.013527779
-4.5900384e-07
-4.1606969e-07
0.010188704
-0.00035427932
0.010530487
-0.00079057335
0.010851453
-0.0009189482
0.011124174
-0.00090167137
0.011350581
-0.00084262623
0.011524486
-0.00075768559
0.01164633
-0.00065662744
0.011724155
-0.00055365586
0.011767999
-0.00045977083
0.011786639
-0.00037975354
0.011787114
-0.00031409259
0.011775058
-0.00026140427
0.011754861
-0.00021969949
0.011729768
-0.00018689787
0.011702054
-0.00016105802
0.011673239
-0.00014051894
0.011644339
-0.00012399295
0.011616003
-0.00011047599
0.011588629
-9.9219868e-05
0.011562446
-8.9681405e-05
0.011537572
-8.1470672e-05
0.011514052
-7.4307852e-05
0.011491889
-6.7990501e-05
0.011471056
-6.2369993e-05
0.011451509
-5.7335017e-05
0.011433193
-5.2800186e-05
0.011416051
-4.8698266e-05
0.011400021
-4.4974955e-05
0.011385041
-4.1585391e-05
0.011371051
-3.8491848e-05
0.01135799
-3.5662157e-05
0.011345801
-3.3068613e-05
0.01133443
-3.0687174e-05
0.011323822
-2.8496853e-05
0.011313929
-2.6479246e-05
0.011304704
-2.4618151e-05
0.011296101
-2.2899251e-05
0.01128808
-2.1309853e-05
0.011280601
-1.9838666e-05
0.011273628
-1.847561e-05
0.011267125
-1.7211662e-05
0.011261062
-1.6038715e-05
0.011255408
-1.4949471e-05
0.011250135
-1.3937332e-05
0.011245218
-1.299632e-05
0.011240632
-1.2121009e-05
0.011236354
-1.1306457e-05
0.011232364
-1.0548156e-05
0.011228643
-9.8419777e-06
0.01122517
-9.1841355e-06
0.011221931
-8.5711459e-06
0.011218909
-7.9998017e-06
0.011216089
-7.4671498e-06
0.011213457
-6.9704644e-06
0.011211002
-6.5072339e-06
0.01120871
-6.0751376e-06
0.011206572
-5.6720285e-06
0.011204576
-5.2959223e-06
0.011202713
-4.9449769e-06
0.011200974
-4.6174786e-06
0.011199351
-4.31183e-06
0.011197836
-4.026542e-06
0.011196421
-3.760233e-06
0.011195101
-3.5116126e-06
0.011193868
-3.279486e-06
0.011192718
-3.0627458e-06
0.011191643
-2.860375e-06
0.01119064
-2.6714249e-06
0.011189703
-2.4950139e-06
0.011188829
-2.3303068e-06
0.011188012
-2.1765239e-06
0.011187249
-2.0329105e-06
0.011186537
-1.8987886e-06
0.011185873
-1.773498e-06
0.011185252
-1.6564711e-06
0.011184672
-1.5471436e-06
0.01118413
-1.4450595e-06
0.011183625
-1.3497066e-06
0.011183152
-1.2607103e-06
0.011182711
-1.1775668e-06
0.0111823
-1.1000031e-06
0.011181915
-1.027466e-06
0.011181556
-9.5981131e-07
0.01118122
-8.9644245e-07
0.011180907
-8.3743681e-07
0.011180614
-7.8196301e-07
0.011180341
-7.3055943e-07
0.011180086
-6.8219686e-07
0.011179847
-6.376695e-07
0.011179624
-5.9502923e-07
0.011179416
-5.5653682e-07
0.011179223
-5.1916151e-07
0.01117904
-4.8630495e-07
0.011178872
-4.5280316e-07
0.011178712
-4.2541705e-07
0.011178566
-3.9517628e-07
0.011178425
-3.7415412e-07
0.0111783
-3.4705215e-07
0.011178177
-3.3599088e-07
-3.1069981e-07
0.010339525
-0.00069380425
0.010570754
-0.0010218027
0.010606301
-0.00095449448
0.010547572
-0.00084294333
0.010422317
-0.0007173708
0.010244356
-0.00057972444
0.010039421
-0.00045169205
0.0098287427
-0.00034297801
0.009625135
-0.00025616318
0.0094353013
-0.00018991983
0.0092624277
-0.00014121897
0.0091075332
-0.0001065098
0.008970154
-8.2320226e-05
0.0088489023
-6.5646249e-05
0.0087419716
-5.4127255e-05
0.0086474927
-4.6040044e-05
0.008563694
-4.0194286e-05
0.0084890108
-3.5792751e-05
0.0084221096
-3.2318757e-05
0.0083618775
-2.9449283e-05
0.0083073954
-2.698858e-05
0.0082579079
-2.4820304e-05
0.0082127929
-2.2875483e-05
0.0081715353
-2.1112419e-05
0.0081337049
-1.9504656e-05
0.0080989388
-1.8034017e-05
0.0080669272
-1.6686727e-05
0.0080374036
-1.5451365e-05
0.0080101361
-1.4317864e-05
0.0079849213
-1.3277073e-05
0.0079615798
-1.2320592e-05
0.0079399519
-1.144072e-05
0.0079198951
-1.0630434e-05
0.0079012816
-9.8833646e-06
0.0078839962
-9.1937719e-06
0.0078679345
-8.5564985e-06
0.0078530022
-7.966923e-06
0.0078391132
-7.4209085e-06
0.0078261893
-6.9147507e-06
0.0078141588
-6.4451266e-06
0.0078029562
-6.0090514e-06
0.0077925214
-5.6038381e-06
0.0077827989
-5.2270615e-06
0.0077737381
-4.8765271e-06
0.0077652921
-4.5502441e-06
0.0077574175
-4.2464016e-06
0.0077500744
-3.9633476e-06
0.0077432258
-3.6995733e-06
0.0077368375
-3.4536946e-06
0.0077308778
-3.2244364e-06
0.0077253173
-3.010623e-06
0.0077201286
-2.8111702e-06
0.0077152866
-2.6250765e-06
0.0077107675
-2.4514166e-06
0.0077065496
-2.2893372e-06
0.0077026125
-2.1380504e-06
0.0076989373
-1.9968244e-06
0.0076955064
-1.8649811e-06
0.0076923033
-1.7418923e-06
0.0076893128
-1.6269698e-06
0.0076865206
-1.5196626e-06
0.0076839135
-1.419457e-06
0.0076814792
-1.3258749e-06
0.007679206
-1.2384689e-06
0.0076770834
-1.1568262e-06
0.0076751012
-1.0805668e-06
0.0076732502
-1.0093384e-06
0.0076715216
-9.4281339e-07
0.0076699072
-8.8068786e-07
0.0076683996
-8.2267006e-07
0.0076669915
-7.6848733e-07
0.0076656765
-7.1787637e-07
0.0076644483
-6.7059695e-07
0.0076633012
-6.2641689e-07
0.0076622299
-5.8513931e-07
0.0076612294
-5.465684e-07
0.0076602949
-5.1054624e-07
0.007659422
-4.7689433e-07
0.0076586068
-4.4548582e-07
0.0076578453
-4.1613759e-07
0.0076571341
-3.8875582e-07
0.0076564698
-3.6314881e-07
0.0076558492
-3.3926423e-07
0.0076552697
-3.1687972e-07
0.0076547283
-2.9604331e-07
0.0076542229
-2.7645945e-07
0.0076537506
-2.5827236e-07
0.0076533094
-2.4117194e-07
0.0076528971
-2.2548461e-07
0.0076525126
-2.1041883e-07
0.0076521529
-1.9666785e-07
0.0076518172
-1.8361038e-07
0.0076515028
-1.7205799e-07
0.0076512105
-1.604063e-07
0.0076509355
-1.5028645e-07
0.0076506807
-1.4040354e-07
0.0076504385
-1.320875e-07
0.0076502165
-1.2500198e-07
0.0076499999
-1.1933752e-07
-1.2571626e-07
0.0093061957
0.0082843931
0.0073298986
0.0064869553
0.0057695845
0.00518986
0.004738168
0.00439519
0.0041390268
0.003949107
0.003807888
0.0037013782
0.003619058
0.0035534117
0.0034992845
0.0034532444
0.0034130501
0.0033772574
0.0033449386
0.0033154893
0.0032885008
0.0032636805
0.003240805
0.0032196926
0.0032001879
0.0031821539
0.0031654672
0.0031500158
0.0031356979
0.0031224208
0.0031101003
0.0030986595
0.0030880291
0.0030781458
0.003068952
0.0030603955
0.0030524286
0.0030450076
0.0030380929
0.0030316478
0.0030256387
0.0030200349
0.0030148078
0.0030099313
0.0030053811
0.0030011347
0.0029971713
0.0029934717
0.002990018
0.0029867936
0.0029837829
0.0029809718
0.0029783467
0.0029758953
0.002973606
0.002971468
0.0029694711
0.0029676061
0.0029658642
0.0029642372
0.0029627175
0.0029612981
0.0029599722
0.0029587338
0.002957577
0.0029564965
0.0029554871
0.0029545443
0.0029536635
0.0029528408
0.0029520723
0.0029513545
0.0029506839
0.0029500575
0.0029494724
0.0029489259
0.0029484153
0.0029479384
0.0029474928
0.0029470767
0.0029466879
0.0029463248
0.0029459856
0.0029456687
0.0029453727
0.0029450963
0.002944838
0.0029445965
0.0029443711
0.002944161
0.0029439642
0.0029437802
0.0029436083
0.0029434482
0.002943298
0.0029431574
0.0029430253
0.0029429003
0.0029427809
)
;

boundaryField
{
    top
    {
        type            calculated;
        value           uniform 0;
    }
    inlet
    {
        type            calculated;
        value           nonuniform List<scalar> 10(-0.01 -0.01 -0.01 -0.01 -0.01 -0.01 -0.01 -0.01 -0.01 -0.01);
    }
    outlet
    {
        type            calculated;
        value           nonuniform List<scalar> 10(0.002942655 0.0076498149 0.011178072 0.01352789 0.014701568 0.014701568 0.01352789 0.011178072 0.0076498149 0.0029426552);
    }
    bottom
    {
        type            calculated;
        value           uniform 0;
    }
    back
    {
        type            empty;
        value           nonuniform 0();
    }
    front
    {
        type            empty;
        value           nonuniform 0();
    }
}


// ************************************************************************* //
