/*--------------------------------*- C++ -*----------------------------------*\
| =========                 |                                                 |
| \\      /  F ield         | OpenFOAM: The Open Source CFD Toolbox           |
|  \\    /   O peration     | Version:  v1812                                 |
|   \\  /    A nd           | Web:      www.OpenFOAM.com                      |
|    \\/     M anipulation  |                                                 |
\*---------------------------------------------------------------------------*/
FoamFile
{
    version     2.0;
    format      ascii;
    class       surfaceScalarField;
    location    "5.45";
    object      phi;
}
// * * * * * * * * * * * * * * * * * * * * * * * * * * * * * * * * * * * * * //

dimensions      [0 3 -1 0 0 0 0];
oriented        oriented;


internalField   nonuniform List<scalar> 
1890
(
0.0093061957
0.00069380425
0.0082843931
0.0010218027
0.0073298986
0.00095449449
0.0064869553
0.00084294334
0.0057695845
0.0007173708
0.00518986
0.00057972444
0.004738168
0.00045169205
0.00439519
0.00034297801
0.0041390268
0.00025616318
0.0039491069
0.00018991984
0.003807888
0.00014121897
0.0037013782
0.0001065098
0.0036190579
8.232022e-05
0.0035534117
6.5646241e-05
0.0034992845
5.4127247e-05
0.0034532444
4.6040038e-05
0.0034130501
4.0194276e-05
0.0033772574
3.5792732e-05
0.0033449387
3.2318722e-05
0.0033154895
2.9449226e-05
0.003288501
2.6988499e-05
0.0032636808
2.4820195e-05
0.0032408054
2.2875334e-05
0.0032196932
2.1112207e-05
0.0032001889
1.9504341e-05
0.0031821553
1.8033527e-05
0.0031654694
1.6685941e-05
0.0031500193
1.5450081e-05
0.0031357036
1.4315767e-05
0.00312243
1.3273681e-05
0.0031101148
1.2315196e-05
0.0030986826
1.1432286e-05
0.0030880653
1.0617522e-05
0.0030782014
9.8640184e-06
0.0030690362
9.1654428e-06
0.0030605206
8.51594e-06
0.0030526107
7.9101695e-06
0.0030452679
7.3432325e-06
0.0030384576
6.8107459e-06
0.0030321493
6.308767e-06
0.003026316
5.8339006e-06
0.0030209333
5.3832154e-06
0.0030159795
4.9543629e-06
0.0030114345
4.5454657e-06
0.0030072798
4.1552189e-06
0.0030034975
3.782742e-06
0.0030000702
3.4276465e-06
0.0029969807
3.0898597e-06
0.0029942113
2.7696503e-06
0.002991744
2.4674376e-06
0.0029895602
2.1837909e-06
0.0029876409
1.9192565e-06
0.0029859665
1.6743425e-06
0.0029845169
1.4493843e-06
0.0029832722
1.2445342e-06
0.0029822123
1.0596918e-06
0.0029813175
8.9450217e-07
0.0029805688
7.4834935e-07
0.0029799482
6.2036375e-07
0.0029794384
5.0947964e-07
0.0029790237
4.1443559e-07
0.0029786896
3.3387551e-07
0.002978423
2.6633079e-07
0.0029782125
2.1035118e-07
0.0029780478
1.6446099e-07
0.0029779204
1.2729345e-07
0.0029778228
9.7508939e-08
0.0029777488
7.3939575e-08
0.0029776933
5.5475653e-08
0.002977652
4.120407e-08
0.0029776217
3.027134e-08
0.0029775997
2.2020447e-08
0.0029775839
1.5837136e-08
0.0029775726
1.1284331e-08
0.0029775647
7.9422171e-09
0.0029775591
5.544701e-09
0.0029775553
3.8176406e-09
0.0029775528
2.6145091e-09
0.002977551
1.7595036e-09
0.0029775498
1.1845858e-09
0.0029775491
7.7829141e-10
0.0029775486
5.1846056e-10
0.0029775482
3.3159817e-10
0.002977548
2.2105733e-10
0.0029775479
1.3759286e-10
0.0029775478
9.5072279e-11
0.0029775478
5.8643808e-11
0.0029775477
4.4194578e-11
0.0029775477
3.1081125e-11
0.0029775477
2.9599208e-11
0.0029775476
3.5156898e-11
0.0029775476
4.845109e-11
0.0029775475
8.5324832e-11
0.0029775473
1.297203e-10
0.0029775472
2.2771713e-10
0.0029775469
3.630267e-10
0.0029775461
6.3299594e-10
0.0029775449
1.151437e-09
0.0029775427
2.2599101e-09
3.4732142e-09
0.010339525
0.00035427932
0.010570754
0.00079057335
0.010606301
0.00091894821
0.010547572
0.00090167138
0.010422317
0.00084262624
0.010244356
0.0007576856
0.01003942
0.00065662744
0.0098287426
0.00055365587
0.009625135
0.00045977084
0.0094353013
0.00037975354
0.0092624277
0.00031409259
0.0091075332
0.00026140426
0.0089701539
0.00021969948
0.0088489023
0.00018689785
0.0087419716
0.00016105799
0.0086474927
0.0001405189
0.0085636941
0.00012399287
0.008489011
0.00011047585
0.0084221101
9.9219626e-05
0.0083618783
8.9681024e-05
0.0083073967
8.1470094e-05
0.0082579099
7.430699e-05
0.008212796
6.7989227e-05
0.0081715401
6.2368109e-05
0.0081337122
5.7332232e-05
0.0080989496
5.2796075e-05
0.0080669433
4.8692204e-05
0.0080374274
4.4966032e-05
0.0080101708
4.1572313e-05
0.0079849717
3.8472803e-05
0.0079616522
3.5634639e-05
0.0079400553
3.302922e-05
0.0079200415
3.0631368e-05
0.0079014868
2.8418744e-05
0.007884281
2.6371348e-05
0.0078683258
2.4471218e-05
0.0078535339
2.2702131e-05
0.0078398278
2.1049517e-05
0.0078271384
1.9500287e-05
0.0078154045
1.8042878e-05
0.0078045714
1.6667159e-05
0.0077945903
1.5364543e-05
0.0077854169
1.4127885e-05
0.0077770109
1.2951597e-05
0.0077693348
1.1831467e-05
0.0077623529
1.076471e-05
0.0077560308
9.7497051e-06
0.0077503347
8.7859408e-06
0.0077452306
7.8736818e-06
0.007740684
7.0138355e-06
0.00773666
6.2075984e-06
0.0077331227
5.4562879e-06
0.0077300356
4.7610348e-06
0.007727362
4.1226294e-06
0.0077250648
3.5413263e-06
0.0077231074
3.016745e-06
0.0077214537
2.5478142e-06
0.0077200688
2.13274e-06
0.0077189197
1.7690872e-06
0.007717975
1.4538027e-06
0.0077172057
1.1833968e-06
0.0077165853
9.5398664e-07
0.0077160898
7.6153015e-07
0.0077156981
6.0185519e-07
0.0077153915
4.7089743e-07
0.0077151539
3.6468576e-07
0.0077149717
2.7955296e-07
0.0077148335
2.1207112e-07
0.0077147297
1.5922153e-07
0.0077146526
1.1828105e-07
0.0077145959
8.6957356e-08
0.0077145546
6.3242017e-08
0.007714525
4.5520382e-08
0.0077145038
3.2404218e-08
0.007714489
2.2834234e-08
0.0077144786
1.5906807e-08
0.0077144715
1.0976464e-08
0.0077144666
7.4815274e-09
0.0077144634
5.0589561e-09
0.0077144612
3.3724224e-09
0.0077144597
2.240126e-09
0.0077144588
1.4597604e-09
0.0077144582
9.5812315e-10
0.0077144578
6.0859724e-10
0.0077144576
4.026598e-10
0.0077144574
2.4836239e-10
0.0077144573
1.7530448e-10
0.0077144572
1.0467962e-10
0.0077144572
9.3699124e-11
0.0077144571
6.1902016e-11
0.0077144571
8.9399272e-11
0.007714457
9.3432993e-11
0.0077144569
1.7570292e-10
0.0077144568
2.5737052e-10
0.0077144567
4.3814888e-10
0.0077144563
6.9929297e-10
0.0077144558
1.1034521e-09
0.0077144551
1.9031582e-09
0.0077144545
2.9650816e-09
4.4091397e-09
0.010188704
0.00016557515
0.010530487
0.000448791
0.010851453
0.00059798178
0.011124174
0.00062895025
0.011350581
0.00061621887
0.011524486
0.00058378056
0.01164633
0.00053478421
0.011724155
0.0004758305
0.011767999
0.00041592667
0.011786639
0.00036111401
0.011787114
0.00031361713
0.011775058
0.00027346027
0.011754861
0.00023989719
0.011729768
0.00021199031
0.011702053
0.00018877259
0.011673239
0.00016933383
0.011644339
0.00015289287
0.011616003
0.00013881166
0.011588629
0.00012659351
0.011562446
0.000115864
0.011537572
0.00010634423
0.011514053
9.7825916e-05
0.01149189
9.0151711e-05
0.011471057
8.3200872e-05
0.011451511
7.6878878e-05
0.011433197
7.111001e-05
0.011416057
6.5832097e-05
0.01140003
6.0992883e-05
0.011385055
5.6547551e-05
0.011371071
5.2457033e-05
0.011358018
4.8686809e-05
0.011345842
4.5206061e-05
0.011334486
4.1987033e-05
0.0113239
3.9004554e-05
0.011314036
3.6235662e-05
0.011304848
3.3659327e-05
0.011296294
3.1256256e-05
0.011288335
2.9008772e-05
0.011280934
2.690077e-05
0.01127406
2.4917693e-05
0.011267681
2.3046589e-05
0.011261769
2.1276128e-05
0.011256301
1.959671e-05
0.011251252
1.8000428e-05
0.011246603
1.6481152e-05
0.011242333
1.5034379e-05
0.011238426
1.3657238e-05
0.011234863
1.2348204e-05
0.01123163
1.1106999e-05
0.011228709
9.9341957e-06
0.011226086
8.831047e-06
0.011223743
7.7990504e-06
0.011221664
6.8397534e-06
0.011219832
5.9543699e-06
0.011218229
5.1436237e-06
0.011216838
4.4074922e-06
0.01121564
3.7451357e-06
0.011214618
3.1548045e-06
0.011213753
2.6338623e-06
0.011213027
2.1788529e-06
0.011212425
1.785598e-06
0.011211929
1.4493753e-06
0.011211525
1.1650441e-06
0.011211199
9.2727501e-07
0.01121094
7.3065796e-07
0.011210734
5.6992647e-07
0.011210574
4.4001154e-07
0.011210449
3.3622401e-07
0.011210354
2.5424568e-07
0.011210282
1.9025694e-07
0.011210228
1.408706e-07
0.011210188
1.0321149e-07
0.011210159
7.4810873e-08
0.011210138
5.3655977e-08
0.011210123
3.8066315e-08
0.011210112
2.6725056e-08
0.011210104
1.8556637e-08
0.011210099
1.2753669e-08
0.011210095
8.6681704e-09
0.011210093
5.8350651e-09
0.011210091
3.8846198e-09
0.01121009
2.5638899e-09
0.011210089
1.6754847e-09
0.011210089
1.0876093e-09
0.011210089
7.028309e-10
0.011210089
4.5195226e-10
0.011210088
2.9624353e-10
0.011210088
1.9533223e-10
0.011210088
1.4233546e-10
0.011210088
1.1078711e-10
0.011210088
1.1203689e-10
0.011210088
1.3597892e-10
0.011210088
1.9820857e-10
0.011210088
3.2290457e-10
0.011210088
4.697705e-10
0.011210088
7.7102584e-10
0.011210088
1.0729608e-09
0.011210088
1.8021338e-09
0.011210089
2.5074944e-09
3.6122202e-09
0.010097182
6.8393556e-05
0.010346961
0.00019901112
0.010662469
0.00028247388
0.010982753
0.00030866649
0.011290229
0.00030874342
0.011575251
0.00029875789
0.011829022
0.00028101347
0.012047865
0.00025698757
0.012233272
0.00023051983
0.01238924
0.00020514592
0.012520295
0.00018256238
0.012630755
0.0001629996
0.012724428
0.00014622494
0.012804515
0.00013190315
0.012873613
0.00011967428
0.012933772
0.00010917462
0.012986596
0.00010006905
0.013033331
9.2076311e-05
0.01307495
8.4975136e-05
0.013112215
7.8598396e-05
0.013145738
7.2821928e-05
0.01317601
6.7553319e-05
0.013203439
6.2722933e-05
0.013228363
5.8277344e-05
0.013251067
5.4174603e-05
0.013271796
5.0380825e-05
0.01329076
4.6867775e-05
0.013308142
4.3611211e-05
0.0133241
4.05898e-05
0.013338772
3.77844e-05
0.013352281
3.5177578e-05
0.013364734
3.2753297e-05
0.013376224
3.0496669e-05
0.013386835
2.8393818e-05
0.013396639
2.6431724e-05
0.0134057
2.4598187e-05
0.013414075
2.2881709e-05
0.013421812
2.127158e-05
0.013428955
1.9757774e-05
0.013435542
1.8331119e-05
0.013441605
1.6983202e-05
0.013447175
1.5706615e-05
0.013452277
1.4494817e-05
0.013456935
1.3342418e-05
0.013461172
1.224496e-05
0.013465007
1.1199185e-05
0.013468461
1.020272e-05
0.013471555
9.2542909e-06
0.013474309
8.3533076e-06
0.013476743
7.5000084e-06
0.013478879
6.6949913e-06
0.013480739
5.9392909e-06
0.013482345
5.2339218e-06
0.013483719
4.5799063e-06
0.013484884
3.9779047e-06
0.013485864
3.4282285e-06
0.013486678
2.9306096e-06
0.013487348
2.4842145e-06
0.013487895
2.0875799e-06
0.013488335
1.7386376e-06
0.013488685
1.4348061e-06
0.013488962
1.1730049e-06
0.013489177
9.4986542e-07
0.013489342
7.6171463e-07
0.013489468
6.0485948e-07
0.013489563
4.7551043e-07
0.013489632
3.7009286e-07
0.013489684
2.8510091e-07
0.013489721
2.1741018e-07
0.013489747
1.6406065e-07
0.013489765
1.2255143e-07
0.013489778
9.0566121e-08
0.013489786
6.6260029e-08
0.013489792
4.7943657e-08
0.013489796
3.4357558e-08
0.013489798
2.4336282e-08
0.0134898
1.7087653e-08
0.013489801
1.1845996e-08
0.013489801
8.1581824e-09
0.013489802
5.533283e-09
0.013489802
3.7460346e-09
0.013489802
2.4835301e-09
0.013489802
1.6633391e-09
0.013489802
1.07559e-09
0.013489802
7.2278075e-10
0.013489802
4.5376693e-10
0.013489802
3.1930509e-10
0.013489802
1.9605624e-10
0.013489802
1.6024971e-10
0.013489802
1.0742058e-10
0.013489802
1.2095883e-10
0.013489802
1.2250285e-10
0.013489802
1.7968403e-10
0.013489802
2.5359294e-10
0.013489802
3.5766618e-10
0.013489803
5.2230202e-10
0.013489803
7.0316274e-10
0.013489804
1.0849324e-09
0.013489805
1.4333129e-09
2.0052208e-09
0.010068394
4.9171665e-13
0.010267405
1.6338419e-12
0.010549879
2.8333524e-12
0.010858545
4.2636365e-12
0.011167288
6.0457635e-12
0.011466046
8.3286667e-12
0.01174706
1.1181117e-11
0.012004047
1.4735643e-11
0.012234567
1.9060417e-11
0.012439713
2.4334939e-11
0.012622275
3.0643536e-11
0.012785275
3.8228143e-11
0.0129315
4.7168027e-11
0.013063403
5.7745415e-11
0.013183077
7.0027095e-11
0.013292252
8.4328725e-11
0.013392321
1.006041e-10
0.013484397
1.1914554e-10
0.013569372
1.3985278e-10
0.01364797
1.6298251e-10
0.013720792
1.8798034e-10
0.013788345
2.1469732e-10
0.013851068
2.4222179e-10
0.013909345
2.6997497e-10
0.013963519
2.9611175e-10
0.014013899
3.1917419e-10
0.014060767
3.3735016e-10
0.014104378
3.485431e-10
0.014144967
3.5129412e-10
0.014182751
3.430583e-10
0.014217928
3.2356333e-10
0.014250681
2.8891504e-10
0.014281177
2.4562083e-10
0.014309571
1.8516836e-10
0.014336002
1.2257838e-10
0.0143606
5.0700095e-11
0.014383482
-3.3336935e-11
0.014404754
-1.2387226e-10
0.014424512
-1.9871342e-10
0.014442843
-2.8548753e-10
0.014459827
-3.4696359e-10
0.014475534
-4.1974405e-10
0.014490029
-4.5902417e-10
0.014503372
-5.074179e-10
0.014515618
-5.1919536e-10
0.014526817
-5.4268022e-10
0.014537021
-5.3140852e-10
0.014546276
-5.313641e-10
0.01455463
-5.0169112e-10
0.01456213
-4.8717707e-10
0.014568826
-4.5229684e-10
0.014574765
-4.2957659e-10
0.01458
-3.9499633e-10
0.01458458
-3.720397e-10
0.014588558
-3.4563503e-10
0.014591987
-3.2487678e-10
0.014594918
-3.0479368e-10
0.014597403
-2.8354861e-10
0.014599491
-2.6808367e-10
0.01460123
-2.4474182e-10
0.014602665
-2.2923747e-10
0.014603838
-1.9900742e-10
0.014604788
-1.809486e-10
0.01460555
-1.4574429e-10
0.014606155
-1.2591318e-10
0.014606631
-8.5679322e-11
0.014607001
-6.5017995e-11
0.014607287
-2.6926673e-11
0.014607504
-1.1534176e-11
0.014607668
2.4899825e-11
0.014607791
3.6602265e-11
0.014607882
6.5114376e-11
0.014607948
6.5213898e-11
0.014607996
8.8041809e-11
0.01460803
8.1118753e-11
0.014608055
9.6054821e-11
0.014608072
8.1798011e-11
0.014608083
9.2984749e-11
0.014608091
7.5940396e-11
0.014608097
8.3236685e-11
0.014608101
6.3390509e-11
0.014608103
7.0988854e-11
0.014608105
5.219045e-11
0.014608106
5.8984681e-11
0.014608106
3.9996315e-11
0.014608107
4.9329703e-11
0.014608107
3.3757316e-11
0.014608107
4.5374153e-11
0.014608107
3.4387784e-11
0.014608108
5.2506052e-11
0.014608108
5.2302946e-11
0.014608108
7.9074182e-11
0.014608108
8.4638664e-11
0.014608108
1.1591784e-10
0.014608108
1.0841115e-10
0.014608109
1.1770776e-10
0.014608109
1.0283736e-10
0.01460811
9.183708e-11
0.014608112
9.1093565e-11
7.0738732e-11
0.010068394
-6.8393555e-05
0.010267405
-0.00019901112
0.010549879
-0.00028247387
0.010858545
-0.00030866648
0.011167288
-0.00030874341
0.011466046
-0.00029875788
0.01174706
-0.00028101345
0.012004047
-0.00025698754
0.012234567
-0.0002305198
0.012439713
-0.00020514587
0.012622275
-0.00018256232
0.012785275
-0.00016299953
0.0129315
-0.00014622485
0.013063403
-0.00013190304
0.013183077
-0.00011967415
0.013292252
-0.00010917446
0.013392321
-0.00010006886
0.013484397
-9.2076086e-05
0.013569372
-8.4974873e-05
0.01364797
-7.8598091e-05
0.013720792
-7.2821577e-05
0.013788345
-6.7552919e-05
0.013851068
-6.2722483e-05
0.013909345
-5.8276843e-05
0.013963519
-5.4174054e-05
0.0140139
-5.0380235e-05
0.014060767
-4.6867151e-05
0.014104378
-4.3610566e-05
0.014144967
-4.0589148e-05
0.014182751
-3.7783759e-05
0.014217929
-3.5176969e-05
0.014250681
-3.2752742e-05
0.014281178
-3.0496186e-05
0.014309571
-2.8393427e-05
0.014336003
-2.6431438e-05
0.014360601
-2.4598022e-05
0.014383482
-2.2881677e-05
0.014404754
-2.127169e-05
0.014424512
-1.9758014e-05
0.014442843
-1.8331496e-05
0.014459826
-1.6983693e-05
0.014475533
-1.5707224e-05
0.014490028
-1.4495509e-05
0.014503371
-1.3343195e-05
0.014515617
-1.2245784e-05
0.014526816
-1.120006e-05
0.01453702
-1.0203607e-05
0.014546274
-9.2551962e-06
0.014554628
-8.3541987e-06
0.014562129
-7.5008967e-06
0.014568824
-6.6958514e-06
0.014574764
-5.9401342e-06
0.014579999
-5.2347313e-06
0.014584579
-4.5806937e-06
0.014588557
-3.9786607e-06
0.014591986
-3.4289586e-06
0.014594917
-2.9313074e-06
0.014597402
-2.4848779e-06
0.01459949
-2.0882083e-06
0.014601229
-1.7392214e-06
0.014602664
-1.4353463e-06
0.014603837
-1.1734852e-06
0.014604788
-9.5029438e-07
0.01460555
-7.6207416e-07
0.014606155
-6.0516207e-07
0.014606631
-4.757367e-07
0.014607001
-3.7026422e-07
0.014607286
-2.8520135e-07
0.014607504
-2.1746473e-07
0.014607668
-1.6405185e-07
0.014607791
-1.2250936e-07
0.014607881
-9.0477592e-08
0.014607947
-6.615616e-08
0.014607995
-4.7807237e-08
0.01460803
-3.4221298e-08
0.014608054
-2.4182737e-08
0.014608071
-1.6945939e-08
0.014608083
-1.1694638e-08
0.014608091
-8.0261001e-09
0.014608097
-5.3985029e-09
0.014608101
-3.6335336e-09
0.014608103
-2.368139e-09
0.014608105
-1.5705279e-09
0.014608106
-9.8122301e-10
0.014608106
-6.491888e-10
0.014608107
-3.7479929e-10
0.014608107
-2.5544287e-10
0.014608107
-1.2547799e-10
0.014608107
-9.0203392e-11
0.014608108
-2.1518597e-11
0.014608108
-1.5512676e-11
0.014608108
9.8475253e-12
0.014608108
-1.7393652e-11
0.014608108
-5.8853062e-11
0.014608108
-1.5825431e-10
0.014608109
-3.1481331e-10
0.014608109
-5.104589e-10
0.01460811
-9.1681906e-10
0.014608112
-1.2681779e-09
-1.8814851e-09
0.010097182
-0.00016557515
0.010346961
-0.000448791
0.010662469
-0.00059798177
0.010982753
-0.00062895025
0.011290229
-0.00061621886
0.011575251
-0.00058378055
0.011829022
-0.00053478419
0.012047865
-0.00047583048
0.012233272
-0.00041592663
0.01238924
-0.00036111397
0.012520295
-0.00031361708
0.012630755
-0.00027346021
0.012724428
-0.00023989712
0.012804515
-0.00021199022
0.012873613
-0.00018877248
0.012933772
-0.0001693337
0.012986596
-0.00015289271
0.013033332
-0.00013881148
0.01307495
-0.0001265933
0.013112216
-0.00011586376
0.013145738
-0.00010634396
0.013176011
-9.7825607e-05
0.01320344
-9.0151367e-05
0.013228363
-8.3200493e-05
0.013251068
-7.6878467e-05
0.013271797
-7.1109571e-05
0.013290761
-6.5831638e-05
0.013308143
-6.0992411e-05
0.013324101
-5.6547082e-05
0.013338774
-5.2456573e-05
0.013352283
-4.8686379e-05
0.013364736
-4.5205666e-05
0.013376226
-4.1986701e-05
0.013386837
-3.9004278e-05
0.01339664
-3.6235476e-05
0.013405702
-3.3659211e-05
0.013414076
-3.1256252e-05
0.013421813
-2.9008844e-05
0.013428956
-2.6900963e-05
0.013435542
-2.4917953e-05
0.013441605
-2.3046969e-05
0.013447174
-2.1276561e-05
0.013452276
-1.9597251e-05
0.013456934
-1.8001001e-05
0.01346117
-1.6481817e-05
0.013465005
-1.5035056e-05
0.013468459
-1.3657986e-05
0.013471553
-1.2348948e-05
0.013474306
-1.1107792e-05
0.01347674
-9.9349738e-06
0.013478876
-8.8318532e-06
0.013480736
-7.7998352e-06
0.013482341
-6.8405477e-06
0.013483716
-5.9551409e-06
0.013484881
-5.144385e-06
0.013485861
-4.4082289e-06
0.013486675
-3.7458433e-06
0.013487346
-3.1554852e-06
0.013487892
-2.6344941e-06
0.013488332
-2.1794545e-06
0.013488683
-1.7861312e-06
0.013488959
-1.4498754e-06
0.013489175
-1.1654621e-06
0.01348934
-9.2765971e-07
0.013489466
-7.3095112e-07
0.013489561
-5.7019087e-07
0.013489631
-4.4018521e-07
0.013489682
-3.3637897e-07
0.013489719
-2.5431449e-07
0.013489745
-1.9031994e-07
0.013489764
-1.4085946e-07
0.013489777
-1.0320922e-07
0.013489786
-7.4745307e-08
0.013489791
-5.361338e-08
0.013489795
-3.7973392e-08
0.013489798
-2.6666107e-08
0.013489799
-1.8454003e-08
0.0134898
-1.2692286e-08
0.013489801
-8.5700158e-09
0.013489801
-5.7819786e-09
0.013489802
-3.7951722e-09
0.013489802
-2.5206312e-09
0.013489802
-1.5980866e-09
0.013489802
-1.0561934e-09
0.013489802
-6.3499242e-10
0.013489802
-4.2737624e-10
0.013489802
-2.3546068e-10
0.013489802
-1.687558e-10
0.013489802
-7.4881336e-11
0.013489802
-6.0743901e-11
0.013489802
-1.7716981e-11
0.013489802
-5.6499809e-11
0.013489802
-6.6207507e-11
0.013489802
-2.1246611e-10
0.013489802
-3.0809962e-10
0.013489803
-6.3270446e-10
0.013489803
-9.2820266e-10
0.013489804
-1.6966262e-09
0.013489805
-2.4009086e-09
-3.5202223e-09
0.010188704
-0.00035427932
0.010530487
-0.00079057335
0.010851453
-0.00091894821
0.011124174
-0.00090167137
0.011350581
-0.00084262623
0.011524486
-0.00075768558
0.01164633
-0.00065662743
0.011724155
-0.00055365585
0.011767999
-0.00045977081
0.011786639
-0.00037975352
0.011787114
-0.00031409256
0.011775058
-0.00026140422
0.011754861
-0.00021969943
0.011729768
-0.00018689779
0.011702054
-0.00016105792
0.011673239
-0.00014051881
0.011644339
-0.00012399278
0.011616003
-0.00011047574
0.011588629
-9.9219503e-05
0.011562446
-8.9680885e-05
0.011537572
-8.1469938e-05
0.011514054
-7.4306816e-05
0.011491891
-6.7989036e-05
0.011471059
-6.2367902e-05
0.011451512
-5.7332011e-05
0.011433198
-5.2795842e-05
0.011416058
-4.8691965e-05
0.011400032
-4.4965791e-05
0.011385057
-4.1572079e-05
0.011371072
-3.847258e-05
0.01135802
-3.5634438e-05
0.011345844
-3.3029047e-05
0.011334488
-3.0631235e-05
0.011323902
-2.8418652e-05
0.011314038
-2.6371312e-05
0.011304849
-2.4471233e-05
0.011296295
-2.2702215e-05
0.011288336
-2.1049658e-05
0.011280935
-1.95005e-05
0.01127406
-1.8043148e-05
0.01126768
-1.66675e-05
0.011261768
-1.5364931e-05
0.011256299
-1.4128338e-05
0.01125125
-1.2952086e-05
0.0112466
-1.1832008e-05
0.01124233
-1.0765272e-05
0.011238422
-9.7503034e-06
0.01123486
-8.7865461e-06
0.011231626
-7.8743067e-06
0.011228706
-7.014454e-06
0.011226082
-6.2082208e-06
0.011223739
-5.4568949e-06
0.01122166
-4.7616322e-06
0.011219828
-4.1232058e-06
0.011218225
-3.5418819e-06
0.011216834
-3.0172753e-06
0.011215636
-2.5483143e-06
0.011214614
-2.1332136e-06
0.011213749
-1.7695227e-06
0.011213024
-1.4542084e-06
0.011212421
-1.1837577e-06
0.011211926
-9.5431878e-07
0.011211522
-7.6181432e-07
0.011211197
-6.0210953e-07
0.011210937
-4.7110224e-07
0.011210732
-3.6486614e-07
0.011210571
-2.7968737e-07
0.011210447
-2.1218477e-07
0.011210352
-1.5929367e-07
0.011210281
-1.1834169e-07
0.011210227
-8.6984486e-08
0.011210187
-6.3263251e-08
0.011210158
-4.5514216e-08
0.011210137
-3.2401473e-08
0.011210122
-2.2811673e-08
0.011210111
-1.589119e-08
0.011210104
-1.0944401e-08
0.011210098
-7.462128e-09
0.011210095
-5.0271583e-09
0.011210093
-3.3531578e-09
0.011210091
-2.2084676e-09
0.01121009
-1.4433977e-09
0.011210089
-9.3112826e-10
0.011210089
-5.9510379e-10
0.011210089
-3.7729462e-10
0.011210089
-2.3761679e-10
0.011210088
-1.511563e-10
0.011210088
-8.8680164e-11
0.011210088
-5.6280835e-11
0.011210088
-2.7596531e-11
0.011210088
-3.4365662e-11
0.011210088
-4.7138668e-11
0.011210088
-1.1782759e-10
0.011210088
-2.1380898e-10
0.011210088
-3.6240855e-10
0.011210088
-6.0951474e-10
0.011210088
-1.0366572e-09
0.011210088
-1.874977e-09
0.011210089
-2.9251087e-09
-4.3588627e-09
0.010339525
-0.00069380425
0.010570754
-0.0010218027
0.010606301
-0.00095449449
0.010547572
-0.00084294334
0.010422317
-0.0007173708
0.010244356
-0.00057972443
0.010039421
-0.00045169204
0.0098287427
-0.000342978
0.009625135
-0.00025616317
0.0094353013
-0.00018991982
0.0092624277
-0.00014121896
0.0091075333
-0.00010650978
0.0089701541
-8.2320202e-05
0.0088489025
-6.5646221e-05
0.0087419718
-5.4127225e-05
0.008647493
-4.6040012e-05
0.0085636945
-4.0194248e-05
0.0084890114
-3.57927e-05
0.0084221106
-3.2318686e-05
0.0083618789
-2.9449186e-05
0.0083073974
-2.6988455e-05
0.0082579107
-2.4820145e-05
0.0082127969
-2.2875279e-05
0.0081715411
-2.1112147e-05
0.0081337133
-1.9504275e-05
0.0080989509
-1.8033457e-05
0.0080669447
-1.6685865e-05
0.0080374288
-1.5450003e-05
0.0080101723
-1.4315682e-05
0.0079849732
-1.3273598e-05
0.0079616538
-1.2315104e-05
0.0079400568
-1.1432198e-05
0.0079200429
-1.0617423e-05
0.007901488
-9.8639282e-06
0.007884282
-9.1653369e-06
0.0078683265
-8.5158463e-06
0.0078535344
-7.9100548e-06
0.0078398278
-7.3431376e-06
0.0078271381
-6.8106289e-06
0.0078154037
-6.308678e-06
0.0078045702
-5.8337888e-06
0.0077945886
-5.3831422e-06
0.0077854149
-4.9542736e-06
0.0077770085
-4.5454255e-06
0.007769332
-4.1551682e-06
0.0077623498
-3.7827464e-06
0.0077560275
-3.42765e-06
0.0077503312
-3.0899216e-06
0.0077452269
-2.7697171e-06
0.0077406802
-2.4675565e-06
0.0077366562
-2.1839192e-06
0.0077331189
-1.9194274e-06
0.0077300319
-1.6745246e-06
0.0077273584
-1.4495917e-06
0.0077250613
-1.2447517e-06
0.007723104
-1.0599175e-06
0.0077214504
-8.9473741e-07
0.0077200658
-7.4857313e-07
0.0077189169
-6.2059469e-07
0.0077179724
-5.0968286e-07
0.0077172033
-4.1464729e-07
0.0077165831
-3.3404586e-07
0.0077160878
-2.6650985e-07
0.0077156963
-2.104807e-07
0.0077153898
-1.6460359e-07
0.0077151524
-1.2738269e-07
0.0077149704
-9.7614087e-08
0.0077148323
-7.3991077e-08
0.0077147286
-5.5549399e-08
0.0077146517
-4.1226057e-08
0.007714595
-3.0319248e-08
0.007714554
-2.2019555e-08
0.0077145243
-1.5868007e-08
0.0077145034
-1.1269662e-08
0.0077144885
-7.9616235e-09
0.0077144783
-5.5213622e-09
0.0077144712
-3.8321604e-09
0.0077144664
-2.5882793e-09
0.0077144632
-1.7713e-09
0.0077144611
-1.1568782e-09
0.0077144596
-7.9063428e-10
0.0077144588
-4.9204652e-10
0.0077144581
-3.4440117e-10
0.0077144578
-1.9556861e-10
0.0077144576
-1.5177888e-10
0.0077144575
-7.1873367e-11
0.0077144573
-6.8662356e-11
0.0077144574
-1.6468771e-11
0.0077144573
-3.1318262e-11
0.0077144573
6.493255e-12
0.0077144572
-3.3107573e-11
0.0077144573
-2.6964105e-11
0.0077144571
-1.0476361e-10
0.007714457
-1.1410768e-10
0.0077144569
-2.1812197e-10
0.0077144565
-3.2766855e-10
0.007714456
-6.3527874e-10
0.0077144553
-1.1620175e-09
0.0077144547
-2.2526305e-09
-3.4587377e-09
0.0093061957
0.0082843931
0.0073298986
0.0064869553
0.0057695845
0.00518986
0.004738168
0.00439519
0.0041390268
0.003949107
0.003807888
0.0037013782
0.003619058
0.0035534118
0.0034992846
0.0034532446
0.0034130503
0.0033772576
0.0033449389
0.0033154897
0.0032885013
0.0032636811
0.0032408058
0.0032196937
0.0032001894
0.0031821559
0.00316547
0.00315002
0.0031357042
0.0031224306
0.0031101154
0.0030986832
0.0030880658
0.0030782019
0.0030690366
0.0030605208
0.0030526108
0.0030452679
0.0030384574
0.003032149
0.0030263154
0.0030209326
0.0030159786
0.0030114335
0.0030072786
0.0030034963
0.0030000689
0.0029969793
0.0029942098
0.0029917425
0.0029895588
0.0029876395
0.0029859651
0.0029845156
0.002983271
0.0029822111
0.0029813164
0.0029805678
0.0029799473
0.0029794376
0.002979023
0.0029786889
0.0029784224
0.0029782119
0.0029780474
0.00297792
0.0029778225
0.0029777485
0.002977693
0.0029776518
0.0029776216
0.0029775995
0.0029775838
0.0029775725
0.0029775646
0.0029775591
0.0029775553
0.0029775527
0.002977551
0.0029775498
0.0029775491
0.0029775486
0.0029775483
0.0029775481
0.0029775479
0.0029775478
0.0029775478
0.0029775478
0.0029775478
0.0029775478
0.0029775478
0.0029775477
0.0029775476
0.0029775474
0.0029775472
0.0029775468
0.0029775461
0.002977545
0.0029775428
)
;

boundaryField
{
    top
    {
        type            calculated;
        value           uniform 0;
    }
    inlet
    {
        type            calculated;
        value           nonuniform List<scalar> 10(-0.01 -0.01 -0.01 -0.01 -0.01 -0.01 -0.01 -0.01 -0.01 -0.01);
    }
    outlet
    {
        type            calculated;
        value           nonuniform List<scalar> 10(0.0029775393 0.0077144536 0.01121009 0.013489807 0.014608114 0.014608114 0.013489807 0.01121009 0.0077144538 0.0029775393);
    }
    bottom
    {
        type            calculated;
        value           uniform 0;
    }
    back
    {
        type            empty;
        value           nonuniform 0();
    }
    front
    {
        type            empty;
        value           nonuniform 0();
    }
}


// ************************************************************************* //
