/*--------------------------------*- C++ -*----------------------------------*\
| =========                 |                                                 |
| \\      /  F ield         | OpenFOAM: The Open Source CFD Toolbox           |
|  \\    /   O peration     | Version:  v1812                                 |
|   \\  /    A nd           | Web:      www.OpenFOAM.com                      |
|    \\/     M anipulation  |                                                 |
\*---------------------------------------------------------------------------*/
FoamFile
{
    version     2.0;
    format      ascii;
    class       volScalarField;
    location    "13";
    object      p;
}
// * * * * * * * * * * * * * * * * * * * * * * * * * * * * * * * * * * * * * //

dimensions      [0 2 -2 0 0 0 0];


internalField   nonuniform List<scalar> 
1000
(
1.5144986
1.4978203
1.4815261
1.4655073
1.4496686
1.4339496
1.4183156
1.4027473
1.3872325
1.3717621
1.3563281
1.3409243
1.325546
1.31019
1.2948538
1.2795354
1.2642332
1.2489456
1.2336715
1.2184096
1.203159
1.1879188
1.1726882
1.1574664
1.1422528
1.1270468
1.1118477
1.0966552
1.0814686
1.0662876
1.0511117
1.0359407
1.020774
1.0056115
0.99045273
0.97529752
0.96014558
0.94499668
0.92985058
0.91470709
0.899566
0.88442714
0.86929034
0.85415545
0.83902232
0.82389081
0.8087608
0.79363218
0.77850484
0.76337867
0.74825358
0.73312949
0.71800631
0.70288397
0.68776241
0.67264154
0.65752133
0.64240171
0.62728263
0.61216404
0.5970459
0.58192817
0.56681081
0.55169379
0.53657707
0.52146063
0.50634443
0.49122846
0.47611269
0.4609971
0.44588167
0.43076637
0.4156512
0.40053614
0.38542117
0.37030629
0.35519147
0.34007672
0.32496202
0.30984736
0.29473274
0.27961814
0.26450358
0.24938903
0.2342745
0.21915998
0.20404547
0.18893098
0.17381649
0.158702
0.14358752
0.12847304
0.11335856
0.098244083
0.083129608
0.068015134
0.05290066
0.037786186
0.022671713
0.0075572381
1.5141754
1.4974633
1.4814064
1.4655839
1.4498081
1.4340734
1.4184098
1.402823
1.3872993
1.3718223
1.3563814
1.3409704
1.3255858
1.3102248
1.2948846
1.279563
1.2642581
1.2489681
1.2336919
1.2184282
1.203176
1.1879344
1.1727025
1.1574796
1.1422649
1.1270579
1.111858
1.0966646
1.0814773
1.0662956
1.0511191
1.0359474
1.0207802
1.0056172
0.99045801
0.97530238
0.96015005
0.94500079
0.92985435
0.91471055
0.89956917
0.88443005
0.869293
0.85415788
0.83902454
0.82389284
0.80876266
0.79363387
0.77850637
0.76338006
0.74825484
0.73313063
0.71800734
0.70288491
0.68776325
0.6726423
0.65752201
0.64240231
0.62728317
0.61216452
0.59704632
0.58192854
0.56681114
0.55169408
0.53657732
0.52146085
0.50634462
0.49122863
0.47611283
0.46099722
0.44588177
0.43076646
0.41565127
0.4005362
0.38542122
0.37030633
0.3551915
0.34007674
0.32496204
0.30984737
0.29473275
0.27961815
0.26450358
0.24938903
0.2342745
0.21915998
0.20404548
0.18893098
0.17381649
0.158702
0.14358752
0.12847304
0.11335856
0.098244083
0.083129608
0.068015134
0.05290066
0.037786187
0.022671714
0.0075572387
1.5136024
1.4967501
1.4810153
1.4655331
1.4499151
1.4341911
1.4184908
1.4028777
1.3873462
1.3718688
1.3564258
1.3410097
1.3256193
1.3102532
1.2949094
1.2795851
1.2642778
1.2489859
1.2337079
1.2184426
1.2031891
1.1879463
1.1727133
1.1574895
1.142274
1.1270662
1.1118656
1.0966716
1.0814837
1.0663015
1.0511245
1.0359524
1.0207849
1.0056214
0.99046191
0.97530597
0.96015335
0.94500382
0.92985715
0.91471311
0.89957153
0.88443221
0.86929499
0.8541597
0.83902621
0.82389437
0.80876405
0.79363515
0.77850754
0.76338112
0.74825581
0.73313151
0.71800815
0.70288563
0.6877639
0.6726429
0.65752255
0.6424028
0.6272836
0.61216491
0.59704667
0.58192886
0.56681142
0.55169432
0.53657754
0.52146104
0.50634479
0.49122877
0.47611296
0.46099733
0.44588186
0.43076654
0.41565134
0.40053626
0.38542127
0.37030637
0.35519154
0.34007677
0.32496206
0.30984739
0.29473276
0.27961816
0.26450359
0.24938904
0.23427451
0.21915999
0.20404548
0.18893098
0.17381649
0.158702
0.14358752
0.12847304
0.11335856
0.098244083
0.083129609
0.068015134
0.052900661
0.037786188
0.022671714
0.0075572393
1.513042
1.4959945
1.4805327
1.4654056
1.4499865
1.4343002
1.4185697
1.4029291
1.3873902
1.371915
1.3564726
1.3410528
1.3256564
1.3102849
1.2949369
1.2796095
1.2642997
1.2490055
1.2337254
1.2184584
1.2032033
1.1879592
1.1727251
1.1575002
1.1422838
1.1270752
1.1118739
1.0966792
1.0814907
1.066308
1.0511305
1.0359579
1.0207899
1.0056261
0.99046624
0.97530997
0.96015704
0.94500723
0.92986029
0.91471602
0.89957421
0.88443468
0.86929727
0.8541618
0.83902814
0.82389615
0.80876569
0.79363665
0.77850892
0.76338239
0.74825698
0.73313258
0.71800912
0.70288653
0.68776472
0.67264364
0.65752322
0.64240342
0.62728416
0.61216542
0.59704714
0.58192927
0.56681179
0.55169466
0.53657785
0.52146131
0.50634504
0.49122899
0.47611315
0.4609975
0.44588201
0.43076667
0.41565146
0.40053636
0.38542136
0.37030644
0.3551916
0.34007682
0.3249621
0.30984743
0.29473279
0.27961819
0.26450361
0.24938906
0.23427452
0.21916
0.20404549
0.18893099
0.17381649
0.158702
0.14358752
0.12847304
0.11335856
0.098244085
0.08312961
0.068015136
0.052900662
0.037786189
0.022671715
0.0075572399
1.5127087
1.4955272
1.4802143
1.4653056
1.4500213
1.4343675
1.4186208
1.4029623
1.3874184
1.3719453
1.3565043
1.3410827
1.3256827
1.3103076
1.2949568
1.2796273
1.2643158
1.24902
1.2337386
1.2184703
1.2032141
1.1879691
1.1727341
1.1575085
1.1422914
1.1270822
1.1118803
1.0966851
1.0814962
1.066313
1.0511351
1.0359622
1.0207939
1.0056298
0.99046964
0.97531311
0.96015995
0.94500992
0.92986278
0.91471832
0.89957634
0.88443665
0.86929908
0.85416348
0.83902969
0.82389757
0.80876701
0.79363786
0.77851004
0.76338342
0.74825792
0.73313345
0.71800992
0.70288726
0.68776539
0.67264425
0.65752379
0.64240393
0.62728463
0.61216585
0.59704752
0.58192963
0.56681212
0.55169495
0.53657811
0.52146155
0.50634525
0.49122918
0.47611333
0.46099765
0.44588215
0.43076679
0.41565156
0.40053645
0.38542144
0.37030651
0.35519166
0.34007688
0.32496215
0.30984746
0.29473282
0.27961821
0.26450363
0.24938907
0.23427453
0.21916001
0.2040455
0.18893099
0.1738165
0.15870201
0.14358752
0.12847304
0.11335856
0.098244086
0.083129611
0.068015137
0.052900663
0.03778619
0.022671716
0.0075572404
1.5127087
1.4955272
1.4802142
1.4653056
1.4500213
1.4343675
1.4186208
1.4029622
1.3874184
1.3719453
1.3565043
1.3410827
1.3256827
1.3103076
1.2949568
1.2796273
1.2643158
1.24902
1.2337386
1.2184703
1.2032141
1.1879691
1.1727341
1.1575085
1.1422914
1.1270822
1.1118803
1.0966851
1.0814962
1.066313
1.0511351
1.0359622
1.0207939
1.0056298
0.99046964
0.97531311
0.96015995
0.94500992
0.92986278
0.91471832
0.89957633
0.88443665
0.86929908
0.85416348
0.83902969
0.82389757
0.808767
0.79363786
0.77851004
0.76338342
0.74825792
0.73313345
0.71800992
0.70288726
0.68776539
0.67264425
0.65752379
0.64240393
0.62728463
0.61216585
0.59704752
0.58192963
0.56681212
0.55169495
0.53657811
0.52146155
0.50634525
0.49122918
0.47611333
0.46099765
0.44588215
0.43076679
0.41565156
0.40053645
0.38542144
0.37030651
0.35519166
0.34007688
0.32496215
0.30984747
0.29473282
0.27961821
0.26450363
0.24938907
0.23427453
0.21916001
0.2040455
0.18893099
0.1738165
0.15870201
0.14358752
0.12847304
0.11335856
0.098244087
0.083129611
0.068015137
0.052900663
0.03778619
0.022671717
0.0075572407
1.513042
1.4959945
1.4805327
1.4654056
1.4499865
1.4343002
1.4185697
1.4029291
1.3873902
1.371915
1.3564726
1.3410528
1.3256564
1.3102849
1.2949369
1.2796095
1.2642997
1.2490055
1.2337254
1.2184584
1.2032033
1.1879592
1.1727251
1.1575002
1.1422838
1.1270752
1.1118739
1.0966792
1.0814907
1.066308
1.0511305
1.0359579
1.0207899
1.0056261
0.99046624
0.97530996
0.96015704
0.94500723
0.92986029
0.91471601
0.89957421
0.88443468
0.86929726
0.8541618
0.83902814
0.82389614
0.80876569
0.79363665
0.77850892
0.76338239
0.74825697
0.73313258
0.71800912
0.70288652
0.68776472
0.67264364
0.65752322
0.64240342
0.62728416
0.61216542
0.59704714
0.58192927
0.56681179
0.55169466
0.53657785
0.52146131
0.50634504
0.49122899
0.47611315
0.4609975
0.44588201
0.43076667
0.41565146
0.40053636
0.38542136
0.37030644
0.3551916
0.34007683
0.3249621
0.30984743
0.29473279
0.27961819
0.26450361
0.24938906
0.23427452
0.21916
0.20404549
0.18893099
0.17381649
0.15870201
0.14358752
0.12847304
0.11335856
0.098244085
0.08312961
0.068015136
0.052900662
0.03778619
0.022671717
0.0075572405
1.5136024
1.4967501
1.4810153
1.4655331
1.449915
1.4341911
1.4184907
1.4028776
1.3873462
1.3718688
1.3564257
1.3410097
1.3256193
1.3102532
1.2949094
1.2795851
1.2642778
1.2489859
1.2337079
1.2184426
1.2031891
1.1879463
1.1727133
1.1574895
1.142274
1.1270662
1.1118656
1.0966716
1.0814837
1.0663015
1.0511245
1.0359524
1.0207848
1.0056214
0.99046191
0.97530597
0.96015335
0.94500382
0.92985714
0.91471311
0.89957153
0.88443221
0.86929499
0.8541597
0.83902621
0.82389436
0.80876405
0.79363514
0.77850753
0.76338112
0.74825581
0.73313151
0.71800814
0.70288563
0.6877639
0.67264289
0.65752254
0.6424028
0.6272836
0.61216491
0.59704667
0.58192886
0.56681142
0.55169432
0.53657754
0.52146104
0.50634479
0.49122877
0.47611296
0.46099733
0.44588186
0.43076654
0.41565134
0.40053626
0.38542127
0.37030637
0.35519154
0.34007677
0.32496206
0.30984739
0.29473276
0.27961816
0.26450359
0.24938904
0.23427451
0.21915999
0.20404548
0.18893098
0.17381649
0.158702
0.14358752
0.12847304
0.11335856
0.098244084
0.083129609
0.068015135
0.052900661
0.037786188
0.022671716
0.0075572399
1.5141754
1.4974633
1.4814064
1.4655839
1.4498081
1.4340733
1.4184097
1.402823
1.3872993
1.3718223
1.3563814
1.3409704
1.3255858
1.3102248
1.2948846
1.279563
1.2642581
1.2489682
1.2336919
1.2184282
1.203176
1.1879344
1.1727025
1.1574796
1.1422649
1.1270579
1.111858
1.0966646
1.0814773
1.0662956
1.0511191
1.0359474
1.0207802
1.0056172
0.99045801
0.97530238
0.96015005
0.94500078
0.92985435
0.91471054
0.89956917
0.88443004
0.869293
0.85415788
0.83902454
0.82389284
0.80876265
0.79363387
0.77850637
0.76338006
0.74825484
0.73313063
0.71800734
0.7028849
0.68776325
0.6726423
0.65752201
0.64240231
0.62728317
0.61216452
0.59704632
0.58192854
0.56681114
0.55169408
0.53657732
0.52146085
0.50634462
0.49122863
0.47611283
0.46099722
0.44588177
0.43076646
0.41565127
0.4005362
0.38542122
0.37030633
0.3551915
0.34007674
0.32496204
0.30984737
0.29473275
0.27961815
0.26450358
0.24938903
0.2342745
0.21915998
0.20404548
0.18893098
0.17381649
0.158702
0.14358752
0.12847304
0.11335856
0.098244084
0.083129609
0.068015134
0.052900661
0.037786187
0.022671714
0.0075572391
1.5144986
1.4978203
1.4815261
1.4655073
1.4496686
1.4339496
1.4183156
1.4027472
1.3872325
1.3717621
1.3563281
1.3409243
1.325546
1.31019
1.2948538
1.2795354
1.2642332
1.2489456
1.2336715
1.2184096
1.203159
1.1879188
1.1726882
1.1574664
1.1422528
1.1270468
1.1118478
1.0966552
1.0814686
1.0662876
1.0511117
1.0359407
1.020774
1.0056115
0.99045272
0.97529752
0.96014558
0.94499668
0.92985058
0.91470708
0.899566
0.88442714
0.86929034
0.85415544
0.83902231
0.82389081
0.8087608
0.79363218
0.77850483
0.76337866
0.74825358
0.73312949
0.71800631
0.70288397
0.6877624
0.67264154
0.65752133
0.64240171
0.62728263
0.61216404
0.5970459
0.58192817
0.56681081
0.55169379
0.53657707
0.52146063
0.50634443
0.49122846
0.47611269
0.4609971
0.44588167
0.43076637
0.4156512
0.40053614
0.38542117
0.37030629
0.35519147
0.34007672
0.32496202
0.30984736
0.29473274
0.27961814
0.26450358
0.24938903
0.2342745
0.21915998
0.20404548
0.18893098
0.17381649
0.158702
0.14358752
0.12847304
0.11335856
0.098244083
0.083129608
0.068015134
0.05290066
0.037786187
0.022671713
0.0075572383
)
;

boundaryField
{
    top
    {
        type            zeroGradient;
    }
    inlet
    {
        type            fixedValue;
        value           uniform 1.523;
    }
    outlet
    {
        type            fixedValue;
        value           uniform 0;
    }
    bottom
    {
        type            zeroGradient;
    }
    back
    {
        type            empty;
    }
    front
    {
        type            empty;
    }
}


// ************************************************************************* //
