/*--------------------------------*- C++ -*----------------------------------*\
| =========                 |                                                 |
| \\      /  F ield         | OpenFOAM: The Open Source CFD Toolbox           |
|  \\    /   O peration     | Version:  v1812                                 |
|   \\  /    A nd           | Web:      www.OpenFOAM.com                      |
|    \\/     M anipulation  |                                                 |
\*---------------------------------------------------------------------------*/
FoamFile
{
    version     2.0;
    format      ascii;
    class       volVectorField;
    location    "13";
    object      U;
}
// * * * * * * * * * * * * * * * * * * * * * * * * * * * * * * * * * * * * * //

dimensions      [0 1 -1 0 0 0 0];


internalField   nonuniform List<vector> 
1000
(
(0.29995155 0.00020934666 0)
(0.29950151 0.00061338675 0)
(0.29849456 0.0006774418 0)
(0.2974763 0.00052210039 0)
(0.29665329 0.00034446782 0)
(0.29602222 0.00023023123 0)
(0.29552175 0.00017272912 0)
(0.2951031 0.00014185422 0)
(0.29474185 0.00011922476 0)
(0.29442778 0.00010000995 0)
(0.29415458 8.4625987e-05 0)
(0.29391578 7.3327727e-05 0)
(0.29370487 6.5201146e-05 0)
(0.29351641 5.8990203e-05 0)
(0.29334647 5.3802966e-05 0)
(0.2931923 4.9225761e-05 0)
(0.29305192 4.5124719e-05 0)
(0.29292374 4.1448597e-05 0)
(0.29280639 3.8144555e-05 0)
(0.29269874 3.5153077e-05 0)
(0.29259979 3.2423907e-05 0)
(0.29250872 2.9921971e-05 0)
(0.29242483 2.7623753e-05 0)
(0.29234748 2.5510749e-05 0)
(0.29227613 2.3566397e-05 0)
(0.29221027 2.1774998e-05 0)
(0.29214946 2.0122486e-05 0)
(0.2920933 1.8596254e-05 0)
(0.29204143 1.7185422e-05 0)
(0.29199352 1.5880161e-05 0)
(0.29194926 1.4671844e-05 0)
(0.29190839 1.3552516e-05 0)
(0.29187065 1.2515191e-05 0)
(0.29183581 1.1553392e-05 0)
(0.29180365 1.0661438e-05 0)
(0.29177399 9.8340007e-06 0)
(0.29174664 9.0664011e-06 0)
(0.29172143 8.3541979e-06 0)
(0.29169821 7.6934885e-06 0)
(0.29167682 7.0805261e-06 0)
(0.29165715 6.5120225e-06 0)
(0.29163906 5.9847904e-06 0)
(0.29162244 5.4960348e-06 0)
(0.29160718 5.0430186e-06 0)
(0.29159318 4.6233479e-06 0)
(0.29158035 4.2346596e-06 0)
(0.2915686 3.8748907e-06 0)
(0.29155786 3.541987e-06 0)
(0.29154803 3.2341617e-06 0)
(0.29153907 2.9496241e-06 0)
(0.29153089 2.6868216e-06 0)
(0.29152344 2.4441866e-06 0)
(0.29151667 2.2203675e-06 0)
(0.29151052 2.0139927e-06 0)
(0.29150494 1.8238862e-06 0)
(0.29149989 1.6488477e-06 0)
(0.29149533 1.487857e-06 0)
(0.29149121 1.3398693e-06 0)
(0.29148751 1.2040046e-06 0)
(0.29148417 1.0793568e-06 0)
(0.29148119 9.6517252e-07 0)
(0.29147852 8.6067252e-07 0)
(0.29147614 7.6521635e-07 0)
(0.29147403 6.7813564e-07 0)
(0.29147215 5.9888753e-07 0)
(0.2914705 5.2689941e-07 0)
(0.29146904 4.6170892e-07 0)
(0.29146777 4.0281935e-07 0)
(0.29146666 3.4982999e-07 0)
(0.29146569 3.023024e-07 0)
(0.29146486 2.5988002e-07 0)
(0.29146414 2.2216461e-07 0)
(0.29146353 1.8882897e-07 0)
(0.29146301 1.5950388e-07 0)
(0.29146257 1.3388309e-07 0)
(0.2914622 1.1161903e-07 0)
(0.2914619 9.2423389e-08 0)
(0.29146164 7.5971084e-08 0)
(0.29146144 6.1995048e-08 0)
(0.29146127 5.0195817e-08 0)
(0.29146113 4.0333053e-08 0)
(0.29146102 3.2139809e-08 0)
(0.29146093 2.5409407e-08 0)
(0.29146086 1.9911519e-08 0)
(0.29146081 1.5477126e-08 0)
(0.29146077 1.1915868e-08 0)
(0.29146074 9.0980407e-09 0)
(0.29146071 6.8711412e-09 0)
(0.29146069 5.1420236e-09 0)
(0.29146068 3.794579e-09 0)
(0.29146067 2.7666715e-09 0)
(0.29146066 1.973489e-09 0)
(0.29146066 1.3717046e-09 0)
(0.29146065 9.0546865e-10 0)
(0.29146065 5.2713792e-10 0)
(0.29146065 2.2219326e-10 0)
(0.29146065 -9.5218002e-11 0)
(0.29146065 -3.5088749e-10 0)
(0.29146065 -8.976292e-10 0)
(0.29146065 -9.9105795e-10 0)
(0.74151932 0.00023877696 0)
(0.74192459 0.0010458191 0)
(0.74131417 0.0014714306 0)
(0.74046627 0.001447019 0)
(0.73971957 0.0012175265 0)
(0.73908782 0.00098746662 0)
(0.73851029 0.00082333087 0)
(0.73795858 0.00071038905 0)
(0.73743616 0.00062117618 0)
(0.73695357 0.00054274398 0)
(0.73651508 0.00047399423 0)
(0.73611838 0.0004164246 0)
(0.73575842 0.00036958771 0)
(0.73543042 0.00033127743 0)
(0.7351307 0.00029909195 0)
(0.73485639 0.00027132955 0)
(0.73460502 0.0002470077 0)
(0.73437437 0.00022553968 0)
(0.73416239 0.00020648352 0)
(0.73396729 0.00018945499 0)
(0.7337875 0.00017412903 0)
(0.73362169 0.00016024951 0)
(0.73346865 0.00014762158 0)
(0.73332732 0.00013609348 0)
(0.73319676 0.00012554125 0)
(0.73307609 0.00011585975 0)
(0.73296456 0.00010695891 0)
(0.73286146 9.876134e-05 0)
(0.73276614 9.1200492e-05 0)
(0.73267804 8.4218516e-05 0)
(0.73259661 7.776477e-05 0)
(0.73252136 7.1794354e-05 0)
(0.73245185 6.6267408e-05 0)
(0.73238766 6.1148198e-05 0)
(0.7323284 5.6404732e-05 0)
(0.73227371 5.2008054e-05 0)
(0.73222327 4.7932028e-05 0)
(0.73217677 4.4152795e-05 0)
(0.73213393 4.064867e-05 0)
(0.73209448 3.7399712e-05 0)
(0.73205817 3.4387705e-05 0)
(0.73202479 3.15958e-05 0)
(0.73199411 2.9008542e-05 0)
(0.73196595 2.6611561e-05 0)
(0.73194011 2.4391634e-05 0)
(0.73191642 2.2336422e-05 0)
(0.73189473 2.0434539e-05 0)
(0.73187489 1.8675326e-05 0)
(0.73185676 1.7048926e-05 0)
(0.7318402 1.5546092e-05 0)
(0.73182511 1.4158264e-05 0)
(0.73181136 1.2877389e-05 0)
(0.73179885 1.1696013e-05 0)
(0.7317875 1.0607118e-05 0)
(0.7317772 9.6042096e-06 0)
(0.73176788 8.6811704e-06 0)
(0.73175945 7.8323501e-06 0)
(0.73175184 7.0524336e-06 0)
(0.731745 6.3365271e-06 0)
(0.73173885 5.6800339e-06 0)
(0.73173333 5.0787392e-06 0)
(0.7317284 4.5286961e-06 0)
(0.73172401 4.0263001e-06 0)
(0.7317201 3.5681784e-06 0)
(0.73171664 3.1512579e-06 0)
(0.73171358 2.7726604e-06 0)
(0.73171089 2.4297591e-06 0)
(0.73170853 2.1200754e-06 0)
(0.73170647 1.8413305e-06 0)
(0.73170468 1.5913511e-06 0)
(0.73170313 1.3681141e-06 0)
(0.7317018 1.1696604e-06 0)
(0.73170066 9.9414154e-07 0)
(0.7316997 8.3974737e-07 0)
(0.73169888 7.0475451e-07 0)
(0.73169819 5.8746379e-07 0)
(0.73169762 4.8625568e-07 0)
(0.73169715 3.9954007e-07 0)
(0.73169676 3.2581345e-07 0)
(0.73169644 2.6361324e-07 0)
(0.73169619 2.1157844e-07 0)
(0.73169598 1.6840721e-07 0)
(0.73169582 1.3291525e-07 0)
(0.73169569 1.0398804e-07 0)
(0.73169558 8.0639554e-08 0)
(0.73169551 6.1959669e-08 0)
(0.73169545 4.7168985e-08 0)
(0.7316954 3.5558062e-08 0)
(0.73169537 2.653999e-08 0)
(0.73169534 1.9593309e-08 0)
(0.73169532 1.4294584e-08 0)
(0.73169531 1.0287975e-08 0)
(0.7316953 7.2597436e-09 0)
(0.73169529 5.0058535e-09 0)
(0.73169528 3.2456952e-09 0)
(0.73169528 1.9532395e-09 0)
(0.73169528 7.6065887e-10 0)
(0.73169528 -4.3633983e-11 0)
(0.73169528 -1.2538296e-09 0)
(0.73169528 -1.761863e-09 0)
(1.0472834 0.00018893623 0)
(1.0484329 0.00097143015 0)
(1.0484235 0.0015216889 0)
(1.0481625 0.0016620482 0)
(1.0480507 0.0015472104 0)
(1.048061 0.001371668 0)
(1.0480686 0.0012281698 0)
(1.0480148 0.0011217613 0)
(1.0479087 0.0010304648 0)
(1.0477792 0.00094140709 0)
(1.0476458 0.00085473385 0)
(1.0475146 0.00077488695 0)
(1.0473857 0.00070428293 0)
(1.0472588 0.00064246125 0)
(1.0471349 0.00058775868 0)
(1.0470152 0.00053871174 0)
(1.0469009 0.00049442474 0)
(1.0467923 0.00045435659 0)
(1.0466896 0.00041806782 0)
(1.0465927 0.00038512644 0)
(1.0465014 0.00035512312 0)
(1.0464157 0.00032770372 0)
(1.0463352 0.00030257682 0)
(1.0462599 0.0002795021 0)
(1.0461895 0.00025827508 0)
(1.0461238 0.00023871755 0)
(1.0460625 0.00022067286 0)
(1.0460054 0.0002040035 0)
(1.0459522 0.00018858857 0)
(1.0459027 0.0001743215 0)
(1.0458567 0.00016110747 0)
(1.045814 0.00014886176 0)
(1.0457743 0.00013750816 0)
(1.0457376 0.00012697798 0)
(1.0457035 0.00011720894 0)
(1.045672 0.00010814451 0)
(1.0456428 9.9733086e-05 0)
(1.0456158 9.1927505e-05 0)
(1.0455909 8.4684447e-05 0)
(1.0455679 7.7964126e-05 0)
(1.0455467 7.1729804e-05 0)
(1.0455271 6.594761e-05 0)
(1.0455091 6.0586142e-05 0)
(1.0454925 5.5616347e-05 0)
(1.0454772 5.1011205e-05 0)
(1.0454632 4.6745659e-05 0)
(1.0454503 4.2796344e-05 0)
(1.0454385 3.9141549e-05 0)
(1.0454277 3.5760989e-05 0)
(1.0454178 3.2635791e-05 0)
(1.0454088 2.9748298e-05 0)
(1.0454005 2.7082058e-05 0)
(1.045393 2.4621662e-05 0)
(1.0453861 2.2352758e-05 0)
(1.0453799 2.0261901e-05 0)
(1.0453742 1.8336569e-05 0)
(1.0453691 1.6565037e-05 0)
(1.0453644 1.4936404e-05 0)
(1.0453602 1.3440482e-05 0)
(1.0453564 1.2067819e-05 0)
(1.045353 1.0809606e-05 0)
(1.0453499 9.6577009e-06 0)
(1.0453472 8.6045349e-06 0)
(1.0453447 7.6431335e-06 0)
(1.0453425 6.7670267e-06 0)
(1.0453406 5.9702602e-06 0)
(1.0453388 5.2473042e-06 0)
(1.0453373 4.5930535e-06 0)
(1.0453359 4.002739e-06 0)
(1.0453348 3.4719231e-06 0)
(1.0453337 2.9964145e-06 0)
(1.0453328 2.5722622e-06 0)
(1.0453321 2.1956838e-06 0)
(1.0453314 1.8630685e-06 0)
(1.0453308 1.5709199e-06 0)
(1.0453303 1.3158695e-06 0)
(1.0453299 1.094641e-06 0)
(1.0453296 9.040772e-07 0)
(1.0453293 7.4111951e-07 0)
(1.0453291 6.0284123e-07 0)
(1.0453289 4.8644244e-07 0)
(1.0453287 3.8928318e-07 0)
(1.0453286 3.0888458e-07 0)
(1.0453285 2.4295175e-07 0)
(1.0453284 1.8937949e-07 0)
(1.0453283 1.4626199e-07 0)
(1.0453283 1.1189478e-07 0)
(1.0453282 8.4771481e-08 0)
(1.0453282 6.357619e-08 0)
(1.0453282 4.7185123e-08 0)
(1.0453282 3.4622718e-08 0)
(1.0453282 2.5109049e-08 0)
(1.0453281 1.7922431e-08 0)
(1.0453281 1.2586519e-08 0)
(1.0453281 8.5339565e-09 0)
(1.0453281 5.5797453e-09 0)
(1.0453281 3.1874152e-09 0)
(1.0453281 1.4674247e-09 0)
(1.0453281 -1.313634e-10 0)
(1.0453281 -1.089963e-09 0)
(1.2382626 0.00011723308 0)
(1.2398715 0.00065524705 0)
(1.2402108 0.001081138 0)
(1.2403023 0.0012349049 0)
(1.2406306 0.0011932871 0)
(1.2411584 0.0010904188 0)
(1.2417031 0.001001743 0)
(1.2421623 0.00093737681 0)
(1.2425318 0.00088212516 0)
(1.2428449 0.00082521808 0)
(1.243127 0.00076618854 0)
(1.2433863 0.00070893036 0)
(1.2436224 0.00065623072 0)
(1.2438349 0.00060850488 0)
(1.2440256 0.00056494185 0)
(1.2441974 0.00052470423 0)
(1.2443532 0.00048733297 0)
(1.244495 0.00045262429 0)
(1.2446243 0.00042042708 0)
(1.2447424 0.00039055951 0)
(1.2448502 0.00036282078 0)
(1.244949 0.00033702462 0)
(1.2450394 0.00031301283 0)
(1.2451224 0.00029065186 0)
(1.2451986 0.0002698234 0)
(1.2452687 0.00025041938 0)
(1.2453331 0.00023233959 0)
(1.2453923 0.00021549209 0)
(1.2454469 0.0001997922 0)
(1.2454971 0.00018516236 0)
(1.2455434 0.00017153067 0)
(1.245586 0.00015883077 0)
(1.2456253 0.00014700068 0)
(1.2456614 0.00013598305 0)
(1.2456947 0.00012572419 0)
(1.2457254 0.00011617435 0)
(1.2457536 0.00010728684 0)
(1.2457795 9.9018351e-05 0)
(1.2458034 9.1328137e-05 0)
(1.2458254 8.4178384e-05 0)
(1.2458455 7.7533466e-05 0)
(1.245864 7.1360305e-05 0)
(1.245881 6.5627692e-05 0)
(1.2458966 6.0306657e-05 0)
(1.2459109 5.5369833e-05 0)
(1.2459239 5.0791822e-05 0)
(1.2459359 4.6548608e-05 0)
(1.2459468 4.2617911e-05 0)
(1.2459568 3.8978643e-05 0)
(1.2459659 3.5611255e-05 0)
(1.2459741 3.2497229e-05 0)
(1.2459816 2.9619424e-05 0)
(1.2459885 2.6961565e-05 0)
(1.2459947 2.4508606e-05 0)
(1.2460003 2.2246283e-05 0)
(1.2460054 2.0161414e-05 0)
(1.2460099 1.8241505e-05 0)
(1.2460141 1.6475038e-05 0)
(1.2460178 1.4851107e-05 0)
(1.2460211 1.335969e-05 0)
(1.246024 1.1991312e-05 0)
(1.2460267 1.0737304e-05 0)
(1.246029 9.5894819e-06 0)
(1.2460311 8.5403924e-06 0)
(1.246033 7.5830092e-06 0)
(1.2460346 6.7109509e-06 0)
(1.246036 5.9181961e-06 0)
(1.2460373 5.1992775e-06 0)
(1.2460383 4.5490116e-06 0)
(1.2460393 3.9626708e-06 0)
(1.2460401 3.4357289e-06 0)
(1.2460407 2.9640202e-06 0)
(1.2460413 2.543505e-06 0)
(1.2460418 2.1704215e-06 0)
(1.2460422 1.8410754e-06 0)
(1.2460426 1.5519925e-06 0)
(1.2460428 1.2997364e-06 0)
(1.2460431 1.0810621e-06 0)
(1.2460432 8.9276094e-07 0)
(1.2460434 7.3181502e-07 0)
(1.2460435 5.9526591e-07 0)
(1.2460436 4.8036285e-07 0)
(1.2460437 3.8444835e-07 0)
(1.2460437 3.0509564e-07 0)
(1.2460438 2.4000412e-07 0)
(1.2460438 1.8712029e-07 0)
(1.2460438 1.4453564e-07 0)
(1.2460439 1.1059465e-07 0)
(1.2460439 8.3784209e-08 0)
(1.2460439 6.284106e-08 0)
(1.2460439 4.6613022e-08 0)
(1.2460439 3.419716e-08 0)
(1.2460439 2.4732524e-08 0)
(1.2460439 1.7635833e-08 0)
(1.2460439 1.2261887e-08 0)
(1.2460439 8.3049414e-09 0)
(1.2460439 5.2447121e-09 0)
(1.2460439 2.9686493e-09 0)
(1.2460439 1.1003142e-09 0)
(1.2460439 -2.8574454e-10 0)
(1.3297585 3.9424537e-05 0)
(1.3315871 0.00022851857 0)
(1.3320772 0.00038551216 0)
(1.3323137 0.00044857538 0)
(1.3328355 0.00043944771 0)
(1.3336098 0.00040546953 0)
(1.3344265 0.00037545125 0)
(1.3351571 0.00035426699 0)
(1.3357879 0.00033648095 0)
(1.3363532 0.00031780583 0)
(1.3368809 0.000297851 0)
(1.3373796 0.00027806399 0)
(1.3378474 0.00025958548 0)
(1.3382825 0.00024265881 0)
(1.3386858 0.00022702601 0)
(1.3390602 0.00021239703 0)
(1.3394086 0.0001986233 0)
(1.3397331 0.0001856573 0)
(1.3400354 0.00017347324 0)
(1.3403168 0.00016203136 0)
(1.3405787 0.00015128123 0)
(1.3408223 0.00014117443 0)
(1.3410489 0.00013167056 0)
(1.3412597 0.00012273613 0)
(1.3414556 0.00011434135 0)
(1.3416377 0.00010645804 0)
(1.3418068 9.90591e-05 0)
(1.3419638 9.2118633e-05 0)
(1.3421095 8.5611999e-05 0)
(1.3422447 7.9515785e-05 0)
(1.34237 7.3807595e-05 0)
(1.3424862 6.8466015e-05 0)
(1.3425937 6.3470494e-05 0)
(1.3426933 5.8801394e-05 0)
(1.3427855 5.4439924e-05 0)
(1.3428707 5.0368192e-05 0)
(1.3429494 4.6569115e-05 0)
(1.3430221 4.3026463e-05 0)
(1.3430892 3.9724778e-05 0)
(1.343151 3.6649416e-05 0)
(1.3432081 3.3786461e-05 0)
(1.3432606 3.1122757e-05 0)
(1.3433089 2.8645824e-05 0)
(1.3433533 2.6343896e-05 0)
(1.3433941 2.4205831e-05 0)
(1.3434316 2.2221135e-05 0)
(1.3434659 2.0379889e-05 0)
(1.3434974 1.867277e-05 0)
(1.3435262 1.7090975e-05 0)
(1.3435525 1.5626241e-05 0)
(1.3435765 1.4270768e-05 0)
(1.3435984 1.3017238e-05 0)
(1.3436184 1.185878e-05 0)
(1.3436366 1.0788947e-05 0)
(1.3436531 9.8016655e-06 0)
(1.343668 8.8912668e-06 0)
(1.3436816 8.0524166e-06 0)
(1.3436938 7.2801408e-06 0)
(1.3437049 6.5697687e-06 0)
(1.3437148 5.916961e-06 0)
(1.3437238 5.3176501e-06 0)
(1.3437318 4.7680665e-06 0)
(1.3437389 4.2646867e-06 0)
(1.3437453 3.8042599e-06 0)
(1.343751 3.383752e-06 0)
(1.3437561 3.0003683e-06 0)
(1.3437605 2.6515015e-06 0)
(1.3437644 2.3347533e-06 0)
(1.3437679 2.0478781e-06 0)
(1.3437709 1.7887994e-06 0)
(1.3437735 1.5555601e-06 0)
(1.3437758 1.346338e-06 0)
(1.3437777 1.1593955e-06 0)
(1.3437794 9.9309501e-07 0)
(1.3437808 8.4585817e-07 0)
(1.343782 7.1618463e-07 0)
(1.343783 6.0261602e-07 0)
(1.3437838 5.0375651e-07 0)
(1.3437845 4.182493e-07 0)
(1.3437851 3.4479981e-07 0)
(1.3437855 2.8215706e-07 0)
(1.3437859 2.291359e-07 0)
(1.3437862 1.8460789e-07 0)
(1.3437865 1.4752081e-07 0)
(1.3437867 1.1689049e-07 0)
(1.3437868 9.1814237e-08 0)
(1.3437869 7.146755e-08 0)
(1.343787 5.5111361e-08 0)
(1.3437871 4.2085435e-08 0)
(1.3437871 3.1810564e-08 0)
(1.3437872 2.3780563e-08 0)
(1.3437872 1.7563098e-08 0)
(1.3437872 1.2785433e-08 0)
(1.3437872 9.1490369e-09 0)
(1.3437873 6.3913244e-09 0)
(1.3437873 4.3326386e-09 0)
(1.3437873 2.7374246e-09 0)
(1.3437873 1.5333621e-09 0)
(1.3437873 3.6463811e-10 0)
(1.3437873 -5.5530053e-10 0)
(1.3297584 -3.9424518e-05 0)
(1.331587 -0.00022851771 0)
(1.3320771 -0.00038551283 0)
(1.3323137 -0.00044857302 0)
(1.3328354 -0.00043943388 0)
(1.3336098 -0.00040543996 0)
(1.3344265 -0.00037540917 0)
(1.3351571 -0.00035421814 0)
(1.3357879 -0.00033642957 0)
(1.3363532 -0.00031775388 0)
(1.3368809 -0.0002977996 0)
(1.3373796 -0.00027801461 0)
(1.3378475 -0.00025953957 0)
(1.3382825 -0.00024261776 0)
(1.3386858 -0.00022699049 0)
(1.3390602 -0.00021236764 0)
(1.3394086 -0.0001986001 0)
(1.3397332 -0.00018564055 0)
(1.3400354 -0.00017346272 0)
(1.3403169 -0.00016202708 0)
(1.3405787 -0.00015128266 0)
(1.3408223 -0.0001411813 0)
(1.341049 -0.00013168219 0)
(1.3412597 -0.00012275222 0)
(1.3414556 -0.00011436116 0)
(1.3416377 -0.00010648122 0)
(1.3418068 -9.9084876e-05 0)
(1.3419638 -9.2146643e-05 0)
(1.3421095 -8.5641502e-05 0)
(1.3422447 -7.9546467e-05 0)
(1.34237 -7.3838788e-05 0)
(1.3424862 -6.8497471e-05 0)
(1.3425937 -6.3501629e-05 0)
(1.3426933 -5.8832052e-05 0)
(1.3427854 -5.4469621e-05 0)
(1.3428706 -5.0396838e-05 0)
(1.3429494 -4.6596303e-05 0)
(1.3430221 -4.3052174e-05 0)
(1.3430891 -3.974868e-05 0)
(1.343151 -3.6671535e-05 0)
(1.343208 -3.3806526e-05 0)
(1.3432605 -3.1140848e-05 0)
(1.3433089 -2.866174e-05 0)
(1.3433533 -2.635776e-05 0)
(1.3433941 -2.4217503e-05 0)
(1.3434315 -2.2230793e-05 0)
(1.3434659 -2.0387458e-05 0)
(1.3434973 -1.8678465e-05 0)
(1.3435261 -1.7094771e-05 0)
(1.3435524 -1.5628385e-05 0)
(1.3435765 -1.427128e-05 0)
(1.3435984 -1.3016412e-05 0)
(1.3436184 -1.185665e-05 0)
(1.3436365 -1.0785778e-05 0)
(1.343653 -9.797507e-06 0)
(1.343668 -8.8863648e-06 0)
(1.3436815 -8.046806e-06 0)
(1.3436938 -7.274041e-06 0)
(1.3437048 -6.5631938e-06 0)
(1.3437148 -5.9100856e-06 0)
(1.3437237 -5.3104559e-06 0)
(1.3437317 -4.7606901e-06 0)
(1.3437389 -4.2570847e-06 0)
(1.3437453 -3.7965305e-06 0)
(1.343751 -3.3758313e-06 0)
(1.343756 -2.9923355e-06 0)
(1.3437605 -2.6432909e-06 0)
(1.3437644 -2.3264344e-06 0)
(1.3437679 -2.0393938e-06 0)
(1.3437709 -1.7802299e-06 0)
(1.3437735 -1.5468719e-06 0)
(1.3437757 -1.3376246e-06 0)
(1.3437777 -1.1506479e-06 0)
(1.3437793 -9.844271e-07 0)
(1.3437807 -8.3728459e-07 0)
(1.3437819 -7.0782778e-07 0)
(1.343783 -5.9450098e-07 0)
(1.3437838 -4.9600756e-07 0)
(1.3437845 -4.1089037e-07 0)
(1.3437851 -3.3793888e-07 0)
(1.3437855 -2.7580123e-07 0)
(1.3437859 -2.2337108e-07 0)
(1.3437862 -1.7941735e-07 0)
(1.3437865 -1.4295861e-07 0)
(1.3437867 -1.1291136e-07 0)
(1.3437868 -8.8446739e-08 0)
(1.3437869 -6.8643029e-08 0)
(1.343787 -5.2835939e-08 0)
(1.3437871 -4.0272923e-08 0)
(1.3437871 -3.0460901e-08 0)
(1.3437872 -2.2802877e-08 0)
(1.3437872 -1.6967988e-08 0)
(1.3437872 -1.2483269e-08 0)
(1.3437872 -9.1610173e-09 0)
(1.3437872 -6.6119702e-09 0)
(1.3437873 -4.7575708e-09 0)
(1.3437873 -3.3648966e-09 0)
(1.3437873 -2.300123e-09 0)
(1.3437873 -1.8879685e-09 0)
(1.3437873 -1.4640147e-09 0)
(1.2382626 -0.00011723369 0)
(1.2398715 -0.00065525882 0)
(1.2402108 -0.0010811573 0)
(1.2403022 -0.0012349209 0)
(1.2406306 -0.0011932914 0)
(1.2411584 -0.0010904089 0)
(1.2417031 -0.0010017215 0)
(1.2421623 -0.0009373475 0)
(1.2425318 -0.00088209108 0)
(1.2428449 -0.00082518113 0)
(1.243127 -0.00076615032 0)
(1.2433863 -0.00070889241 0)
(1.2436225 -0.00065619468 0)
(1.243835 -0.00060847195 0)
(1.2440256 -0.00056491304 0)
(1.2441974 -0.00052468002 0)
(1.2443532 -0.00048731386 0)
(1.2444951 -0.00045261033 0)
(1.2446244 -0.00042041844 0)
(1.2447424 -0.00039055588 0)
(1.2448503 -0.00036282206 0)
(1.244949 -0.00033703038 0)
(1.2450395 -0.00031302281 0)
(1.2451224 -0.00029066547 0)
(1.2451987 -0.00026984029 0)
(1.2452687 -0.00025043892 0)
(1.2453331 -0.00023236144 0)
(1.2453924 -0.00021551559 0)
(1.2454469 -0.00019981703 0)
(1.2454971 -0.00018518794 0)
(1.2455434 -0.00017155674 0)
(1.245586 -0.00015885681 0)
(1.2456253 -0.0001470265 0)
(1.2456614 -0.00013600823 0)
(1.2456947 -0.0001257486 0)
(1.2457253 -0.00011619765 0)
(1.2457535 -0.00010730897 0)
(1.2457795 -9.9039029e-05 0)
(1.2458034 -9.1347357e-05 0)
(1.2458253 -8.4195921e-05 0)
(1.2458455 -7.7549359e-05 0)
(1.245864 -7.1374391e-05 0)
(1.245881 -6.564005e-05 0)
(1.2458965 -6.0317174e-05 0)
(1.2459108 -5.5378636e-05 0)
(1.2459239 -5.0798856e-05 0)
(1.2459358 -4.6554033e-05 0)
(1.2459467 -4.2621715e-05 0)
(1.2459567 -3.8981025e-05 0)
(1.2459658 -3.5612246e-05 0)
(1.245974 -3.2497041e-05 0)
(1.2459816 -2.961808e-05 0)
(1.2459884 -2.6959287e-05 0)
(1.2459946 -2.4505455e-05 0)
(1.2460002 -2.2242463e-05 0)
(1.2460053 -2.0156971e-05 0)
(1.2460098 -1.8236621e-05 0)
(1.246014 -1.6469744e-05 0)
(1.2460177 -1.4845549e-05 0)
(1.246021 -1.3353868e-05 0)
(1.246024 -1.1985339e-05 0)
(1.2460266 -1.0731157e-05 0)
(1.246029 -9.5832401e-06 0)
(1.2460311 -8.5340115e-06 0)
(1.2460329 -7.5765479e-06 0)
(1.2460345 -6.7043597e-06 0)
(1.2460359 -5.9115231e-06 0)
(1.2460372 -5.1924766e-06 0)
(1.2460383 -4.5421371e-06 0)
(1.2460392 -3.9556946e-06 0)
(1.24604 -3.428717e-06 0)
(1.2460407 -2.9569642e-06 0)
(1.2460413 -2.5364889e-06 0)
(1.2460418 -2.1634588e-06 0)
(1.2460422 -1.8342605e-06 0)
(1.2460425 -1.5453498e-06 0)
(1.2460428 -1.2933648e-06 0)
(1.246043 -1.0749884e-06 0)
(1.2460432 -8.8707374e-07 0)
(1.2460434 -7.2652886e-07 0)
(1.2460435 -5.9045232e-07 0)
(1.2460436 -4.7601789e-07 0)
(1.2460437 -3.8061763e-07 0)
(1.2460437 -3.0175063e-07 0)
(1.2460438 -2.3716744e-07 0)
(1.2460438 -1.8474334e-07 0)
(1.2460438 -1.4262019e-07 0)
(1.2460438 -1.0907592e-07 0)
(1.2460438 -8.2654583e-08 0)
(1.2460439 -6.2031105e-08 0)
(1.2460439 -4.6114887e-08 0)
(1.2460439 -3.3943782e-08 0)
(1.2460439 -2.4725904e-08 0)
(1.2460439 -1.7815972e-08 0)
(1.2460439 -1.2617808e-08 0)
(1.2460439 -8.7901262e-09 0)
(1.2460439 -5.8373662e-09 0)
(1.2460439 -3.624658e-09 0)
(1.2460439 -2.0686772e-09 0)
(1.2460439 -8.4594223e-10 0)
(1.0472834 -0.00018893509 0)
(1.0484329 -0.00097141889 0)
(1.0484235 -0.0015216754 0)
(1.0481624 -0.0016620418 0)
(1.0480507 -0.0015472109 0)
(1.048061 -0.0013716703 0)
(1.0480686 -0.0012281683 0)
(1.0480148 -0.0011217536 0)
(1.0479087 -0.0010304513 0)
(1.0477793 -0.00094138935 0)
(1.0476458 -0.00085471353 0)
(1.0475146 -0.00077486522 0)
(1.0473857 -0.00070426102 0)
(1.0472589 -0.00064244013 0)
(1.047135 -0.00058773953 0)
(1.0470153 -0.0005386952 0)
(1.046901 -0.00049441153 0)
(1.0467924 -0.00045434675 0)
(1.0466897 -0.00041806165 0)
(1.0465928 -0.00038512364 0)
(1.0465015 -0.00035512381 0)
(1.0464157 -0.00032770743 0)
(1.0463353 -0.00030258351 0)
(1.04626 -0.00027951116 0)
(1.0461896 -0.0002582864 0)
(1.0461238 -0.00023873051 0)
(1.0460625 -0.00022068734 0)
(1.0460054 -0.0002040189 0)
(1.0459522 -0.00018860482 0)
(1.0459027 -0.00017433803 0)
(1.0458567 -0.00016112425 0)
(1.045814 -0.0001488783 0)
(1.0457743 -0.00013752449 0)
(1.0457375 -0.00012699367 0)
(1.0457035 -0.00011722406 0)
(1.0456719 -0.00010815871 0)
(1.0456428 -9.9746474e-05 0)
(1.0456158 -9.1939776e-05 0)
(1.0455908 -8.4695738e-05 0)
(1.0455678 -7.7974182e-05 0)
(1.0455466 -7.17388e-05 0)
(1.045527 -6.5955334e-05 0)
(1.045509 -6.0592781e-05 0)
(1.0454924 -5.5621736e-05 0)
(1.0454771 -5.1015562e-05 0)
(1.0454631 -4.6748855e-05 0)
(1.0454502 -4.2798605e-05 0)
(1.0454384 -3.9142781e-05 0)
(1.0454276 -3.5761434e-05 0)
(1.0454177 -3.2635375e-05 0)
(1.0454087 -2.974725e-05 0)
(1.0454004 -2.708032e-05 0)
(1.0453929 -2.4619471e-05 0)
(1.045386 -2.2350064e-05 0)
(1.0453798 -2.0258915e-05 0)
(1.0453741 -1.8333237e-05 0)
(1.045369 -1.656155e-05 0)
(1.0453643 -1.4932697e-05 0)
(1.0453601 -1.3436711e-05 0)
(1.0453563 -1.2063907e-05 0)
(1.0453529 -1.0805686e-05 0)
(1.0453498 -9.653682e-06 0)
(1.0453471 -8.6005222e-06 0)
(1.0453446 -7.6390318e-06 0)
(1.0453424 -6.7629297e-06 0)
(1.0453405 -5.9660736e-06 0)
(1.0453387 -5.2431113e-06 0)
(1.0453372 -4.5887725e-06 0)
(1.0453359 -3.9984592e-06 0)
(1.0453347 -3.4675779e-06 0)
(1.0453337 -2.9920964e-06 0)
(1.0453328 -2.5679244e-06 0)
(1.045332 -2.1914294e-06 0)
(1.0453313 -1.8588643e-06 0)
(1.0453308 -1.5668688e-06 0)
(1.0453303 -1.3119479e-06 0)
(1.0453299 -1.0909514e-06 0)
(1.0453295 -9.0059402e-07 0)
(1.0453293 -7.3793135e-07 0)
(1.045329 -5.9991603e-07 0)
(1.0453288 -4.8385562e-07 0)
(1.0453287 -3.8698828e-07 0)
(1.0453285 -3.0693633e-07 0)
(1.0453284 -2.4129132e-07 0)
(1.0453284 -1.8804846e-07 0)
(1.0453283 -1.4518857e-07 0)
(1.0453282 -1.1110723e-07 0)
(1.0453282 -8.4192378e-08 0)
(1.0453282 -6.3232657e-08 0)
(1.0453282 -4.699651e-08 0)
(1.0453281 -3.4618484e-08 0)
(1.0453281 -2.5205669e-08 0)
(1.0453281 -1.8164134e-08 0)
(1.0453281 -1.2884447e-08 0)
(1.0453281 -8.9431519e-09 0)
(1.0453281 -6.0303169e-09 0)
(1.0453281 -3.6419739e-09 0)
(1.0453281 -1.9036674e-09 0)
(1.0453281 1.5062962e-12 0)
(1.0453281 1.1567105e-09 0)
(0.74151932 -0.00023877046 0)
(0.7419246 -0.0010458007 0)
(0.74131419 -0.0014714148 0)
(0.74046629 -0.0014470202 0)
(0.7397196 -0.0012175486 0)
(0.73908785 -0.00098750169 0)
(0.73851032 -0.00082336661 0)
(0.73795861 -0.00071041702 0)
(0.73743619 -0.00062119423 0)
(0.73695359 -0.00054275382 0)
(0.73651511 -0.00047399817 0)
(0.7361184 -0.0004164244 0)
(0.73575845 -0.00036958454 0)
(0.73543046 -0.00033127258 0)
(0.73513074 -0.0002990865 0)
(0.73485643 -0.00027132459 0)
(0.73460507 -0.00024700368 0)
(0.73437442 -0.00022553703 0)
(0.73416244 -0.0002064822 0)
(0.73396734 -0.00018945515 0)
(0.73378755 -0.00017413046 0)
(0.73362174 -0.00016025225 0)
(0.73346869 -0.00014762531 0)
(0.73332736 -0.00013609818 0)
(0.73319679 -0.00012554659 0)
(0.73307612 -0.0001158657 0)
(0.73296458 -0.00010696515 0)
(0.73286147 -9.8767877e-05 0)
(0.73276615 -9.1207038e-05 0)
(0.73267804 -8.4225092e-05 0)
(0.7325966 -7.7771121e-05 0)
(0.73252135 -7.1800541e-05 0)
(0.73245183 -6.6273213e-05 0)
(0.73238762 -6.1153694e-05 0)
(0.73232835 -5.6409733e-05 0)
(0.73227366 -5.2012664e-05 0)
(0.73222321 -4.7936091e-05 0)
(0.73217671 -4.4156417e-05 0)
(0.73213386 -4.0651719e-05 0)
(0.7320944 -3.7402315e-05 0)
(0.7320581 -3.438975e-05 0)
(0.73202471 -3.1597411e-05 0)
(0.73199403 -2.9009625e-05 0)
(0.73196586 -2.6612252e-05 0)
(0.73194002 -2.4391855e-05 0)
(0.73191634 -2.23363e-05 0)
(0.73189465 -2.0434008e-05 0)
(0.7318748 -1.8674518e-05 0)
(0.73185667 -1.7047785e-05 0)
(0.73184011 -1.5544741e-05 0)
(0.73182502 -1.4156653e-05 0)
(0.73181127 -1.2875643e-05 0)
(0.73179877 -1.1694087e-05 0)
(0.73178742 -1.0605121e-05 0)
(0.73177712 -9.6020969e-06 0)
(0.7317678 -8.6790465e-06 0)
(0.73175937 -7.8301677e-06 0)
(0.73175177 -7.0502781e-06 0)
(0.73174493 -6.3343468e-06 0)
(0.73173878 -5.6779056e-06 0)
(0.73173327 -5.0766075e-06 0)
(0.73172834 -4.5266206e-06 0)
(0.73172395 -4.024223e-06 0)
(0.73172004 -3.5661547e-06 0)
(0.73171658 -3.1492312e-06 0)
(0.73171352 -2.7706767e-06 0)
(0.73171083 -2.4277665e-06 0)
(0.73170848 -2.1181227e-06 0)
(0.73170642 -1.8393737e-06 0)
(0.73170463 -1.5894369e-06 0)
(0.73170309 -1.3662074e-06 0)
(0.73170176 -1.1678133e-06 0)
(0.73170063 -9.9232679e-07 0)
(0.73169966 -8.3801525e-07 0)
(0.73169885 -7.0308262e-07 0)
(0.73169817 -5.85904e-07 0)
(0.7316976 -4.8478696e-07 0)
(0.73169712 -3.9820706e-07 0)
(0.73169674 -3.2459312e-07 0)
(0.73169642 -2.6254629e-07 0)
(0.73169617 -2.106373e-07 0)
(0.73169596 -1.6762218e-07 0)
(0.7316958 -1.3225352e-07 0)
(0.73169567 -1.0347548e-07 0)
(0.73169557 -8.0238708e-08 0)
(0.73169549 -6.168871e-08 0)
(0.73169543 -4.6987991e-08 0)
(0.73169539 -3.5485447e-08 0)
(0.73169535 -2.6536149e-08 0)
(0.73169533 -1.9673831e-08 0)
(0.73169531 -1.442022e-08 0)
(0.73169529 -1.047167e-08 0)
(0.73169528 -7.4642353e-09 0)
(0.73169528 -5.2351782e-09 0)
(0.73169527 -3.5093239e-09 0)
(0.73169527 -2.2107798e-09 0)
(0.73169527 -1.0089176e-09 0)
(0.73169526 -1.2436822e-10 0)
(0.73169527 1.6854707e-09 0)
(0.73169526 2.4501879e-09 0)
(0.29995167 -0.00020933838 0)
(0.29950158 -0.00061337645 0)
(0.29849459 -0.0006774411 0)
(0.29747631 -0.00052211416 0)
(0.2966533 -0.00034449471 0)
(0.29602222 -0.00023026317 0)
(0.29552174 -0.0001727576 0)
(0.29510307 -0.00014187486 0)
(0.29474182 -0.00011923788 0)
(0.29442774 -0.00010001793 0)
(0.29415455 -8.4630812e-05 0)
(0.29391575 -7.3330599e-05 0)
(0.29370485 -6.5202569e-05 0)
(0.2935164 -5.8990844e-05 0)
(0.29334646 -5.3803177e-05 0)
(0.2931923 -4.922605e-05 0)
(0.29305193 -4.5125069e-05 0)
(0.29292375 -4.1449221e-05 0)
(0.29280641 -3.8145251e-05 0)
(0.29269875 -3.5154019e-05 0)
(0.2925998 -3.242486e-05 0)
(0.29250874 -2.9923111e-05 0)
(0.29242485 -2.762484e-05 0)
(0.2923475 -2.551196e-05 0)
(0.29227614 -2.3567482e-05 0)
(0.29221028 -2.1776144e-05 0)
(0.29214947 -2.0123464e-05 0)
(0.29209331 -1.859726e-05 0)
(0.29204143 -1.7186228e-05 0)
(0.29199352 -1.5880961e-05 0)
(0.29194926 -1.467243e-05 0)
(0.29190838 -1.3553085e-05 0)
(0.29187064 -1.2515538e-05 0)
(0.29183579 -1.155371e-05 0)
(0.29180364 -1.0661542e-05 0)
(0.29177397 -9.8340847e-06 0)
(0.29174662 -9.0662823e-06 0)
(0.29172141 -8.3540626e-06 0)
(0.29169818 -7.6931724e-06 0)
(0.2916768 -7.0802102e-06 0)
(0.29165712 -6.5115444e-06 0)
(0.29163903 -5.98432e-06 0)
(0.29162241 -5.4954247e-06 0)
(0.29160715 -5.0424307e-06 0)
(0.29159315 -4.6226363e-06 0)
(0.29158032 -4.2339747e-06 0)
(0.29156857 -3.8741008e-06 0)
(0.29155782 -3.5412348e-06 0)
(0.291548 -3.2333184e-06 0)
(0.29153904 -2.948823e-06 0)
(0.29153086 -2.6859476e-06 0)
(0.29152341 -2.443366e-06 0)
(0.29151664 -2.2194882e-06 0)
(0.29151049 -2.0131725e-06 0)
(0.29150492 -1.8230248e-06 0)
(0.29149987 -1.6480557e-06 0)
(0.29149531 -1.4870359e-06 0)
(0.29149119 -1.3391202e-06 0)
(0.29148748 -1.2032378e-06 0)
(0.29148415 -1.0786657e-06 0)
(0.29148117 -9.6446834e-07 0)
(0.2914785 -8.6003956e-07 0)
(0.29147612 -7.6457351e-07 0)
(0.29147401 -6.7756036e-07 0)
(0.29147214 -5.9830062e-07 0)
(0.29147048 -5.2637147e-07 0)
(0.29146903 -4.6116887e-07 0)
(0.29146776 -4.0233316e-07 0)
(0.29146664 -3.4932999e-07 0)
(0.29146568 -3.0185027e-07 0)
(0.29146485 -2.5941635e-07 0)
(0.29146413 -2.2174811e-07 0)
(0.29146352 -1.8840361e-07 0)
(0.291463 -1.5912526e-07 0)
(0.29146256 -1.3350185e-07 0)
(0.2914622 -1.1128798e-07 0)
(0.29146189 -9.2094685e-08 0)
(0.29146164 -7.5694332e-08 0)
(0.29146143 -6.1726511e-08 0)
(0.29146126 -4.998197e-08 0)
(0.29146112 -4.0129584e-08 0)
(0.29146102 -3.1989958e-08 0)
(0.29146093 -2.5271147e-08 0)
(0.29146086 -1.9825432e-08 0)
(0.29146081 -1.5399689e-08 0)
(0.29146076 -1.1885624e-08 0)
(0.29146073 -9.0732611e-09 0)
(0.29146071 -6.8896687e-09 0)
(0.29146069 -5.1610636e-09 0)
(0.29146068 -3.8508795e-09 0)
(0.29146067 -2.8170456e-09 0)
(0.29146066 -2.0520039e-09 0)
(0.29146065 -1.4303072e-09 0)
(0.29146065 -9.855516e-10 0)
(0.29146065 -5.9961062e-10 0)
(0.29146065 -2.8864367e-10 0)
(0.29146064 2.4160534e-11 0)
(0.29146064 3.9103251e-10 0)
(0.29146065 1.2620439e-09 0)
(0.29146065 1.3995529e-09 0)
)
;

boundaryField
{
    top
    {
        type            fixedValue;
        value           uniform (0 0 0);
    }
    inlet
    {
        type            pressureNormalInletOutletVelocity;
        phi             phi;
        rho             rho;
        value           nonuniform List<vector> 10((0.30001054 0 0) (0.74168257 0 0) (1.0476048 0 0) (1.2387225 0 0) (1.330296 0 0) (1.3302959 -0 0) (1.2387226 -0 0) (1.0476047 -0 0) (0.74168257 -0 0) (0.30001066 -0 0));
    }
    outlet