/*--------------------------------*- C++ -*----------------------------------*\
| =========                 |                                                 |
| \\      /  F ield         | OpenFOAM: The Open Source CFD Toolbox           |
|  \\    /   O peration     | Version:  v1812                                 |
|   \\  /    A nd           | Web:      www.OpenFOAM.com                      |
|    \\/     M anipulation  |                                                 |
\*---------------------------------------------------------------------------*/
FoamFile
{
    version     2.0;
    format      ascii;
    class       volScalarField;
    location    "12.15";
    object      p;
}
// * * * * * * * * * * * * * * * * * * * * * * * * * * * * * * * * * * * * * //

dimensions      [0 2 -2 0 0 0 0];


internalField   nonuniform List<scalar> 
1000
(
1.6755985
1.5545206
1.4585402
1.3948841
1.3463746
1.3039025
1.2663673
1.2341955
1.2067952
1.1829576
1.1615633
1.1417995
1.1231223
1.1051828
1.0877675
1.0707533
1.0540724
1.0376882
1.02158
1.0057341
0.9901391
0.974784
0.95965731
0.94474707
0.93004107
0.91552707
0.9011931
0.8870276
0.87301954
0.85915854
0.84543483
0.83183928
0.81836339
0.80499922
0.79173938
0.77857701
0.76550571
0.7525195
0.73961283
0.72678052
0.71401772
0.70131991
0.68868287
0.67610265
0.66357557
0.65109817
0.63866724
0.62627975
0.6139329
0.60162405
0.58935072
0.57711063
0.5649016
0.55272161
0.54056879
0.52844135
0.51633764
0.50425612
0.49219534
0.48015397
0.46813072
0.45612443
0.44413398
0.43215834
0.42019654
0.40824766
0.39631086
0.38438536
0.37247041
0.36056533
0.34866948
0.33678225
0.32490309
0.31303145
0.30116683
0.28930878
0.27745685
0.26561065
0.25376981
0.24193398
0.23010284
0.21827608
0.20645341
0.19463456
0.18281927
0.17100729
0.15919841
0.14739244
0.13558918
0.12378848
0.11199016
0.10019407
0.088400046
0.076607956
0.064817665
0.053029054
0.041242065
0.029456524
0.017672617
0.0058896936
1.5583789
1.5034498
1.4424973
1.3909296
1.3476596
1.3086912
1.273105
1.2413324
1.2133715
1.1885936
1.1661917
1.1454904
1.1260087
1.1074207
1.0895071
1.0721224
1.0551705
1.0385891
1.0223364
1.006383
0.99070592
0.97528639
0.96010754
0.94515388
0.93041083
0.9158646
0.90150219
0.88731132
0.87328048
0.8593989
0.84565654
0.83204404
0.81855269
0.8051744
0.79190165
0.77872744
0.76564526
0.75264905
0.73973317
0.72689237
0.71412173
0.70141667
0.68877293
0.6761865
0.66365367
0.65117093
0.63873503
0.62634294
0.61399181
0.60167897
0.58940195
0.57715841
0.56494617
0.5527632
0.5406076
0.52847756
0.51637144
0.50428766
0.49222478
0.48018144
0.46815637
0.45614838
0.44415634
0.43217922
0.42021604
0.40826587
0.39632786
0.38440123
0.37248522
0.36057916
0.3486824
0.33679432
0.32491436
0.31304198
0.30117668
0.28931797
0.27746543
0.26561866
0.25377728
0.24194095
0.23010935
0.21828217
0.20645911
0.19463989
0.18282425
0.17101194
0.15920275
0.14739648
0.13559295
0.123792
0.11199344
0.10019715
0.088402927
0.076610646
0.064820174
0.053031358
0.041244207
0.029458374
0.017674276
0.0058905253
1.4975576
1.4713825
1.4329857
1.3918528
1.3527675
1.3161767
1.281879
1.2501615
1.2213054
1.1952043
1.1714504
1.1495603
1.1291105
1.1097696
1.0912895
1.0734884
1.0562366
1.039441
1.0230349
1.0069698
0.99120943
0.97572575
0.96049588
0.94550038
0.93072211
0.91614561
0.90175678
0.88754261
0.87349106
0.85959101
0.84583209
0.83220472
0.81869999
0.80530963
0.79202596
0.77884187
0.76575073
0.75274638
0.73982309
0.72697551
0.71419868
0.70148796
0.68883902
0.67624781
0.66371057
0.65122377
0.63878414
0.62638859
0.61403427
0.60171848
0.58943873
0.57719265
0.56497807
0.55279292
0.54063528
0.52850336
0.51639548
0.50431008
0.49224569
0.48020094
0.46817456
0.45616535
0.44417218
0.432194
0.42022982
0.40827873
0.39633986
0.38441242
0.37249567
0.36058892
0.34869151
0.33680284
0.32492232
0.31304941
0.3011836
0.28932443
0.27747146
0.26562428
0.25378253
0.24194587
0.23011395
0.21828647
0.20646313
0.19464364
0.18282774
0.1710152
0.15920578
0.14739931
0.13559559
0.12379447
0.11199576
0.10019932
0.088404943
0.076612527
0.064821888
0.053032931
0.041245556
0.029459523
0.017674953
0.0058909951
1.4681491
1.452651
1.4257811
1.3918572
1.3560562
1.3211049
1.287803
1.2564499
1.2273192
1.2005278
1.1759402
1.153248
1.1320962
1.1121674
1.0932092
1.0750295
1.0574838
1.0404628
1.0238842
1.0076862
0.99182218
0.97625643
0.96096046
0.94591078
0.93108733
0.9164726
0.90205096
0.88780834
0.8737319
0.85980989
0.84603153
0.83238683
0.81886661
0.80546235
0.79216618
0.77897081
0.76586946
0.75285586
0.73992415
0.72706891
0.71428508
0.70156794
0.68891311
0.6763165
0.6637743
0.65128294
0.6388391
0.62643968
0.61408178
0.60176268
0.58947986
0.57723094
0.56501371
0.5528261
0.54066618
0.52853214
0.51642231
0.50433509
0.49226903
0.48022272
0.46819489
0.45618431
0.44418986
0.43221047
0.42024517
0.40829303
0.39635321
0.38442489
0.37250734
0.36059983
0.34870172
0.33681236
0.3249312
0.31305767
0.30119129
0.28933159
0.27747814
0.26563054
0.25378841
0.24195138
0.23011912
0.21829129
0.20646761
0.19464779
0.18283159
0.17101878
0.15920913
0.14740247
0.13559857
0.12379729
0.11199838
0.10020176
0.088407166
0.076614591
0.064823727
0.053034673
0.041246995
0.029460923
0.017675812
0.0058920313
1.4554175
1.4434642
1.4212298
1.3909422
1.3570811
1.3230855
1.290388
1.2593824
1.230285
1.2032731
1.1783461
1.1552965
1.1338149
1.1135973
1.0943937
1.0760115
1.0583026
1.0411522
1.0244713
1.0081922
0.99226322
0.97664465
0.96130512
0.94621895
0.93136448
0.91672301
0.90227804
0.88801487
0.87392019
0.85998191
0.84618894
0.8325311
0.81899902
0.80558404
0.79227816
0.77907397
0.76596461
0.75294371
0.74000534
0.727144
0.71435457
0.7016323
0.68897276
0.67637181
0.66382561
0.65133058
0.63888337
0.62648083
0.61412006
0.6017983
0.58951301
0.57726179
0.56504242
0.55285281
0.54069105
0.52855531
0.5164439
0.50435524
0.49228783
0.48024028
0.46821127
0.45619958
0.44420408
0.43222371
0.42025749
0.40830452
0.39636394
0.38443493
0.37251674
0.36060864
0.34870995
0.33682004
0.32493833
0.31306429
0.30119743
0.28933731
0.2774835
0.26563558
0.25379316
0.24195586
0.23012331
0.21829518
0.20647119
0.19465109
0.18283463
0.17102162
0.15921182
0.14740504
0.13560101
0.1237996
0.11200052
0.10020373
0.088408922
0.07661621
0.064825159
0.053036066
0.041248176
0.029462165
0.017676677
0.0058930608
1.4554175
1.4434642
1.4212298
1.3909422
1.3570811
1.3230855
1.290388
1.2593824
1.230285
1.2032731
1.1783461
1.1552965
1.1338149
1.1135973
1.0943937
1.0760115
1.0583027
1.0411522
1.0244713
1.0081922
0.99226321
0.97664463
0.9613051
0.94621894
0.93136448
0.91672302
0.90227805
0.88801488
0.8739202
0.85998191
0.84618893
0.83253109
0.81899901
0.80558403
0.79227815
0.77907398
0.76596462
0.75294372
0.74000535
0.727144
0.71435457
0.7016323
0.68897274
0.67637179
0.6638256
0.65133058
0.63888337
0.62648085
0.61412008
0.60179832
0.58951301
0.57726178
0.5650424
0.5528528
0.54069103
0.5285553
0.51644391
0.50435526
0.49228785
0.4802403
0.46821128
0.45619957
0.44420405
0.43222368
0.42025747
0.40830451
0.39636395
0.38443496
0.37251678
0.36060867
0.34870997
0.33682003
0.3249383
0.31306425
0.3011974
0.2893373
0.27748351
0.26563562
0.25379321
0.2419559
0.23012332
0.21829517
0.20647116
0.19465105
0.1828346
0.17102161
0.15921184
0.14740508
0.13560106
0.12379964
0.11200053
0.10020371
0.088408874
0.076616162
0.064825128
0.053036059
0.041248199
0.029462204
0.017676706
0.0058930663
1.4681491
1.452651
1.4257811
1.3918572
1.3560562
1.3211049
1.287803
1.2564499
1.2273192
1.2005277
1.1759402
1.153248
1.1320961
1.1121674
1.0932092
1.0750295
1.0574838
1.0404628
1.0238842
1.0076862
0.99182216
0.9762564
0.96096044
0.94591076
0.93108734
0.91647262
0.90205099
0.88780836
0.87373191
0.85980989
0.84603151
0.8323868
0.81886658
0.80546233
0.79216617
0.77897082
0.76586949
0.75285589
0.73992418
0.72706892
0.71428507
0.70156792
0.68891308
0.67631647
0.66377428
0.65128294
0.63883912
0.62643971
0.61408181
0.60176271
0.58947986
0.57723092
0.56501367
0.55282606
0.54066615
0.52853214
0.51642233
0.50433514
0.49226908
0.48022276
0.46819489
0.45618428
0.4441898
0.43221041
0.42024512
0.40829302
0.39635324
0.38442496
0.37250741
0.36059989
0.34870173
0.33681233
0.32493112
0.31305759
0.30119123
0.28933158
0.27747818
0.26563062
0.2537885
0.24195145
0.23011913
0.21829125
0.20646752
0.1946477
0.18283153
0.17101878
0.15920919
0.14740257
0.13559867
0.12379735
0.11199837
0.10020169
0.088407059
0.076614493
0.064823674
0.053034676
0.041247057
0.029461012
0.01767586
0.0058920355
1.4975576
1.4713825
1.4329857
1.3918528
1.3527675
1.3161767
1.2818791
1.2501615
1.2213054
1.1952043
1.1714503
1.1495603
1.1291105
1.1097696
1.0912895
1.0734885
1.0562366
1.039441
1.0230349
1.0069698
0.99120941
0.97572572
0.96049586
0.94550037
0.93072211
0.91614563
0.9017568
0.88754262
0.87349107
0.859591
0.84583207
0.8322047
0.81869996
0.80530961
0.79202596
0.77884189
0.76575075
0.7527464
0.7398231
0.72697552
0.71419867
0.70148794
0.68883899
0.67624779
0.66371056
0.65122378
0.63878416
0.62638862
0.61403429
0.60171849
0.58943872
0.57719263
0.56497804
0.55279289
0.54063526
0.52850336
0.51639551
0.50431011
0.49224572
0.48020096
0.46817456
0.45616532
0.44417213
0.43219395
0.42022979
0.40827873
0.39633989
0.38441248
0.37249573
0.36058896
0.34869151
0.3368028
0.32492226
0.31304935
0.30118357
0.28932443
0.2774715
0.26562435
0.2537826
0.2419459
0.23011395
0.21828643
0.20646306
0.19464358
0.18282771
0.17101521
0.15920584
0.14739939
0.13559566
0.12379451
0.11199574
0.10019925
0.088404858
0.076612454
0.064821853
0.053032939
0.041245606
0.029459584
0.017674981
0.005890995
1.5583789
1.5034498
1.4424973
1.3909296
1.3476596
1.3086913
1.273105
1.2413324
1.2133714
1.1885936
1.1661917
1.1454904
1.1260087
1.1074207
1.0895071
1.0721224
1.0551705
1.0385891
1.0223364
1.0063829
0.99070591
0.97528638
0.96010754
0.94515388
0.93041083
0.91586461
0.9015022
0.88731133
0.87328048
0.8593989
0.84565653
0.83204403
0.81855268
0.80517439
0.79190165
0.77872744
0.76564527
0.75264906
0.73973318
0.72689237
0.71412172
0.70141666
0.68877292
0.6761865
0.66365367
0.65117093
0.63873505
0.62634295
0.61399182
0.60167897
0.58940194
0.5771584
0.56494616
0.5527632
0.54060759
0.52847757
0.51637145
0.50428768
0.4922248
0.48018145
0.46815636
0.45614836
0.44415632
0.43217921
0.42021603
0.40826587
0.39632788
0.38440125
0.37248525
0.36057918
0.3486824
0.33679431
0.32491434
0.31304196
0.30117666
0.28931797
0.27746545
0.26561869
0.25377731
0.24194097
0.23010935
0.21828216
0.20645909
0.19463987
0.18282424
0.17101195
0.15920278
0.14739652
0.13559298
0.12379201
0.11199343
0.10019711
0.088402881
0.076610605
0.06482015
0.053031357
0.041244226
0.029458395
0.017674283
0.0058905234
1.6755985
1.5545206
1.4585402
1.3948841
1.3463746
1.3039025
1.2663673
1.2341955
1.2067952
1.1829576
1.1615633
1.1417994
1.1231223
1.1051828
1.0877675
1.0707533
1.0540724
1.0376882
1.02158
1.0057341
0.9901391
0.974784
0.95965731
0.94474707
0.93004107
0.91552708
0.90119311
0.8870276
0.87301954
0.85915854
0.84543483
0.83183928
0.81836339
0.80499922
0.79173938
0.77857702
0.76550571
0.7525195
0.73961284
0.72678052
0.71401771
0.7013199
0.68868287
0.67610265
0.66357557
0.65109818
0.63866724
0.62627976
0.6139329
0.60162405
0.58935072
0.57711062
0.56490159
0.55272161
0.54056879
0.52844135
0.51633764
0.50425613
0.49219535
0.48015397
0.46813072
0.45612442
0.44413397
0.43215833
0.42019653
0.40824766
0.39631087
0.38438537
0.37247042
0.36056534
0.34866948
0.33678225
0.32490308
0.31303144
0.30116683
0.28930878
0.27745686
0.26561066
0.25376982
0.24193399
0.23010284
0.21827608
0.20645341
0.19463456
0.18281927
0.1710073
0.15919842
0.14739245
0.1355892
0.12378849
0.11199015
0.10019405
0.088400019
0.076607928
0.064817644
0.053029044
0.041242064
0.029456523
0.017672614
0.0058896902
)
;

boundaryField
{
    top
    {
        type            zeroGradient;
    }
    inlet
    {
        type            zeroGradient;
    }
    outlet
    {
        type            fixedValue;
        value           uniform 0;
    }
    bottom
    {
        type            zeroGradient;
    }
    back
    {
        type            empty;
    }
    front
    {
        type            empty;
    }
}


// ************************************************************************* //
