/*--------------------------------*- C++ -*----------------------------------*\
| =========                 |                                                 |
| \\      /  F ield         | OpenFOAM: The Open Source CFD Toolbox           |
|  \\    /   O peration     | Version:  v1812                                 |
|   \\  /    A nd           | Web:      www.OpenFOAM.com                      |
|    \\/     M anipulation  |                                                 |
\*---------------------------------------------------------------------------*/
FoamFile
{
    version     2.0;
    format      ascii;
    class       volVectorField;
    location    "12.15";
    object      U;
}
// * * * * * * * * * * * * * * * * * * * * * * * * * * * * * * * * * * * * * //

dimensions      [0 1 -1 0 0 0 0];


internalField   nonuniform List<vector> 
1000
(
(0.91890839 0.035821913 0)
(0.86271384 0.062195638 0)
(0.7870597 0.06251009 0)
(0.69536033 0.054550395 0)
(0.61089745 0.044531651 0)
(0.54411592 0.034015972 0)
(0.49343012 0.02418754 0)
(0.45479413 0.01614423 0)
(0.42544582 0.010265786 0)
(0.40347313 0.0063041452 0)
(0.38715766 0.003797629 0)
(0.3749622 0.0023103375 0)
(0.36566192 0.0014930143 0)
(0.35836272 0.0010851178 0)
(0.35244267 0.0009060723 0)
(0.34748201 0.00084105208 0)
(0.34320348 0.00082372471 0)
(0.33942726 0.00081931096 0)
(0.33603793 0.00081185233 0)
(0.33296114 0.00079580123 0)
(0.33014778 0.00077081116 0)
(0.32756384 0.00073870899 0)
(0.3251842 0.0007018888 0)
(0.32298902 0.00066256534 0)
(0.32096172 0.00062249954 0)
(0.31908785 0.00058295774 0)
(0.31735449 0.0005447721 0)
(0.31574995 0.00050843473 0)
(0.3142636 0.00047419202 0)
(0.31288574 0.00044212473 0)
(0.31160755 0.00041220923 0)
(0.31042101 0.0003843611 0)
(0.30931883 0.00035846429 0)
(0.30829438 0.0003343897 0)
(0.30734165 0.00031200633 0)
(0.30645515 0.00029118765 0)
(0.30562991 0.0002718147 0)
(0.30486136 0.00025377747 0)
(0.30414535 0.00023697509 0)
(0.30347807 0.00022131539 0)
(0.30285601 0.00020671434 0)
(0.30227596 0.0001930952 0)
(0.30173496 0.00018038781 0)
(0.30123029 0.00016852788 0)
(0.30075942 0.00015745626 0)
(0.30032002 0.00014711848 0)
(0.29990993 0.00013746418 0)
(0.29952715 0.00012844677 0)
(0.29916983 0.00012002313 0)
(0.29883624 0.00011215326 0)
(0.29852478 0.00010480017 0)
(0.29823397 9.7929477e-05 0)
(0.29796241 9.1509334e-05 0)
(0.29770882 8.551008e-05 0)
(0.29747201 7.9904047e-05 0)
(0.29725084 7.4665407e-05 0)
(0.29704429 6.9769922e-05 0)
(0.29685137 6.5194935e-05 0)
(0.2966712 6.0919283e-05 0)
(0.29650291 5.6923184e-05 0)
(0.29634572 5.3188355e-05 0)
(0.2961989 4.9697738e-05 0)
(0.29606176 4.6435607e-05 0)
(0.29593366 4.3387233e-05 0)
(0.295814 4.0538821e-05 0)
(0.29570224 3.7877374e-05 0)
(0.29559783 3.5390548e-05 0)
(0.29550031 3.3066685e-05 0)
(0.29540922 3.0894943e-05 0)
(0.29532413 2.8865096e-05 0)
(0.29524464 2.6967965e-05 0)
(0.29517039 2.5194875e-05 0)
(0.29510103 2.353816e-05 0)
(0.29503624 2.1990326e-05 0)
(0.29497572 2.0544662e-05 0)
(0.29491919 1.9194189e-05 0)
(0.29486638 1.7932919e-05 0)
(0.29481705 1.6754016e-05 0)
(0.29477097 1.5652726e-05 0)
(0.29472792 1.4622482e-05 0)
(0.29468771 1.3660452e-05 0)
(0.29465015 1.2760132e-05 0)
(0.29461506 1.1920859e-05 0)
(0.29458229 1.1134998e-05 0)
(0.29455166 1.0404316e-05 0)
(0.29452307 9.718245e-06 0)
(0.29449635 9.0824945e-06 0)
(0.29447141 8.4817057e-06 0)
(0.29444808 7.9285189e-06 0)
(0.29442632 7.4007023e-06 0)
(0.29440596 6.9210524e-06 0)
(0.29438698 6.4579679e-06 0)
(0.29436921 6.0458355e-06 0)
(0.29435261 5.6449038e-06 0)
(0.29433715 5.2952287e-06 0)
(0.29432252 4.9704854e-06 0)
(0.29430922 4.6819528e-06 0)
(0.29429578 4.5220671e-06 0)
(0.29428511 4.3860377e-06 0)
(0.29426896 5.0055846e-06 0)
(1.0016583 0.05381943 0)
(1.0359761 0.10128444 0)
(1.0597199 0.11073663 0)
(1.0628947 0.10592202 0)
(1.0515569 0.096228728 0)
(1.0340529 0.083934061 0)
(1.0142795 0.070327063 0)
(0.99360703 0.056981334 0)
(0.97292577 0.04510748 0)
(0.9531074 0.03523675 0)
(0.93479538 0.02740165 0)
(0.91829012 0.021387226 0)
(0.90362379 0.016884497 0)
(0.89068067 0.013569708 0)
(0.87928174 0.011147748 0)
(0.86923242 0.0093736593 0)
(0.86034423 0.0080569295 0)
(0.85244667 0.0070571291 0)
(0.84539241 0.0062752396 0)
(0.83905793 0.005643829 0)
(0.83334126 0.0051180903 0)
(0.82815884 0.0046686707 0)
(0.82344212 0.0042764153 0)
(0.81913467 0.003928737 0)
(0.81518961 0.0036172026 0)
(0.81156765 0.0033359706 0)
(0.80823544 0.0030808052 0)
(0.8051644 0.0028484706 0)
(0.80232979 0.0026363707 0)
(0.79970999 0.0024423392 0)
(0.79728597 0.0022645184 0)
(0.79504086 0.0021012885 0)
(0.79295963 0.0019512234 0)
(0.7910288 0.0018130612 0)
(0.78923627 0.0016856824 0)
(0.7875711 0.0015680926 0)
(0.78602338 0.001459407 0)
(0.78458412 0.0013588379 0)
(0.78324511 0.0012656826 0)
(0.78199889 0.0011793133 0)
(0.78083861 0.0010991676 0)
(0.77975799 0.0010247402 0)
(0.77875128 0.00095557651 0)
(0.77781318 0.00089126546 0)
(0.77693881 0.00083143466 0)
(0.77612368 0.00077574563 0)
(0.77536362 0.00072388971 0)
(0.77465481 0.00067558481 0)
(0.77399367 0.00063057256 0)
(0.77337693 0.00058861593 0)
(0.77280153 0.00054949724 0)
(0.77226464 0.00051301622 0)
(0.77176363 0.00047898847 0)
(0.77129606 0.00044724385 0)
(0.77085967 0.00041762498 0)
(0.77045234 0.00038998608 0)
(0.77007211 0.00036419165 0)
(0.76971717 0.00034011577 0)
(0.76938581 0.00031764131 0)
(0.76907644 0.00029665935 0)
(0.7687876 0.00027706897 0)
(0.76851791 0.00025877651 0)
(0.76826609 0.00024169539 0)
(0.76803095 0.00022574525 0)
(0.76781139 0.00021085132 0)
(0.76760635 0.00019694369 0)
(0.76741488 0.00018395672 0)
(0.76723607 0.00017182859 0)
(0.76706909 0.00016050154 0)
(0.76691315 0.00014992116 0)
(0.76676751 0.00014003782 0)
(0.76663149 0.00013080479 0)
(0.76650446 0.00012218039 0)
(0.76638581 0.00011412462 0)
(0.766275 0.00010660208 0)
(0.76617151 9.9576697e-05 0)
(0.76607485 9.301753e-05 0)
(0.76598457 8.6890079e-05 0)
(0.76590024 8.1168361e-05 0)
(0.76582149 7.5819108e-05 0)
(0.76574792 7.0824277e-05 0)
(0.76567923 6.6151331e-05 0)
(0.76561503 6.1792769e-05 0)
(0.76555511 5.7712651e-05 0)
(0.76549909 5.3916038e-05 0)
(0.76544683 5.0355064e-05 0)
(0.76539794 4.7052694e-05 0)
(0.76535237 4.3938613e-05 0)
(0.7653097 4.1066872e-05 0)
(0.76526997 3.8331468e-05 0)
(0.76523272 3.5839386e-05 0)
(0.76519806 3.3427134e-05 0)
(0.7651656 3.1283385e-05 0)
(0.76513525 2.9153534e-05 0)
(0.7651072 2.7345318e-05 0)
(0.76508012 2.5476602e-05 0)
(0.76505678 2.4020112e-05 0)
(0.76503085 2.2474998e-05 0)
(0.76501472 2.151649e-05 0)
(0.76498394 2.0839778e-05 0)
(1.0014244 0.026824855 0)
(1.0291272 0.062791352 0)
(1.0654292 0.077736553 0)
(1.098962 0.080597201 0)
(1.1253149 0.078285172 0)
(1.145053 0.0731539 0)
(1.1594858 0.066111279 0)
(1.1694287 0.058162063 0)
(1.1755354 0.050296754 0)
(1.1785738 0.043150707 0)
(1.1793571 0.036972824 0)
(1.1785949 0.031771631 0)
(1.1768304 0.027451839 0)
(1.1744518 0.023886768 0)
(1.1717287 0.02094762 0)
(1.1688444 0.018515781 0)
(1.1659195 0.016488086 0)
(1.1630317 0.014779504 0)
(1.1602295 0.013322985 0)
(1.1575415 0.012067132 0)
(1.1549828 0.010972999 0)
(1.1525601 0.01001106 0)
(1.1502747 0.0091587455 0)
(1.1481246 0.0083986035 0)
(1.1461059 0.0077169507 0)
(1.1442134 0.0071028892 0)
(1.1424414 0.0065475933 0)
(1.1407838 0.0060437968 0)
(1.1392344 0.005585427 0)
(1.1377869 0.0051673446 0)
(1.1364353 0.004785156 0)
(1.1351738 0.0044350746 0)
(1.1339968 0.004113815 0)
(1.1328987 0.0038185117 0)
(1.1318746 0.0035466528 0)
(1.1309195 0.0032960282 0)
(1.1300289 0.0030646851 0)
(1.1291985 0.0028508928 0)
(1.1284242 0.002653112 0)
(1.1277022 0.0024699691 0)
(1.1270291 0.0023002348 0)
(1.1264014 0.002142805 0)
(1.1258161 0.0019966856 0)
(1.1252702 0.0018609786 0)
(1.1247612 0.0017348703 0)
(1.1242865 0.0016176218 0)
(1.1238437 0.0015085602 0)
(1.1234307 0.0014070717 0)
(1.1230455 0.0013125951 0)
(1.1226861 0.0012246163 0)
(1.1223509 0.0011426641 0)
(1.1220381 0.0010663051 0)
(1.1217462 0.00099514095 0)
(1.1214739 0.00092880403 0)
(1.1212198 0.00086695504 0)
(1.1209827 0.00080928012 0)
(1.1207614 0.00075548873 0)
(1.1205548 0.00070531166 0)
(1.1203621 0.00065849953 0)
(1.1201821 0.00061482125 0)
(1.1200142 0.00057406279 0)
(1.1198574 0.00053602565 0)
(1.1197111 0.00050052581 0)
(1.1195745 0.00046739193 0)
(1.1194469 0.0004364647 0)
(1.1193278 0.00040759514 0)
(1.1192167 0.00038064459 0)
(1.1191129 0.00035548318 0)
(1.119016 0.00033199057 0)
(1.1189255 0.00031005421 0)
(1.118841 0.00028957087 0)
(1.1187621 0.0002704433 0)
(1.1186884 0.00025258341 0)
(1.1186197 0.00023590582 0)
(1.1185554 0.00022033479 0)
(1.1184954 0.00020579318 0)
(1.1184394 0.00019221631 0)
(1.1183871 0.00017953292 0)
(1.1183382 0.00016769087 0)
(1.1182926 0.00015662293 0)
(1.11825 0.00014629332 0)
(1.1182102 0.00013663349 0)
(1.118173 0.00012762836 0)
(1.1181384 0.00011919752 0)
(1.1181059 0.00011135469 0)
(1.1180757 0.00010399052 0)
(1.1180473 9.716658e-05 0)
(1.1180211 9.071742e-05 0)
(1.1179962 8.4791289e-05 0)
(1.1179734 7.9117546e-05 0)
(1.1179516 7.4001132e-05 0)
(1.1179319 6.8971747e-05 0)
(1.1179128 6.4618529e-05 0)
(1.1178955 6.0095817e-05 0)
(1.117879 5.6516145e-05 0)
(1.1178636 5.2341233e-05 0)
(1.1178501 4.9650544e-05 0)
(1.117835 4.566749e-05 0)
(1.1178263 4.4173355e-05 0)
(1.1178085 4.0345506e-05 0)
(1.0007347 0.011814722 0)
(1.0178472 0.030860927 0)
(1.0462163 0.041434442 0)
(1.0799018 0.045193571 0)
(1.1132664 0.045502352 0)
(1.143782 0.044080309 0)
(1.1708941 0.041439982 0)
(1.1945687 0.037973677 0)
(1.2148582 0.034195728 0)
(1.2319652 0.030536885 0)
(1.2462683 0.027222043 0)
(1.2582339 0.02431392 0)
(1.2683135 0.021797888 0)
(1.2768875 0.019633661 0)
(1.2842554 0.017773828 0)
(1.2906479 0.016169653 0)
(1.296243 0.01477559 0)
(1.3011791 0.013552297 0)
(1.3055645 0.012467862 0)
(1.3094838 0.011497464 0)
(1.3130042 0.01062216 0)
(1.3161792 0.009827512 0)
(1.3190526 0.0091024109 0)
(1.3216607 0.0084381779 0)
(1.3240343 0.0078279059 0)
(1.3261995 0.0072659768 0)
(1.3281786 0.0067477105 0)
(1.3299913 0.0062691175 0)
(1.3316544 0.0058267268 0)
(1.3331829 0.0054174715 0)
(1.3345896 0.0050386098 0)
(1.3358862 0.0046876714 0)
(1.3370827 0.0043624181 0)
(1.3381882 0.0040608147 0)
(1.3392108 0.003781006 0)
(1.3401576 0.0035212978 0)
(1.3410349 0.0032801414 0)
(1.3418486 0.0030561197 0)
(1.3426038 0.0028479345 0)
(1.3433051 0.0026543963 0)
(1.3439569 0.0024744133 0)
(1.3445629 0.0023069829 0)
(1.3451267 0.0021511833 0)
(1.3456513 0.002006166 0)
(1.3461398 0.0018711493 0)
(1.3465947 0.0017454128 0)
(1.3470185 0.0016282919 0)
(1.3474135 0.0015191729 0)
(1.3477816 0.0014174897 0)
(1.3481249 0.001322719 0)
(1.3484449 0.0012343767 0)
(1.3487435 0.001152015 0)
(1.349022 0.0010752188 0)
(1.3492818 0.0010036027 0)
(1.3495242 0.00093680906 0)
(1.3497505 0.00087450546 0)
(1.3499616 0.00081638322 0)
(1.3501587 0.00076215567 0)
(1.3503427 0.00071155711 0)
(1.3505145 0.00066434114 0)
(1.3506748 0.00062027919 0)
(1.3508245 0.00057915866 0)
(1.3509643 0.00054078186 0)
(1.3510948 0.00050496388 0)
(1.3512167 0.00047153196 0)
(1.3513305 0.00044032429 0)
(1.3514368 0.00041119049 0)
(1.3515361 0.00038398988 0)
(1.3516288 0.00035859314 0)
(1.3517153 0.00033487963 0)
(1.3517962 0.00031273921 0)
(1.3518717 0.00029206718 0)
(1.3519422 0.00027276875 0)
(1.3520081 0.00025475051 0)
(1.3520696 0.00023792946 0)
(1.3521271 0.00022221978 0)
(1.3521807 0.00020755154 0)
(1.3522309 0.00019384592 0)
(1.3522777 0.00018104958 0)
(1.3523215 0.00016908851 0)
(1.3523623 0.00015792999 0)
(1.3524005 0.00014749489 0)
(1.352436 0.00013777534 0)
(1.3524695 0.00012867082 0)
(1.3525004 0.00012021162 0)
(1.3525297 0.00011225247 0)
(1.3525565 0.00010489505 0)
(1.3525822 9.7910115e-05 0)
(1.3526054 9.1530958e-05 0)
(1.3526281 8.5367489e-05 0)
(1.352648 7.9889471e-05 0)
(1.3526684 7.439721e-05 0)
(1.352685 6.9787652e-05 0)
(1.3527036 6.4791924e-05 0)
(1.352717 6.1073715e-05 0)
(1.3527348 5.6365103e-05 0)
(1.3527446 5.3660589e-05 0)
(1.3527627 4.9017242e-05 0)
(1.3527682 4.757166e-05 0)
(1.3527886 4.2762947e-05 0)
(1.0005903 0.0034629165 0)
(1.0136865 0.0093660207 0)
(1.0370283 0.013046807 0)
(1.0674202 0.014563262 0)
(1.1000315 0.014854526 0)
(1.1316428 0.014564991 0)
(1.1610745 0.013888338 0)
(1.1880674 0.012919244 0)
(1.2125205 0.011806505 0)
(1.2343939 0.010696426 0)
(1.2538077 0.0096727415 0)
(1.2710339 0.0087628225 0)
(1.286401 0.0079659749 0)
(1.3002112 0.0072722162 0)
(1.3127102 0.0066688099 0)
(1.3240903 0.0061419259 0)
(1.3345036 0.0056780717 0)
(1.3440716 0.0052653195 0)
(1.3528927 0.004893933 0)
(1.3610463 0.0045563938 0)
(1.3685975 0.0042470685 0)
(1.3756004 0.0039617758 0)
(1.3821012 0.0036973987 0)
(1.3881402 0.0034515846 0)
(1.3937533 0.0032225209 0)
(1.3989728 0.0030087717 0)
(1.403828 0.0028091587 0)
(1.4083456 0.0026226786 0)
(1.4125503 0.0024484479 0)
(1.4164646 0.0022856683 0)
(1.4201094 0.0021336052 0)
(1.423504 0.0019915747 0)
(1.426666 0.0018589361 0)
(1.4296121 0.0017350871 0)
(1.4323573 0.001619461 0)
(1.4349159 0.0015115242 0)
(1.4373007 0.0014107752 0)
(1.4395241 0.001316743 0)
(1.441597 0.0012289856 0)
(1.4435301 0.0011470886 0)
(1.4453328 0.0010706639 0)
(1.4470143 0.0009993477 0)
(1.4485827 0.00093279945 0)
(1.4500459 0.00087070054 0)
(1.451411 0.00081275306 0)
(1.4526846 0.00075867848 0)
(1.4538731 0.00070821701 0)
(1.4549822 0.00066112642 0)
(1.4560172 0.00061718093 0)
(1.4569831 0.00057616998 0)
(1.4578847 0.0005378973 0)
(1.4587262 0.00050217973 0)
(1.4595117 0.00046884583 0)
(1.460245 0.00043773554 0)
(1.4609295 0.00040869921 0)
(1.4615685 0.00038159692 0)
(1.4621651 0.00035629843 0)
(1.4627221 0.00033268274 0)
(1.4632422 0.00031063741 0)
(1.4637278 0.00029005797 0)
(1.4641812 0.00027084725 0)
(1.4646045 0.00025291478 0)
(1.4649998 0.00023617526 0)
(1.4653689 0.00022054878 0)
(1.4657136 0.00020596031 0)
(1.4660355 0.00019233933 0)
(1.4663361 0.00017962032 0)
(1.4666168 0.00016774264 0)
(1.466879 0.00015665089 0)
(1.4671238 0.00014629331 0)
(1.4673524 0.00013662271 0)
(1.467566 0.00012759439 0)
(1.4677654 0.00011916666 0)
(1.4679516 0.0001112982 0)
(1.4681256 0.00010395214 0)
(1.468288 9.7090126e-05 0)
(1.4684397 9.068137e-05 0)
(1.4685815 8.4691261e-05 0)
(1.4687138 7.9098309e-05 0)
(1.4688375 7.3869862e-05 0)
(1.4689529 6.8994105e-05 0)
(1.4690608 6.4434929e-05 0)
(1.4691614 6.0191586e-05 0)
(1.4692557 5.6214742e-05 0)
(1.4693433 5.2522965e-05 0)
(1.4694257 4.904306e-05 0)
(1.4695019 4.5831039e-05 0)
(1.4695742 4.2770922e-05 0)
(1.4696402 3.9988372e-05 0)
(1.4697038 3.728296e-05 0)
(1.4697606 3.4902085e-05 0)
(1.4698172 3.2487106e-05 0)
(1.4698653 3.0496894e-05 0)
(1.4699166 2.8289985e-05 0)
(1.469956 2.6697949e-05 0)
(1.4700043 2.4602291e-05 0)
(1.4700339 2.3454761e-05 0)
(1.4700828 2.137125e-05 0)
(1.4700998 2.0759293e-05 0)
(1.4701551 1.8576566e-05 0)
(1.0005903 -0.003462915 0)
(1.0136865 -0.0093660182 0)
(1.0370283 -0.013046805 0)
(1.0674202 -0.01456326 0)
(1.1000315 -0.014854525 0)
(1.1316428 -0.014564992 0)
(1.1610745 -0.013888339 0)
(1.1880674 -0.012919247 0)
(1.2125205 -0.011806507 0)
(1.2343939 -0.010696426 0)
(1.2538077 -0.0096727407 0)
(1.2710339 -0.0087628203 0)
(1.286401 -0.0079659722 0)
(1.3002112 -0.007272214 0)
(1.3127102 -0.0066688091 0)
(1.3240903 -0.0061419269 0)
(1.3345036 -0.0056780743 0)
(1.3440716 -0.0052653229 0)
(1.3528927 -0.0048939364 0)
(1.3610463 -0.004556396 0)
(1.3685975 -0.0042470688 0)
(1.3756004 -0.0039617741 0)
(1.3821012 -0.0036973956 0)
(1.3881402 -0.0034515809 0)
(1.3937533 -0.0032225178 0)
(1.3989728 -0.0030087703 0)
(1.403828 -0.0028091593 0)
(1.4083456 -0.002622681 0)
(1.4125503 -0.0024484513 0)
(1.4164646 -0.0022856716 0)
(1.4201094 -0.0021336072 0)
(1.423504 -0.0019915748 0)
(1.426666 -0.0018589342 0)
(1.4296121 -0.0017350839 0)
(1.4323573 -0.0016194573 0)
(1.4349159 -0.0015115213 0)
(1.4373007 -0.0014107741 0)
(1.4395241 -0.001316744 0)
(1.441597 -0.0012289883 0)
(1.4435301 -0.0011470921 0)
(1.4453328 -0.0010706668 0)
(1.4470143 -0.00099934883 0)
(1.4485827 -0.00093279828 0)
(1.4500459 -0.00087069731 0)
(1.451411 -0.00081274853 0)
(1.4526846 -0.00075867414 0)
(1.4538731 -0.00070821429 0)
(1.4549822 -0.00066112609 0)
(1.4560172 -0.00061718291 0)
(1.4569831 -0.00057617341 0)
(1.4578847 -0.00053790068 0)
(1.4587262 -0.00050218131 0)
(1.4595117 -0.0004688446 0)
(1.460245 -0.00043773141 0)
(1.4609295 -0.00040869296 0)
(1.4615685 -0.00038159044 0)
(1.4621651 -0.00035629381 0)
(1.4627221 -0.00033268128 0)
(1.4632422 -0.00031063934 0)
(1.4637278 -0.00029006226 0)
(1.4641812 -0.00027085198 0)
(1.4646045 -0.00025291726 0)
(1.4649998 -0.00023617384 0)
(1.4653689 -0.00022054309 0)
(1.4657136 -0.00020595137 0)
(1.4660355 -0.00019232953 0)
(1.4663361 -0.00017961275 0)
(1.4666168 -0.00016773943 0)
(1.466879 -0.00015665252 0)
(1.4671238 -0.00014629851 0)
(1.4673524 -0.00013662902 0)
(1.467566 -0.00012759809 0)
(1.4677654 -0.00011916539 0)
(1.4679516 -0.00011129136 0)
(1.4681256 -0.0001039413 0)
(1.468288 -9.7078382e-05 0)
(1.4684398 -9.0672834e-05 0)
(1.4685815 -8.4688759e-05 0)
(1.4687138 -7.9102391e-05 0)
(1.4688375 -7.3878801e-05 0)
(1.4689529 -6.9004585e-05 0)
(1.4690608 -6.4442641e-05 0)
(1.4691614 -6.0193835e-05 0)
(1.4692557 -5.6211261e-05 0)
(1.4693433 -5.2516017e-05 0)
(1.4694257 -4.9036483e-05 0)
(1.4695019 -4.5829562e-05 0)
(1.4695742 -4.2776841e-05 0)
(1.4696402 -4.0001586e-05 0)
(1.4697038 -3.7301603e-05 0)
(1.4697606 -3.4921489e-05 0)
(1.4698171 -3.2502922e-05 0)
(1.4698653 -3.0507209e-05 0)
(1.4699166 -2.8295232e-05 0)
(1.469956 -2.6700686e-05 0)
(1.4700043 -2.4605905e-05 0)
(1.4700339 -2.3464585e-05 0)
(1.4700828 -2.1383878e-05 0)
(1.4700998 -2.0777018e-05 0)
(1.4701551 -1.8592355e-05 0)
(1.0007347 -0.011814721 0)
(1.0178472 -0.030860925 0)
(1.0462163 -0.04143444 0)
(1.0799018 -0.04519357 0)
(1.1132664 -0.045502352 0)
(1.143782 -0.044080309 0)
(1.1708941 -0.041439983 0)
(1.1945687 -0.037973678 0)
(1.2148582 -0.034195728 0)
(1.2319652 -0.030536885 0)
(1.2462683 -0.027222042 0)
(1.2582339 -0.024313919 0)
(1.2683135 -0.021797887 0)
(1.2768875 -0.01963366 0)
(1.2842554 -0.017773828 0)
(1.2906479 -0.016169654 0)
(1.296243 -0.014775592 0)
(1.3011791 -0.013552299 0)
(1.3055645 -0.012467864 0)
(1.3094838 -0.011497464 0)
(1.3130042 -0.010622159 0)
(1.3161792 -0.0098275107 0)
(1.3190526 -0.009102409 0)
(1.3216607 -0.008438176 0)
(1.3240343 -0.0078279046 0)
(1.3261995 -0.0072659763 0)
(1.3281786 -0.0067477111 0)
(1.3299913 -0.0062691189 0)
(1.3316544 -0.0058267286 0)
(1.3331829 -0.005417473 0)
(1.3345896 -0.0050386106 0)
(1.3358862 -0.0046876711 0)
(1.3370827 -0.0043624168 0)
(1.3381883 -0.0040608128 0)
(1.3392108 -0.003781004 0)
(1.3401576 -0.0035212964 0)
(1.3410349 -0.003280141 0)
(1.3418486 -0.0030561203 0)
(1.3426038 -0.002847936 0)
(1.3433051 -0.0026543979 0)
(1.3439569 -0.0024744144 0)
(1.3445629 -0.0023069831 0)
(1.3451267 -0.0021511822 0)
(1.3456513 -0.0020061638 0)
(1.3461398 -0.0018711468 0)
(1.3465947 -0.0017454106 0)
(1.3470185 -0.0016282904 0)
(1.3474135 -0.0015191727 0)
(1.3477816 -0.0014174906 0)
(1.3481249 -0.0013227203 0)
(1.3484449 -0.0012343777 0)
(1.3487435 -0.0011520151 0)
(1.349022 -0.0010752174 0)
(1.3492818 -0.0010035999 0)
(1.3495242 -0.0009368055 0)
(1.3497505 -0.00087450199 0)
(1.3499617 -0.00081638068 0)
(1.3501587 -0.00076215471 0)
(1.3503427 -0.0007115577 0)
(1.3505145 -0.0006643426 0)
(1.3506748 -0.0006202804 0)
(1.3508245 -0.00057915873 0)
(1.3509643 -0.00054077998 0)
(1.3510948 -0.00050495992 0)
(1.3512167 -0.00047152665 0)
(1.3513305 -0.00044031889 0)
(1.3514368 -0.00041118615 0)
(1.3515361 -0.00038398763 0)
(1.3516288 -0.0003585932 0)
(1.3517153 -0.00033488127 0)
(1.3517962 -0.00031274089 0)
(1.3518717 -0.00029206769 0)
(1.3519422 -0.00027276689 0)
(1.3520081 -0.00025474598 0)
(1.3520696 -0.00023792306 0)
(1.3521271 -0.00022221337 0)
(1.3521808 -0.00020754672 0)
(1.3522309 -0.00019384416 0)
(1.3522777 -0.0001810514 0)
(1.3523215 -0.00016909307 0)
(1.3523623 -0.00015793545 0)
(1.3524005 -0.00014749943 0)
(1.352436 -0.00013777759 0)
(1.3524695 -0.00012867051 0)
(1.3525004 -0.00012020985 0)
(1.3525297 -0.00011225133 0)
(1.3525565 -0.0001048963 0)
(1.3525822 -9.7915354e-05 0)
(1.3526054 -9.1540642e-05 0)
(1.3526281 -8.5379835e-05 0)
(1.352648 -7.9903125e-05 0)
(1.3526683 -7.4410178e-05 0)
(1.352685 -6.9798772e-05 0)
(1.3527036 -6.480071e-05 0)
(1.352717 -6.1081498e-05 0)
(1.3527348 -5.6372792e-05 0)
(1.3527446 -5.3670745e-05 0)
(1.3527627 -4.9028759e-05 0)
(1.3527682 -4.7586701e-05 0)
(1.3527886 -4.2779106e-05 0)
(1.0014244 -0.026824854 0)
(1.0291272 -0.062791351 0)
(1.0654292 -0.077736552 0)
(1.098962 -0.080597201 0)
(1.1253149 -0.078285172 0)
(1.145053 -0.073153901 0)
(1.1594858 -0.066111279 0)
(1.1694287 -0.058162063 0)
(1.1755354 -0.050296753 0)
(1.1785738 -0.043150707 0)
(1.1793571 -0.036972824 0)
(1.178595 -0.031771632 0)
(1.1768304 -0.02745184 0)
(1.1744518 -0.023886769 0)
(1.1717287 -0.020947621 0)
(1.1688444 -0.018515782 0)
(1.1659195 -0.016488086 0)
(1.1630317 -0.014779503 0)
(1.1602295 -0.013322985 0)
(1.1575415 -0.012067132 0)
(1.1549828 -0.010972999 0)
(1.1525601 -0.01001106 0)
(1.1502747 -0.0091587459 0)
(1.1481246 -0.008398604 0)
(1.1461059 -0.0077169509 0)
(1.1442134 -0.0071028891 0)
(1.1424414 -0.0065475929 0)
(1.1407838 -0.0060437962 0)
(1.1392344 -0.0055854264 0)
(1.1377869 -0.0051673442 0)
(1.1364353 -0.004785156 0)
(1.1351738 -0.0044350748 0)
(1.1339968 -0.0041138155 0)
(1.1328987 -0.0038185121 0)
(1.1318746 -0.0035466531 0)
(1.1309195 -0.0032960281 0)
(1.1300289 -0.0030646847 0)
(1.1291985 -0.0028508921 0)
(1.1284242 -0.0026531111 0)
(1.1277022 -0.0024699683 0)
(1.1270291 -0.0023002343 0)
(1.1264014 -0.0021428049 0)
(1.1258161 -0.001996686 0)
(1.1252702 -0.0018609791 0)
(1.1247612 -0.0017348707 0)
(1.1242865 -0.0016176218 0)
(1.1238437 -0.0015085596 0)
(1.1234307 -0.0014070706 0)
(1.1230455 -0.0013125935 0)
(1.1226861 -0.0012246147 0)
(1.1223509 -0.0011426628 0)
(1.1220381 -0.0010663044 0)
(1.1217462 -0.00099514091 0)
(1.1214739 -0.00092880447 0)
(1.1212198 -0.00086695557 0)
(1.1209827 -0.00080928025 0)
(1.1207614 -0.00075548803 0)
(1.1205548 -0.00070531001 0)
(1.1203621 -0.00065849712 0)
(1.1201821 -0.00061481863 0)
(1.1200142 -0.00057406059 0)
(1.1198574 -0.00053602439 0)
(1.1197111 -0.00050052561 0)
(1.1195745 -0.00046739251 0)
(1.1194469 -0.00043646538 0)
(1.1193279 -0.00040759515 0)
(1.1192167 -0.0003806433 0)
(1.1191129 -0.00035548044 0)
(1.119016 -0.00033198682 0)
(1.1189255 -0.00031005036 0)
(1.118841 -0.00028956795 0)
(1.1187621 -0.00027044201 0)
(1.1186885 -0.00025258381 0)
(1.1186197 -0.00023590736 0)
(1.1185554 -0.00022033635 0)
(1.1184955 -0.00020579372 0)
(1.1184394 -0.00019221506 0)
(1.1183871 -0.00017953001 0)
(1.1183382 -0.00016768734 0)
(1.1182926 -0.00015662019 0)
(1.11825 -0.00014629265 0)
(1.1182103 -0.00013663564 0)
(1.1181731 -0.000127633 0)
(1.1181384 -0.00011920354 0)
(1.1181059 -0.0001113604 0)
(1.1180757 -0.00010399462 0)
(1.1180473 -9.7168655e-05 0)
(1.1180211 -9.0718254e-05 0)
(1.1179962 -8.4792502e-05 0)
(1.1179734 -7.9120781e-05 0)
(1.1179516 -7.4007606e-05 0)
(1.1179319 -6.8981411e-05 0)
(1.1179128 -6.4630283e-05 0)
(1.1178955 -6.0107609e-05 0)
(1.117879 -5.6526577e-05 0)
(1.1178636 -5.2349037e-05 0)
(1.1178501 -4.9656774e-05 0)
(1.117835 -4.5672438e-05 0)
(1.1178262 -4.4181522e-05 0)
(1.1178085 -4.0358817e-05 0)
(1.0016583 -0.05381943 0)
(1.0359761 -0.10128444 0)
(1.0597199 -0.11073663 0)
(1.0628947 -0.10592202 0)
(1.0515569 -0.096228728 0)
(1.0340529 -0.083934061 0)
(1.0142795 -0.070327063 0)
(0.99360703 -0.056981333 0)
(0.97292577 -0.045107479 0)
(0.9531074 -0.03523675 0)
(0.93479539 -0.02740165 0)
(0.91829012 -0.021387227 0)
(0.90362379 -0.016884498 0)
(0.89068067 -0.013569709 0)
(0.87928174 -0.011147749 0)
(0.86923241 -0.0093736596 0)
(0.86034423 -0.0080569292 0)
(0.85244667 -0.0070571285 0)
(0.84539242 -0.006275239 0)
(0.83905793 -0.0056438285 0)
(0.83334127 -0.0051180901 0)
(0.82815884 -0.0046686708 0)
(0.82344212 -0.0042764157 0)
(0.81913467 -0.0039287375 0)
(0.81518961 -0.003617203 0)
(0.81156765 -0.0033359708 0)
(0.80823544 -0.0030808051 0)
(0.8051644 -0.0028484703 0)
(0.80232979 -0.0026363703 0)
(0.79970999 -0.0024423388 0)
(0.79728597 -0.0022645182 0)
(0.79504086 -0.0021012885 0)
(0.79295963 -0.0019512236 0)
(0.7910288 -0.0018130615 0)
(0.78923627 -0.0016856828 0)
(0.7875711 -0.0015680928 0)
(0.78602338 -0.0014594069 0)
(0.78458412 -0.0013588376 0)
(0.78324511 -0.0012656821 0)
(0.78199889 -0.0011793128 0)
(0.78083861 -0.0010991671 0)
(0.77975799 -0.00102474 0)
(0.77875128 -0.00095557658 0)
(0.77781318 -0.00089126576 0)
(0.77693881 -0.00083143508 0)
(0.77612368 -0.00077574594 0)
(0.77536362 -0.00072388972 0)
(0.77465481 -0.0006755844 0)
(0.77399368 -0.00063057177 0)
(0.77337694 -0.00058861493 0)
(0.77280154 -0.00054949626 0)
(0.77226464 -0.00051301556 0)
(0.77176363 -0.0004789883 0)
(0.77129607 -0.00044724416 0)
(0.77085967 -0.0004176256 0)
(0.77045234 -0.00038998663 0)
(0.77007212 -0.00036419182 0)
(0.76971717 -0.00034011531 0)
(0.76938581 -0.00031764019 0)
(0.76907645 -0.00029665783 0)
(0.76878761 -0.00027706741 0)
(0.76851792 -0.00025877539 0)
(0.7682661 -0.00024169498 0)
(0.76803096 -0.00022574555 0)
(0.7678114 -0.00021085207 0)
(0.76760636 -0.00019694434 0)
(0.76741489 -0.00018395683 0)
(0.76723608 -0.00017182783 0)
(0.7670691 -0.00016049996 0)
(0.76691316 -0.00014991921 0)
(0.76676752 -0.00014003602 0)
(0.76663151 -0.00013080378 0)
(0.76650447 -0.00012218043 0)
(0.76638583 -0.00011412554 0)
(0.76627502 -0.0001066034 0)
(0.76617153 -9.9577629e-05 0)
(0.76607486 -9.3017558e-05 0)
(0.76598459 -8.688904e-05 0)
(0.76590026 -8.1166664e-05 0)
(0.76582151 -7.5817595e-05 0)
(0.76574794 -7.0823674e-05 0)
(0.76567925 -6.6152236e-05 0)
(0.76561505 -6.1795183e-05 0)
(0.76555513 -5.7715988e-05 0)
(0.7654991 -5.3919547e-05 0)
(0.76544684 -5.0357857e-05 0)
(0.76539795 -4.7054425e-05 0)
(0.76535238 -4.3939444e-05 0)
(0.7653097 -4.1067469e-05 0)
(0.76526998 -3.8332774e-05 0)
(0.76523272 -3.5841998e-05 0)
(0.76519806 -3.3431253e-05 0)
(0.7651656 -3.1288608e-05 0)
(0.76513524 -2.9158804e-05 0)
(0.76510719 -2.7350061e-05 0)
(0.7650801 -2.5480254e-05 0)
(0.76505676 -2.4023262e-05 0)
(0.76503082 -2.2477793e-05 0)
(0.76501469 -2.1522238e-05 0)
(0.7649839 -2.0849785e-05 0)
(0.91890839 -0.035821913 0)
(0.86271384 -0.062195638 0)
(0.7870597 -0.062510091 0)
(0.69536033 -0.054550395 0)
(0.61089744 -0.044531651 0)
(0.54411592 -0.034015972 0)
(0.49343012 -0.02418754 0)
(0.45479413 -0.01614423 0)
(0.42544582 -0.010265785 0)
(0.40347313 -0.0063041443 0)
(0.38715766 -0.0037976283 0)
(0.3749622 -0.0023103373 0)
(0.36566192 -0.0014930147 0)
(0.35836272 -0.0010851188 0)
(0.35244267 -0.00090607347 0)
(0.34748201 -0.00084105303 0)
(0.34320348 -0.00082372513 0)
(0.33942726 -0.00081931075 0)
(0.33603793 -0.00081185158 0)
(0.33296114 -0.00079580022 0)
(0.33014778 -0.00077081022 0)
(0.32756384 -0.00073870842 0)
(0.3251842 -0.00070188879 0)
(0.32298902 -0.00066256586 0)
(0.32096172 -0.00062250043 0)
(0.31908785 -0.00058295868 0)
(0.31735449 -0.00054477279 0)
(0.31574995 -0.00050843494 0)
(0.3142636 -0.00047419169 0)
(0.31288574 -0.00044212396 0)
(0.31160755 -0.00041220828 0)
(0.31042101 -0.00038436029 0)
(0.30931883 -0.0003584639 0)
(0.30829438 -0.00033438986 0)
(0.30734165 -0.000312007 0)
(0.30645515 -0.00029118859 0)
(0.30562991 -0.00027181559 0)
(0.30486136 -0.00025377799 0)
(0.30414535 -0.00023697503 0)
(0.30347807 -0.00022131475 0)
(0.30285601 -0.00020671331 0)
(0.30227596 -0.00019309414 0)
(0.30173496 -0.00018038711 0)
(0.30123029 -0.0001685278 0)
(0.30075942 -0.00015745686 0)
(0.30032002 -0.00014711955 0)
(0.29990993 -0.00013746533 0)
(0.29952715 -0.00012844756 0)
(0.29916983 -0.00012002321 0)
(0.29883624 -0.00011215256 0)
(0.29852478 -0.00010479885 0)
(0.29823397 -9.792801e-05 0)
(0.29796241 -9.1508241e-05 0)
(0.29770882 -8.5509794e-05 0)
(0.29747201 -7.9904735e-05 0)
(0.29725084 -7.466685e-05 0)
(0.29704429 -6.9771616e-05 0)
(0.29685138 -6.5196218e-05 0)
(0.2966712 -6.0919583e-05 0)
(0.29650291 -5.6922298e-05 0)
(0.29634572 -5.3186485e-05 0)
(0.2961989 -4.9695539e-05 0)
(0.29606176 -4.6433864e-05 0)
(0.29593366 -4.3386624e-05 0)
(0.29581401 -4.0539631e-05 0)
(0.29570224 -3.7879321e-05 0)
(0.29559784 -3.539293e-05 0)
(0.29550032 -3.3068575e-05 0)
(0.29540922 -3.0895547e-05 0)
(0.29532413 -2.886412e-05 0)
(0.29524465 -2.6965688e-05 0)
(0.2951704 -2.5192137e-05 0)
(0.29510104 -2.3535997e-05 0)
(0.29503625 -2.1989567e-05 0)
(0.29497573 -2.0545655e-05 0)
(0.29491919 -1.9196519e-05 0)
(0.29486638 -1.7935695e-05 0)
(0.29481705 -1.6756121e-05 0)
(0.29477097 -1.5653301e-05 0)
(0.29472793 -1.462133e-05 0)
(0.29468772 -1.3658041e-05 0)
(0.29465016 -1.2757526e-05 0)
(0.29461507 -1.1919236e-05 0)
(0.29458229 -1.1135123e-05 0)
(0.29455167 -1.0406357e-05 0)
(0.29452308 -9.7214766e-06 0)
(0.29449635 -9.0858315e-06 0)
(0.29447141 -8.483984e-06 0)
(0.29444808 -7.9290644e-06 0)
(0.29442632 -7.3995754e-06 0)
(0.29440596 -6.9190009e-06 0)
(0.29438697 -6.4560262e-06 0)
(0.29436921 -6.0450883e-06 0)
(0.29435261 -5.6456466e-06 0)
(0.29433715 -5.2974585e-06 0)
(0.29432251 -4.9734921e-06 0)
(0.29430921 -4.6848481e-06 0)
(0.29429577 -4.5243225e-06 0)
(0.29428509 -4.3883036e-06 0)
(0.29426893 -5.0087468e-06 0)
)
;

boundaryField
{
    top
    {
        type            fixedValue;
        value           uniform (0 0 0);
    }
    inlet
    {
        type            fixedValue;
        value           uniform (1 0 0);
    }
    outlet
    {
        type            zeroGradient;
    }
    bottom
    {
        type            fixedValue;
        value           uniform (0 0 0);
    }
    back
    {
        type            empty;
    }
    front
    {
        type            empty;
    }
}


// ************************************************************************* //
