/*--------------------------------*- C++ -*----------------------------------*\
| =========                 |                                                 |
| \\      /  F ield         | OpenFOAM: The Open Source CFD Toolbox           |
|  \\    /   O peration     | Version:  v1812                                 |
|   \\  /    A nd           | Web:      www.OpenFOAM.com                      |
|    \\/     M anipulation  |                                                 |
\*---------------------------------------------------------------------------*/
FoamFile
{
    version     2.0;
    format      ascii;
    class       volVectorField;
    location    "100";
    object      U;
}
// * * * * * * * * * * * * * * * * * * * * * * * * * * * * * * * * * * * * * //

dimensions      [0 1 -1 0 0 0 0];


internalField   nonuniform List<vector> 
1000
(
(0.92241905 0.034487138 0)
(0.87132478 0.058494328 0)
(0.78815633 0.05621487 0)
(0.69388548 0.045746924 0)
(0.61395329 0.03451106 0)
(0.55015833 0.024456415 0)
(0.49940112 0.016279987 0)
(0.45984778 0.010228166 0)
(0.42978245 0.0061010099 0)
(0.4072318 0.0034637541 0)
(0.39031207 0.0018585095 0)
(0.37749588 0.0009533552 0)
(0.36763737 0.00049217791 0)
(0.35987522 0.00029072983 0)
(0.35358864 0.00022868049 0)
(0.34834773 0.00023298759 0)
(0.34386165 0.00026216433 0)
(0.33993604 0.00029459486 0)
(0.3364416 0.00032052293 0)
(0.33329188 0.00033679845 0)
(0.33042805 0.00034359462 0)
(0.32780871 0.00034247649 0)
(0.32540347 0.00033535655 0)
(0.32318887 0.00032400806 0)
(0.32114597 0.00030990896 0)
(0.31925885 0.00029423892 0)
(0.31751377 0.00027791436 0)
(0.31589858 0.00026160909 0)
(0.31440239 0.0002457604 0)
(0.31301536 0.00023059303 0)
(0.31172855 0.00021617401 0)
(0.31053387 0.00020248793 0)
(0.30942401 0.00018950516 0)
(0.30839234 0.00017721732 0)
(0.30743286 0.00016563873 0)
(0.30654011 0.00015478676 0)
(0.30570908 0.00014466078 0)
(0.30493518 0.0001352337 0)
(0.30421422 0.0001264562 0)
(0.30354233 0.00011826958 0)
(0.30291598 0.00011061745 0)
(0.30233193 0.00010345308 0)
(0.30178721 9.6739854e-05 0)
(0.30127908 9.0448776e-05 0)
(0.30080502 8.4554347e-05 0)
(0.30036269 7.9031968e-05 0)
(0.29994994 7.3857902e-05 0)
(0.29956475 6.9008965e-05 0)
(0.29920521 6.4467078e-05 0)
(0.29886954 6.0217551e-05 0)
(0.29855603 5.6255237e-05 0)
(0.29826305 5.2577725e-05 0)
(0.29798905 4.9190454e-05 0)
(0.29773257 4.6094767e-05 0)
(0.29749229 4.329242e-05 0)
(0.29726705 4.0772317e-05 0)
(0.29705586 3.8516232e-05 0)
(0.29685797 3.6487732e-05 0)
(0.29667283 3.4642384e-05 0)
(0.29650015 3.2920239e-05 0)
(0.29633979 3.1263178e-05 0)
(0.29619179 2.9605873e-05 0)
(0.29605623 2.7901768e-05 0)
(0.29593324 2.6103018e-05 0)
(0.29582287 2.4198626e-05 0)
(0.29572507 2.2171874e-05 0)
(0.29563959 2.005748e-05 0)
(0.29556606 1.7864883e-05 0)
(0.29550379 1.5667551e-05 0)
(0.29545208 1.347995e-05 0)
(0.29540989 1.1398541e-05 0)
(0.29537629 9.4152881e-06 0)
(0.29535002 7.6372767e-06 0)
(0.29533014 6.0092795e-06 0)
(0.29531537 4.6495606e-06 0)
(0.29530495 3.4377298e-06 0)
(0.29529766 2.5201314e-06 0)
(0.2952931 1.6963368e-06 0)
(0.29529013 1.1721062e-06 0)
(0.29528878 6.4822405e-07 0)
(0.29528793 4.3262434e-07 0)
(0.29528809 9.7642389e-08 0)
(0.29528803 1.0467026e-07 0)
(0.29528875 -1.4571307e-07 0)
(0.29528879 1.7767138e-08 0)
(0.29528964 -2.2752244e-07 0)
(0.2952895 4.9694151e-08 0)
(0.29529029 -2.3316424e-07 0)
(0.29528995 1.2494582e-07 0)
(0.29529051 -1.8033886e-07 0)
(0.29529014 2.0075463e-07 0)
(0.29529006 -4.8367409e-09 0)
(0.29529008 2.3889898e-07 0)
(0.29528825 4.6786808e-07 0)
(0.29528952 1.3324735e-07 0)
(0.29528371 1.4390236e-06 0)
(0.2952882 -9.9445218e-07 0)
(0.29527646 1.0990984e-06 0)
(0.29528938 -9.703748e-06 0)
(0.29529214 -1.1780953e-05 0)
(1.003271 0.054817095 0)
(1.0472129 0.10100035 0)
(1.066112 0.11153423 0)
(1.0625934 0.10907373 0)
(1.0508094 0.099917528 0)
(1.0345 0.087034603 0)
(1.014893 0.0729258 0)
(0.99382462 0.059367061 0)
(0.97290666 0.047360877 0)
(0.95311343 0.037329024 0)
(0.93493756 0.029286337 0)
(0.91857685 0.023049511 0)
(0.90402628 0.018325296 0)
(0.89116438 0.014797164 0)
(0.87981421 0.012176695 0)
(0.86978459 0.010224575 0)
(0.86089292 0.0087541456 0)
(0.85297562 0.0076262816 0)
(0.84589181 0.0067408044 0)
(0.83952295 0.0060274388 0)
(0.83377058 0.0054378009 0)
(0.82855333 0.004938936 0)
(0.82380388 0.004508433 0)
(0.8194663 0.0041309295 0)
(0.81549387 0.0037957439 0)
(0.81184719 0.003495331 0)
(0.80849275 0.0032242691 0)
(0.80540177 0.0029785591 0)
(0.80254923 0.0027551076 0)
(0.79991323 0.0025513679 0)
(0.79747445 0.0023651297 0)
(0.7952158 0.0021944388 0)
(0.7931221 0.002037593 0)
(0.79117977 0.0018931502 0)
(0.78937664 0.0017599123 0)
(0.78770173 0.0016368769 0)
(0.78614504 0.0015231757 0)
(0.78469752 0.0014180262 0)
(0.78335088 0.001320703 0)
(0.78209757 0.0012305329 0)
(0.78093069 0.0011468971 0)
(0.77984394 0.001069239 0)
(0.77883152 0.00099706084 0)
(0.77788813 0.00092992341 0)
(0.77700887 0.00086743606 0)
(0.77618921 0.0008092554 0)
(0.77542494 0.00075507957 0)
(0.77471215 0.00070464731 0)
(0.77404717 0.00065773564 0)
(0.77342653 0.00061414846 0)
(0.772847 0.00057371284 0)
(0.77230556 0.00053624989 0)
(0.77179942 0.00050157323 0)
(0.77132614 0.00046944868 0)
(0.77088354 0.00043960956 0)
(0.77046989 0.00041172084 0)
(0.7700838 0.00038542429 0)
(0.76972436 0.00036031491 0)
(0.76939094 0.0003360163 0)
(0.76908329 0.00031216071 0)
(0.76880127 0.00028848233 0)
(0.76854493 0.0002647763 0)
(0.76831416 0.00024099653 0)
(0.76810881 0.00021716549 0)
(0.76792834 0.00019347991 0)
(0.76777206 0.00017015029 0)
(0.7676387 0.00014754193 0)
(0.76752696 0.00012592807 0)
(0.76743486 0.00010571649 0)
(0.76736065 8.7093379e-05 0)
(0.76730188 7.0401358e-05 0)
(0.76725675 5.5627117e-05 0)
(0.7672226 4.301045e-05 0)
(0.76719801 3.2289667e-05 0)
(0.76718036 2.3646226e-05 0)
(0.7671689 1.6570462e-05 0)
(0.7671611 1.1292622e-05 0)
(0.76715714 7.0650062e-06 0)
(0.76715443 4.3072936e-06 0)
(0.76715421 2.011912e-06 0)
(0.76715357 9.4390372e-07 0)
(0.76715494 -2.4649117e-07 0)
(0.7671547 -2.7857122e-07 0)
(0.76715663 -9.9824408e-07 0)
(0.76715603 -4.1502869e-07 0)
(0.76715812 -1.0887474e-06 0)
(0.76715698 -1.0130084e-07 0)
(0.76715902 -9.6811401e-07 0)
(0.76715759 3.5117803e-07 0)
(0.76715911 -7.6474721e-07 0)
(0.7671582 8.4971412e-07 0)
(0.76715789 -2.940987e-07 0)
(0.76715937 1.463667e-06 0)
(0.76715387 1.0858759e-06 0)
(0.76716163 2.4658629e-06 0)
(0.76714319 4.7280508e-06 0)
(0.76716458 4.1665985e-06 0)
(0.76711521 1.1114288e-05 0)
(0.7671646 3.7243876e-06 0)
(0.76705792 6.278877e-06 0)
(1.0001503 0.028832875 0)
(1.0314833 0.059420851 0)
(1.0675718 0.071130968 0)
(1.0976325 0.075530464 0)
(1.122939 0.074771643 0)
(1.1433305 0.070076815 0)
(1.1583159 0.063250552 0)
(1.1684315 0.055736678 0)
(1.1746341 0.048415347 0)
(1.1778353 0.041758145 0)
(1.1788249 0.035964083 0)
(1.1782597 0.031054897 0)
(1.1766545 0.026957974 0)
(1.1743937 0.02356078 0)
(1.1717528 0.020743688 0)
(1.1689226 0.018396548 0)
(1.1660319 0.016425377 0)
(1.1631642 0.014753672 0)
(1.1603723 0.013321011 0)
(1.1576877 0.012080553 0)
(1.155128 0.010996313 0)
(1.1527015 0.010040673 0)
(1.1504106 0.0091922754 0)
(1.1482542 0.0084343923 0)
(1.1462287 0.0077537491 0)
(1.1443293 0.0071397118 0)
(1.1425507 0.0065837082 0)
(1.1408869 0.0060787578 0)
(1.1393317 0.0056190602 0)
(1.1378787 0.0051996572 0)
(1.1365219 0.0048162051 0)
(1.1352553 0.0044648634 0)
(1.1340732 0.0041422614 0)
(1.1329703 0.0038454848 0)
(1.1319417 0.0035720401 0)
(1.1309824 0.003319787 0)
(1.1300879 0.0030868568 0)
(1.1292538 0.002871582 0)
(1.1284761 0.0026724489 0)
(1.1277509 0.0024880768 0)
(1.1270747 0.0023172091 0)
(1.1264441 0.0021587124 0)
(1.125856 0.0020115703 0)
(1.1253076 0.0018748781 0)
(1.1247962 0.0017478329 0)
(1.1243192 0.0016297265 0)
(1.1238742 0.0015199367 0)
(1.123459 0.0014179144 0)
(1.1230714 0.0013231703 0)
(1.1227095 0.0012352454 0)
(1.1223714 0.0011536909 0)
(1.1220555 0.0010780235 0)
(1.1217603 0.0010077141 0)
(1.1214847 0.00094214683 0)
(1.1212275 0.0008806446 0)
(1.1209883 0.00082245237 0)
(1.1207665 0.00076681254 0)
(1.1205619 0.00071296976 0)
(1.1203744 0.00066028412 0)
(1.1202041 0.00060822591 0)
(1.1200509 0.00055649774 0)
(1.1199147 0.0005049745 0)
(1.1197951 0.00045381474 0)
(1.1196919 0.0004033122 0)
(1.1196041 0.00035401061 0)
(1.1195309 0.00030645329 0)
(1.1194709 0.00026135303 0)
(1.119423 0.00021923351 0)
(1.1193854 0.0001807317 0)
(1.1193571 0.00014610681 0)
(1.1193359 0.00011576538 0)
(1.1193212 8.9568941e-05 0)
(1.1193107 6.7686766e-05 0)
(1.1193046 4.9571176e-05 0)
(1.1193004 3.5281023e-05 0)
(1.119299 2.3915401e-05 0)
(1.1192976 1.5629423e-05 0)
(1.1192985 9.2125131e-06 0)
(1.1192981 5.1535974e-06 0)
(1.1193 1.8936886e-06 0)
(1.1192993 5.0979e-07 0)
(1.1193016 -1.0745478e-06 0)
(1.1193003 -8.945212e-07 0)
(1.119303 -1.8784807e-06 0)
(1.1193007 -7.6388621e-07 0)
(1.119304 -1.8706799e-06 0)
(1.1193007 -2.9338422e-08 0)
(1.1193046 -1.7516705e-06 0)
(1.1193007 9.4297038e-07 0)
(1.1193047 -1.7649754e-06 0)
(1.119301 2.1748575e-06 0)
(1.1193037 -1.7691742e-06 0)
(1.1193026 4.0377866e-06 0)
(1.1193003 -9.871699e-07 0)
(1.1193067 7.5610966e-06 0)
(1.1192909 3.0931836e-06 0)
(1.1193137 1.5729709e-05 0)
(1.1192656 1.8375994e-05 0)
(1.1193162 3.7738321e-05 0)
(1.1192061 6.6886357e-05 0)
(0.99973847 0.01235542 0)
(1.0184395 0.030251941 0)
(1.0484404 0.03961205 0)
(1.0802132 0.044574128 0)
(1.1117125 0.046231243 0)
(1.1417317 0.04518731 0)
(1.1688992 0.042438568 0)
(1.1926147 0.038841857 0)
(1.2129156 0.034971887 0)
(1.2301011 0.031197141 0)
(1.2445727 0.027728488 0)
(1.2567612 0.024657711 0)
(1.2670716 0.021999839 0)
(1.2758542 0.019726012 0)
(1.283398 0.017787095 0)
(1.2899343 0.016128783 0)
(1.2956458 0.014700004 0)
(1.3006754 0.013456769 0)
(1.3051353 0.012363233 0)
(1.3091138 0.011391241 0)
(1.3126811 0.010519178 0)
(1.3158937 0.0097306241 0)
(1.3187976 0.0090130754 0)
(1.3214308 0.0083568905 0)
(1.3238253 0.0077545086 0)
(1.3260083 0.0071999136 0)
(1.3280033 0.006688262 0)
(1.3298301 0.0062155844 0)
(1.3315062 0.005778525 0)
(1.3330464 0.0053741278 0)
(1.3344638 0.0049996981 0)
(1.3357698 0.0046527499 0)
(1.3369748 0.0043310097 0)
(1.338088 0.0040324345 0)
(1.3391176 0.0037552107 0)
(1.3400709 0.0034977255 0)
(1.3409544 0.0032585227 0)
(1.3417739 0.0030362614 0)
(1.3425344 0.0028296908 0)
(1.3432407 0.0026376399 0)
(1.343897 0.0024590189 0)
(1.3445071 0.0022928223 0)
(1.3450746 0.0021381322 0)
(1.3456027 0.0019941169 0)
(1.3460944 0.0018600298 0)
(1.3465523 0.0017352026 0)
(1.3469788 0.0016190389 0)
(1.3473763 0.0015109984 0)
(1.3477468 0.0014105786 0)
(1.3480924 0.001317285 0)
(1.3484148 0.001230604 0)
(1.3487159 0.0011499688 0)
(1.3489972 0.0010747449 0)
(1.3492602 0.0010042131 0)
(1.3495063 0.00093759608 0)
(1.3497366 0.00087407031 0)
(1.3499521 0.00081284208 0)
(1.3501535 0.00075317277 0)
(1.3503413 0.00069448466 0)
(1.3505159 0.00063636028 0)
(1.3506773 0.00057864584 0)
(1.3508257 0.00052138295 0)
(1.3509609 0.00046489387 0)
(1.3510831 0.00040962453 0)
(1.351192 0.00035623192 0)
(1.3512882 0.00030533938 0)
(1.3513717 0.00025767977 0)
(1.3514434 0.00021376631 0)
(1.3515035 0.00017416434 0)
(1.3515536 0.00013905523 0)
(1.3515938 0.00010871751 0)
(1.3516263 8.2911803e-05 0)
(1.3516508 6.1667987e-05 0)
(1.3516702 4.4355007e-05 0)
(1.3516833 3.091579e-05 0)
(1.351694 2.0403168e-05 0)
(1.3516997 1.289851e-05 0)
(1.3517053 7.1749444e-06 0)
(1.3517063 3.7018985e-06 0)
(1.3517096 8.9817861e-07 0)
(1.3517079 -9.7685138e-08 0)
(1.3517107 -1.4634398e-06 0)
(1.3517071 -1.0171159e-06 0)
(1.3517108 -2.0066036e-06 0)
(1.3517054 -6.2200766e-07 0)
(1.351711 -1.9883079e-06 0)
(1.3517035 3.0316084e-07 0)
(1.3517119 -2.059564e-06 0)
(1.3517014 1.5268067e-06 0)
(1.3517136 -2.4847068e-06 0)
(1.351699 3.1917464e-06 0)
(1.3517164 -3.2097961e-06 0)
(1.3516964 5.7642795e-06 0)
(1.3517207 -3.5160845e-06 0)
(1.351694 1.0320481e-05 0)
(1.3517276 -3.3108762e-07 0)
(1.351693 2.0336484e-05 0)
(1.3517395 1.874664e-05 0)
(1.3516928 5.0321106e-05 0)
(1.3517477 9.5175569e-05 0)
(0.99995388 0.0035944824 0)
(1.0140006 0.0095669618 0)
(1.0391252 0.012868147 0)
(1.0682249 0.014559237 0)
(1.0987449 0.015147454 0)
(1.1293714 0.014873898 0)
(1.158664 0.014054172 0)
(1.185715 0.012960603 0)
(1.2102173 0.011777811 0)
(1.2321785 0.010624559 0)
(1.2517646 0.0095680679 0)
(1.2692271 0.0086360407 0)
(1.2848439 0.0078306434 0)
(1.2988788 0.0071400853 0)
(1.3115636 0.006546864 0)
(1.3230929 0.006032851 0)
(1.3336258 0.0055818924 0)
(1.3432905 0.0051807898 0)
(1.35219 0.0048193618 0)
(1.360408 0.0044900594 0)
(1.3680126 0.004187425 0)
(1.3750609 0.0039075506 0)
(1.381601 0.0036476089 0)
(1.3876747 0.0034054948 0)
(1.393319 0.0031795803 0)
(1.3985669 0.0029685656 0)
(1.4034485 0.0027713871 0)
(1.407991 0.0025871475 0)
(1.4122192 0.0024150531 0)
(1.4161556 0.0022543606 0)
(1.4198209 0.0021043468 0)
(1.4232344 0.0019643049 0)
(1.4264139 0.0018335586 0)
(1.4293762 0.0017114793 0)
(1.4321366 0.0015974936 0)
(1.4347094 0.0014910795 0)
(1.4371078 0.0013917542 0)
(1.4393438 0.0012990634 0)
(1.4414287 0.0012125737 0)
(1.4433728 0.0011318716 0)
(1.4451859 0.0010565653 0)
(1.4468769 0.00098628805 0)
(1.4484542 0.00092070054 0)
(1.4499256 0.00085949221 0)
(1.4512984 0.00080238181 0)
(1.4525794 0.00074911497 0)
(1.4537748 0.00069946237 0)
(1.4548905 0.00065321126 0)
(1.4559322 0.00061015932 0)
(1.456905 0.00057009918 0)
(1.4578137 0.00053281036 0)
(1.458663 0.00049804204 0)
(1.4594567 0.00046551332 0)
(1.4601986 0.00043490439 0)
(1.4608915 0.00040587567 0)
(1.4615379 0.0003780717 0)
(1.4621398 0.00035115996 0)
(1.4626983 0.00032483926 0)
(1.4632143 0.00029888784 0)
(1.4636883 0.00027315906 0)
(1.4641206 0.00024762416 0)
(1.4645116 0.00022233884 0)
(1.4648614 0.0001974751 0)
(1.4651712 0.00017325266 0)
(1.4654418 0.00014997048 0)
(1.4656751 0.00012790544 0)
(1.4658729 0.0001073672 0)
(1.4660383 8.8566246e-05 0)
(1.4661735 7.1722987e-05 0)
(1.4662828 5.6894259e-05 0)
(1.4663682 4.4170245e-05 0)
(1.4664347 3.3425877e-05 0)
(1.4664837 2.4647807e-05 0)
(1.4665204 1.7548443e-05 0)
(1.466545 1.2087409e-05 0)
(1.4665632 7.8476189e-06 0)
(1.4665728 4.8626729e-06 0)
(1.4665809 2.5953443e-06 0)
(1.4665822 1.2653289e-06 0)
(1.466586 1.6924376e-07 0)
(1.466583 -1.5467529e-07 0)
(1.4665861 -7.0455385e-07 0)
(1.4665803 -4.3602787e-07 0)
(1.4665852 -8.88488e-07 0)
(1.4665768 -2.0630906e-07 0)
(1.4665852 -8.9235016e-07 0)
(1.466573 2.3607783e-07 0)
(1.466587 -9.7995025e-07 0)
(1.4665685 8.2154063e-07 0)
(1.4665911 -1.2633533e-06 0)
(1.4665625 1.6307071e-06 0)
(1.4665988 -1.7264833e-06 0)
(1.466554 2.8640267e-06 0)
(1.4666125 -2.0526874e-06 0)
(1.4665423 4.9528938e-06 0)
(1.4666374 -7.9717242e-07 0)
(1.4665297 9.4040785e-06 0)
(1.4666877 8.1225595e-06 0)
(1.4665266 2.3318884e-05 0)
(1.4667641 4.5537568e-05 0)
(0.99995388 -0.0035944824 0)
(1.0140006 -0.0095669618 0)
(1.0391252 -0.012868147 0)
(1.0682249 -0.014559237 0)
(1.0987449 -0.015147454 0)
(1.1293714 -0.014873898 0)
(1.158664 -0.014054172 0)
(1.185715 -0.012960603 0)
(1.2102173 -0.011777812 0)
(1.2321785 -0.010624559 0)
(1.2517646 -0.0095680685 0)
(1.2692271 -0.0086360411 0)
(1.2848439 -0.0078306431 0)
(1.2988788 -0.0071400838 0)
(1.3115636 -0.0065468614 0)
(1.3230929 -0.006032848 0)
(1.3336258 -0.0055818907 0)
(1.3432905 -0.0051807911 0)
(1.35219 -0.0048193667 0)
(1.360408 -0.0044900664 0)
(1.3680126 -0.004187431 0)
(1.3750609 -0.0039075525 0)
(1.381601 -0.0036476055 0)
(1.3876748 -0.0034054869 0)
(1.393319 -0.0031795707 0)
(1.3985669 -0.0029685568 0)
(1.4034485 -0.0027713807 0)
(1.407991 -0.0025871434 0)
(1.4122192 -0.0024150504 0)
(1.4161556 -0.0022543581 0)
(1.4198209 -0.0021043432 0)
(1.4232344 -0.0019642996 0)
(1.4264139 -0.0018335511 0)
(1.4293762 -0.0017114691 0)
(1.4321366 -0.0015974807 0)
(1.4347094 -0.0014910639 0)
(1.4371078 -0.0013917368 0)
(1.4393438 -0.0012990447 0)
(1.4414287 -0.0012125545 0)
(1.4433728 -0.0011318522 0)
(1.4451859 -0.0010565461 0)
(1.4468769 -0.0009862692 0)
(1.4484542 -0.00092068226 0)
(1.4499256 -0.00085947576 0)
(1.4512984 -0.00080236757 0)
(1.4525794 -0.00074910568 0)
(1.4537748 -0.00069945858 0)
(1.4548905 -0.00065321722 0)
(1.4559321 -0.00061017574 0)
(1.4569049 -0.00057013057 0)
(1.4578137 -0.00053285689 0)
(1.4586629 -0.0004981068 0)
(1.4594567 -0.000465596 0)
(1.4601985 -0.00043500567 0)
(1.4608914 -0.0004059948 0)
(1.4615379 -0.00037820612 0)
(1.4621397 -0.00035130845 0)
(1.4626982 -0.0003249969 0)
(1.4632142 -0.00029905382 0)
(1.4636882 -0.00027332759 0)
(1.4641205 -0.00024779493 0)
(1.4645114 -0.00022250648 0)
(1.4648613 -0.00019764014 0)
(1.4651711 -0.00017341154 0)
(1.4654417 -0.00015012439 0)
(1.465675 -0.00012805242 0)
(1.4658728 -0.00010750857 0)
(1.4660382 -8.8701226e-05 0)
(1.4661734 -7.1852809e-05 0)
(1.4662827 -5.7018292e-05 0)
(1.4663681 -4.428928e-05 0)
(1.4664346 -3.353878e-05 0)
(1.4664836 -2.4755121e-05 0)
(1.4665203 -1.764824e-05 0)
(1.4665449 -1.2180332e-05 0)
(1.4665631 -7.9311742e-06 0)
(1.4665727 -4.9380479e-06 0)
(1.4665808 -2.659825e-06 0)
(1.4665822 -1.321014e-06 0)
(1.466586 -2.1371322e-07 0)
(1.4665829 1.1830226e-07 0)
(1.4665861 6.7824368e-07 0)
(1.4665803 4.1574663e-07 0)
(1.4665852 8.7554758e-07 0)
(1.4665768 1.9617163e-07 0)
(1.4665852 8.8633511e-07 0)
(1.4665729 -2.4222459e-07 0)
(1.4665869 9.7600394e-07 0)
(1.4665685 -8.2670002e-07 0)
(1.4665911 1.261204e-06 0)
(1.4665625 -1.6331878e-06 0)
(1.4665988 1.7293057e-06 0)
(1.466554 -2.8592266e-06 0)
(1.4666125 2.0644236e-06 0)
(1.4665423 -4.9359469e-06 0)
(1.4666374 8.1648246e-07 0)
(1.4665297 -9.384653e-06 0)
(1.4666877 -8.1131573e-06 0)
(1.4665266 -2.3320623e-05 0)
(1.4667641 -4.5540966e-05 0)
(0.99973847 -0.01235542 0)
(1.0184395 -0.030251941 0)
(1.0484404 -0.03961205 0)
(1.0802132 -0.044574128 0)
(1.1117125 -0.046231243 0)
(1.1417317 -0.04518731 0)
(1.1688992 -0.042438568 0)
(1.1926147 -0.038841857 0)
(1.2129156 -0.034971887 0)
(1.2301011 -0.031197141 0)
(1.2445727 -0.027728489 0)
(1.2567612 -0.024657711 0)
(1.2670716 -0.021999838 0)
(1.2758542 -0.019726011 0)
(1.283398 -0.017787093 0)
(1.2899343 -0.01612878 0)
(1.2956458 -0.014700003 0)
(1.3006754 -0.013456769 0)
(1.3051353 -0.012363235 0)
(1.3091138 -0.011391245 0)
(1.3126811 -0.010519182 0)
(1.3158937 -0.0097306257 0)
(1.3187976 -0.0090130736 0)
(1.3214308 -0.0083568859 0)
(1.3238253 -0.0077545026 0)
(1.3260083 -0.0071999077 0)
(1.3280033 -0.006688257 0)
(1.3298301 -0.0062155802 0)
(1.3315062 -0.0057785213 0)
(1.3330464 -0.0053741238 0)
(1.3344638 -0.0049996935 0)
(1.3357698 -0.0046527446 0)
(1.3369748 -0.0043310031 0)
(1.338088 -0.0040324261 0)
(1.3391176 -0.0037552002 0)
(1.340071 -0.0034977126 0)
(1.3409545 -0.0032585076 0)
(1.3417739 -0.0030362447 0)
(1.3425344 -0.002829673 0)
(1.3432407 -0.0026376214 0)
(1.343897 -0.0024590001 0)
(1.3445071 -0.0022928032 0)
(1.3450746 -0.0021381134 0)
(1.3456027 -0.0019940986 0)
(1.3460944 -0.0018600134 0)
(1.3465523 -0.001735189 0)
(1.3469788 -0.0016190306 0)
(1.3473763 -0.001510997 0)
(1.3477468 -0.0014105874 0)
(1.3480923 -0.0013173055 0)
(1.3484147 -0.0012306392 0)
(1.3487158 -0.0011500193 0)
(1.348997 -0.0010748122 0)
(1.3492601 -0.0010042966 0)
(1.3495061 -0.00093769539 0)
(1.3497364 -0.00087418354 0)
(1.3499519 -0.00081296668 0)
(1.3501533 -0.00075330653 0)
(1.3503411 -0.00069462401 0)
(1.3505156 -0.00063650376 0)
(1.350677 -0.0005787896 0)
(1.3508254 -0.00052152689 0)
(1.3509606 -0.00046503458 0)
(1.3510827 -0.00040976369 0)
(1.3511917 -0.00035636654 0)
(1.3512879 -0.00030547234 0)
(1.3513714 -0.00025780803 0)
(1.3514431 -0.00021389339 0)
(1.3515032 -0.00017428666 0)
(1.3515533 -0.00013917638 0)
(1.3515935 -0.00010883302 0)
(1.351626 -8.3025132e-05 0)
(1.3516505 -6.1773836e-05 0)
(1.3516699 -4.4456887e-05 0)
(1.3516831 -3.1007911e-05 0)
(1.3516937 -2.0489444e-05 0)
(1.3516994 -1.2973097e-05 0)
(1.351705 -7.242465e-06 0)
(1.3517061 -3.7568198e-06 0)
(1.3517094 -9.461026e-07 0)
(1.3517077 6.1873448e-08 0)
(1.3517105 1.4331401e-06 0)
(1.3517069 9.9706392e-07 0)
(1.3517107 1.9891638e-06 0)
(1.3517053 6.1202378e-07 0)
(1.3517109 1.9774636e-06 0)
(1.3517034 -3.0888589e-07 0)
(1.3517118 2.0504327e-06 0)
(1.3517013 -1.5309184e-06 0)
(1.3517136 2.47692e-06 0)
(1.3516989 -3.1921061e-06 0)
(1.3517164 3.2069417e-06 0)
(1.3516964 -5.7573436e-06 0)
(1.3517207 3.5209841e-06 0)
(1.351694 -1.0309875e-05 0)
(1.3517275 3.4082579e-07 0)
(1.351693 -2.033328e-05 0)
(1.3517395 -1.8749985e-05 0)
(1.3516928 -5.0329733e-05 0)
(1.3517477 -9.5185184e-05 0)
(1.0001503 -0.028832875 0)
(1.0314833 -0.059420851 0)
(1.0675718 -0.071130968 0)
(1.0976325 -0.075530464 0)
(1.122939 -0.074771643 0)
(1.1433305 -0.070076815 0)
(1.1583159 -0.063250552 0)
(1.1684315 -0.055736678 0)
(1.1746341 -0.048415348 0)
(1.1778353 -0.041758146 0)
(1.1788249 -0.035964084 0)
(1.1782597 -0.031054897 0)
(1.1766545 -0.026957974 0)
(1.1743937 -0.023560779 0)
(1.1717528 -0.020743687 0)
(1.1689226 -0.018396546 0)
(1.1660319 -0.016425376 0)
(1.1631642 -0.014753672 0)
(1.1603723 -0.013321013 0)
(1.1576877 -0.012080554 0)
(1.155128 -0.010996315 0)
(1.1527015 -0.010040674 0)
(1.1504106 -0.009192274 0)
(1.1482542 -0.0084343897 0)
(1.1462287 -0.007753746 0)
(1.1443293 -0.0071397097 0)
(1.1425507 -0.0065837071 0)
(1.1408869 -0.006078757 0)
(1.1393317 -0.0056190587 0)
(1.1378787 -0.0051996537 0)
(1.1365219 -0.0048161997 0)
(1.1352553 -0.0044648565 0)
(1.1340732 -0.004142254 0)
(1.1329704 -0.0038454775 0)
(1.1319417 -0.0035720329 0)
(1.1309824 -0.0033197795 0)
(1.1300879 -0.0030868481 0)
(1.1292539 -0.0028715714 0)
(1.1284761 -0.0026724363 0)
(1.127751 -0.0024880619 0)
(1.1270747 -0.0023171924 0)
(1.1264441 -0.0021586937 0)
(1.1258561 -0.0020115508 0)
(1.1253077 -0.001874857 0)
(1.1247962 -0.0017478126 0)
(1.1243192 -0.0016297065 0)
(1.1238742 -0.0015199205 0)
(1.123459 -0.0014179021 0)
(1.1230714 -0.0013231657 0)
(1.1227094 -0.0012352497 0)
(1.1223713 -0.0011537063 0)
(1.1220554 -0.0010780521 0)
(1.1217601 -0.0010077546 0)
(1.1214844 -0.00094220209 0)
(1.1212273 -0.00088070975 0)
(1.120988 -0.00082253077 0)
(1.1207662 -0.00076689677 0)
(1.1205616 -0.00071306364 0)
(1.1203741 -0.00066037986 0)
(1.1202037 -0.00060832749 0)
(1.1200505 -0.00055659911 0)
(1.1199143 -0.0005050791 0)
(1.1197947 -0.00045391937 0)
(1.1196915 -0.00040341889 0)
(1.1196036 -0.00035411874 0)
(1.1195304 -0.00030656305 0)
(1.1194704 -0.00026146534 0)
(1.1194225 -0.0002193467 0)
(1.1193849 -0.00018084692 0)
(1.1193566 -0.0001462212 0)
(1.1193354 -0.00011587958 0)
(1.1193207 -8.967988e-05 0)
(1.1193103 -6.7794141e-05 0)
(1.1193042 -4.9672704e-05 0)
(1.1192999 -3.5375678e-05 0)
(1.1192986 -2.4002267e-05 0)
(1.1192973 -1.5706983e-05 0)
(1.1192982 -9.2814317e-06 0)
(1.1192978 -5.2122772e-06 0)
(1.1192996 -1.9441287e-06 0)
(1.119299 -5.5048892e-07 0)
(1.1193014 1.0406132e-06 0)
(1.1193001 8.6840744e-07 0)
(1.1193028 1.8568059e-06 0)
(1.1193005 7.4728637e-07 0)
(1.1193038 1.8558659e-06 0)
(1.1193006 1.6913968e-08 0)
(1.1193045 1.7393213e-06 0)
(1.1193005 -9.5380057e-07 0)
(1.1193046 1.7550243e-06 0)
(1.1193009 -2.1820199e-06 0)
(1.1193036 1.7663434e-06 0)
(1.1193025 -4.0378002e-06 0)
(1.1193002 9.9273131e-07 0)
(1.1193066 -7.5603964e-06 0)
(1.1192909 -3.0977817e-06 0)
(1.1193137 -1.5742624e-05 0)
(1.1192656 -1.8390681e-05 0)
(1.1193162 -3.7756617e-05 0)
(1.1192061 -6.6902475e-05 0)
(1.003271 -0.054817095 0)
(1.0472129 -0.10100035 0)
(1.066112 -0.11153423 0)
(1.0625934 -0.10907373 0)
(1.0508094 -0.099917527 0)
(1.0345 -0.087034603 0)
(1.014893 -0.0729258 0)
(0.99382462 -0.059367061 0)
(0.97290666 -0.047360877 0)
(0.95311343 -0.037329024 0)
(0.93493756 -0.029286338 0)
(0.91857685 -0.023049511 0)
(0.90402629 -0.018325296 0)
(0.89116439 -0.014797163 0)
(0.87981421 -0.012176694 0)
(0.86978459 -0.010224574 0)
(0.86089291 -0.0087541449 0)
(0.85297561 -0.0076262821 0)
(0.8458918 -0.0067408062 0)
(0.83952295 -0.006027441 0)
(0.8337706 -0.005437802 0)
(0.82855335 -0.0049389346 0)
(0.8238039 -0.0045084288 0)
(0.81946632 -0.0041309243 0)
(0.81549387 -0.0037957407 0)
(0.81184718 -0.0034953318 0)
(0.80849274 -0.0032242742 0)
(0.80540177 -0.0029785657 0)
(0.80254924 -0.0027551122 0)
(0.79991324 -0.0025513674 0)
(0.79747446 -0.0023651236 0)
(0.79521582 -0.002194429 0)
(0.79312211 -0.0020375828 0)
(0.79117978 -0.0018931426 0)
(0.78937666 -0.0017599086 0)
(0.78770175 -0.0016368762 0)
(0.78614507 -0.0015231762 0)
(0.78469755 -0.0014180253 0)
(0.78335091 -0.0013206993 0)
(0.78209761 -0.0012305255 0)
(0.78093074 -0.0011468867 0)
(0.77984399 -0.0010692259 0)
(0.77883158 -0.00099704603 0)
(0.77788819 -0.00092990709 0)
(0.77700892 -0.00086741882 0)
(0.77618925 -0.0008092377 0)
(0.77542497 -0.00075506176 0)
(0.77471217 -0.00070463069 0)
(0.77404716 -0.0006577204 0)
(0.7734265 -0.00061413716 0)
(0.77284694 -0.00057370562 0)
(0.77230546 -0.00053625 0)
(0.7717993 -0.00050157979 0)
(0.77132598 -0.00046946439 0)
(0.77088336 -0.00043963249 0)
(0.77046968 -0.00041175288 0)
(0.77008357 -0.0003854629 0)
(0.7697241 -0.00036036071 0)
(0.76939066 -0.00033606665 0)
(0.76908299 -0.00031221538 0)
(0.76880095 -0.00028853986 0)
(0.76854459 -0.00026483615 0)
(0.7683138 -0.00024105862 0)
(0.76810843 -0.00021722895 0)
(0.76792794 -0.000193546 0)
(0.76777164 -0.000170218 0)
(0.76763827 -0.00014761325 0)
(0.76752652 -0.00012600131 0)
(0.76743441 -0.00010579351 0)
(0.7673602 -8.7171838e-05 0)
(0.76730142 -7.0482671e-05 0)
(0.76725629 -5.5708267e-05 0)
(0.76722215 -4.309226e-05 0)
(0.76719757 -3.2368928e-05 0)
(0.76717993 -2.3723501e-05 0)
(0.76716849 -1.6642731e-05 0)
(0.76716071 -1.1360501e-05 0)
(0.76715676 -7.1261622e-06 0)
(0.76715407 -4.3626196e-06 0)
(0.76715388 -2.0598352e-06 0)
(0.76715326 -9.8561421e-07 0)
(0.76715466 2.1157119e-07 0)
(0.76715444 2.4915638e-07 0)
(0.76715639 9.7413068e-07 0)
(0.76715582 3.9504306e-07 0)
(0.76715792 1.0719903e-06 0)
(0.76715681 8.7034822e-08 0)
(0.76715886 9.5538006e-07 0)
(0.76715745 -3.6227312e-07 0)
(0.767159 7.54765e-07 0)
(0.76715811 -8.5674335e-07 0)
(0.76715781 2.8937748e-07 0)
(0.7671593 -1.4659126e-06 0)
(0.7671538 -1.091217e-06 0)
(0.76716155 -2.4798629e-06 0)
(0.76714309 -4.7468467e-06 0)
(0.76716447 -4.1847676e-06 0)
(0.76711511 -1.1117649e-05 0)
(0.76716453 -3.7225061e-06 0)
(0.76705786 -6.2800552e-06 0)
(0.92241905 -0.034487138 0)
(0.87132478 -0.058494328 0)
(0.78815633 -0.05621487 0)
(0.69388548 -0.045746924 0)
(0.61395329 -0.03451106 0)
(0.55015833 -0.024456415 0)
(0.49940112 -0.016279987 0)
(0.45984778 -0.010228166 0)
(0.42978245 -0.0061010099 0)
(0.4072318 -0.0034637544 0)
(0.39031207 -0.0018585102 0)
(0.37749589 -0.0009533561 0)
(0.36763738 -0.00049217847 0)
(0.35987523 -0.0002907293 0)
(0.35358864 -0.00022867858 0)
(0.34834771 -0.00023298496 0)
(0.34386163 -0.00026216265 0)
(0.33993602 -0.00029459594 0)
(0.33644159 -0.00032052708 0)
(0.3332919 -0.00033680382 0)
(0.33042809 -0.0003435976 0)
(0.32780875 -0.00034247432 0)
(0.32540349 -0.00033534954 0)
(0.32318886 -0.00032399979 0)
(0.32114593 -0.00030990483 0)
(0.31925881 -0.00029424185 0)
(0.31751375 -0.0002779234 0)
(0.31589858 -0.00026161947 0)
(0.31440241 -0.00024576628 0)
(0.31301538 -0.00023059146 0)
(0.31172857 -0.0002161657 0)
(0.31053388 -0.00020247713 0)
(0.30942401 -0.00018949677 0)
(0.30839234 -0.00017721433 0)
(0.30743286 -0.00016564149 0)
(0.30654012 -0.00015479284 0)
(0.30570909 -0.00014466719 0)
(0.30493519 -0.00013523773 0)
(0.30421423 -0.00012645698 0)
(0.30354234 -0.00011826733 0)
(0.302916 -0.00011061348 0)
(0.30233195 -0.00010344842 0)
(0.30178723 -9.6735085e-05 0)
(0.3012791 -9.0444192e-05 0)
(0.30080504 -8.4549079e-05 0)
(0.30036271 -7.9026435e-05 0)
(0.29994995 -7.3850426e-05 0)
(0.29956475 -6.9000831e-05 0)
(0.29920521 -6.4456752e-05 0)
(0.29886954 -6.0207259e-05 0)
(0.29855602 -5.6244448e-05 0)
(0.29826303 -5.256823e-05 0)
(0.29798901 -4.9182848e-05 0)
(0.29773253 -4.6089071e-05 0)
(0.29749224 -4.3290976e-05 0)
(0.29726699 -4.0772907e-05 0)
(0.29705578 -3.852245e-05 0)
(0.29685788 -3.6495034e-05 0)
(0.29667274 -3.4654817e-05 0)
(0.29650005 -3.2932509e-05 0)
(0.29633967 -3.1279097e-05 0)
(0.29619166 -2.962096e-05 0)
(0.29605609 -2.7918457e-05 0)
(0.2959331 -2.6119052e-05 0)
(0.29582271 -2.4214816e-05 0)
(0.29572491 -2.2188834e-05 0)
(0.29563942 -2.0074019e-05 0)
(0.29556587 -1.7883897e-05 0)
(0.29550361 -1.5686078e-05 0)
(0.29545189 -1.3502311e-05 0)
(0.2954097 -1.1420438e-05 0)
(0.29537609 -9.4413321e-06 0)
(0.29534982 -7.6624584e-06 0)
(0.29532994 -6.0378609e-06 0)
(0.29531517 -4.6764722e-06 0)
(0.29530476 -3.4666063e-06 0)
(0.29529748 -2.5463779e-06 0)
(0.29529292 -1.723054e-06 0)
(0.29528996 -1.1953676e-06 0)
(0.29528861 -6.7081428e-07 0)
(0.29528778 -4.5133789e-07 0)
(0.29528794 -1.1527929e-07 0)
(0.29528789 -1.1840739e-07 0)
(0.29528862 1.3274612e-07 0)
(0.29528867 -2.7292685e-08 0)
(0.29528953 2.178972e-07 0)
(0.2952894 -5.6538863e-08 0)
(0.29529021 2.2541573e-07 0)
(0.29528988 -1.3031455e-07 0)
(0.29529045 1.7411853e-07 0)
(0.29529009 -2.0299877e-07 0)
(0.29529001 2.0360677e-09 0)
(0.29529002 -2.3848995e-07 0)
(0.29528818 -4.7759381e-07 0)
(0.29528944 -1.437508e-07 0)
(0.29528363 -1.4502565e-06 0)
(0.29528814 9.9249797e-07 0)
(0.29527641 -1.0893068e-06 0)
(0.29528934 9.7172503e-06 0)
(0.2952921 1.1786035e-05 0)
)
;

boundaryField
{
    top
    {
        type            fixedValue;
        value           uniform (0 0 0);
    }
    inlet
    {
        type            fixedValue;
        value           uniform (1 0 0);
    }
    outlet
    {
        type            zeroGradient;
    }
    bottom
    {
        type            fixedValue;
        value           uniform (0 0 0);
    }
    back
    {
        type            empty;
    }
    front
    {
        type            empty;
    }
}


// ************************************************************************* //
