/*--------------------------------*- C++ -*----------------------------------*\
| =========                 |                                                 |
| \\      /  F ield         | OpenFOAM: The Open Source CFD Toolbox           |
|  \\    /   O peration     | Version:  v1812                                 |
|   \\  /    A nd           | Web:      www.OpenFOAM.com                      |
|    \\/     M anipulation  |                                                 |
\*---------------------------------------------------------------------------*/
FoamFile
{
    version     2.0;
    format      ascii;
    class       volScalarField;
    location    "30";
    object      p;
}
// * * * * * * * * * * * * * * * * * * * * * * * * * * * * * * * * * * * * * //

dimensions      [0 2 -2 0 0 0 0];


internalField   nonuniform List<scalar> 
1000
(
1.801625
1.6714499
1.5807695
1.5226116
1.4731439
1.4287992
1.3906555
1.3582959
1.3306226
1.3065368
1.2850057
1.2651464
1.2462806
1.2280333
1.2102642
1.192958
1.1761395
1.1598274
1.1440158
1.1286714
1.1137375
1.0991423
1.0848083
1.0706606
1.0566342
1.0426771
1.0287518
1.0148334
1.000908
0.98696887
0.97301461
0.95904649
0.94506708
0.93107922
0.91708549
0.90308793
0.88908809
0.87508698
0.86108529
0.84708338
0.83308147
0.81907965
0.80507794
0.79107633
0.77707481
0.76307335
0.74907195
0.73507057
0.7210692
0.70706785
0.69306651
0.67906517
0.66506383
0.65106249
0.63706115
0.62305981
0.60905847
0.59505713
0.58105579
0.56705445
0.55305311
0.53905177
0.52505042
0.51104909
0.49704774
0.48304641
0.46904504
0.45504375
0.44104233
0.42704113
0.41303955
0.3990386
0.38503665
0.37103625
0.35703355
0.34303411
0.32903025
0.31503207
0.30102706
0.28702963
0.27302464
0.25902619
0.24502332
0.23102207
0.21702198
0.20301935
0.18901861
0.17501957
0.16101457
0.14702004
0.13301586
0.11901949
0.10502517
0.091028581
0.077047606
0.063057936
0.049119461
0.035113403
0.021243947
0.0071869429
1.6781138
1.6116606
1.5531839
1.5088491
1.467183
1.4276133
1.3919579
1.3606103
1.3333125
1.3094646
1.2881227
1.2682741
1.2491788
1.2305014
1.2122077
1.1943893
1.1771382
1.160496
1.1444497
1.1289463
1.1139081
1.099246
1.0848697
1.0706957
1.0566532
1.0426866
1.0287557
1.0148343
1.0009073
0.98696746
0.97301298
0.95904492
0.9450657
0.93107808
0.91708458
0.90308725
0.88908759
0.87508664
0.86108506
0.84708323
0.83308138
0.8190796
0.80507791
0.79107632
0.77707481
0.76307336
0.74907195
0.73507057
0.72106921
0.70706786
0.69306651
0.67906517
0.66506383
0.65106249
0.63706115
0.62305981
0.60905847
0.59505713
0.58105579
0.56705445
0.55305311
0.53905177
0.52505042
0.51104909
0.49704773
0.48304642
0.46904502
0.4550438
0.44104224
0.42704126
0.41303933
0.39903895
0.38503612
0.37103702
0.35703246
0.34303553
0.32902848
0.31503408
0.30102496
0.28703151
0.27302329
0.25902664
0.24502378
0.23102075
0.21702324
0.20301858
0.18901733
0.17502197
0.16100991
0.14702255
0.13301216
0.11901628
0.10502231
0.091020742
0.07704489
0.063046944
0.049184284
0.035185302
0.021780288
0.0075757116
1.6156311
1.587137
1.549045
1.5123024
1.4751873
1.4377952
1.4017764
1.3686958
1.3396757
1.3148161
1.2930832
1.2730181
1.2535337
1.2342158
1.2151449
1.1965734
1.1787011
1.1616021
1.1452438
1.1295327
1.1143525
1.0995865
1.0851283
1.0708871
1.0567894
1.0427784
1.0288134
1.0148672
1.0009233
0.98697276
0.97301219
0.95904117
0.94506097
0.93107351
0.9170807
0.90308422
0.88908538
0.87508512
0.86108406
0.84708262
0.83308103
0.81907941
0.80507783
0.79107629
0.77707481
0.76307337
0.74907196
0.73507058
0.72106922
0.70706787
0.69306652
0.67906517
0.66506383
0.65106249
0.63706115
0.62305981
0.60905847
0.59505713
0.58105579
0.56705445
0.5530531
0.53905177
0.52505042
0.51104909
0.49704772
0.48304644
0.46904498
0.45504385
0.44104216
0.4270414
0.4130391
0.39903928
0.38503561
0.3710377
0.35703154
0.34303665
0.32902716
0.31503542
0.30102374
0.28703229
0.27302307
0.25902598
0.24502485
0.23101908
0.21702379
0.20301822
0.18901435
0.17502379
0.16100286
0.14702226
0.13300059
0.11900844
0.10499397
0.090999649
0.076973022
0.062985811
0.049028318
0.03501658
0.021414276
0.0072605055
1.5866111
1.5704459
1.5416104
1.5095934
1.4758099
1.4402838
1.4045942
1.3711761
1.3420196
1.3175414
1.2964948
1.2769965
1.2576651
1.238055
1.2184052
1.1991702
1.1806952
1.163116
1.1464001
1.1304258
1.1150457
1.1001203
1.0855307
1.0711805
1.0569938
1.042913
1.0288959
1.0149128
1.0009443
0.98697883
0.97301002
0.95903526
0.94505405
0.93106704
0.91707533
0.90308012
0.88908244
0.87508312
0.86108278
0.84708185
0.83308059
0.81907919
0.80507773
0.79107626
0.77707481
0.76307339
0.74907198
0.7350706
0.72106923
0.70706787
0.69306652
0.67906518
0.66506383
0.65106249
0.63706115
0.62305981
0.60905847
0.59505713
0.58105578
0.56705445
0.5530531
0.53905177
0.52505041
0.51104909
0.49704771
0.48304645
0.46904496
0.45504387
0.4410421
0.42704148
0.41303897
0.39903945
0.38503536
0.37103802
0.35703111
0.34303711
0.32902665
0.31503584
0.30102342
0.28703229
0.27302325
0.25902536
0.24502524
0.23101838
0.2170231
0.20301833
0.18901115
0.17502406
0.16099597
0.14701987
0.13298424
0.11899971
0.10494716
0.090971332
0.076838018
0.062873222
0.048609154
0.034537624
0.020055404
0.0062288163
1.5736411
1.5613492
1.5372512
1.5082579
1.476303
1.4416414
1.4060735
1.3725325
1.3434118
1.3192393
1.2986335
1.2794834
1.2602492
1.2404696
1.2204749
1.2008385
1.1819932
1.1641139
1.1471698
1.1310238
1.1155108
1.1004782
1.0857998
1.0713759
1.0571297
1.0430024
1.0289507
1.0149433
1.0009587
0.98698335
0.97300913
0.95903187
0.94504993
0.93106314
0.91707209
0.90307764
0.88908066
0.87508192
0.86108202
0.84708139
0.83308034
0.81907906
0.80507767
0.79107624
0.77707481
0.7630734
0.74907199
0.73507061
0.72106924
0.70706788
0.69306652
0.67906518
0.66506383
0.65106249
0.63706115
0.62305981
0.60905846
0.59505712
0.58105578
0.56705444
0.5530531
0.53905176
0.52505041
0.51104909
0.4970477
0.48304645
0.46904495
0.45504388
0.44104207
0.42704151
0.41303891
0.39903952
0.38503523
0.37103815
0.35703092
0.3430373
0.32902644
0.31503599
0.30102331
0.28703223
0.27302338
0.25902498
0.24502546
0.23101787
0.21702282
0.20301805
0.18900953
0.17502371
0.16099185
0.14701807
0.1329733
0.11899377
0.10491468
0.090950714
0.07673776
0.062784689
0.048277695
0.034157379
0.019013772
0.0054565412
1.5736411
1.5613492
1.5372512
1.5082579
1.476303
1.4416414
1.4060734
1.3725325
1.3434117
1.3192392
1.2986334
1.2794832
1.2602491
1.2404695
1.2204748
1.2008384
1.1819932
1.1641139
1.1471697
1.1310237
1.1155107
1.1004781
1.0857997
1.0713759
1.0571296
1.0430024
1.0289507
1.0149432
1.0009587
0.98698333
0.97300911
0.95903185
0.94504991
0.93106313
0.91707208
0.90307763
0.88908065
0.87508191
0.86108201
0.84708138
0.83308033
0.81907905
0.80507767
0.79107624
0.77707481
0.76307339
0.74907199
0.73507061
0.72106924
0.70706787
0.69306652
0.67906517
0.66506383
0.65106249
0.63706114
0.6230598
0.60905846
0.59505712
0.58105578
0.56705444
0.5530531
0.53905176
0.52505041
0.51104909
0.4970477
0.48304645
0.46904495
0.45504388
0.44104207
0.4270415
0.4130389
0.39903951
0.38503522
0.37103814
0.35703091
0.34303728
0.32902642
0.31503598
0.3010233
0.28703222
0.27302337
0.25902496
0.24502545
0.23101785
0.21702279
0.20301803
0.18900951
0.1750237
0.16099184
0.14701806
0.13297329
0.11899376
0.10491465
0.090950694
0.076737747
0.062784682
0.048277692
0.034157376
0.019013769
0.0054565396
1.5866111
1.570446
1.5416104
1.5095934
1.4758098
1.4402837
1.4045941
1.371176
1.3420194
1.3175411
1.2964945
1.2769962
1.2576648
1.2380547
1.2184049
1.19917
1.180695
1.1631159
1.1463999
1.1304256
1.1150455
1.1001202
1.0855306
1.0711803
1.0569937
1.0429129
1.0288958
1.0149127
1.0009443
0.98697876
0.97300997
0.95903521
0.94505401
0.931067
0.91707531
0.9030801
0.88908242
0.87508311
0.86108277
0.84708184
0.83308059
0.81907918
0.80507772
0.79107625
0.7770748
0.76307338
0.74907198
0.73507059
0.72106922
0.70706786
0.69306651
0.67906517
0.66506382
0.65106248
0.63706114
0.6230598
0.60905846
0.59505712
0.58105578
0.56705444
0.55305309
0.53905176
0.5250504
0.51104908
0.4970477
0.48304644
0.46904495
0.45504386
0.44104208
0.42704146
0.41303895
0.39903942
0.38503533
0.37103798
0.35703108
0.34303708
0.32902662
0.3150358
0.30102339
0.28703226
0.27302322
0.25902532
0.24502519
0.23101833
0.21702304
0.20301827
0.1890111
0.17502401
0.16099594
0.14701983
0.1329842
0.11899966
0.10494711
0.090971281
0.076837982
0.062873202
0.048609143
0.034537614
0.020055395
0.0062288124
1.6156311
1.587137
1.549045
1.5123023
1.4751872
1.437795
1.4017762
1.3686956
1.3396755
1.3148158
1.2930829
1.2730177
1.2535333
1.2342154
1.2151446
1.1965731
1.1787008
1.1616019
1.1452436
1.1295325
1.1143523
1.0995862
1.0851281
1.0708869
1.0567892
1.0427782
1.0288132
1.0148671
1.0009232
0.98697267
0.97301211
0.9590411
0.94506092
0.93107346
0.91708066
0.90308419
0.88908536
0.8750851
0.86108405
0.84708261
0.83308102
0.8190794
0.80507782
0.79107628
0.7770748
0.76307336
0.74907195
0.73507057
0.72106921
0.70706785
0.6930665
0.67906516
0.66506382
0.65106248
0.63706114
0.6230598
0.60905846
0.59505712
0.58105577
0.56705443
0.55305309
0.53905175
0.5250504
0.51104908
0.4970477
0.48304642
0.46904496
0.45504382
0.44104213
0.42704137
0.41303907
0.39903924
0.38503557
0.37103765
0.35703149
0.3430366
0.32902711
0.31503537
0.30102369
0.28703224
0.27302302
0.25902591
0.24502478
0.231019
0.2170237
0.20301814
0.18901428
0.17502372
0.1610028
0.1470222
0.13300053
0.11900837
0.10499389
0.09099958
0.07697297
0.062985777
0.049028294
0.035016563
0.021414263
0.0072605005
1.6781138
1.6116605
1.5531838
1.508849
1.4671829
1.4276131
1.3919577
1.36061
1.3333122
1.3094643
1.2881224
1.2682737
1.2491784
1.230501
1.2122073
1.1943889
1.1771379
1.1604957
1.1444494
1.128946
1.1139078
1.0992458
1.0848694
1.0706955
1.056653
1.0426864
1.0287555
1.0148342
1.0009071
0.98696736
0.9730129
0.95904486
0.94506564
0.93107803
0.91708455
0.90308722
0.88908757
0.87508662
0.86108504
0.84708322
0.83308137
0.81907959
0.8050779
0.79107631
0.7770748
0.76307335
0.74907194
0.73507056
0.72106919
0.70706784
0.6930665
0.67906516
0.66506381
0.65106247
0.63706113
0.6230598
0.60905845
0.59505711
0.58105577
0.56705443
0.55305309
0.53905175
0.5250504
0.51104907
0.49704771
0.4830464
0.46904499
0.45504377
0.44104221
0.42704123
0.41303928
0.3990389
0.38503606
0.37103696
0.3570324
0.34303547
0.32902842
0.31503402
0.30102489
0.28703145
0.27302322
0.25902656
0.24502369
0.23102065
0.21702314
0.20301849
0.18901724
0.17502189
0.16100984
0.14702247
0.13301208
0.1190162
0.10502222
0.09102067
0.07704483
0.063046899
0.04918425
0.035185277
0.021780272
0.0075757064
1.801625
1.6714499
1.5807695
1.5226115
1.4731438
1.428799
1.3906553
1.3582956
1.3306223
1.3065365
1.2850053
1.265146
1.2462802
1.2280329
1.2102638
1.1929576
1.1761392
1.1598271
1.1440156
1.1286711
1.1137372
1.0991421
1.084808
1.0706604
1.056634
1.0426769
1.0287516
1.0148333
1.0009079
0.98696877
0.97301453
0.95904643
0.94506703
0.93107918
0.91708546
0.90308791
0.88908807
0.87508697
0.86108528
0.84708337
0.83308146
0.81907964
0.80507793
0.79107632
0.7770748
0.76307334
0.74907193
0.73507055
0.72106919
0.70706784
0.69306649
0.67906515
0.66506381
0.65106247
0.63706113
0.62305979
0.60905845
0.59505711
0.58105577
0.56705443
0.55305309
0.53905175
0.5250504
0.51104906
0.49704771
0.48304638
0.46904501
0.45504372
0.44104229
0.42704109
0.41303951
0.39903855
0.3850366
0.37103619
0.35703348
0.34303405
0.32903018
0.315032
0.30102699
0.28702956
0.27302456
0.2590261
0.24502323
0.23102197
0.21702188
0.20301925
0.18901852
0.17501948
0.16101448
0.14701995
0.13301578
0.1190194
0.10502509
0.09102851
0.077047547
0.063057888
0.049119423
0.035113375
0.021243929
0.0071869369
)
;

boundaryField
{
    top
    {
        type            zeroGradient;
    }
    inlet
    {
        type            zeroGradient;
    }
    outlet
    {
        type            fixedValue;
        value           uniform 0;
    }
    bottom
    {
        type            zeroGradient;
    }
    back
    {
        type            empty;
    }
    front
    {
        type            empty;
    }
}


// ************************************************************************* //
