/*--------------------------------*- C++ -*----------------------------------*\
| =========                 |                                                 |
| \\      /  F ield         | OpenFOAM: The Open Source CFD Toolbox           |
|  \\    /   O peration     | Version:  v1812                                 |
|   \\  /    A nd           | Web:      www.OpenFOAM.com                      |
|    \\/     M anipulation  |                                                 |
\*---------------------------------------------------------------------------*/
FoamFile
{
    version     2.0;
    format      ascii;
    class       volVectorField;
    location    "13.4";
    object      U;
}
// * * * * * * * * * * * * * * * * * * * * * * * * * * * * * * * * * * * * * //

dimensions      [0 1 -1 0 0 0 0];


internalField   nonuniform List<vector> 
1000
(
(0.91890839 0.035821913 0)
(0.86271384 0.062195639 0)
(0.7870597 0.062510091 0)
(0.69536033 0.054550395 0)
(0.61089744 0.04453165 0)
(0.54411591 0.03401597 0)
(0.49343012 0.024187539 0)
(0.45479414 0.01614423 0)
(0.42544583 0.010265786 0)
(0.40347313 0.0063041458 0)
(0.38715767 0.0037976293 0)
(0.3749622 0.0023103377 0)
(0.36566192 0.0014930144 0)
(0.35836272 0.0010851181 0)
(0.35244267 0.00090607242 0)
(0.34748201 0.00084105209 0)
(0.34320348 0.00082372435 0)
(0.33942726 0.00081931054 0)
(0.33603793 0.00081185187 0)
(0.33296114 0.000795801 0)
(0.33014778 0.00077081125 0)
(0.32756384 0.00073870931 0)
(0.3251842 0.00070188939 0)
(0.32298902 0.00066256578 0)
(0.32096172 0.00062249991 0)
(0.31908785 0.00058295777 0)
(0.31735449 0.00054477185 0)
(0.31574995 0.00050843422 0)
(0.3142636 0.0004741915 0)
(0.31288574 0.00044212422 0)
(0.31160755 0.0004122091 0)
(0.31042101 0.00038436117 0)
(0.30931883 0.00035846483 0)
(0.30829438 0.00033439027 0)
(0.30734165 0.00031200696 0)
(0.30645515 0.00029118791 0)
(0.30562991 0.00027181457 0)
(0.30486136 0.00025377696 0)
(0.30414535 0.00023697434 0)
(0.30347807 0.00022131477 0)
(0.30285601 0.00020671399 0)
(0.30227596 0.00019309525 0)
(0.30173496 0.00018038831 0)
(0.30123029 0.00016852849 0)
(0.30075942 0.00015745704 0)
(0.30032002 0.00014711893 0)
(0.29990993 0.00013746426 0)
(0.29952715 0.00012844637 0)
(0.29916983 0.0001200222 0)
(0.29883624 0.00011215238 0)
(0.29852478 0.00010479943 0)
(0.29823397 9.7929323e-05 0)
(0.29796241 9.1509877e-05 0)
(0.29770882 8.5510985e-05 0)
(0.29747201 7.990526e-05 0)
(0.29725084 7.4666235e-05 0)
(0.29704429 6.9770065e-05 0)
(0.29685137 6.519436e-05 0)
(0.2966712 6.0917897e-05 0)
(0.29650291 5.692197e-05 0)
(0.29634572 5.3187327e-05 0)
(0.2961989 4.9697665e-05 0)
(0.29606176 4.643629e-05 0)
(0.29593366 4.3388447e-05 0)
(0.29581401 4.0540311e-05 0)
(0.29570224 3.7878455e-05 0)
(0.29559783 3.5390793e-05 0)
(0.29550031 3.3066064e-05 0)
(0.29540922 3.089332e-05 0)
(0.29532413 2.8863323e-05 0)
(0.29524464 2.696659e-05 0)
(0.29517039 2.5194379e-05 0)
(0.29510104 2.3539021e-05 0)
(0.29503625 2.1991974e-05 0)
(0.29497572 2.0546407e-05 0)
(0.29491919 1.9195223e-05 0)
(0.29486638 1.7932515e-05 0)
(0.29481705 1.6752527e-05 0)
(0.29477097 1.5650553e-05 0)
(0.29472793 1.4620351e-05 0)
(0.29468772 1.3659222e-05 0)
(0.29465016 1.2759753e-05 0)
(0.29461507 1.1921557e-05 0)
(0.2945823 1.1135944e-05 0)
(0.29455167 1.0404977e-05 0)
(0.29452308 9.718325e-06 0)
(0.29449636 9.0805675e-06 0)
(0.29447142 8.4788186e-06 0)
(0.2944481 7.9270644e-06 0)
(0.29442633 7.4011983e-06 0)
(0.29440597 6.9192551e-06 0)
(0.29438699 6.4553189e-06 0)
(0.29436923 6.0477308e-06 0)
(0.29435261 5.6537505e-06 0)
(0.29433714 5.3000479e-06 0)
(0.29432248 4.9723233e-06 0)
(0.29430919 4.6876261e-06 0)
(0.29429569 4.5415627e-06 0)
(0.29428501 4.4096291e-06 0)
(0.29426873 5.0567381e-06 0)
(1.0016583 0.053819431 0)
(1.0359761 0.10128444 0)
(1.0597199 0.11073663 0)
(1.0628947 0.10592201 0)
(1.0515569 0.096228725 0)
(1.0340529 0.08393406 0)
(1.0142795 0.070327064 0)
(0.99360703 0.056981336 0)
(0.97292577 0.045107481 0)
(0.9531074 0.035236751 0)
(0.93479538 0.027401649 0)
(0.91829012 0.021387225 0)
(0.90362379 0.016884497 0)
(0.89068067 0.013569709 0)
(0.87928174 0.01114775 0)
(0.86923242 0.0093736602 0)
(0.86034423 0.0080569293 0)
(0.85244667 0.007057128 0)
(0.84539241 0.0062752381 0)
(0.83905793 0.0056438277 0)
(0.83334126 0.00511809 0)
(0.82815884 0.0046686714 0)
(0.82344212 0.0042764167 0)
(0.81913467 0.0039287386 0)
(0.81518961 0.0036172039 0)
(0.81156765 0.003335971 0)
(0.80823544 0.0030808046 0)
(0.8051644 0.0028484693 0)
(0.80232979 0.0026363691 0)
(0.79970999 0.0024423376 0)
(0.79728597 0.0022645175 0)
(0.79504086 0.0021012887 0)
(0.79295963 0.0019512246 0)
(0.7910288 0.001813063 0)
(0.78923627 0.0016856843 0)
(0.7875711 0.0015680937 0)
(0.78602338 0.0014594068 0)
(0.78458412 0.0013588366 0)
(0.78324511 0.0012656807 0)
(0.78199889 0.0011793114 0)
(0.78083861 0.0010991662 0)
(0.77975799 0.00102474 0)
(0.77875128 0.00095557746 0)
(0.77781318 0.00089126717 0)
(0.77693881 0.00083143672 0)
(0.77612368 0.00077574732 0)
(0.77536362 0.00072389035 0)
(0.77465481 0.00067558407 0)
(0.77399367 0.00063057051 0)
(0.77337693 0.00058861315 0)
(0.77280153 0.00054949474 0)
(0.77226464 0.00051301509 0)
(0.77176363 0.00047898923 0)
(0.77129606 0.00044724618 0)
(0.77085967 0.00041762814 0)
(0.77045234 0.00038998885 0)
(0.77007211 0.00036419276 0)
(0.76971717 0.00034011466 0)
(0.76938581 0.00031763834 0)
(0.76907644 0.00029665565 0)
(0.7687876 0.00027706568 0)
(0.76851791 0.00025877501 0)
(0.7682661 0.00024169623 0)
(0.76803096 0.00022574805 0)
(0.76781139 0.00021085523 0)
(0.76760635 0.00019694748 0)
(0.76741488 0.00018395869 0)
(0.76723608 0.00017182774 0)
(0.76706909 0.00016049787 0)
(0.76691315 0.00014991585 0)
(0.76676751 0.00014003265 0)
(0.7666315 0.00013080201 0)
(0.76650446 0.00012218106 0)
(0.76638582 0.00011412834 0)
(0.76627501 0.00010660737 0)
(0.76617152 9.9581083e-05 0)
(0.76607485 9.301879e-05 0)
(0.76598458 8.6887448e-05 0)
(0.76590025 8.1162734e-05 0)
(0.7658215 7.581248e-05 0)
(0.76574793 7.0818755e-05 0)
(0.76567924 6.6148785e-05 0)
(0.76561504 6.1793571e-05 0)
(0.76555512 5.7715965e-05 0)
(0.7654991 5.3920828e-05 0)
(0.76544684 5.0359827e-05 0)
(0.76539795 4.7054156e-05 0)
(0.76535238 4.3935246e-05 0)
(0.76530971 4.1064384e-05 0)
(0.76526996 3.8338732e-05 0)
(0.76523271 3.5845124e-05 0)
(0.76519805 3.3428606e-05 0)
(0.76516558 3.1298206e-05 0)
(0.76513517 2.9196834e-05 0)
(0.76510711 2.7383498e-05 0)
(0.76507998 2.5514384e-05 0)
(0.76505665 2.4072324e-05 0)
(0.76503058 2.2571801e-05 0)
(0.76501445 2.1607246e-05 0)
(0.76498346 2.09905e-05 0)
(1.0014244 0.026824855 0)
(1.0291272 0.062791352 0)
(1.0654292 0.077736551 0)
(1.098962 0.080597197 0)
(1.1253149 0.078285169 0)
(1.145053 0.0731539 0)
(1.1594858 0.066111281 0)
(1.1694287 0.058162066 0)
(1.1755354 0.050296755 0)
(1.1785738 0.043150708 0)
(1.1793571 0.036972824 0)
(1.1785949 0.03177163 0)
(1.1768304 0.027451838 0)
(1.1744518 0.023886768 0)
(1.1717287 0.020947621 0)
(1.1688444 0.018515781 0)
(1.1659195 0.016488086 0)
(1.1630317 0.014779503 0)
(1.1602295 0.013322985 0)
(1.1575415 0.012067132 0)
(1.1549828 0.010973 0)
(1.1525601 0.010011061 0)
(1.1502747 0.0091587462 0)
(1.1481246 0.0083986038 0)
(1.1461059 0.0077169505 0)
(1.1442134 0.0071028885 0)
(1.1424414 0.0065475923 0)
(1.1407838 0.0060437959 0)
(1.1392344 0.0055854265 0)
(1.1377869 0.0051673445 0)
(1.1364353 0.0047851564 0)
(1.1351738 0.0044350756 0)
(1.1339968 0.0041138163 0)
(1.1328987 0.0038185125 0)
(1.1318746 0.003546653 0)
(1.1309195 0.0032960276 0)
(1.1300289 0.0030646838 0)
(1.1291985 0.0028508913 0)
(1.1284242 0.002653111 0)
(1.1277022 0.0024699689 0)
(1.1270291 0.0023002352 0)
(1.1264014 0.0021428061 0)
(1.1258161 0.0019966871 0)
(1.1252702 0.0018609797 0)
(1.1247612 0.0017348705 0)
(1.1242865 0.0016176209 0)
(1.1238437 0.0015085586 0)
(1.1234307 0.0014070698 0)
(1.1230455 0.0013125935 0)
(1.1226861 0.0012246156 0)
(1.1223509 0.0011426642 0)
(1.1220381 0.0010663066 0)
(1.1217462 0.00099514329 0)
(1.1214739 0.00092880603 0)
(1.1212198 0.00086695577 0)
(1.1209827 0.00080927905 0)
(1.1207614 0.00075548601 0)
(1.1205548 0.00070530815 0)
(1.1203621 0.00065849677 0)
(1.1201821 0.00061482031 0)
(1.1200142 0.0005740636 0)
(1.1198574 0.00053602816 0)
(1.1197111 0.00050052934 0)
(1.1195745 0.0004673948 0)
(1.1194469 0.00043646545 0)
(1.1193278 0.00040759324 0)
(1.1192167 0.00038064079 0)
(1.1191129 0.00035547841 0)
(1.119016 0.00033198653 0)
(1.1189255 0.00031005261 0)
(1.118841 0.00028957223 0)
(1.1187621 0.00027044676 0)
(1.1186884 0.00025258757 0)
(1.1186197 0.00023590837 0)
(1.1185554 0.00022033442 0)
(1.1184954 0.00020578962 0)
(1.1184394 0.00019221044 0)
(1.1183871 0.00017952617 0)
(1.1183382 0.00016768596 0)
(1.1182926 0.00015662153 0)
(1.11825 0.00014629603 0)
(1.1182103 0.00013663807 0)
(1.118173 0.00012763196 0)
(1.1181384 0.00011919823 0)
(1.1181059 0.00011135244 0)
(1.1180757 0.0001039863 0)
(1.1180473 9.7162229e-05 0)
(1.1180211 9.0716909e-05 0)
(1.1179962 8.4795061e-05 0)
(1.1179734 7.9133084e-05 0)
(1.1179516 7.4027679e-05 0)
(1.1179319 6.9002867e-05 0)
(1.1179128 6.4639963e-05 0)
(1.1178955 6.0134897e-05 0)
(1.117879 5.6572622e-05 0)
(1.1178635 5.2432208e-05 0)
(1.11785 4.9748394e-05 0)
(1.1178349 4.5811708e-05 0)
(1.1178261 4.4323324e-05 0)
(1.1178083 4.0574966e-05 0)
(1.0007347 0.011814721 0)
(1.0178472 0.030860926 0)
(1.0462163 0.04143444 0)
(1.0799018 0.04519357 0)
(1.1132664 0.045502352 0)
(1.143782 0.044080309 0)
(1.1708941 0.041439982 0)
(1.1945687 0.037973677 0)
(1.2148582 0.034195729 0)
(1.2319652 0.030536887 0)
(1.2462683 0.027222046 0)
(1.2582339 0.024313921 0)
(1.2683135 0.021797888 0)
(1.2768875 0.019633659 0)
(1.2842554 0.017773825 0)
(1.2906479 0.016169651 0)
(1.296243 0.01477559 0)
(1.3011791 0.013552298 0)
(1.3055645 0.012467865 0)
(1.3094838 0.011497467 0)
(1.3130042 0.010622162 0)
(1.3161792 0.009827513 0)
(1.3190526 0.0091024101 0)
(1.3216607 0.0084381753 0)
(1.3240343 0.0078279025 0)
(1.3261995 0.0072659736 0)
(1.3281786 0.0067477088 0)
(1.3299913 0.0062691176 0)
(1.3316544 0.0058267288 0)
(1.3331829 0.0054174747 0)
(1.3345896 0.0050386132 0)
(1.3358862 0.0046876738 0)
(1.3370827 0.0043624188 0)
(1.3381882 0.0040608131 0)
(1.3392108 0.0037810026 0)
(1.3401576 0.0035212937 0)
(1.3410349 0.0032801382 0)
(1.3418486 0.0030561184 0)
(1.3426038 0.0028479357 0)
(1.3433051 0.0026543995 0)
(1.3439569 0.0024744174 0)
(1.3445629 0.0023069867 0)
(1.3451267 0.0021511856 0)
(1.3456513 0.0020061657 0)
(1.3461398 0.0018711462 0)
(1.3465947 0.0017454075 0)
(1.3470185 0.0016282861 0)
(1.3474135 0.001519169 0)
(1.3477816 0.001417489 0)
(1.3481249 0.0013227219 0)
(1.3484449 0.0012343824 0)
(1.3487435 0.0011520215 0)
(1.349022 0.0010752236 0)
(1.3492818 0.0010036038 0)
(1.3495242 0.00093680539 0)
(1.3497505 0.0008744978 0)
(1.3499616 0.00081637416 0)
(1.3501587 0.00076214885 0)
(1.3503427 0.00071155495 0)
(1.3505145 0.00066434464 0)
(1.3506748 0.00062028698 0)
(1.3508245 0.00057916833 0)
(1.3509643 0.00054078996 0)
(1.3510948 0.00050496702 0)
(1.3512167 0.00047152789 0)
(1.3513305 0.00044031352 0)
(1.3514368 0.00041117654 0)
(1.3515361 0.00038397818 0)
(1.3516288 0.00035858835 0)
(1.3517153 0.00033488415 0)
(1.3517962 0.00031275155 0)
(1.3518717 0.00029208225 0)
(1.3519422 0.0002727801 0)
(1.3520081 0.00025475278 0)
(1.3520696 0.00023792104 0)
(1.3521271 0.00022220345 0)
(1.3521807 0.00020753312 0)
(1.3522309 0.00019383191 0)
(1.3522777 0.00018104541 0)
(1.3523215 0.00016909575 0)
(1.3523623 0.00015794664 0)
(1.3524005 0.00014751309 0)
(1.352436 0.00013778722 0)
(1.3524695 0.0001286714 0)
(1.3525004 0.00012019953 0)
(1.3525296 0.00011223091 0)
(1.3525565 0.00010487777 0)
(1.3525822 9.7910052e-05 0)
(1.3526054 9.1535168e-05 0)
(1.3526282 8.5381265e-05 0)
(1.352648 7.9939192e-05 0)
(1.3526684 7.4459983e-05 0)
(1.352685 6.9793628e-05 0)
(1.3527037 6.4797217e-05 0)
(1.352717 6.1134256e-05 0)
(1.3527349 5.6459264e-05 0)
(1.3527446 5.3720226e-05 0)
(1.3527628 4.9120801e-05 0)
(1.3527683 4.7712927e-05 0)
(1.3527889 4.296855e-05 0)
(1.0005903 0.003462915 0)
(1.0136865 0.0093660186 0)
(1.0370283 0.013046806 0)
(1.0674202 0.014563262 0)
(1.1000315 0.014854526 0)
(1.1316428 0.014564991 0)
(1.1610745 0.013888337 0)
(1.1880674 0.012919244 0)
(1.2125205 0.011806505 0)
(1.2343939 0.010696427 0)
(1.2538077 0.0096727429 0)
(1.2710339 0.008762823 0)
(1.286401 0.0079659743 0)
(1.3002112 0.0072722143 0)
(1.3127102 0.0066688076 0)
(1.3240903 0.0061419244 0)
(1.3345036 0.0056780719 0)
(1.3440716 0.0052653212 0)
(1.3528927 0.0048939359 0)
(1.3610463 0.004556397 0)
(1.3685975 0.0042470706 0)
(1.3756004 0.0039617759 0)
(1.3821012 0.0036973971 0)
(1.3881402 0.0034515819 0)
(1.3937533 0.0032225178 0)
(1.3989728 0.0030087693 0)
(1.403828 0.0028091579 0)
(1.4083456 0.0026226795 0)
(1.4125503 0.00244845 0)
(1.4164646 0.0022856713 0)
(1.4201094 0.002133608 0)
(1.423504 0.0019915761 0)
(1.426666 0.0018589355 0)
(1.4296121 0.0017350849 0)
(1.4323573 0.0016194576 0)
(1.4349159 0.0015115209 0)
(1.4373007 0.0014107733 0)
(1.4395241 0.0013167432 0)
(1.441597 0.0012289876 0)
(1.4435301 0.0011470917 0)
(1.4453328 0.0010706673 0)
(1.4470143 0.00099935001 0)
(1.4485827 0.0009327998 0)
(1.4500459 0.00087069889 0)
(1.451411 0.00081274964 0)
(1.4526846 0.00075867429 0)
(1.4538731 0.00070821328 0)
(1.4549822 0.00066112462 0)
(1.4560172 0.00061718178 0)
(1.4569831 0.00057617329 0)
(1.4578847 0.00053790237 0)
(1.4587262 0.00050218416 0)
(1.4595117 0.00046884759 0)
(1.460245 0.00043773388 0)
(1.4609295 0.00040869429 0)
(1.4615685 0.00038159025 0)
(1.4621651 0.00035629254 0)
(1.4627221 0.00033268003 0)
(1.4632422 0.00031063855 0)
(1.4637278 0.00029006208 0)
(1.4641811 0.00027085372 0)
(1.4646045 0.00025292089 0)
(1.4649998 0.00023617837 0)
(1.4653689 0.00022054755 0)
(1.4657136 0.00020595477 0)
(1.4660355 0.0001923307 0)
(1.4663361 0.00017961119 0)
(1.4666168 0.0001677367 0)
(1.466879 0.00015665071 0)
(1.4671238 0.00014629882 0)
(1.4673524 0.00013663222 0)
(1.467566 0.00012760377 0)
(1.4677654 0.00011917149 0)
(1.4679516 0.00011129599 0)
(1.4681256 0.00010394358 0)
(1.468288 9.7077835e-05 0)
(1.4684398 9.0670369e-05 0)
(1.4685815 8.4685821e-05 0)
(1.4687138 7.9100137e-05 0)
(1.4688375 7.3878125e-05 0)
(1.4689529 6.9005486e-05 0)
(1.4690608 6.4444631e-05 0)
(1.4691614 6.0196166e-05 0)
(1.4692557 5.6213295e-05 0)
(1.4693433 5.2514345e-05 0)
(1.4694257 4.902998e-05 0)
(1.4695019 4.5826228e-05 0)
(1.4695742 4.277659e-05 0)
(1.4696402 3.9987877e-05 0)
(1.4697038 3.7291052e-05 0)
(1.4697606 3.4940801e-05 0)
(1.4698171 3.251525e-05 0)
(1.4698653 3.0476492e-05 0)
(1.4699167 2.8294789e-05 0)
(1.469956 2.6754832e-05 0)
(1.4700045 2.4644003e-05 0)
(1.4700341 2.345105e-05 0)
(1.4700832 2.1399721e-05 0)
(1.4701001 2.0824377e-05 0)
(1.4701556 1.866303e-05 0)
(1.0005903 -0.0034629164 0)
(1.0136865 -0.0093660197 0)
(1.0370283 -0.013046806 0)
(1.0674202 -0.014563261 0)
(1.1000315 -0.014854525 0)
(1.1316428 -0.01456499 0)
(1.1610745 -0.013888337 0)
(1.1880674 -0.012919244 0)
(1.2125205 -0.011806506 0)
(1.2343939 -0.010696428 0)
(1.2538077 -0.009672744 0)
(1.2710339 -0.0087628231 0)
(1.286401 -0.0079659731 0)
(1.3002112 -0.0072722131 0)
(1.3127102 -0.006668807 0)
(1.3240903 -0.0061419241 0)
(1.3345036 -0.0056780719 0)
(1.3440716 -0.0052653219 0)
(1.3528927 -0.0048939365 0)
(1.3610463 -0.0045563968 0)
(1.3685975 -0.0042470704 0)
(1.3756004 -0.003961776 0)
(1.3821012 -0.0036973969 0)
(1.3881402 -0.0034515811 0)
(1.3937533 -0.0032225173 0)
(1.3989728 -0.003008769 0)
(1.403828 -0.0028091577 0)
(1.4083456 -0.0026226799 0)
(1.4125503 -0.0024484511 0)
(1.4164646 -0.0022856721 0)
(1.4201094 -0.0021336083 0)
(1.423504 -0.0019915766 0)
(1.426666 -0.0018589362 0)
(1.4296121 -0.0017350849 0)
(1.4323573 -0.0016194572 0)
(1.4349159 -0.0015115201 0)
(1.4373007 -0.0014107719 0)
(1.4395241 -0.0013167415 0)
(1.441597 -0.0012289868 0)
(1.4435301 -0.001147092 0)
(1.4453328 -0.0010706679 0)
(1.4470143 -0.0009993513 0)
(1.4485827 -0.00093280163 0)
(1.4500459 -0.00087069989 0)
(1.451411 -0.00081274933 0)
(1.4526846 -0.00075867294 0)
(1.4538731 -0.00070821139 0)
(1.4549822 -0.00066112268 0)
(1.4560172 -0.00061718037 0)
(1.4569831 -0.00057617255 0)
(1.4578847 -0.00053790177 0)
(1.4587262 -0.00050218484 0)
(1.4595117 -0.00046884988 0)
(1.460245 -0.00043773626 0)
(1.4609295 -0.00040869549 0)
(1.4615685 -0.00038158967 0)
(1.4621651 -0.00035628956 0)
(1.4627221 -0.00033267511 0)
(1.4632422 -0.00031063418 0)
(1.4637278 -0.00029006049 0)
(1.4641812 -0.00027085386 0)
(1.4646045 -0.00025292287 0)
(1.4649998 -0.00023618237 0)
(1.4653689 -0.00022055104 0)
(1.4657136 -0.00020595491 0)
(1.4660355 -0.00019232769 0)
(1.4663361 -0.00017960626 0)
(1.4666168 -0.00016773049 0)
(1.466879 -0.00015664511 0)
(1.4671238 -0.0001462964 0)
(1.4673524 -0.00013663298 0)
(1.467566 -0.00012760742 0)
(1.4677654 -0.00011917705 0)
(1.4679516 -0.00011130032 0)
(1.4681256 -0.00010394397 0)
(1.468288 -9.7073865e-05 0)
(1.4684398 -9.0662121e-05 0)
(1.4685815 -8.4675284e-05 0)
(1.4687138 -7.9092127e-05 0)
(1.4688375 -7.3876727e-05 0)
(1.4689529 -6.9011966e-05 0)
(1.4690608 -6.4456065e-05 0)
(1.4691614 -6.0206466e-05 0)
(1.4692557 -5.6216426e-05 0)
(1.4693433 -5.2511212e-05 0)
(1.4694257 -4.9020468e-05 0)
(1.4695019 -4.5809112e-05 0)
(1.4695741 -4.2766751e-05 0)
(1.4696402 -3.9998129e-05 0)
(1.4697038 -3.7298421e-05 0)
(1.4697606 -3.493693e-05 0)
(1.4698171 -3.254431e-05 0)
(1.4698654 -3.052159e-05 0)
(1.4699167 -2.8275515e-05 0)
(1.469956 -2.6693835e-05 0)
(1.4700044 -2.4634186e-05 0)
(1.4700341 -2.3491703e-05 0)
(1.4700832 -2.143055e-05 0)
(1.4701001 -2.0831115e-05 0)
(1.4701556 -1.8666228e-05 0)
(1.0007347 -0.011814722 0)
(1.0178472 -0.030860926 0)
(1.0462163 -0.041434441 0)
(1.0799018 -0.04519357 0)
(1.1132664 -0.045502352 0)
(1.143782 -0.044080308 0)
(1.1708941 -0.041439981 0)
(1.1945687 -0.037973676 0)
(1.2148582 -0.034195728 0)
(1.2319652 -0.030536887 0)
(1.2462683 -0.027222046 0)
(1.2582339 -0.024313922 0)
(1.2683135 -0.021797888 0)
(1.2768875 -0.019633659 0)
(1.2842554 -0.017773825 0)
(1.2906479 -0.01616965 0)
(1.296243 -0.014775589 0)
(1.3011791 -0.013552298 0)
(1.3055645 -0.012467865 0)
(1.3094838 -0.011497467 0)
(1.3130042 -0.010622162 0)
(1.3161792 -0.0098275132 0)
(1.3190526 -0.0091024102 0)
(1.3216607 -0.0084381755 0)
(1.3240343 -0.0078279027 0)
(1.3261995 -0.0072659738 0)
(1.3281786 -0.0067477089 0)
(1.3299913 -0.0062691178 0)
(1.3316544 -0.0058267289 0)
(1.3331829 -0.0054174747 0)
(1.3345896 -0.0050386134 0)
(1.3358862 -0.0046876741 0)
(1.3370827 -0.004362419 0)
(1.3381882 -0.0040608132 0)
(1.3392108 -0.0037810025 0)
(1.3401576 -0.0035212935 0)
(1.3410349 -0.0032801376 0)
(1.3418486 -0.0030561178 0)
(1.3426038 -0.0028479351 0)
(1.3433051 -0.002654399 0)
(1.3439569 -0.0024744172 0)
(1.3445629 -0.0023069869 0)
(1.3451267 -0.002151186 0)
(1.3456513 -0.0020061662 0)
(1.3461398 -0.0018711466 0)
(1.3465947 -0.0017454077 0)
(1.3470185 -0.0016282859 0)
(1.3474135 -0.0015191682 0)
(1.3477816 -0.0014174877 0)
(1.3481249 -0.0013227204 0)
(1.3484449 -0.0012343812 0)
(1.3487435 -0.0011520212 0)
(1.349022 -0.0010752241 0)
(1.3492818 -0.0010036046 0)
(1.3495242 -0.00093680627 0)
(1.3497505 -0.00087449827 0)
(1.3499616 -0.00081637371 0)
(1.3501587 -0.00076214732 0)
(1.3503427 -0.00071155286 0)
(1.3505145 -0.00066434206 0)
(1.3506748 -0.00062028494 0)
(1.3508245 -0.00057916748 0)
(1.3509643 -0.00054079025 0)
(1.3510948 -0.00050496774 0)
(1.3512167 -0.00047152892 0)
(1.3513305 -0.00044031422 0)
(1.3514368 -0.00041117608 0)
(1.3515361 -0.00038397603 0)
(1.3516288 -0.00035858507 0)
(1.3517153 -0.0003348805 0)
(1.3517962 -0.00031274867 0)
(1.3518717 -0.00029208112 0)
(1.3519422 -0.00027278096 0)
(1.3520081 -0.00025475461 0)
(1.3520696 -0.00023792299 0)
(1.3521271 -0.00022220387 0)
(1.3521807 -0.00020753118 0)
(1.3522309 -0.00019382822 0)
(1.3522777 -0.00018104137 0)
(1.3523215 -0.00016909296 0)
(1.3523623 -0.00015794554 0)
(1.3524005 -0.00014751404 0)
(1.352436 -0.00013778948 0)
(1.3524695 -0.00012867417 0)
(1.3525004 -0.00012020145 0)
(1.3525297 -0.0001122306 0)
(1.3525565 -0.00010487654 0)
(1.3525822 -9.7908973e-05 0)
(1.3526054 -9.1531298e-05 0)
(1.3526282 -8.5379514e-05 0)
(1.3526479 -7.9948047e-05 0)
(1.3526684 -7.4467394e-05 0)
(1.352685 -6.9789501e-05 0)
(1.3527037 -6.4798777e-05 0)
(1.352717 -6.1148044e-05 0)
(1.3527348 -5.6465101e-05 0)
(1.3527447 -5.3716617e-05 0)
(1.3527629 -4.9123504e-05 0)
(1.3527684 -4.7720925e-05 0)
(1.3527888 -4.2976273e-05 0)
(1.0014244 -0.026824855 0)
(1.0291272 -0.062791353 0)
(1.0654292 -0.077736552 0)
(1.098962 -0.080597199 0)
(1.1253149 -0.078285171 0)
(1.145053 -0.0731539 0)
(1.1594858 -0.066111279 0)
(1.1694287 -0.058162064 0)
(1.1755354 -0.050296754 0)
(1.1785738 -0.043150707 0)
(1.1793571 -0.036972824 0)
(1.1785949 -0.031771631 0)
(1.1768304 -0.02745184 0)
(1.1744518 -0.023886769 0)
(1.1717287 -0.020947621 0)
(1.1688444 -0.018515781 0)
(1.1659195 -0.016488085 0)
(1.1630317 -0.014779502 0)
(1.1602295 -0.013322984 0)
(1.1575415 -0.012067132 0)
(1.1549828 -0.010973 0)
(1.1525601 -0.010011061 0)
(1.1502747 -0.0091587468 0)
(1.1481246 -0.0083986048 0)
(1.1461059 -0.0077169512 0)
(1.1442134 -0.0071028888 0)
(1.1424414 -0.0065475924 0)
(1.1407838 -0.0060437955 0)
(1.1392344 -0.0055854257 0)
(1.1377869 -0.005167344 0)
(1.1364353 -0.0047851566 0)
(1.1351738 -0.0044350757 0)
(1.1339968 -0.0041138162 0)
(1.1328987 -0.0038185128 0)
(1.1318746 -0.0035466533 0)
(1.1309195 -0.0032960276 0)
(1.1300289 -0.0030646839 0)
(1.1291985 -0.0028508915 0)
(1.1284242 -0.0026531106 0)
(1.1277022 -0.002469968 0)
(1.1270291 -0.0023002347 0)
(1.1264014 -0.0021428057 0)
(1.1258161 -0.0019966866 0)
(1.1252702 -0.0018609798 0)
(1.1247612 -0.0017348713 0)
(1.1242865 -0.0016176218 0)
(1.1238437 -0.0015085591 0)
(1.1234307 -0.0014070697 0)
(1.1230455 -0.0013125926 0)
(1.1226861 -0.0012246142 0)
(1.1223509 -0.0011426635 0)
(1.1220381 -0.0010663059 0)
(1.1217462 -0.00099514229 0)
(1.1214739 -0.00092880556 0)
(1.1212198 -0.00086695605 0)
(1.1209827 -0.00080927976 0)
(1.1207614 -0.00075548703 0)
(1.1205548 -0.00070530938 0)
(1.1203621 -0.00065849679 0)
(1.1201821 -0.00061481827 0)
(1.1200142 -0.0005740611 0)
(1.1198574 -0.00053602581 0)
(1.1197111 -0.00050052692 0)
(1.1195745 -0.00046739367 0)
(1.1194469 -0.00043646675 0)
(1.1193278 -0.00040759583 0)
(1.1192167 -0.00038064266 0)
(1.1191129 -0.0003554794 0)
(1.119016 -0.00033198598 0)
(1.1189255 -0.00031004966 0)
(1.118841 -0.00028956832 0)
(1.1187621 -0.00027044318 0)
(1.1186885 -0.00025258469 0)
(1.1186197 -0.00023590778 0)
(1.1185554 -0.00022033621 0)
(1.1184955 -0.00020579244 0)
(1.1184394 -0.00019221341 0)
(1.1183871 -0.00017952873 0)
(1.1183383 -0.00016768629 0)
(1.1182927 -0.00015661819 0)
(1.11825 -0.00014628991 0)
(1.1182103 -0.00013663165 0)
(1.1181731 -0.00012762847 0)
(1.1181384 -0.00011920001 0)
(1.1181059 -0.00011135741 0)
(1.1180757 -0.00010399329 0)
(1.1180473 -9.7171539e-05 0)
(1.1180211 -9.0719999e-05 0)
(1.1179962 -8.4786782e-05 0)
(1.1179734 -7.9128653e-05 0)
(1.1179516 -7.4033742e-05 0)
(1.1179319 -6.8991653e-05 0)
(1.1179128 -6.4616711e-05 0)
(1.1178955 -6.0152265e-05 0)
(1.117879 -5.6621896e-05 0)
(1.1178635 -5.2447808e-05 0)
(1.11785 -4.9724329e-05 0)
(1.1178349 -4.5793283e-05 0)
(1.1178262 -4.4324975e-05 0)
(1.1178083 -4.0581628e-05 0)
(1.0016583 -0.05381943 0)
(1.0359761 -0.10128444 0)
(1.0597199 -0.11073663 0)
(1.0628947 -0.10592201 0)
(1.0515569 -0.096228727 0)
(1.0340529 -0.083934061 0)
(1.0142795 -0.070327063 0)
(0.99360703 -0.056981334 0)
(0.97292577 -0.04510748 0)
(0.95310739 -0.03523675 0)
(0.93479538 -0.027401649 0)
(0.91829012 -0.021387226 0)
(0.90362379 -0.016884499 0)
(0.89068067 -0.01356971 0)
(0.87928174 -0.01114775 0)
(0.86923242 -0.0093736602 0)
(0.86034423 -0.0080569287 0)
(0.85244667 -0.007057127 0)
(0.84539241 -0.0062752373 0)
(0.83905793 -0.0056438274 0)
(0.83334126 -0.00511809 0)
(0.82815884 -0.0046686716 0)
(0.82344212 -0.0042764173 0)
(0.81913467 -0.0039287393 0)
(0.81518962 -0.0036172044 0)
(0.81156765 -0.0033359713 0)
(0.80823544 -0.0030808046 0)
(0.8051644 -0.0028484689 0)
(0.80232979 -0.0026363686 0)
(0.79970999 -0.0024423374 0)
(0.79728597 -0.0022645176 0)
(0.79504086 -0.0021012887 0)
(0.79295963 -0.0019512246 0)
(0.7910288 -0.001813063 0)
(0.78923627 -0.0016856843 0)
(0.7875711 -0.0015680937 0)
(0.78602338 -0.0014594071 0)
(0.78458412 -0.0013588368 0)
(0.78324511 -0.0012656807 0)
(0.78199889 -0.0011793111 0)
(0.7808386 -0.0010991659 0)
(0.77975799 -0.0010247396 0)
(0.77875128 -0.00095557702 0)
(0.77781318 -0.00089126706 0)
(0.77693881 -0.00083143689 0)
(0.77612368 -0.0007757476 0)
(0.77536363 -0.00072389063 0)
(0.77465481 -0.0006755842 0)
(0.77399368 -0.00063057049 0)
(0.77337693 -0.00058861315 0)
(0.77280153 -0.00054949473 0)
(0.77226464 -0.00051301464 0)
(0.77176363 -0.00047898825 0)
(0.77129606 -0.00044724525 0)
(0.77085967 -0.00041762756 0)
(0.77045234 -0.00038998873 0)
(0.77007212 -0.00036419349 0)
(0.76971718 -0.000340116 0)
(0.76938581 -0.00031763934 0)
(0.76907644 -0.00029665563 0)
(0.7687876 -0.00027706489 0)
(0.76851791 -0.00025877341 0)
(0.7682661 -0.00024169416 0)
(0.76803096 -0.00022574664 0)
(0.76781139 -0.00021085514 0)
(0.76760636 -0.00019694821 0)
(0.76741489 -0.00018396003 0)
(0.76723609 -0.00017182929 0)
(0.7670691 -0.00016049901 0)
(0.76691316 -0.00014991578 0)
(0.76676751 -0.00014003133 0)
(0.7666315 -0.00013079953 0)
(0.76650447 -0.00012217824 0)
(0.76638583 -0.0001141263 0)
(0.76627502 -0.00010660694 0)
(0.76617153 -9.9582407e-05 0)
(0.76607487 -9.3021968e-05 0)
(0.76598459 -8.6891111e-05 0)
(0.76590026 -8.1164929e-05 0)
(0.76582151 -7.5811591e-05 0)
(0.76574794 -7.0814924e-05 0)
(0.76567924 -6.6143424e-05 0)
(0.76561505 -6.1789762e-05 0)
(0.76555513 -5.7715512e-05 0)
(0.76549912 -5.3923219e-05 0)
(0.76544686 -5.0365302e-05 0)
(0.76539797 -4.7061751e-05 0)
(0.7653524 -4.3938354e-05 0)
(0.76530971 -4.1061703e-05 0)
(0.76526996 -3.8338816e-05 0)
(0.76523271 -3.5843032e-05 0)
(0.76519805 -3.3412999e-05 0)
(0.76516559 -3.1288541e-05 0)
(0.76513518 -2.9214134e-05 0)
(0.76510712 -2.7408111e-05 0)
(0.76507998 -2.5522954e-05 0)
(0.76505665 -2.4065052e-05 0)
(0.76503057 -2.255942e-05 0)
(0.76501444 -2.1601153e-05 0)
(0.76498345 -2.0991388e-05 0)
(0.91890839 -0.035821913 0)
(0.86271384 -0.062195639 0)
(0.7870597 -0.06251009 0)
(0.69536033 -0.054550395 0)
(0.61089745 -0.044531651 0)
(0.54411592 -0.034015971 0)
(0.49343012 -0.024187539 0)
(0.45479413 -0.01614423 0)
(0.42544582 -0.010265786 0)
(0.40347313 -0.0063041452 0)
(0.38715766 -0.0037976291 0)
(0.3749622 -0.0023103378 0)
(0.36566192 -0.0014930148 0)
(0.35836272 -0.0010851185 0)
(0.35244268 -0.00090607278 0)
(0.34748201 -0.00084105213 0)
(0.34320348 -0.00082372425 0)
(0.33942726 -0.00081931022 0)
(0.33603793 -0.00081185165 0)
(0.33296114 -0.00079580086 0)
(0.33014778 -0.00077081119 0)
(0.32756384 -0.00073870942 0)
(0.3251842 -0.00070188949 0)
(0.32298902 -0.00066256601 0)
(0.32096172 -0.00062249997 0)
(0.31908785 -0.00058295781 0)
(0.31735449 -0.00054477178 0)
(0.31574995 -0.00050843412 0)
(0.3142636 -0.00047419138 0)
(0.31288574 -0.0004421243 0)
(0.31160755 -0.00041220911 0)
(0.31042101 -0.00038436128 0)
(0.30931883 -0.00035846475 0)
(0.30829438 -0.00033439028 0)
(0.30734165 -0.00031200682 0)
(0.30645515 -0.00029118787 0)
(0.30562991 -0.0002718146 0)
(0.30486136 -0.00025377703 0)
(0.30414535 -0.00023697443 0)
(0.30347807 -0.0002213148 0)
(0.30285601 -0.00020671401 0)
(0.30227596 -0.0001930952 0)
(0.30173496 -0.00018038818 0)
(0.30123029 -0.00016852849 0)
(0.30075942 -0.00015745689 0)
(0.30032002 -0.00014711888 0)
(0.29990993 -0.0001374642 0)
(0.29952715 -0.00012844636 0)
(0.29916983 -0.00012002241 0)
(0.29883624 -0.00011215254 0)
(0.29852478 -0.00010479966 0)
(0.29823397 -9.792931e-05 0)
(0.29796241 -9.1509578e-05 0)
(0.29770882 -8.5510696e-05 0)
(0.29747201 -7.990481e-05 0)
(0.29725084 -7.4666022e-05 0)
(0.29704429 -6.9770188e-05 0)
(0.29685138 -6.5194658e-05 0)
(0.2966712 -6.091843e-05 0)
(0.29650291 -5.6922131e-05 0)
(0.29634572 -5.3187509e-05 0)
(0.2961989 -4.9697344e-05 0)
(0.29606176 -4.643579e-05 0)
(0.29593366 -4.3388035e-05 0)
(0.29581401 -4.0539946e-05 0)
(0.29570224 -3.7878308e-05 0)
(0.29559784 -3.5390988e-05 0)
(0.29550032 -3.3066444e-05 0)
(0.29540922 -3.0893984e-05 0)
(0.29532413 -2.8863745e-05 0)
(0.29524464 -2.6966658e-05 0)
(0.29517039 -2.5194034e-05 0)
(0.29510103 -2.3538118e-05 0)
(0.29503625 -2.1991069e-05 0)
(0.29497573 -2.054585e-05 0)
(0.29491919 -1.9195264e-05 0)
(0.29486639 -1.7933511e-05 0)
(0.29481706 -1.6753755e-05 0)
(0.29477097 -1.5651475e-05 0)
(0.29472793 -1.4620545e-05 0)
(0.29468772 -1.3658335e-05 0)
(0.29465016 -1.2758473e-05 0)
(0.29461507 -1.1920288e-05 0)
(0.2945823 -1.1135458e-05 0)
(0.29455168 -1.0405418e-05 0)
(0.29452309 -9.7195869e-06 0)
(0.29449637 -9.082811e-06 0)
(0.29447143 -8.4798251e-06 0)
(0.2944481 -7.9268028e-06 0)
(0.29442633 -7.4018244e-06 0)
(0.29440597 -6.9178021e-06 0)
(0.29438699 -6.4492759e-06 0)
(0.29436922 -6.0465064e-06 0)
(0.2943526 -5.6607062e-06 0)
(0.29433714 -5.3052365e-06 0)
(0.2943225 -4.9720187e-06 0)
(0.2943092 -4.6865019e-06 0)
(0.29429569 -4.5404714e-06 0)
(0.294285 -4.407393e-06 0)
(0.29426873 -5.0560448e-06 0)
)
;

boundaryField
{
    top
    {
        type            fixedValue;
        value           uniform (0 0 0);
    }
    inlet
    {
        type            fixedValue;
        value           uniform (1 0 0);
    }
    outlet
    {
        type            zeroGradient;
    }
    bottom
    {
        type            fixedValue;
        value           uniform (0 0 0);
    }
    back
    {
        type            empty;
    }
    front
    {
        type            empty;
    }
}


// ************************************************************************* //
