/*--------------------------------*- C++ -*----------------------------------*\
| =========                 |                                                 |
| \\      /  F ield         | OpenFOAM: The Open Source CFD Toolbox           |
|  \\    /   O peration     | Version:  v1812                                 |
|   \\  /    A nd           | Web:      www.OpenFOAM.com                      |
|    \\/     M anipulation  |                                                 |
\*---------------------------------------------------------------------------*/
FoamFile
{
    version     2.0;
    format      ascii;
    class       volScalarField;
    location    "0.6";
    object      p;
}
// * * * * * * * * * * * * * * * * * * * * * * * * * * * * * * * * * * * * * //

dimensions      [0 2 -2 0 0 0 0];


internalField   nonuniform List<scalar> 
1000
(
2.3721888
2.2517318
2.15527
2.0888132
2.0415886
2.0065753
1.9785304
1.9543979
1.9327538
1.9124427
1.8924724
1.8723218
1.8518916
1.831196
1.8103171
1.7893172
1.7682426
1.7471242
1.7259813
1.7048253
1.6836624
1.662496
1.6413279
1.6201591
1.5989899
1.5778206
1.5566513
1.535482
1.5143126
1.4931433
1.471974
1.4508047
1.4296354
1.4084661
1.3872968
1.3661275
1.3449582
1.3237889
1.3026196
1.2814504
1.2602811
1.2391118
1.2179425
1.1967732
1.1756039
1.1544346
1.1332653
1.1120961
1.0909268
1.0697575
1.0485882
1.0274189
1.0062496
0.98508033
0.96391104
0.94274176
0.92157247
0.90040318
0.8792339
0.85806461
0.83689532
0.81572604
0.79455675
0.77338746
0.75221818
0.73104889
0.7098796
0.68871032
0.66754103
0.64637174
0.62520246
0.60403317
0.58286389
0.5616946
0.54052531
0.51935603
0.49818674
0.47701745
0.45584817
0.43467888
0.41350959
0.39234032
0.371171
0.3500018
0.32883232
0.30766352
0.28649319
0.26532619
0.24415243
0.22299182
0.20180788
0.18066264
0.1594625
0.13833093
0.11714579
0.095967501
0.074890909
0.053582963
0.032529759
0.011038735
2.2552644
2.2025787
2.1415925
2.0853089
2.0417507
2.0104211
1.9840877
1.9590733
1.9358151
1.9143644
1.8937078
1.8730848
1.8522922
1.8313893
1.8104103
1.7893604
1.7682613
1.7471314
1.7259834
1.7048253
1.6836618
1.6624953
1.6413274
1.6201587
1.5989897
1.5778205
1.5566512
1.5354819
1.5143126
1.4931433
1.471974
1.4508047
1.4296354
1.4084661
1.3872968
1.3661275
1.3449582
1.3237889
1.3026196
1.2814504
1.2602811
1.2391118
1.2179425
1.1967732
1.1756039
1.1544346
1.1332653
1.1120961
1.0909268
1.0697575
1.0485882
1.0274189
1.0062496
0.98508033
0.96391104
0.94274176
0.92157247
0.90040318
0.8792339
0.85806461
0.83689532
0.81572604
0.79455675
0.77338746
0.75221818
0.73104889
0.7098796
0.68871032
0.66754103
0.64637174
0.62520246
0.60403317
0.58286389
0.5616946
0.54052531
0.51935603
0.49818674
0.47701745
0.45584816
0.43467888
0.41350958
0.39234033
0.37117097
0.35000188
0.32883214
0.30766391
0.28649233
0.26532788
0.2441491
0.22299756
0.20179797
0.18067618
0.15944293
0.1383443
0.11713499
0.095944159
0.074982532
0.05354917
0.032685828
0.01115671
2.1954512
2.1724459
2.1343089
2.0869337
2.0464766
2.0176075
1.991947
1.9653788
1.9400016
1.9170025
1.8953721
1.8740977
1.8528824
1.8317152
1.8105718
1.7894394
1.7682996
1.7471491
1.725991
1.7048281
1.6836626
1.6624953
1.6413271
1.6201584
1.5989894
1.5778203
1.5566511
1.5354818
1.5143125
1.4931432
1.471974
1.4508047
1.4296354
1.4084661
1.3872968
1.3661275
1.3449582
1.3237889
1.3026196
1.2814504
1.2602811
1.2391118
1.2179425
1.1967732
1.1756039
1.1544346
1.1332653
1.1120961
1.0909268
1.0697575
1.0485882
1.0274189
1.0062496
0.98508033
0.96391104
0.94274176
0.92157247
0.90040318
0.8792339
0.85806461
0.83689532
0.81572604
0.79455675
0.77338746
0.75221818
0.73104889
0.7098796
0.68871032
0.66754103
0.64637174
0.62520246
0.60403317
0.58286389
0.5616946
0.54052531
0.51935603
0.49818674
0.47701745
0.45584816
0.43467888
0.41350958
0.39234034
0.37117093
0.35000194
0.32883198
0.30766422
0.28649166
0.2653291
0.24414674
0.22300134
0.20179162
0.18068463
0.1594326
0.13835743
0.11714342
0.095959656
0.075074577
0.053602635
0.032811388
0.011252815
2.1669631
2.154884
2.1282318
2.0871873
2.049322
2.0218707
1.9966817
1.9694659
1.9429625
1.9189958
1.8966875
1.8749379
1.8533909
1.8320044
1.8107347
1.7895257
1.7683429
1.7471702
1.7260009
1.7048326
1.6836644
1.6624959
1.6413272
1.6201583
1.5989893
1.5778201
1.556651
1.5354817
1.5143125
1.4931432
1.4719739
1.4508047
1.4296354
1.4084661
1.3872968
1.3661275
1.3449582
1.3237889
1.3026196
1.2814504
1.2602811
1.2391118
1.2179425
1.1967732
1.1756039
1.1544346
1.1332653
1.1120961
1.0909268
1.0697575
1.0485882
1.0274189
1.0062496
0.98508033
0.96391104
0.94274176
0.92157247
0.90040318
0.8792339
0.85806461
0.83689532
0.81572604
0.79455675
0.77338746
0.75221818
0.73104889
0.7098796
0.68871032
0.66754103
0.64637174
0.62520246
0.60403317
0.58286389
0.5616946
0.54052531
0.51935603
0.49818674
0.47701745
0.45584816
0.43467888
0.41350957
0.39234034
0.37117092
0.35000197
0.32883189
0.30766437
0.28649131
0.26532966
0.2441456
0.22300303
0.20178908
0.18068889
0.15943155
0.13836688
0.11716013
0.095979722
0.075130841
0.053631719
0.032844167
0.011291282
2.1546433
2.1461214
2.1240285
2.0863173
2.0500736
2.023411
1.9986036
1.9713103
1.9444166
1.9200255
1.8973875
1.8753976
1.8536771
1.8321735
1.8108313
1.7895797
1.7683716
1.7471845
1.7260078
1.7048359
1.6836658
1.6624965
1.6413274
1.6201583
1.5989892
1.5778201
1.5566509
1.5354817
1.5143125
1.4931432
1.4719739
1.4508047
1.4296354
1.4084661
1.3872968
1.3661275
1.3449582
1.3237889
1.3026196
1.2814504
1.2602811
1.2391118
1.2179425
1.1967732
1.1756039
1.1544346
1.1332653
1.1120961
1.0909268
1.0697575
1.0485882
1.0274189
1.0062496
0.98508033
0.96391104
0.94274176
0.92157247
0.90040318
0.8792339
0.85806461
0.83689532
0.81572604
0.79455675
0.77338746
0.75221818
0.73104889
0.7098796
0.68871032
0.66754103
0.64637174
0.62520246
0.60403317
0.58286389
0.5616946
0.54052531
0.51935603
0.49818674
0.47701745
0.45584816
0.43467888
0.41350957
0.39234035
0.37117091
0.35000199
0.32883186
0.30766443
0.28649117
0.26532987
0.24414514
0.22300368
0.20178843
0.18069106
0.15943334
0.13837213
0.11717043
0.095988924
0.075152467
0.053642299
0.032852235
0.011306606
2.1546433
2.1461214
2.1240285
2.0863173
2.0500737
2.023411
1.9986036
1.9713103
1.9444166
1.9200255
1.8973875
1.8753976
1.8536771
1.8321735
1.8108313
1.7895797
1.7683715
1.7471844
1.7260078
1.7048359
1.6836658
1.6624965
1.6413274
1.6201583
1.5989892
1.5778201
1.5566509
1.5354817
1.5143125
1.4931432
1.4719739
1.4508047
1.4296354
1.4084661
1.3872968
1.3661275
1.3449582
1.3237889
1.3026196
1.2814504
1.2602811
1.2391118
1.2179425
1.1967732
1.1756039
1.1544346
1.1332653
1.1120961
1.0909268
1.0697575
1.0485882
1.0274189
1.0062496
0.98508033
0.96391104
0.94274176
0.92157247
0.90040318
0.8792339
0.85806461
0.83689532
0.81572604
0.79455675
0.77338746
0.75221818
0.73104889
0.7098796
0.68871032
0.66754103
0.64637174
0.62520246
0.60403317
0.58286389
0.5616946
0.54052531
0.51935603
0.49818674
0.47701745
0.45584816
0.43467888
0.41350957
0.39234035
0.37117091
0.35000199
0.32883186
0.30766443
0.28649117
0.26532987
0.24414514
0.22300368
0.20178843
0.18069106
0.15943334
0.13837213
0.11717043
0.095988924
0.075152468
0.053642301
0.032852238
0.011306607
2.1669631
2.154884
2.1282318
2.0871873
2.049322
2.0218707
1.9966817
1.9694659
1.9429625
1.9189958
1.8966875
1.8749379
1.8533909
1.8320044
1.8107347
1.7895257
1.7683429
1.7471702
1.7260009
1.7048326
1.6836643
1.6624959
1.6413272
1.6201583
1.5989893
1.5778201
1.556651
1.5354817
1.5143125
1.4931432
1.4719739
1.4508047
1.4296354
1.4084661
1.3872968
1.3661275
1.3449582
1.3237889
1.3026196
1.2814504
1.2602811
1.2391118
1.2179425
1.1967732
1.1756039
1.1544346
1.1332653
1.1120961
1.0909268
1.0697575
1.0485882
1.0274189
1.0062496
0.98508033
0.96391104
0.94274176
0.92157247
0.90040318
0.8792339
0.85806461
0.83689532
0.81572604
0.79455675
0.77338746
0.75221818
0.73104889
0.7098796
0.68871032
0.66754103
0.64637174
0.62520246
0.60403317
0.58286389
0.5616946
0.54052531
0.51935603
0.49818674
0.47701745
0.45584816
0.43467888
0.41350957
0.39234034
0.37117091
0.35000197
0.3288319
0.30766437
0.28649132
0.26532966
0.24414559
0.22300303
0.20178909
0.18068889
0.15943156
0.13836688
0.11716013
0.095979722
0.075130846
0.053631726
0.032844173
0.011291285
2.1954512
2.172446
2.1343089
2.0869338
2.0464766
2.0176075
1.9919469
1.9653787
1.9400016
1.9170025
1.8953721
1.8740977
1.8528824
1.8317152
1.8105718
1.7894394
1.7682995
1.7471491
1.7259909
1.7048281
1.6836625
1.6624953
1.6413271
1.6201584
1.5989894
1.5778203
1.556651
1.5354818
1.5143125
1.4931432
1.471974
1.4508047
1.4296354
1.4084661
1.3872968
1.3661275
1.3449582
1.3237889
1.3026196
1.2814504
1.2602811
1.2391118
1.2179425
1.1967732
1.1756039
1.1544346
1.1332653
1.1120961
1.0909268
1.0697575
1.0485882
1.0274189
1.0062496
0.98508033
0.96391104
0.94274176
0.92157247
0.90040318
0.8792339
0.85806461
0.83689532
0.81572604
0.79455675
0.77338746
0.75221818
0.73104889
0.7098796
0.68871032
0.66754103
0.64637174
0.62520246
0.60403317
0.58286389
0.5616946
0.54052531
0.51935603
0.49818674
0.47701745
0.45584816
0.43467888
0.41350957
0.39234034
0.37117093
0.35000194
0.32883198
0.30766423
0.28649167
0.2653291
0.24414674
0.22300133
0.20179162
0.18068464
0.15943261
0.13835744
0.11714343
0.095959657
0.075074584
0.053602646
0.0328114
0.011252819
2.2552644
2.2025787
2.1415926
2.085309
2.0417508
2.0104211
1.9840877
1.9590732
1.9358151
1.9143644
1.8937078
1.8730848
1.8522923
1.8313893
1.8104102
1.7893604
1.7682613
1.7471314
1.7259834
1.7048253
1.6836618
1.6624953
1.6413274
1.6201587
1.5989897
1.5778205
1.5566512
1.5354819
1.5143126
1.4931433
1.471974
1.4508047
1.4296354
1.4084661
1.3872968
1.3661275
1.3449582
1.3237889
1.3026196
1.2814504
1.2602811
1.2391118
1.2179425
1.1967732
1.1756039
1.1544346
1.1332653
1.1120961
1.0909268
1.0697575
1.0485882
1.0274189
1.0062496
0.98508033
0.96391104
0.94274176
0.92157247
0.90040318
0.8792339
0.85806461
0.83689532
0.81572604
0.79455675
0.77338746
0.75221818
0.73104889
0.7098796
0.68871032
0.66754103
0.64637174
0.62520246
0.60403317
0.58286389
0.5616946
0.54052531
0.51935603
0.49818674
0.47701745
0.45584816
0.43467888
0.41350958
0.39234033
0.37117097
0.35000188
0.32883214
0.30766392
0.28649234
0.26532788
0.2441491
0.22299755
0.20179797
0.18067619
0.15944294
0.1383443
0.11713499
0.095944158
0.07498254
0.053549188
0.032685845
0.011156715
2.3721888
2.2517318
2.1552701
2.0888133
2.0415886
2.0065753
1.9785304
1.9543978
1.9327537
1.9124426
1.8924724
1.8723219
1.8518916
1.831196
1.810317
1.7893172
1.7682425
1.7471241
1.7259813
1.7048253
1.6836624
1.662496
1.6413279
1.6201591
1.5989899
1.5778206
1.5566513
1.535482
1.5143126
1.4931433
1.471974
1.4508047
1.4296354
1.4084661
1.3872968
1.3661275
1.3449582
1.3237889
1.3026196
1.2814504
1.2602811
1.2391118
1.2179425
1.1967732
1.1756039
1.1544346
1.1332653
1.1120961
1.0909268
1.0697575
1.0485882
1.0274189
1.0062496
0.98508033
0.96391104
0.94274176
0.92157247
0.90040318
0.8792339
0.85806461
0.83689532
0.81572604
0.79455675
0.77338746
0.75221818
0.73104889
0.7098796
0.68871032
0.66754103
0.64637174
0.62520246
0.60403317
0.58286389
0.5616946
0.54052531
0.51935603
0.49818674
0.47701745
0.45584816
0.43467888
0.41350959
0.39234032
0.371171
0.35000181
0.32883233
0.30766352
0.28649319
0.26532619
0.24415243
0.22299183
0.20180789
0.18066265
0.1594625
0.13833093
0.11714578
0.0959675
0.074890921
0.053582983
0.032529774
0.011038739
)
;

boundaryField
{
    top
    {
        type            zeroGradient;
    }
    inlet
    {
        type            zeroGradient;
    }
    outlet
    {
        type            fixedValue;
        value           uniform 0;
    }
    bottom
    {
        type            zeroGradient;
    }
    back
    {
        type            empty;
    }
    front
    {
        type            empty;
    }
}


// ************************************************************************* //
