/*--------------------------------*- C++ -*----------------------------------*\
| =========                 |                                                 |
| \\      /  F ield         | OpenFOAM: The Open Source CFD Toolbox           |
|  \\    /   O peration     | Version:  2112                                  |
|   \\  /    A nd           | Website:  www.openfoam.com                      |
|    \\/     M anipulation  |                                                 |
\*---------------------------------------------------------------------------*/
FoamFile
{
    version     2.0;
    format      ascii;
    arch        "LSB;label=32;scalar=64";
    class       volScalarField;
    location    "10";
    object      p;
}
// * * * * * * * * * * * * * * * * * * * * * * * * * * * * * * * * * * * * * //

dimensions      [0 2 -2 0 0 0 0];

internalField   nonuniform List<scalar> 
1000
(
1.5264379
1.5093547
1.4927812
1.4765556
1.460546
1.4446759
1.4289046
1.4132097
1.3975766
1.3819934
1.3664504
1.3509403
1.335458
1.3199998
1.3045628
1.2891449
1.2737441
1.2583587
1.2429873
1.2276285
1.2122812
1.1969444
1.1816171
1.1662986
1.150988
1.1356847
1.120388
1.1050973
1.0898121
1.0745319
1.0592563
1.0439849
1.0287172
1.013453
0.99819192
0.98293364
0.96767791
0.95242449
0.93717315
0.92192369
0.9066759
0.89142961
0.87618466
0.86094089
0.84569816
0.83045633
0.8152153
0.79997494
0.78473516
0.76949587
0.75425698
0.73901842
0.72378013
0.70854205
0.69330414
0.67806637
0.66282869
0.64759108
0.63235354
0.61711603
0.60187854
0.58664108
0.57140363
0.55616619
0.54092875
0.52569132
0.51045388
0.49521645
0.47997902
0.46474159
0.44950416
0.43426673
0.41902931
0.40379188
0.38855445
0.37331702
0.35807959
0.34284216
0.32760473
0.3123673
0.29712987
0.28189244
0.26665501
0.25141758
0.23618015
0.22094272
0.20570529
0.19046786
0.17523043
0.159993
0.14475557
0.12951814
0.11428071
0.099043279
0.08380585
0.06856842
0.053330991
0.038093563
0.022856136
0.0076187102
1.5260434
1.5089302
1.4926539
1.4766592
1.4607143
1.4448205
1.4290147
1.4132995
1.3976554
1.3820632
1.3665107
1.3509915
1.3355017
1.3200375
1.3045959
1.2891742
1.2737701
1.2583818
1.2430079
1.2276469
1.2122978
1.1969593
1.1816305
1.1663106
1.1509988
1.1356944
1.1203967
1.1051051
1.0898191
1.0745382
1.0592619
1.0439899
1.0287216
1.0134569
0.99819534
0.98293664
0.96768053
0.95242677
0.93717512
0.92192537
0.90667733
0.89143082
0.87618566
0.86094172
0.84569883
0.83045688
0.81521573
0.79997528
0.78473542
0.76949606
0.75425712
0.73901852
0.7237802
0.7085421
0.69330418
0.67806639
0.6628287
0.64759109
0.63235354
0.61711603
0.60187854
0.58664108
0.57140363
0.55616619
0.54092875
0.52569132
0.51045388
0.49521645
0.47997902
0.46474159
0.44950416
0.43426673
0.41902931
0.40379188
0.38855445
0.37331702
0.35807959
0.34284216
0.32760473
0.3123673
0.29712987
0.28189244
0.26665501
0.25141758
0.23618015
0.22094272
0.20570529
0.19046786
0.17523043
0.159993
0.14475557
0.12951814
0.11428071
0.099043279
0.083805849
0.06856842
0.053330991
0.038093562
0.022856134
0.0076187088
1.525359
1.5080961
1.4922238
1.4766249
1.4608444
1.44495
1.4291018
1.4133617
1.397712
1.3821185
1.3665614
1.3510351
1.3355381
1.3200684
1.3046228
1.2891978
1.2737909
1.2584003
1.2430242
1.2276615
1.2123107
1.1969709
1.1816409
1.16632
1.1510072
1.1357019
1.1204034
1.1051112
1.0898245
1.0745431
1.0592663
1.0439938
1.0287251
1.01346
0.99819811
0.98293909
0.9676827
0.95242867
0.93717679
0.92192683
0.90667859
0.89143191
0.8761866
0.86094251
0.8456995
0.83045743
0.81521619
0.79997565
0.78473572
0.7694963
0.75425731
0.73901867
0.72378031
0.70854219
0.69330424
0.67806643
0.66282874
0.64759112
0.63235356
0.61711604
0.60187855
0.58664108
0.57140363
0.55616619
0.54092875
0.52569132
0.51045388
0.49521645
0.47997902
0.46474159
0.44950416
0.43426673
0.41902931
0.40379188
0.38855445
0.37331702
0.35807959
0.34284216
0.32760473
0.3123673
0.29712987
0.28189244
0.26665501
0.25141758
0.23618015
0.22094272
0.20570529
0.19046786
0.17523043
0.159993
0.14475557
0.12951814
0.11428071
0.099043279
0.083805849
0.068568419
0.053330989
0.03809356
0.022856131
0.0076187068
1.524704
1.5072307
1.4917014
1.4765115
1.460938
1.4450695
1.4291847
1.4134194
1.3977658
1.3821745
1.3666155
1.3510828
1.3355784
1.3201026
1.3046524
1.2892239
1.273814
1.2584207
1.2430423
1.2276776
1.2123251
1.1969838
1.1816525
1.1663304
1.1510166
1.1357104
1.1204111
1.1051181
1.0898308
1.0745488
1.0592714
1.0439984
1.0287293
1.0134638
0.99820151
0.98294215
0.96768545
0.95243114
0.93717899
0.92192879
0.90668033
0.89143344
0.87618795
0.86094369
0.84570053
0.83045832
0.81521695
0.7999763
0.78473627
0.76949675
0.75425768
0.73901897
0.72378055
0.70854238
0.69330439
0.67806655
0.66282882
0.64759118
0.6323536
0.61711607
0.60187857
0.5866411
0.57140364
0.5561662
0.54092876
0.52569132
0.51045389
0.49521646
0.47997902
0.46474159
0.44950416
0.43426673
0.41902931
0.40379188
0.38855445
0.37331702
0.35807959
0.34284216
0.32760473
0.3123673
0.29712987
0.28189244
0.26665501
0.25141758
0.23618015
0.22094272
0.20570529
0.19046786
0.17523043
0.159993
0.14475557
0.12951814
0.11428071
0.099043278
0.083805848
0.068568418
0.053330988
0.038093558
0.022856129
0.0076187052
1.5243206
1.5067029
1.4913608
1.4764209
1.4609871
1.4451436
1.429238
1.4134562
1.3978003
1.3822115
1.3666524
1.3511161
1.335607
1.3201272
1.304674
1.2892431
1.2738312
1.2584359
1.2430559
1.2276897
1.2123361
1.1969936
1.1816614
1.1663385
1.1510239
1.1357171
1.1204171
1.1051236
1.0898358
1.0745533
1.0592755
1.0440021
1.0287327
1.0134668
0.99820426
0.98294464
0.96768769
0.95243316
0.9371808
0.92193042
0.90668179
0.89143474
0.8761891
0.86094471
0.84570142
0.8304591
0.81521762
0.79997687
0.78473675
0.76949716
0.75425802
0.73901925
0.72378078
0.70854256
0.69330453
0.67806666
0.66282891
0.64759124
0.63235365
0.61711611
0.6018786
0.58664112
0.57140365
0.5561662
0.54092876
0.52569132
0.51045389
0.49521646
0.47997903
0.46474159
0.44950416
0.43426673
0.41902931
0.40379188
0.38855445
0.37331702
0.35807959
0.34284216
0.32760473
0.3123673
0.29712987
0.28189244
0.26665501
0.25141758
0.23618015
0.22094272
0.20570529
0.19046786
0.17523043
0.159993
0.14475557
0.12951814
0.11428071
0.099043278
0.083805847
0.068568417
0.053330987
0.038093557
0.022856127
0.0076187044
1.5243206
1.5067028
1.4913608
1.4764209
1.4609871
1.4451436
1.429238
1.4134562
1.3978003
1.3822115
1.3666524
1.3511161
1.335607
1.3201272
1.304674
1.2892431
1.2738312
1.2584359
1.2430559
1.2276897
1.2123361
1.1969936
1.1816614
1.1663385
1.1510239
1.1357171
1.1204171
1.1051236
1.0898358
1.0745533
1.0592755
1.0440021
1.0287327
1.0134668
0.99820426
0.98294464
0.96768769
0.95243316
0.9371808
0.92193042
0.90668179
0.89143474
0.8761891
0.86094471
0.84570142
0.8304591
0.81521762
0.79997687
0.78473675
0.76949716
0.75425802
0.73901925
0.72378078
0.70854256
0.69330453
0.67806666
0.66282891
0.64759124
0.63235365
0.61711611
0.6018786
0.58664112
0.57140365
0.5561662
0.54092876
0.52569132
0.51045389
0.49521646
0.47997903
0.46474159
0.44950416
0.43426673
0.41902931
0.40379188
0.38855445
0.37331702
0.35807959
0.34284216
0.32760473
0.3123673
0.29712987
0.28189244
0.26665501
0.25141758
0.23618015
0.22094272
0.20570529
0.19046786
0.17523043
0.159993
0.14475557
0.12951814
0.11428071
0.099043278
0.083805847
0.068568417
0.053330987
0.038093557
0.022856127
0.0076187045
1.524704
1.5072307
1.4917014
1.4765115
1.460938
1.4450695
1.4291847
1.4134194
1.3977658
1.3821745
1.3666155
1.3510828
1.3355784
1.3201026
1.3046525
1.2892239
1.273814
1.2584207
1.2430423
1.2276776
1.2123251
1.1969838
1.1816525
1.1663304
1.1510166
1.1357104
1.1204111
1.1051181
1.0898308
1.0745488
1.0592714
1.0439984
1.0287293
1.0134638
0.99820151
0.98294215
0.96768544
0.95243113
0.93717899
0.92192879
0.90668033
0.89143344
0.87618795
0.86094369
0.84570053
0.83045832
0.81521695
0.7999763
0.78473626
0.76949675
0.75425768
0.73901897
0.72378055
0.70854238
0.69330439
0.67806655
0.66282882
0.64759118
0.6323536
0.61711607
0.60187858
0.5866411
0.57140364
0.5561662
0.54092876
0.52569132
0.51045389
0.49521646
0.47997902
0.46474159
0.44950416
0.43426673
0.4190293
0.40379188
0.38855445
0.37331702
0.35807959
0.34284216
0.32760473
0.3123673
0.29712987
0.28189244
0.26665501
0.25141758
0.23618015
0.22094272
0.20570529
0.19046786
0.17523043
0.159993
0.14475557
0.12951814
0.11428071
0.099043278
0.083805848
0.068568418
0.053330988
0.038093558
0.022856129
0.0076187054
1.525359
1.5080961
1.4922238
1.4766249
1.4608443
1.44495
1.4291017
1.4133617
1.397712
1.3821185
1.3665614
1.3510351
1.3355381
1.3200685
1.3046228
1.2891978
1.2737909
1.2584003
1.2430242
1.2276615
1.2123107
1.1969709
1.1816409
1.16632
1.1510072
1.1357019
1.1204034
1.1051112
1.0898245
1.0745431
1.0592663
1.0439938
1.0287251
1.01346
0.99819811
0.98293909
0.9676827
0.95242867
0.93717679
0.92192683
0.90667859
0.89143191
0.8761866
0.86094251
0.8456995
0.83045743
0.81521619
0.79997565
0.78473572
0.7694963
0.75425731
0.73901867
0.72378031
0.70854219
0.69330424
0.67806644
0.66282874
0.64759112
0.63235356
0.61711604
0.60187855
0.58664109
0.57140363
0.55616619
0.54092875
0.52569132
0.51045389
0.49521645
0.47997902
0.46474159
0.44950416
0.43426673
0.4190293
0.40379188
0.38855445
0.37331702
0.35807959
0.34284216
0.32760473
0.3123673
0.29712987
0.28189244
0.26665501
0.25141758
0.23618015
0.22094272
0.20570529
0.19046786
0.17523043
0.159993
0.14475557
0.12951814
0.11428071
0.099043278
0.083805848
0.068568419
0.053330989
0.03809356
0.022856131
0.0076187069
1.5260434
1.5089302
1.4926539
1.4766592
1.4607143
1.4448204
1.4290146
1.4132994
1.3976554
1.3820632
1.3665107
1.3509916
1.3355017
1.3200375
1.3045959
1.2891742
1.2737701
1.2583818
1.2430079
1.2276469
1.2122978
1.1969593
1.1816305
1.1663106
1.1509988
1.1356944
1.1203967
1.1051051
1.0898191
1.0745382
1.0592619
1.0439899
1.0287216
1.0134569
0.99819534
0.98293664
0.96768053
0.95242677
0.93717512
0.92192537
0.90667733
0.89143082
0.87618566
0.86094172
0.84569883
0.83045688
0.81521573
0.79997528
0.78473542
0.76949607
0.75425712
0.73901852
0.7237802
0.7085421
0.69330418
0.67806639
0.66282871
0.6475911
0.63235354
0.61711603
0.60187855
0.58664108
0.57140363
0.55616619
0.54092875
0.52569132
0.51045388
0.49521645
0.47997902
0.46474159
0.44950416
0.43426673
0.4190293
0.40379188
0.38855445
0.37331702
0.35807959
0.34284216
0.32760473
0.3123673
0.29712987
0.28189244
0.26665501
0.25141758
0.23618015
0.22094272
0.20570529
0.19046786
0.17523043
0.159993
0.14475557
0.12951814
0.11428071
0.099043279
0.083805849
0.06856842
0.053330991
0.038093563
0.022856134
0.0076187089
1.5264379
1.5093547
1.4927812
1.4765556
1.460546
1.4446759
1.4289046
1.4132097
1.3975766
1.3819934
1.3664504
1.3509404
1.335458
1.3199998
1.3045628
1.289145
1.2737441
1.2583588
1.2429873
1.2276285
1.2122812
1.1969444
1.1816171
1.1662986
1.150988
1.1356847
1.120388
1.1050973
1.0898121
1.0745319
1.0592563
1.0439849
1.0287172
1.013453
0.99819192
0.98293363
0.96767791
0.95242449
0.93717315
0.92192369
0.9066759
0.89142961
0.87618466
0.86094089
0.84569815
0.83045633
0.8152153
0.79997494
0.78473516
0.76949587
0.75425698
0.73901842
0.72378013
0.70854205
0.69330414
0.67806637
0.66282869
0.64759109
0.63235354
0.61711603
0.60187855
0.58664108
0.57140363
0.55616619
0.54092875
0.52569132
0.51045389
0.49521645
0.47997902
0.46474159
0.44950416
0.43426673
0.4190293
0.40379188
0.38855445
0.37331702
0.35807959
0.34284216
0.32760473
0.3123673
0.29712987
0.28189244
0.26665501
0.25141758
0.23618015
0.22094272
0.20570529
0.19046786
0.17523043
0.159993
0.14475557
0.12951814
0.11428071
0.099043279
0.083805849
0.06856842
0.053330992
0.038093563
0.022856136
0.0076187103
)
;

boundaryField
{
    top
    {
        type            zeroGradient;
    }
    inlet
    {
        type            fixedValue;
        value           uniform 1.5352;
    }
    outlet
    {
        type            fixedValue;
        value           uniform 0;
    }
    bottom
    {
        type            zeroGradient;
    }
    back
    {
        type            empty;
    }
    front
    {
        type            empty;
    }
}


// ************************************************************************* //
