/*--------------------------------*- C++ -*----------------------------------*\
| =========                 |                                                 |
| \\      /  F ield         | OpenFOAM: The Open Source CFD Toolbox           |
|  \\    /   O peration     | Version:  2112                                  |
|   \\  /    A nd           | Website:  www.openfoam.com                      |
|    \\/     M anipulation  |                                                 |
\*---------------------------------------------------------------------------*/
FoamFile
{
    version     2.0;
    format      ascii;
    arch        "LSB;label=32;scalar=64";
    class       surfaceScalarField;
    location    "10";
    object      phi;
}
// * * * * * * * * * * * * * * * * * * * * * * * * * * * * * * * * * * * * * //

dimensions      [0 3 -1 0 0 0 0];

oriented        oriented;

internalField   nonuniform List<scalar> 
1890
(
0.0027356022
3.3532824e-06
0.0027247195
1.0883137e-05
0.0027118453
1.2873799e-05
0.0027006371
1.1207473e-05
0.0026919743
8.6621096e-06
0.0026852821
6.6915782e-06
0.0026798483
5.4333374e-06
0.0026752634
4.5844902e-06
0.0026713491
3.9139406e-06
0.0026680045
3.3443446e-06
0.0026651335
2.8708243e-06
0.0026626419
2.491417e-06
0.0026604523
2.18953e-06
0.002658509
1.9432389e-06
0.0026567737
1.7353104e-06
0.0026552182
1.5555358e-06
0.0026538199
1.3983317e-06
0.0026525599
1.2600041e-06
0.0026514224
1.1375043e-06
0.0026503943
1.0282354e-06
0.0026494642
9.3014726e-07
0.0026486226
8.4168386e-07
0.002647861
7.6165275e-07
0.002647172
6.8907948e-07
0.002646549
6.2314473e-07
0.0026459859
5.6314105e-07
0.0026454776
5.0846663e-07
0.0026450191
4.5859869e-07
0.0026446061
4.1308727e-07
0.0026442346
3.7153247e-07
0.0026439012
3.3358357e-07
0.0026436023
2.9892373e-07
0.0026433352
2.6727232e-07
0.0026430969
2.3837333e-07
0.002642885
2.1199867e-07
0.0026426972
1.879395e-07
0.0026425312
1.6601007e-07
0.0026423853
1.4604121e-07
0.0026422575
1.2788384e-07
0.0026421462
1.1140394e-07
0.0026420498
9.6484673e-08
0.0026419669
8.3021772e-08
0.002641896
7.0923879e-08
0.002641836
6.0108303e-08
0.0026417856
5.0499499e-08
0.0026417436
4.202562e-08
0.0026417091
3.4616026e-08
0.002641681
2.8199758e-08
0.0026416583
2.2702928e-08
0.0026416403
1.8049721e-08
0.0026416262
1.4160314e-08
0.0026416153
1.0954463e-08
0.002641607
8.3496513e-09
0.0026416008
6.2663955e-09
0.0026415962
4.6260813e-09
0.0026415929
3.3571415e-09
0.0026415905
2.392009e-09
0.0026415889
1.6723174e-09
0.0026415878
1.1450868e-09
0.002641587
7.6745983e-10
0.0026415865
5.0190551e-10
0.0026415862
3.2014382e-10
0.002641586
1.9795015e-10
0.0026415859
1.1868659e-10
0.0026415859
6.8047591e-11
0.0026415858
3.7416493e-11
0.0026415858
1.8936255e-11
0.0026415858
8.8864075e-12
0.0026415858
3.1981286e-12
0.0026415858
7.6438195e-13
0.0026415858
-4.8684523e-13
0.0026415858
-5.8018999e-13
0.0026415858
-7.8310429e-13
0.0026415858
-3.2795792e-13
0.0026415858
-3.2762614e-13
0.0026415858
1.110937e-13
0.0026415858
1.299011e-13
0.0026415858
5.5329263e-13
0.0026415858
5.0435018e-13
0.0026415858
8.8651215e-13
0.0026415858
8.1242368e-13
0.0026415858
1.1656605e-12
0.0026415858
1.0285815e-12
0.0026415858
1.3236364e-12
0.0026415858
1.1551879e-12
0.0026415858
1.3946003e-12
0.0026415858
1.2181982e-12
0.0026415858
1.3745285e-12
0.0026415858
1.3202946e-12
0.0026415858
1.4703117e-12
0.0026415858
1.7435859e-12
0.0026415858
2.0738811e-12
0.0026415858
3.2639706e-12
0.0026415858
4.6191698e-12
0.0026415858
8.7068094e-12
0.0026415857
1.3831947e-11
0.0026415857
2.5347774e-11
0.0026415857
3.9406808e-11
0.0026415856
7.3562102e-11
1.0171181e-10
0.0066248268
3.6293381e-06
0.0066206454
1.5065173e-05
0.0066130464
2.0472692e-05
0.0066043035
1.9949679e-05
0.006595868
1.7096928e-05
0.0065880988
1.4460273e-05
0.0065809467
1.2585054e-05
0.0065743628
1.1168038e-05
0.0065683614
9.9149852e-06
0.0065629552
8.7503822e-06
0.0065581158
7.7100171e-06
0.0065537857
6.8213859e-06
0.0065499021
6.0730825e-06
0.0065464102
5.4350782e-06
0.006543265
4.8804776e-06
0.0065404283
4.3922102e-06
0.0065378667
3.9599641e-06
0.0065355506
3.5760488e-06
0.0065334546
3.233606e-06
0.0065315562
2.9265884e-06
0.0065298364
2.6500213e-06
0.0065282782
2.3999808e-06
0.0065268666
2.1733225e-06
0.0065255883
1.9674414e-06
0.0065244314
1.7801117e-06
0.0065233851
1.6094235e-06
0.00652244
1.4537261e-06
0.006521587
1.3115933e-06
0.0065208184
1.1817749e-06
0.0065201269
1.0631702e-06
0.0065195057
9.5479666e-07
0.0065189489
8.5577749e-07
0.006518451
7.6532117e-07
0.0065180067
6.827155e-07
0.0065176115
6.0731348e-07
0.0065172609
5.3853093e-07
0.0065169512
4.7583756e-07
0.0065166785
4.1875672e-07
0.0065164396
3.6685953e-07
0.0065162314
3.197643e-07
0.0065160508
2.7713145e-07
0.0065158952
2.3866052e-07
0.0065157621
2.040842e-07
0.0065156491
1.7316219e-07
0.006515554
1.4567438e-07
0.0065154747
1.2141252e-07
0.0065154092
1.0017471e-07
0.0065153557
8.1757504e-08
0.0065153125
6.5953989e-08
0.0065152781
5.2548718e-08
0.006515251
4.1320782e-08
0.00651523
3.2042269e-08
0.0065152139
2.4485392e-08
0.0065152018
1.842314e-08
0.0065151928
1.363821e-08
0.0065151862
9.9237616e-09
0.0065151816
7.0915557e-09
0.0065151783
4.9706923e-09
0.0065151761
3.4136162e-09
0.0065151745
2.2927086e-09
0.0065151736
1.5036141e-09
0.0065151729
9.5988554e-10
0.0065151725
5.9499347e-10
0.0065151723
3.5590354e-10
0.0065151722
2.0444224e-10
0.0065151721
1.1108449e-10
0.0065151721
5.6291471e-11
0.0065151721
2.5249317e-11
0.0065151721
9.0225331e-12
0.0065151721
1.1915579e-12
0.0065151721
-1.7329467e-12
0.0065151721
-2.760684e-12
0.0065151721
-2.2624961e-12
0.0065151721
-1.7955218e-12
0.0065151721
-9.3024804e-13
0.0065151721
-4.7855794e-13
0.0065151721
1.8528213e-13
0.0065151721
4.8243364e-13
0.0065151721
9.8350267e-13
0.0065151721
1.0960757e-12
0.0065151721
1.5963962e-12
0.0065151721
1.6260503e-12
0.0065151721
2.1037612e-12
0.0065151721
2.0220641e-12
0.0065151721
2.536988e-12
0.0065151721
2.368963e-12
0.0065151721
2.9255244e-12
0.0065151721
2.6396041e-12
0.0065151721
3.452776e-12
0.0065151721
3.2038342e-12
0.0065151721
4.6478875e-12
0.0065151721
4.8075103e-12
0.006515172
8.0158189e-12
0.006515172
1.0331807e-11
0.006515172
1.8228565e-11
0.006515172
2.6745645e-11
0.006515172
4.4490441e-11
0.006515172
6.6920544e-11
0.0065151719
9.9880229e-11
1.3325974e-10
0.0092201618
2.5670726e-06
0.0092228453
1.2382268e-05
0.009225046
1.8271582e-05
0.0092260077
1.8987335e-05
0.0092260373
1.7066786e-05
0.0092254596
1.5037522e-05
0.0092244495
1.3594797e-05
0.0092231201
1.24972e-05
0.0092215859
1.1448819e-05
0.0092199512
1.0384872e-05
0.009218291
9.3700498e-06
0.009216652
8.4603643e-06
0.0092150621
7.6628872e-06
0.0092135396
6.9574933e-06
0.0092120964
6.3236274e-06
0.0092107392
5.7494066e-06
0.0092094705
5.2286825e-06
0.0092082899
4.7566309e-06
0.0092071953
4.3281566e-06
0.0092061837
3.9382395e-06
0.0092052512
3.5825342e-06
0.0092043938
3.2574854e-06
0.009203607
2.9601463e-06
0.0092028865
2.6879591e-06
0.009202228
2.438655e-06
0.0092016273
2.2102056e-06
0.0092010802
2.0008105e-06
0.009200583
1.8088612e-06
0.0092001319
1.6329181e-06
0.0091997235
1.4716768e-06
0.0091993544
1.3239554e-06
0.0091990215
1.1886734e-06
0.0091987221
1.0648462e-06
0.0091984533
9.5156937e-07
0.0091982126
8.4801627e-07
0.0091979978
7.5342699e-07
0.0091978066
6.6710844e-07
0.009197637
5.8842708e-07
0.0091974871
5.1680994e-07
0.0091973552
4.5173882e-07
0.0091972396
3.9275038e-07
0.0091971389
3.3942956e-07
0.0091970516
2.9140641e-07
0.0091969765
2.4834751e-07
0.0091969123
2.0994942e-07
0.0091968578
1.7592884e-07
0.009196812
1.4601424e-07
0.0091967739
1.1993778e-07
0.0091967425
9.7428459e-08
0.0091967169
7.8208809e-08
0.0091966963
6.199199e-08
0.0091966799
4.8484453e-08
0.009196667
3.7387363e-08
0.0091966571
2.8403833e-08
0.0091966495
2.1242556e-08
0.0091966438
1.5626566e-08
0.0091966396
1.1296317e-08
0.0091966366
8.0170007e-09
0.0091966345
5.5789287e-09
0.009196633
3.8018887e-09
0.009196632
2.53253e-09
0.0091966313
1.645819e-09
0.0091966309
1.0401427e-09
0.0091966306
6.3714832e-10
0.0091966304
3.7584169e-10
0.0091966303
2.1192877e-10
0.0091966303
1.1238578e-10
0.0091966302
5.4730239e-11
0.0091966302
2.2893435e-11
0.0091966302
6.7749345e-12
0.0091966302
-7.1089086e-13
0.0091966302
-3.1237004e-12
0.0091966302
-3.5094897e-12
0.0091966302
-2.6652426e-12
0.0091966302
-1.7690099e-12
0.0091966302
-7.4009064e-13
0.0091966302
4.0014563e-14
0.0091966302
6.9897365e-13
0.0091966302
1.1381487e-12
0.0091966302
1.6159789e-12
0.0091966302
1.8647058e-12
0.0091966302
2.2304955e-12
0.0091966302
2.397829e-12
0.0091966302
2.6969261e-12
0.0091966302
2.8727022e-12
0.0091966302
3.0905236e-12
0.0091966302
3.345424e-12
0.0091966302
3.5220403e-12
0.0091966302
4.061161e-12
0.0091966302
4.3307749e-12
0.0091966302
5.5902572e-12
0.0091966302
6.5103023e-12
0.0091966302
9.766759e-12
0.0091966302
1.3349592e-11
0.0091966302
2.0745573e-11
0.0091966302
3.0205532e-11
0.0091966302
4.457135e-11
0.0091966302
6.5010977e-11
0.0091966302
8.7117246e-11
1.1264959e-10
0.010790328
1.2766525e-06
0.010796029
6.6819768e-06
0.010803994
1.0306297e-05
0.010811898
1.1082115e-05
0.010818778
1.0187161e-05
0.010824685
9.1295363e-06
0.010829881
8.3988778e-06
0.010834511
7.8660483e-06
0.010838623
7.3370999e-06
0.010842243
6.7645136e-06
0.01084542
6.1933047e-06
0.010848213
5.6665038e-06
0.010850682
5.1943845e-06
0.010852872
4.7675948e-06
0.01085482
4.3754472e-06
0.010856557
4.0126462e-06
0.010858108
3.677375e-06
0.010859496
3.3683173e-06
0.010860741
3.0835536e-06
0.010861858
2.8209166e-06
0.010862862
2.5784308e-06
0.010863765
2.3544834e-06
0.010864578
2.1476953e-06
0.010865309
1.956838e-06
0.010865967
1.7807526e-06
0.010866559
1.6183745e-06
0.010867091
1.4687074e-06
0.010867569
1.3308461e-06
0.010867998
1.2039401e-06
0.010868382
1.0872097e-06
0.010868727
9.7991661e-07
0.010869034
8.8138247e-07
0.010869308
7.9096458e-07
0.010869551
7.0807263e-07
0.010869767
6.3214822e-07
0.010869958
5.6268005e-07
0.010870126
4.9918724e-07
0.010870273
4.4123246e-07
0.010870402
3.8840878e-07
0.010870513
3.4035038e-07
0.010870609
2.967214e-07
0.010870692
2.572229e-07
0.010870761
2.2158268e-07
0.01087082
1.8955767e-07
0.010870869
1.6092443e-07
0.01087091
1.3547698e-07
0.010870943
1.1301892e-07
0.01087097
9.3358678e-08
0.010870991
7.6305253e-08
0.010871007
6.1663001e-08
0.01087102
4.9232674e-08
0.01087103
3.8807449e-08
0.010871037
3.0179457e-08
0.010871042
2.3136998e-08
0.010871046
1.7474845e-08
0.010871049
1.2991407e-08
0.010871051
9.5004806e-09
0.010871052
6.8267558e-09
0.010871053
4.8167866e-09
0.010871053
3.3319555e-09
0.010871053
2.2578643e-09
0.010871054
1.4949795e-09
0.010871054
9.6637082e-10
0.010871054
6.068061e-10
0.010871054
3.6980577e-10
0.010871054
2.1633621e-10
0.010871054
1.2138418e-10
0.010871054
6.3395231e-11
0.010871054
3.0722747e-11
0.010871054
1.2171339e-11
0.010871054
3.6141329e-12
0.010871054
-8.7197704e-13
0.010871054
-1.5435039e-12
0.010871054
-1.9738518e-12
0.010871054
-8.3430316e-13
0.010871054
-4.7763715e-13
0.010871054
6.8134111e-13
0.010871054
8.3687713e-13
0.010871054
1.8446212e-12
0.010871054
1.6976258e-12
0.010871054
2.5409474e-12
0.010871054
2.1884106e-12
0.010871054
2.9718996e-12
0.010871054
2.4998853e-12
0.010871054
3.2599163e-12
0.010871054
2.7046747e-12
0.010871054
3.5657987e-12
0.010871054
3.0097518e-12
0.010871054
4.0962764e-12
0.010871054
3.6886471e-12
0.010871054
5.3592567e-12
0.010871054
5.7385008e-12
0.010871054
8.9027097e-12
0.010871054
1.1266484e-11
0.010871054
1.6873795e-11
0.010871054
2.2255778e-11
0.010871054
3.0747036e-11
0.010871054
4.1690579e-11
0.010871054
5.2299071e-11
6.5483587e-11
0.01152645
2.900988e-11
0.011533133
1.0796953e-10
0.011543439
7.3981881e-11
0.01155452
2.5137645e-11
0.011564706
3.8639614e-11
0.011573835
6.7327241e-11
0.011582234
8.1319576e-11
0.011590099
6.2424356e-11
0.011597436
3.6283726e-11
0.011604201
9.0382647e-12
0.011610394
-2.2595185e-11
0.01161606
-6.0273759e-11
0.011621255
-9.8427647e-11
0.011626022
-1.3817807e-10
0.011630398
-1.6898896e-10
0.011634411
-1.9638206e-10
0.011638088
-2.1399629e-10
0.011641457
-2.2859422e-10
0.011644541
-2.3367634e-10
0.011647362
-2.3535026e-10
0.01164994
-2.2818566e-10
0.011652295
-2.1886301e-10
0.011654443
-2.0271385e-10
0.0116564
-1.8572736e-10
0.011658181
-1.6379581e-10
0.0116598
-1.4265309e-10
0.011661269
-1.1861924e-10
0.0116626
-9.6580855e-11
0.011663804
-7.3340856e-11
0.011664891
-5.3253481e-11
0.011665871
-3.3498113e-11
0.011666752
-1.7369547e-11
0.011667543
-2.1780552e-12
0.011668252
9.5414936e-12
0.011668884
1.999185e-11
0.011669446
2.741725e-11
0.011669946
3.4349779e-11
0.011670387
3.9284719e-11
0.011670775
4.4427738e-11
0.011671116
4.8850294e-11
0.011671412
5.4203419e-11
0.01167167
5.9771405e-11
0.011671891
6.6444125e-11
0.011672081
7.3742e-11
0.011672242
8.1785669e-11
0.011672377
9.0232467e-11
0.01167249
9.8466192e-11
0.011672583
1.0641266e-10
0.01167266
1.1300392e-10
0.011672721
1.1859164e-10
0.01167277
1.2181591e-10
0.011672809
1.2347968e-10
0.011672839
1.2222484e-10
0.011672862
1.194232e-10
0.01167288
1.1373703e-10
0.011672893
1.0688203e-10
0.011672902
9.7641392e-11
0.011672909
8.810372e-11
0.011672913
7.7031139e-11
0.011672917
6.6528252e-11
0.011672919
5.531561e-11
0.01167292
4.5554834e-11
0.011672921
3.5785038e-11
0.011672922
2.7906867e-11
0.011672922
2.0343915e-11
0.011672923
1.4898238e-11
0.011672923
9.8200396e-12
0.011672923
6.6774426e-12
0.011672923
3.6458794e-12
0.011672923
2.2981537e-12
0.011672923
8.8331703e-13
0.011672923
7.0921184e-13
0.011672923
1.4925858e-13
0.011672923
6.4295998e-13
0.011672923
5.3155788e-13
0.011672923
1.2905503e-12
0.011672923
1.198232e-12
0.011672923
1.9860232e-12
0.011672923
1.8708911e-12
0.011672923
2.5281585e-12
0.011672923
2.2328584e-12
0.011672923
2.7765729e-12
0.011672923
2.4144567e-12
0.011672923
2.8393854e-12
0.011672923
2.3559399e-12
0.011672923
2.7628405e-12
0.011672923
2.3334498e-12
0.011672923
2.7833151e-12
0.011672923
2.4154683e-12
0.011672923
3.061005e-12
0.011672923
3.0699363e-12
0.011672923
4.2814449e-12
0.011672923
4.8721669e-12
0.011672923
6.5943587e-12
0.011672923
7.2465488e-12
0.011672923
8.1275379e-12
0.011672923
8.1278279e-12
0.011672923
7.9766972e-12
0.011672923
6.9432203e-12
6.6608825e-12
0.01152645
-1.2767309e-06
0.011533132
-6.6823146e-06
0.011543438
-1.0306472e-05
0.01155452
-1.1082053e-05
0.011564706
-1.0187033e-05
0.011573835
-9.1294627e-06
0.011582234
-8.3988239e-06
0.0115901
-7.8659895e-06
0.011597436
-7.3370423e-06
0.011604201
-6.7644913e-06
0.011610394
-6.1933436e-06
0.01161606
-5.6666159e-06
0.011621255
-5.194566e-06
0.011626022
-4.7678423e-06
0.011630398
-4.3757496e-06
0.011634411
-4.012997e-06
0.011638088
-3.677761e-06
0.011641457
-3.3687293e-06
0.01164454
-3.0839768e-06
0.011647361
-2.8213415e-06
0.01164994
-2.5788442e-06
0.011652295
-2.3548787e-06
0.011654443
-2.1480622e-06
0.0116564
-1.9571726e-06
0.011658181
-1.7810482e-06
0.011659799
-1.6186304e-06
0.011661268
-1.4689202e-06
0.011662599
-1.3310177e-06
0.011663803
-1.2040703e-06
0.01166489
-1.0873027e-06
0.01166587
-9.7997455e-07
0.011666752
-8.8141064e-07
0.011667543
-7.9096604e-07
0.011668251
-7.0805289e-07
0.011668883
-6.3211036e-07
0.011669446
-5.6262856e-07
0.011669945
-4.9912391e-07
0.011670386
-4.4115996e-07
0.011670775
-3.8832729e-07
0.011671115
-3.4026049e-07
0.011671412
-2.9662184e-07
0.011671669
-2.5711284e-07
0.011671891
-2.2146031e-07
0.01167208
-1.8942178e-07
0.011672241
-1.6077377e-07
0.011672377
-1.3531107e-07
0.01167249
-1.1283811e-07
0.011672583
-9.3163969e-08
0.011672659
-7.6098857e-08
0.011672721
-6.1447397e-08
0.01167277
-4.9011733e-08
0.011672809
-3.8584675e-08
0.011672839
-2.9959459e-08
0.011672862
-2.2923297e-08
0.011672879
-1.7271882e-08
0.011672892
-1.280195e-08
0.011672902
-9.327869e-09
0.011672909
-6.672232e-09
0.011672913
-4.6821518e-09
0.011672917
-3.2168642e-09
0.011672919
-2.1625273e-09
0.01167292
-1.4175423e-09
0.011672921
-9.058995e-10
0.011672922
-5.6065285e-10
0.011672922
-3.3640948e-10
0.011672923
-1.9275596e-10
0.011672923
-1.0611205e-10
0.011672923
-5.3776539e-11
0.011672923
-2.5699767e-11
0.011672923
-9.6149571e-12
0.011672923
-2.8712415e-12
0.011672923
1.1529771e-12
0.011672923
1.5171711e-12
0.011672923
2.6147969e-12
0.011672923
1.7923651e-12
0.011672923
2.5254276e-12
0.011672923
1.7108901e-12
0.011672923
2.626026e-12
0.011672923
1.8548286e-12
0.011672923
2.7437523e-12
0.011672923
1.8841274e-12
0.011672923
2.7316262e-12
0.011672923
1.7527583e-12
0.011672923
2.4585253e-12
0.011672923
1.3818471e-12
0.011672923
2.1269608e-12
0.011672923
1.001702e-12
0.011672923
1.7644824e-12
0.011672923
6.7018976e-13
0.011672923
1.6337697e-12
0.011672923
6.0235745e-13
0.011672923
1.6142463e-12
0.011672923
2.9163213e-13
0.011672923
1.6945015e-13
0.011672923
-3.7551522e-12
0.011672923
-7.714651e-12
0.011672923
-1.5961756e-11
0.011672923
-2.7622487e-11
0.011672923
-3.9620191e-11
-5.3241312e-11
0.010790329
-2.5670358e-06
0.010796029
-1.2382162e-05
0.010803994
-1.8271598e-05
0.010811899
-1.898743e-05
0.010818778
-1.706683e-05
0.010824685
-1.5037485e-05
0.010829881
-1.3594729e-05
0.010834512
-1.2497133e-05
0.010838623
-1.1448779e-05
0.010842243
-1.0384856e-05
0.01084542
-9.3700713e-06
0.010848213
-8.460421e-06
0.010850682
-7.6629955e-06
0.010852872
-6.9576458e-06
0.01085482
-6.3238306e-06
0.010856556
-5.749644e-06
0.010858107
-5.228955e-06
0.010859496
-4.7569197e-06
0.01086074
-4.3284613e-06
0.010861857
-3.9385422e-06
0.010862861
-3.582835e-06
0.010863764
-3.2577686e-06
0.010864577
-2.9604134e-06
0.010865308
-2.6881979e-06
0.010865966
-2.438869e-06
0.010866557
-2.2103858e-06
0.010867089
-2.0009624e-06
0.010867568
-1.808979e-06
0.010867997
-1.6330089e-06
0.010868381
-1.4717373e-06
0.010868725
-1.3239934e-06
0.010869032
-1.1886874e-06
0.010869306
-1.064844e-06
0.01086955
-9.5155018e-07
0.010869766
-8.4798662e-07
0.010869957
-7.5338601e-07
0.010870125
-6.6706091e-07
0.010870272
-5.883714e-07
0.010870401
-5.1674868e-07
0.010870512
-4.5166981e-07
0.010870608
-3.9267445e-07
0.01087069
-3.3934447e-07
0.01087076
-2.9131195e-07
0.010870819
-2.4824229e-07
0.010870868
-2.0983309e-07
0.010870909
-1.7580157e-07
0.010870942
-1.4587622e-07
0.010870969
-1.1979103e-07
0.01087099
-9.7273816e-08
0.010871007
-7.8049936e-08
0.01087102
-6.1830199e-08
0.010871029
-4.8324399e-08
0.010871037
-3.7230172e-08
0.010871042
-2.8254397e-08
0.010871046
-2.1101365e-08
0.010871049
-1.5498016e-08
0.010871051
-1.1179692e-08
0.010871052
-7.9157324e-09
0.010871053
-5.4910698e-09
0.010871053
-3.7297964e-09
0.010871054
-2.4729862e-09
0.010871054
-1.6002345e-09
0.010871054
-1.0047229e-09
0.010871054
-6.1264928e-10
0.010871054
-3.581851e-10
0.010871054
-2.0177292e-10
0.010871054
-1.0590921e-10
0.010871054
-5.2731426e-11
0.010871054
-2.2084519e-11
0.010871054
-8.1319818e-12
0.010871054
-1.4229732e-13
0.010871054
1.3131679e-12
0.010871054
3.1918042e-12
0.010871054
1.9664279e-12
0.010871054
2.8253564e-12
0.010871054
1.474336e-12
0.010871054
2.5124917e-12
0.010871054
1.3588024e-12
0.010871054
2.4471316e-12
0.010871054
1.2620448e-12
0.010871054
2.2911081e-12
0.010871054
1.0601436e-12
0.010871054
1.8496804e-12
0.010871054
6.0718484e-13
0.010871054
1.2289027e-12
0.010871054
1.9568193e-13
0.010871054
5.7580477e-13
0.010871054
-3.3708078e-13
0.010871054
-3.3065725e-14
0.010871054
-7.1238308e-13
0.010871054
-5.5657987e-13
0.010871054
-1.6945448e-12
0.010871054
-2.6974722e-12
0.010871054
-6.1464869e-12
0.010871054
-1.1205366e-11
0.010871054
-2.0447757e-11
0.010871054
-3.405928e-11
0.010871054
-5.5099021e-11
0.010871054
-7.7843942e-11
-1.0301964e-10
0.0092201619
-3.6293242e-06
0.0092228453
-1.5065123e-05
0.0092250462
-2.0472716e-05
0.0092260079
-1.9949836e-05
0.0092260375
-1.7097136e-05
0.0092254599
-1.4460424e-05
0.0092244498
-1.2585129e-05
0.0092231203
-1.1168066e-05
0.0092215861
-9.9150018e-06
0.0092199513
-8.7503934e-06
0.0092182911
-7.7100269e-06
0.0092166519
-6.8213961e-06
0.0092150619
-6.0731075e-06
0.0092135393
-5.4351252e-06
0.009212096
-4.8805539e-06
0.0092107386
-4.3923112e-06
0.0092094697
-3.9600874e-06
0.009208289
-3.5761852e-06
0.0092071943
-3.2337525e-06
0.0092061826
-2.9267369e-06
0.00920525
-2.6501692e-06
0.0092043924
-2.4001207e-06
0.0092036055
-2.1734528e-06
0.0092028849
-1.967557e-06
0.0092022263
-1.7802127e-06
0.0092016255
-1.6095064e-06
0.0092010784
-1.4537924e-06
0.0092005812
-1.3116418e-06
0.0092001301
-1.181808e-06
0.0091997216
-1.0631878e-06
0.0091993525
-9.5480195e-07
0.0091990197
-8.5577107e-07
0.0091987203
-7.6530616e-07
0.0091984515
-6.8269255e-07
0.0091982109
-6.0728512e-07
0.0091979961
-5.3849748e-07
0.0091978049
-4.7580059e-07
0.0091976354
-4.1871593e-07
0.0091974855
-3.6681547e-07
0.0091973537
-3.1971622e-07
0.0091972382
-2.7707922e-07
0.0091971375
-2.386034e-07
0.0091970503
-2.0402186e-07
0.0091969753
-1.7309429e-07
0.0091969111
-1.4560083e-07
0.0091968567
-1.2133389e-07
0.009196811
-1.0009139e-07
0.009196773
-8.1670773e-08
0.0091967417
-6.5864686e-08
0.0091967162
-5.2458877e-08
0.0091966956
-4.1231426e-08
0.0091966793
-3.1955544e-08
0.0091966666
-2.4402201e-08
0.0091966567
-1.8345605e-08
0.0091966492
-1.3566833e-08
0.0091966437
-9.8600925e-09
0.0091966395
-7.035427e-09
0.0091966366
-4.9232078e-09
0.0091966345
-3.3739967e-09
0.0091966331
-2.261249e-09
0.0091966321
-1.4790136e-09
0.0091966314
-9.4216299e-10
0.009196631
-5.8249679e-10
0.0091966308
-3.4830733e-10
0.0091966306
-2.0009055e-10
0.0091966305
-1.0979944e-10
0.0091966305
-5.657226e-11
0.0091966305
-2.6930993e-11
0.0091966305
-1.1066016e-11
0.0091966305
-3.4931649e-12
0.0091966305
-1.0950166e-13
0.0091966305
1.0149238e-12
0.0091966305
1.4891256e-12
0.0091966305
1.2748724e-12
0.0091966305
1.296974e-12
0.0091966305
1.1569285e-12
0.0091966305
1.2822754e-12
0.0091966305
1.0928578e-12
0.0091966305
1.1455589e-12
0.0091966305
9.586227e-13
0.0091966305
9.5002807e-13
0.0091966305
5.87388e-13
0.0091966305
4.0172749e-13
0.0091966305
9.8908955e-14
0.0091966305
-8.7364048e-14
0.0091966305
-3.8900789e-13
0.0091966305
-7.0512535e-13
0.0091966305
-7.7516462e-13
0.0091966305
-1.1437202e-12
0.0091966305
-1.112356e-12
0.0091966305
-1.9440661e-12
0.0091966305
-2.2784771e-12
0.0091966305
-4.8585239e-12
0.0091966305
-7.4345869e-12
0.0091966305
-1.438857e-11
0.0091966305
-2.209147e-11
0.0091966305
-3.9919412e-11
0.0091966305
-6.2330851e-11
0.0091966305
-9.4587696e-11
-1.2704601e-10
0.0066248265
-3.3531869e-06
0.0066206451
-1.0883151e-05
0.0066130462
-1.2873953e-05
0.0066043034
-1.120776e-05
0.006595868
-8.6624759e-06
0.0065880987
-6.691938e-06
0.0065809466
-5.4336118e-06
0.0065743627
-4.5846735e-06
0.0065683613
-3.9140503e-06
0.0065629549
-3.3444146e-06
0.0065581155
-2.8708617e-06
0.0065537854
-2.4914367e-06
0.0065499017
-2.1895326e-06
0.0065464097
-1.9432412e-06
0.0065432645
-1.7353118e-06
0.0065404277
-1.555546e-06
0.006537866
-1.3983428e-06
0.0065355498
-1.260021e-06
0.0065334537
-1.1375186e-06
0.0065315552
-1.028252e-06
0.0065298353
-9.3015847e-07
0.006528277
-8.4169443e-07
0.0065268653
-7.6165582e-07
0.0065255869
-6.8907988e-07
0.00652443
-6.2313665e-07
0.0065233837
-5.631294e-07
0.0065224385
-5.0844682e-07
0.0065215855
-4.5857558e-07
0.0065208169
-4.1305708e-07
0.0065201254
-3.7149978e-07
0.0065195042
-3.3354544e-07
0.0065189475
-2.988843e-07
0.0065184495
-2.6722911e-07
0.0065180053
-2.3832986e-07
0.0065176101
-2.119529e-07
0.0065172596
-1.8789427e-07
0.0065169499
-1.6596356e-07
0.0065166773
-1.4599543e-07
0.0065164385
-1.2783733e-07
0.0065162302
-1.11358e-07
0.0065160497
-9.6438223e-08
0.0065158942
-8.2975471e-08
0.0065157612
-7.0877223e-08
0.0065156483
-6.0061498e-08
0.0065155532
-5.0452763e-08
0.006515474
-4.1978708e-08
0.0065154086
-3.4569872e-08
0.0065153552
-2.8153768e-08
0.006515312
-2.2658763e-08
0.0065152777
-1.8006339e-08
0.0065152507
-1.4119847e-08
0.0065152297
-1.0915465e-08
0.0065152137
-8.3146374e-09
0.0065152016
-6.2334612e-09
0.0065151927
-4.5977788e-09
0.0065151862
-3.3312681e-09
0.0065151816
-2.3710266e-09
0.0065151784
-1.6537433e-09
0.0065151762
-1.1311275e-09
0.0065151747
-7.5549089e-10
0.0065151737
-4.9399188e-10
0.0065151731
-3.1356223e-10
0.0065151727
-1.945795e-10
0.0065151725
-1.1585503e-10
0.0065151724
-6.7621401e-11
0.0065151723
-3.6829236e-11
0.0065151723
-2.0006809e-11
0.0065151723
-9.2256812e-12
0.0065151723
-4.7258565e-12
0.0065151723
-1.2786045e-12
0.0065151723
-7.282584e-13
0.0065151723
5.697958e-13
0.0065151723
8.0321276e-14
0.0065151723
8.4565037e-13
0.0065151723
1.8919155e-13
0.0065151723
9.2868294e-13
0.0065151723
1.9077693e-13
0.0065151723
8.3098614e-13
0.0065151723
7.5444205e-14
0.0065151723
6.8430092e-13
0.0065151723
-1.5026269e-13
0.0065151723
3.7170579e-13
0.0065151723
-5.1600664e-13
0.0065151723
9.5868968e-14
0.0065151723
-8.4809978e-13
0.0065151723
-2.0902067e-13
0.0065151723
-1.1340343e-12
0.0065151723
-3.5221919e-13
0.0065151723
-1.3501057e-12
0.0065151723
-5.0735411e-13
0.0065151723
-1.8581444e-12
0.0065151723
-1.3127419e-12
0.0065151723
-4.1467734e-12
0.0065151723
-4.5667165e-12
0.0065151722
-9.5728729e-12
0.0065151722
-1.3892964e-11
0.0065151722
-2.6054799e-11
0.0065151722
-3.923993e-11
0.0065151721
-7.1918013e-11
-9.9142331e-11
0.0027356024
0.0027247194
0.0027118452
0.002700637
0.0026919741
0.0026852818
0.0026798479
0.0026752629
0.0026713487
0.0026680041
0.0026651331
0.0026626416
0.0026604521
0.0026585088
0.0026567735
0.0026552179
0.0026538196
0.0026525596
0.0026514221
0.0026503939
0.0026494638
0.0026486222
0.0026478606
0.0026471716
0.0026465485
0.0026459855
0.0026454771
0.0026450186
0.0026446056
0.0026442342
0.0026439007
0.0026436019
0.0026433347
0.0026430965
0.0026428846
0.0026426968
0.0026425309
0.0026423849
0.0026422572
0.0026421459
0.0026420495
0.0026419666
0.0026418958
0.0026418358
0.0026417854
0.0026417435
0.002641709
0.0026416808
0.0026416582
0.0026416403
0.0026416262
0.0026416153
0.002641607
0.0026416008
0.0026415963
0.0026415929
0.0026415906
0.002641589
0.0026415878
0.0026415871
0.0026415866
0.0026415863
0.0026415861
0.002641586
0.0026415859
0.0026415859
0.0026415859
0.0026415859
0.0026415859
0.0026415859
0.0026415859
0.0026415859
0.0026415859
0.0026415859
0.0026415859
0.0026415859
0.0026415859
0.0026415859
0.0026415859
0.0026415859
0.0026415859
0.0026415859
0.0026415859
0.0026415859
0.0026415859
0.0026415859
0.0026415859
0.0026415859
0.0026415859
0.0026415859
0.0026415859
0.0026415859
0.0026415859
0.0026415859
0.0026415858
0.0026415858
0.0026415858
0.0026415858
0.0026415857
)
;

boundaryField
{
    top
    {
        type            calculated;
        value           uniform 0;
    }
    inlet
    {
        type            calculated;
        value           nonuniform List<scalar> 10(-0.0027389545 -0.0066251023 -0.0092190986 -0.010789037 -0.011525173 -0.011525172 -0.010789038 -0.0092190986 -0.006625102 -0.0027389552);
    }
    outlet
    {
        type            calculated;
        value           nonuniform List<scalar> 10(0.0026415855 0.0065151719 0.0091966302 0.010871054 0.011672923 0.011672923 0.010871054 0.0091966305 0.0065151721 0.0026415856);
    }
    bottom
    {
        type            calculated;
        value           uniform 0;
    }
    back
    {
        type            empty;
        value           nonuniform List<scalar> 0();
    }
    front
    {
        type            empty;
        value           nonuniform List<scalar> 0();
    }
}


// ************************************************************************* //
