/*--------------------------------*- C++ -*----------------------------------*\
| =========                 |                                                 |
| \\      /  F ield         | OpenFOAM: The Open Source CFD Toolbox           |
|  \\    /   O peration     | Version:  2112                                  |
|   \\  /    A nd           | Website:  www.openfoam.com                      |
|    \\/     M anipulation  |                                                 |
\*---------------------------------------------------------------------------*/
FoamFile
{
    version     2.0;
    format      ascii;
    arch        "LSB;label=32;scalar=64";
    class       volVectorField;
    location    "10";
    object      U;
}
// * * * * * * * * * * * * * * * * * * * * * * * * * * * * * * * * * * * * * //

dimensions      [0 1 -1 0 0 0 0];

internalField   nonuniform List<vector> 
1000
(
(0.27381489 0.00027737066 0)
(0.27321385 0.00078415148 0)
(0.27189615 0.00083987626 0)
(0.27060738 0.00062881605 0)
(0.26959761 0.0004074293 0)
(0.2688382 0.00027196458 0)
(0.2682406 0.0002042248 0)
(0.26774394 0.00016556353 0)
(0.26732071 0.00013611616 0)
(0.2669589 0.00011192749 0)
(0.26664937 9.3518045e-05 0)
(0.26638251 8.0383908e-05 0)
(0.26614953 7.0860567e-05 0)
(0.26594371 6.33678e-05 0)
(0.26576039 5.7001437e-05 0)
(0.26559632 5.1404625e-05 0)
(0.26544901 4.6451013e-05 0)
(0.26531643 4.2053193e-05 0)
(0.26519684 3.812034e-05 0)
(0.2650888 3.4572722e-05 0)
(0.26499109 3.135381e-05 0)
(0.26490268 2.8425299e-05 0)
(0.26482268 2.575859e-05 0)
(0.26475029 2.3328359e-05 0)
(0.26468481 2.1111733e-05 0)
(0.26462562 1.9087939e-05 0)
(0.26457215 1.7239045e-05 0)
(0.2645239 1.5549091e-05 0)
(0.2644804 1.4004165e-05 0)
(0.26444126 1.2591557e-05 0)
(0.26440608 1.1300028e-05 0)
(0.26437453 1.0119233e-05 0)
(0.26434629 9.040015e-06 0)
(0.26432107 8.0539109e-06 0)
(0.26429861 7.1534186e-06 0)
(0.26427866 6.3316121e-06 0)
(0.26426102 5.58239e-06 0)
(0.26424546 4.9001692e-06 0)
(0.26423181 4.280085e-06 0)
(0.26421989 3.7177446e-06 0)
(0.26420953 3.2093456e-06 0)
(0.26420059 2.751457e-06 0)
(0.26419293 2.3410531e-06 0)
(0.26418641 1.9753367e-06 0)
(0.26418092 1.6516967e-06 0)
(0.26417632 1.3675836e-06 0)
(0.26417252 1.1204355e-06 0)
(0.2641694 9.0764447e-07 0)
(0.26416688 7.2647571e-07 0)
(0.26416486 5.7413028e-07 0)
(0.26416327 4.4768036e-07 0)
(0.26416203 3.442188e-07 0)
(0.26416108 2.6079225e-07 0)
(0.26416036 1.945986e-07 0)
(0.26415983 1.4289983e-07 0)
(0.26415944 1.0322984e-07 0)
(0.26415916 7.3271273e-08 0)
(0.26415896 5.1080022e-08 0)
(0.26415883 3.4905644e-08 0)
(0.26415874 2.3382321e-08 0)
(0.26415867 1.5300277e-08 0)
(0.26415864 9.7914021e-09 0)
(0.26415861 6.0822823e-09 0)
(0.2641586 3.6857118e-09 0)
(0.26415859 2.1396749e-09 0)
(0.26415858 1.2100026e-09 0)
(0.26415858 6.3077379e-10 0)
(0.26415858 3.2356763e-10 0)
(0.26415858 1.301209e-10 0)
(0.26415858 5.6061222e-11 0)
(0.26415858 -5.8567631e-12 0)
(0.26415858 -7.5663335e-12 0)
(0.26415858 -2.3483526e-11 0)
(0.26415858 -2.6293456e-12 0)
(0.26415858 -9.4444314e-12 0)
(0.26415858 1.6262411e-11 0)
(0.26415858 1.0176266e-11 0)
(0.26415858 3.50961e-11 0)
(0.26415858 2.7494765e-11 0)
(0.26415858 5.0067356e-11 0)
(0.26415858 4.241041e-11 0)
(0.26415858 6.3184225e-11 0)
(0.26415858 5.3025509e-11 0)
(0.26415858 6.954749e-11 0)
(0.26415858 5.8483982e-11 0)
(0.26415858 7.1564425e-11 0)
(0.26415858 5.8829284e-11 0)
(0.26415858 6.9072682e-11 0)
(0.26415858 6.2359113e-11 0)
(0.26415858 7.5814308e-11 0)
(0.26415858 8.7852425e-11 0)
(0.26415858 1.185945e-10 0)
(0.26415858 1.9085749e-10 0)
(0.26415858 2.982579e-10 0)
(0.26415858 5.7183024e-10 0)
(0.26415858 9.5111795e-10 0)
(0.26415857 1.737833e-09 0)
(0.26415857 2.7263835e-09 0)
(0.26415856 4.9132403e-09 0)
(0.26415855 6.5040565e-09 0)
(0.66229827 0.00033250644 0)
(0.66283394 0.0013933592 0)
(0.66200261 0.0018963556 0)
(0.66089999 0.0018082139 0)
(0.65995796 0.0014864867 0)
(0.65916885 0.0011908092 0)
(0.65844829 0.00098584269 0)
(0.65776599 0.00084160862 0)
(0.65713111 0.00072421783 0)
(0.65655612 0.00062175601 0)
(0.6560429 0.00053465097 0)
(0.65558549 0.0004637406 0)
(0.65517612 0.00040679303 0)
(0.6548083 0.00036018649 0)
(0.65447713 0.0003208961 0)
(0.65417863 0.0002870549 0)
(0.6539093 0.00025758984 0)
(0.65366597 0.00023176538 0)
(0.65344586 0.00020897245 0)
(0.65324657 0.00018869885 0)
(0.65306603 0.00017054185 0)
(0.65290246 0.00015419734 0)
(0.65275426 0.00013943212 0)
(0.65262003 0.00012605804 0)
(0.65249851 0.00011391773 0)
(0.65238857 0.00010287745 0)
(0.6522892 9.2823476e-05 0)
(0.65219947 8.3658257e-05 0)
(0.65211856 7.5297438e-05 0)
(0.6520457 6.7666928e-05 0)
(0.6519802 6.0701292e-05 0)
(0.65192142 5.4342096e-05 0)
(0.6518688 4.8537143e-05 0)
(0.65182179 4.323939e-05 0)
(0.65177991 3.8406549e-05 0)
(0.65174272 3.4000396e-05 0)
(0.65170978 2.998663e-05 0)
(0.65168074 2.633443e-05 0)
(0.65165523 2.3016407e-05 0)
(0.65163294 2.0008227e-05 0)
(0.65161356 1.7288474e-05 0)
(0.65159681 1.4838187e-05 0)
(0.65158243 1.264055e-05 0)
(0.65157017 1.0680321e-05 0)
(0.65155982 8.9433905e-06 0)
(0.65155114 7.4162033e-06 0)
(0.65154394 6.0853514e-06 0)
(0.65153803 4.9371845e-06 0)
(0.65153323 3.9576053e-06 0)
(0.65152937 3.1319777e-06 0)
(0.65152632 2.4451995e-06 0)
(0.65152394 1.8819076e-06 0)
(0.65152211 1.4267414e-06 0)
(0.65152071 1.0646997e-06 0)
(0.65151967 7.8143707e-07 0)
(0.65151891 5.6360943e-07 0)
(0.65151836 3.9906544e-07 0)
(0.65151797 2.7708764e-07 0)
(0.6515177 1.883999e-07 0)
(0.65151752 1.2524884e-07 0)
(0.6515174 8.1234687e-08 0)
(0.65151732 5.128017e-08 0)
(0.65151727 3.1379648e-08 0)
(0.65151724 1.8534198e-08 0)
(0.65151722 1.0475528e-08 0)
(0.65151721 5.611579e-09 0)
(0.65151721 2.7763142e-09 0)
(0.65151721 1.2232948e-09 0)
(0.65151721 4.1674565e-10 0)
(0.65151721 4.5687548e-11 0)
(0.65151721 -1.1341067e-10 0)
(0.65151721 -1.3804074e-10 0)
(0.65151721 -1.2373649e-10 0)
(0.65151721 -7.857794e-11 0)
(0.65151721 -4.7041507e-11 0)
(0.65151721 -4.8374525e-12 0)
(0.65151721 2.1493249e-11 0)
(0.65151721 5.5466626e-11 0)
(0.65151721 7.3090432e-11 0)
(0.65151721 1.0168698e-10 0)
(0.65151721 1.1816045e-10 0)
(0.65151721 1.4463195e-10 0)
(0.65151721 1.5798006e-10 0)
(0.65151721 1.7605749e-10 0)
(0.65151721 1.8894905e-10 0)
(0.65151721 2.001796e-10 0)
(0.65151721 2.1350272e-10 0)
(0.65151721 2.1459089e-10 0)
(0.65151721 2.4499938e-10 0)
(0.65151721 2.4792945e-10 0)
(0.65151721 3.2904384e-10 0)
(0.65151721 3.6165904e-10 0)
(0.6515172 5.8845214e-10 0)
(0.6515172 7.7773428e-10 0)
(0.6515172 1.4143393e-09 0)
(0.6515172 2.1140449e-09 0)
(0.6515172 3.7123845e-09 0)
(0.6515172 5.5837662e-09 0)
(0.65151718 9.1004121e-09 0)
(0.6515172 1.299933e-08 0)
(0.92150116 0.0002628593 0)
(0.92302361 0.0013058866 0)
(0.92296341 0.0019873184 0)
(0.92261783 0.0021135279 0)
(0.92249331 0.001929817 0)
(0.9225119 0.001693948 0)
(0.92250381 0.001507905 0)
(0.92241014 0.0013647116 0)
(0.92225705 0.0012357984 0)
(0.92208434 0.0011103102 0)
(0.92191285 0.00099205077 0)
(0.92174702 0.00088645952 0)
(0.92158615 0.00079474125 0)
(0.92143049 0.00071493791 0)
(0.92128158 0.00064456636 0)
(0.92114094 0.00058188898 0)
(0.9210093 0.00052585966 0)
(0.92088674 0.0004757103 0)
(0.92077297 0.00043072675 0)
(0.92066767 0.00039023741 0)
(0.92057049 0.00035366044 0)
(0.92048102 0.00032051989 0)
(0.92039885 0.00029042719 0)
(0.92032355 0.000263056 0)
(0.92025466 0.00023812503 0)
(0.92019177 0.00021538981 0)
(0.92013444 0.00019463751 0)
(0.92008229 0.00017568254 0)
(0.92003494 0.00015836178 0)
(0.91999202 0.00014253076 0)
(0.9199532 0.00012806046 0)
(0.91991816 0.00011483512 0)
(0.91988659 0.00010275032 0)
(0.91985823 9.1711624e-05 0)
(0.9198328 8.163334e-05 0)
(0.91981007 7.2437702e-05 0)
(0.91978981 6.4054176e-05 0)
(0.9197718 5.6419011e-05 0)
(0.91975586 4.9474856e-05 0)
(0.9197418 4.317041e-05 0)
(0.91972946 3.7460048e-05 0)
(0.91971867 3.2303293e-05 0)
(0.9197093 2.766422e-05 0)
(0.9197012 2.3510619e-05 0)
(0.91969426 1.9813148e-05 0)
(0.91968835 1.6544297e-05 0)
(0.91968335 1.3677522e-05 0)
(0.91967918 1.1186341e-05 0)
(0.91967572 9.0437965e-06 0)
(0.91967288 7.2219916e-06 0)
(0.91967058 5.6921033e-06 0)
(0.91966874 4.4244756e-06 0)
(0.91966729 3.3891329e-06 0)
(0.91966616 2.5562529e-06 0)
(0.91966529 1.8969155e-06 0)
(0.91966464 1.3836507e-06 0)
(0.91966415 9.9110124e-07 0)
(0.9196638 6.9634917e-07 0)
(0.91966354 4.7928756e-07 0)
(0.91966336 3.2263771e-07 0)
(0.91966324 2.1200748e-07 0)
(0.91966316 1.3562454e-07 0)
(0.9196631 8.4183988e-08 0)
(0.91966307 5.0440478e-08 0)
(0.91966305 2.897264e-08 0)
(0.91966304 1.5754577e-08 0)
(0.91966303 7.9510621e-09 0)
(0.91966302 3.551797e-09 0)
(0.91966302 1.2475555e-09 0)
(0.91966302 1.3811519e-10 0)
(0.91966302 -2.9397356e-10 0)
(0.91966302 -4.0352219e-10 0)
(0.91966302 -3.4955311e-10 0)
(0.91966302 -2.5742322e-10 0)
(0.91966302 -1.5077984e-10 0)
(0.91966302 -7.0492833e-11 0)
(0.91966302 5.8613433e-12 0)
(0.91966302 5.4052607e-11 0)
(0.91966302 1.0388555e-10 0)
(0.91966302 1.3106732e-10 0)
(0.91966302 1.7146493e-10 0)
(0.91966302 1.9030328e-10 0)
(0.91966302 2.2730556e-10 0)
(0.91966302 2.3771272e-10 0)
(0.91966302 2.7806353e-10 0)
(0.91966302 2.8058348e-10 0)
(0.91966302 3.2865544e-10 0)
(0.91966302 3.2128742e-10 0)
(0.91966302 3.9660748e-10 0)
(0.91966302 3.9349002e-10 0)
(0.91966302 5.3627022e-10 0)
(0.91966302 5.8317539e-10 0)
(0.91966302 9.068169e-10 0)
(0.91966302 1.1901941e-09 0)
(0.91966302 1.9481474e-09 0)
(0.91966302 2.8432042e-09 0)
(0.91966302 4.4299818e-09 0)
(0.91966302 6.6434741e-09 0)
(0.91966301 9.4607345e-09 0)
(0.91966303 1.3005378e-08 0)
(1.0783246 0.00016167987 0)
(1.0804365 0.00087873821 0)
(1.0808023 0.001412129 0)
(1.0809033 0.0015734452 0)
(1.0813557 0.0014941421 0)
(1.0820473 0.0013548966 0)
(1.0827221 0.001241025 0)
(1.0832669 0.0011543187 0)
(1.0836978 0.0010738665 0)
(1.0840636 0.00099018904 0)
(1.084392 0.00090621871 0)
(1.0846891 0.000827405 0)
(1.0849536 0.00075609876 0)
(1.0851868 0.00069177896 0)
(1.0853925 0.00063312849 0)
(1.0855753 0.00057923309 0)
(1.0857386 0.00052965287 0)
(1.0858849 0.00048411303 0)
(1.0860161 0.00044231315 0)
(1.0861337 0.0004039193 0)
(1.0862394 0.00036861391 0)
(1.0863344 0.00033612492 0)
(1.0864198 0.00030622077 0)
(1.0864967 0.00027869773 0)
(1.086566 0.00025336968 0)
(1.0866283 0.00023006615 0)
(1.0866843 0.00020863072 0)
(1.0867346 0.00018892101 0)
(1.0867798 0.00017080621 0)
(1.0868204 0.00015416638 0)
(1.0868567 0.00013889037 0)
(1.0868891 0.00012487568 0)
(1.0869181 0.00011202711 0)
(1.0869439 0.00010025675 0)
(1.0869668 8.9482871e-05 0)
(1.086987 7.9630167e-05 0)
(1.0870049 7.0628915e-05 0)
(1.0870206 6.2415262e-05 0)
(1.0870343 5.4930676e-05 0)
(1.0870463 4.8122167e-05 0)
(1.0870566 4.1941788e-05 0)
(1.0870655 3.6346619e-05 0)
(1.087073 3.1298123e-05 0)
(1.0870794 2.6761741e-05 0)
(1.0870848 2.2706054e-05 0)
(1.0870892 1.9102016e-05 0)
(1.0870929 1.5922058e-05 0)
(1.0870958 1.3139237e-05 0)
(1.0870982 1.0726588e-05 0)
(1.0871001 8.6565096e-06 0)
(1.0871015 6.900639e-06 0)
(1.0871026 5.4296761e-06 0)
(1.0871034 4.2138371e-06 0)
(1.087104 3.2230633e-06 0)
(1.0871045 2.4278542e-06 0)
(1.0871048 1.7996115e-06 0)
(1.087105 1.3115434e-06 0)
(1.0871052 9.3885885e-07 0)
(1.0871052 6.5948295e-07 0)
(1.0871053 4.5393816e-07 0)
(1.0871053 3.0577321e-07 0)
(1.0871054 2.0112877e-07 0)
(1.0871054 1.2892408e-07 0)
(1.0871054 8.0216284e-08 0)
(1.0871054 4.8270998e-08 0)
(1.0871054 2.7851064e-08 0)
(1.0871054 1.5282593e-08 0)
(1.0871054 7.7794079e-09 0)
(1.0871054 3.5660439e-09 0)
(1.0871054 1.2939139e-09 0)
(1.0871054 2.3748485e-10 0)
(1.0871054 -2.2717447e-10 0)
(1.0871054 -3.1329727e-10 0)
(1.0871054 -2.9835258e-10 0)
(1.0871054 -1.7864296e-10 0)
(1.0871054 -1.0159612e-10 0)
(1.0871054 1.1826831e-11 0)
(1.0871054 5.9205746e-11 0)
(1.0871054 1.410242e-10 0)
(1.0871054 1.5808559e-10 0)
(1.0871054 2.1881959e-10 0)
(1.0871054 2.1747564e-10 0)
(1.0871054 2.7024104e-10 0)
(1.0871054 2.5878258e-10 0)
(1.0871054 3.1236553e-10 0)
(1.0871054 2.9288146e-10 0)
(1.0871054 3.5603298e-10 0)
(1.0871054 3.3390518e-10 0)
(1.0871054 4.2245279e-10 0)
(1.0871054 4.1273414e-10 0)
(1.0871054 5.6188377e-10 0)
(1.0871054 6.1851501e-10 0)
(1.0871054 9.3079703e-10 0)
(1.0871054 1.2223726e-09 0)
(1.0871054 1.8559796e-09 0)
(1.0871054 2.6191545e-09 0)
(1.0871054 3.7381538e-09 0)
(1.0871054 5.386983e-09 0)
(1.0871054 7.0973226e-09 0)
(1.0871054 9.2979837e-09 0)
(1.1518438 5.40198e-05 0)
(1.1542303 0.00030558814 0)
(1.1547681 0.00050269722 0)
(1.1550424 0.00057088166 0)
(1.1557441 0.00054983963 0)
(1.1567569 0.00050385014 0)
(1.1577804 0.00046587728 0)
(1.1586679 0.00043778151 0)
(1.1594263 0.00041177666 0)
(1.160107 0.00038391764 0)
(1.1607407 0.00035512046 0)
(1.1613322 0.00032751446 0)
(1.1618777 0.00030214267 0)
(1.1623769 0.00027892243 0)
(1.162833 0.00025742322 0)
(1.1632508 0.00023735277 0)
(1.163634 0.00021860224 0)
(1.1639855 0.00020112699 0)
(1.1643076 0.00018486802 0)
(1.1646022 0.00016974543 0)
(1.1648717 0.00015567814 0)
(1.1651178 0.00014259602 0)
(1.1653424 0.00013043927 0)
(1.1655472 0.0001191538 0)
(1.1657337 0.00010868801 0)
(1.1659033 9.8992225e-05 0)
(1.1660574 9.0018918e-05 0)
(1.166197 8.1723004e-05 0)
(1.1663235 7.4061588e-05 0)
(1.1664378 6.6993868e-05 0)
(1.1665409 6.0480917e-05 0)
(1.1666338 5.448575e-05 0)
(1.1667172 4.8973202e-05 0)
(1.1667919 4.3910018e-05 0)
(1.1668588 3.9264778e-05 0)
(1.1669183 3.5007957e-05 0)
(1.1669713 3.1111858e-05 0)
(1.1670181 2.7550722e-05 0)
(1.1670595 2.4300668e-05 0)
(1.1670958 2.1339797e-05 0)
(1.1671275 1.8648088e-05 0)
(1.1671551 1.6207422e-05 0)
(1.167179 1.4001389e-05 0)
(1.1671994 1.2015181e-05 0)
(1.1672169 1.0235284e-05 0)
(1.1672316 8.6492338e-06 0)
(1.1672439 7.2452365e-06 0)
(1.1672542 6.0118897e-06 0)
(1.1672626 4.9378513e-06 0)
(1.1672694 4.0116412e-06 0)
(1.1672749 3.2214779e-06 0)
(1.1672792 2.5552572e-06 0)
(1.1672826 2.000612e-06 0)
(1.1672852 1.545059e-06 0)
(1.1672872 1.1762174e-06 0)
(1.1672887 8.8203982e-07 0)
(1.1672898 6.5108509e-07 0)
(1.1672906 4.727159e-07 0)
(1.1672912 3.3730029e-07 0)
(1.1672915 2.3629695e-07 0)
(1.1672918 1.6234761e-07 0)
(1.167292 1.0923353e-07 0)
(1.1672921 7.1857517e-08 0)
(1.1672922 4.6101358e-08 0)
(1.1672922 2.8760899e-08 0)
(1.1672922 1.7362753e-08 0)
(1.1672923 1.0083309e-08 0)
(1.1672923 5.5664004e-09 0)
(1.1672923 2.8751966e-09 0)
(1.1672923 1.3351108e-09 0)
(1.1672923 5.2189627e-10 0)
(1.1672923 1.257707e-10 0)
(1.1672923 -2.6612154e-11 0)
(1.1672923 -5.9620397e-11 0)
(1.1672923 -2.374167e-11 0)
(1.1672923 2.5410078e-11 0)
(1.1672923 8.6376294e-11 0)
(1.1672923 1.3316785e-10 0)
(1.1672923 1.81043e-10 0)
(1.1672923 2.1094195e-10 0)
(1.1672923 2.3942243e-10 0)
(1.1672923 2.5224241e-10 0)
(1.1672923 2.7079964e-10 0)
(1.1672923 2.7364472e-10 0)
(1.1672923 2.8508254e-10 0)
(1.1672923 2.8250389e-10 0)
(1.1672923 2.9916025e-10 0)
(1.1672923 3.0056245e-10 0)
(1.1672923 3.3122215e-10 0)
(1.1672923 3.4992725e-10 0)
(1.1672923 4.2310872e-10 0)
(1.1672923 5.0246582e-10 0)
(1.1672923 6.8243459e-10 0)
(1.1672923 8.9105272e-10 0)
(1.1672923 1.2033274e-09 0)
(1.1672923 1.5435623e-09 0)
(1.1672923 1.9608291e-09 0)
(1.1672923 2.5418084e-09 0)
(1.1672923 3.059314e-09 0)
(1.1672923 3.7559297e-09 0)
(1.1518437 -5.4019516e-05 0)
(1.1542303 -0.00030558373 0)
(1.1547681 -0.00050269113 0)
(1.1550424 -0.0005708742 0)
(1.1557441 -0.00054982859 0)
(1.1567569 -0.00050383626 0)
(1.1577804 -0.0004658632 0)
(1.1586679 -0.00043777018 0)
(1.1594263 -0.00041176909 0)
(1.1601071 -0.0003839154 0)
(1.1607407 -0.00035512426 0)
(1.1613322 -0.00032752598 0)
(1.1618777 -0.00030216198 0)
(1.1623768 -0.00027894951 0)
(1.162833 -0.00025745661 0)
(1.1632508 -0.00023739163 0)
(1.163634 -0.00021864489 0)
(1.1639855 -0.00020117254 0)
(1.1643075 -0.00018491478 0)
(1.1646022 -0.00016979249 0)
(1.1648716 -0.00015572396 0)
(1.1651177 -0.00014263993 0)
(1.1653424 -0.0001304801 0)
(1.1655472 -0.00011919118 0)
(1.1657337 -0.00010872112 0)
(1.1659033 -9.9021023e-05 0)
(1.1660573 -9.0042981e-05 0)
(1.166197 -8.1742578e-05 0)
(1.1663235 -7.4076566e-05 0)
(1.1664377 -6.7004744e-05 0)
(1.1665409 -6.0487847e-05 0)
(1.1666337 -5.4489355e-05 0)
(1.1667171 -4.8973776e-05 0)
(1.1667919 -4.3908227e-05 0)
(1.1668587 -3.926092e-05 0)
(1.1669183 -3.5002556e-05 0)
(1.1669712 -3.1105102e-05 0)
(1.1670181 -2.7542938e-05 0)
(1.1670594 -2.4291886e-05 0)
(1.1670958 -2.133011e-05 0)
(1.1671275 -1.8637366e-05 0)
(1.1671551 -1.6195582e-05 0)
(1.1671789 -1.3988238e-05 0)
(1.1671994 -1.2000572e-05 0)
(1.1672168 -1.0219076e-05 0)
(1.1672316 -8.631337e-06 0)
(1.1672439 -7.2256812e-06 0)
(1.1672541 -5.9907384e-06 0)
(1.1672626 -4.9153474e-06 0)
(1.1672694 -3.9880094e-06 0)
(1.1672749 -3.1971532e-06 0)
(1.1672792 -2.5305861e-06 0)
(1.1672826 -1.9761339e-06 0)
(1.1672852 -1.5211356e-06 0)
(1.1672872 -1.1533807e-06 0)
(1.1672887 -8.6057705e-07 0)
(1.1672898 -6.3142401e-07 0)
(1.1672906 -4.5498055e-07 0)
(1.1672912 -3.2175045e-07 0)
(1.1672915 -2.2287617e-07 0)
(1.1672918 -1.511448e-07 0)
(1.167292 -1.0002116e-07 0)
(1.1672921 -6.4587471e-08 0)
(1.1672922 -4.0445651e-08 0)
(1.1672922 -2.4606616e-08 0)
(1.1672922 -1.4337988e-08 0)
(1.1672923 -8.068778e-09 0)
(1.1672923 -4.2152149e-09 0)
(1.1672923 -2.1177274e-09 0)
(1.1672923 -8.6964935e-10 0)
(1.1672923 -3.3671249e-10 0)
(1.1672923 1.0030972e-11 0)
(1.1672923 6.2381403e-11 0)
(1.1672923 1.7730683e-10 0)
(1.1672923 1.324585e-10 0)
(1.1672923 2.1286798e-10 0)
(1.1672923 1.6009379e-10 0)
(1.1672923 2.4479635e-10 0)
(1.1672923 1.9623752e-10 0)
(1.1672923 2.7540255e-10 0)
(1.1672923 2.1507748e-10 0)
(1.1672923 2.8628386e-10 0)
(1.1672923 2.1553471e-10 0)
(1.1672923 2.7697381e-10 0)
(1.1672923 1.9203695e-10 0)
(1.1672923 2.5579305e-10 0)
(1.1672923 1.6765684e-10 0)
(1.1672923 2.3855131e-10 0)
(1.1672923 1.4942831e-10 0)
(1.1672923 2.4136902e-10 0)
(1.1672923 1.7167937e-10 0)
(1.1672923 2.9723674e-10 0)
(1.1672923 2.3808102e-10 0)
(1.1672923 3.4343353e-10 0)
(1.1672923 1.9180037e-10 0)
(1.1672923 3.8952324e-11 0)
(1.1672923 -3.4160167e-10 0)
(1.1672923 -9.5767135e-10 0)
(1.1672923 -1.6246019e-09 0)
(1.1672923 -2.4084142e-09 0)
(1.0783247 -0.00016168018 0)
(1.0804366 -0.00087874796 0)
(1.0808023 -0.0014121437 0)
(1.0809033 -0.0015734558 0)
(1.0813557 -0.0014941444 0)
(1.0820473 -0.0013548918 0)
(1.0827221 -0.0012410174 0)
(1.0832669 -0.0011543111 0)
(1.0836979 -0.001073861 0)
(1.0840636 -0.00099018665 0)
(1.0843921 -0.0009062212 0)
(1.0846891 -0.00082741311 0)
(1.0849536 -0.00075611329 0)
(1.0851867 -0.00069179943 0)
(1.0853925 -0.00063315457 0)
(1.0855752 -0.00057926357 0)
(1.0857386 -0.00052968701 0)
(1.0858849 -0.00048414946 0)
(1.086016 -0.00044235102 0)
(1.0861336 -0.00040395725 0)
(1.0862393 -0.00036865121 0)
(1.0863343 -0.00033616044 0)
(1.0864197 -0.00030625401 0)
(1.0864966 -0.00027872788 0)
(1.0865658 -0.00025339652 0)
(1.0866281 -0.00023008922 0)
(1.0866841 -0.00020865007 0)
(1.0867345 -0.00018893647 0)
(1.0867797 -0.00017081809 0)
(1.0868202 -0.00015417476 0)
(1.0868565 -0.00013889572 0)
(1.086889 -0.00012487826 0)
(1.086918 -0.00011202743 0)
(1.0869437 -0.00010025508 0)
(1.0869666 -8.9479697e-05 0)
(1.0869869 -7.9625703e-05 0)
(1.0870048 -7.0623477e-05 0)
(1.0870205 -6.2408936e-05 0)
(1.0870342 -5.4923581e-05 0)
(1.0870462 -4.8114239e-05 0)
(1.0870565 -4.1932982e-05 0)
(1.0870654 -3.6336788e-05 0)
(1.0870729 -3.1287143e-05 0)
(1.0870793 -2.6749483e-05 0)
(1.0870847 -2.2692419e-05 0)
(1.0870891 -1.9086991e-05 0)
(1.0870928 -1.5905663e-05 0)
(1.0870957 -1.3121631e-05 0)
(1.0870981 -1.0707929e-05 0)
(1.0871 -8.6371183e-06 0)
(1.0871014 -6.8807893e-06 0)
(1.0871025 -5.4097938e-06 0)
(1.0871034 -4.1942315e-06 0)
(1.087104 -3.2041703e-06 0)
(1.0871044 -2.4099413e-06 0)
(1.0871048 -1.7830484e-06 0)
(1.087105 -1.2964794e-06 0)
(1.0871051 -9.2553189e-07 0)
(1.0871052 -6.4789542e-07 0)
(1.0871053 -4.4418765e-07 0)
(1.0871053 -2.9771444e-07 0)
(1.0871054 -1.9473098e-07 0)
(1.0871054 -1.2394277e-07 0)
(1.0871054 -7.6552501e-08 0)
(1.0871054 -4.5629382e-08 0)
(1.0871054 -2.6113454e-08 0)
(1.0871054 -1.4165231e-08 0)
(1.0871054 -7.1973815e-09 0)
(1.0871054 -3.2732739e-09 0)
(1.0871054 -1.2491366e-09 0)
(1.0871054 -2.5331154e-10 0)
(1.0871054 1.2866054e-10 0)
(1.0871054 2.8010801e-10 0)
(1.0871054 2.7512768e-10 0)
(1.0871054 2.7384088e-10 0)
(1.0871054 2.2698012e-10 0)
(1.0871054 2.3345883e-10 0)
(1.0871054 2.1030963e-10 0)
(1.0871054 2.2964277e-10 0)
(1.0871054 2.0642397e-10 0)
(1.0871054 2.1996292e-10 0)
(1.0871054 1.928281e-10 0)
(1.0871054 1.9230225e-10 0)
(1.0871054 1.5095923e-10 0)
(1.0871054 1.3839371e-10 0)
(1.0871054 1.0322471e-10 0)
(1.0871054 8.3704337e-11 0)
(1.0871054 5.933345e-11 0)
(1.0871054 3.2715788e-11 0)
(1.0871054 3.1368306e-11 0)
(1.0871054 -7.1082234e-12 0)
(1.0871054 -1.5722603e-11 0)
(1.0871054 -1.3531576e-10 0)
(1.0871054 -2.958707e-10 0)
(1.0871054 -7.3137524e-10 0)
(1.0871054 -1.3902077e-09 0)
(1.0871054 -2.4545683e-09 0)
(1.0871054 -4.1443583e-09 0)
(1.0871054 -5.9561148e-09 0)
(1.0871054 -8.1703753e-09 0)
(0.92150116 -0.00026285832 0)
(0.92302363 -0.0013058802 0)
(0.92296341 -0.0019873171 0)
(0.92261784 -0.0021135355 0)
(0.92249333 -0.0019298278 0)
(0.92251193 -0.0016939547 0)
(0.92250384 -0.0015079061 0)
(0.92241017 -0.0013647089 0)
(0.92225707 -0.0012357955 0)
(0.92208436 -0.0011103086 0)
(0.92191286 -0.0009920516 0)
(0.92174702 -0.00088646259 0)
(0.92158614 -0.00079474756 0)
(0.92143046 -0.00071494742 0)
(0.92128154 -0.00064457971 0)
(0.92114089 -0.00058190536 0)
(0.92100924 -0.00052587895 0)
(0.92088666 -0.00047573123 0)
(0.92077288 -0.00043074898 0)
(0.92066757 -0.00039025975 0)
(0.92057036 -0.00035368264 0)
(0.92048089 -0.00032054091 0)
(0.92039871 -0.00029044691 0)
(0.92032339 -0.00026307362 0)
(0.9202545 -0.00023814064 0)
(0.9201916 -0.00021540288 0)
(0.92013427 -0.00019464829 0)
(0.92008211 -0.00017569077 0)
(0.92003476 -0.00015836787 0)
(0.91999184 -0.00014253462 0)
(0.91995302 -0.00012806257 0)
(0.91991797 -0.00011483551 0)
(0.91988641 -0.00010274948 0)
(0.91985805 -9.1709602e-05 0)
(0.91983262 -8.163054e-05 0)
(0.9198099 -7.2434136e-05 0)
(0.91978964 -6.4050106e-05 0)
(0.91977164 -5.641437e-05 0)
(0.9197557 -4.9469751e-05 0)
(0.91974165 -4.3164708e-05 0)
(0.91972931 -3.7453745e-05 0)
(0.91971853 -3.2296253e-05 0)
(0.91970917 -2.7656397e-05 0)
(0.91970108 -2.3501942e-05 0)
(0.91969414 -1.9803594e-05 0)
(0.91968823 -1.6533917e-05 0)
(0.91968325 -1.3666363e-05 0)
(0.91967908 -1.1174585e-05 0)
(0.91967563 -9.0315483e-06 0)
(0.9196728 -7.2095402e-06 0)
(0.91967051 -5.6795905e-06 0)
(0.91966868 -4.4122376e-06 0)
(0.91966724 -3.3772875e-06 0)
(0.91966612 -2.5451313e-06 0)
(0.91966526 -1.8865798e-06 0)
(0.91966462 -1.3743743e-06 0)
(0.91966414 -9.8284583e-07 0)
(0.91966379 -6.8930758e-07 0)
(0.91966354 -4.7332871e-07 0)
(0.91966337 -3.1786887e-07 0)
(0.91966325 -2.0820287e-07 0)
(0.91966317 -1.328313e-07 0)
(0.91966312 -8.2131933e-08 0)
(0.91966309 -4.9145476e-08 0)
(0.91966307 -2.8140522e-08 0)
(0.91966306 -1.5410488e-08 0)
(0.91966305 -7.824485e-09 0)
(0.91966305 -3.696708e-09 0)
(0.91966305 -1.4128183e-09 0)
(0.91966304 -4.2549426e-10 0)
(0.91966305 9.6549677e-11 0)
(0.91966305 1.7073142e-10 0)
(0.91966305 2.6584962e-10 0)
(0.91966305 1.7066745e-10 0)
(0.91966305 2.1609879e-10 0)
(0.91966305 1.2620157e-10 0)
(0.91966305 1.9638232e-10 0)
(0.91966305 1.2313354e-10 0)
(0.91966305 1.9097461e-10 0)
(0.91966305 1.1139884e-10 0)
(0.91966305 1.7258608e-10 0)
(0.91966305 8.2406729e-11 0)
(0.91966305 1.2168118e-10 0)
(0.91966305 2.2298349e-11 0)
(0.91966305 5.7597958e-11 0)
(0.91966305 -3.5806711e-11 0)
(0.91966305 -8.8398962e-12 0)
(0.91966305 -8.6100837e-11 0)
(0.91966305 -6.1317509e-11 0)
(0.91966305 -1.1813109e-10 0)
(0.91966305 -1.3502024e-10 0)
(0.91966305 -2.2244285e-10 0)
(0.91966305 -3.8408925e-10 0)
(0.91966305 -6.8633101e-10 0)
(0.91966305 -1.2915853e-09 0)
(0.91966305 -2.1350889e-09 0)
(0.91966304 -3.6885235e-09 0)
(0.91966305 -5.9295561e-09 0)
(0.91966303 -8.7552861e-09 0)
(0.91966306 -1.2215404e-08 0)
(0.66229823 -0.00033250121 0)
(0.66283393 -0.0013933543 0)
(0.66200259 -0.0018963627 0)
(0.66089997 -0.0018082374 0)
(0.65995795 -0.0014865207 0)
(0.65916885 -0.0011908434 0)
(0.65844828 -0.00098586938 0)
(0.65776598 -0.00084162709 0)
(0.6571311 -0.00072423002 0)
(0.65655611 -0.00062176441 0)
(0.65604288 -0.00053465635 0)
(0.65558546 -0.00046374399 0)
(0.65517608 -0.00040679511 0)
(0.65480826 -0.00036018872 0)
(0.65447708 -0.00032089902 0)
(0.65417857 -0.00028705909 0)
(0.65390923 -0.00025759486 0)
(0.65366589 -0.00023177118 0)
(0.65344577 -0.00020897839 0)
(0.65324647 -0.0001887049 0)
(0.65306593 -0.00017054747 0)
(0.65290235 -0.00015420251 0)
(0.65275414 -0.00013943639 0)
(0.6526199 -0.00012606148 0)
(0.65249838 -0.00011392004 0)
(0.65238843 -0.00010287879 0)
(0.65228905 -9.2823664e-05 0)
(0.65219932 -8.3657529e-05 0)
(0.65211841 -7.5295718e-05 0)
(0.65204555 -6.766447e-05 0)
(0.65198005 -6.0698077e-05 0)
(0.65192128 -5.4338384e-05 0)
(0.65186866 -4.8532937e-05 0)
(0.65182165 -4.32349e-05 0)
(0.65177978 -3.840177e-05 0)
(0.65174258 -3.3995476e-05 0)
(0.65170966 -2.9981538e-05 0)
(0.65168062 -2.632924e-05 0)
(0.65165511 -2.3011068e-05 0)
(0.65163283 -2.000276e-05 0)
(0.65161345 -1.7282832e-05 0)
(0.6515967 -1.4832366e-05 0)
(0.65158233 -1.2634533e-05 0)
(0.65157008 -1.0674105e-05 0)
(0.65155973 -8.9370117e-06 0)
(0.65155106 -7.4096788e-06 0)
(0.65154387 -6.0787706e-06 0)
(0.65153796 -4.9305773e-06 0)
(0.65153317 -3.9511021e-06 0)
(0.65152933 -3.1256187e-06 0)
(0.65152629 -2.4391325e-06 0)
(0.65152391 -1.876151e-06 0)
(0.65152208 -1.4214366e-06 0)
(0.6515207 -1.0598403e-06 0)
(0.65151966 -7.7714348e-07 0)
(0.65151891 -5.5982901e-07 0)
(0.65151836 -3.9588711e-07 0)
(0.65151798 -2.7442439e-07 0)
(0.65151771 -1.8631252e-07 0)
(0.65151753 -1.2360465e-07 0)
(0.65151741 -8.0069611e-08 0)
(0.65151733 -5.0448021e-08 0)
(0.65151729 -3.0907973e-08 0)
(0.65151726 -1.8261578e-08 0)
(0.65151724 -1.0433301e-08 0)
(0.65151723 -5.652228e-09 0)
(0.65151723 -2.9466991e-09 0)
(0.65151723 -1.3821658e-09 0)
(0.65151723 -6.2793051e-10 0)
(0.65151722 -1.9620826e-10 0)
(0.65151723 -6.0041954e-11 0)
(0.65151723 5.9598027e-11 0)
(0.65151723 4.5110464e-11 0)
(0.65151723 9.4828082e-11 0)
(0.65151723 5.5732774e-11 0)
(0.65151723 1.0491331e-10 0)
(0.65151723 6.4723219e-11 0)
(0.65151723 1.0286626e-10 0)
(0.65151723 5.0582532e-11 0)
(0.65151723 8.4673875e-11 0)
(0.65151723 2.3910265e-11 0)
(0.65151723 4.52018e-11 0)
(0.65151723 -2.4917256e-11 0)
(0.65151723 1.7445351e-12 0)
(0.65151723 -6.9766884e-11 0)
(0.65151723 -4.0884615e-11 0)
(0.65151723 -1.1629473e-10 0)
(0.65151723 -6.9553991e-11 0)
(0.65151723 -1.4611095e-10 0)
(0.65151723 -9.2652144e-11 0)
(0.65151723 -2.1313253e-10 0)
(0.65151723 -1.9775208e-10 0)
(0.65151723 -4.8937072e-10 0)
(0.65151723 -6.6883933e-10 0)
(0.65151722 -1.3245164e-09 0)
(0.65151723 -1.9590772e-09 0)
(0.65151722 -3.5980268e-09 0)
(0.65151722 -5.4569892e-09 0)
(0.65151721 -8.8527403e-09 0)
(0.65151722 -1.2604905e-08 0)
(0.27381496 -0.00027736421 0)
(0.27321386 -0.00078415114 0)
(0.27189613 -0.0008398878 0)
(0.27060736 -0.00062883784 0)
(0.26959759 -0.00040745611 0)
(0.26883818 -0.00027199036 0)
(0.26824057 -0.00020424465 0)
(0.2677439 -0.00016557701 0)
(0.26732066 -0.00013612426 0)
(0.26695887 -0.00011193234 0)
(0.26664934 -9.3520293e-05 0)
(0.26638248 -8.0384659e-05 0)
(0.2661495 -7.0860017e-05 0)
(0.26594368 -6.3367025e-05 0)
(0.26576036 -5.7000433e-05 0)
(0.26559629 -5.1403956e-05 0)
(0.26544899 -4.6450205e-05 0)
(0.2653164 -4.2052549e-05 0)
(0.26519681 -3.8119401e-05 0)
(0.26508877 -3.4571821e-05 0)
(0.26499105 -3.1352541e-05 0)
(0.26490264 -2.8423979e-05 0)
(0.26482264 -2.5756868e-05 0)
(0.26475025 -2.3326548e-05 0)
(0.26468477 -2.1109529e-05 0)
(0.26462557 -1.9085642e-05 0)
(0.2645721 -1.7236412e-05 0)
(0.26452385 -1.5546404e-05 0)
(0.26448036 -1.4001212e-05 0)
(0.26444121 -1.2588588e-05 0)
(0.26440603 -1.1296872e-05 0)
(0.26437448 -1.011611e-05 0)
(0.26434624 -9.0367756e-06 0)
(0.26432102 -8.050736e-06 0)
(0.26429856 -7.150188e-06 0)
(0.26427862 -6.3284726e-06 0)
(0.26426098 -5.5792414e-06 0)
(0.26424542 -4.8971173e-06 0)
(0.26423177 -4.2770566e-06 0)
(0.26421985 -3.714813e-06 0)
(0.2642095 -3.2064651e-06 0)
(0.26420057 -2.7486658e-06 0)
(0.26419291 -2.3383351e-06 0)
(0.26418639 -1.972704e-06 0)
(0.2641809 -1.6491672e-06 0)
(0.2641763 -1.3651433e-06 0)
(0.2641725 -1.1181278e-06 0)
(0.26416939 -9.0543342e-07 0)
(0.26416687 -7.2443274e-07 0)
(0.26416485 -5.7219931e-07 0)
(0.26416327 -4.4594353e-07 0)
(0.26416203 -3.4259995e-07 0)
(0.26416108 -2.5938735e-07 0)
(0.26416036 -1.9331467e-07 0)
(0.26415983 -1.4183179e-07 0)
(0.26415944 -1.0226805e-07 0)
(0.26415916 -7.2520828e-08 0)
(0.26415897 -5.0420281e-08 0)
(0.26415883 -3.4436798e-08 0)
(0.26415874 -2.2971268e-08 0)
(0.26415868 -1.5054671e-08 0)
(0.26415864 -9.5735618e-09 0)
(0.26415862 -5.9960675e-09 0)
(0.2641586 -3.5895913e-09 0)
(0.2641586 -2.1495192e-09 0)
(0.26415859 -1.1854018e-09 0)
(0.26415859 -6.8529236e-10 0)
(0.26415859 -3.1759477e-10 0)
(0.26415859 -1.9151197e-10 0)
(0.26415859 -4.5708184e-11 0)
(0.26415859 -4.6074214e-11 0)
(0.26415859 3.148868e-11 0)
(0.26415859 -1.0194165e-11 0)
(0.26415859 4.6137563e-11 0)
(0.26415859 -9.175658e-13 0)
(0.26415859 5.2459133e-11 0)
(0.26415859 -4.4169613e-12 0)
(0.26415859 4.1169924e-11 0)
(0.26415859 -1.4881378e-11 0)
(0.26415859 3.1761841e-11 0)
(0.26415859 -3.1479893e-11 0)
(0.26415859 1.1727523e-11 0)
(0.26415859 -4.5208615e-11 0)
(0.26415859 1.8810769e-12 0)
(0.26415859 -5.8869843e-11 0)
(0.26415859 -1.2461671e-11 0)
(0.26415859 -6.8917959e-11 0)
(0.26415859 -1.5664375e-11 0)
(0.26415859 -7.7693505e-11 0)
(0.26415859 -2.9159406e-11 0)
(0.26415859 -1.1307373e-10 0)
(0.26415859 -9.9725779e-11 0)
(0.26415859 -2.819272e-10 0)
(0.26415859 -3.5383785e-10 0)
(0.26415858 -6.7984084e-10 0)
(0.26415858 -1.0245615e-09 0)
(0.26415858 -1.8514707e-09 0)
(0.26415858 -2.7836786e-09 0)
(0.26415857 -4.8542333e-09 0)
(0.26415856 -6.3788665e-09 0)
)
;

boundaryField
{
    top
    {
        type            fixedValue;
        value           uniform (0 0 0);
    }
    inlet
    {
        type            pressureNormalInletOutletVelocity;
        phi             phi;
        rho             rho;