/*--------------------------------*- C++ -*----------------------------------*\
| =========                 |                                                 |
| \\      /  F ield         | OpenFOAM: The Open Source CFD Toolbox           |
|  \\    /   O peration     | Version:  v1812                                 |
|   \\  /    A nd           | Web:      www.OpenFOAM.com                      |
|    \\/     M anipulation  |                                                 |
\*---------------------------------------------------------------------------*/
FoamFile
{
    version     2.0;
    format      ascii;
    class       surfaceScalarField;
    location    "10.2";
    object      phi;
}
// * * * * * * * * * * * * * * * * * * * * * * * * * * * * * * * * * * * * * //

dimensions      [0 3 -1 0 0 0 0];
oriented        oriented;


internalField   nonuniform List<scalar> 
1890
(
0.0093061957
0.00069380425
0.0082843931
0.0010218027
0.0073298986
0.00095449449
0.0064869553
0.00084294334
0.0057695845
0.0007173708
0.00518986
0.00057972443
0.004738168
0.00045169205
0.00439519
0.00034297801
0.0041390268
0.00025616318
0.0039491069
0.00018991984
0.003807888
0.00014121897
0.0037013782
0.00010650979
0.003619058
8.2320215e-05
0.0035534117
6.5646239e-05
0.0034992845
5.4127251e-05
0.0034532444
4.6040049e-05
0.0034130501
4.0194297e-05
0.0033772574
3.5792762e-05
0.0033449386
3.2318763e-05
0.0033154893
2.9449282e-05
0.0032885008
2.6988573e-05
0.0032636805
2.4820294e-05
0.003240805
2.2875473e-05
0.0032196926
2.1112413e-05
0.0032001879
1.9504656e-05
0.0031821539
1.8034023e-05
0.0031654672
1.6686738e-05
0.0031500158
1.5451376e-05
0.0031356979
1.4317872e-05
0.0031224208
1.3277074e-05
0.0031101002
1.2320587e-05
0.0030986595
1.144071e-05
0.0030880291
1.0630422e-05
0.0030781458
9.8833551e-06
0.003068952
9.1937679e-06
0.0030603955
8.5565016e-06
0.0030524286
7.966933e-06
0.0030450076
7.4209227e-06
0.0030380929
6.9147645e-06
0.0030316477
6.4451359e-06
0.0030256387
6.0090537e-06
0.0030200348
5.6038327e-06
0.0030148078
5.2270503e-06
0.0030099313
4.8765143e-06
0.0030053811
4.5502346e-06
0.0030011347
4.2464003e-06
0.0029971713
3.9633577e-06
0.0029934717
3.6995931e-06
0.002990018
3.453718e-06
0.0029867935
3.224456e-06
0.0029837829
3.0106332e-06
0.0029809717
2.8111679e-06
0.0029783467
2.625063e-06
0.0029758953
2.4513983e-06
0.002973606
2.2893222e-06
0.0029714679
2.1380461e-06
0.0029694711
1.9968366e-06
0.002967606
1.8650112e-06
0.0029658641
1.7419342e-06
0.0029642371
1.627013e-06
0.0029627174
1.5196975e-06
0.0029612979
1.4194769e-06
0.002959972
1.3258785e-06
0.0029587336
1.2384646e-06
0.0029575768
1.1568282e-06
0.0029564962
1.0805895e-06
0.0029554868
1.009391e-06
0.0029545439
9.4289519e-07
0.0029536631
8.8078409e-07
0.0029528403
8.2275759e-07
0.0029520718
7.6853823e-07
0.0029513539
7.1786821e-07
0.0029506834
6.7051291e-07
0.0029500572
6.262541e-07
0.0029494723
5.8489062e-07
0.0029489261
5.4622617e-07
0.002948416
5.1007809e-07
0.0029479397
4.7625707e-07
0.0029474951
4.4459923e-07
0.0029470802
4.149265e-07
0.0029466931
3.8711168e-07
0.0029463321
3.6099554e-07
0.0029459957
3.3650182e-07
0.0029456822
3.1347054e-07
0.0029453904
2.9187942e-07
0.0029451188
2.7151989e-07
0.0029448664
2.5244498e-07
0.002944632
2.3434574e-07
0.0029444146
2.1742925e-07
0.0029442134
2.0122483e-07
0.0029440272
1.862286e-07
0.0029438556
1.7166946e-07
0.0029436972
1.5850254e-07
0.0029435518
1.4541257e-07
0.0029434177
1.3404898e-07
0.0029432954
1.2234259e-07
0.0029431825
1.1282495e-07
0.0029430795
1.0299085e-07
0.0029429835
9.607421e-08
9.3853571e-08
0.010339525
0.00035427932
0.010570754
0.00079057335
0.010606301
0.00091894821
0.010547572
0.00090167137
0.010422317
0.00084262623
0.010244356
0.00075768559
0.010039421
0.00065662744
0.0098287427
0.00055365586
0.009625135
0.00045977084
0.0094353013
0.00037975354
0.0092624277
0.00031409259
0.0091075332
0.00026140425
0.008970154
0.00021969948
0.0088489023
0.00018689786
0.0087419716
0.00016105802
0.0086474927
0.00014051895
0.008563694
0.00012399297
0.0084890107
0.00011047601
0.0084221096
9.9219874e-05
0.0083618775
8.9681402e-05
0.0083073954
8.1470661e-05
0.0082579079
7.4307836e-05
0.0082127929
6.7990487e-05
0.0081715353
6.2369985e-05
0.008133705
5.7335018e-05
0.0080989388
5.2800195e-05
0.0080669272
4.8698282e-05
0.0080374036
4.4974971e-05
0.0080101361
4.1585403e-05
0.0079849213
3.8491851e-05
0.0079615798
3.566215e-05
0.0079399519
3.3068599e-05
0.0079198951
3.0687157e-05
0.0079012817
2.8496838e-05
0.0078839962
2.647924e-05
0.0078679345
2.4618156e-05
0.0078530022
2.2899267e-05
0.0078391132
2.1309876e-05
0.0078261893
1.9838689e-05
0.0078141588
1.8475627e-05
0.0078029562
1.7211669e-05
0.0077925213
1.6038711e-05
0.0077827989
1.4949458e-05
0.0077737381
1.3937315e-05
0.0077652921
1.2996308e-05
0.0077574175
1.2121011e-05
0.0077500743
1.1306478e-05
0.0077432257
1.0548192e-05
0.0077368374
9.8420211e-06
0.0077308777
9.1841738e-06
0.0077253171
8.5711692e-06
0.0077201285
7.9998062e-06
0.0077152864
7.4671372e-06
0.0077107674
6.9704444e-06
0.0077065495
6.507219e-06
0.0077026124
6.0751407e-06
0.0076989372
5.6720601e-06
0.0076955062
5.295983e-06
0.0076923031
4.9450573e-06
0.0076893125
4.6175624e-06
0.0076865203
4.3119004e-06
0.0076839132
4.0265884e-06
0.0076814788
3.7602514e-06
0.0076792057
3.5116134e-06
0.0076770831
3.27949e-06
0.0076751009
3.062777e-06
0.0076732498
2.8604427e-06
0.0076715212
2.6715197e-06
0.0076699069
2.4951004e-06
0.0076683993
2.3303338e-06
0.0076669914
2.1764263e-06
0.0076656766
2.0326381e-06
0.0076644488
1.8982875e-06
0.0076633024
1.7727364e-06
0.0076622319
1.6553988e-06
0.0076612324
1.5457097e-06
0.0076602993
1.4431502e-06
0.0076594284
1.3471987e-06
0.0076586155
1.2573965e-06
0.0076578572
1.1732575e-06
0.0076571499
1.0944121e-06
0.0076564905
1.0204092e-06
0.007655876
9.5100634e-07
0.0076553037
8.8574523e-07
0.0076547711
8.2454226e-07
0.0076542758
7.6682635e-07
0.0076538154
7.1275039e-07
0.0076533883
6.6146827e-07
0.0076529921
6.1358763e-07
0.0076526256
5.6772422e-07
0.0076522864
5.2538035e-07
0.007651974
4.8409486e-07
0.0076516855
4.4704255e-07
0.0076514214
4.0957793e-07
0.0076511773
3.7803146e-07
0.0076509562
3.4346902e-07
0.0076507505
3.1850725e-07
0.0076505676
2.8582189e-07
0.0076503926
2.7108317e-07
2.3726275e-07
0.010188704
0.00016557515
0.010530487
0.000448791
0.010851453
0.00059798177
0.011124174
0.00062895025
0.011350581
0.00061621886
0.011524486
0.00058378055
0.01164633
0.00053478421
0.011724155
0.0004758305
0.011767999
0.00041592666
0.011786639
0.000361114
0.011787114
0.00031361712
0.011775058
0.00027346026
0.011754861
0.00023989718
0.011729768
0.00021199031
0.011702054
0.00018877261
0.011673239
0.00016933388
0.011644339
0.00015289296
0.011616003
0.00013881183
0.011588629
0.00012659379
0.011562446
0.00011586445
0.011537572
0.00010634494
0.011514052
9.7826998e-05
0.01149189
9.015336e-05
0.011471056
8.3203364e-05
0.011451509
7.6882614e-05
0.011433193
7.1115565e-05
0.011416051
6.58403e-05
0.011400021
6.1004917e-05
0.011385042
5.6565078e-05
0.011371051
5.2482344e-05
0.01135799
4.8723031e-05
0.011345801
4.5257389e-05
0.01133443
4.2058993e-05
0.011323822
3.9104271e-05
0.011313929
3.6372124e-05
0.011304704
3.3843614e-05
0.011296101
3.1501703e-05
0.01128808
2.933103e-05
0.011280601
2.7317714e-05
0.011273628
2.544919e-05
0.011267125
2.3714059e-05
0.011261062
2.210196e-05
0.011255408
2.0603461e-05
0.011250135
1.9209954e-05
0.011245218
1.7913577e-05
0.011240632
1.6707128e-05
0.011236354
1.5584004e-05
0.011232364
1.4538142e-05
0.011228642
1.3563963e-05
0.01122517
1.265633e-05
0.011221931
1.1810507e-05
0.011218909
1.1022122e-05
0.011216089
1.028714e-05
0.011213457
9.6018277e-06
0.011211002
8.9627343e-06
0.01120871
8.3666624e-06
0.011206572
7.8106484e-06
0.011204576
7.2919419e-06
0.011202713
6.8079879e-06
0.011200974
6.3564121e-06
0.011199351
5.935007e-06
0.011197836
5.5417214e-06
0.011196421
5.1746498e-06
0.011195101
4.8320211e-06
0.011193868
4.5121905e-06
0.011192717
4.2136263e-06
0.011191643
3.9349007e-06
0.01119064
3.6746798e-06
0.011189703
3.4317151e-06
0.011188829
3.2048376e-06
0.011188012
2.9929556e-06
0.01118725
2.7950455e-06
0.011186538
2.6101611e-06
0.011185873
2.4374118e-06
0.011185253
2.2759827e-06
0.011184673
2.1250903e-06
0.011184132
1.9840272e-06
0.011183627
1.8520818e-06
0.011183156
1.7286423e-06
0.011182716
1.6130405e-06
0.011182306
1.5047837e-06
0.011181923
1.4032232e-06
0.011181566
1.3080417e-06
0.011181233
1.218548e-06
0.011180923
1.1346863e-06
0.011180634
1.0555672e-06
0.011180366
9.8156811e-07
0.011180116
9.1129845e-07
0.011179883
8.4596656e-07
0.011179668
7.8311116e-07
0.011179468
7.2561529e-07
0.011179283
6.688025e-07
0.011179111
6.1889757e-07
0.011178954
5.6668058e-07
0.011178807
5.2498517e-07
0.011178675
4.7551291e-07
0.011178549
4.4401112e-07
0.011178441
3.9471706e-07
0.011178334
3.7739478e-07
3.2652669e-07
0.010097182
6.8393553e-05
0.010346961
0.00019901112
0.010662469
0.00028247387
0.010982753
0.00030866649
0.011290229
0.00030874342
0.011575251
0.00029875788
0.011829022
0.00028101346
0.012047865
0.00025698756
0.012233272
0.00023051982
0.01238924
0.0002051459
0.012520295
0.00018256236
0.012630755
0.00016299957
0.012724428
0.00014622491
0.012804515
0.00013190312
0.012873613
0.00011967426
0.012933772
0.00010917461
0.012986596
0.00010006907
0.013033332
9.2076367e-05
0.01307495
8.4975257e-05
0.013112216
7.8598618e-05
0.013145739
7.2822308e-05
0.013176012
6.7553941e-05
0.013203441
6.2723925e-05
0.013228366
5.8278894e-05
0.013251071
5.4176985e-05
0.013271802
5.038443e-05
0.01329077
4.6873165e-05
0.013308155
4.3619183e-05
0.013324119
4.0601467e-05
0.0133388
3.780129e-05
0.013352321
3.5201763e-05
0.013364791
3.2787541e-05
0.013376306
3.0544602e-05
0.01338695
2.8460097e-05
0.0133968
2.6522227e-05
0.013405923
2.472014e-05
0.013414381
2.3043847e-05
0.013422228
2.1484149e-05
0.013429513
2.0032566e-05
0.013436281
1.868128e-05
0.013442572
1.7423075e-05
0.013448423
1.6251293e-05
0.013453866
1.515978e-05
0.013458933
1.4142849e-05
0.013463652
1.3195243e-05
0.013468047
1.2312092e-05
0.013472142
1.148889e-05
0.013475958
1.0721461e-05
0.013479516
1.0005931e-05
0.013482834
9.3387083e-06
0.013485928
8.7164601e-06
0.013488814
8.1360921e-06
0.013491507
7.5947304e-06
0.013494019
7.0897071e-06
0.013496363
6.6185429e-06
0.013498551
6.1789334e-06
0.013500593
5.7687367e-06
0.013502499
5.3859585e-06
0.013504278
5.0287437e-06
0.013505939
4.6953633e-06
0.01350749
4.3842073e-06
0.013508938
4.0937767e-06
0.01351029
3.8226746e-06
0.013511552
3.5696018e-06
0.013512731
3.3333487e-06
0.013513832
3.1127876e-06
0.01351486
2.9068699e-06
0.01351582
2.7146127e-06
0.013516716
2.5351011e-06
0.013517554
2.3674759e-06
0.013518336
2.2109335e-06
0.013519066
2.0647213e-06
0.013519748
1.9281393e-06
0.013520385
1.8005292e-06
0.01352098
1.6812881e-06
0.013521535
1.5698347e-06
0.013522053
1.4656517e-06
0.013522537
1.3682137e-06
0.013522989
1.2770805e-06
0.01352341
1.1917566e-06
0.013523803
1.1118908e-06
0.013524169
1.0369883e-06
0.01352451
9.6683375e-07
0.013524828
9.0087435e-07
0.013525124
8.391219e-07
0.013525398
7.8082991e-07
0.013525653
7.2641258e-07
0.01352589
6.746485e-07
0.013526109
6.2672696e-07
0.013526312
5.803986e-07
0.013526499
5.38411e-07
0.013526672
4.9640118e-07
0.01352683
4.6021807e-07
0.013526976
4.21288e-07
0.013527109
3.9145304e-07
0.013527231
3.540573e-07
0.013527343
3.3205676e-07
0.013527443
2.941147e-07
0.013527538
2.8250902e-07
2.4490021e-07
0.010068394
-2.9113318e-12
0.010267405
-1.5659015e-12
0.010549879
-1.1739773e-12
0.010858545
-8.8435518e-13
0.011167288
1.3386212e-13
0.011466046
1.6457386e-12
0.01174706
2.6425694e-12
0.012004047
2.7445815e-12
0.012234567
2.1427483e-12
0.012439713
4.1109797e-13
0.012622275
-1.2948798e-12
0.012785275
-2.4376623e-12
0.0129315
-2.8265173e-12
0.013063403
-2.2639382e-12
0.013183077
-1.0230394e-12
0.013292252
8.7787056e-13
0.013392321
2.5609429e-12
0.013484397
3.5202855e-12
0.013569373
3.9471205e-12
0.013647971
3.4305405e-12
0.013720793
1.8675931e-12
0.013788347
7.4173956e-15
0.013851071
-1.3380226e-12
0.01390935
-1.8749267e-12
0.013963527
-1.7201538e-12
0.014013912
-6.4681171e-13
0.014060785
1.9842297e-12
0.014104404
4.1515965e-12
0.014145005
6.2066287e-12
0.014182807
7.7160867e-12
0.014218009
7.2635756e-12
0.014250796
6.3526423e-12
0.014281341
4.8214029e-12
0.014309801
3.4040149e-12
0.014336323
2.7778877e-12
0.014361043
3.5474226e-12
0.014384087
5.557278e-12
0.014405571
8.5280271e-12
0.014425604
1.1804085e-11
0.014444285
1.4641758e-11
0.014461708
1.6647825e-11
0.014477959
1.7238218e-11
0.014493119
1.685224e-11
0.014507262
1.5911532e-11
0.014520457
1.5108144e-11
0.014532769
1.542553e-11
0.014544258
1.6998553e-11
0.014554979
2.0025283e-11
0.014564985
2.3775851e-11
0.014574324
2.7417355e-11
0.01458304
3.0463486e-11
0.014591177
3.1967271e-11
0.014598771
3.2079759e-11
0.014605861
3.1242454e-11
0.014612479
2.9980503e-11
0.014618658
2.949887e-11
0.014624427
2.9948661e-11
0.014629813
3.1904488e-11
0.014634842
3.4532327e-11
0.014639537
3.6841793e-11
0.014643921
3.8278565e-11
0.014648015
3.7335867e-11
0.014651838
3.438175e-11
0.014655407
2.9814667e-11
0.01465874
2.3997347e-11
0.014661853
1.9111853e-11
0.01466476
1.5001142e-11
0.014667475
1.3493296e-11
0.01467001
1.1404479e-11
0.014672377
9.3033489e-12
0.014674588
4.1507901e-12
0.014676653
-3.8071356e-12
0.014678581
-1.7019006e-11
0.014680382
-3.1877599e-11
0.014682063
-4.6533361e-11
0.014683633
-6.0736305e-11
0.014685099
-7.2443639e-11
0.014686467
-8.0758804e-11
0.014687744
-8.5941919e-11
0.014688936
-9.0371446e-11
0.014690048
-9.5009783e-11
0.014691085
-1.028413e-10
0.014692052
-1.1327711e-10
0.014692953
-1.2548537e-10
0.014693792
-1.3686989e-10
0.014694573
-1.4427188e-10
0.0146953
-1.4452061e-10
0.014695974
-1.3688701e-10
0.014696601
-1.2189471e-10
0.014697182
-1.0168873e-10
0.01469772
-8.1321344e-11
0.014698217
-5.8947691e-11
0.014698677
-4.4125578e-11
0.014699098
-2.1372917e-11
0.01469949
-8.0786701e-12
0.014699844
2.5502965e-11
0.014700176
8.7701699e-11
0.01470047
1.3070203e-10
0.014700752
2.6819904e-10
3.0377083e-10
0.010068394
-6.8393559e-05
0.010267405
-0.00019901112
0.010549879
-0.00028247387
0.010858545
-0.00030866649
0.011167288
-0.00030874342
0.011466046
-0.00029875788
0.01174706
-0.00028101345
0.012004047
-0.00025698755
0.012234567
-0.00023051982
0.012439713
-0.0002051459
0.012622275
-0.00018256236
0.012785275
-0.00016299958
0.0129315
-0.00014622492
0.013063403
-0.00013190312
0.013183077
-0.00011967426
0.013292252
-0.0001091746
0.013392321
-0.00010006906
0.013484397
-9.2076359e-05
0.013569373
-8.4975249e-05
0.013647971
-7.8598613e-05
0.013720793
-7.2822306e-05
0.013788347
-6.7553942e-05
0.013851071
-6.2723928e-05
0.01390935
-5.8278899e-05
0.013963527
-5.4176987e-05
0.014013912
-5.0384429e-05
0.014060785
-4.6873159e-05
0.014104404
-4.3619173e-05
0.014145005
-4.0601455e-05
0.014182807
-3.7801276e-05
0.014218009
-3.5201751e-05
0.014250796
-3.2787531e-05
0.014281341
-3.0544595e-05
0.014309801
-2.8460093e-05
0.014336323
-2.6522222e-05
0.014361043
-2.4720132e-05
0.014384087
-2.3043835e-05
0.014405571
-2.148413e-05
0.014425604
-2.0032542e-05
0.014444285
-1.8681252e-05
0.014461708
-1.7423046e-05
0.014477959
-1.6251264e-05
0.014493119
-1.5159752e-05
0.014507262
-1.4142823e-05
0.014520457
-1.3195216e-05
0.014532769
-1.2312063e-05
0.014544258
-1.1488856e-05
0.01455498
-1.072142e-05
0.014564985
-1.0005883e-05
0.014574324
-9.3386559e-06
0.01458304
-8.7164047e-06
0.014591177
-8.1360361e-06
0.014598771
-7.5946756e-06
0.014605861
-7.0896538e-06
0.01461248
-6.6184899e-06
0.014618658
-6.178879e-06
0.014624427
-5.7686787e-06
0.014629813
-5.3858957e-06
0.014634842
-5.0286765e-06
0.014639537
-4.6952939e-06
0.014643921
-4.3841391e-06
0.014648015
-4.0937132e-06
0.014651838
-3.8226187e-06
0.014655407
-3.5695546e-06
0.014658741
-3.3333091e-06
0.014661853
-3.1127539e-06
0.01466476
-2.9068393e-06
0.014667475
-2.7145851e-06
0.01467001
-2.5350778e-06
0.014672377
-2.3674597e-06
0.014674588
-2.2109313e-06
0.014676653
-2.064739e-06
0.014678581
-1.9281818e-06
0.014680382
-1.8005981e-06
0.014682063
-1.6813807e-06
0.014683633
-1.5699483e-06
0.014685099
-1.4657814e-06
0.014686467
-1.3683564e-06
0.014687744
-1.2772339e-06
0.014688936
-1.1919221e-06
0.014690048
-1.1120705e-06
0.014691085
-1.0371868e-06
0.014692052
-9.6705219e-07
0.014692953
-9.0111373e-07
0.014693792
-8.393761e-07
0.014694573
-7.8109227e-07
0.0146953
-7.2667023e-07
0.014695974
-6.748912e-07
0.014696601
-6.2694361e-07
0.014697181
-5.8058394e-07
0.01469772
-5.3856245e-07
0.014698216
-4.9651991e-07
0.014698677
-4.6030596e-07
0.014699098
-4.2134413e-07
0.01469949
-3.9146873e-07
0.014699844
-3.5403061e-07
0.014700176
-3.3193826e-07
0.01470047
-2.9393858e-07
0.014700752
-2.8214792e-07
-2.4448543e-07
0.010097182
-0.00016557516
0.010346961
-0.000448791
0.010662469
-0.00059798178
0.010982753
-0.00062895025
0.011290229
-0.00061621886
0.011575251
-0.00058378055
0.011829022
-0.0005347842
0.012047865
-0.00047583049
0.012233272
-0.00041592665
0.01238924
-0.000361114
0.012520295
-0.00031361712
0.012630755
-0.00027346026
0.012724428
-0.00023989719
0.012804515
-0.00021199031
0.012873613
-0.0001887726
0.012933772
-0.00016933387
0.012986596
-0.00015289295
0.013033332
-0.00013881182
0.01307495
-0.00012659379
0.013112216
-0.00011586445
0.013145739
-0.00010634494
0.013176012
-9.7827005e-05
0.013203441
-9.0153366e-05
0.013228366
-8.3203367e-05
0.013251071
-7.6882612e-05
0.013271803
-7.1115557e-05
0.01329077
-6.5840288e-05
0.013308155
-6.1004905e-05
0.013324119
-5.6565068e-05
0.0133388
-5.2482337e-05
0.013352321
-4.8723028e-05
0.013364791
-4.5257389e-05
0.013376306
-4.2058994e-05
0.01338695
-3.910427e-05
0.0133968
-3.6372117e-05
0.013405923
-3.3843601e-05
0.013414381
-3.1501684e-05
0.013422228
-2.9331008e-05
0.013429513
-2.7317691e-05
0.013436281
-2.544917e-05
0.013442572
-2.3714042e-05
0.013448423
-2.2101947e-05
0.013453866
-2.0603448e-05
0.013458933
-1.920994e-05
0.013463652
-1.7913556e-05
0.013468047
-1.6707099e-05
0.013472142
-1.5583968e-05
0.013475959
-1.45381e-05
0.013479517
-1.3563919e-05
0.013482834
-1.2656289e-05
0.013485928
-1.1810471e-05
0.013488814
-1.1022092e-05
0.013491507
-1.0287111e-05
0.013494019
-9.6017971e-06
0.013496363
-8.9626964e-06
0.013498551
-8.3666149e-06
0.013500593
-7.8105916e-06
0.013502499
-7.2918801e-06
0.013504278
-6.8079277e-06
0.013505939
-6.3563596e-06
0.01350749
-5.9349671e-06
0.013508938
-5.5416938e-06
0.01351029
-5.1746305e-06
0.013511552
-4.8320037e-06
0.013512731
-4.5121674e-06
0.013513832
-4.2135947e-06
0.01351486
-3.9348621e-06
0.01351582
-3.674642e-06
0.013516717
-3.4316899e-06
0.013517554
-3.2048343e-06
0.013518336
-2.9929807e-06
0.013519066
-2.7950974e-06
0.013519748
-2.6102332e-06
0.013520385
-2.4374938e-06
0.01352098
-2.276065e-06
0.013521535
-2.1251696e-06
0.013522054
-1.9841075e-06
0.013522537
-1.8521717e-06
0.013522989
-1.7287549e-06
0.01352341
-1.6131822e-06
0.013523803
-1.5049582e-06
0.013524169
-1.403422e-06
0.01352451
-1.3082545e-06
0.013524828
-1.2187595e-06
0.013525124
-1.1348881e-06
0.013525398
-1.0557534e-06
0.013525653
-9.8174426e-07
0.01352589
-9.1146747e-07
0.013526109
-8.4613698e-07
0.013526312
-7.832787e-07
0.013526499
-7.2577666e-07
0.013526671
-6.6894146e-07
0.01352683
-6.190065e-07
0.013526975
-5.6675096e-07
0.013527109
-5.250193e-07
0.01352723
-4.755229e-07
0.013527342
-4.4400957e-07
0.013527443
-3.9472046e-07
0.013527538
-3.7745181e-07
-3.2650037e-07
0.010188704
-0.00035427932
0.010530487
-0.00079057335
0.010851453
-0.00091894821
0.011124174
-0.00090167137
0.011350581
-0.00084262623
0.011524486
-0.00075768558
0.01164633
-0.00065662743
0.011724155
-0.00055365586
0.011767999
-0.00045977084
0.011786639
-0.00037975355
0.011787114
-0.00031409259
0.011775058
-0.00026140426
0.011754861
-0.00021969948
0.011729768
-0.00018689785
0.011702054
-0.00016105801
0.011673239
-0.00014051894
0.011644339
-0.00012399296
0.011616003
-0.000110476
0.011588629
-9.9219877e-05
0.011562446
-8.9681409e-05
0.011537572
-8.147067e-05
0.011514052
-7.4307843e-05
0.01149189
-6.7990489e-05
0.011471056
-6.2369981e-05
0.011451509
-5.7335009e-05
0.011433193
-5.2800183e-05
0.011416051
-4.8698271e-05
0.011400021
-4.4974964e-05
0.011385042
-4.1585401e-05
0.011371051
-3.8491854e-05
0.01135799
-3.5662157e-05
0.011345801
-3.3068605e-05
0.01133443
-3.0687159e-05
0.011323822
-2.8496834e-05
0.011313929
-2.6479228e-05
0.011304704
-2.4618139e-05
0.011296101
-2.2899248e-05
0.01128808
-2.1309859e-05
0.011280601
-1.9838678e-05
0.011273628
-1.8475623e-05
0.011267125
-1.7211669e-05
0.011261062
-1.6038713e-05
0.011255408
-1.4949455e-05
0.011250135
-1.3937304e-05
0.011245218
-1.2996289e-05
0.011240632
-1.2120983e-05
0.011236355
-1.1306446e-05
0.011232365
-1.0548162e-05
0.011228643
-9.8419975e-06
0.01122517
-9.1841594e-06
0.011221931
-8.5711627e-06
0.011218909
-7.9998025e-06
0.011216089
-7.4671294e-06
0.011213458
-6.9704264e-06
0.011211002
-6.507188e-06
0.011208711
-6.0750986e-06
0.011206572
-5.6720133e-06
0.011204576
-5.2959404e-06
0.011202713
-4.9450269e-06
0.011200974
-4.6175484e-06
0.011199351
-4.3119008e-06
0.011197836
-4.026596e-06
0.011196422
-3.7602558e-06
0.011195101
-3.5116054e-06
0.011193869
-3.2794655e-06
0.011192718
-3.0627397e-06
0.011191643
-2.8604033e-06
0.01119064
-2.6714928e-06
0.011189704
-2.4950984e-06
0.011188829
-2.3303619e-06
0.011188013
-2.1764801e-06
0.01118725
-2.0327051e-06
0.011186538
-1.8983524e-06
0.011185874
-1.772787e-06
0.011185253
-1.6554321e-06
0.011184674
-1.5457331e-06
0.011184133
-1.4431796e-06
0.011183628
-1.3472505e-06
0.011183156
-1.2574829e-06
0.011182716
-1.1733787e-06
0.011182306
-1.0945587e-06
0.011181923
-1.0205625e-06
0.011181566
-9.5114986e-07
0.011181233
-8.8586703e-07
0.011180923
-8.2464442e-07
0.011180634
-7.6691731e-07
0.011180365
-7.1284675e-07
0.011180115
-6.6157929e-07
0.011179883
-6.1371778e-07
0.011179667
-5.6786229e-07
0.011179467
-5.2551405e-07
0.011179282
-4.842062e-07
0.01117911
-4.4712779e-07
0.011178953
-4.096356e-07
0.011178806
-3.7807888e-07
0.011178674
-3.4351536e-07
0.011178549
-3.1858887e-07
0.01117844
-2.8593466e-07
0.011178334
-2.7134551e-07
-2.3744403e-07
0.010339525
-0.00069380425
0.010570754
-0.0010218027
0.010606301
-0.00095449448
0.010547572
-0.00084294333
0.010422317
-0.0007173708
0.010244356
-0.00057972443
0.010039421
-0.00045169205
0.0098287427
-0.00034297802
0.009625135
-0.00025616319
0.0094353013
-0.00018991984
0.0092624277
-0.00014121897
0.0091075332
-0.00010650979
0.008970154
-8.2320209e-05
0.0088489023
-6.5646233e-05
0.0087419716
-5.4127247e-05
0.0086474927
-4.6040048e-05
0.008563694
-4.0194299e-05
0.0084890108
-3.5792767e-05
0.0084221096
-3.2318769e-05
0.0083618775
-2.9449286e-05
0.0083073954
-2.6988575e-05
0.0082579079
-2.4820292e-05
0.0082127929
-2.2875468e-05
0.0081715353
-2.1112407e-05
0.008133705
-1.950465e-05
0.0080989388
-1.8034019e-05
0.0080669272
-1.6686737e-05
0.0080374036
-1.5451379e-05
0.0080101361
-1.4317877e-05
0.0079849213
-1.327708e-05
0.0079615798
-1.2320591e-05
0.0079399519
-1.144071e-05
0.0079198952
-1.0630417e-05
0.0079012817
-9.8833472e-06
0.0078839962
-9.1937586e-06
0.0078679346
-8.5564935e-06
0.0078530022
-7.9669283e-06
0.0078391133
-7.4209225e-06
0.0078261894
-6.914768e-06
0.0078141589
-6.4451413e-06
0.0078029563
-6.0090577e-06
0.0077925214
-5.6038327e-06
0.007782799
-5.2270447e-06
0.0077737382
-4.8765033e-06
0.0077652922
-4.5502207e-06
0.0077574176
-4.2463867e-06
0.0077500745
-3.9633481e-06
0.0077432259
-3.6995896e-06
0.0077368376
-3.4537203e-06
0.0077308779
-3.2244618e-06
0.0077253173
-3.0106379e-06
0.0077201287
-2.8111673e-06
0.0077152867
-2.6250545e-06
0.0077107676
-2.4513817e-06
0.0077065498
-2.2893014e-06
0.0077026127
-2.1380261e-06
0.0076989375
-1.9968232e-06
0.0076955065
-1.8650079e-06
0.0076923034
-1.7419404e-06
0.0076893129
-1.6270252e-06
0.0076865207
-1.5197086e-06
0.0076839136
-1.4194806e-06
0.0076814792
-1.3258709e-06
0.0076792061
-1.2384462e-06
0.0076770835
-1.156805e-06
0.0076751013
-1.0805694e-06
0.0076732503
-1.0093827e-06
0.0076715216
-9.4290357e-07
0.0076699073
-8.808073e-07
0.0076683997
-8.2278951e-07
0.0076669917
-7.6856798e-07
0.0076656769
-7.1788739e-07
0.0076644492
-6.7051735e-07
0.0076633027
-6.2624662e-07
0.0076622322
-5.848802e-07
0.0076612326
-5.4622414e-07
0.0076602995
-5.1009229e-07
0.0076594285
-4.7629162e-07
0.0076586156
-4.4464703e-07
0.0076578571
-4.1498019e-07
0.0076571497
-3.8715738e-07
0.0076564902
-3.6102869e-07
0.0076558757
-3.3651962e-07
0.0076553033
-3.1348192e-07
0.0076547706
-2.9189088e-07
0.0076542752
-2.7154293e-07
0.0076538148
-2.5247765e-07
0.0076533875
-2.3438981e-07
0.0076529912
-2.174719e-07
0.0076526247
-2.0126507e-07
0.0076522854
-1.8625683e-07
0.007651973
-1.7169146e-07
0.0076516844
-1.585135e-07
0.0076514202
-1.4542509e-07
0.0076511762
-1.3406174e-07
0.0076509551
-1.2237478e-07
0.0076507494
-1.1287695e-07
0.0076505665
-1.0305856e-07
0.0076503913
-9.6180537e-08
-9.3948563e-08
0.0093061957
0.0082843931
0.0073298986
0.0064869553
0.0057695845
0.00518986
0.004738168
0.00439519
0.0041390268
0.0039491069
0.003807888
0.0037013782
0.003619058
0.0035534117
0.0034992845
0.0034532444
0.0034130501
0.0033772574
0.0033449386
0.0033154893
0.0032885007
0.0032636805
0.003240805
0.0032196926
0.0032001879
0.0031821539
0.0031654672
0.0031500158
0.0031356979
0.0031224208
0.0031101002
0.0030986595
0.0030880291
0.0030781458
0.003068952
0.0030603955
0.0030524286
0.0030450077
0.0030380929
0.0030316477
0.0030256387
0.0030200349
0.0030148078
0.0030099313
0.0030053811
0.0030011347
0.0029971714
0.0029934718
0.002990018
0.0029867936
0.0029837829
0.0029809718
0.0029783467
0.0029758954
0.0029736061
0.002971468
0.0029694712
0.0029676062
0.0029658642
0.0029642372
0.0029627175
0.002961298
0.0029599722
0.0029587338
0.002957577
0.0029564964
0.002955487
0.002954544
0.0029536632
0.0029528404
0.0029520719
0.002951354
0.0029506835
0.0029500573
0.0029494724
0.0029489262
0.002948416
0.0029479397
0.002947495
0.0029470801
0.0029466929
0.0029463319
0.0029459954
0.002945682
0.0029453901
0.0029451185
0.002944866
0.0029446316
0.0029444142
0.0029442129
0.0029440267
0.0029438551
0.0029436966
0.0029435512
0.0029434171
0.0029432948
0.0029431819
0.0029430788
0.0029429826
)
;

boundaryField
{
    top
    {
        type            calculated;
        value           uniform 0;
    }
    inlet
    {
        type            calculated;
        value           nonuniform List<scalar> 10(-0.01 -0.01 -0.01 -0.01 -0.01 -0.01 -0.01 -0.01 -0.01 -0.01);
    }
    outlet
    {
        type            calculated;
        value           nonuniform List<scalar> 10(0.0029428896 0.0076502492 0.011178245 0.01352762 0.014700996 0.014700997 0.01352762 0.011178245 0.0076502478 0.0029428887);
    }
    bottom
    {
        type            calculated;
        value           uniform 0;
    }
    back
    {
        type            empty;
        value           nonuniform 0();
    }
    front
    {
        type            empty;
        value           nonuniform 0();
    }
}


// ************************************************************************* //
