/*--------------------------------*- C++ -*----------------------------------*\
| =========                 |                                                 |
| \\      /  F ield         | OpenFOAM: The Open Source CFD Toolbox           |
|  \\    /   O peration     | Version:  v1812                                 |
|   \\  /    A nd           | Web:      www.OpenFOAM.com                      |
|    \\/     M anipulation  |                                                 |
\*---------------------------------------------------------------------------*/
FoamFile
{
    version     2.0;
    format      ascii;
    class       volVectorField;
    location    "15.35";
    object      U;
}
// * * * * * * * * * * * * * * * * * * * * * * * * * * * * * * * * * * * * * //

dimensions      [0 1 -1 0 0 0 0];


internalField   nonuniform List<vector> 
1000
(
(0.91890839 0.035821912 0)
(0.86271384 0.062195638 0)
(0.7870597 0.062510089 0)
(0.69536033 0.054550394 0)
(0.61089745 0.04453165 0)
(0.54411592 0.034015971 0)
(0.49343012 0.02418754 0)
(0.45479414 0.01614423 0)
(0.42544583 0.010265786 0)
(0.40347313 0.0063041454 0)
(0.38715767 0.0037976293 0)
(0.3749622 0.0023103383 0)
(0.36566192 0.0014930151 0)
(0.35836272 0.0010851184 0)
(0.35244267 0.00090607219 0)
(0.34748201 0.00084105127 0)
(0.34320348 0.00082372368 0)
(0.33942726 0.00081931008 0)
(0.33603793 0.00081185213 0)
(0.33296114 0.00079580168 0)
(0.33014778 0.00077081234 0)
(0.32756384 0.00073871032 0)
(0.3251842 0.00070188989 0)
(0.32298902 0.00066256578 0)
(0.32096172 0.00062249922 0)
(0.31908785 0.00058295659 0)
(0.31735449 0.00054477078 0)
(0.31574995 0.00050843342 0)
(0.3142636 0.00047419146 0)
(0.31288574 0.00044212481 0)
(0.31160755 0.00041221018 0)
(0.31042101 0.00038436254 0)
(0.30931883 0.0003584658 0)
(0.30829438 0.0003343908 0)
(0.30734165 0.00031200656 0)
(0.30645515 0.00029118687 0)
(0.30562991 0.00027181305 0)
(0.30486136 0.00025377555 0)
(0.30414535 0.00023697365 0)
(0.30347807 0.00022131472 0)
(0.30285601 0.00020671495 0)
(0.30227596 0.00019309674 0)
(0.30173496 0.00018038998 0)
(0.30123029 0.00016852993 0)
(0.30075942 0.00015745733 0)
(0.30032002 0.00014711831 0)
(0.29990993 0.00013746239 0)
(0.29952715 0.00012844411 0)
(0.29916983 0.00012002052 0)
(0.29883624 0.00011215133 0)
(0.29852478 0.00010480004 0)
(0.29823397 9.7931079e-05 0)
(0.29796241 9.151235e-05 0)
(0.29770882 8.551365e-05 0)
(0.29747201 7.9906498e-05 0)
(0.29725084 7.4666031e-05 0)
(0.29704429 6.9767671e-05 0)
(0.29685137 6.5190907e-05 0)
(0.2966712 6.0914809e-05 0)
(0.29650291 5.6919799e-05 0)
(0.29634572 5.3187651e-05 0)
(0.2961989 4.9699949e-05 0)
(0.29606176 4.6440307e-05 0)
(0.29593366 4.3392807e-05 0)
(0.295814 4.0542923e-05 0)
(0.29570223 3.7878508e-05 0)
(0.29559783 3.5387723e-05 0)
(0.29550031 3.3060449e-05 0)
(0.29540922 3.0888067e-05 0)
(0.29532413 2.8859722e-05 0)
(0.29524465 2.6966733e-05 0)
(0.2951704 2.519862e-05 0)
(0.29510104 2.3545271e-05 0)
(0.29503625 2.1998214e-05 0)
(0.29497572 2.0549868e-05 0)
(0.29491918 1.9194224e-05 0)
(0.29486637 1.79277e-05 0)
(0.29481705 1.6744606e-05 0)
(0.29477097 1.5643246e-05 0)
(0.29472793 1.46165e-05 0)
(0.29468772 1.366054e-05 0)
(0.29465017 1.2766681e-05 0)
(0.29461507 1.193054e-05 0)
(0.29458229 1.1144578e-05 0)
(0.29455167 1.040783e-05 0)
(0.29452308 9.7134393e-06 0)
(0.29449635 9.0728362e-06 0)
(0.29447142 8.4706504e-06 0)
(0.2944481 7.918528e-06 0)
(0.29442633 7.3970023e-06 0)
(0.29440598 6.9259865e-06 0)
(0.294387 6.4724603e-06 0)
(0.2943692 6.0616119e-06 0)
(0.29435259 5.6502881e-06 0)
(0.29433714 5.2891493e-06 0)
(0.29432249 4.9687786e-06 0)
(0.29430918 4.6881259e-06 0)
(0.29429569 4.539154e-06 0)
(0.29428502 4.4056649e-06 0)
(0.29426874 5.0572576e-06 0)
(1.0016583 0.05381943 0)
(1.0359761 0.10128443 0)
(1.0597199 0.11073663 0)
(1.0628947 0.10592201 0)
(1.0515569 0.096228725 0)
(1.0340529 0.083934059 0)
(1.0142795 0.070327062 0)
(0.99360703 0.056981334 0)
(0.97292577 0.045107479 0)
(0.9531074 0.03523675 0)
(0.93479539 0.02740165 0)
(0.91829012 0.021387227 0)
(0.90362379 0.016884499 0)
(0.89068068 0.013569709 0)
(0.87928175 0.011147748 0)
(0.86923242 0.0093736585 0)
(0.86034424 0.0080569279 0)
(0.85244667 0.0070571273 0)
(0.84539242 0.0062752387 0)
(0.83905793 0.0056438292 0)
(0.83334126 0.005118092 0)
(0.82815884 0.0046686732 0)
(0.82344212 0.0042764179 0)
(0.81913467 0.0039287387 0)
(0.81518961 0.0036172029 0)
(0.81156765 0.0033359692 0)
(0.80823544 0.0030808029 0)
(0.8051644 0.002848468 0)
(0.80232979 0.0026363689 0)
(0.79970999 0.0024423385 0)
(0.79728597 0.0022645194 0)
(0.79504086 0.0021012908 0)
(0.79295963 0.0019512263 0)
(0.7910288 0.0018130639 0)
(0.78923627 0.0016856838 0)
(0.7875711 0.0015680921 0)
(0.78602338 0.0014594046 0)
(0.78458412 0.0013588344 0)
(0.78324511 0.0012656793 0)
(0.78199889 0.0011793111 0)
(0.78083861 0.0010991674 0)
(0.77975799 0.0010247423 0)
(0.77875128 0.00095558012 0)
(0.77781318 0.00089126959 0)
(0.77693881 0.00083143775 0)
(0.77612368 0.00077574653 0)
(0.77536362 0.00072388776 0)
(0.77465481 0.00067558047 0)
(0.77399368 0.00063056727 0)
(0.77337693 0.00058861125 0)
(0.77280153 0.00054949503 0)
(0.77226464 0.0005130175 0)
(0.77176363 0.00047899298 0)
(0.77129606 0.00044725039 0)
(0.77085967 0.00041763087 0)
(0.77045234 0.00038998905 0)
(0.77007212 0.00036418978 0)
(0.76971717 0.00034010954 0)
(0.76938581 0.0003176328 0)
(0.76907644 0.00029665147 0)
(0.7687876 0.00027706478 0)
(0.76851791 0.00025877789 0)
(0.7682661 0.00024170217 0)
(0.76803096 0.00022575536 0)
(0.76781139 0.00021086083 0)
(0.76760635 0.00019694875 0)
(0.76741488 0.00018395472 0)
(0.76723608 0.00017181932 0)
(0.7670691 0.00016048829 0)
(0.76691315 0.00014990866 0)
(0.76676752 0.00014003119 0)
(0.7666315 0.00013080711 0)
(0.76650446 0.00012219088 0)
(0.76638582 0.00011413927 0)
(0.76627501 0.00010661473 0)
(0.76617152 9.9581473e-05 0)
(0.76607486 9.3011869e-05 0)
(0.76598458 8.6874832e-05 0)
(0.76590026 8.1149324e-05 0)
(0.76582151 7.5803567e-05 0)
(0.76574794 7.0818679e-05 0)
(0.76567924 6.6158205e-05 0)
(0.76561504 6.1808863e-05 0)
(0.76555512 5.7732017e-05 0)
(0.7654991 5.392951e-05 0)
(0.76544684 5.035447e-05 0)
(0.76539796 4.7037801e-05 0)
(0.76535239 4.3921647e-05 0)
(0.7653097 4.1054653e-05 0)
(0.76526997 3.8324699e-05 0)
(0.76523272 3.5845696e-05 0)
(0.76519804 3.3464206e-05 0)
(0.76516555 3.1331703e-05 0)
(0.76513516 2.918854e-05 0)
(0.76510713 2.7362854e-05 0)
(0.76507997 2.5516407e-05 0)
(0.76505663 2.4071398e-05 0)
(0.76503057 2.2555902e-05 0)
(0.76501446 2.1598771e-05 0)
(0.76498346 2.0993997e-05 0)
(1.0014244 0.026824854 0)
(1.0291272 0.06279135 0)
(1.0654292 0.077736549 0)
(1.098962 0.080597196 0)
(1.1253149 0.078285167 0)
(1.145053 0.073153897 0)
(1.1594858 0.066111277 0)
(1.1694287 0.058162063 0)
(1.1755354 0.050296754 0)
(1.1785738 0.043150707 0)
(1.1793571 0.036972824 0)
(1.178595 0.031771631 0)
(1.1768304 0.027451838 0)
(1.1744518 0.023886766 0)
(1.1717287 0.020947618 0)
(1.1688444 0.018515779 0)
(1.1659195 0.016488085 0)
(1.1630317 0.014779503 0)
(1.1602295 0.013322986 0)
(1.1575415 0.012067134 0)
(1.1549828 0.010973002 0)
(1.1525601 0.010011062 0)
(1.1502747 0.0091587472 0)
(1.1481246 0.008398604 0)
(1.1461059 0.0077169499 0)
(1.1442134 0.0071028873 0)
(1.1424414 0.0065475912 0)
(1.1407838 0.0060437951 0)
(1.1392344 0.0055854263 0)
(1.1377869 0.0051673452 0)
(1.1364353 0.0047851579 0)
(1.1351738 0.0044350772 0)
(1.1339968 0.0041138176 0)
(1.1328987 0.0038185133 0)
(1.1318746 0.0035466528 0)
(1.1309195 0.0032960264 0)
(1.1300289 0.0030646821 0)
(1.1291985 0.0028508897 0)
(1.1284242 0.0026531097 0)
(1.1277022 0.0024699685 0)
(1.1270291 0.0023002361 0)
(1.1264014 0.002142808 0)
(1.1258161 0.0019966893 0)
(1.1252702 0.0018609817 0)
(1.1247612 0.0017348716 0)
(1.1242865 0.0016176206 0)
(1.1238437 0.0015085568 0)
(1.1234307 0.0014070671 0)
(1.1230455 0.0013125906 0)
(1.1226861 0.0012246135 0)
(1.1223509 0.0011426641 0)
(1.1220381 0.0010663082 0)
(1.1217462 0.00099514615 0)
(1.1214739 0.00092880949 0)
(1.1212198 0.00086695848 0)
(1.1209827 0.00080927974 0)
(1.1207614 0.00075548421 0)
(1.1205548 0.00070530444 0)
(1.1203621 0.00065849207 0)
(1.1201821 0.00061481616 0)
(1.1200142 0.00057406217 0)
(1.1198574 0.00053603002 0)
(1.1197111 0.00050053374 0)
(1.1195745 0.00046740044 0)
(1.1194469 0.00043647036 0)
(1.1193278 0.00040759521 0)
(1.1192167 0.00038063821 0)
(1.1191129 0.00035547214 0)
(1.119016 0.00033197872 0)
(1.1189255 0.00031004591 0)
(1.118841 0.00028956968 0)
(1.1187621 0.00027044966 0)
(1.1186884 0.0002525948 0)
(1.1186197 0.00023591732 0)
(1.1185554 0.00022034123 0)
(1.1184954 0.00020579097 0)
(1.1184394 0.00019220507 0)
(1.1183871 0.00017951606 0)
(1.1183382 0.0001676748 0)
(1.1182926 0.00015661378 0)
(1.11825 0.00014629473 0)
(1.1182103 0.00013664429 0)
(1.1181731 0.0001276442 0)
(1.1181384 0.00011921133 0)
(1.1181059 0.00011135911 0)
(1.1180757 0.00010398374 0)
(1.1180473 9.7151512e-05 0)
(1.1180211 9.070281e-05 0)
(1.1179962 8.4785067e-05 0)
(1.1179734 7.9129241e-05 0)
(1.1179516 7.4029485e-05 0)
(1.1179318 6.9018928e-05 0)
(1.1179128 6.4663203e-05 0)
(1.1178955 6.014243e-05 0)
(1.117879 5.6561456e-05 0)
(1.1178635 5.2423715e-05 0)
(1.11785 4.9741947e-05 0)
(1.1178349 4.5805237e-05 0)
(1.1178261 4.4319737e-05 0)
(1.1178083 4.057656e-05 0)
(1.0007347 0.011814721 0)
(1.0178472 0.030860924 0)
(1.0462163 0.041434438 0)
(1.0799018 0.045193566 0)
(1.1132664 0.045502348 0)
(1.143782 0.044080305 0)
(1.1708941 0.04143998 0)
(1.1945687 0.037973677 0)
(1.2148582 0.034195728 0)
(1.2319652 0.030536886 0)
(1.2462683 0.027222043 0)
(1.2582339 0.024313918 0)
(1.2683135 0.021797886 0)
(1.2768875 0.019633657 0)
(1.2842554 0.017773824 0)
(1.2906479 0.01616965 0)
(1.296243 0.01477559 0)
(1.3011791 0.013552298 0)
(1.3055645 0.012467865 0)
(1.3094838 0.011497467 0)
(1.3130042 0.010622162 0)
(1.3161792 0.0098275136 0)
(1.3190526 0.009102411 0)
(1.3216607 0.0084381764 0)
(1.3240343 0.0078279035 0)
(1.3261995 0.0072659742 0)
(1.3281786 0.0067477088 0)
(1.3299913 0.0062691171 0)
(1.3316544 0.0058267281 0)
(1.3331829 0.0054174741 0)
(1.3345896 0.0050386131 0)
(1.3358862 0.0046876744 0)
(1.3370827 0.0043624198 0)
(1.3381882 0.0040608145 0)
(1.3392108 0.0037810038 0)
(1.3401576 0.0035212944 0)
(1.3410349 0.003280138 0)
(1.3418486 0.0030561173 0)
(1.3426038 0.0028479342 0)
(1.3433051 0.0026543981 0)
(1.3439569 0.0024744168 0)
(1.3445629 0.0023069869 0)
(1.3451267 0.0021511865 0)
(1.3456513 0.0020061672 0)
(1.3461398 0.0018711479 0)
(1.3465947 0.0017454091 0)
(1.3470185 0.001628287 0)
(1.3474135 0.0015191685 0)
(1.3477816 0.0014174872 0)
(1.3481249 0.0013227193 0)
(1.3484449 0.0012343801 0)
(1.3487435 0.0011520203 0)
(1.349022 0.0010752241 0)
(1.3492818 0.0010036057 0)
(1.3495242 0.00093680812 0)
(1.3497505 0.00087450056 0)
(1.3499616 0.00081637582 0)
(1.3501587 0.0007621485 0)
(1.3503427 0.00071155276 0)
(1.3505145 0.00066434123 0)
(1.3506748 0.00062028392 0)
(1.3508245 0.00057916647 0)
(1.3509643 0.00054078987 0)
(1.3510948 0.00050496862 0)
(1.3512167 0.00047153103 0)
(1.3513305 0.00044031731 0)
(1.3514368 0.00041117937 0)
(1.3515361 0.00038397838 0)
(1.3516288 0.00035858571 0)
(1.3517153 0.00033487922 0)
(1.3517962 0.00031274605 0)
(1.3518717 0.00029207845 0)
(1.3519422 0.00027277968 0)
(1.3520081 0.00025475575 0)
(1.3520696 0.00023792627 0)
(1.3521271 0.00022220828 0)
(1.3521807 0.00020753537 0)
(1.3522309 0.00019383069 0)
(1.3522777 0.00018104146 0)
(1.3523215 0.00016909057 0)
(1.3523623 0.00015794094 0)
(1.3524005 0.00014750976 0)
(1.352436 0.0001377879 0)
(1.3524695 0.00012867437 0)
(1.3525004 0.00012020354 0)
(1.3525296 0.00011224002 0)
(1.3525565 0.00010488256 0)
(1.3525823 9.7898873e-05 0)
(1.3526054 9.1530565e-05 0)
(1.3526281 8.5398505e-05 0)
(1.3526479 7.9932426e-05 0)
(1.3526685 7.4428338e-05 0)
(1.352685 6.9804422e-05 0)
(1.3527035 6.4831918e-05 0)
(1.352717 6.1123441e-05 0)
(1.352735 5.6440447e-05 0)
(1.3527447 5.3739177e-05 0)
(1.3527627 4.9139071e-05 0)
(1.3527683 4.7701208e-05 0)
(1.3527889 4.2957614e-05 0)
(1.0005903 0.0034629152 0)
(1.0136865 0.009366018 0)
(1.0370283 0.013046804 0)
(1.0674202 0.014563259 0)
(1.1000315 0.014854523 0)
(1.1316428 0.014564989 0)
(1.1610745 0.013888337 0)
(1.1880674 0.012919244 0)
(1.2125205 0.011806505 0)
(1.2343939 0.010696425 0)
(1.2538077 0.0096727404 0)
(1.2710339 0.00876282 0)
(1.286401 0.0079659714 0)
(1.3002111 0.0072722124 0)
(1.3127102 0.0066688069 0)
(1.3240903 0.0061419242 0)
(1.3345036 0.0056780718 0)
(1.3440716 0.0052653211 0)
(1.3528927 0.0048939355 0)
(1.3610463 0.0045563963 0)
(1.3685975 0.0042470701 0)
(1.3756004 0.003961776 0)
(1.3821012 0.0036973975 0)
(1.3881402 0.0034515823 0)
(1.3937533 0.0032225184 0)
(1.3989728 0.0030087699 0)
(1.403828 0.0028091581 0)
(1.4083456 0.0026226795 0)
(1.4125503 0.0024484501 0)
(1.4164646 0.0022856713 0)
(1.4201094 0.002133608 0)
(1.423504 0.0019915765 0)
(1.426666 0.0018589364 0)
(1.4296121 0.0017350857 0)
(1.4323573 0.0016194582 0)
(1.4349159 0.0015115212 0)
(1.4373007 0.001410773 0)
(1.4395241 0.0013167424 0)
(1.441597 0.0012289869 0)
(1.4435301 0.0011470914 0)
(1.4453328 0.0010706673 0)
(1.4470143 0.0009993505 0)
(1.4485827 0.00093280076 0)
(1.4500459 0.0008706998 0)
(1.451411 0.00081275033 0)
(1.4526846 0.00075867467 0)
(1.4538731 0.00070821342 0)
(1.4549822 0.00066112421 0)
(1.4560172 0.00061718091 0)
(1.4569831 0.00057617245 0)
(1.4578847 0.00053790139 0)
(1.4587262 0.00050218392 0)
(1.4595117 0.0004688484 0)
(1.460245 0.00043773512 0)
(1.4609295 0.00040869544 0)
(1.4615685 0.00038159106 0)
(1.4621651 0.00035629273 0)
(1.4627221 0.00033267916 0)
(1.4632422 0.00031063734 0)
(1.4637278 0.00029006162 0)
(1.4641811 0.00027085321 0)
(1.4646045 0.00025292069 0)
(1.4649998 0.00023617881 0)
(1.4653689 0.00022054824 0)
(1.4657136 0.00020595516 0)
(1.4660355 0.00019233094 0)
(1.4663361 0.00017961165 0)
(1.4666168 0.00016773674 0)
(1.466879 0.00015665003 0)
(1.4671238 0.00014629806 0)
(1.4673524 0.00013663121 0)
(1.467566 0.00012760273 0)
(1.4677654 0.00011917118 0)
(1.4679516 0.00011129635 0)
(1.4681256 0.00010394395 0)
(1.468288 9.7078161e-05 0)
(1.4684397 9.0670346e-05 0)
(1.4685815 8.4685287e-05 0)
(1.4687138 7.9099871e-05 0)
(1.4688375 7.3878006e-05 0)
(1.4689529 6.9005322e-05 0)
(1.4690608 6.4444426e-05 0)
(1.4691614 6.0195514e-05 0)
(1.4692557 5.6210216e-05 0)
(1.4693433 5.2513541e-05 0)
(1.4694257 4.9035827e-05 0)
(1.4695019 4.582642e-05 0)
(1.4695742 4.2769037e-05 0)
(1.4696402 3.9999578e-05 0)
(1.4697037 3.7311825e-05 0)
(1.4697605 3.4923988e-05 0)
(1.4698173 3.2492073e-05 0)
(1.4698654 3.0497285e-05 0)
(1.4699165 2.8309514e-05 0)
(1.4699559 2.6725558e-05 0)
(1.4700047 2.4638204e-05 0)
(1.4700342 2.3490284e-05 0)
(1.470083 2.141901e-05 0)
(1.4701 2.0808429e-05 0)
(1.4701556 1.8649583e-05 0)
(1.0005903 -0.0034629162 0)
(1.0136865 -0.0093660206 0)
(1.0370283 -0.013046807 0)
(1.0674202 -0.014563262 0)
(1.1000315 -0.014854525 0)
(1.1316428 -0.014564991 0)
(1.1610745 -0.013888338 0)
(1.1880674 -0.012919246 0)
(1.2125205 -0.011806507 0)
(1.2343939 -0.010696428 0)
(1.2538077 -0.0096727436 0)
(1.2710339 -0.0087628234 0)
(1.286401 -0.0079659748 0)
(1.3002111 -0.0072722156 0)
(1.3127102 -0.0066688093 0)
(1.3240903 -0.0061419258 0)
(1.3345036 -0.0056780726 0)
(1.3440716 -0.0052653212 0)
(1.3528927 -0.004893935 0)
(1.3610463 -0.0045563956 0)
(1.3685975 -0.0042470696 0)
(1.3756004 -0.0039617758 0)
(1.3821012 -0.0036973977 0)
(1.3881402 -0.0034515827 0)
(1.3937533 -0.0032225187 0)
(1.3989728 -0.0030087699 0)
(1.403828 -0.0028091579 0)
(1.4083456 -0.0026226789 0)
(1.4125503 -0.002448449 0)
(1.4164646 -0.0022856698 0)
(1.4201094 -0.0021336065 0)
(1.423504 -0.0019915754 0)
(1.426666 -0.0018589359 0)
(1.4296121 -0.0017350861 0)
(1.4323573 -0.0016194592 0)
(1.4349159 -0.0015115222 0)
(1.4373007 -0.0014107735 0)
(1.4395241 -0.0013167421 0)
(1.441597 -0.0012289858 0)
(1.4435301 -0.0011470897 0)
(1.4453329 -0.0010706654 0)
(1.4470143 -0.00099934907 0)
(1.4485827 -0.00093280003 0)
(1.4500459 -0.00087069996 0)
(1.451411 -0.00081275127 0)
(1.4526846 -0.00075867599 0)
(1.4538731 -0.00070821455 0)
(1.4549822 -0.00066112472 0)
(1.4560172 -0.00061718028 0)
(1.4569831 -0.00057617036 0)
(1.4578847 -0.00053789851 0)
(1.4587262 -0.0005021812 0)
(1.4595117 -0.00046884692 0)
(1.460245 -0.00043773555 0)
(1.4609295 -0.0004086976 0)
(1.4615685 -0.00038159378 0)
(1.4621651 -0.0003562944 0)
(1.4627221 -0.00033267905 0)
(1.4632422 -0.0003106351 0)
(1.4637278 -0.00029005761 0)
(1.4641812 -0.00027084888 0)
(1.4646045 -0.00025291746 0)
(1.4649998 -0.00023617758 0)
(1.4653689 -0.00022054919 0)
(1.4657136 -0.00020595803 0)
(1.4660355 -0.00019233447 0)
(1.4663361 -0.00017961393 0)
(1.4666168 -0.00016773649 0)
(1.466879 -0.00015664669 0)
(1.4671238 -0.00014629221 0)
(1.4673524 -0.00013662511 0)
(1.467566 -0.00012759875 0)
(1.4677654 -0.00011917092 0)
(1.4679516 -0.00011129987 0)
(1.4681256 -0.0001039499 0)
(1.468288 -9.708359e-05 0)
(1.4684397 -9.067211e-05 0)
(1.4685815 -8.4682241e-05 0)
(1.4687138 -7.909295e-05 0)
(1.4688375 -7.3870375e-05 0)
(1.4689529 -6.9000584e-05 0)
(1.4690608 -6.4444357e-05 0)
(1.4691614 -6.0200203e-05 0)
(1.4692557 -5.6218342e-05 0)
(1.4693433 -5.2518392e-05 0)
(1.4694257 -4.9034835e-05 0)
(1.4695019 -4.5823164e-05 0)
(1.4695742 -4.2763399e-05 0)
(1.4696402 -3.9984017e-05 0)
(1.4697037 -3.7296741e-05 0)
(1.4697605 -3.4932326e-05 0)
(1.4698173 -3.2517253e-05 0)
(1.4698654 -3.0510845e-05 0)
(1.4699164 -2.8299578e-05 0)
(1.469956 -2.6707486e-05 0)
(1.4700047 -2.462813e-05 0)
(1.4700341 -2.3490901e-05 0)
(1.470083 -2.1429157e-05 0)
(1.4701 -2.0823498e-05 0)
(1.4701557 -1.8662407e-05 0)
(1.0007347 -0.011814722 0)
(1.0178472 -0.030860927 0)
(1.0462163 -0.041434442 0)
(1.0799018 -0.04519357 0)
(1.1132664 -0.045502351 0)
(1.143782 -0.044080308 0)
(1.1708941 -0.041439982 0)
(1.1945687 -0.037973678 0)
(1.2148582 -0.03419573 0)
(1.2319652 -0.030536888 0)
(1.2462683 -0.027222046 0)
(1.2582339 -0.024313921 0)
(1.2683135 -0.021797889 0)
(1.2768875 -0.01963366 0)
(1.2842554 -0.017773826 0)
(1.2906479 -0.016169652 0)
(1.296243 -0.01477559 0)
(1.3011791 -0.013552298 0)
(1.3055645 -0.012467864 0)
(1.3094838 -0.011497466 0)
(1.3130042 -0.010622162 0)
(1.3161792 -0.0098275132 0)
(1.3190526 -0.009102411 0)
(1.3216607 -0.0084381767 0)
(1.3240343 -0.0078279038 0)
(1.3261995 -0.0072659744 0)
(1.3281786 -0.0067477086 0)
(1.3299913 -0.0062691165 0)
(1.3316544 -0.005826727 0)
(1.3331829 -0.0054174728 0)
(1.3345896 -0.0050386118 0)
(1.3358862 -0.0046876734 0)
(1.3370827 -0.0043624195 0)
(1.3381882 -0.0040608148 0)
(1.3392108 -0.0037810046 0)
(1.3401576 -0.0035212952 0)
(1.3410349 -0.0032801385 0)
(1.3418486 -0.0030561173 0)
(1.3426038 -0.0028479335 0)
(1.3433051 -0.0026543968 0)
(1.3439569 -0.0024744152 0)
(1.3445629 -0.0023069855 0)
(1.3451267 -0.0021511856 0)
(1.3456513 -0.0020061671 0)
(1.3461398 -0.0018711486 0)
(1.3465947 -0.0017454104 0)
(1.3470185 -0.0016282882 0)
(1.3474135 -0.0015191691 0)
(1.3477816 -0.0014174869 0)
(1.3481249 -0.001322718 0)
(1.3484449 -0.0012343781 0)
(1.3487435 -0.0011520183 0)
(1.349022 -0.0010752227 0)
(1.3492818 -0.0010036055 0)
(1.3495242 -0.00093680915 0)
(1.3497505 -0.00087450216 0)
(1.3499616 -0.00081637733 0)
(1.3501587 -0.00076214903 0)
(1.3503427 -0.00071155189 0)
(1.3505145 -0.00066433902 0)
(1.3506748 -0.00062028087 0)
(1.3508245 -0.00057916352 0)
(1.3509643 -0.0005407879 0)
(1.3510948 -0.0005049684 0)
(1.3512167 -0.00047153257 0)
(1.3513305 -0.00044031987 0)
(1.3514368 -0.00041118176 0)
(1.3515361 -0.00038397938 0)
(1.3516288 -0.00035858461 0)
(1.3517153 -0.00033487619 0)
(1.3517962 -0.0003127422 0)
(1.3518717 -0.00029207529 0)
(1.3519422 -0.00027277836 0)
(1.3520081 -0.00025475699 0)
(1.3520696 -0.00023792918 0)
(1.3521271 -0.00022221154 0)
(1.3521807 -0.0002075376 0)
(1.3522309 -0.0001938308 0)
(1.3522777 -0.00018103948 0)
(1.3523215 -0.0001690872 0)
(1.3523623 -0.00015793765 0)
(1.3524005 -0.00014750797 0)
(1.352436 -0.00013778828 0)
(1.3524695 -0.00012867621 0)
(1.3525004 -0.00012020671 0)
(1.3525296 -0.00011224255 0)
(1.3525565 -0.00010488203 0)
(1.3525822 -9.7894618e-05 0)
(1.3526054 -9.1527029e-05 0)
(1.3526281 -8.5396143e-05 0)
(1.3526479 -7.9930455e-05 0)
(1.3526684 -7.4429742e-05 0)
(1.352685 -6.9805305e-05 0)
(1.3527036 -6.4829387e-05 0)
(1.352717 -6.1122396e-05 0)
(1.3527349 -5.6444179e-05 0)
(1.3527446 -5.3744019e-05 0)
(1.3527628 -4.9142844e-05 0)
(1.3527683 -4.7704801e-05 0)
(1.3527888 -4.2960179e-05 0)
(1.0014244 -0.026824855 0)
(1.0291272 -0.062791352 0)
(1.0654292 -0.077736552 0)
(1.098962 -0.0805972 0)
(1.1253149 -0.07828517 0)
(1.145053 -0.073153899 0)
(1.1594858 -0.066111278 0)
(1.1694287 -0.058162063 0)
(1.1755354 -0.050296754 0)
(1.1785738 -0.043150708 0)
(1.1793571 -0.036972825 0)
(1.1785949 -0.031771633 0)
(1.1768304 -0.02745184 0)
(1.1744518 -0.023886768 0)
(1.1717287 -0.02094762 0)
(1.1688444 -0.01851578 0)
(1.1659195 -0.016488084 0)
(1.1630317 -0.014779502 0)
(1.1602295 -0.013322985 0)
(1.1575415 -0.012067132 0)
(1.1549828 -0.010973001 0)
(1.1525601 -0.010011062 0)
(1.1502747 -0.0091587471 0)
(1.1481246 -0.0083986043 0)
(1.1461059 -0.0077169503 0)
(1.1442134 -0.0071028877 0)
(1.1424414 -0.0065475912 0)
(1.1407838 -0.0060437946 0)
(1.1392344 -0.0055854255 0)
(1.1377869 -0.0051673444 0)
(1.1364353 -0.0047851571 0)
(1.1351738 -0.0044350765 0)
(1.1339968 -0.0041138173 0)
(1.1328987 -0.0038185133 0)
(1.1318746 -0.0035466531 0)
(1.1309195 -0.003296027 0)
(1.1300289 -0.0030646829 0)
(1.1291985 -0.0028508901 0)
(1.1284242 -0.0026531096 0)
(1.1277022 -0.0024699679 0)
(1.1270291 -0.0023002351 0)
(1.1264014 -0.0021428067 0)
(1.1258161 -0.0019966883 0)
(1.1252702 -0.0018609813 0)
(1.1247612 -0.001734872 0)
(1.1242865 -0.0016176216 0)
(1.1238437 -0.001508558 0)
(1.1234307 -0.0014070679 0)
(1.1230455 -0.0013125908 0)
(1.1226861 -0.0012246133 0)
(1.1223509 -0.0011426633 0)
(1.1220381 -0.001066307 0)
(1.1217462 -0.00099514484 0)
(1.1214739 -0.00092880836 0)
(1.1212198 -0.00086695791 0)
(1.1209827 -0.0008092802 0)
(1.1207614 -0.00075548576 0)
(1.1205548 -0.00070530619 0)
(1.1203621 -0.00065849316 0)
(1.1201821 -0.00061481626 0)
(1.1200142 -0.0005740609 0)
(1.1198574 -0.00053602756 0)
(1.1197111 -0.00050053099 0)
(1.1195745 -0.00046739859 0)
(1.1194469 -0.00043646985 0)
(1.1193278 -0.00040759614 0)
(1.1192167 -0.00038064042 0)
(1.1191129 -0.00035547464 0)
(1.119016 -0.00033198057 0)
(1.1189255 -0.00031004664 0)
(1.118841 -0.00028956863 0)
(1.1187621 -0.00027044709 0)
(1.1186884 -0.00025259165 0)
(1.1186197 -0.00023591472 0)
(1.1185554 -0.00022034013 0)
(1.1184954 -0.00020579201 0)
(1.1184394 -0.00019220859 0)
(1.1183871 -0.00017952079 0)
(1.1183383 -0.00016767887 0)
(1.1182927 -0.00015661515 0)
(1.11825 -0.00014629243 0)
(1.1182103 -0.00013663939 0)
(1.1181731 -0.0001276382 0)
(1.1181384 -0.00011920619 0)
(1.1181059 -0.00011135933 0)
(1.1180757 -0.00010398894 0)
(1.1180473 -9.715568e-05 0)
(1.1180211 -9.0704453e-05 0)
(1.1179963 -8.479113e-05 0)
(1.1179734 -7.9137528e-05 0)
(1.1179516 -7.4020093e-05 0)
(1.1179318 -6.8990391e-05 0)
(1.1179128 -6.4647887e-05 0)
(1.1178955 -6.0158119e-05 0)
(1.117879 -5.6584659e-05 0)
(1.1178635 -5.2430896e-05 0)
(1.11785 -4.9736607e-05 0)
(1.1178349 -4.5800091e-05 0)
(1.1178261 -4.4313573e-05 0)
(1.1178083 -4.057028e-05 0)
(1.0016583 -0.05381943 0)
(1.0359761 -0.10128444 0)
(1.0597199 -0.11073663 0)
(1.0628947 -0.10592202 0)
(1.0515569 -0.096228728 0)
(1.0340529 -0.083934061 0)
(1.0142795 -0.070327063 0)
(0.99360703 -0.056981334 0)
(0.97292577 -0.045107479 0)
(0.9531074 -0.03523675 0)
(0.93479538 -0.02740165 0)
(0.91829012 -0.021387228 0)
(0.90362379 -0.0168845 0)
(0.89068067 -0.01356971 0)
(0.87928174 -0.011147749 0)
(0.86923242 -0.0093736587 0)
(0.86034423 -0.0080569275 0)
(0.85244667 -0.0070571267 0)
(0.84539241 -0.006275238 0)
(0.83905793 -0.0056438286 0)
(0.83334126 -0.0051180913 0)
(0.82815884 -0.0046686727 0)
(0.82344212 -0.0042764175 0)
(0.81913467 -0.0039287385 0)
(0.81518962 -0.0036172029 0)
(0.81156765 -0.0033359696 0)
(0.80823544 -0.0030808031 0)
(0.8051644 -0.0028484682 0)
(0.80232979 -0.0026363688 0)
(0.79970999 -0.0024423384 0)
(0.79728597 -0.002264519 0)
(0.79504086 -0.0021012902 0)
(0.79295963 -0.0019512257 0)
(0.7910288 -0.0018130632 0)
(0.78923627 -0.0016856835 0)
(0.7875711 -0.0015680923 0)
(0.78602338 -0.0014594054 0)
(0.78458412 -0.0013588354 0)
(0.78324511 -0.0012656801 0)
(0.78199889 -0.0011793116 0)
(0.78083861 -0.0010991672 0)
(0.77975799 -0.0010247414 0)
(0.77875128 -0.00095557901 0)
(0.77781318 -0.00089126848 0)
(0.77693881 -0.00083143714 0)
(0.77612368 -0.00077574654 0)
(0.77536362 -0.00072388842 0)
(0.77465481 -0.00067558154 0)
(0.77399368 -0.00063056848 0)
(0.77337694 -0.00058861256 0)
(0.77280153 -0.00054949576 0)
(0.77226464 -0.00051301724 0)
(0.77176363 -0.00047899174 0)
(0.77129606 -0.00044724813 0)
(0.77085967 -0.0004176287 0)
(0.77045234 -0.00038998787 0)
(0.77007212 -0.00036419061 0)
(0.76971717 -0.00034011181 0)
(0.76938581 -0.00031763562 0)
(0.76907645 -0.000296654 0)
(0.7687876 -0.00027706587 0)
(0.76851791 -0.00025877694 0)
(0.76826609 -0.0002416996 0)
(0.76803096 -0.00022575184 0)
(0.76781139 -0.00021085768 0)
(0.76760635 -0.00019694707 0)
(0.76741489 -0.00018395544 0)
(0.76723608 -0.00017182265 0)
(0.7670691 -0.00016049299 0)
(0.76691316 -0.00014991328 0)
(0.76676752 -0.00014003364 0)
(0.7666315 -0.00013080597 0)
(0.76650446 -0.00012218661 0)
(0.76638582 -0.00011413321 0)
(0.76627501 -0.00010660948 0)
(0.76617152 -9.9579657e-05 0)
(0.76607486 -9.3014639e-05 0)
(0.76598459 -8.6881952e-05 0)
(0.76590026 -8.1157767e-05 0)
(0.76582151 -7.5809515e-05 0)
(0.76574794 -7.0819249e-05 0)
(0.76567924 -6.6152836e-05 0)
(0.76561504 -6.1799653e-05 0)
(0.76555512 -5.7721928e-05 0)
(0.76549911 -5.3925058e-05 0)
(0.76544685 -5.0357667e-05 0)
(0.76539796 -4.7043656e-05 0)
(0.7653524 -4.392996e-05 0)
(0.76530971 -4.1069465e-05 0)
(0.76526996 -3.8333098e-05 0)
(0.7652327 -3.5828849e-05 0)
(0.76519805 -3.3433215e-05 0)
(0.76516559 -3.1318313e-05 0)
(0.76513517 -2.9203812e-05 0)
(0.76510711 -2.7385367e-05 0)
(0.76507997 -2.5523853e-05 0)
(0.76505665 -2.406354e-05 0)
(0.76503057 -2.2545264e-05 0)
(0.76501445 -2.1588415e-05 0)
(0.76498347 -2.0985613e-05 0)
(0.91890839 -0.035821913 0)
(0.86271384 -0.062195638 0)
(0.7870597 -0.06251009 0)
(0.69536033 -0.054550395 0)
(0.61089745 -0.044531651 0)
(0.54411592 -0.034015972 0)
(0.49343012 -0.02418754 0)
(0.45479413 -0.01614423 0)
(0.42544582 -0.010265785 0)
(0.40347313 -0.006304145 0)
(0.38715766 -0.0037976294 0)
(0.3749622 -0.0023103384 0)
(0.36566192 -0.0014930154 0)
(0.35836272 -0.0010851186 0)
(0.35244268 -0.00090607232 0)
(0.34748201 -0.00084105136 0)
(0.34320348 -0.00082372362 0)
(0.33942726 -0.00081931006 0)
(0.33603793 -0.00081185198 0)
(0.33296114 -0.00079580151 0)
(0.33014778 -0.0007708119 0)
(0.32756384 -0.00073870989 0)
(0.3251842 -0.0007018895 0)
(0.32298902 -0.00066256559 0)
(0.32096172 -0.00062249927 0)
(0.31908785 -0.00058295702 0)
(0.31735449 -0.00054477114 0)
(0.31574995 -0.00050843389 0)
(0.3142636 -0.00047419164 0)
(0.31288574 -0.0004421249 0)
(0.31160755 -0.00041220985 0)
(0.31042101 -0.00038436199 0)
(0.30931883 -0.00035846513 0)
(0.30829438 -0.00033439018 0)
(0.30734165 -0.00031200631 0)
(0.30645515 -0.00029118712 0)
(0.30562991 -0.00027181378 0)
(0.30486136 -0.00025377645 0)
(0.30414535 -0.00023697435 0)
(0.30347807 -0.00022131519 0)
(0.30285601 -0.00020671475 0)
(0.30227596 -0.00019309614 0)
(0.30173496 -0.000180389 0)
(0.30123029 -0.0001685289 0)
(0.30075942 -0.00015745673 0)
(0.30032002 -0.00014711814 0)
(0.29990993 -0.00013746303 0)
(0.29952715 -0.0001284452 0)
(0.29916983 -0.00012002177 0)
(0.29883624 -0.00011215264 0)
(0.29852478 -0.00010480049 0)
(0.29823397 -9.793069e-05 0)
(0.29796241 -9.1511028e-05 0)
(0.29770882 -8.5511615e-05 0)
(0.29747201 -7.9904874e-05 0)
(0.29725084 -7.4665213e-05 0)
(0.29704429 -6.9768636e-05 0)
(0.29685138 -6.5192877e-05 0)
(0.2966712 -6.0917222e-05 0)
(0.29650291 -5.6921958e-05 0)
(0.29634572 -5.3188418e-05 0)
(0.2961989 -4.9699204e-05 0)
(0.29606176 -4.643807e-05 0)
(0.29593366 -4.3389734e-05 0)
(0.29581401 -4.0540312e-05 0)
(0.29570224 -3.7877209e-05 0)
(0.29559784 -3.5388688e-05 0)
(0.29550032 -3.3063764e-05 0)
(0.29540922 -3.0892106e-05 0)
(0.29532413 -2.8863475e-05 0)
(0.29524464 -2.69682e-05 0)
(0.29517039 -2.5196949e-05 0)
(0.29510103 -2.3541284e-05 0)
(0.29503624 -2.1993141e-05 0)
(0.29497573 -2.0546042e-05 0)
(0.29491919 -1.919353e-05 0)
(0.29486638 -1.793041e-05 0)
(0.29481705 -1.6750491e-05 0)
(0.29477097 -1.5649411e-05 0)
(0.29472793 -1.4620418e-05 0)
(0.29468771 -1.3660317e-05 0)
(0.29465016 -1.276195e-05 0)
(0.29461507 -1.1923634e-05 0)
(0.2945823 -1.1137395e-05 0)
(0.29455168 -1.0405394e-05 0)
(0.29452309 -9.7161609e-06 0)
(0.29449637 -9.0771081e-06 0)
(0.29447142 -8.4790635e-06 0)
(0.29444808 -7.9301309e-06 0)
(0.29442632 -7.3961028e-06 0)
(0.29440599 -6.9096737e-06 0)
(0.294387 -6.4601421e-06 0)
(0.2943692 -6.0627241e-06 0)
(0.29435259 -5.6565421e-06 0)
(0.29433715 -5.2937069e-06 0)
(0.2943225 -4.971674e-06 0)
(0.29430919 -4.6857873e-06 0)
(0.29429569 -4.5324778e-06 0)
(0.29428502 -4.4003535e-06 0)
(0.29426875 -5.0537319e-06 0)
)
;

boundaryField
{
    top
    {
        type            fixedValue;
        value           uniform (0 0 0);
    }
    inlet
    {
        type            fixedValue;
        value           uniform (1 0 0);
    }
    outlet
    {
        type            zeroGradient;
    }
    bottom
    {
        type            fixedValue;
        value           uniform (0 0 0);
    }
    back
    {
        type            empty;
    }
    front
    {
        type            empty;
    }
}


// ************************************************************************* //
