/*--------------------------------*- C++ -*----------------------------------*\
| =========                 |                                                 |
| \\      /  F ield         | OpenFOAM: The Open Source CFD Toolbox           |
|  \\    /   O peration     | Version:  v1812                                 |
|   \\  /    A nd           | Web:      www.OpenFOAM.com                      |
|    \\/     M anipulation  |                                                 |
\*---------------------------------------------------------------------------*/
FoamFile
{
    version     2.0;
    format      ascii;
    class       volVectorField;
    location    "20";
    object      U;
}
// * * * * * * * * * * * * * * * * * * * * * * * * * * * * * * * * * * * * * //

dimensions      [0 1 -1 0 0 0 0];


internalField   nonuniform List<vector> 
1000
(
(0.9223216 0.034640576 0)
(0.87040468 0.058765146 0)
(0.7862492 0.056241701 0)
(0.69197584 0.045999824 0)
(0.61207594 0.035902647 0)
(0.54602507 0.027257095 0)
(0.49050657 0.019909035 0)
(0.44592832 0.013881575 0)
(0.4125818 0.0093124681 0)
(0.38866417 0.0061153074 0)
(0.37153383 0.0040068443 0)
(0.35905903 0.0026900182 0)
(0.34993655 0.0018745492 0)
(0.34343149 0.001334738 0)
(0.33905185 0.00093869151 0)
(0.33635873 0.00062714582 0)
(0.33491571 0.00038133608 0)
(0.33431768 0.00019714893 0)
(0.33422923 7.079433e-05 0)
(0.33440301 -5.8237452e-06 0)
(0.33467608 -4.4304083e-05 0)
(0.33495388 -5.6951557e-05 0)
(0.33519092 -5.4382684e-05 0)
(0.33537276 -4.4562862e-05 0)
(0.33550165 -3.2744813e-05 0)
(0.335587 -2.1880775e-05 0)
(0.33563991 -1.3246061e-05 0)
(0.33567042 -7.0727855e-06 0)
(0.33568649 -3.0525616e-06 0)
(0.33569386 -6.8041949e-07 0)
(0.33569638 5.5232376e-07 0)
(0.33569644 1.0655814e-06 0)
(0.33569545 1.1685276e-06 0)
(0.33569417 1.0662117e-06 0)
(0.33569296 8.8451074e-07 0)
(0.33569196 6.9147748e-07 0)
(0.33569119 5.2029521e-07 0)
(0.33569063 3.816713e-07 0)
(0.33569024 2.7653632e-07 0)
(0.33568997 1.9954663e-07 0)
(0.33568979 1.452778e-07 0)
(0.33568968 1.0727882e-07 0)
(0.3356896 8.1423674e-08 0)
(0.33568955 6.3331664e-08 0)
(0.33568952 5.0997711e-08 0)
(0.3356895 4.1910438e-08 0)
(0.33568948 3.5510102e-08 0)
(0.33568947 3.0287135e-08 0)
(0.33568946 2.638558e-08 0)
(0.33568946 2.2825068e-08 0)
(0.33568945 2.0092801e-08 0)
(0.33568945 1.7372718e-08 0)
(0.33568944 1.5257144e-08 0)
(0.33568944 1.3044351e-08 0)
(0.33568944 1.1396356e-08 0)
(0.33568943 9.5940105e-09 0)
(0.33568943 8.2891751e-09 0)
(0.33568943 6.8038152e-09 0)
(0.33568943 5.8173285e-09 0)
(0.33568942 4.6113097e-09 0)
(0.33568942 3.8473252e-09 0)
(0.33568942 2.8441802e-09 0)
(0.33568942 2.3260619e-09 0)
(0.33568942 1.5328504e-09 0)
(0.33568941 1.3741709e-09 0)
(0.33568941 7.4154769e-10 0)
(0.33568941 1.6233135e-09 0)
(0.33568941 4.1629898e-10 0)
(0.3356894 4.8555617e-09 0)
(0.33568942 -2.1120277e-09 0)
(0.33568938 1.775788e-08 0)
(0.33568946 -2.1383991e-08 0)
(0.33568926 6.9265944e-08 0)
(0.33568964 -1.2011839e-07 0)
(0.3356888 2.8020484e-07 0)
(0.33569049 -5.3130439e-07 0)
(0.33568709 1.0861145e-06 0)
(0.33569363 -2.0058687e-06 0)
(0.33568138 3.7728295e-06 0)
(0.33570341 -6.4950637e-06 0)
(0.33566521 1.1184731e-05 0)
(0.33572781 -1.7441136e-05 0)
(0.33562979 2.6733733e-05 0)
(0.33577164 -3.6094678e-05 0)
(0.3355802 4.6388885e-05 0)
(0.33580815 -4.8176465e-05 0)
(0.33557265 4.2468997e-05 0)
(0.33574689 -1.2480868e-05 0)
(0.33570465 -2.5465406e-05 0)
(0.33552746 8.6196007e-05 0)
(0.33589844 -0.00010456922 0)
(0.33540405 0.00010929973 0)
(0.3357148 5.0023364e-06 0)
(0.33569017 -6.8570006e-05 0)
(0.33524337 0.00018153296 0)
(0.33543626 1.4044054e-05 0)
(0.33575283 -0.00022228158 0)
(0.33402725 0.00036256478 0)
(0.33609305 -0.0010646753 0)
(0.33576491 -0.0017247373 0)
(1.0032061 0.055359191 0)
(1.0464444 0.10131937 0)
(1.0647804 0.11048261 0)
(1.0627971 0.10732007 0)
(1.0537069 0.099561581 0)
(1.0384155 0.089824975 0)
(1.0165648 0.07911562 0)
(0.99081583 0.067793148 0)
(0.96474527 0.056271037 0)
(0.94101392 0.045105577 0)
(0.92101479 0.034872932 0)
(0.90518648 0.025965677 0)
(0.89342921 0.018534375 0)
(0.88529782 0.01257621 0)
(0.88013803 0.0080047207 0)
(0.87721649 0.0046745327 0)
(0.87583379 0.0023951881 0)
(0.87540437 0.00095018929 0)
(0.87549167 0.00012187863 0)
(0.87580451 -0.00028536098 0)
(0.87617039 -0.0004302667 0)
(0.87650175 -0.00042988941 0)
(0.87676498 -0.0003625523 0)
(0.87695663 -0.00027544733 0)
(0.87708712 -0.00019341572 0)
(0.87717106 -0.00012684203 0)
(0.87722226 -7.7804016e-05 0)
(0.87725185 -4.4314893e-05 0)
(0.87726797 -2.2938255e-05 0)
(0.87727611 -1.018975e-05 0)
(0.8772798 -3.158997e-06 0)
(0.87728116 3.2890716e-07 0)
(0.8772814 1.7685436e-06 0)
(0.87728118 2.1205698e-06 0)
(0.87728082 1.9601809e-06 0)
(0.87728048 1.609902e-06 0)
(0.8772802 1.2323768e-06 0)
(0.87727999 9.0052602e-07 0)
(0.87727984 6.3610593e-07 0)
(0.87727975 4.3903359e-07 0)
(0.87727969 2.9776393e-07 0)
(0.87727966 2.0048497e-07 0)
(0.87727964 1.3449159e-07 0)
(0.87727963 9.126575e-08 0)
(0.87727963 6.2692101e-08 0)
(0.87727964 4.4667641e-08 0)
(0.87727964 3.2667957e-08 0)
(0.87727965 2.5307915e-08 0)
(0.87727966 2.0034044e-08 0)
(0.87727966 1.6872201e-08 0)
(0.87727967 1.41737e-08 0)
(0.87727967 1.2549372e-08 0)
(0.87727968 1.0737226e-08 0)
(0.87727968 9.6378135e-09 0)
(0.87727968 8.1264868e-09 0)
(0.87727969 7.1730357e-09 0)
(0.87727969 5.6973407e-09 0)
(0.87727969 4.7356045e-09 0)
(0.87727969 3.1999528e-09 0)
(0.87727969 2.1041727e-09 0)
(0.8772797 3.562121e-10 0)
(0.8772797 -1.0008834e-09 0)
(0.8772797 -3.0114684e-09 0)
(0.8772797 -4.7507535e-09 0)
(0.8772797 -6.8651004e-09 0)
(0.8772797 -9.1684491e-09 0)
(0.8772797 -1.017731e-08 0)
(0.87727972 -1.4543205e-08 0)
(0.8772797 -9.2031113e-09 0)
(0.87727975 -2.5283662e-08 0)
(0.87727965 1.0660643e-08 0)
(0.87727989 -6.7865133e-08 0)
(0.87727938 1.0933728e-07 0)
(0.87728049 -2.6323123e-07 0)
(0.87727816 5.2890266e-07 0)
(0.87728294 -1.0776082e-06 0)
(0.8772734 2.1454526e-06 0)
(0.87729192 -4.0533712e-06 0)
(0.87725714 7.6329311e-06 0)
(0.87732023 -1.3377262e-05 0)
(0.8772103 2.3358889e-05 0)
(0.87739344 -3.7318953e-05 0)
(0.87710349 5.8958919e-05 0)
(0.8775352 -8.3053106e-05 0)
(0.87693679 0.00011378422 0)
(0.87769193 -0.0001309157 0)
(0.87684906 0.00014022336 0)
(0.87762044 -9.6088508e-05 0)
(0.87715154 3.3973881e-05 0)
(0.87705762 0.00011209985 0)
(0.87783133 -0.00018846865 0)
(0.87650299 0.00030922435 0)
(0.87783213 -0.00011558377 0)
(0.87708694 5.5845392e-05 0)
(0.87678568 0.00046447038 0)
(0.87719883 -0.00011685028 0)
(0.87784712 0.00043440448 0)
(0.87310603 0.0009033262 0)
(0.88027346 0.00015033387 0)
(0.86851137 5.7848943e-05 0)
(1.0001242 0.029520387 0)
(1.0309606 0.059694798 0)
(1.0668051 0.069875436 0)
(1.0988766 0.073627952 0)
(1.127091 0.074643482 0)
(1.1485228 0.073853858 0)
(1.1616233 0.07146257 0)
(1.1681018 0.067092264 0)
(1.1708365 0.060503443 0)
(1.1719585 0.052054052 0)
(1.1724887 0.042559647 0)
(1.1727712 0.032977043 0)
(1.1729096 0.024127679 0)
(1.1729516 0.016570113 0)
(1.1729326 0.010572354 0)
(1.1728797 0.0061454804 0)
(1.1728104 0.0031165116 0)
(1.1727353 0.0012132255 0)
(1.1726612 0.0001384586 0)
(1.1725926 -0.00037827408 0)
(1.1725327 -0.00055392438 0)
(1.172483 -0.0005452054 0)
(1.1724439 -0.00045454987 0)
(1.1724145 -0.00034203654 0)
(1.1723935 -0.00023823473 0)
(1.1723793 -0.00015521525 0)
(1.1723701 -9.4770105e-05 0)
(1.1723646 -5.3884549e-05 0)
(1.1723615 -2.7987952e-05 0)
(1.1723599 -1.2632629e-05 0)
(1.1723592 -4.1888489e-06 0)
(1.172359 8.5667259e-09 0)
(1.1723591 1.7679084e-06 0)
(1.1723592 2.2372094e-06 0)
(1.1723594 2.0987804e-06 0)
(1.1723596 1.7311399e-06 0)
(1.1723597 1.325389e-06 0)
(1.1723598 9.659894e-07 0)
(1.1723599 6.795715e-07 0)
(1.17236 4.6604775e-07 0)
(1.17236 3.1368786e-07 0)
(1.17236 2.0885467e-07 0)
(1.17236 1.3834872e-07 0)
(1.1723601 9.2152313e-08 0)
(1.1723601 6.2138078e-08 0)
(1.1723601 4.3114916e-08 0)
(1.1723601 3.0878001e-08 0)
(1.1723601 2.3229245e-08 0)
(1.1723601 1.8133668e-08 0)
(1.1723601 1.4896163e-08 0)
(1.1723601 1.2445049e-08 0)
(1.1723601 1.0736769e-08 0)
(1.1723601 9.1370716e-09 0)
(1.1723601 7.8862969e-09 0)
(1.1723601 6.4788591e-09 0)
(1.1723601 5.2519312e-09 0)
(1.1723601 3.7668388e-09 0)
(1.1723601 2.4099964e-09 0)
(1.1723601 7.1061349e-10 0)
(1.1723601 -9.432094e-10 0)
(1.1723601 -3.0115049e-09 0)
(1.1723601 -5.0984386e-09 0)
(1.1723601 -7.6249258e-09 0)
(1.1723601 -1.029628e-08 0)
(1.1723601 -1.3063672e-08 0)
(1.1723602 -1.6474334e-08 0)
(1.1723602 -1.8175796e-08 0)
(1.1723602 -2.3901617e-08 0)
(1.1723601 -1.8965716e-08 0)
(1.1723602 -3.7083495e-08 0)
(1.1723601 -6.6912416e-10 0)
(1.1723604 -8.3281507e-08 0)
(1.1723596 9.5680156e-08 0)
(1.1723613 -2.8255444e-07 0)
(1.1723578 5.0486241e-07 0)
(1.1723649 -1.0825008e-06 0)
(1.172351 2.058372e-06 0)
(1.1723778 -3.9241643e-06 0)
(1.172328 7.2279389e-06 0)
(1.1724175 -1.2626489e-05 0)
(1.172263 2.1759557e-05 0)
(1.1725188 -3.4594514e-05 0)
(1.1721161 5.428261e-05 0)
(1.1727155 -7.6486365e-05 0)
(1.1718821 0.00010534393 0)
(1.1729504 -0.00012378395 0)
(1.1717186 0.00013934399 0)
(1.1729474 -0.00011241369 0)
(1.1719839 7.9889722e-05 0)
(1.1724017 2.438166e-05 0)
(1.172698 -5.5759879e-05 0)
(1.1718208 0.00015470255 0)
(1.1727783 3.8594226e-05 0)
(1.172445 -2.1274894e-05 0)
(1.1717057 0.00055566449 0)
(1.1730372 -0.00010365847 0)
(1.1723451 0.00092672986 0)
(1.1703092 0.00093434799 0)
(1.1743653 0.0019759115 0)
(1.1679037 0.0035195379 0)
(0.99976007 0.012907838 0)
(1.0187585 0.030646264 0)
(1.0496655 0.039333329 0)
(1.0840531 0.044183596 0)
(1.1178451 0.047193762 0)
(1.1474898 0.048934441 0)
(1.171682 0.049489525 0)
(1.1918886 0.048410148 0)
(1.2101761 0.045254885 0)
(1.2273631 0.040104602 0)
(1.2429873 0.033569396 0)
(1.2562024 0.02650429 0)
(1.2664869 0.019710463 0)
(1.2738381 0.013763736 0)
(1.2786467 0.0089659094 0)
(1.2814868 0.0053764592 0)
(1.2829451 0.0028843737 0)
(1.2835223 0.0012870799 0)
(1.2835966 0.00035585473 0)
(1.2834261 -0.00012041885 0)
(1.2831697 -0.00031279378 0)
(1.2829143 -0.00034624051 0)
(1.2826992 -0.00030372494 0)
(1.2825355 -0.00023504243 0)
(1.2824201 -0.00016656679 0)
(1.2823436 -0.00010973331 0)
(1.282296 -6.7459224e-05 0)
(1.2822681 -3.847544e-05 0)
(1.2822529 -1.9956671e-05 0)
(1.2822454 -8.917656e-06 0)
(1.2822423 -2.8350775e-06 0)
(1.2822415 1.8245109e-07 0)
(1.2822417 1.4327072e-06 0)
(1.2822424 1.7475538e-06 0)
(1.2822431 1.6225981e-06 0)
(1.2822437 1.3347766e-06 0)
(1.2822442 1.0226312e-06 0)
(1.2822446 7.482653e-07 0)
(1.2822449 5.29736e-07 0)
(1.282245 3.6721118e-07 0)
(1.2822452 2.5069501e-07 0)
(1.2822452 1.7057333e-07 0)
(1.2822453 1.1598122e-07 0)
(1.2822453 8.0186844e-08 0)
(1.2822453 5.6197772e-08 0)
(1.2822453 4.093909e-08 0)
(1.2822454 3.0407563e-08 0)
(1.2822454 2.382593e-08 0)
(1.2822454 1.8811686e-08 0)
(1.2822454 1.5696174e-08 0)
(1.2822454 1.2824946e-08 0)
(1.2822454 1.1038189e-08 0)
(1.2822454 8.9834166e-09 0)
(1.2822454 7.6775832e-09 0)
(1.2822454 5.8678003e-09 0)
(1.2822454 4.6563459e-09 0)
(1.2822454 2.827103e-09 0)
(1.2822454 1.4838442e-09 0)
(1.2822454 -5.9709565e-10 0)
(1.2822454 -2.2853824e-09 0)
(1.2822454 -4.8093755e-09 0)
(1.2822454 -7.0301771e-09 0)
(1.2822454 -1.0138596e-08 0)
(1.2822454 -1.2970785e-08 0)
(1.2822454 -1.6432886e-08 0)
(1.2822454 -1.9872801e-08 0)
(1.2822454 -2.2660271e-08 0)
(1.2822454 -2.751156e-08 0)
(1.2822454 -2.5706224e-08 0)
(1.2822455 -3.8324943e-08 0)
(1.2822453 -1.6096623e-08 0)
(1.2822457 -6.9838925e-08 0)
(1.2822448 4.2077079e-08 0)
(1.2822468 -1.9738748e-07 0)
(1.2822426 2.9212748e-07 0)
(1.2822509 -6.9307267e-07 0)
(1.2822347 1.2386203e-06 0)
(1.2822657 -2.4187392e-06 0)
(1.2822084 4.3642403e-06 0)
(1.2823108 -7.6448141e-06 0)
(1.2821353 1.3109609e-05 0)
(1.2824241 -2.0830865e-05 0)
(1.2819719 3.2848519e-05 0)
(1.2826427 -4.6547415e-05 0)
(1.2817113 6.5413195e-05 0)
(1.2829101 -7.8973471e-05 0)
(1.2815111 9.4654144e-05 0)
(1.282955 -8.6485226e-05 0)
(1.2817162 8.2536889e-05 0)
(1.2825049 -3.1338718e-05 0)
(1.2823071 3.279152e-05 0)
(1.2821167 3.5350141e-05 0)
(1.2821912 9.3737753e-05 0)
(1.2830516 -2.0554608e-05 0)
(1.280871 0.00040346701 0)
(1.2843021 1.8279929e-06 0)
(1.281044 0.0008162775 0)
(1.2834296 0.00079737091 0)
(1.2826149 0.001939423 0)
(1.2846311 0.0035165096 0)
(1.0000242 0.0038061637 0)
(1.0152255 0.0098088169 0)
(1.0422232 0.013028042 0)
(1.0743379 0.014778601 0)
(1.1065887 0.015833837 0)
(1.1355626 0.016484944 0)
(1.160613 0.016808928 0)
(1.183609 0.01664163 0)
(1.2065456 0.015769325 0)
(1.2296663 0.014155637 0)
(1.2516411 0.011981923 0)
(1.2708033 0.0095496565 0)
(1.2860913 0.0071601294 0)
(1.297291 0.0050385531 0)
(1.3048332 0.0033089954 0)
(1.3094718 0.0020038552 0)
(1.3120201 0.0010901999 0)
(1.3131946 0.00049921149 0)
(1.3135504 0.00015062688 0)
(1.3134764 -3.0837001e-05 0)
(1.3132201 -0.00010688627 0)
(1.3129233 -0.00012307459 0)
(1.3126562 -0.00010997871 0)
(1.3124449 -8.6186907e-05 0)
(1.3122918 -6.1721983e-05 0)
(1.3121885 -4.1071767e-05 0)
(1.312123 -2.5521766e-05 0)
(1.3120841 -1.47444e-05 0)
(1.3120626 -7.7837488e-06 0)
(1.3120518 -3.582941e-06 0)
(1.3120473 -1.2317288e-06 0)
(1.312046 -3.6728098e-08 0)
(1.3120462 4.817729e-07 0)
(1.3120471 6.3615537e-07 0)
(1.3120481 6.1338307e-07 0)
(1.312049 5.2090869e-07 0)
(1.3120497 4.123345e-07 0)
(1.3120502 3.1394351e-07 0)
(1.3120506 2.3318127e-07 0)
(1.3120508 1.7210626e-07 0)
(1.312051 1.2676688e-07 0)
(1.3120511 9.4918504e-08 0)
(1.3120511 7.1876625e-08 0)
(1.3120512 5.619896e-08 0)
(1.3120512 4.444733e-08 0)
(1.3120512 3.644711e-08 0)
(1.3120512 2.985975e-08 0)
(1.3120512 2.5343929e-08 0)
(1.3120512 2.1113105e-08 0)
(1.3120512 1.8214234e-08 0)
(1.3120512 1.5143773e-08 0)
(1.3120512 1.312022e-08 0)
(1.3120512 1.0696005e-08 0)
(1.3120512 9.1286413e-09 0)
(1.3120512 7.019485e-09 0)
(1.3120512 5.6497865e-09 0)
(1.3120512 3.5936322e-09 0)
(1.3120512 2.1209583e-09 0)
(1.3120512 -1.5862682e-10 0)
(1.3120512 -1.9627447e-09 0)
(1.3120512 -4.6917047e-09 0)
(1.3120512 -7.0496434e-09 0)
(1.3120512 -1.0336705e-08 0)
(1.3120512 -1.3204102e-08 0)
(1.3120512 -1.6847306e-08 0)
(1.3120512 -2.0028243e-08 0)
(1.3120512 -2.3377555e-08 0)
(1.3120512 -2.6707323e-08 0)
(1.3120512 -2.8027922e-08 0)
(1.3120513 -3.3415732e-08 0)
(1.3120511 -2.7500533e-08 0)
(1.3120516 -4.6484709e-08 0)
(1.3120505 -1.119905e-08 0)
(1.3120527 -9.2213803e-08 0)
(1.3120483 6.6790126e-08 0)
(1.3120571 -2.5966318e-07 0)
(1.3120398 3.7332916e-07 0)
(1.3120727 -8.2821892e-07 0)
(1.3120122 1.3987108e-06 0)
(1.31212 -2.539988e-06 0)
(1.3119357 4.2843038e-06 0)
(1.3122383 -6.8827516e-06 0)
(1.3117657 1.0859124e-05 0)
(1.3124654 -1.5504425e-05 0)
(1.3114953 2.1997887e-05 0)
(1.3127443 -2.6945209e-05 0)
(1.3112829 3.3079054e-05 0)
(1.3128061 -3.1517421e-05 0)
(1.3114654 3.2266525e-05 0)
(1.3123991 -1.650747e-05 0)
(1.3119931 1.9548264e-05 0)
(1.3121244 4.9547766e-06 0)
(1.3117458 4.0110353e-05 0)
(1.3132709 -5.6683419e-06 0)
(1.3102569 0.00014171911 0)
(1.3148853 1.7685375e-05 0)
(1.3102468 0.00029418276 0)
(1.3149114 0.00031105423 0)
(1.3117488 0.00071872979 0)
(1.3177149 0.0013202872 0)
(1.0000242 -0.0038057465 0)
(1.0152256 -0.0098086326 0)
(1.0422232 -0.013028361 0)
(1.0743379 -0.014779287 0)
(1.1065887 -0.015834563 0)
(1.1355626 -0.016485458 0)
(1.1606129 -0.016809159 0)
(1.1836089 -0.016641659 0)
(1.2065455 -0.015769288 0)
(1.2296663 -0.014155639 0)
(1.2516411 -0.011982009 0)
(1.2708032 -0.0095498116 0)
(1.2860912 -0.0071603065 0)
(1.2972909 -0.0050386963 0)
(1.3048331 -0.0033090581 0)
(1.3094717 -0.0020038101 0)
(1.31202 -0.0010900429 0)
(1.3131945 -0.00049895786 0)
(1.3135503 -0.00015030679 0)
(1.3134764 3.1189394e-05 0)
(1.3132201 0.00010723788 0)
(1.3129233 0.00012340207 0)
(1.3126561 0.00011026851 0)
(1.3124449 8.6437245e-05 0)
(1.3122919 6.1937737e-05 0)
(1.3121885 4.1263174e-05 0)
(1.3121231 2.5698766e-05 0)
(1.3120841 1.4916292e-05 0)
(1.3120626 7.9555922e-06 0)
(1.3120519 3.7576327e-06 0)
(1.3120473 1.4082899e-06 0)
(1.312046 2.1352275e-07 0)
(1.3120463 -3.0835981e-07 0)
(1.3120471 -4.6853576e-07 0)
(1.3120481 -4.5450943e-07 0)
(1.312049 -3.7180583e-07 0)
(1.3120497 -2.7438371e-07 0)
(1.3120502 -1.8673072e-07 0)
(1.3120506 -1.1691795e-07 0)
(1.3120508 -6.5664162e-08 0)
(1.312051 -3.0074636e-08 0)
(1.3120511 -6.8138561e-09 0)
(1.3120512 7.6756676e-09 0)
(1.3120512 1.5838925e-08 0)
(1.3120512 1.994303e-08 0)
(1.3120512 2.123137e-08 0)
(1.3120513 2.1017324e-08 0)
(1.3120513 1.9711081e-08 0)
(1.3120513 1.8039935e-08 0)
(1.3120512 1.6023353e-08 0)
(1.3120512 1.4164234e-08 0)
(1.3120512 1.2219714e-08 0)
(1.3120512 1.0525243e-08 0)
(1.3120512 8.7615644e-09 0)
(1.3120512 7.2426615e-09 0)
(1.3120512 5.5688358e-09 0)
(1.3120512 3.9843802e-09 0)
(1.3120512 2.1233069e-09 0)
(1.3120512 2.7296915e-10 0)
(1.3120512 -1.9716796e-09 0)
(1.3120512 -4.303421e-09 0)
(1.3120512 -7.1054908e-09 0)
(1.3120512 -9.8837088e-09 0)
(1.3120512 -1.3100117e-08 0)
(1.3120512 -1.6189749e-08 0)
(1.3120512 -1.9426553e-08 0)
(1.3120512 -2.2589817e-08 0)
(1.3120512 -2.4744937e-08 0)
(1.3120512 -2.8648877e-08 0)
(1.3120513 -2.7155265e-08 0)
(1.3120511 -3.7151154e-08 0)
(1.3120516 -2.1805351e-08 0)
(1.3120505 -6.1976579e-08 0)
(1.3120527 1.3444217e-08 0)
(1.3120483 -1.5205426e-07 0)
(1.3120571 1.6789639e-07 0)
(1.3120398 -4.7063633e-07 0)
(1.3120727 7.2819972e-07 0)
(1.3120122 -1.4982181e-06 0)
(1.31212 2.4465845e-06 0)
(1.3119356 -4.3683092e-06 0)
(1.3122383 6.8109511e-06 0)
(1.3117657 -1.0920309e-05 0)
(1.3124654 1.54483e-05 0)
(1.3114953 -2.2055508e-05 0)
(1.3127442 2.6879527e-05 0)
(1.3112828 -3.3152253e-05 0)
(1.3128061 3.1443675e-05 0)
(1.3114654 -3.2326988e-05 0)
(1.3123991 1.6472246e-05 0)
(1.3119931 -1.9554786e-05 0)
(1.3121244 -4.9431016e-06 0)
(1.3117458 -4.0101879e-05 0)
(1.3132709 5.6624311e-06 0)
(1.3102569 -0.00014174531 0)
(1.3148853 -1.7712152e-05 0)
(1.3102468 -0.0002941967 0)
(1.3149114 -0.00031105292 0)
(1.3117488 -0.00071872514 0)
(1.3177149 -0.0013202763 0)
(0.99976008 -0.012907452 0)
(1.0187587 -0.030646029 0)
(1.0496657 -0.03933353 0)
(1.0840532 -0.044184131 0)
(1.117845 -0.047194356 0)
(1.1474897 -0.048934884 0)
(1.1716819 -0.049489764 0)
(1.1918885 -0.048410247 0)
(1.2101761 -0.045254939 0)
(1.2273631 -0.040104682 0)
(1.2429872 -0.033569525 0)
(1.2562023 -0.026504453 0)
(1.2664867 -0.019710627 0)
(1.2738379 -0.013763863 0)
(1.2786465 -0.0089659674 0)
(1.2814866 -0.0053764308 0)
(1.2829449 -0.002884256 0)
(1.2835221 -0.0012868854 0)
(1.2835965 -0.00035560589 0)
(1.283426 0.00012069427 0)
(1.2831697 0.00031306999 0)
(1.2829143 0.00034649739 0)
(1.2826992 0.0003039519 0)
(1.2825356 0.0002352369 0)
(1.2824202 0.00016673359 0)
(1.2823437 0.00010988037 0)
(1.2822961 6.759586e-05 0)
(1.2822682 3.8608868e-05 0)
(1.282253 2.0092028e-05 0)
(1.2822455 9.0566034e-06 0)
(1.2822424 2.977431e-06 0)
(1.2822416 -3.9064538e-08 0)
(1.2822419 -1.2907688e-06 0)
(1.2822425 -1.610027e-06 0)
(1.2822432 -1.4913712e-06 0)
(1.2822439 -1.2115931e-06 0)
(1.2822444 -9.0797285e-07 0)
(1.2822447 -6.4253612e-07 0)
(1.282245 -4.3241776e-07 0)
(1.2822452 -2.7812829e-07 0)
(1.2822453 -1.6908214e-07 0)
(1.2822453 -9.6167299e-08 0)
(1.2822454 -4.8070401e-08 0)
(1.2822454 -1.8655723e-08 0)
(1.2822454 -4.72903e-10 0)
(1.2822454 9.070887e-09 0)
(1.2822454 1.4471865e-08 0)
(1.2822454 1.6005968e-08 0)
(1.2822454 1.6554766e-08 0)
(1.2822454 1.5342068e-08 0)
(1.2822454 1.4483334e-08 0)
(1.2822454 1.2595767e-08 0)
(1.2822454 1.1448331e-08 0)
(1.2822454 9.5015872e-09 0)
(1.2822454 8.3872444e-09 0)
(1.2822454 6.3976783e-09 0)
(1.2822454 5.1118876e-09 0)
(1.2822454 2.8927953e-09 0)
(1.2822454 1.3101877e-09 0)
(1.2822454 -1.3090422e-09 0)
(1.2822454 -3.3883676e-09 0)
(1.2822454 -6.4363705e-09 0)
(1.2822454 -8.8654913e-09 0)
(1.2822454 -1.2140242e-08 0)
(1.2822454 -1.4834916e-08 0)
(1.2822454 -1.7768415e-08 0)
(1.2822454 -2.0842512e-08 0)
(1.2822454 -2.1624669e-08 0)
(1.2822453 -2.8082609e-08 0)
(1.2822454 -1.9694615e-08 0)
(1.2822452 -4.5453524e-08 0)
(1.2822457 4.5680743e-09 0)
(1.2822447 -1.1138745e-07 0)
(1.2822467 1.2335754e-07 0)
(1.2822426 -3.7126658e-07 0)
(1.2822509 6.08806e-07 0)
(1.2822346 -1.3267791e-06 0)
(1.2822656 2.3285603e-06 0)
(1.2822084 -4.4528498e-06 0)
(1.2823107 7.5611085e-06 0)
(1.2821352 -1.3184829e-05 0)
(1.2824241 2.0765423e-05 0)
(1.2819718 -3.2905189e-05 0)
(1.2826427 4.6495474e-05 0)
(1.2817112 -6.5465481e-05 0)
(1.28291 7.8916505e-05 0)
(1.281511 -9.4715237e-05 0)
(1.282955 8.6424146e-05 0)
(1.2817162 -8.2586963e-05 0)
(1.2825049 3.1307118e-05 0)
(1.2823071 -3.2799752e-05 0)
(1.2821166 -3.5342485e-05 0)
(1.2821911 -9.3729666e-05 0)
(1.2830516 2.0553549e-05 0)
(1.2808709 -0.00040348545 0)
(1.2843021 -1.8492975e-06 0)
(1.281044 -0.00081629254 0)
(1.2834297 -0.00079737315 0)
(1.282615 -0.0019394216 0)
(1.2846311 -0.0035165029 0)
(1.0001242 -0.029520081 0)
(1.0309608 -0.059694573 0)
(1.0668053 -0.069875553 0)
(1.0988767 -0.073628319 0)
(1.1270908 -0.074643888 0)
(1.1485226 -0.073854156 0)
(1.1616231 -0.07146274 0)
(1.1681017 -0.067092363 0)
(1.1708365 -0.060503534 0)
(1.1719586 -0.05205417 0)
(1.1724887 -0.042559793 0)
(1.1727711 -0.032977191 0)
(1.1729095 -0.024127805 0)
(1.1729514 -0.016570192 0)
(1.1729323 -0.010572374 0)
(1.1728794 -0.0061454386 0)
(1.1728102 -0.0031164134 0)
(1.1727352 -0.0012130803 0)
(1.1726612 -0.00013828283 0)
(1.1725927 0.00037846509 0)
(1.1725328 0.00055411385 0)
(1.1724832 0.00054538326 0)
(1.1724441 0.00045470812 0)
(1.1724147 0.00034217561 0)
(1.1723937 0.00023835585 0)
(1.1723795 0.00015532562 0)
(1.1723704 9.4873933e-05 0)
(1.1723648 5.398859e-05 0)
(1.1723617 2.8093616e-05 0)
(1.1723601 1.2742881e-05 0)
(1.1723595 4.3013211e-06 0)
(1.1723593 1.0620734e-07 0)
(1.1723593 -1.6548097e-06 0)
(1.1723595 -2.126019e-06 0)
(1.1723597 -1.9930592e-06 0)
(1.1723598 -1.6302074e-06 0)
(1.1723599 -1.2317194e-06 0)
(1.17236 -8.77828e-07 0)
(1.1723601 -5.9868902e-07 0)
(1.1723601 -3.9028787e-07 0)
(1.1723602 -2.445995e-07 0)
(1.1723602 -1.4415076e-07 0)
(1.1723602 -7.9650949e-08 0)
(1.1723602 -3.7308747e-08 0)
(1.1723602 -1.2834699e-08 0)
(1.1723602 2.8483939e-09 0)
(1.1723602 1.0018123e-08 0)
(1.1723602 1.4753631e-08 0)
(1.1723602 1.5217879e-08 0)
(1.1723602 1.6061972e-08 0)
(1.1723602 1.4347619e-08 0)
(1.1723602 1.4009232e-08 0)
(1.1723602 1.1712794e-08 0)
(1.1723601 1.1143939e-08 0)
(1.1723601 8.740492e-09 0)
(1.1723601 8.0173144e-09 0)
(1.1723601 5.4294729e-09 0)
(1.1723601 4.5237428e-09 0)
(1.1723601 1.6678818e-09 0)
(1.1723601 4.7787873e-10 0)
(1.1723601 -2.7144168e-09 0)
(1.1723601 -3.9773108e-09 0)
(1.1723601 -7.2957429e-09 0)
(1.1723601 -8.3835029e-09 0)
(1.1723601 -1.1704691e-08 0)
(1.1723601 -1.1995876e-08 0)
(1.1723601 -1.5860309e-08 0)
(1.1723601 -1.3415345e-08 0)
(1.1723601 -2.2990797e-08 0)
(1.1723602 -7.5847771e-09 0)
(1.17236 -4.8202565e-08 0)
(1.1723604 3.1840362e-08 0)
(1.1723596 -1.5189172e-07 0)
(1.1723612 2.2420104e-07 0)
(1.1723577 -5.6789541e-07 0)
(1.1723648 1.0188783e-06 0)
(1.1723508 -2.1239904e-06 0)
(1.1723776 3.8610055e-06 0)
(1.1723279 -7.2882847e-06 0)
(1.1724174 1.2571714e-05 0)
(1.1722629 -2.1809024e-05 0)
(1.1725187 3.4551144e-05 0)
(1.172116 -5.4324078e-05 0)
(1.1727154 7.6447432e-05 0)
(1.171882 -0.00010538582 0)
(1.1729502 0.00012374265 0)
(1.1717185 -0.00013938471 0)
(1.1729473 0.0001123788 0)
(1.1719838 -7.9914755e-05 0)
(1.1724016 -2.4394981e-05 0)
(1.172698 5.5758048e-05 0)
(1.1718207 -0.00015469611 0)
(1.1727782 -3.8587272e-05 0)
(1.1724449 2.1278692e-05 0)
(1.1717057 -0.00055567264 0)
(1.1730373 0.0001036482 0)
(1.1723451 -0.00092674147 0)
(1.1703092 -0.00093434788 0)
(1.1743653 -0.0019759068 0)
(1.1679037 -0.0035195288 0)
(1.0032061 -0.055359053 0)
(1.0464446 -0.10131932 0)
(1.0647805 -0.11048275 0)
(1.0627971 -0.10732031 0)
(1.0537068 -0.099561785 0)
(1.0384153 -0.089825077 0)
(1.0165646 -0.079115637 0)
(0.99081581 -0.067793139 0)
(0.96474536 -0.056271055 0)
(0.94101405 -0.045105641 0)
(0.92101489 -0.034873026 0)
(0.90518649 -0.025965767 0)
(0.89342912 -0.018534434 0)
(0.88529766 -0.012576222 0)
(0.88013784 -0.0080046877 0)
(0.87721633 -0.0046744626 0)
(0.8758337 -0.0023950929 0)
(0.87540437 -0.00095007763 0)
(0.87549177 -0.00012175812 0)
(0.87580469 0.00028548686 0)
(0.87617064 0.00043039291 0)
(0.87650205 0.00043001392 0)
(0.87676531 0.00036267144 0)
(0.87695697 0.00027556075 0)
(0.87708747 0.00019352205 0)
(0.8771714 0.00012694357 0)
(0.87722259 7.7901399e-05 0)
(0.87725217 4.4411333e-05 0)
(0.87726828 2.3034129e-05 0)
(0.87727642 1.028711e-05 0)
(0.8772801 3.2566327e-06 0)
(0.87728144 -2.3040817e-07 0)
(0.87728167 -1.6714098e-06 0)
(0.87728144 -2.0247087e-06 0)
(0.87728108 -1.8678867e-06 0)
(0.87728072 -1.520769e-06 0)
(0.87728042 -1.1481729e-06 0)
(0.8772802 -8.2030753e-07 0)
(0.87728004 -5.6123127e-07 0)
(0.87727993 -3.6824144e-07 0)
(0.87727985 -2.3216935e-07 0)
(0.8772798 -1.387013e-07 0)
(0.87727977 -7.7624579e-08 0)
(0.87727975 -3.7931628e-08 0)
(0.87727973 -1.3959932e-08 0)
(0.87727972 8.646466e-10 0)
(0.87727971 8.569093e-09 0)
(0.87727971 1.3033968e-08 0)
(0.8772797 1.4359389e-08 0)
(0.8772797 1.4988645e-08 0)
(0.87727969 1.4046922e-08 0)
(0.87727969 1.3400658e-08 0)
(0.87727969 1.1810166e-08 0)
(0.87727968 1.0827669e-08 0)
(0.87727968 9.0070028e-09 0)
(0.87727968 7.8558516e-09 0)
(0.87727967 5.9266015e-09 0)
(0.87727967 4.6559928e-09 0)
(0.87727966 2.5811371e-09 0)
(0.87727966 1.2226713e-09 0)
(0.87727966 -7.7338491e-10 0)
(0.87727965 -1.8882469e-09 0)
(0.87727965 -3.549015e-09 0)
(0.87727964 -4.0516816e-09 0)
(0.87727964 -5.1865994e-09 0)
(0.87727964 -4.532659e-09 0)
(0.87727964 -6.1866766e-09 0)
(0.87727965 -3.1376982e-09 0)
(0.87727963 -1.1148999e-08 0)
(0.87727968 2.9108467e-09 0)
(0.87727957 -3.6844128e-08 0)
(0.8772798 3.8410149e-08 0)
(0.87727927 -1.4332873e-07 0)
(0.87728037 2.267629e-07 0)
(0.87727802 -5.6783694e-07 0)
(0.87728279 1.0401646e-06 0)
(0.87727324 -2.1804861e-06 0)
(0.87729178 4.0242105e-06 0)
(0.87725701 -7.6565551e-06 0)
(0.87732012 1.3358735e-05 0)
(0.8772102 -2.3375756e-05 0)
(0.87739335 3.7300972e-05 0)
(0.8771034 -5.8982193e-05 0)
(0.87753509 8.3026146e-05 0)
(0.87693667 -0.00011381453 0)
(0.87769181 0.00013088913 0)
(0.87684895 -0.0001402431 0)
(0.87762036 9.6078164e-05 0)
(0.8771515 -3.3977371e-05 0)
(0.8770576 -0.00011210127 0)
(0.87783131 0.00018846696 0)
(0.87650297 -0.0003092244 0)
(0.87783211 0.00011558917 0)
(0.87708694 -5.5835177e-05 0)
(0.87678572 -0.00046446539 0)
(0.8771989 0.00011684828 0)
(0.8778472 -0.00043442136 0)
(0.87310609 -0.00090333855 0)
(0.88027354 -0.00015033038 0)
(0.86851135 -5.7835317e-05 0)
(0.92232164 -0.034640566 0)
(0.87040491 -0.058765155 0)
(0.78624959 -0.056241726 0)
(0.69197633 -0.045999826 0)
(0.61207646 -0.035902584 0)
(0.5460256 -0.027256973 0)
(0.49050713 -0.019908897 0)
(0.44592893 -0.01388147 0)
(0.41258244 -0.0093124122 0)
(0.38866477 -0.006115281 0)
(0.37153431 -0.0040068065 0)
(0.35905935 -0.0026899385 0)
(0.34993671 -0.0018744134 0)
(0.34343153 -0.001334562 0)
(0.33905181 -0.00093849468 0)
(0.33635867 -0.00062695108 0)
(0.33491566 -0.00038115088 0)
(0.33431763 -0.00019697538 0)
(0.33422919 -7.062349e-05 0)
(0.33440295 5.995642e-06 0)
(0.33467599 4.4483871e-05 0)
(0.33495377 5.7136363e-05 0)
(0.33519079 5.4573834e-05 0)
(0.3353726 4.4752918e-05 0)
(0.33550148 3.2933755e-05 0)
(0.33558682 2.2062174e-05 0)
(0.33563971 1.3422346e-05 0)
(0.33567021 7.2400205e-06 0)
(0.33568628 3.2149403e-06 0)
(0.33569364 8.3482557e-07 0)
(0.33569614 -4.016206e-07 0)
(0.3356962 -9.2216696e-07 0)
(0.33569521 -1.0286653e-06 0)
(0.33569393 -9.3404932e-07 0)
(0.33569273 -7.5654411e-07 0)
(0.33569172 -5.7197913e-07 0)
(0.33569096 -4.0561995e-07 0)
(0.33569041 -2.7593555e-07 0)
(0.33569002 -1.758104e-07 0)
(0.33568976 -1.0773264e-07 0)
(0.33568959 -5.8223635e-08 0)
(0.33568948 -2.8762933e-08 0)
(0.33568941 -7.1636277e-09 0)
(0.33568937 2.9464079e-09 0)
(0.33568935 1.1636969e-08 0)
(0.33568933 1.3346973e-08 0)
(0.33568933 1.6743564e-08 0)
(0.33568933 1.5213918e-08 0)
(0.33568933 1.675534e-08 0)
(0.33568933 1.4173479e-08 0)
(0.33568934 1.517229e-08 0)
(0.33568934 1.2347541e-08 0)
(0.33568935 1.3321476e-08 0)
(0.33568935 1.0535345e-08 0)
(0.33568936 1.1575417e-08 0)
(0.33568936 8.8699123e-09 0)
(0.33568937 1.0032072e-08 0)
(0.33568937 7.4092883e-09 0)
(0.33568937 8.6517555e-09 0)
(0.33568937 6.1078355e-09 0)
(0.33568938 7.509307e-09 0)
(0.33568938 5.1093911e-09 0)
(0.33568939 6.6161016e-09 0)
(0.33568939 4.3725823e-09 0)
(0.3356894 5.8245686e-09 0)
(0.3356894 3.8005808e-09 0)
(0.33568941 4.4305385e-09 0)
(0.33568941 3.1637736e-09 0)
(0.33568941 1.8649584e-10 0)
(0.33568942 4.3729015e-09 0)
(0.33568937 -1.425737e-08 0)
(0.33568943 2.1840235e-08 0)
(0.33568922 -6.7212669e-08 0)
(0.3356896 1.2012224e-07 0)
(0.33568876 -2.7702335e-07 0)
(0.33569046 5.3487346e-07 0)
(0.33568709 -1.0774622e-06 0)
(0.33569366 2.0161666e-06 0)
(0.33568142 -3.7580661e-06 0)
(0.33570345 6.5084412e-06 0)
(0.33566523 -1.1170945e-05 0)
(0.33572778 1.7448863e-05 0)
(0.33562972 -2.6728095e-05 0)
(0.33577153 3.6095091e-05 0)
(0.3355801 -4.6386308e-05 0)
(0.3358081 4.8181245e-05 0)
(0.33557267 -4.2455229e-05 0)
(0.33574695 1.2500066e-05 0)
(0.33570471 2.5490346e-05 0)
(0.33552747 -8.6174866e-05 0)
(0.33589837 0.00010458765 0)
(0.33540392 -0.0001092885 0)
(0.33571466 -4.9909515e-06 0)
(0.33569008 6.8578486e-05 0)
(0.33524335 -0.0001815285 0)
(0.33543628 -1.4043085e-05 0)
(0.33575282 0.00022228041 0)
(0.33402717 -0.00036256172 0)
(0.33609293 0.0010646955 0)
(0.33576477 0.0017247595 0)
)
;

boundaryField
{
    top
    {
        type            fixedValue;
        value           uniform (0 0 0);
    }
    inlet
    {
        type            fixedValue;
        value           uniform (1 0 0);
    }
    outlet
    {
        type            zeroGradient;
    }
    bottom
    {
        type            fixedValue;
        value           uniform (0 0 0);
    }
    back
    {
        type            empty;
    }
    front
    {
        type            empty;
    }
}


// ************************************************************************* //
