/*--------------------------------*- C++ -*----------------------------------*\
| =========                 |                                                 |
| \\      /  F ield         | OpenFOAM: The Open Source CFD Toolbox           |
|  \\    /   O peration     | Version:  v1812                                 |
|   \\  /    A nd           | Web:      www.OpenFOAM.com                      |
|    \\/     M anipulation  |                                                 |
\*---------------------------------------------------------------------------*/
FoamFile
{
    version     2.0;
    format      ascii;
    class       surfaceScalarField;
    location    "15.3";
    object      phi;
}
// * * * * * * * * * * * * * * * * * * * * * * * * * * * * * * * * * * * * * //

dimensions      [0 3 -1 0 0 0 0];
oriented        oriented;


internalField   nonuniform List<scalar> 
1890
(
0.0093061958
0.00069380425
0.0082843931
0.0010218027
0.0073298986
0.00095449446
0.0064869553
0.00084294331
0.0057695845
0.00071737078
0.00518986
0.00057972443
0.004738168
0.00045169205
0.00439519
0.00034297802
0.0041390268
0.00025616318
0.003949107
0.00018991983
0.003807888
0.00014121897
0.0037013782
0.0001065098
0.003619058
8.232022e-05
0.0035534117
6.5646245e-05
0.0034992845
5.4127251e-05
0.0034532444
4.6040042e-05
0.0034130501
4.0194287e-05
0.0033772574
3.5792752e-05
0.0033449386
3.2318761e-05
0.0033154893
2.9449286e-05
0.0032885008
2.6988587e-05
0.0032636805
2.482031e-05
0.003240805
2.2875487e-05
0.0032196926
2.111242e-05
0.0032001879
1.9504654e-05
0.0031821539
1.803401e-05
0.0031654671
1.6686722e-05
0.0031500158
1.5451358e-05
0.0031356979
1.4317863e-05
0.0031224209
1.3277072e-05
0.0031101003
1.2320596e-05
0.0030986596
1.1440726e-05
0.0030880291
1.0630441e-05
0.0030781458
9.8833709e-06
0.003068952
9.193774e-06
0.0030603955
8.5564951e-06
0.0030524285
7.9669135e-06
0.0030450076
7.4208972e-06
0.0030380929
6.9147427e-06
0.0030316478
6.4451211e-06
0.0030256387
6.0090551e-06
0.0030200349
5.6038464e-06
0.0030148078
5.2270753e-06
0.0030099313
4.8765409e-06
0.003005381
4.5502518e-06
0.0030011346
4.2464037e-06
0.0029971713
3.9633384e-06
0.0029934717
3.6995597e-06
0.002990018
3.4536801e-06
0.0029867936
3.2244208e-06
0.002983783
3.0106189e-06
0.0029809718
2.8111753e-06
0.0029783468
2.6250932e-06
0.0029758953
2.4514425e-06
0.002973606
2.2893578e-06
0.0029714679
2.1380623e-06
0.0029694711
1.9968114e-06
0.0029676061
1.8649559e-06
0.0029658642
1.741861e-06
0.0029642372
1.6269419e-06
0.0029627176
1.5196534e-06
0.0029612982
1.4194672e-06
0.0029599723
1.3259054e-06
0.0029587338
1.2385094e-06
0.002957577
1.1568595e-06
0.0029564964
1.0805834e-06
0.002955487
1.009325e-06
0.0029545442
9.4276993e-07
0.0029536635
8.8063715e-07
0.0029528409
8.2262133e-07
0.0029520724
7.6846873e-07
0.0029513546
7.1789769e-07
0.002950684
6.7064696e-07
0.0029500575
6.2648172e-07
0.0029494724
5.8518836e-07
0.0029489258
5.4657798e-07
0.0029484152
5.1051274e-07
0.0029479383
4.7681686e-07
0.0029474929
4.4540405e-07
0.0029470768
4.1608284e-07
0.002946688
3.8875597e-07
0.0029463249
3.6320992e-07
0.0029459856
3.3935355e-07
0.0029456687
3.1697916e-07
0.0029453726
2.9607739e-07
0.0029450961
2.7642093e-07
0.0029448379
2.5821478e-07
0.0029445967
2.4106384e-07
0.0029443712
2.2533556e-07
0.0029441609
2.1041974e-07
0.0029439642
1.9685086e-07
0.0029437803
1.8377419e-07
0.0029436083
1.7211113e-07
0.002943448
1.6037196e-07
0.0029432978
1.5018107e-07
0.0029431574
1.402921e-07
0.0029430253
1.3211288e-07
0.0029429003
1.2512044e-07
0.0029427808
1.1942289e-07
1.2577319e-07
0.010339525
0.00035427931
0.010570754
0.00079057333
0.010606301
0.00091894817
0.010547572
0.00090167133
0.010422317
0.0008426262
0.010244356
0.00075768557
0.010039421
0.00065662743
0.0098287427
0.00055365586
0.009625135
0.00045977083
0.0094353013
0.00037975353
0.0092624277
0.00031409258
0.0091075333
0.00026140425
0.008970154
0.00021969948
0.0088489024
0.00018689785
0.0087419716
0.00016105801
0.0086474927
0.00014051894
0.008563694
0.00012399296
0.0084890108
0.000110476
0.0084221096
9.9219877e-05
0.0083618775
8.9681415e-05
0.0083073954
8.1470677e-05
0.0082579079
7.4307855e-05
0.0082127929
6.79905e-05
0.0081715353
6.2369988e-05
0.0081337049
5.7335011e-05
0.0080989388
5.2800179e-05
0.0080669272
4.8698263e-05
0.0080374036
4.4974957e-05
0.0080101361
4.1585394e-05
0.0079849213
3.8491853e-05
0.0079615798
3.566216e-05
0.0079399519
3.3068617e-05
0.0079198951
3.0687176e-05
0.0079012817
2.8496851e-05
0.0078839962
2.6479241e-05
0.0078679345
2.4618141e-05
0.0078530022
2.2899241e-05
0.0078391133
2.1309845e-05
0.0078261893
1.9838663e-05
0.0078141589
1.8475615e-05
0.0078029563
1.721167e-05
0.0077925214
1.603873e-05
0.007782799
1.4949482e-05
0.0077737382
1.3937338e-05
0.0077652921
1.299632e-05
0.0077574175
1.2121e-05
0.0077500744
1.1306449e-05
0.0077432258
1.0548146e-05
0.0077368375
9.8419711e-06
0.0077308778
9.1841356e-06
0.0077253173
8.5711476e-06
0.0077201286
7.9998158e-06
0.0077152866
7.4671672e-06
0.0077107675
6.9704838e-06
0.0077065496
6.5072473e-06
0.0077026125
6.0751314e-06
0.0076989373
5.6720111e-06
0.0076955064
5.2958951e-06
0.0076923033
4.9449566e-06
0.0076893128
4.6174721e-06
0.0076865206
4.3118372e-06
0.0076839135
4.0265708e-06
0.0076814792
3.7602647e-06
0.007679206
3.5116413e-06
0.0076770834
3.2795002e-06
0.0076751012
3.0627375e-06
0.0076732501
2.860349e-06
0.0076715215
2.6713887e-06
0.0076699072
2.4949744e-06
0.0076683996
2.3302904e-06
0.0076669915
2.1765302e-06
0.0076656765
2.0329451e-06
0.0076644483
1.8988403e-06
0.0076633012
1.7735426e-06
0.0076622299
1.6564901e-06
0.0076612293
1.5471258e-06
0.0076602948
1.445001e-06
0.007659422
1.3496339e-06
0.0076586068
1.2606487e-06
0.0076578453
1.1775537e-06
0.0076571341
1.1000453e-06
0.0076564698
1.0275413e-06
0.0076558492
9.5990303e-07
0.0076552697
8.9649805e-07
0.0076547282
8.3743006e-07
0.0076542228
7.8188559e-07
0.0076537505
7.3045855e-07
0.0076533094
6.8214073e-07
0.0076528972
6.3761398e-07
0.0076525127
5.9497912e-07
0.0076521528
5.5671973e-07
0.0076518171
5.1954535e-07
0.0076515027
4.8640843e-07
0.0076512105
4.5244899e-07
0.0076509355
4.2509534e-07
0.0076506807
3.9525201e-07
0.0076504386
3.7432179e-07
0.0076502165
3.4709475e-07
0.0076499999
3.3608483e-07
3.1078532e-07
0.010188704
0.00016557515
0.010530487
0.00044879097
0.010851453
0.00059798174
0.011124174
0.00062895021
0.011350581
0.00061621883
0.011524486
0.00058378053
0.01164633
0.00053478419
0.011724155
0.00047583049
0.011767999
0.00041592665
0.011786639
0.00036111399
0.011787114
0.0003136171
0.011775058
0.00027346024
0.011754861
0.00023989716
0.011729768
0.00021199029
0.011702054
0.00018877259
0.011673239
0.00016933387
0.011644339
0.00015289296
0.011616003
0.00013881183
0.011588629
0.0001265938
0.011562446
0.00011586446
0.011537572
0.00010634495
0.011514052
9.7827004e-05
0.01149189
9.0153364e-05
0.011471056
8.3203365e-05
0.011451509
7.688261e-05
0.011433193
7.111556e-05
0.011416051
6.5840296e-05
0.011400021
6.1004911e-05
0.011385041
5.6565076e-05
0.011371051
5.2482343e-05
0.01135799
4.8723035e-05
0.011345801
4.5257395e-05
0.01133443
4.2058999e-05
0.011323822
3.9104274e-05
0.011313929
3.6372118e-05
0.011304704
3.3843602e-05
0.011296101
3.1501687e-05
0.01128808
2.9331015e-05
0.011280601
2.7317702e-05
0.011273628
2.5449181e-05
0.011267125
2.3714059e-05
0.011261062
2.2101962e-05
0.011255408
2.0603465e-05
0.011250135
1.9209954e-05
0.011245218
1.7913568e-05
0.011240632
1.6707111e-05
0.011236354
1.5583977e-05
0.011232364
1.4538111e-05
0.011228643
1.356393e-05
0.01122517
1.26563e-05
0.011221931
1.1810492e-05
0.011218909
1.1022115e-05
0.011216089
1.0287142e-05
0.011213457
9.6018272e-06
0.011211002
8.9627173e-06
0.01120871
8.3666261e-06
0.011206572
7.8105918e-06
0.011204576
7.2918788e-06
0.011202713
6.8079211e-06
0.011200974
6.356349e-06
0.011199351
5.9349614e-06
0.011197836
5.541683e-06
0.011196421
5.1746213e-06
0.011195101
4.831986e-06
0.011193868
4.5121431e-06
0.011192718
4.2135622e-06
0.011191643
3.9348272e-06
0.01119064
3.6746201e-06
0.011189703
3.4317131e-06
0.011188829
3.2049254e-06
0.011188012
2.9931975e-06
0.011187249
2.7954759e-06
0.011186537
2.610835e-06
0.011185873
2.4383815e-06
0.011185252
2.2773382e-06
0.011184672
2.1269208e-06
0.01118413
1.9865021e-06
0.011183625
1.8553553e-06
0.011183152
1.7329804e-06
0.011182711
1.6186364e-06
0.0111823
1.5119419e-06
0.011181915
1.412132e-06
0.011181556
1.3190787e-06
0.01118122
1.2318553e-06
0.011180907
1.1506974e-06
0.011180614
1.0745099e-06
0.011180341
1.0040929e-06
0.011180086
9.3725301e-07
0.011179847
8.7617809e-07
0.011179625
8.1774881e-07
0.011179416
7.6533304e-07
0.011179222
7.1276694e-07
0.01117904
6.6812678e-07
0.011178872
6.2105214e-07
0.011178712
5.8530757e-07
0.011178566
5.4112475e-07
0.011178425
5.1516287e-07
0.0111783
4.7222855e-07
0.011178177
4.5902921e-07
4.1609537e-07
0.010097182
6.8393549e-05
0.010346961
0.0001990111
0.010662469
0.00028247385
0.010982753
0.00030866646
0.011290229
0.00030874339
0.011575251
0.00029875786
0.011829022
0.00028101344
0.012047865
0.00025698755
0.012233272
0.00023051981
0.01238924
0.00020514589
0.012520295
0.00018256234
0.012630755
0.00016299955
0.012724428
0.00014622488
0.012804515
0.0001319031
0.012873613
0.00011967425
0.012933772
0.0001091746
0.012986596
0.00010006907
0.013033332
9.2076371e-05
0.01307495
8.4975259e-05
0.013112216
7.8598619e-05
0.013145739
7.2822308e-05
0.013176012
6.7553942e-05
0.013203441
6.2723925e-05
0.013228366
5.8278895e-05
0.013251071
5.4176988e-05
0.013271802
5.0384433e-05
0.01329077
4.6873165e-05
0.013308155
4.3619183e-05
0.013324119
4.0601465e-05
0.0133388
3.7801288e-05
0.013352321
3.5201761e-05
0.013364791
3.2787539e-05
0.013376306
3.0544599e-05
0.01338695
2.8460092e-05
0.0133968
2.6522221e-05
0.013405923
2.4720134e-05
0.013414381
2.3043841e-05
0.013422228
2.1484142e-05
0.013429513
2.0032559e-05
0.013436281
1.8681272e-05
0.013442572
1.7423066e-05
0.013448423
1.6251284e-05
0.013453866
1.5159768e-05
0.013458933
1.4142836e-05
0.013463652
1.3195226e-05
0.013468047
1.2312073e-05
0.013472142
1.1488871e-05
0.013475959
1.0721439e-05
0.013479517
1.000591e-05
0.013482834
9.338689e-06
0.013485928
8.7164392e-06
0.013488814
8.136074e-06
0.013491507
7.5947065e-06
0.013494019
7.0896746e-06
0.013496363
6.618503e-06
0.013498551
6.1788916e-06
0.013500593
5.7686981e-06
0.013502499
5.385921e-06
0.013504278
5.0287082e-06
0.013505939
4.6953293e-06
0.01350749
4.3841666e-06
0.013508938
4.0937328e-06
0.01351029
3.822621e-06
0.013511552
3.5695416e-06
0.013512731
3.333285e-06
0.013513832
3.1127299e-06
0.01351486
2.9068332e-06
0.01351582
2.714608e-06
0.013516716
2.5351447e-06
0.013517554
2.3675866e-06
0.013518336
2.2111202e-06
0.013519066
2.0650089e-06
0.013519749
1.9285726e-06
0.013520386
1.8011524e-06
0.013520981
1.6821928e-06
0.013521537
1.571093e-06
0.013522056
1.4673843e-06
0.013522541
1.3705114e-06
0.013522994
1.2800955e-06
0.013523417
1.1955806e-06
0.013523812
1.1167262e-06
0.013524181
1.0429397e-06
0.013524526
9.7419065e-07
0.013524848
9.0972927e-07
0.013525148
8.499334e-07
0.01352543
7.9367361e-07
0.013525692
7.4160147e-07
0.013525937
6.921452e-07
0.013526166
6.4738864e-07
0.01352638
6.0397726e-07
0.013526581
5.650672e-07
0.013526767
5.2578874e-07
0.01352694
4.9379135e-07
0.013527104
4.5851182e-07
0.013527258
4.326115e-07
0.013527398
3.9885259e-07
0.013527532
3.8079781e-07
0.013527658
3.4707203e-07
0.01352778
3.3799604e-07
3.0564416e-07
0.010068394
-5.1027532e-12
0.010267405
-1.3159023e-11
0.010549879
-1.4201268e-11
0.010858545
-1.231172e-11
0.011167288
-9.8225917e-12
0.011466046
-9.7603634e-12
0.01174706
-1.0208334e-11
0.012004047
-1.1386065e-11
0.012234567
-1.2943542e-11
0.012439713
-1.5216781e-11
0.012622275
-1.6471325e-11
0.012785275
-1.6174186e-11
0.0129315
-1.5477916e-11
0.013063403
-1.3452469e-11
0.013183077
-1.0202092e-11
0.013292252
-6.4635919e-12
0.013392321
-2.7469845e-12
0.013484397
3.5703585e-13
0.013569373
2.8453018e-12
0.013647971
4.2004215e-12
0.013720793
2.8511459e-12
0.013788347
5.3455166e-13
0.013851071
-7.7991027e-13
0.01390935
-1.7525055e-12
0.013963527
-1.4802091e-12
0.014013912
1.6145036e-13
0.014060785
1.6103082e-12
0.014104404
3.2186715e-12
0.014145005
6.2618904e-12
0.014182807
7.4816348e-12
0.014218009
7.8987322e-12
0.014250796
5.3213047e-12
0.014281341
1.6462963e-12
0.014309801
-2.9500556e-12
0.014336323
-6.0847823e-12
0.014361043
-5.8462294e-12
0.014384087
-2.2141921e-12
0.014405571
2.1168947e-12
0.014425604
6.4228172e-12
0.014444285
9.1441899e-12
0.014461708
9.5830004e-12
0.014477959
6.3860621e-12
0.014493119
2.8570384e-12
0.014507262
-1.8082425e-12
0.014520457
-5.5437529e-12
0.014532769
-6.4318343e-12
0.014544258
-5.5694061e-12
0.014554979
-2.4127123e-12
0.014564985
3.9511742e-12
0.014574324
1.2622014e-11
0.014583041
1.7366352e-11
0.014591177
1.3137159e-11
0.014598771
6.0819497e-12
0.014605861
-3.771094e-12
0.014612479
-1.3849475e-11
0.014618658
-1.5456354e-11
0.014624427
-7.8820674e-12
0.014629813
1.0079415e-12
0.014634842
1.4773405e-11
0.014639537
2.2200697e-11
0.014643921
2.1793675e-11
0.014648015
1.4098376e-11
0.014651838
5.0209731e-12
0.014655407
-6.4665916e-12
0.01465874
-1.6334874e-11
0.014661853
-1.6518683e-11
0.01466476
-1.0005643e-11
0.014667475
1.5445156e-12
0.01467001
2.1385018e-11
0.014672377
3.1889338e-11
0.014674588
3.2706697e-11
0.014676653
1.7557382e-11
0.014678582
5.9576393e-13
0.014680383
-2.1886235e-11
0.014682065
-3.6280728e-11
0.014683636
-2.7423779e-11
0.014685104
-6.8172329e-12
0.014686474
2.0401442e-11
0.014687754
4.3462643e-11
0.01468895
4.0718089e-11
0.014690067
2.026902e-11
0.014691109
4.6345202e-13
0.014692084
-3.0747153e-11
0.014692994
-4.5039239e-11
0.014693843
-1.7496185e-11
0.014694637
4.2809714e-12
0.014695379
1.2241545e-11
0.014696071
4.2479399e-11
0.014696717
1.0470096e-10
0.014697321
4.8837308e-11
0.014697888
-6.4554562e-11
0.014698413
-9.7090569e-11
0.014698905
-8.5432029e-11
0.014699365
4.1211922e-11
0.0146998
1.4844249e-10
0.014700197
8.424728e-11
0.014700576
-3.2301636e-11
0.014700924
-9.7739136e-11
0.014701263
-9.0554608e-11
-6.2233117e-11
0.010068394
-6.8393558e-05
0.010267405
-0.00019901113
0.010549879
-0.00028247388
0.010858545
-0.00030866649
0.011167288
-0.00030874342
0.011466046
-0.00029875789
0.01174706
-0.00028101346
0.012004047
-0.00025698756
0.012234567
-0.00023051983
0.012439713
-0.00020514591
0.012622275
-0.00018256237
0.012785275
-0.00016299958
0.0129315
-0.00014622492
0.013063403
-0.00013190313
0.013183077
-0.00011967427
0.013292252
-0.00010917462
0.013392321
-0.00010006907
0.013484397
-9.2076365e-05
0.013569373
-8.497525e-05
0.013647971
-7.8598611e-05
0.013720793
-7.2822303e-05
0.013788347
-6.7553938e-05
0.013851071
-6.2723926e-05
0.01390935
-5.8278899e-05
0.013963527
-5.4176989e-05
0.014013912
-5.0384434e-05
0.014060785
-4.6873164e-05
0.014104404
-4.3619176e-05
0.014145005
-4.0601454e-05
0.014182807
-3.7801273e-05
0.014218009
-3.520175e-05
0.014250796
-3.2787531e-05
0.014281341
-3.0544597e-05
0.014309801
-2.8460098e-05
0.014336323
-2.652223e-05
0.014361043
-2.472014e-05
0.014384087
-2.3043844e-05
0.014405571
-2.1484141e-05
0.014425604
-2.003255e-05
0.014444285
-1.8681256e-05
0.014461708
-1.7423052e-05
0.014477959
-1.6251271e-05
0.014493119
-1.5159761e-05
0.014507262
-1.4142836e-05
0.014520457
-1.3195234e-05
0.014532769
-1.2312087e-05
0.014544258
-1.1488882e-05
0.014554979
-1.0721445e-05
0.014564985
-1.0005902e-05
0.014574324
-9.3386688e-06
0.014583041
-8.7164191e-06
0.014591177
-8.1360526e-06
0.014598771
-7.5946965e-06
0.014605861
-7.0896792e-06
0.014612479
-6.6185174e-06
0.014618658
-6.1789066e-06
0.014624427
-5.7687041e-06
0.014629813
-5.3859206e-06
0.014634842
-5.0286946e-06
0.014639537
-4.6952979e-06
0.014643921
-4.3841363e-06
0.014648015
-4.0937065e-06
0.014651838
-3.8226099e-06
0.014655407
-3.5695451e-06
0.01465874
-3.3333074e-06
0.014661853
-3.1127594e-06
0.01466476
-2.9068497e-06
0.014667475
-2.7146068e-06
0.01467001
-2.5351227e-06
0.014672377
-2.3675381e-06
0.014674588
-2.2110815e-06
0.014676653
-2.0649838e-06
0.014678582
-1.9285724e-06
0.014680383
-1.8011817e-06
0.014682065
-1.6822279e-06
0.014683636
-1.5711196e-06
0.014685104
-1.4673871e-06
0.014686474
-1.3704891e-06
0.014687754
-1.2800626e-06
0.01468895
-1.195543e-06
0.014690067
-1.1167058e-06
0.014691109
-1.0429496e-06
0.014692084
-9.7421354e-07
0.014692994
-9.0976561e-07
0.014693843
-8.4994932e-07
0.014694637
-7.9365844e-07
0.014695379
-7.4159106e-07
0.014696071
-6.9212216e-07
0.014696717
-6.472796e-07
0.014697322
-6.038213e-07
0.014697888
-5.6524933e-07
0.014698413
-5.2609531e-07
0.014698905
-4.9357608e-07
0.014699366
-4.5817949e-07
0.0146998
-4.3276104e-07
0.014700197
-3.9911652e-07
0.014700576
-3.8081057e-07
0.014700924
-3.4701554e-07
0.014701263
-3.3803333e-07
-3.0571384e-07
0.010097182
-0.00016557515
0.010346961
-0.000448791
0.010662469
-0.00059798177
0.010982753
-0.00062895025
0.011290229
-0.00061621886
0.011575251
-0.00058378055
0.011829022
-0.0005347842
0.012047865
-0.0004758305
0.012233272
-0.00041592666
0.01238924
-0.000361114
0.012520295
-0.00031361712
0.012630755
-0.00027346026
0.012724428
-0.00023989719
0.012804515
-0.00021199031
0.012873613
-0.00018877261
0.012933772
-0.00016933388
0.012986596
-0.00015289296
0.013033332
-0.00013881183
0.01307495
-0.00012659379
0.013112216
-0.00011586445
0.013145739
-0.00010634494
0.013176012
-9.7827002e-05
0.013203441
-9.0153365e-05
0.013228366
-8.3203368e-05
0.013251071
-7.6882616e-05
0.013271802
-7.1115562e-05
0.01329077
-6.5840292e-05
0.013308155
-6.1004905e-05
0.013324119
-5.6565066e-05
0.0133388
-5.2482335e-05
0.013352321
-4.8723024e-05
0.013364791
-4.5257388e-05
0.013376306
-4.2058997e-05
0.01338695
-3.9104274e-05
0.0133968
-3.6372124e-05
0.013405923
-3.3843611e-05
0.013414381
-3.1501695e-05
0.013422228
-2.9331015e-05
0.013429513
-2.7317696e-05
0.013436281
-2.5449172e-05
0.013442572
-2.3714041e-05
0.013448423
-2.2101948e-05
0.013453866
-2.0603456e-05
0.013458933
-1.9209954e-05
0.013463652
-1.7913576e-05
0.013468047
-1.6707122e-05
0.013472142
-1.558399e-05
0.013475959
-1.4538115e-05
0.013479517
-1.3563929e-05
0.013482834
-1.2656296e-05
0.013485928
-1.1810475e-05
0.013488814
-1.1022099e-05
0.013491507
-1.0287126e-05
0.013494019
-9.6018186e-06
0.013496363
-8.962721e-06
0.013498551
-8.3666401e-06
0.013500593
-7.8106153e-06
0.013502499
-7.2918897e-06
0.013504278
-6.80792e-06
0.013505939
-6.3563377e-06
0.01350749
-5.9349304e-06
0.013508938
-5.5416515e-06
0.01351029
-5.1745958e-06
0.013511552
-4.8319821e-06
0.013512731
-4.5121529e-06
0.013513832
-4.2135828e-06
0.01351486
-3.9348557e-06
0.01351582
-3.6746384e-06
0.013516716
-3.431712e-06
0.013517554
-3.2049164e-06
0.013518336
-2.9931642e-06
0.013519066
-2.7954405e-06
0.013519749
-2.6108109e-06
0.013520386
-2.4383733e-06
0.013520981
-2.2773505e-06
0.013521537
-2.1269549e-06
0.013522056
-1.9865459e-06
0.013522541
-1.8553884e-06
0.013522994
-1.7329834e-06
0.013523417
-1.6186096e-06
0.013523812
-1.5118951e-06
0.013524181
-1.4120816e-06
0.013524526
-1.3190469e-06
0.013524848
-1.2318514e-06
0.013525149
-1.1507665e-06
0.01352543
-1.0745661e-06
0.013525692
-1.0040533e-06
0.013525937
-9.3723767e-07
0.013526166
-8.7629955e-07
0.01352638
-8.1778018e-07
0.01352658
-7.650221e-07
0.013526767
-7.1251153e-07
0.013526941
-6.6835279e-07
0.013527104
-6.2134709e-07
0.013527257
-5.8526692e-07
0.013527398
-5.4103052e-07
0.013527533
-5.1515706e-07
0.013527658
-4.7221603e-07
0.013527779
-4.5901118e-07
-4.1607607e-07
0.010188704
-0.00035427932
0.010530487
-0.00079057335
0.010851453
-0.0009189482
0.011124174
-0.00090167137
0.011350581
-0.00084262623
0.011524486
-0.00075768559
0.01164633
-0.00065662744
0.011724155
-0.00055365586
0.011767999
-0.00045977083
0.011786639
-0.00037975354
0.011787114
-0.00031409259
0.011775058
-0.00026140427
0.011754861
-0.00021969949
0.011729768
-0.00018689787
0.011702054
-0.00016105802
0.011673239
-0.00014051894
0.011644339
-0.00012399295
0.011616003
-0.00011047599
0.011588629
-9.9219868e-05
0.011562446
-8.9681405e-05
0.011537572
-8.1470671e-05
0.011514052
-7.4307851e-05
0.01149189
-6.79905e-05
0.011471056
-6.2369991e-05
0.011451509
-5.7335014e-05
0.011433193
-5.2800182e-05
0.011416051
-4.8698264e-05
0.011400021
-4.4974953e-05
0.011385042
-4.158539e-05
0.011371051
-3.8491847e-05
0.01135799
-3.5662156e-05
0.011345801
-3.3068611e-05
0.01133443
-3.0687171e-05
0.011323822
-2.8496849e-05
0.011313929
-2.6479242e-05
0.011304704
-2.4618148e-05
0.011296101
-2.2899249e-05
0.01128808
-2.1309852e-05
0.011280601
-1.9838666e-05
0.011273628
-1.8475611e-05
0.011267125
-1.7211663e-05
0.011261062
-1.6038716e-05
0.011255408
-1.4949471e-05
0.011250135
-1.3937332e-05
0.011245218
-1.299632e-05
0.011240632
-1.2121009e-05
0.011236354
-1.1306458e-05
0.011232364
-1.0548157e-05
0.011228643
-9.8419795e-06
0.01122517
-9.1841376e-06
0.011221931
-8.5711479e-06
0.011218909
-7.9998033e-06
0.011216089
-7.4671507e-06
0.011213457
-6.9704648e-06
0.011211002
-6.5072338e-06
0.01120871
-6.0751373e-06
0.011206572
-5.6720283e-06
0.011204576
-5.2959224e-06
0.011202713
-4.9449774e-06
0.011200974
-4.6174793e-06
0.011199351
-4.3118308e-06
0.011197836
-4.0265425e-06
0.011196422
-3.7602332e-06
0.011195101
-3.5116125e-06
0.011193868
-3.2794856e-06
0.011192718
-3.0627454e-06
0.011191643
-2.8603746e-06
0.01119064
-2.6714248e-06
0.011189703
-2.4950142e-06
0.011188829
-2.3303075e-06
0.011188012
-2.1765247e-06
0.011187249
-2.0329111e-06
0.011186537
-1.8987886e-06
0.011185873
-1.7734972e-06
0.011185252
-1.6564696e-06
0.011184672
-1.5471419e-06
0.01118413
-1.4450581e-06
0.011183625
-1.3497059e-06
0.011183152
-1.2607107e-06
0.011182711
-1.1775679e-06
0.0111823
-1.1000037e-06
0.011181915
-1.0274657e-06
0.011181556
-9.5981056e-07
0.01118122
-8.9644054e-07
0.011180907
-8.3743342e-07
0.011180614
-7.8195983e-07
0.011180341
-7.3055748e-07
0.011180086
-6.821953e-07
0.011179847
-6.3766778e-07
0.011179624
-5.9502963e-07
0.011179416
-5.5653935e-07
0.011179223
-5.1916115e-07
0.01117904
-4.8630044e-07
0.011178872
-4.5280074e-07
0.011178712
-4.2541746e-07
0.011178566
-3.9517267e-07
0.011178425
-3.7414701e-07
0.0111783
-3.4705252e-07
0.011178177
-3.3599822e-07
-3.1070484e-07
0.010339525
-0.00069380425
0.010570754
-0.0010218027
0.010606301
-0.00095449448
0.010547572
-0.00084294333
0.010422317
-0.0007173708
0.010244356
-0.00057972444
0.010039421
-0.00045169205
0.0098287427
-0.00034297801
0.009625135
-0.00025616318
0.0094353013
-0.00018991983
0.0092624277
-0.00014121897
0.0091075332
-0.0001065098
0.008970154
-8.2320226e-05
0.0088489023
-6.5646249e-05
0.0087419716
-5.4127255e-05
0.0086474927
-4.6040044e-05
0.008563694
-4.0194286e-05
0.0084890108
-3.5792751e-05
0.0084221096
-3.2318757e-05
0.0083618775
-2.9449282e-05
0.0083073954
-2.6988579e-05
0.0082579079
-2.4820303e-05
0.0082127929
-2.2875482e-05
0.0081715353
-2.1112418e-05
0.0081337049
-1.9504655e-05
0.0080989388
-1.8034016e-05
0.0080669272
-1.6686726e-05
0.0080374036
-1.5451365e-05
0.0080101361
-1.4317864e-05
0.0079849213
-1.3277072e-05
0.0079615798
-1.2320591e-05
0.0079399519
-1.1440719e-05
0.0079198951
-1.0630432e-05
0.0079012817
-9.8833633e-06
0.0078839962
-9.1937709e-06
0.0078679345
-8.5564982e-06
0.0078530022
-7.9669232e-06
0.0078391133
-7.420909e-06
0.0078261894
-6.9147514e-06
0.0078141589
-6.4451272e-06
0.0078029563
-6.0090517e-06
0.0077925214
-5.6038382e-06
0.007782799
-5.2270615e-06
0.0077737382
-4.8765271e-06
0.0077652921
-4.5502444e-06
0.0077574175
-4.2464022e-06
0.0077500744
-3.9633486e-06
0.0077432258
-3.6995744e-06
0.0077368375
-3.4536957e-06
0.0077308778
-3.2244373e-06
0.0077253173
-3.0106235e-06
0.0077201286
-2.8111702e-06
0.0077152866
-2.6250762e-06
0.0077107675
-2.4514161e-06
0.0077065496
-2.2893367e-06
0.0077026125
-2.1380503e-06
0.0076989374
-1.9968247e-06
0.0076955064
-1.8649818e-06
0.0076923033
-1.7418932e-06
0.0076893128
-1.6269705e-06
0.0076865206
-1.5196629e-06
0.0076839135
-1.4194568e-06
0.0076814792
-1.3258743e-06
0.007679206
-1.238468e-06
0.0076770834
-1.1568254e-06
0.0076751012
-1.0805663e-06
0.0076732502
-1.0093385e-06
0.0076715216
-9.42814e-07
0.0076699072
-8.8068884e-07
0.0076683996
-8.2267102e-07
0.0076669915
-7.6848784e-07
0.0076656765
-7.1787611e-07
0.0076644483
-6.7059587e-07
0.0076633012
-6.2641526e-07
0.0076622299
-5.8513764e-07
0.0076612294
-5.4656727e-07
0.0076602949
-5.1054602e-07
0.007659422
-4.7689504e-07
0.0076586068
-4.4548708e-07
0.0076578453
-4.1613865e-07
0.0076571341
-3.8875602e-07
0.0076564698
-3.631479e-07
0.0076558492
-3.3926224e-07
0.0076552697
-3.1687694e-07
0.0076547283
-2.9604064e-07
0.0076542229
-2.7645773e-07
0.0076537506
-2.5827173e-07
0.0076533094
-2.4117237e-07
0.0076528971
-2.2548604e-07
0.0076525126
-2.104205e-07
0.0076521529
-1.9666806e-07
0.0076518173
-1.8360865e-07
0.0076515028
-1.7205571e-07
0.0076512105
-1.604046e-07
0.0076509355
-1.5028447e-07
0.0076506807
-1.4040182e-07
0.0076504386
-1.3208793e-07
0.0076502165
-1.2500551e-07
0.0076499999
-1.1934257e-07
-1.2571954e-07
0.0093061957
0.0082843931
0.0073298986
0.0064869553
0.0057695845
0.00518986
0.004738168
0.00439519
0.0041390268
0.003949107
0.003807888
0.0037013782
0.003619058
0.0035534117
0.0034992845
0.0034532444
0.0034130501
0.0033772574
0.0033449386
0.0033154893
0.0032885008
0.0032636805
0.003240805
0.0032196926
0.0032001879
0.0031821539
0.0031654672
0.0031500158
0.0031356979
0.0031224209
0.0031101003
0.0030986596
0.0030880291
0.0030781458
0.003068952
0.0030603955
0.0030524286
0.0030450076
0.0030380929
0.0030316478
0.0030256387
0.0030200349
0.0030148078
0.0030099313
0.0030053811
0.0030011347
0.0029971713
0.0029934717
0.002990018
0.0029867936
0.0029837829
0.0029809718
0.0029783467
0.0029758953
0.002973606
0.002971468
0.0029694711
0.0029676061
0.0029658642
0.0029642372
0.0029627175
0.0029612981
0.0029599722
0.0029587338
0.002957577
0.0029564965
0.0029554871
0.0029545443
0.0029536635
0.0029528408
0.0029520723
0.0029513545
0.0029506839
0.0029500576
0.0029494724
0.0029489259
0.0029484153
0.0029479384
0.0029474928
0.0029470767
0.0029466879
0.0029463248
0.0029459856
0.0029456688
0.0029453727
0.0029450963
0.002944838
0.0029445965
0.0029443711
0.002944161
0.0029439642
0.0029437803
0.0029436083
0.0029434482
0.002943298
0.0029431574
0.0029430253
0.0029429003
0.0029427809
)
;

boundaryField
{
    top
    {
        type            calculated;
        value           uniform 0;
    }
    inlet
    {
        type            calculated;
        value           nonuniform List<scalar> 10(-0.01 -0.01 -0.01 -0.01 -0.01 -0.01 -0.01 -0.01 -0.01 -0.01);
    }
    outlet
    {
        type            calculated;
        value           nonuniform List<scalar> 10(0.002942655 0.0076498148 0.011178072 0.01352789 0.014701569 0.014701569 0.01352789 0.011178072 0.007649815 0.0029426552);
    }
    bottom
    {
        type            calculated;
        value           uniform 0;
    }
    back
    {
        type            empty;
        value           nonuniform 0();
    }
    front
    {
        type            empty;
        value           nonuniform 0();
    }
}


// ************************************************************************* //
