/*--------------------------------*- C++ -*----------------------------------*\
| =========                 |                                                 |
| \\      /  F ield         | OpenFOAM: The Open Source CFD Toolbox           |
|  \\    /   O peration     | Version:  v1812                                 |
|   \\  /    A nd           | Web:      www.OpenFOAM.com                      |
|    \\/     M anipulation  |                                                 |
\*---------------------------------------------------------------------------*/
FoamFile
{
    version     2.0;
    format      ascii;
    class       surfaceScalarField;
    location    "9.8";
    object      phi;
}
// * * * * * * * * * * * * * * * * * * * * * * * * * * * * * * * * * * * * * //

dimensions      [0 3 -1 0 0 0 0];
oriented        oriented;


internalField   nonuniform List<scalar> 
1890
(
0.0093061957
0.00069380425
0.0082843931
0.0010218027
0.0073298986
0.00095449449
0.0064869553
0.00084294334
0.0057695845
0.0007173708
0.00518986
0.00057972444
0.004738168
0.00045169205
0.00439519
0.00034297801
0.0041390268
0.00025616318
0.003949107
0.00018991983
0.003807888
0.00014121897
0.0037013782
0.00010650979
0.003619058
8.2320217e-05
0.0035534117
6.5646244e-05
0.0034992845
5.4127258e-05
0.0034532444
4.6040054e-05
0.0034130501
4.0194299e-05
0.0033772574
3.579276e-05
0.0033449386
3.2318759e-05
0.0033154893
2.9449276e-05
0.0032885008
2.6988567e-05
0.0032636805
2.4820291e-05
0.003240805
2.2875474e-05
0.0032196926
2.1112417e-05
0.0032001879
1.9504663e-05
0.0031821539
1.803403e-05
0.0031654671
1.6686742e-05
0.0031500158
1.5451377e-05
0.0031356979
1.4317869e-05
0.0031224208
1.3277068e-05
0.0031101003
1.232058e-05
0.0030986596
1.1440705e-05
0.0030880291
1.063042e-05
0.0030781458
9.8833577e-06
0.003068952
9.1937746e-06
0.0030603955
8.5565104e-06
0.0030524285
7.9669411e-06
0.0030450076
7.4209274e-06
0.0030380928
6.914764e-06
0.0030316477
6.4451305e-06
0.0030256387
6.009045e-06
0.0030200349
5.6038241e-06
0.0030148078
5.2270451e-06
0.0030099313
4.8765148e-06
0.0030053811
4.5502418e-06
0.0030011346
4.2464122e-06
0.0029971713
3.9633709e-06
0.0029934716
3.6996033e-06
0.0029900179
3.4537216e-06
0.0029867935
3.2244519e-06
0.0029837829
3.010623e-06
0.0029809717
2.8111564e-06
0.0029783467
2.6250562e-06
0.0029758953
2.4514014e-06
0.0029736059
2.2893381e-06
0.0029714678
2.1380729e-06
0.002969471
1.9968692e-06
0.0029676059
1.8650424e-06
0.002965864
1.7419577e-06
0.0029642369
1.6270265e-06
0.0029627173
1.5197035e-06
0.0029612978
1.4194831e-06
0.0029599719
1.3258936e-06
0.0029587334
1.2384947e-06
0.0029575765
1.1568724e-06
0.0029564958
1.0806369e-06
0.0029554864
1.0094223e-06
0.0029545435
9.4288479e-07
0.0029536628
8.8070588e-07
0.0029528403
8.2258913e-07
0.002952072
7.6826191e-07
0.0029513546
7.1746905e-07
0.0029506846
6.6997264e-07
0.0029500591
6.2554239e-07
0.0029494751
5.8396192e-07
0.0029489301
5.4501552e-07
0.0029484215
5.0850922e-07
0.0029479473
4.7425054e-07
0.0029475053
4.4208115e-07
0.0029470935
4.1184022e-07
0.0029467102
3.8340957e-07
0.0029463536
3.5664638e-07
0.0029460221
3.3146457e-07
0.0029457144
3.0771145e-07
0.0029454291
2.8533823e-07
0.0029451649
2.6416454e-07
0.0029449207
2.4421753e-07
0.0029446955
2.2526725e-07
0.0029444881
2.0748114e-07
0.0029442977
1.9051224e-07
0.0029441229
1.7475949e-07
0.0029439633
1.5960851e-07
0.0029438175
1.4583343e-07
0.0029436851
1.3231617e-07
0.0029435647
1.2046426e-07
0.0029434563
1.0842333e-07
0.0029433577
9.859133e-08
0.0029432692
8.8374881e-08
0.0029431877
8.1333424e-08
7.6913321e-08
0.010339525
0.00035427932
0.010570754
0.00079057335
0.010606301
0.00091894821
0.010547572
0.00090167137
0.010422317
0.00084262624
0.010244356
0.00075768559
0.010039421
0.00065662744
0.0098287427
0.00055365586
0.009625135
0.00045977083
0.0094353013
0.00037975353
0.0092624277
0.00031409258
0.0091075332
0.00026140425
0.008970154
0.00021969948
0.0088489023
0.00018689786
0.0087419716
0.00016105803
0.0086474927
0.00014051896
0.008563694
0.00012399297
0.0084890107
0.00011047601
0.0084221096
9.9219868e-05
0.0083618775
8.9681394e-05
0.0083073954
8.1470653e-05
0.0082579079
7.4307832e-05
0.0082127929
6.7990488e-05
0.0081715353
6.2369991e-05
0.0081337049
5.7335027e-05
0.0080989388
5.2800204e-05
0.0080669272
4.8698288e-05
0.0080374036
4.4974973e-05
0.0080101361
4.1585399e-05
0.0079849213
3.8491843e-05
0.0079615798
3.5662141e-05
0.0079399519
3.3068592e-05
0.0079198951
3.0687155e-05
0.0079012817
2.8496842e-05
0.0078839962
2.6479249e-05
0.0078679345
2.4618169e-05
0.0078530022
2.2899279e-05
0.0078391132
2.1309883e-05
0.0078261893
1.9838689e-05
0.0078141588
1.8475621e-05
0.0078029562
1.7211659e-05
0.0077925213
1.6038702e-05
0.0077827989
1.4949452e-05
0.0077737381
1.3937317e-05
0.007765292
1.2996319e-05
0.0077574174
1.2121029e-05
0.0077500743
1.1306498e-05
0.0077432257
1.054821e-05
0.0077368374
9.8420307e-06
0.0077308776
9.1841737e-06
0.0077253171
8.5711615e-06
0.0077201285
7.9997963e-06
0.0077152864
7.4671329e-06
0.0077107674
6.9704532e-06
0.0077065494
6.5072451e-06
0.0077026123
6.0751831e-06
0.0076989371
5.6721123e-06
0.0076955061
5.2960351e-06
0.0076923029
4.9450993e-06
0.0076893124
4.617588e-06
0.0076865202
4.3119092e-06
0.0076839131
4.0265849e-06
0.0076814788
3.7602417e-06
0.0076792056
3.5115993e-06
0.007677083
3.2794617e-06
0.0076751009
3.0627097e-06
0.00767325
2.8602947e-06
0.0076715217
2.6712357e-06
0.0076699078
2.4946165e-06
0.0076684008
2.3295836e-06
0.0076669938
2.1753432e-06
0.0076656801
2.0311543e-06
0.0076644537
1.8963243e-06
0.0076633091
1.7701986e-06
0.0076622408
1.6521591e-06
0.0076612442
1.5416152e-06
0.0076603147
1.4380169e-06
0.0076594481
1.3408385e-06
0.0076586406
1.2496157e-06
0.0076578886
1.1638948e-06
0.0076571887
1.0833108e-06
0.0076565379
1.0074613e-06
0.0076559333
9.3607909e-07
0.0076553722
8.6876058e-07
0.0076548522
8.0535605e-07
0.0076543709
7.4539787e-07
0.0076539262
6.8894617e-07
0.0076535161
6.3536943e-07
0.0076531385
5.851232e-07
0.0076527919
5.3718073e-07
0.0076524739
4.9271953e-07
0.0076521837
4.4981194e-07
0.0076519185
4.1100299e-07
0.0076516783
3.724672e-07
0.0076514592
3.3949952e-07
0.0076512632
3.044215e-07
0.0076510834
2.7833411e-07
0.0076509261
2.4560053e-07
0.0076507773
2.2998714e-07
1.9627077e-07
0.010188704
0.00016557515
0.010530487
0.000448791
0.010851453
0.00059798177
0.011124174
0.00062895025
0.011350581
0.00061621887
0.011524486
0.00058378056
0.01164633
0.00053478421
0.011724155
0.00047583049
0.011767999
0.00041592665
0.011786639
0.00036111399
0.011787114
0.00031361711
0.011775058
0.00027346025
0.011754861
0.00023989718
0.011729768
0.00021199031
0.011702054
0.00018877261
0.011673239
0.00016933389
0.011644339
0.00015289297
0.011616003
0.00013881183
0.011588629
0.00012659379
0.011562446
0.00011586444
0.011537572
0.00010634493
0.011514052
9.7826994e-05
0.01149189
9.0153359e-05
0.011471056
8.3203368e-05
0.011451509
7.6882621e-05
0.011433193
7.1115573e-05
0.011416051
6.5840307e-05
0.011400021
6.1004921e-05
0.011385042
5.6565078e-05
0.011371051
5.248234e-05
0.01135799
4.8723024e-05
0.011345801
4.5257382e-05
0.01133443
4.2058989e-05
0.011323822
3.9104273e-05
0.011313929
3.6372131e-05
0.011304704
3.3843625e-05
0.011296101
3.1501716e-05
0.01128808
2.9331041e-05
0.011280601
2.7317721e-05
0.011273628
2.5449191e-05
0.011267125
2.3714055e-05
0.011261062
2.2101954e-05
0.011255408
2.0603455e-05
0.011250135
1.9209954e-05
0.011245218
1.7913584e-05
0.011240632
1.6707142e-05
0.011236354
1.5584024e-05
0.011232364
1.4538163e-05
0.011228642
1.3563981e-05
0.01122517
1.2656342e-05
0.011221931
1.1810511e-05
0.011218909
1.1022121e-05
0.011216089
1.0287139e-05
0.011213457
9.6018348e-06
0.011211002
8.962754e-06
0.01120871
8.3666972e-06
0.011206572
7.8106956e-06
0.011204576
7.2919946e-06
0.011202713
6.8080368e-06
0.011200974
6.3564476e-06
0.011199351
5.9350228e-06
0.011197836
5.541714e-06
0.011196421
5.1746177e-06
0.011195101
4.8319613e-06
0.011193868
4.5120917e-06
0.011192717
4.213465e-06
0.011191643
3.9346367e-06
0.01119064
3.6742553e-06
0.011189704
3.4310574e-06
0.011188829
3.2038618e-06
0.011188013
2.9915692e-06
0.011187251
2.7931506e-06
0.01118654
2.6076492e-06
0.011185876
2.4341618e-06
0.011185256
2.2718455e-06
0.011184678
2.119894e-06
0.011184138
1.9775632e-06
0.011183635
1.8441295e-06
0.011183166
1.7189587e-06
0.011182728
1.6014074e-06
0.011182321
1.4909734e-06
0.011181941
1.3870722e-06
0.011181588
1.2893542e-06
0.011181259
1.1972269e-06
0.011180954
1.1105414e-06
0.011180671
1.0285772e-06
0.011180408
9.5153404e-07
0.011180165
8.7834689e-07
0.011179941
8.0990168e-07
0.011179733
7.4432984e-07
0.011179542
6.8388857e-07
0.011179367
6.2489766e-07
0.011179206
5.7239669e-07
0.011179059
5.18784e-07
0.011178924
4.7485622e-07
0.011178804
4.2486597e-07
0.01117869
3.914221e-07
0.011178594
3.4246655e-07
0.0111785
3.2368411e-07
2.7370239e-07
0.010097182
6.8393556e-05
0.010346961
0.00019901112
0.010662469
0.00028247387
0.010982753
0.00030866649
0.011290229
0.00030874342
0.011575251
0.00029875789
0.011829022
0.00028101346
0.012047865
0.00025698755
0.012233272
0.00023051982
0.01238924
0.00020514589
0.012520295
0.00018256236
0.012630755
0.00016299957
0.012724428
0.00014622491
0.012804515
0.00013190312
0.012873613
0.00011967427
0.012933772
0.00010917461
0.012986596
0.00010006907
0.013033332
9.2076366e-05
0.01307495
8.4975254e-05
0.013112216
7.8598614e-05
0.013145739
7.2822304e-05
0.013176012
6.7553938e-05
0.013203441
6.2723924e-05
0.013228366
5.8278897e-05
0.013251071
5.417699e-05
0.013271802
5.0384437e-05
0.01329077
4.6873171e-05
0.013308155
4.3619187e-05
0.013324119
4.0601469e-05
0.0133388
3.7801288e-05
0.013352321
3.5201759e-05
0.013364791
3.2787536e-05
0.013376306
3.0544599e-05
0.01338695
2.8460098e-05
0.0133968
2.6522232e-05
0.013405923
2.4720149e-05
0.013414381
2.3043858e-05
0.013422228
2.148416e-05
0.013429513
2.0032575e-05
0.013436281
1.8681285e-05
0.013442572
1.7423077e-05
0.013448423
1.6251291e-05
0.013453866
1.5159778e-05
0.013458933
1.414285e-05
0.013463652
1.3195248e-05
0.013468047
1.2312103e-05
0.013472142
1.1488906e-05
0.013475958
1.072148e-05
0.013479516
1.000595e-05
0.013482834
9.3387245e-06
0.013485928
8.7164716e-06
0.013488814
8.1360989e-06
0.013491507
7.5947353e-06
0.013494019
7.0897136e-06
0.013496363
6.6185553e-06
0.013498551
6.1789543e-06
0.013500593
5.768766e-06
0.013502499
5.3859937e-06
0.013504278
5.0287787e-06
0.013505939
4.6953918e-06
0.01350749
4.3842228e-06
0.013508938
4.0937735e-06
0.01351029
3.8226494e-06
0.013511552
3.5695499e-06
0.013512731
3.3332634e-06
0.013513832
3.1126558e-06
0.01351486
2.906668e-06
0.013515819
2.7143074e-06
0.013516716
2.5346443e-06
0.013517553
2.3668111e-06
0.013518335
2.2099956e-06
0.013519064
2.0634405e-06
0.013519746
1.9264396e-06
0.013520381
1.7983279e-06
0.013520975
1.6784875e-06
0.013521528
1.5663272e-06
0.013522044
1.461302e-06
0.013522526
1.3628819e-06
0.013522974
1.2705971e-06
0.013523392
1.1839718e-06
0.01352378
1.1026319e-06
0.013524141
1.0261362e-06
0.013524476
9.5423535e-07
0.013524787
8.8646845e-07
0.013525074
8.2276219e-07
0.01352534
7.62525e-07
0.013525586
7.0599305e-07
0.013525812
6.5223052e-07
0.01352602
6.0210023e-07
0.01352621
5.5387611e-07
0.013526385
5.0971371e-07
0.013526543
4.6614677e-07
0.013526688
4.2796434e-07
0.013526819
3.8802923e-07
0.013526937
3.5642269e-07
0.013527043
3.186697e-07
0.013527139
2.9508912e-07
0.013527224
2.5739615e-07
0.013527303
2.4458232e-07
2.0742126e-07
0.010068394
9.5754613e-13
0.010267405
3.4968438e-13
0.010549879
4.3799225e-13
0.010858545
1.0081123e-12
0.011167288
1.3127643e-12
0.011466046
8.9324858e-13
0.01174706
-1.4466161e-13
0.012004047
-1.3840844e-12
0.012234567
-2.1647686e-12
0.012439713
-2.2808237e-12
0.012622275
-1.7115581e-12
0.012785275
-4.9877622e-13
0.0129315
1.09856e-12
0.013063403
2.4068709e-12
0.013183077
3.0527364e-12
0.013292252
3.0711963e-12
0.013392321
2.3768535e-12
0.013484397
9.5760256e-13
0.013569373
-6.0082052e-13
0.013647971
-1.5297951e-12
0.013720794
-1.8772765e-12
0.013788347
-1.2703845e-12
0.013851071
1.0123852e-13
0.01390935
2.6606367e-12
0.013963527
4.7184619e-12
0.014013912
6.4086814e-12
0.014060785
7.1831492e-12
0.014104404
6.6082266e-12
0.014145005
5.400616e-12
0.014182807
3.8681498e-12
0.014218009
2.5966663e-12
0.014250796
2.6234539e-12
0.014281341
3.8670474e-12
0.014309801
6.4008993e-12
0.014336323
9.8698559e-12
0.014361043
1.3358056e-11
0.014384087
1.634898e-11
0.014405571
1.7938016e-11
0.014425604
1.8291657e-11
0.014444285
1.7551729e-11
0.014461708
1.6579562e-11
0.014477959
1.628865e-11
0.014493119
1.7093144e-11
0.014507262
1.9693986e-11
0.014520457
2.3623548e-11
0.014532769
2.8311819e-11
0.014544258
3.2879896e-11
0.014554979
3.6181748e-11
0.014564985
3.8057607e-11
0.014574324
3.8079968e-11
0.01458304
3.7020763e-11
0.014591177
3.5985837e-11
0.014598771
3.5457281e-11
0.014605861
3.6627347e-11
0.014612479
3.903741e-11
0.014618658
4.2204447e-11
0.014624427
4.5150425e-11
0.014629813
4.6422085e-11
0.014634842
4.5690633e-11
0.014639537
4.2456598e-11
0.014643921
3.7334614e-11
0.014648015
3.1829853e-11
0.014651838
2.6118224e-11
0.014655407
2.2020366e-11
0.01465874
1.8906274e-11
0.014661853
1.6406361e-11
0.01466476
1.2732633e-11
0.014667474
5.9360132e-12
0.014670009
-4.5738026e-12
0.014672375
-1.8630279e-11
0.014674585
-3.551008e-11
0.014676649
-5.2855198e-11
0.014678576
-6.9346078e-11
0.014680374
-8.2886915e-11
0.014682052
-9.3019922e-11
0.014683619
-1.019984e-10
0.01468508
-1.0991341e-10
0.014686443
-1.2182767e-10
0.014687714
-1.3606948e-10
0.014688898
-1.5530465e-10
0.014690001
-1.7469064e-10
0.014691027
-1.9329044e-10
0.014691982
-2.0513244e-10
0.014692868
-2.1043446e-10
0.014693691
-2.0496167e-10
0.014694454
-1.95368e-10
0.01469516
-1.7940915e-10
0.014695812
-1.6616421e-10
0.014696415
-1.529025e-10
0.014696969
-1.4436349e-10
0.014697479
-1.356132e-10
0.014697945
-1.2393527e-10
0.014698373
-1.0718917e-10
0.014698761
-7.7731841e-11
0.014699118
-4.5546993e-11
0.014699436
5.1892245e-12
0.014699731
3.63709e-11
0.014699989
8.4294851e-11
0.014700233
9.5538079e-11
1.2035094e-10
0.010068394
-6.8393554e-05
0.010267405
-0.00019901112
0.010549879
-0.00028247387
0.010858545
-0.00030866649
0.011167288
-0.00030874342
0.011466046
-0.00029875788
0.01174706
-0.00028101346
0.012004047
-0.00025698756
0.012234567
-0.00023051982
0.012439713
-0.0002051459
0.012622275
-0.00018256236
0.012785275
-0.00016299957
0.0129315
-0.00014622491
0.013063403
-0.00013190312
0.013183077
-0.00011967426
0.013292252
-0.00010917461
0.013392321
-0.00010006907
0.013484397
-9.2076366e-05
0.013569373
-8.4975256e-05
0.013647971
-7.8598618e-05
0.013720794
-7.2822307e-05
0.013788347
-6.755394e-05
0.013851071
-6.2723922e-05
0.01390935
-5.827889e-05
0.013963527
-5.417698e-05
0.014013912
-5.0384424e-05
0.014060785
-4.6873158e-05
0.014104404
-4.3619177e-05
0.014145005
-4.0601461e-05
0.014182807
-3.7801283e-05
0.014218009
-3.5201755e-05
0.014250796
-3.2787531e-05
0.014281341
-3.054459e-05
0.014309801
-2.8460083e-05
0.014336323
-2.6522211e-05
0.014361043
-2.4720122e-05
0.014384087
-2.3043828e-05
0.014405571
-2.1484128e-05
0.014425604
-2.0032544e-05
0.014444285
-1.8681255e-05
0.014461708
-1.7423048e-05
0.014477959
-1.6251262e-05
0.014493119
-1.5159745e-05
0.014507262
-1.4142811e-05
0.014520457
-1.3195201e-05
0.014532769
-1.2312048e-05
0.014544258
-1.1488844e-05
0.014554979
-1.0721414e-05
0.014564985
-1.0005882e-05
0.014574324
-9.3386583e-06
0.014583041
-8.7164071e-06
0.014591177
-8.136035e-06
0.014598771
-7.5946698e-06
0.014605861
-7.0896439e-06
0.01461248
-6.6184798e-06
0.014618658
-6.1788734e-06
0.014624427
-5.768682e-06
0.014629813
-5.3859103e-06
0.014634842
-5.0287e-06
0.014639537
-4.6953209e-06
0.014643921
-4.3841608e-06
0.014648015
-4.0937202e-06
0.014651838
-3.8226027e-06
0.014655407
-3.5695083e-06
0.014658741
-3.3332261e-06
0.014661853
-3.1126248e-06
0.01466476
-2.9066473e-06
0.014667474
-2.7143031e-06
0.014670009
-2.5346629e-06
0.014672376
-2.3668576e-06
0.014674586
-2.2100714e-06
0.014676649
-2.0635451e-06
0.014678576
-1.926568e-06
0.014680374
-1.7984769e-06
0.014682053
-1.6786527e-06
0.014683619
-1.5665098e-06
0.01468508
-1.4615038e-06
0.014686443
-1.3631102e-06
0.014687714
-1.2708554e-06
0.014688898
-1.1842656e-06
0.014690001
-1.1029568e-06
0.014691027
-1.0264885e-06
0.014691982
-9.546007e-07
0.014692868
-8.8683699e-07
0.014693691
-8.2311864e-07
0.014694454
-7.6286471e-07
0.01469516
-7.063088e-07
0.014695812
-6.5252678e-07
0.014696414
-6.023756e-07
0.014696969
-5.5413682e-07
0.014697478
-5.0995288e-07
0.014697945
-4.6636397e-07
0.014698373
-4.2814e-07
0.014698761
-3.8815846e-07
0.014699117
-3.564808e-07
0.014699436
-3.186549e-07
0.014699731
-2.9500285e-07
0.014699988
-2.5724969e-07
0.014700232
-2.4440354e-07
-2.0720125e-07
0.010097182
-0.00016557515
0.010346961
-0.000448791
0.010662469
-0.00059798177
0.010982753
-0.00062895025
0.011290229
-0.00061621886
0.011575251
-0.00058378055
0.011829022
-0.00053478421
0.012047865
-0.0004758305
0.012233272
-0.00041592666
0.01238924
-0.000361114
0.012520295
-0.00031361711
0.012630755
-0.00027346025
0.012724428
-0.00023989718
0.012804515
-0.00021199031
0.012873613
-0.00018877261
0.012933772
-0.00016933388
0.012986596
-0.00015289297
0.013033332
-0.00013881184
0.01307495
-0.0001265938
0.013112216
-0.00011586445
0.013145739
-0.00010634493
0.013176012
-9.7826991e-05
0.013203441
-9.0153351e-05
0.013228366
-8.3203357e-05
0.013251071
-7.6882609e-05
0.013271802
-7.1115563e-05
0.01329077
-6.5840301e-05
0.013308155
-6.1004919e-05
0.013324119
-5.6565079e-05
0.0133388
-5.2482341e-05
0.013352321
-4.8723022e-05
0.013364791
-4.5257374e-05
0.013376306
-4.2058975e-05
0.01338695
-3.9104253e-05
0.0133968
-3.6372108e-05
0.013405923
-3.3843601e-05
0.013414381
-3.1501694e-05
0.013422228
-2.9331023e-05
0.013429513
-2.7317706e-05
0.013436281
-2.5449176e-05
0.013442572
-2.3714037e-05
0.013448423
-2.210193e-05
0.013453866
-2.0603424e-05
0.013458933
-1.9209914e-05
0.013463652
-1.7913538e-05
0.013468047
-1.6707093e-05
0.013472142
-1.5583977e-05
0.013475959
-1.4538119e-05
0.013479517
-1.3563941e-05
0.013482834
-1.2656303e-05
0.013485928
-1.181047e-05
0.013488814
-1.1022075e-05
0.013491507
-1.0287084e-05
0.013494019
-9.6017714e-06
0.013496363
-8.9626853e-06
0.013498551
-8.3666285e-06
0.013500593
-7.8106332e-06
0.013502499
-7.2919422e-06
0.013504278
-6.8079957e-06
0.013505939
-6.3564147e-06
0.01350749
-5.9349926e-06
0.013508938
-5.5416816e-06
0.01351029
-5.1745795e-06
0.013511552
-4.8319198e-06
0.013512731
-4.5120533e-06
0.013513832
-4.2134391e-06
0.01351486
-3.9346334e-06
0.01351582
-3.6742789e-06
0.013516716
-3.4311094e-06
0.013517553
-3.2039356e-06
0.013518335
-2.9916569e-06
0.013519065
-2.7932438e-06
0.013519746
-2.6077448e-06
0.013520382
-2.4342612e-06
0.013520975
-2.2719598e-06
0.013521528
-2.1200312e-06
0.013522045
-1.9777375e-06
0.013522526
-1.8443392e-06
0.013522974
-1.7192042e-06
0.013523392
-1.6016719e-06
0.01352378
-1.491247e-06
0.013524141
-1.3873375e-06
0.013524476
-1.2896102e-06
0.013524786
-1.1974686e-06
0.013525074
-1.1107826e-06
0.01352534
-1.0288165e-06
0.013525585
-9.5178198e-07
0.013525811
-8.7859065e-07
0.013526019
-8.1013835e-07
0.013526209
-7.445394e-07
0.013526384
-6.8406666e-07
0.013526542
-6.2503123e-07
0.013526687
-5.7249156e-07
0.013526817
-5.188356e-07
0.013526936
-4.7487815e-07
0.013527042
-4.2485091e-07
0.013527138
-3.9138179e-07
0.013527223
-3.4238618e-07
0.013527302
-3.2356359e-07
-2.7352773e-07
0.010188704
-0.00035427932
0.010530487
-0.00079057335
0.010851453
-0.00091894821
0.011124174
-0.00090167137
0.011350581
-0.00084262624
0.011524486
-0.00075768559
0.01164633
-0.00065662745
0.011724155
-0.00055365587
0.011767999
-0.00045977083
0.011786639
-0.00037975353
0.011787114
-0.00031409257
0.011775058
-0.00026140424
0.011754861
-0.00021969947
0.011729768
-0.00018689786
0.011702054
-0.00016105803
0.011673239
-0.00014051896
0.011644339
-0.00012399298
0.011616003
-0.00011047601
0.011588629
-9.9219874e-05
0.011562446
-8.9681394e-05
0.011537572
-8.1470649e-05
0.011514052
-7.4307823e-05
0.01149189
-6.7990477e-05
0.011471056
-6.2369981e-05
0.011451509
-5.7335021e-05
0.011433193
-5.2800203e-05
0.011416051
-4.8698293e-05
0.011400021
-4.4974979e-05
0.011385042
-4.1585405e-05
0.011371051
-3.8491844e-05
0.01135799
-3.5662135e-05
0.011345801
-3.3068579e-05
0.01133443
-3.0687137e-05
0.011323822
-2.8496824e-05
0.011313929
-2.6479233e-05
0.011304704
-2.4618158e-05
0.011296101
-2.2899274e-05
0.01128808
-2.1309882e-05
0.011280601
-1.9838689e-05
0.011273628
-1.8475617e-05
0.011267125
-1.7211646e-05
0.011261062
-1.603868e-05
0.011255408
-1.4949423e-05
0.011250135
-1.3937284e-05
0.011245218
-1.2996287e-05
0.011240632
-1.2121002e-05
0.011236355
-1.1306479e-05
0.011232365
-1.0548197e-05
0.011228643
-9.8420202e-06
0.011225171
-9.1841595e-06
0.011221931
-8.5711384e-06
0.011218909
-7.9997619e-06
0.011216089
-7.4670888e-06
0.011213458
-6.9704049e-06
0.011211002
-6.5072e-06
0.011208711
-6.0751483e-06
0.011206572
-5.6720913e-06
0.011204576
-5.2960266e-06
0.011202713
-4.9450974e-06
0.011200974
-4.617584e-06
0.011199351
-4.3118953e-06
0.011197836
-4.026558e-06
0.011196422
-3.7602053e-06
0.011195101
-3.511563e-06
0.011193869
-3.2794383e-06
0.011192718
-3.0627102e-06
0.011191644
-2.8603237e-06
0.011190641
-2.671289e-06
0.011189704
-2.4946836e-06
0.01118883
-2.32965e-06
0.011188014
-2.1753989e-06
0.011187252
-2.0311961e-06
0.01118654
-1.8963603e-06
0.011185876
-1.7702423e-06
0.011185257
-1.6522282e-06
0.011184678
-1.5417198e-06
0.011184138
-1.4381601e-06
0.011183635
-1.3410085e-06
0.011183166
-1.249797e-06
0.011182728
-1.1640663e-06
0.01118232
-1.0834629e-06
0.011181941
-1.0075897e-06
0.011181587
-9.3619661e-07
0.011181259
-8.6887972e-07
0.011180953
-8.0549435e-07
0.01118067
-7.4555648e-07
0.011180407
-6.8912156e-07
0.011180164
-6.3554112e-07
0.011179939
-5.8527565e-07
0.011179732
-5.3729557e-07
0.011179541
-4.9279846e-07
0.011179366
-4.4985773e-07
0.011179204
-4.1103822e-07
0.011179058
-3.7249612e-07
0.011178922
-3.3953669e-07
0.011178802
-3.0444037e-07
0.011178689
-2.7833423e-07
0.011178592
-2.4556046e-07
0.011178498
-2.2993301e-07
-1.9617077e-07
0.010339525
-0.00069380425
0.010570754
-0.0010218027
0.010606301
-0.00095449448
0.010547572
-0.00084294334
0.010422317
-0.00071737081
0.010244356
-0.00057972444
0.010039421
-0.00045169205
0.0098287427
-0.00034297801
0.009625135
-0.00025616317
0.0094353013
-0.00018991982
0.0092624277
-0.00014121896
0.0091075332
-0.00010650979
0.008970154
-8.2320216e-05
0.0088489023
-6.5646247e-05
0.0087419716
-5.4127263e-05
0.0086474927
-4.604006e-05
0.008563694
-4.0194303e-05
0.0084890107
-3.5792762e-05
0.0084221096
-3.2318756e-05
0.0083618775
-2.944927e-05
0.0083073955
-2.698856e-05
0.0082579079
-2.4820285e-05
0.0082127929
-2.287547e-05
0.0081715353
-2.1112418e-05
0.0081337049
-1.9504666e-05
0.0080989388
-1.8034036e-05
0.0080669272
-1.6686748e-05
0.0080374036
-1.545138e-05
0.0080101361
-1.4317868e-05
0.0079849213
-1.3277063e-05
0.0079615798
-1.2320571e-05
0.0079399519
-1.1440695e-05
0.0079198952
-1.0630412e-05
0.0079012817
-9.8833534e-06
0.0078839962
-9.1937748e-06
0.0078679346
-8.5565144e-06
0.0078530022
-7.9669463e-06
0.0078391133
-7.420931e-06
0.0078261894
-6.9147633e-06
0.0078141589
-6.445124e-06
0.0078029563
-6.0090333e-06
0.0077925214
-5.6038093e-06
0.0077827991
-5.2270308e-06
0.0077737383
-4.8765044e-06
0.0077652922
-4.5502372e-06
0.0077574176
-4.2464134e-06
0.0077500745
-3.9633751e-06
0.0077432259
-3.6996066e-06
0.0077368376
-3.4537197e-06
0.0077308779
-3.2244424e-06
0.0077253174
-3.0106062e-06
0.0077201288
-2.8111351e-06
0.0077152867
-2.6250358e-06
0.0077107677
-2.451387e-06
0.0077065498
-2.2893329e-06
0.0077026127
-2.1380772e-06
0.0076989374
-1.9968789e-06
0.0076955065
-1.8650517e-06
0.0076923034
-1.7419599e-06
0.0076893128
-1.6270179e-06
0.0076865207
-1.519685e-06
0.0076839136
-1.4194594e-06
0.0076814792
-1.3258738e-06
0.0076792061
-1.2384869e-06
0.0076770835
-1.1568813e-06
0.0076751014
-1.080662e-06
0.0076732505
-1.0094552e-06
0.0076715221
-9.4291649e-07
0.0076699082
-8.8072516e-07
0.0076684012
-8.225929e-07
0.0076669941
-7.6825193e-07
0.0076656804
-7.1745648e-07
0.007664454
-6.6996807e-07
0.0076633092
-6.2555876e-07
0.0076622409
-5.8399867e-07
0.0076612442
-5.4507248e-07
0.0076603146
-5.0856871e-07
0.0076594479
-4.7430512e-07
0.0076586403
-4.4211444e-07
0.0076578881
-4.1185685e-07
0.0076571882
-3.8340946e-07
0.0076565373
-3.5664909e-07
0.0076559325
-3.3147472e-07
0.0076553713
-3.0774522e-07
0.0076548512
-2.8538421e-07
0.0076543698
-2.6422314e-07
0.0076539249
-2.4426399e-07
0.0076535148
-2.2530006e-07
0.0076531371
-2.0748667e-07
0.0076527904
-1.9050734e-07
0.0076524724
-1.7474856e-07
0.0076521821
-1.5961474e-07
0.0076519169
-1.4584806e-07
0.0076516767
-1.323398e-07
0.0076514577
-1.2047051e-07
0.0076512617
-1.0841752e-07
0.0076510819
-9.8577189e-08
0.0076509246
-8.838602e-08
0.0076507759
-8.1352097e-08
-7.6895447e-08
0.0093061958
0.0082843931
0.0073298986
0.0064869553
0.0057695844
0.00518986
0.004738168
0.00439519
0.0041390268
0.003949107
0.003807888
0.0037013782
0.003619058
0.0035534117
0.0034992845
0.0034532444
0.0034130501
0.0033772574
0.0033449386
0.0033154893
0.0032885008
0.0032636805
0.003240805
0.0032196926
0.0032001879
0.0031821539
0.0031654671
0.0031500158
0.0031356979
0.0031224208
0.0031101003
0.0030986596
0.0030880292
0.0030781458
0.003068952
0.0030603955
0.0030524286
0.0030450076
0.0030380929
0.0030316478
0.0030256387
0.0030200349
0.0030148079
0.0030099314
0.0030053811
0.0030011347
0.0029971713
0.0029934717
0.002990018
0.0029867936
0.002983783
0.0029809719
0.0029783468
0.0029758954
0.0029736061
0.002971468
0.0029694711
0.0029676061
0.0029658641
0.0029642371
0.0029627174
0.002961298
0.0029599721
0.0029587336
0.0029575767
0.002956496
0.0029554865
0.0029545436
0.0029536629
0.0029528404
0.0029520721
0.0029513547
0.0029506847
0.0029500591
0.0029494751
0.00294893
0.0029484214
0.0029479471
0.0029475051
0.0029470933
0.0029467099
0.0029463533
0.0029460218
0.002945714
0.0029454286
0.0029451644
0.0029449202
0.0029446949
0.0029444875
0.0029442971
0.0029441223
0.0029439627
0.0029438169
0.0029436845
0.0029435641
0.0029434557
0.0029433571
0.0029432686
0.0029431873
)
;

boundaryField
{
    top
    {
        type            calculated;
        value           uniform 0;
    }
    inlet
    {
        type            calculated;
        value           nonuniform List<scalar> 10(-0.01 -0.01 -0.01 -0.01 -0.01 -0.01 -0.01 -0.01 -0.01 -0.01);
    }
    outlet
    {
        type            calculated;
        value           nonuniform List<scalar> 10(0.0029431108 0.0076506579 0.011178422 0.01352737 0.01470044 0.01470044 0.013527368 0.011178421 0.0076506566 0.0029431104);
    }
    bottom
    {
        type            calculated;
        value           uniform 0;
    }
    back
    {
        type            empty;
        value           nonuniform 0();
    }
    front
    {
        type            empty;
        value           nonuniform 0();
    }
}


// ************************************************************************* //
