/*--------------------------------*- C++ -*----------------------------------*\
| =========                 |                                                 |
| \\      /  F ield         | OpenFOAM: The Open Source CFD Toolbox           |
|  \\    /   O peration     | Version:  v1812                                 |
|   \\  /    A nd           | Web:      www.OpenFOAM.com                      |
|    \\/     M anipulation  |                                                 |
\*---------------------------------------------------------------------------*/
FoamFile
{
    version     2.0;
    format      ascii;
    class       volVectorField;
    location    "13.05";
    object      U;
}
// * * * * * * * * * * * * * * * * * * * * * * * * * * * * * * * * * * * * * //

dimensions      [0 1 -1 0 0 0 0];


internalField   nonuniform List<vector> 
1000
(
(0.91890839 0.035821913 0)
(0.86271384 0.062195639 0)
(0.7870597 0.06251009 0)
(0.69536033 0.054550395 0)
(0.61089745 0.044531651 0)
(0.54411592 0.034015971 0)
(0.49343012 0.024187539 0)
(0.45479413 0.016144229 0)
(0.42544582 0.010265786 0)
(0.40347313 0.0063041457 0)
(0.38715767 0.0037976301 0)
(0.3749622 0.0023103387 0)
(0.36566193 0.0014930152 0)
(0.35836272 0.0010851181 0)
(0.35244267 0.000906072 0)
(0.347482 0.00084105132 0)
(0.34320348 0.00082372383 0)
(0.33942726 0.00081931023 0)
(0.33603793 0.00081185202 0)
(0.33296114 0.00079580139 0)
(0.33014778 0.00077081173 0)
(0.32756384 0.00073870977 0)
(0.3251842 0.00070188953 0)
(0.32298902 0.00066256579 0)
(0.32096172 0.00062249956 0)
(0.31908785 0.00058295735 0)
(0.31735449 0.00054477141 0)
(0.31574995 0.00050843399 0)
(0.3142636 0.00047419146 0)
(0.31288574 0.00044212455 0)
(0.31160755 0.00041220946 0)
(0.31042101 0.0003843617 0)
(0.30931883 0.00035846502 0)
(0.30829438 0.00033439037 0)
(0.30734165 0.00031200667 0)
(0.30645515 0.00029118756 0)
(0.30562991 0.00027181415 0)
(0.30486136 0.00025377666 0)
(0.30414535 0.00023697425 0)
(0.30347807 0.00022131484 0)
(0.30285601 0.00020671429 0)
(0.30227596 0.00019309569 0)
(0.30173496 0.0001803887 0)
(0.30123029 0.00016852886 0)
(0.30075942 0.00015745696 0)
(0.30032002 0.00014711864 0)
(0.29990993 0.00013746367 0)
(0.29952715 0.00012844577 0)
(0.29916983 0.00012002194 0)
(0.29883624 0.00011215232 0)
(0.29852478 0.00010479985 0)
(0.29823397 9.7929926e-05 0)
(0.29796241 9.151046e-05 0)
(0.29770883 8.5511499e-05 0)
(0.29747201 7.9905235e-05 0)
(0.29725084 7.4665892e-05 0)
(0.29704429 6.9769421e-05 0)
(0.29685137 6.5193566e-05 0)
(0.29667119 6.0917485e-05 0)
(0.2965029 5.692162e-05 0)
(0.29634572 5.3187717e-05 0)
(0.2961989 4.9698306e-05 0)
(0.29606176 4.6437291e-05 0)
(0.29593366 4.3389383e-05 0)
(0.29581401 4.0540645e-05 0)
(0.29570224 3.787808e-05 0)
(0.29559783 3.5389796e-05 0)
(0.29550031 3.306467e-05 0)
(0.29540922 3.0892402e-05 0)
(0.29532413 2.8862961e-05 0)
(0.29524464 2.6967143e-05 0)
(0.29517039 2.5195711e-05 0)
(0.29510104 2.354036e-05 0)
(0.29503625 2.1993028e-05 0)
(0.29497572 2.0546718e-05 0)
(0.29491919 1.9194579e-05 0)
(0.29486638 1.7931382e-05 0)
(0.29481705 1.6750901e-05 0)
(0.29477096 1.5649256e-05 0)
(0.29472792 1.4619904e-05 0)
(0.29468772 1.3659758e-05 0)
(0.29465016 1.2761499e-05 0)
(0.29461507 1.1923497e-05 0)
(0.2945823 1.1137581e-05 0)
(0.29455168 1.0405454e-05 0)
(0.29452308 9.7171184e-06 0)
(0.29449635 9.079332e-06 0)
(0.29447141 8.4775034e-06 0)
(0.29444809 7.9248193e-06 0)
(0.29442633 7.399307e-06 0)
(0.29440597 6.9219835e-06 0)
(0.29438699 6.4611987e-06 0)
(0.29436922 6.0496966e-06 0)
(0.29435261 5.6499093e-06 0)
(0.29433715 5.2992343e-06 0)
(0.29432248 4.9758939e-06 0)
(0.29430918 4.6871706e-06 0)
(0.29429569 4.5355755e-06 0)
(0.29428501 4.4053804e-06 0)
(0.29426874 5.0535033e-06 0)
(1.0016583 0.05381943 0)
(1.0359761 0.10128444 0)
(1.0597199 0.11073663 0)
(1.0628947 0.10592202 0)
(1.0515569 0.096228728 0)
(1.0340529 0.08393406 0)
(1.0142795 0.070327062 0)
(0.99360703 0.056981333 0)
(0.97292577 0.045107479 0)
(0.9531074 0.03523675 0)
(0.93479538 0.027401651 0)
(0.91829012 0.021387228 0)
(0.90362379 0.016884499 0)
(0.89068067 0.013569709 0)
(0.87928174 0.011147748 0)
(0.86923242 0.0093736583 0)
(0.86034423 0.0080569277 0)
(0.85244667 0.0070571273 0)
(0.84539241 0.0062752384 0)
(0.83905793 0.0056438288 0)
(0.83334126 0.0051180913 0)
(0.82815884 0.0046686725 0)
(0.82344212 0.0042764172 0)
(0.81913467 0.0039287384 0)
(0.81518962 0.0036172031 0)
(0.81156765 0.0033359699 0)
(0.80823544 0.0030808036 0)
(0.8051644 0.0028484686 0)
(0.80232979 0.002636369 0)
(0.79970999 0.0024423383 0)
(0.79728597 0.0022645187 0)
(0.79504086 0.0021012899 0)
(0.79295963 0.0019512254 0)
(0.7910288 0.0018130632 0)
(0.78923627 0.0016856837 0)
(0.7875711 0.0015680927 0)
(0.78602338 0.0014594058 0)
(0.78458412 0.0013588357 0)
(0.78324511 0.0012656802 0)
(0.78199889 0.0011793114 0)
(0.78083861 0.0010991669 0)
(0.77975799 0.0010247411 0)
(0.77875128 0.00095557862 0)
(0.77781318 0.00089126813 0)
(0.77693881 0.00083143696 0)
(0.77612368 0.00077574669 0)
(0.77536362 0.00072388903 0)
(0.77465481 0.00067558249 0)
(0.77399367 0.00063056933 0)
(0.77337693 0.00058861289 0)
(0.77280153 0.0005494955 0)
(0.77226464 0.00051301653 0)
(0.77176363 0.00047899083 0)
(0.77129606 0.00044724751 0)
(0.77085967 0.00041762864 0)
(0.77045234 0.00038998829 0)
(0.77007212 0.00036419142 0)
(0.76971717 0.00034011289 0)
(0.76938581 0.00031763668 0)
(0.76907644 0.0002966546 0)
(0.7687876 0.0002770659 0)
(0.76851791 0.00025877649 0)
(0.76826609 0.00024169862 0)
(0.76803096 0.00022575067 0)
(0.76781139 0.00021085694 0)
(0.76760635 0.00019694725 0)
(0.76741488 0.00018395664 0)
(0.76723608 0.00017182448 0)
(0.76706909 0.00016049476 0)
(0.76691315 0.00014991414 0)
(0.76676751 0.00014003324 0)
(0.7666315 0.00013080459 0)
(0.76650446 0.00012218478 0)
(0.76638582 0.00011413188 0)
(0.76627501 0.00010660928 0)
(0.76617152 9.9580536e-05 0)
(0.76607485 9.3016097e-05 0)
(0.76598458 8.6883268e-05 0)
(0.76590025 8.1158607e-05 0)
(0.7658215 7.5809913e-05 0)
(0.76574793 7.0819201e-05 0)
(0.76567924 6.6152235e-05 0)
(0.76561504 6.1799215e-05 0)
(0.76555512 5.7721669e-05 0)
(0.7654991 5.3923797e-05 0)
(0.76544684 5.0358205e-05 0)
(0.76539795 4.7049928e-05 0)
(0.76535238 4.393181e-05 0)
(0.7653097 4.1059602e-05 0)
(0.76526996 3.8330315e-05 0)
(0.76523271 3.584619e-05 0)
(0.76519803 3.3444673e-05 0)
(0.76516557 3.1308121e-05 0)
(0.76513518 2.9189431e-05 0)
(0.76510712 2.7381836e-05 0)
(0.76507998 2.5521943e-05 0)
(0.76505663 2.4065618e-05 0)
(0.76503058 2.255002e-05 0)
(0.76501445 2.1596689e-05 0)
(0.76498348 2.0983251e-05 0)
(1.0014244 0.026824855 0)
(1.0291272 0.062791352 0)
(1.0654292 0.077736553 0)
(1.098962 0.0805972 0)
(1.1253149 0.078285171 0)
(1.145053 0.073153899 0)
(1.1594858 0.066111278 0)
(1.1694287 0.058162063 0)
(1.1755354 0.050296754 0)
(1.1785738 0.043150709 0)
(1.1793571 0.036972826 0)
(1.1785949 0.031771633 0)
(1.1768304 0.02745184 0)
(1.1744518 0.023886768 0)
(1.1717287 0.020947619 0)
(1.1688444 0.01851578 0)
(1.1659195 0.016488084 0)
(1.1630317 0.014779502 0)
(1.1602295 0.013322985 0)
(1.1575415 0.012067133 0)
(1.1549828 0.010973001 0)
(1.1525601 0.010011062 0)
(1.1502747 0.009158747 0)
(1.1481246 0.0083986041 0)
(1.1461059 0.0077169501 0)
(1.1442134 0.0071028875 0)
(1.1424414 0.0065475911 0)
(1.1407838 0.0060437948 0)
(1.1392344 0.0055854258 0)
(1.1377869 0.0051673447 0)
(1.1364353 0.0047851574 0)
(1.1351738 0.0044350768 0)
(1.1339968 0.0041138174 0)
(1.1328987 0.0038185134 0)
(1.1318746 0.0035466533 0)
(1.1309195 0.0032960272 0)
(1.1300289 0.0030646829 0)
(1.1291985 0.0028508901 0)
(1.1284242 0.0026531097 0)
(1.1277022 0.002469968 0)
(1.1270291 0.0023002352 0)
(1.1264014 0.002142807 0)
(1.1258161 0.0019966885 0)
(1.1252702 0.0018609813 0)
(1.1247612 0.0017348718 0)
(1.1242865 0.0016176215 0)
(1.1238437 0.0015085581 0)
(1.1234307 0.0014070684 0)
(1.1230455 0.0013125916 0)
(1.1226861 0.001224614 0)
(1.1223509 0.0011426637 0)
(1.1220381 0.001066307 0)
(1.1217462 0.00099514447 0)
(1.1214739 0.00092880788 0)
(1.1212198 0.00086695771 0)
(1.1209827 0.00080928048 0)
(1.1207614 0.00075548633 0)
(1.1205548 0.00070530715 0)
(1.1203621 0.00065849444 0)
(1.1201821 0.00061481747 0)
(1.1200142 0.00057406178 0)
(1.1198574 0.00053602797 0)
(1.1197111 0.00050053075 0)
(1.1195745 0.0004673976 0)
(1.1194469 0.00043646882 0)
(1.1193278 0.00040759596 0)
(1.1192167 0.00038064145 0)
(1.1191129 0.00035547685 0)
(1.119016 0.0003319832 0)
(1.1189255 0.00031004851 0)
(1.118841 0.00028956911 0)
(1.1187621 0.00027044607 0)
(1.1186884 0.00025258972 0)
(1.1186197 0.00023591296 0)
(1.1185554 0.00022033962 0)
(1.1184954 0.00020579325 0)
(1.1184394 0.00019221095 0)
(1.1183871 0.00017952346 0)
(1.1183382 0.00016768086 0)
(1.1182926 0.00015661576 0)
(1.11825 0.00014629174 0)
(1.1182103 0.00013663757 0)
(1.118173 0.00012763629 0)
(1.1181384 0.00011920583 0)
(1.1181059 0.00011135994 0)
(1.1180757 0.00010399082 0)
(1.1180473 9.7162222e-05 0)
(1.1180211 9.0712316e-05 0)
(1.1179962 8.4788907e-05 0)
(1.1179734 7.9124727e-05 0)
(1.1179516 7.4018623e-05 0)
(1.1179318 6.9003479e-05 0)
(1.1179128 6.4656064e-05 0)
(1.1178955 6.0149443e-05 0)
(1.117879 5.6575135e-05 0)
(1.1178635 5.2423797e-05 0)
(1.11785 4.9735906e-05 0)
(1.1178349 4.5797182e-05 0)
(1.1178262 4.4315399e-05 0)
(1.1178083 4.0563711e-05 0)
(1.0007347 0.011814721 0)
(1.0178472 0.030860926 0)
(1.0462163 0.041434441 0)
(1.0799018 0.04519357 0)
(1.1132664 0.045502351 0)
(1.143782 0.044080307 0)
(1.1708941 0.041439982 0)
(1.1945687 0.037973678 0)
(1.2148582 0.03419573 0)
(1.2319652 0.030536887 0)
(1.2462683 0.027222045 0)
(1.2582339 0.024313921 0)
(1.2683135 0.021797888 0)
(1.2768875 0.019633659 0)
(1.2842554 0.017773826 0)
(1.2906479 0.016169651 0)
(1.296243 0.01477559 0)
(1.3011791 0.013552298 0)
(1.3055645 0.012467864 0)
(1.3094838 0.011497467 0)
(1.3130042 0.010622162 0)
(1.3161792 0.0098275136 0)
(1.3190526 0.009102411 0)
(1.3216607 0.0084381763 0)
(1.3240343 0.0078279031 0)
(1.3261995 0.0072659736 0)
(1.3281786 0.006747708 0)
(1.3299913 0.0062691164 0)
(1.3316544 0.0058267275 0)
(1.3331829 0.0054174738 0)
(1.3345896 0.005038613 0)
(1.3358862 0.0046876745 0)
(1.3370827 0.00436242 0)
(1.3381882 0.0040608149 0)
(1.3392108 0.0037810043 0)
(1.3401576 0.0035212947 0)
(1.3410349 0.003280138 0)
(1.3418486 0.003056117 0)
(1.3426038 0.0028479335 0)
(1.3433051 0.0026543974 0)
(1.3439569 0.0024744162 0)
(1.3445629 0.0023069866 0)
(1.3451267 0.0021511865 0)
(1.3456513 0.0020061674 0)
(1.3461398 0.0018711484 0)
(1.3465947 0.0017454096 0)
(1.3470185 0.0016282874 0)
(1.3474135 0.0015191688 0)
(1.3477816 0.0014174873 0)
(1.3481249 0.0013227192 0)
(1.3484449 0.0012343797 0)
(1.3487435 0.0011520197 0)
(1.349022 0.0010752234 0)
(1.3492818 0.0010036055 0)
(1.3495242 0.00093680859 0)
(1.3497505 0.00087450161 0)
(1.3499616 0.00081637706 0)
(1.3501587 0.00076214936 0)
(1.3503427 0.00071155296 0)
(1.3505145 0.00066434085 0)
(1.3506748 0.00062028313 0)
(1.3508245 0.00057916558 0)
(1.3509643 0.00054078916 0)
(1.3510948 0.00050496841 0)
(1.3512167 0.00047153155 0)
(1.3513305 0.00044031862 0)
(1.3514368 0.0004111813 0)
(1.3515361 0.00038398044 0)
(1.3516288 0.000358587 0)
(1.3517153 0.00033487918 0)
(1.3517962 0.00031274481 0)
(1.3518717 0.00029207667 0)
(1.3519422 0.00027277837 0)
(1.3520081 0.00025475586 0)
(1.3520696 0.00023792792 0)
(1.3521271 0.00022221122 0)
(1.3521807 0.00020753867 0)
(1.3522309 0.00019383314 0)
(1.3522777 0.00018104202 0)
(1.3523215 0.00016908882 0)
(1.3523623 0.00015793829 0)
(1.3524005 0.00014750725 0)
(1.352436 0.00013778665 0)
(1.3524695 0.00012867603 0)
(1.3525004 0.0001202086 0)
(1.3525296 0.00011224284 0)
(1.3525565 0.00010488367 0)
(1.3525822 9.7904526e-05 0)
(1.3526054 9.1533272e-05 0)
(1.3526282 8.5382532e-05 0)
(1.352648 7.991675e-05 0)
(1.3526684 7.4434628e-05 0)
(1.352685 6.9818314e-05 0)
(1.3527037 6.4833532e-05 0)
(1.352717 6.1121971e-05 0)
(1.3527348 5.6432057e-05 0)
(1.3527446 5.3727979e-05 0)
(1.3527628 4.913327e-05 0)
(1.3527683 4.7706374e-05 0)
(1.3527888 4.2951406e-05 0)
(1.0005903 0.0034629153 0)
(1.0136865 0.0093660193 0)
(1.0370283 0.013046806 0)
(1.0674202 0.014563261 0)
(1.1000315 0.014854525 0)
(1.1316428 0.014564991 0)
(1.1610745 0.013888338 0)
(1.1880674 0.012919246 0)
(1.2125205 0.011806507 0)
(1.2343939 0.010696427 0)
(1.2538077 0.0096727422 0)
(1.2710339 0.0087628217 0)
(1.286401 0.0079659731 0)
(1.3002112 0.007272214 0)
(1.3127102 0.0066688081 0)
(1.3240903 0.0061419253 0)
(1.3345036 0.0056780726 0)
(1.3440716 0.0052653217 0)
(1.3528927 0.0048939359 0)
(1.3610463 0.0045563966 0)
(1.3685975 0.0042470702 0)
(1.3756004 0.0039617759 0)
(1.3821012 0.0036973972 0)
(1.3881402 0.0034515819 0)
(1.3937533 0.0032225177 0)
(1.3989728 0.0030087691 0)
(1.403828 0.0028091574 0)
(1.4083456 0.002622679 0)
(1.4125503 0.0024484498 0)
(1.4164646 0.0022856712 0)
(1.4201094 0.0021336081 0)
(1.423504 0.0019915766 0)
(1.426666 0.0018589365 0)
(1.4296121 0.0017350859 0)
(1.4323573 0.0016194584 0)
(1.4349159 0.0015115211 0)
(1.4373007 0.0014107727 0)
(1.4395241 0.0013167419 0)
(1.441597 0.0012289863 0)
(1.4435301 0.0011470909 0)
(1.4453328 0.0010706671 0)
(1.4470143 0.00099935056 0)
(1.4485827 0.00093280095 0)
(1.4500459 0.00087070012 0)
(1.451411 0.0008127506 0)
(1.4526846 0.00075867473 0)
(1.4538731 0.00070821329 0)
(1.4549822 0.00066112402 0)
(1.4560172 0.00061718075 0)
(1.4569831 0.00057617218 0)
(1.4578847 0.00053790113 0)
(1.4587262 0.00050218363 0)
(1.4595117 0.00046884828 0)
(1.460245 0.00043773557 0)
(1.4609295 0.00040869639 0)
(1.4615685 0.00038159194 0)
(1.4621651 0.00035629299 0)
(1.4627221 0.0003326788 0)
(1.4632422 0.00031063646 0)
(1.4637278 0.00029006053 0)
(1.4641811 0.0002708527 0)
(1.4646045 0.00025292091 0)
(1.4649998 0.00023617959 0)
(1.4653689 0.00022054946 0)
(1.4657136 0.00020595652 0)
(1.4660355 0.0001923319 0)
(1.4663361 0.0001796118 0)
(1.4666168 0.00016773626 0)
(1.466879 0.00015664915 0)
(1.4671238 0.00014629688 0)
(1.4673524 0.00013663038 0)
(1.467566 0.00012760294 0)
(1.4677654 0.0001191726 0)
(1.4679516 0.00011129881 0)
(1.4681256 0.00010394674 0)
(1.468288 9.7080008e-05 0)
(1.4684397 9.0670375e-05 0)
(1.4685815 8.4683535e-05 0)
(1.4687138 7.9096841e-05 0)
(1.4688375 7.3875323e-05 0)
(1.4689529 6.9004702e-05 0)
(1.4690608 6.4446175e-05 0)
(1.4691614 6.0199266e-05 0)
(1.4692557 5.6215574e-05 0)
(1.4693433 5.2516673e-05 0)
(1.4694257 4.9032564e-05 0)
(1.4695019 4.5822341e-05 0)
(1.4695742 4.2768871e-05 0)
(1.4696402 3.9992647e-05 0)
(1.4697038 3.7297305e-05 0)
(1.4697606 3.4924297e-05 0)
(1.4698172 3.2507882e-05 0)
(1.4698653 3.050794e-05 0)
(1.4699167 2.8307825e-05 0)
(1.469956 2.6716891e-05 0)
(1.4700045 2.461884e-05 0)
(1.4700341 2.3473959e-05 0)
(1.4700831 2.1423171e-05 0)
(1.4701001 2.0822601e-05 0)
(1.4701556 1.8650655e-05 0)
(1.0005903 -0.0034629163 0)
(1.0136865 -0.00936602 0)
(1.0370283 -0.013046806 0)
(1.0674202 -0.014563261 0)
(1.1000315 -0.014854524 0)
(1.1316428 -0.01456499 0)
(1.1610745 -0.013888337 0)
(1.1880674 -0.012919245 0)
(1.2125205 -0.011806506 0)
(1.2343939 -0.010696427 0)
(1.2538077 -0.0096727428 0)
(1.2710339 -0.0087628226 0)
(1.286401 -0.0079659739 0)
(1.3002112 -0.0072722145 0)
(1.3127102 -0.0066688083 0)
(1.3240903 -0.0061419248 0)
(1.3345036 -0.0056780716 0)
(1.3440716 -0.0052653205 0)
(1.3528927 -0.0048939347 0)
(1.3610463 -0.0045563955 0)
(1.3685975 -0.0042470698 0)
(1.3756004 -0.0039617762 0)
(1.3821012 -0.0036973981 0)
(1.3881402 -0.0034515831 0)
(1.3937533 -0.0032225192 0)
(1.3989728 -0.0030087704 0)
(1.403828 -0.0028091582 0)
(1.4083456 -0.0026226791 0)
(1.4125503 -0.0024484493 0)
(1.4164646 -0.00228567 0)
(1.4201094 -0.0021336067 0)
(1.423504 -0.0019915755 0)
(1.426666 -0.0018589359 0)
(1.4296121 -0.0017350859 0)
(1.4323573 -0.001619459 0)
(1.4349159 -0.0015115222 0)
(1.4373007 -0.0014107736 0)
(1.4395241 -0.0013167424 0)
(1.441597 -0.0012289862 0)
(1.4435301 -0.0011470902 0)
(1.4453328 -0.0010706658 0)
(1.4470143 -0.00099934924 0)
(1.4485827 -0.00093280009 0)
(1.4500459 -0.00087069972 0)
(1.451411 -0.00081275084 0)
(1.4526846 -0.00075867558 0)
(1.4538731 -0.00070821422 0)
(1.4549822 -0.00066112458 0)
(1.4560172 -0.00061718055 0)
(1.4569831 -0.00057617102 0)
(1.4578847 -0.00053789929 0)
(1.4587262 -0.00050218178 0)
(1.4595117 -0.00046884696 0)
(1.460245 -0.00043773479 0)
(1.4609295 -0.00040869635 0)
(1.4615685 -0.00038159271 0)
(1.4621651 -0.00035629396 0)
(1.4627221 -0.00033267918 0)
(1.4632422 -0.00031063586 0)
(1.4637278 -0.00029005876 0)
(1.4641812 -0.00027084982 0)
(1.4646045 -0.00025291775 0)
(1.4649998 -0.00023617719 0)
(1.4653689 -0.00022054802 0)
(1.4657136 -0.00020595617 0)
(1.4660355 -0.00019233278 0)
(1.4663361 -0.00017961322 0)
(1.4666168 -0.0001677368 0)
(1.466879 -0.00015664795 0)
(1.4671238 -0.00014629397 0)
(1.4673524 -0.00013662628 0)
(1.467566 -0.00012759865 0)
(1.4677654 -0.00011916942 0)
(1.4679516 -0.00011129722 0)
(1.4681256 -0.00010394697 0)
(1.468288 -9.7081814e-05 0)
(1.4684397 -9.0672364e-05 0)
(1.4685815 -8.4684301e-05 0)
(1.4687138 -7.9095863e-05 0)
(1.4688375 -7.3872607e-05 0)
(1.4689529 -6.9000862e-05 0)
(1.4690608 -6.444232e-05 0)
(1.4691614 -6.0196478e-05 0)
(1.4692557 -5.621485e-05 0)
(1.4693433 -5.2518612e-05 0)
(1.4694257 -4.9036272e-05 0)
(1.4695019 -4.5825608e-05 0)
(1.4695742 -4.2771815e-05 0)
(1.4696402 -3.999589e-05 0)
(1.4697038 -3.7297229e-05 0)
(1.4697606 -3.4922405e-05 0)
(1.4698172 -3.251244e-05 0)
(1.4698653 -3.0514269e-05 0)
(1.4699167 -2.8306519e-05 0)
(1.469956 -2.6719985e-05 0)
(1.4700045 -2.4635678e-05 0)
(1.4700341 -2.3486969e-05 0)
(1.4700831 -2.1422267e-05 0)
(1.4701001 -2.0823203e-05 0)
(1.4701556 -1.866008e-05 0)
(1.0007347 -0.011814722 0)
(1.0178472 -0.030860927 0)
(1.0462163 -0.041434441 0)
(1.0799018 -0.04519357 0)
(1.1132664 -0.045502351 0)
(1.143782 -0.044080307 0)
(1.1708941 -0.041439982 0)
(1.1945687 -0.037973678 0)
(1.2148582 -0.034195729 0)
(1.2319652 -0.030536887 0)
(1.2462683 -0.027222045 0)
(1.2582339 -0.024313921 0)
(1.2683135 -0.021797888 0)
(1.2768875 -0.019633659 0)
(1.2842554 -0.017773826 0)
(1.2906479 -0.016169651 0)
(1.296243 -0.01477559 0)
(1.3011791 -0.013552297 0)
(1.3055645 -0.012467864 0)
(1.3094838 -0.011497466 0)
(1.3130042 -0.010622162 0)
(1.3161792 -0.0098275134 0)
(1.3190526 -0.0091024112 0)
(1.3216607 -0.008438177 0)
(1.3240343 -0.0078279042 0)
(1.3261995 -0.0072659748 0)
(1.3281786 -0.0067477089 0)
(1.3299913 -0.0062691168 0)
(1.3316544 -0.0058267273 0)
(1.3331829 -0.005417473 0)
(1.3345896 -0.0050386119 0)
(1.3358862 -0.0046876733 0)
(1.3370827 -0.0043624191 0)
(1.3381882 -0.0040608145 0)
(1.3392108 -0.0037810045 0)
(1.3401576 -0.0035212955 0)
(1.3410349 -0.0032801389 0)
(1.3418486 -0.0030561178 0)
(1.3426038 -0.0028479339 0)
(1.3433051 -0.0026543971 0)
(1.3439569 -0.0024744153 0)
(1.3445629 -0.0023069854 0)
(1.3451267 -0.0021511853 0)
(1.3456513 -0.0020061666 0)
(1.3461398 -0.0018711481 0)
(1.3465947 -0.0017454099 0)
(1.3470185 -0.001628288 0)
(1.3474135 -0.0015191694 0)
(1.3477816 -0.0014174876 0)
(1.3481249 -0.0013227189 0)
(1.3484449 -0.0012343787 0)
(1.3487435 -0.0011520183 0)
(1.349022 -0.0010752218 0)
(1.3492818 -0.0010036041 0)
(1.3495242 -0.00093680784 0)
(1.3497505 -0.00087450149 0)
(1.3499616 -0.00081637736 0)
(1.3501587 -0.00076214977 0)
(1.3503427 -0.00071155304 0)
(1.3505145 -0.00066434021 0)
(1.3506748 -0.00062028161 0)
(1.3508245 -0.00057916344 0)
(1.3509643 -0.00054078676 0)
(1.3510948 -0.00050496632 0)
(1.3512167 -0.00047153028 0)
(1.3513305 -0.00044031824 0)
(1.3514368 -0.00041118142 0)
(1.3515361 -0.00038398064 0)
(1.3516288 -0.00035858679 0)
(1.3517153 -0.00033487814 0)
(1.3517962 -0.00031274268 0)
(1.3518717 -0.00029207376 0)
(1.3519422 -0.00027277525 0)
(1.3520081 -0.00025475335 0)
(1.3520696 -0.00023792654 0)
(1.3521271 -0.00022221094 0)
(1.3521807 -0.0002075392 0)
(1.3522309 -0.00019383401 0)
(1.3522777 -0.00018104252 0)
(1.3523215 -0.00016908838 0)
(1.3523623 -0.00015793661 0)
(1.3524005 -0.00014750466 0)
(1.352436 -0.000137784 0)
(1.3524695 -0.00012867419 0)
(1.3525004 -0.00012020828 0)
(1.3525297 -0.00011224404 0)
(1.3525565 -0.00010488639 0)
(1.3525822 -9.7908144e-05 0)
(1.3526054 -9.1536514e-05 0)
(1.3526282 -8.5385349e-05 0)
(1.352648 -7.9920215e-05 0)
(1.3526684 -7.4436937e-05 0)
(1.352685 -6.9818607e-05 0)
(1.3527037 -6.4837125e-05 0)
(1.352717 -6.112931e-05 0)
(1.3527349 -5.6437137e-05 0)
(1.3527447 -5.3731509e-05 0)
(1.3527628 -4.9141024e-05 0)
(1.3527683 -4.7716886e-05 0)
(1.3527888 -4.2959939e-05 0)
(1.0014244 -0.026824854 0)
(1.0291272 -0.062791352 0)
(1.0654292 -0.077736553 0)
(1.098962 -0.0805972 0)
(1.1253149 -0.078285171 0)
(1.145053 -0.0731539 0)
(1.1594858 -0.066111278 0)
(1.1694287 -0.058162063 0)
(1.1755354 -0.050296754 0)
(1.1785738 -0.043150708 0)
(1.1793571 -0.036972825 0)
(1.1785949 -0.031771632 0)
(1.1768304 -0.027451839 0)
(1.1744518 -0.023886768 0)
(1.1717287 -0.02094762 0)
(1.1688444 -0.01851578 0)
(1.1659195 -0.016488085 0)
(1.1630317 -0.014779503 0)
(1.1602295 -0.013322985 0)
(1.1575415 -0.012067133 0)
(1.1549828 -0.010973001 0)
(1.1525601 -0.010011061 0)
(1.1502747 -0.0091587466 0)
(1.1481246 -0.0083986041 0)
(1.1461059 -0.0077169506 0)
(1.1442134 -0.0071028884 0)
(1.1424414 -0.0065475921 0)
(1.1407838 -0.0060437956 0)
(1.1392344 -0.0055854261 0)
(1.1377869 -0.0051673444 0)
(1.1364353 -0.0047851566 0)
(1.1351738 -0.0044350756 0)
(1.1339968 -0.0041138162 0)
(1.1328987 -0.0038185126 0)
(1.1318746 -0.0035466531 0)
(1.1309195 -0.0032960275 0)
(1.1300289 -0.0030646838 0)
(1.1291985 -0.0028508912 0)
(1.1284242 -0.0026531106 0)
(1.1277022 -0.0024699683 0)
(1.1270291 -0.0023002349 0)
(1.1264014 -0.002142806 0)
(1.1258161 -0.001996687 0)
(1.1252702 -0.0018609799 0)
(1.1247612 -0.0017348709 0)
(1.1242865 -0.0016176213 0)
(1.1238437 -0.0015085586 0)
(1.1234307 -0.0014070695 0)
(1.1230455 -0.0013125928 0)
(1.1226861 -0.0012246147 0)
(1.1223509 -0.0011426637 0)
(1.1220381 -0.001066306 0)
(1.1217462 -0.00099514258 0)
(1.1214739 -0.00092880576 0)
(1.1212198 -0.00086695597 0)
(1.1209827 -0.00080927951 0)
(1.1207614 -0.00075548647 0)
(1.1205548 -0.00070530831 0)
(1.1203621 -0.000658496 0)
(1.1201821 -0.00061481856 0)
(1.1200142 -0.00057406186 0)
(1.1198574 -0.0005360267 0)
(1.1197111 -0.00050052809 0)
(1.1195745 -0.00046739437 0)
(1.1194469 -0.00043646608 0)
(1.1193278 -0.00040759436 0)
(1.1192167 -0.00038064134 0)
(1.1191129 -0.00035547824 0)
(1.119016 -0.00033198539 0)
(1.1189255 -0.00031005016 0)
(1.118841 -0.00028956927 0)
(1.1187621 -0.00027044436 0)
(1.1186885 -0.0002525862 0)
(1.1186197 -0.00023590869 0)
(1.1185554 -0.00022033603 0)
(1.1184955 -0.00020579133 0)
(1.1184394 -0.00019221149 0)
(1.1183871 -0.00017952619 0)
(1.1183383 -0.00016768445 0)
(1.1182927 -0.00015661841 0)
(1.11825 -0.00014629221 0)
(1.1182103 -0.00013663553 0)
(1.1181731 -0.00012763236 0)
(1.1181384 -0.00011920149 0)
(1.1181059 -0.00011135701 0)
(1.1180757 -0.00010399067 0)
(1.1180473 -9.7165729e-05 0)
(1.1180211 -9.0718057e-05 0)
(1.1179962 -8.4794647e-05 0)
(1.1179734 -7.9130001e-05 0)
(1.1179516 -7.4022033e-05 0)
(1.1179318 -6.9001959e-05 0)
(1.1179128 -6.4652259e-05 0)
(1.1178955 -6.015109e-05 0)
(1.117879 -5.6579893e-05 0)
(1.1178635 -5.2426065e-05 0)
(1.11785 -4.974029e-05 0)
(1.1178349 -4.5807556e-05 0)
(1.1178262 -4.4324964e-05 0)
(1.1178083 -4.0568743e-05 0)
(1.0016583 -0.05381943 0)
(1.0359761 -0.10128444 0)
(1.0597199 -0.11073663 0)
(1.0628947 -0.10592202 0)
(1.0515569 -0.096228728 0)
(1.0340529 -0.083934061 0)
(1.0142795 -0.070327063 0)
(0.99360703 -0.056981333 0)
(0.97292577 -0.045107479 0)
(0.9531074 -0.03523675 0)
(0.93479538 -0.02740165 0)
(0.91829012 -0.021387227 0)
(0.90362379 -0.016884499 0)
(0.89068067 -0.013569709 0)
(0.87928174 -0.011147749 0)
(0.86923242 -0.0093736591 0)
(0.86034423 -0.0080569286 0)
(0.85244667 -0.0070571278 0)
(0.84539241 -0.0062752385 0)
(0.83905793 -0.0056438284 0)
(0.83334126 -0.0051180905 0)
(0.82815884 -0.0046686716 0)
(0.82344212 -0.0042764166 0)
(0.81913467 -0.0039287382 0)
(0.81518962 -0.0036172034 0)
(0.81156765 -0.0033359707 0)
(0.80823544 -0.0030808045 0)
(0.8051644 -0.0028484694 0)
(0.80232979 -0.0026363695 0)
(0.79970999 -0.0024423383 0)
(0.79728597 -0.0022645181 0)
(0.79504086 -0.0021012889 0)
(0.79295963 -0.0019512244 0)
(0.7910288 -0.0018130624 0)
(0.78923627 -0.0016856834 0)
(0.7875711 -0.001568093 0)
(0.78602338 -0.0014594066 0)
(0.78458412 -0.0013588368 0)
(0.78324511 -0.0012656812 0)
(0.78199889 -0.001179312 0)
(0.7808386 -0.0010991667 0)
(0.77975799 -0.0010247402 0)
(0.77875128 -0.00095557734 0)
(0.77781318 -0.00089126681 0)
(0.77693881 -0.00083143605 0)
(0.77612368 -0.00077574648 0)
(0.77536363 -0.00072388962 0)
(0.77465481 -0.00067558369 0)
(0.77399368 -0.00063057069 0)
(0.77337693 -0.00058861391 0)
(0.77280153 -0.00054949573 0)
(0.77226464 -0.00051301577 0)
(0.77176363 -0.00047898923 0)
(0.77129606 -0.00044724553 0)
(0.77085967 -0.00041762693 0)
(0.77045234 -0.00038998743 0)
(0.77007212 -0.00036419176 0)
(0.76971717 -0.0003401144 0)
(0.76938581 -0.00031763872 0)
(0.76907644 -0.00029665634 0)
(0.7687876 -0.00027706653 0)
(0.76851791 -0.00025877555 0)
(0.7682661 -0.00024169627 0)
(0.76803096 -0.00022574763 0)
(0.76781139 -0.00021085429 0)
(0.76760636 -0.00019694588 0)
(0.76741489 -0.00018395708 0)
(0.76723609 -0.00017182666 0)
(0.7670691 -0.00016049775 0)
(0.76691316 -0.0001499167 0)
(0.76676752 -0.00014003416 0)
(0.7666315 -0.00013080323 0)
(0.76650447 -0.00012218145 0)
(0.76638583 -0.00011412766 0)
(0.76627502 -0.00010660573 0)
(0.76617153 -9.9579057e-05 0)
(0.76607487 -9.301734e-05 0)
(0.76598459 -8.6886878e-05 0)
(0.76590026 -8.1163054e-05 0)
(0.76582151 -7.5813373e-05 0)
(0.76574794 -7.0820118e-05 0)
(0.76567924 -6.6150061e-05 0)
(0.76561505 -6.179477e-05 0)
(0.76555513 -5.7716819e-05 0)
(0.76549912 -5.3920643e-05 0)
(0.76544686 -5.0358397e-05 0)
(0.76539796 -4.705373e-05 0)
(0.76535239 -4.3937767e-05 0)
(0.76530971 -4.1065353e-05 0)
(0.76526997 -3.8334274e-05 0)
(0.76523271 -3.5846788e-05 0)
(0.76519804 -3.3440973e-05 0)
(0.76516557 -3.1303347e-05 0)
(0.76513518 -2.9187827e-05 0)
(0.76510713 -2.7383432e-05 0)
(0.76507998 -2.5526279e-05 0)
(0.76505663 -2.4072212e-05 0)
(0.76503058 -2.2555664e-05 0)
(0.76501445 -2.1599265e-05 0)
(0.76498346 -2.0985538e-05 0)
(0.91890839 -0.035821913 0)
(0.86271384 -0.062195638 0)
(0.7870597 -0.06251009 0)
(0.69536033 -0.054550395 0)
(0.61089745 -0.044531651 0)
(0.54411592 -0.034015971 0)
(0.49343012 -0.024187539 0)
(0.45479413 -0.016144229 0)
(0.42544582 -0.010265786 0)
(0.40347313 -0.0063041454 0)
(0.38715766 -0.0037976296 0)
(0.3749622 -0.0023103382 0)
(0.36566192 -0.0014930148 0)
(0.35836272 -0.0010851181 0)
(0.35244267 -0.0009060722 0)
(0.34748201 -0.00084105174 0)
(0.34320348 -0.00082372427 0)
(0.33942726 -0.00081931058 0)
(0.33603793 -0.00081185212 0)
(0.33296114 -0.00079580125 0)
(0.33014778 -0.00077081138 0)
(0.32756384 -0.00073870932 0)
(0.3251842 -0.00070188915 0)
(0.32298902 -0.00066256558 0)
(0.32096172 -0.00062249962 0)
(0.31908785 -0.00058295763 0)
(0.31735449 -0.00054477184 0)
(0.31574995 -0.00050843441 0)
(0.3142636 -0.00047419176 0)
(0.31288574 -0.00044212461 0)
(0.31160755 -0.00041220929 0)
(0.31042101 -0.00038436131 0)
(0.30931883 -0.00035846458 0)
(0.30829438 -0.00033438996 0)
(0.30734165 -0.00031200647 0)
(0.30645515 -0.0002911876 0)
(0.30562991 -0.00027181448 0)
(0.30486136 -0.00025377714 0)
(0.30414535 -0.00023697475 0)
(0.30347807 -0.00022131517 0)
(0.30285601 -0.00020671432 0)
(0.30227596 -0.00019309539 0)
(0.30173496 -0.00018038816 0)
(0.30123029 -0.00016852824 0)
(0.30075942 -0.0001574565 0)
(0.30032002 -0.00014711847 0)
(0.29990993 -0.0001374639 0)
(0.29952715 -0.00012844631 0)
(0.29916983 -0.00012002262 0)
(0.29883624 -0.00011215291 0)
(0.29852478 -0.0001048001 0)
(0.29823397 -9.7929735e-05 0)
(0.29796241 -9.1509821e-05 0)
(0.29770882 -8.5510608e-05 0)
(0.29747201 -7.9904405e-05 0)
(0.29725084 -7.4665411e-05 0)
(0.29704429 -6.9769541e-05 0)
(0.29685138 -6.5194268e-05 0)
(0.2966712 -6.0918526e-05 0)
(0.29650291 -5.6922629e-05 0)
(0.29634572 -5.3188217e-05 0)
(0.2961989 -4.9698116e-05 0)
(0.29606176 -4.6436351e-05 0)
(0.29593366 -4.3388048e-05 0)
(0.29581401 -4.0539371e-05 0)
(0.29570224 -3.7877363e-05 0)
(0.29559784 -3.5389947e-05 0)
(0.29550032 -3.306569e-05 0)
(0.29540922 -3.08939e-05 0)
(0.29532413 -2.8864403e-05 0)
(0.29524464 -2.696788e-05 0)
(0.29517039 -2.5195403e-05 0)
(0.29510104 -2.3539054e-05 0)
(0.29503625 -2.1991128e-05 0)
(0.29497573 -2.0545005e-05 0)
(0.29491919 -1.9193752e-05 0)
(0.29486638 -1.7931819e-05 0)
(0.29481705 -1.675257e-05 0)
(0.29477097 -1.5651443e-05 0)
(0.29472793 -1.4621769e-05 0)
(0.29468772 -1.3660475e-05 0)
(0.29465016 -1.2760666e-05 0)
(0.29461507 -1.1921505e-05 0)
(0.2945823 -1.1135197e-05 0)
(0.29455168 -1.0403822e-05 0)
(0.29452309 -9.7169856e-06 0)
(0.29449636 -9.0807891e-06 0)
(0.29447142 -8.4800956e-06 0)
(0.29444809 -7.9273782e-06 0)
(0.29442634 -7.4008376e-06 0)
(0.29440597 -6.9220068e-06 0)
(0.29438699 -6.4595182e-06 0)
(0.29436922 -6.0470923e-06 0)
(0.29435261 -5.6484006e-06 0)
(0.29433714 -5.2997159e-06 0)
(0.29432248 -4.9776312e-06 0)
(0.29430918 -4.6890449e-06 0)
(0.29429569 -4.5371909e-06 0)
(0.294285 -4.4062128e-06 0)
(0.29426873 -5.0542737e-06 0)
)
;

boundaryField
{
    top
    {
        type            fixedValue;
        value           uniform (0 0 0);
    }
    inlet
    {
        type            fixedValue;
        value           uniform (1 0 0);
    }
    outlet
    {
        type            zeroGradient;
    }
    bottom
    {
        type            fixedValue;
        value           uniform (0 0 0);
    }
    back
    {
        type            empty;
    }
    front
    {
        type            empty;
    }
}


// ************************************************************************* //
