/*--------------------------------*- C++ -*----------------------------------*\
| =========                 |                                                 |
| \\      /  F ield         | OpenFOAM: The Open Source CFD Toolbox           |
|  \\    /   O peration     | Version:  v1812                                 |
|   \\  /    A nd           | Web:      www.OpenFOAM.com                      |
|    \\/     M anipulation  |                                                 |
\*---------------------------------------------------------------------------*/
FoamFile
{
    version     2.0;
    format      ascii;
    class       surfaceScalarField;
    location    "17.15";
    object      phi;
}
// * * * * * * * * * * * * * * * * * * * * * * * * * * * * * * * * * * * * * //

dimensions      [0 3 -1 0 0 0 0];
oriented        oriented;


internalField   nonuniform List<scalar> 
1890
(
0.0093061958
0.00069380425
0.0082843931
0.0010218027
0.0073298986
0.00095449446
0.0064869553
0.00084294331
0.0057695845
0.00071737078
0.00518986
0.00057972443
0.004738168
0.00045169205
0.00439519
0.00034297802
0.0041390268
0.00025616318
0.003949107
0.00018991983
0.003807888
0.00014121897
0.0037013782
0.0001065098
0.003619058
8.2320219e-05
0.0035534117
6.5646243e-05
0.0034992845
5.4127248e-05
0.0034532444
4.6040037e-05
0.0034130502
4.0194282e-05
0.0033772574
3.5792748e-05
0.0033449386
3.2318757e-05
0.0033154894
2.9449282e-05
0.0032885008
2.6988583e-05
0.0032636805
2.4820307e-05
0.003240805
2.2875485e-05
0.0032196926
2.1112418e-05
0.0032001879
1.9504651e-05
0.0031821539
1.8034007e-05
0.0031654672
1.6686718e-05
0.0031500158
1.5451355e-05
0.0031356979
1.431786e-05
0.0031224209
1.327707e-05
0.0031101003
1.2320596e-05
0.0030986596
1.1440727e-05
0.0030880291
1.0630442e-05
0.0030781458
9.8833727e-06
0.003068952
9.1937753e-06
0.0030603955
8.5564956e-06
0.0030524286
7.9669133e-06
0.0030450076
7.4208966e-06
0.0030380929
6.9147421e-06
0.0030316478
6.4451208e-06
0.0030256387
6.0090556e-06
0.0030200349
5.6038476e-06
0.0030148078
5.2270769e-06
0.0030099313
4.8765427e-06
0.003005381
4.5502533e-06
0.0030011346
4.2464044e-06
0.0029971713
3.9633383e-06
0.0029934717
3.6995589e-06
0.002990018
3.453679e-06
0.0029867936
3.2244198e-06
0.002983783
3.0106186e-06
0.0029809718
2.8111759e-06
0.0029783467
2.6250946e-06
0.0029758953
2.4514442e-06
0.002973606
2.2893593e-06
0.0029714679
2.1380631e-06
0.0029694711
1.9968112e-06
0.0029676061
1.8649547e-06
0.0029658642
1.7418593e-06
0.0029642372
1.6269402e-06
0.0029627176
1.5196524e-06
0.0029612982
1.4194673e-06
0.0029599723
1.3259067e-06
0.0029587338
1.2385115e-06
0.002957577
1.1568615e-06
0.0029564964
1.0805844e-06
0.002955487
1.0093245e-06
0.0029545442
9.4276789e-07
0.0029536635
8.8063411e-07
0.0029528409
8.2261833e-07
0.0029520724
7.6846689e-07
0.0029513546
7.1789777e-07
0.002950684
6.7064902e-07
0.0029500575
6.2648502e-07
0.0029494724
5.8519157e-07
0.0029489258
5.465797e-07
0.0029484152
5.1051201e-07
0.0029479383
4.7681359e-07
0.0029474929
4.4539923e-07
0.0029470768
4.1607814e-07
0.002946688
3.8875297e-07
0.0029463249
3.6320964e-07
0.0029459856
3.3935614e-07
0.0029456687
3.1698338e-07
0.0029453726
2.9608093e-07
0.0029450962
2.7642203e-07
0.0029448379
2.5821278e-07
0.0029445967
2.4105856e-07
0.0029443712
2.2532815e-07
0.0029441609
2.1041334e-07
0.0029439642
1.9684872e-07
0.0029437803
1.8377603e-07
0.0029436083
1.7211459e-07
0.002943448
1.6037681e-07
0.0029432978
1.5018643e-07
0.0029431574
1.4029331e-07
0.0029430254
1.3210813e-07
0.0029429003
1.2511237e-07
0.0029427808
1.194167e-07
1.2577476e-07
0.010339525
0.00035427931
0.010570754
0.00079057333
0.010606301
0.00091894817
0.010547572
0.00090167133
0.010422317
0.0008426262
0.010244356
0.00075768557
0.010039421
0.00065662743
0.0098287427
0.00055365586
0.009625135
0.00045977083
0.0094353013
0.00037975353
0.0092624277
0.00031409258
0.0091075333
0.00026140425
0.008970154
0.00021969948
0.0088489024
0.00018689785
0.0087419716
0.00016105801
0.0086474927
0.00014051893
0.008563694
0.00012399295
0.0084890108
0.00011047599
0.0084221097
9.9219866e-05
0.0083618776
8.9681404e-05
0.0083073955
8.1470668e-05
0.0082579079
7.4307847e-05
0.0082127929
6.7990493e-05
0.0081715354
6.2369982e-05
0.008133705
5.7335006e-05
0.0080989388
5.2800174e-05
0.0080669273
4.8698256e-05
0.0080374037
4.4974949e-05
0.0080101362
4.1585384e-05
0.0079849214
3.8491844e-05
0.0079615798
3.5662153e-05
0.0079399519
3.3068613e-05
0.0079198952
3.0687175e-05
0.0079012817
2.8496853e-05
0.0078839962
2.6479244e-05
0.0078679346
2.4618145e-05
0.0078530022
2.2899244e-05
0.0078391133
2.1309846e-05
0.0078261894
1.9838663e-05
0.0078141589
1.8475614e-05
0.0078029563
1.7211669e-05
0.0077925214
1.6038729e-05
0.007782799
1.4949482e-05
0.0077737382
1.393734e-05
0.0077652921
1.2996323e-05
0.0077574175
1.2121003e-05
0.0077500744
1.1306452e-05
0.0077432258
1.0548148e-05
0.0077368375
9.8419713e-06
0.0077308778
9.1841345e-06
0.0077253173
8.5711459e-06
0.0077201286
7.9998144e-06
0.0077152866
7.4671667e-06
0.0077107675
6.9704847e-06
0.0077065496
6.5072494e-06
0.0077026125
6.075134e-06
0.0076989373
5.6720134e-06
0.0076955064
5.2958963e-06
0.0076923033
4.9449565e-06
0.0076893128
4.6174706e-06
0.0076865206
4.3118349e-06
0.0076839135
4.0265687e-06
0.0076814792
3.7602636e-06
0.007679206
3.5116418e-06
0.0076770834
3.2795023e-06
0.0076751012
3.0627405e-06
0.0076732501
2.8603518e-06
0.0076715215
2.6713899e-06
0.0076699072
2.4949733e-06
0.0076683996
2.3302869e-06
0.0076669915
2.1765256e-06
0.0076656765
2.032941e-06
0.0076644483
1.8988385e-06
0.0076633012
1.7735438e-06
0.0076622299
1.656494e-06
0.0076612293
1.5471308e-06
0.0076602948
1.4450051e-06
0.007659422
1.3496352e-06
0.0076586068
1.260646e-06
0.0076578453
1.1775482e-06
0.0076571341
1.1000386e-06
0.0076564698
1.027535e-06
0.0076558492
9.5989949e-07
0.0076552697
8.9649972e-07
0.0076547283
8.3743515e-07
0.0076542228
7.8189008e-07
0.0076537505
7.3046169e-07
0.0076533094
6.8214187e-07
0.0076528972
6.3760917e-07
0.0076525127
5.9496656e-07
0.0076521528
5.5670802e-07
0.0076518171
5.1954319e-07
0.0076515027
4.8640868e-07
0.0076512105
4.5244653e-07
0.0076509355
4.2510068e-07
0.0076506807
3.9526467e-07
0.0076504386
3.7432663e-07
0.0076502165
3.4708613e-07
0.0076499999
3.3606917e-07
3.1078048e-07
0.010188704
0.00016557515
0.010530487
0.00044879097
0.010851453
0.00059798174
0.011124174
0.00062895021
0.011350581
0.00061621883
0.011524486
0.00058378053
0.01164633
0.00053478419
0.011724155
0.00047583049
0.011767999
0.00041592665
0.011786639
0.00036111399
0.011787114
0.0003136171
0.011775058
0.00027346024
0.011754861
0.00023989717
0.011729768
0.00021199029
0.011702054
0.00018877259
0.011673239
0.00016933387
0.011644339
0.00015289295
0.011616003
0.00013881182
0.011588629
0.00012659379
0.011562446
0.00011586444
0.011537572
0.00010634493
0.011514052
9.782699e-05
0.01149189
9.015335e-05
0.011471056
8.3203354e-05
0.011451509
7.6882601e-05
0.011433193
7.1115553e-05
0.011416051
6.5840289e-05
0.011400021
6.1004903e-05
0.011385042
5.6565064e-05
0.011371051
5.2482328e-05
0.01135799
4.8723018e-05
0.011345801
4.525738e-05
0.01133443
4.2058988e-05
0.011323822
3.9104268e-05
0.011313929
3.6372118e-05
0.011304704
3.3843605e-05
0.011296101
3.1501692e-05
0.01128808
2.933102e-05
0.011280601
2.7317705e-05
0.011273628
2.5449183e-05
0.011267125
2.3714058e-05
0.011261062
2.210196e-05
0.011255408
2.0603463e-05
0.011250135
1.9209953e-05
0.011245218
1.7913568e-05
0.011240632
1.6707114e-05
0.011236354
1.5583982e-05
0.011232364
1.4538117e-05
0.011228643
1.3563936e-05
0.01122517
1.2656303e-05
0.011221931
1.1810493e-05
0.011218909
1.1022114e-05
0.011216089
1.0287139e-05
0.011213457
9.6018248e-06
0.011211002
8.9627161e-06
0.01120871
8.3666268e-06
0.011206572
7.810594e-06
0.011204576
7.291882e-06
0.011202713
6.8079244e-06
0.011200974
6.3563516e-06
0.011199351
5.9349622e-06
0.011197836
5.541682e-06
0.011196421
5.1746192e-06
0.011195101
4.8319836e-06
0.011193868
4.5121413e-06
0.011192718
4.2135622e-06
0.011191643
3.9348296e-06
0.01119064
3.6746242e-06
0.011189703
3.4317171e-06
0.011188829
3.2049272e-06
0.011188012
2.993196e-06
0.011187249
2.7954715e-06
0.011186537
2.6108293e-06
0.011185873
2.4383771e-06
0.011185252
2.2773369e-06
0.011184672
2.126923e-06
0.01118413
1.9865074e-06
0.011183625
1.8553617e-06
0.011183152
1.732984e-06
0.011182711
1.6186362e-06
0.011182299
1.5119397e-06
0.011181915
1.4121267e-06
0.011181556
1.3190688e-06
0.01118122
1.2318483e-06
0.011180907
1.1506987e-06
0.011180614
1.0745125e-06
0.011180341
1.0040939e-06
0.011180086
9.3725942e-07
0.011179847
8.7618877e-07
0.011179625
8.1774524e-07
0.011179416
7.6531019e-07
0.011179222
7.1275662e-07
0.01117904
6.6813524e-07
0.011178872
6.2104323e-07
0.011178712
5.8528862e-07
0.011178566
5.4113496e-07
0.011178425
5.1519291e-07
0.0111783
4.7223518e-07
0.011178177
4.5900224e-07
4.1608071e-07
0.010097182
6.8393549e-05
0.010346961
0.0001990111
0.010662469
0.00028247385
0.010982753
0.00030866646
0.011290229
0.00030874339
0.011575251
0.00029875786
0.011829022
0.00028101344
0.012047865
0.00025698754
0.012233272
0.00023051981
0.01238924
0.00020514589
0.012520295
0.00018256234
0.012630755
0.00016299955
0.012724428
0.00014622489
0.012804515
0.0001319031
0.012873613
0.00011967425
0.012933772
0.0001091746
0.012986596
0.00010006906
0.013033332
9.2076357e-05
0.01307495
8.4975243e-05
0.013112216
7.8598602e-05
0.013145739
7.2822292e-05
0.013176012
6.7553926e-05
0.013203441
6.2723908e-05
0.013228366
5.8278879e-05
0.013251071
5.4176975e-05
0.013271802
5.0384424e-05
0.01329077
4.6873159e-05
0.013308155
4.3619176e-05
0.013324119
4.0601455e-05
0.0133388
3.7801272e-05
0.013352321
3.5201741e-05
0.013364791
3.2787518e-05
0.013376306
3.054458e-05
0.01338695
2.8460078e-05
0.0133968
2.6522214e-05
0.013405923
2.4720133e-05
0.013414381
2.3043845e-05
0.013422228
2.1484148e-05
0.013429513
2.0032565e-05
0.013436281
1.8681276e-05
0.013442572
1.7423067e-05
0.013448423
1.6251283e-05
0.013453866
1.5159766e-05
0.013458933
1.4142832e-05
0.013463652
1.3195223e-05
0.013468047
1.2312073e-05
0.013472142
1.1488874e-05
0.013475959
1.0721445e-05
0.013479517
1.0005917e-05
0.013482834
9.3386962e-06
0.013485928
8.7164441e-06
0.013488814
8.1360765e-06
0.013491507
7.5947065e-06
0.013494019
7.0896726e-06
0.013496363
6.6185003e-06
0.013498551
6.1788897e-06
0.013500593
5.7686975e-06
0.013502499
5.3859218e-06
0.013504278
5.0287105e-06
0.013505939
4.6953327e-06
0.01350749
4.3841698e-06
0.013508938
4.0937352e-06
0.01351029
3.8226223e-06
0.013511552
3.5695417e-06
0.013512731
3.3332836e-06
0.013513832
3.1127276e-06
0.01351486
2.906832e-06
0.01351582
2.7146093e-06
0.013516716
2.5351479e-06
0.013517554
2.3675897e-06
0.013518336
2.2111216e-06
0.013519066
2.0650078e-06
0.013519748
1.9285692e-06
0.013520386
1.8011488e-06
0.013520981
1.682191e-06
0.013521537
1.5710932e-06
0.013522056
1.4673871e-06
0.013522541
1.3705164e-06
0.013522994
1.2800984e-06
0.013523417
1.195579e-06
0.013523812
1.1167258e-06
0.013524181
1.0429408e-06
0.013524526
9.7418449e-07
0.013524848
9.0972097e-07
0.013525149
8.4993681e-07
0.01352543
7.9367927e-07
0.013525692
7.4159589e-07
0.013525937
6.921417e-07
0.013526166
6.4740379e-07
0.01352638
6.0398692e-07
0.01352658
5.6503621e-07
0.013526766
5.2576228e-07
0.013526941
4.9381753e-07
0.013527104
4.5852558e-07
0.013527256
4.3257403e-07
0.013527398
3.9883826e-07
0.013527533
3.808454e-07
0.013527659
3.4710271e-07
0.013527779
3.3795449e-07
3.0561586e-07
0.010068394
-5.0911407e-12
0.010267405
-1.3172288e-11
0.010549879
-1.4279246e-11
0.010858545
-1.2322145e-11
0.011167288
-9.6128714e-12
0.011466046
-9.4976348e-12
0.01174706
-1.0332194e-11
0.012004047
-1.2095832e-11
0.012234567
-1.3805813e-11
0.012439713
-1.5351863e-11
0.012622275
-1.5203362e-11
0.012785275
-1.3793696e-11
0.0129315
-1.3364289e-11
0.013063403
-1.2993785e-11
0.013183077
-1.1778993e-11
0.013292252
-9.9470785e-12
0.013392321
-8.7831998e-12
0.013484397
-9.2050724e-12
0.013569373
-8.832698e-12
0.013647971
-7.807476e-12
0.013720793
-8.5389865e-12
0.013788347
-1.2276947e-11
0.013851071
-1.4911594e-11
0.01390935
-1.614044e-11
0.013963527
-1.3733838e-11
0.014013912
-8.5786008e-12
0.014060785
-4.7729697e-12
0.014104404
-2.7319058e-12
0.014145005
-2.1190916e-12
0.014182807
-5.6793492e-12
0.014218008
-9.7300554e-12
0.014250796
-1.4356945e-11
0.014281341
-1.737958e-11
0.014309801
-1.8376688e-11
0.014336323
-1.5945169e-11
0.014361043
-9.7025635e-12
0.014384087
-1.8796979e-12
0.014405571
5.5275912e-12
0.014425604
1.0620947e-11
0.014444285
1.281352e-11
0.014461708
1.1531997e-11
0.014477959
6.3504146e-12
0.014493119
1.430876e-12
0.014507262
-4.4833264e-12
0.014520457
-7.7074898e-12
0.014532769
-7.2818225e-12
0.014544258
-4.2059515e-12
0.014554979
2.0477273e-12
0.014564985
1.0878744e-11
0.014574324
1.9720356e-11
0.014583041
2.3173732e-11
0.014591177
1.723937e-11
0.014598771
8.3484704e-12
0.014605861
-3.7745138e-12
0.014612479
-1.5259017e-11
0.014618658
-1.6969191e-11
0.014624427
-9.0775381e-12
0.014629813
1.0934429e-13
0.014634842
1.488869e-11
0.014639537
2.35196e-11
0.014643921
2.3863311e-11
0.014648015
1.6521354e-11
0.014651837
7.9051634e-12
0.014655407
-2.9312891e-12
0.01465874
-1.4842279e-11
0.014661853
-1.7088301e-11
0.01466476
-1.1320079e-11
0.014667475
1.0767864e-12
0.01467001
2.2035031e-11
0.014672377
3.241478e-11
0.014674588
3.2382276e-11
0.014676653
1.6404971e-11
0.014678582
-1.1865208e-12
0.014680383
-2.2620737e-11
0.014682065
-3.4778831e-11
0.014683636
-2.4662723e-11
0.014685103
-3.9275578e-12
0.014686474
2.4592001e-11
0.014687755
4.2963204e-11
0.01468895
3.4295937e-11
0.014690066
1.589201e-11
0.01469111
1.5509913e-12
0.014692084
-3.4199772e-11
0.014692993
-4.9772677e-11
0.014693843
-1.1402628e-11
0.014694638
1.7167247e-11
0.014695379
9.1375686e-12
0.01469607
3.2603305e-11
0.014696718
1.1384425e-10
0.014697323
5.887941e-11
0.014697887
-1.0341832e-10
0.014698412
-1.3267621e-10
0.014698907
-5.3828784e-11
0.014699367
7.2435746e-11
0.014699798
1.0958709e-10
0.014700195
6.339164e-11
0.014700577
2.0260911e-11
0.014700925
-5.9730828e-11
0.014701263
-1.4588117e-10
-9.8214338e-11
0.010068394
-6.8393558e-05
0.010267405
-0.00019901113
0.010549879
-0.00028247388
0.010858545
-0.00030866649
0.011167288
-0.00030874342
0.011466046
-0.00029875789
0.01174706
-0.00028101346
0.012004047
-0.00025698756
0.012234567
-0.00023051983
0.012439713
-0.00020514591
0.012622275
-0.00018256236
0.012785275
-0.00016299958
0.0129315
-0.00014622491
0.013063403
-0.00013190313
0.013183077
-0.00011967427
0.013292252
-0.00010917462
0.013392321
-0.00010006908
0.013484397
-9.2076368e-05
0.013569373
-8.4975255e-05
0.013647971
-7.8598616e-05
0.013720793
-7.2822308e-05
0.013788347
-6.7553944e-05
0.013851071
-6.2723935e-05
0.01390935
-5.8278908e-05
0.013963527
-5.4176997e-05
0.014013912
-5.038444e-05
0.014060785
-4.6873169e-05
0.014104404
-4.3619181e-05
0.014145005
-4.0601461e-05
0.014182807
-3.7801282e-05
0.014218008
-3.5201762e-05
0.014250796
-3.2787545e-05
0.014281341
-3.054461e-05
0.014309801
-2.8460109e-05
0.014336323
-2.6522237e-05
0.014361043
-2.4720143e-05
0.014384087
-2.3043844e-05
0.014405571
-2.1484139e-05
0.014425604
-2.0032548e-05
0.014444285
-1.8681254e-05
0.014461708
-1.7423051e-05
0.014477959
-1.6251271e-05
0.014493119
-1.5159761e-05
0.014507262
-1.4142836e-05
0.014520457
-1.3195235e-05
0.014532769
-1.2312086e-05
0.014544258
-1.148888e-05
0.014554979
-1.0721441e-05
0.014564985
-1.0005897e-05
0.014574324
-9.3386641e-06
0.014583041
-8.7164151e-06
0.014591177
-8.1360491e-06
0.014598771
-7.5946939e-06
0.014605861
-7.089678e-06
0.014612479
-6.6185174e-06
0.014618658
-6.1789071e-06
0.014624427
-5.768705e-06
0.014629813
-5.3859219e-06
0.014634842
-5.0286957e-06
0.014639537
-4.6952981e-06
0.014643921
-4.3841356e-06
0.014648015
-4.0937045e-06
0.014651837
-3.8226064e-06
0.014655407
-3.5695412e-06
0.01465874
-3.3333049e-06
0.014661853
-3.1127589e-06
0.01466476
-2.9068505e-06
0.014667475
-2.714608e-06
0.01467001
-2.5351242e-06
0.014672377
-2.3675402e-06
0.014674588
-2.2110837e-06
0.014676653
-2.0649852e-06
0.014678582
-1.9285724e-06
0.014680383
-1.8011796e-06
0.014682065
-1.6822238e-06
0.014683636
-1.5711153e-06
0.014685103
-1.4673837e-06
0.014686474
-1.3704882e-06
0.014687755
-1.2800669e-06
0.01468895
-1.1955513e-06
0.014690066
-1.116711e-06
0.01469111
-1.0429496e-06
0.014692084
-9.7421398e-07
0.014692993
-9.0976373e-07
0.014693843
-8.4993909e-07
0.014694638
-7.9364973e-07
0.014695379
-7.4159456e-07
0.01469607
-6.9213011e-07
0.014696718
-6.4727966e-07
0.014697323
-6.0382411e-07
0.014697887
-5.6527593e-07
0.014698412
-5.2611349e-07
0.014698907
-4.9355144e-07
0.014699367
-4.5816026e-07
0.014699798
-4.3277917e-07
0.014700196
-3.9912194e-07
0.014700577
-3.8077509e-07
0.014700925
-3.4700658e-07
0.014701263
-3.3808377e-07
-3.0573706e-07
0.010097182
-0.00016557515
0.010346961
-0.000448791
0.010662469
-0.00059798177
0.010982753
-0.00062895025
0.011290229
-0.00061621886
0.011575251
-0.00058378055
0.011829022
-0.0005347842
0.012047865
-0.0004758305
0.012233272
-0.00041592666
0.01238924
-0.000361114
0.012520295
-0.00031361712
0.012630755
-0.00027346026
0.012724428
-0.00023989719
0.012804515
-0.00021199032
0.012873613
-0.00018877261
0.012933772
-0.00016933388
0.012986596
-0.00015289296
0.013033332
-0.00013881183
0.01307495
-0.00012659379
0.013112216
-0.00011586445
0.013145739
-0.00010634494
0.013176012
-9.7827005e-05
0.013203441
-9.0153369e-05
0.013228366
-8.3203372e-05
0.013251071
-7.688262e-05
0.013271802
-7.1115566e-05
0.01329077
-6.5840295e-05
0.013308155
-6.1004909e-05
0.013324119
-5.6565071e-05
0.0133388
-5.2482341e-05
0.013352321
-4.8723031e-05
0.013364791
-4.5257395e-05
0.013376305
-4.2059003e-05
0.01338695
-3.9104279e-05
0.0133968
-3.6372128e-05
0.013405923
-3.3843612e-05
0.013414381
-3.1501695e-05
0.013422228
-2.9331015e-05
0.013429513
-2.7317695e-05
0.013436281
-2.5449171e-05
0.013442572
-2.371404e-05
0.013448423
-2.2101947e-05
0.013453866
-2.0603455e-05
0.013458933
-1.9209953e-05
0.013463652
-1.7913575e-05
0.013468047
-1.6707121e-05
0.013472142
-1.5583988e-05
0.013475958
-1.4538113e-05
0.013479517
-1.3563927e-05
0.013482834
-1.2656293e-05
0.013485928
-1.1810472e-05
0.013488814
-1.1022097e-05
0.013491507
-1.0287124e-05
0.013494019
-9.6018177e-06
0.013496363
-8.962721e-06
0.013498551
-8.3666408e-06
0.013500593
-7.8106166e-06
0.013502499
-7.2918912e-06
0.013504278
-6.807921e-06
0.013505939
-6.3563376e-06
0.01350749
-5.9349291e-06
0.013508938
-5.541649e-06
0.01351029
-5.1745927e-06
0.013511552
-4.8319795e-06
0.013512731
-4.5121519e-06
0.013513832
-4.2135835e-06
0.01351486
-3.9348576e-06
0.01351582
-3.6746408e-06
0.013516716
-3.4317145e-06
0.013517554
-3.2049183e-06
0.013518336
-2.9931648e-06
0.013519066
-2.7954395e-06
0.013519748
-2.6108083e-06
0.013520386
-2.4383698e-06
0.013520981
-2.2773474e-06
0.013521537
-2.1269536e-06
0.013522056
-1.986547e-06
0.013522541
-1.8553922e-06
0.013522994
-1.7329892e-06
0.013523417
-1.6186147e-06
0.013523812
-1.5118962e-06
0.013524181
-1.4120794e-06
0.013524526
-1.3190437e-06
0.013524848
-1.2318466e-06
0.013525149
-1.1507614e-06
0.01352543
-1.0745663e-06
0.013525692
-1.0040599e-06
0.013525937
-9.3724541e-07
0.013526166
-8.7630521e-07
0.01352638
-8.1778768e-07
0.01352658
-7.6503228e-07
0.013526766
-7.1250884e-07
0.013526941
-6.6833761e-07
0.013527105
-6.2134296e-07
0.013527257
-5.8527318e-07
0.013527398
-5.410281e-07
0.013527533
-5.1515013e-07
0.013527659
-4.7223218e-07
0.013527779
-4.590381e-07
-4.1607785e-07
0.010188704
-0.00035427932
0.010530487
-0.00079057335
0.010851453
-0.0009189482
0.011124174
-0.00090167137
0.011350581
-0.00084262623
0.011524486
-0.00075768559
0.01164633
-0.00065662744
0.011724155
-0.00055365586
0.011767999
-0.00045977083
0.011786639
-0.00037975354
0.011787114
-0.00031409259
0.011775058
-0.00026140427
0.011754861
-0.00021969949
0.011729768
-0.00018689787
0.011702054
-0.00016105802
0.011673239
-0.00014051894
0.011644339
-0.00012399295
0.011616003
-0.00011047599
0.011588629
-9.9219868e-05
0.011562446
-8.9681405e-05
0.011537572
-8.1470672e-05
0.011514052
-7.4307852e-05
0.011491889
-6.7990502e-05
0.011471056
-6.2369993e-05
0.011451509
-5.7335016e-05
0.011433193
-5.2800185e-05
0.011416051
-4.8698266e-05
0.011400021
-4.4974955e-05
0.011385041
-4.1585393e-05
0.011371051
-3.8491849e-05
0.01135799
-3.5662158e-05
0.011345801
-3.3068614e-05
0.011334429
-3.0687174e-05
0.011323822
-2.8496851e-05
0.011313929
-2.6479243e-05
0.011304704
-2.4618148e-05
0.011296101
-2.2899249e-05
0.01128808
-2.1309852e-05
0.011280601
-1.9838665e-05
0.011273628
-1.847561e-05
0.011267125
-1.7211661e-05
0.011261062
-1.6038715e-05
0.011255408
-1.4949471e-05
0.011250135
-1.3937331e-05
0.011245218
-1.299632e-05
0.011240632
-1.2121009e-05
0.011236354
-1.1306457e-05
0.011232364
-1.0548155e-05
0.011228643
-9.8419777e-06
0.01122517
-9.1841358e-06
0.011221931
-8.5711463e-06
0.011218909
-7.9998022e-06
0.011216089
-7.4671505e-06
0.011213457
-6.9704653e-06
0.011211002
-6.5072348e-06
0.01120871
-6.0751383e-06
0.011206572
-5.6720291e-06
0.011204576
-5.2959226e-06
0.011202713
-4.9449767e-06
0.011200974
-4.6174779e-06
0.011199351
-4.311829e-06
0.011197836
-4.026541e-06
0.011196421
-3.7602324e-06
0.011195101
-3.5116128e-06
0.011193868
-3.279487e-06
0.011192718
-3.0627473e-06
0.011191643
-2.8603764e-06
0.01119064
-2.6714259e-06
0.011189703
-2.4950144e-06
0.011188829
-2.3303066e-06
0.011188012
-2.1765231e-06
0.011187249
-2.0329092e-06
0.011186537
-1.8987874e-06
0.011185873
-1.773497e-06
0.011185252
-1.6564708e-06
0.011184672
-1.5471443e-06
0.01118413
-1.445061e-06
0.011183625
-1.3497085e-06
0.011183152
-1.2607119e-06
0.011182711
-1.1775671e-06
0.0111823
-1.1000014e-06
0.011181915
-1.0274634e-06
0.011181556
-9.5980941e-07
0.01118122
-8.9644107e-07
0.011180907
-8.3743627e-07
0.011180614
-7.8196482e-07
0.011180341
-7.3056307e-07
0.011180086
-6.8219949e-07
0.011179847
-6.3766935e-07
0.011179624
-5.9502933e-07
0.011179416
-5.5653801e-07
0.011179223
-5.1915732e-07
0.01117904
-4.8629763e-07
0.011178872
-4.5280254e-07
0.011178712
-4.254214e-07
0.011178566
-3.9517655e-07
0.011178425
-3.7415231e-07
0.0111783
-3.4705978e-07
0.011178177
-3.3599723e-07
-3.1069683e-07
0.010339525
-0.00069380425
0.010570754
-0.0010218027
0.010606301
-0.00095449448
0.010547572
-0.00084294333
0.010422317
-0.0007173708
0.010244356
-0.00057972444
0.010039421
-0.00045169205
0.0098287427
-0.00034297801
0.009625135
-0.00025616318
0.0094353013
-0.00018991983
0.0092624277
-0.00014121897
0.0091075332
-0.0001065098
0.008970154
-8.2320226e-05
0.0088489023
-6.5646249e-05
0.0087419716
-5.4127255e-05
0.0086474927
-4.6040044e-05
0.008563694
-4.0194286e-05
0.0084890108
-3.5792751e-05
0.0084221096
-3.2318757e-05
0.0083618775
-2.9449283e-05
0.0083073954
-2.698858e-05
0.0082579079
-2.4820304e-05
0.0082127929
-2.2875483e-05
0.0081715353
-2.1112419e-05
0.0081337049
-1.9504656e-05
0.0080989388
-1.8034017e-05
0.0080669272
-1.6686727e-05
0.0080374036
-1.5451365e-05
0.0080101361
-1.4317864e-05
0.0079849213
-1.3277073e-05
0.0079615798
-1.2320592e-05
0.0079399519
-1.144072e-05
0.0079198951
-1.0630433e-05
0.0079012816
-9.8833638e-06
0.0078839962
-9.193771e-06
0.0078679345
-8.5564978e-06
0.0078530022
-7.9669224e-06
0.0078391133
-7.4209081e-06
0.0078261893
-6.9147504e-06
0.0078141589
-6.4451264e-06
0.0078029562
-6.0090512e-06
0.0077925214
-5.603838e-06
0.007782799
-5.2270614e-06
0.0077737382
-4.8765271e-06
0.0077652921
-4.5502441e-06
0.0077574175
-4.2464016e-06
0.0077500744
-3.9633477e-06
0.0077432258
-3.6995734e-06
0.0077368375
-3.4536948e-06
0.0077308778
-3.2244366e-06
0.0077253173
-3.0106232e-06
0.0077201286
-2.8111704e-06
0.0077152866
-2.6250768e-06
0.0077107675
-2.4514168e-06
0.0077065496
-2.2893374e-06
0.0077026125
-2.1380505e-06
0.0076989373
-1.9968244e-06
0.0076955064
-1.864981e-06
0.0076923033
-1.7418922e-06
0.0076893128
-1.6269696e-06
0.0076865206
-1.5196625e-06
0.0076839135
-1.419457e-06
0.0076814792
-1.3258751e-06
0.007679206
-1.2384692e-06
0.0076770834
-1.1568266e-06
0.0076751012
-1.0805671e-06
0.0076732502
-1.0093386e-06
0.0076715216
-9.4281336e-07
0.0076699072
-8.806877e-07
0.0076683996
-8.226698e-07
0.0076669915
-7.6848704e-07
0.0076656765
-7.1787614e-07
0.0076644483
-6.7059685e-07
0.0076633012
-6.2641696e-07
0.0076622299
-5.8513954e-07
0.0076612294
-5.4656873e-07
0.0076602949
-5.1054653e-07
0.007659422
-4.7689445e-07
0.0076586068
-4.4548569e-07
0.0076578453
-4.1613716e-07
0.0076571341
-3.8875528e-07
0.0076564698
-3.6314848e-07
0.0076558492
-3.3926418e-07
0.0076552697
-3.1687986e-07
0.0076547283
-2.9604374e-07
0.0076542229
-2.7646009e-07
0.0076537506
-2.5827277e-07
0.0076533094
-2.4117186e-07
0.0076528971
-2.2548425e-07
0.0076525126
-2.1041857e-07
0.0076521529
-1.9666724e-07
0.0076518172
-1.8360923e-07
0.0076515028
-1.7205772e-07
0.0076512105
-1.604071e-07
0.0076509355
-1.5028696e-07
0.0076506807
-1.404035e-07
0.0076504386
-1.3208803e-07
0.0076502165
-1.2500295e-07
0.0076499999
-1.1933656e-07
-1.2571485e-07
0.0093061957
0.0082843931
0.0073298986
0.0064869553
0.0057695845
0.00518986
0.004738168
0.00439519
0.0041390268
0.003949107
0.003807888
0.0037013782
0.003619058
0.0035534117
0.0034992845
0.0034532444
0.0034130501
0.0033772574
0.0033449386
0.0033154893
0.0032885008
0.0032636805
0.003240805
0.0032196926
0.0032001879
0.0031821539
0.0031654672
0.0031500158
0.0031356979
0.0031224208
0.0031101003
0.0030986595
0.0030880291
0.0030781458
0.003068952
0.0030603955
0.0030524286
0.0030450076
0.0030380929
0.0030316478
0.0030256387
0.0030200349
0.0030148078
0.0030099313
0.0030053811
0.0030011347
0.0029971713
0.0029934717
0.002990018
0.0029867936
0.0029837829
0.0029809718
0.0029783467
0.0029758953
0.002973606
0.002971468
0.0029694711
0.0029676061
0.0029658642
0.0029642372
0.0029627175
0.0029612981
0.0029599722
0.0029587338
0.002957577
0.0029564965
0.0029554871
0.0029545443
0.0029536635
0.0029528408
0.0029520723
0.0029513545
0.0029506839
0.0029500575
0.0029494724
0.0029489259
0.0029484153
0.0029479384
0.0029474928
0.0029470767
0.0029466879
0.0029463248
0.0029459856
0.0029456687
0.0029453727
0.0029450963
0.002944838
0.0029445965
0.0029443711
0.002944161
0.0029439642
0.0029437802
0.0029436083
0.0029434482
0.002943298
0.0029431574
0.0029430253
0.0029429003
0.0029427809
)
;

boundaryField
{
    top
    {
        type            calculated;
        value           uniform 0;
    }
    inlet
    {
        type            calculated;
        value           nonuniform List<scalar> 10(-0.01 -0.01 -0.01 -0.01 -0.01 -0.01 -0.01 -0.01 -0.01 -0.01);
    }
    outlet
    {
        type            calculated;
        value           nonuniform List<scalar> 10(0.002942655 0.0076498149 0.011178072 0.01352789 0.014701569 0.014701568 0.01352789 0.011178072 0.0076498149 0.0029426552);
    }
    bottom
    {
        type            calculated;
        value           uniform 0;
    }
    back
    {
        type            empty;
        value           nonuniform 0();
    }
    front
    {
        type            empty;
        value           nonuniform 0();
    }
}


// ************************************************************************* //
