/*--------------------------------*- C++ -*----------------------------------*\
| =========                 |                                                 |
| \\      /  F ield         | OpenFOAM: The Open Source CFD Toolbox           |
|  \\    /   O peration     | Version:  v1812                                 |
|   \\  /    A nd           | Web:      www.OpenFOAM.com                      |
|    \\/     M anipulation  |                                                 |
\*---------------------------------------------------------------------------*/
FoamFile
{
    version     2.0;
    format      ascii;
    class       volVectorField;
    location    "17.15";
    object      U;
}
// * * * * * * * * * * * * * * * * * * * * * * * * * * * * * * * * * * * * * //

dimensions      [0 1 -1 0 0 0 0];


internalField   nonuniform List<vector> 
1000
(
(0.91890839 0.035821912 0)
(0.86271384 0.062195638 0)
(0.7870597 0.062510089 0)
(0.69536033 0.054550394 0)
(0.61089745 0.04453165 0)
(0.54411592 0.034015971 0)
(0.49343012 0.02418754 0)
(0.45479414 0.01614423 0)
(0.42544583 0.010265786 0)
(0.40347313 0.0063041453 0)
(0.38715767 0.0037976293 0)
(0.3749622 0.0023103382 0)
(0.36566193 0.001493015 0)
(0.35836272 0.0010851183 0)
(0.35244268 0.00090607198 0)
(0.34748201 0.00084105104 0)
(0.34320348 0.00082372346 0)
(0.33942726 0.00081930988 0)
(0.33603793 0.00081185197 0)
(0.33296114 0.00079580153 0)
(0.33014778 0.00077081221 0)
(0.32756384 0.00073871019 0)
(0.3251842 0.00070188975 0)
(0.32298902 0.00066256563 0)
(0.32096172 0.00062249906 0)
(0.31908785 0.00058295644 0)
(0.31735449 0.00054477065 0)
(0.31574996 0.00050843334 0)
(0.3142636 0.00047419144 0)
(0.31288575 0.00044212483 0)
(0.31160756 0.00041221025 0)
(0.31042101 0.00038436262 0)
(0.30931883 0.00035846587 0)
(0.30829438 0.00033439084 0)
(0.30734165 0.00031200657 0)
(0.30645515 0.00029118686 0)
(0.30562991 0.00027181303 0)
(0.30486136 0.00025377554 0)
(0.30414535 0.00023697367 0)
(0.30347807 0.00022131477 0)
(0.30285601 0.00020671502 0)
(0.30227596 0.00019309682 0)
(0.30173496 0.00018039005 0)
(0.30123029 0.00016852996 0)
(0.30075942 0.00015745733 0)
(0.30032002 0.00014711827 0)
(0.29990993 0.00013746234 0)
(0.29952715 0.00012844406 0)
(0.29916983 0.0001200205 0)
(0.29883624 0.00011215135 0)
(0.29852478 0.00010480009 0)
(0.29823397 9.7931154e-05 0)
(0.29796241 9.1512422e-05 0)
(0.29770882 8.5513695e-05 0)
(0.29747201 7.9906501e-05 0)
(0.29725084 7.4665989e-05 0)
(0.29704429 6.9767598e-05 0)
(0.29685137 6.5190827e-05 0)
(0.2966712 6.0914753e-05 0)
(0.29650291 5.6919787e-05 0)
(0.29634572 5.318769e-05 0)
(0.2961989 4.9700027e-05 0)
(0.29606176 4.6440392e-05 0)
(0.29593366 4.3392864e-05 0)
(0.295814 4.0542921e-05 0)
(0.29570223 3.7878438e-05 0)
(0.29559783 3.5387602e-05 0)
(0.29550031 3.3060315e-05 0)
(0.29540922 3.0887967e-05 0)
(0.29532413 2.8859693e-05 0)
(0.29524465 2.6966788e-05 0)
(0.2951704 2.5198739e-05 0)
(0.29510104 2.3545407e-05 0)
(0.29503625 2.1998308e-05 0)
(0.29497572 2.0549872e-05 0)
(0.29491918 1.9194122e-05 0)
(0.29486637 1.7927514e-05 0)
(0.29481705 1.6744394e-05 0)
(0.29477097 1.5643078e-05 0)
(0.29472793 1.4616432e-05 0)
(0.29468773 1.3660588e-05 0)
(0.29465016 1.2766817e-05 0)
(0.29461507 1.1930695e-05 0)
(0.29458229 1.1144665e-05 0)
(0.29455167 1.0407787e-05 0)
(0.29452308 9.7132625e-06 0)
(0.29449636 9.0725664e-06 0)
(0.29447142 8.4703605e-06 0)
(0.2944481 7.918319e-06 0)
(0.29442633 7.3969613e-06 0)
(0.29440598 6.926114e-06 0)
(0.294387 6.4726547e-06 0)
(0.2943692 6.0617844e-06 0)
(0.29435259 5.6503976e-06 0)
(0.29433714 5.289133e-06 0)
(0.29432249 4.9685892e-06 0)
(0.29430919 4.6878622e-06 0)
(0.29429569 4.5389557e-06 0)
(0.29428502 4.4056775e-06 0)
(0.29426874 5.0575155e-06 0)
(1.0016583 0.05381943 0)
(1.0359761 0.10128443 0)
(1.0597199 0.11073663 0)
(1.0628947 0.10592201 0)
(1.0515569 0.096228725 0)
(1.0340529 0.083934059 0)
(1.0142795 0.070327062 0)
(0.99360703 0.056981334 0)
(0.97292577 0.045107479 0)
(0.9531074 0.03523675 0)
(0.93479539 0.02740165 0)
(0.91829012 0.021387227 0)
(0.90362379 0.016884499 0)
(0.89068068 0.013569709 0)
(0.87928175 0.011147748 0)
(0.86923242 0.0093736578 0)
(0.86034424 0.0080569271 0)
(0.85244667 0.0070571265 0)
(0.84539242 0.0062752379 0)
(0.83905793 0.0056438286 0)
(0.83334127 0.0051180915 0)
(0.82815884 0.0046686728 0)
(0.82344213 0.0042764175 0)
(0.81913467 0.0039287383 0)
(0.81518962 0.0036172025 0)
(0.81156765 0.0033359687 0)
(0.80823544 0.0030808023 0)
(0.8051644 0.0028484673 0)
(0.80232979 0.0026363682 0)
(0.79971 0.0024423381 0)
(0.79728598 0.0022645192 0)
(0.79504087 0.0021012909 0)
(0.79295963 0.0019512266 0)
(0.79102881 0.0018130642 0)
(0.78923628 0.0016856842 0)
(0.7875711 0.0015680923 0)
(0.78602338 0.0014594047 0)
(0.78458412 0.0013588343 0)
(0.78324511 0.0012656791 0)
(0.78199889 0.001179311 0)
(0.78083861 0.0010991674 0)
(0.77975799 0.0010247424 0)
(0.77875128 0.00095558036 0)
(0.77781318 0.00089126991 0)
(0.77693881 0.00083143806 0)
(0.77612368 0.00077574675 0)
(0.77536362 0.00072388784 0)
(0.77465481 0.00067558039 0)
(0.77399367 0.00063056707 0)
(0.77337693 0.00058861102 0)
(0.77280153 0.00054949486 0)
(0.77226464 0.00051301747 0)
(0.77176363 0.00047899311 0)
(0.77129606 0.00044725066 0)
(0.77085967 0.00041763119 0)
(0.77045234 0.00038998932 0)
(0.77007211 0.0003641899 0)
(0.76971717 0.00034010947 0)
(0.76938581 0.00031763255 0)
(0.76907644 0.00029665114 0)
(0.7687876 0.00027706447 0)
(0.76851791 0.00025877774 0)
(0.7682661 0.00024170225 0)
(0.76803096 0.00022575564 0)
(0.76781139 0.00021086124 0)
(0.76760635 0.00019694911 0)
(0.76741488 0.00018395488 0)
(0.76723608 0.00017181919 0)
(0.7670691 0.00016048787 0)
(0.76691315 0.00014990809 0)
(0.76676752 0.00014003067 0)
(0.7666315 0.00013080685 0)
(0.76650446 0.00012219098 0)
(0.76638582 0.00011413972 0)
(0.76627501 0.00010661537 0)
(0.76617152 9.9582038e-05 0)
(0.76607486 9.3012117e-05 0)
(0.76598458 8.6874616e-05 0)
(0.76590026 8.114868e-05 0)
(0.76582151 7.5802707e-05 0)
(0.76574794 7.0817891e-05 0)
(0.76567924 6.6157772e-05 0)
(0.76561504 6.1808973e-05 0)
(0.76555512 5.7732618e-05 0)
(0.7654991 5.3930282e-05 0)
(0.76544684 5.0355061e-05 0)
(0.76539796 4.7037961e-05 0)
(0.76535239 4.392118e-05 0)
(0.7653097 4.1053557e-05 0)
(0.76526997 3.8323392e-05 0)
(0.76523272 3.5844854e-05 0)
(0.76519804 3.3464043e-05 0)
(0.76516555 3.1331966e-05 0)
(0.76513516 2.9189254e-05 0)
(0.76510713 2.7363988e-05 0)
(0.76507997 2.5517151e-05 0)
(0.76505663 2.4071142e-05 0)
(0.76503058 2.2554835e-05 0)
(0.76501446 2.1597407e-05 0)
(0.76498346 2.0993689e-05 0)
(1.0014244 0.026824854 0)
(1.0291272 0.06279135 0)
(1.0654292 0.077736549 0)
(1.098962 0.080597196 0)
(1.1253149 0.078285167 0)
(1.145053 0.073153897 0)
(1.1594858 0.066111277 0)
(1.1694287 0.058162063 0)
(1.1755354 0.050296753 0)
(1.1785738 0.043150707 0)
(1.1793571 0.036972824 0)
(1.178595 0.031771631 0)
(1.1768304 0.027451838 0)
(1.1744518 0.023886766 0)
(1.1717287 0.020947618 0)
(1.1688444 0.018515779 0)
(1.1659195 0.016488084 0)
(1.1630317 0.014779502 0)
(1.1602295 0.013322985 0)
(1.1575415 0.012067132 0)
(1.1549828 0.010973 0)
(1.1525601 0.010011061 0)
(1.1502747 0.0091587461 0)
(1.1481246 0.0083986032 0)
(1.1461059 0.0077169493 0)
(1.1442134 0.0071028868 0)
(1.1424414 0.0065475905 0)
(1.1407838 0.0060437942 0)
(1.1392344 0.005585425 0)
(1.1377869 0.0051673438 0)
(1.1364353 0.0047851566 0)
(1.1351738 0.0044350762 0)
(1.1339968 0.004113817 0)
(1.1328987 0.0038185132 0)
(1.1318746 0.0035466532 0)
(1.1309195 0.003296027 0)
(1.1300289 0.0030646827 0)
(1.1291985 0.0028508901 0)
(1.1284242 0.0026531099 0)
(1.1277022 0.0024699684 0)
(1.1270291 0.0023002359 0)
(1.1264014 0.0021428077 0)
(1.1258161 0.0019966891 0)
(1.1252702 0.0018609817 0)
(1.1247612 0.0017348718 0)
(1.1242865 0.0016176211 0)
(1.1238437 0.0015085574 0)
(1.1234307 0.0014070676 0)
(1.1230455 0.0013125909 0)
(1.1226861 0.0012246136 0)
(1.1223509 0.0011426639 0)
(1.1220381 0.0010663079 0)
(1.1217462 0.00099514581 0)
(1.1214739 0.00092880925 0)
(1.1212198 0.00086695845 0)
(1.1209827 0.00080927995 0)
(1.1207614 0.0007554846 0)
(1.1205548 0.00070530489 0)
(1.1203621 0.00065849246 0)
(1.1201821 0.00061481636 0)
(1.1200142 0.00057406211 0)
(1.1198574 0.00053602972 0)
(1.1197111 0.00050053332 0)
(1.1195745 0.00046740003 0)
(1.1194469 0.00043647015 0)
(1.1193278 0.00040759533 0)
(1.1192167 0.00038063864 0)
(1.1191129 0.00035547271 0)
(1.119016 0.00033197918 0)
(1.1189255 0.00031004605 0)
(1.118841 0.00028956942 0)
(1.1187621 0.00027044907 0)
(1.1186884 0.0002525941 0)
(1.1186197 0.00023591677 0)
(1.1185554 0.00022034104 0)
(1.1184954 0.00020579121 0)
(1.1184394 0.0001922057 0)
(1.1183871 0.00017951683 0)
(1.1183383 0.00016767536 0)
(1.1182926 0.00015661396 0)
(1.11825 0.00014629444 0)
(1.1182103 0.00013664343 0)
(1.1181731 0.00012764304 0)
(1.1181384 0.00011921053 0)
(1.1181059 0.00011135888 0)
(1.1180758 0.00010398386 0)
(1.1180473 9.7152115e-05 0)
(1.1180211 9.0703908e-05 0)
(1.1179963 8.4785868e-05 0)
(1.1179734 7.912871e-05 0)
(1.1179516 7.4028152e-05 0)
(1.1179318 6.9018254e-05 0)
(1.1179128 6.466246e-05 0)
(1.1178955 6.0140737e-05 0)
(1.117879 5.6560839e-05 0)
(1.1178635 5.2425205e-05 0)
(1.11785 4.9743386e-05 0)
(1.1178349 4.5805575e-05 0)
(1.1178261 4.4318978e-05 0)
(1.1178083 4.0575837e-05 0)
(1.0007347 0.011814721 0)
(1.0178472 0.030860924 0)
(1.0462163 0.041434438 0)
(1.0799018 0.045193566 0)
(1.1132664 0.045502348 0)
(1.143782 0.044080305 0)
(1.1708941 0.04143998 0)
(1.1945687 0.037973676 0)
(1.2148582 0.034195728 0)
(1.2319652 0.030536886 0)
(1.2462683 0.027222043 0)
(1.2582339 0.024313919 0)
(1.2683135 0.021797886 0)
(1.2768875 0.019633657 0)
(1.2842554 0.017773824 0)
(1.2906479 0.01616965 0)
(1.296243 0.014775589 0)
(1.3011791 0.013552297 0)
(1.3055645 0.012467863 0)
(1.3094838 0.011497465 0)
(1.3130042 0.010622161 0)
(1.3161792 0.0098275118 0)
(1.3190526 0.0091024092 0)
(1.3216607 0.0084381748 0)
(1.3240343 0.0078279022 0)
(1.3261995 0.0072659734 0)
(1.3281786 0.0067477082 0)
(1.3299913 0.0062691164 0)
(1.3316544 0.005826727 0)
(1.3331829 0.0054174724 0)
(1.3345896 0.005038611 0)
(1.3358862 0.0046876722 0)
(1.3370827 0.004362418 0)
(1.3381883 0.0040608133 0)
(1.3392108 0.0037810033 0)
(1.3401576 0.0035212945 0)
(1.3410349 0.0032801385 0)
(1.3418486 0.003056118 0)
(1.3426038 0.0028479349 0)
(1.3433051 0.0026543985 0)
(1.3439569 0.0024744169 0)
(1.3445629 0.0023069868 0)
(1.3451267 0.0021511862 0)
(1.3456513 0.0020061668 0)
(1.3461398 0.0018711476 0)
(1.3465947 0.0017454091 0)
(1.3470185 0.0016282873 0)
(1.3474135 0.0015191691 0)
(1.3477816 0.0014174881 0)
(1.3481249 0.0013227201 0)
(1.3484449 0.0012343806 0)
(1.3487435 0.0011520205 0)
(1.349022 0.0010752239 0)
(1.3492818 0.0010036054 0)
(1.3495242 0.00093680772 0)
(1.3497505 0.00087450028 0)
(1.3499616 0.00081637574 0)
(1.3501587 0.00076214865 0)
(1.3503427 0.00071155314 0)
(1.3505145 0.00066434174 0)
(1.3506748 0.00062028441 0)
(1.3508245 0.0005791668 0)
(1.3509643 0.00054078997 0)
(1.3510948 0.00050496844 0)
(1.3512167 0.00047153061 0)
(1.3513305 0.00044031684 0)
(1.3514368 0.00041117911 0)
(1.3515361 0.00038397851 0)
(1.3516288 0.00035858616 0)
(1.3517153 0.00033487976 0)
(1.3517962 0.00031274644 0)
(1.3518717 0.00029207853 0)
(1.3519422 0.00027277941 0)
(1.3520081 0.00025475529 0)
(1.3520696 0.0002379258 0)
(1.3521271 0.00022220792 0)
(1.3521807 0.00020753531 0)
(1.3522309 0.00019383099 0)
(1.3522777 0.00018104183 0)
(1.3523215 0.00016909091 0)
(1.3523622 0.00015794151 0)
(1.3524005 0.00014751016 0)
(1.3524361 0.00013778737 0)
(1.3524695 0.00012867351 0)
(1.3525004 0.00012020331 0)
(1.3525297 0.00011223965 0)
(1.3525565 0.00010488157 0)
(1.3525822 9.7898774e-05 0)
(1.3526054 9.1532278e-05 0)
(1.3526282 8.5399426e-05 0)
(1.352648 7.9930294e-05 0)
(1.3526683 7.4427351e-05 0)
(1.352685 6.9806764e-05 0)
(1.3527037 6.4831521e-05 0)
(1.352717 6.1119395e-05 0)
(1.3527348 5.6439787e-05 0)
(1.3527446 5.3742592e-05 0)
(1.3527629 4.9140204e-05 0)
(1.3527683 4.7698629e-05 0)
(1.3527888 4.2956329e-05 0)
(1.0005903 0.0034629152 0)
(1.0136865 0.009366018 0)
(1.0370283 0.013046804 0)
(1.0674202 0.014563259 0)
(1.1000315 0.014854523 0)
(1.1316428 0.014564989 0)
(1.1610745 0.013888337 0)
(1.1880674 0.012919244 0)
(1.2125205 0.011806505 0)
(1.2343939 0.010696425 0)
(1.2538077 0.0096727405 0)
(1.2710339 0.0087628203 0)
(1.286401 0.0079659716 0)
(1.3002111 0.0072722126 0)
(1.3127102 0.0066688069 0)
(1.3240903 0.0061419241 0)
(1.3345036 0.0056780713 0)
(1.3440716 0.0052653201 0)
(1.3528927 0.0048939342 0)
(1.3610463 0.0045563948 0)
(1.3685975 0.0042470687 0)
(1.3756004 0.0039617744 0)
(1.3821012 0.0036973958 0)
(1.3881402 0.0034515806 0)
(1.3937533 0.003222517 0)
(1.3989728 0.0030087689 0)
(1.403828 0.0028091575 0)
(1.4083456 0.0026226789 0)
(1.4125503 0.0024484492 0)
(1.4164646 0.0022856698 0)
(1.4201094 0.002133606 0)
(1.423504 0.0019915742 0)
(1.426666 0.0018589342 0)
(1.4296121 0.0017350839 0)
(1.4323573 0.0016194571 0)
(1.4349159 0.0015115208 0)
(1.4373007 0.0014107731 0)
(1.4395241 0.0013167428 0)
(1.441597 0.0012289874 0)
(1.4435301 0.001147092 0)
(1.4453328 0.0010706676 0)
(1.4470143 0.00099935053 0)
(1.4485827 0.00093280055 0)
(1.4500459 0.00087069944 0)
(1.451411 0.00081274996 0)
(1.4526846 0.00075867445 0)
(1.4538731 0.00070821349 0)
(1.4549821 0.00066112463 0)
(1.4560172 0.00061718163 0)
(1.4569831 0.00057617327 0)
(1.4578847 0.0005379021 0)
(1.4587262 0.00050218442 0)
(1.4595117 0.00046884865 0)
(1.460245 0.00043773507 0)
(1.4609295 0.00040869519 0)
(1.4615685 0.00038159077 0)
(1.4621651 0.00035629248 0)
(1.4627221 0.00033267901 0)
(1.4632422 0.00031063737 0)
(1.4637278 0.00029006186 0)
(1.4641812 0.0002708536 0)
(1.4646045 0.00025292114 0)
(1.4649998 0.00023617924 0)
(1.4653689 0.00022054854 0)
(1.4657136 0.00020595517 0)
(1.4660355 0.00019233065 0)
(1.4663361 0.00017961127 0)
(1.4666168 0.00016773654 0)
(1.466879 0.0001566501 0)
(1.4671238 0.0001462983 0)
(1.4673524 0.00013663148 0)
(1.467566 0.00012760289 0)
(1.4677654 0.00011917116 0)
(1.4679516 0.00011129624 0)
(1.4681256 0.00010394388 0)
(1.4682881 9.7078098e-05 0)
(1.4684397 9.0670352e-05 0)
(1.4685814 8.4685466e-05 0)
(1.4687138 7.9099885e-05 0)
(1.4688375 7.3877636e-05 0)
(1.4689528 6.90053e-05 0)
(1.4690608 6.444502e-05 0)
(1.4691615 6.0195516e-05 0)
(1.4692557 5.6209636e-05 0)
(1.4693431 5.2513959e-05 0)
(1.4694257 4.9036544e-05 0)
(1.4695021 4.5825568e-05 0)
(1.4695741 4.2767713e-05 0)
(1.46964 4.0000571e-05 0)
(1.4697039 3.731361e-05 0)
(1.4697608 3.4921396e-05 0)
(1.4698171 3.2488625e-05 0)
(1.4698651 3.050024e-05 0)
(1.4699168 2.8312705e-05 0)
(1.4699562 2.6721862e-05 0)
(1.4700044 2.4634977e-05 0)
(1.4700339 2.3494525e-05 0)
(1.4700832 2.1422936e-05 0)
(1.4701001 2.0804445e-05 0)
(1.4701557 1.8646509e-05 0)
(1.0005903 -0.0034629162 0)
(1.0136865 -0.0093660206 0)
(1.0370283 -0.013046807 0)
(1.0674202 -0.014563262 0)
(1.1000315 -0.014854525 0)
(1.1316428 -0.014564991 0)
(1.1610745 -0.013888338 0)
(1.1880674 -0.012919246 0)
(1.2125205 -0.011806507 0)
(1.2343939 -0.010696428 0)
(1.2538077 -0.0096727435 0)
(1.2710339 -0.0087628233 0)
(1.286401 -0.0079659746 0)
(1.3002111 -0.0072722155 0)
(1.3127102 -0.0066688093 0)
(1.3240903 -0.006141926 0)
(1.3345036 -0.0056780729 0)
(1.3440716 -0.0052653217 0)
(1.3528927 -0.0048939358 0)
(1.3610463 -0.0045563964 0)
(1.3685975 -0.0042470704 0)
(1.3756004 -0.0039617767 0)
(1.3821012 -0.0036973988 0)
(1.3881402 -0.0034515839 0)
(1.3937533 -0.0032225198 0)
(1.3989728 -0.0030087707 0)
(1.403828 -0.0028091584 0)
(1.4083456 -0.0026226794 0)
(1.4125503 -0.0024484497 0)
(1.4164646 -0.0022856709 0)
(1.4201094 -0.0021336081 0)
(1.423504 -0.0019915771 0)
(1.426666 -0.0018589376 0)
(1.4296121 -0.0017350875 0)
(1.4323573 -0.0016194602 0)
(1.4349158 -0.0015115226 0)
(1.4373007 -0.0014107735 0)
(1.439524 -0.0013167419 0)
(1.441597 -0.0012289855 0)
(1.4435301 -0.0011470894 0)
(1.4453328 -0.0010706652 0)
(1.4470143 -0.00099934905 0)
(1.4485827 -0.00093280015 0)
(1.4500459 -0.00087070015 0)
(1.451411 -0.00081275145 0)
(1.4526846 -0.00075867607 0)
(1.4538731 -0.00070821444 0)
(1.4549821 -0.00066112436 0)
(1.4560171 -0.00061717972 0)
(1.4569831 -0.00057616974 0)
(1.4578847 -0.00053789796 0)
(1.4587262 -0.00050218075 0)
(1.4595117 -0.0004688466 0)
(1.460245 -0.00043773544 0)
(1.4609295 -0.00040869766 0)
(1.4615685 -0.00038159389 0)
(1.4621651 -0.00035629454 0)
(1.4627221 -0.00033267921 0)
(1.4632422 -0.00031063519 0)
(1.4637278 -0.00029005757 0)
(1.4641812 -0.00027084872 0)
(1.4646045 -0.00025291719 0)
(1.4649998 -0.00023617718 0)
(1.4653689 -0.00022054877 0)
(1.4657136 -0.0002059578 0)
(1.4660355 -0.0001923345 0)
(1.4663361 -0.0001796141 0)
(1.4666168 -0.00016773663 0)
(1.466879 -0.00015664676 0)
(1.4671238 -0.00014629226 0)
(1.4673524 -0.00013662518 0)
(1.467566 -0.00012759883 0)
(1.4677654 -0.00011917098 0)
(1.4679516 -0.00011129981 0)
(1.4681256 -0.00010394966 0)
(1.4682881 -9.7083286e-05 0)
(1.4684397 -9.0671797e-05 0)
(1.4685814 -8.4681984e-05 0)
(1.4687138 -7.9093143e-05 0)
(1.4688375 -7.3871113e-05 0)
(1.4689528 -6.9001041e-05 0)
(1.4690608 -6.4444185e-05 0)
(1.4691615 -6.0200308e-05 0)
(1.4692557 -5.6218545e-05 0)
(1.4693431 -5.2517489e-05 0)
(1.4694257 -4.903376e-05 0)
(1.4695021 -4.5823589e-05 0)
(1.4695741 -4.2764411e-05 0)
(1.46964 -3.9983494e-05 0)
(1.4697039 -3.7295988e-05 0)
(1.4697608 -3.4935256e-05 0)
(1.4698171 -3.252039e-05 0)
(1.4698651 -3.0508149e-05 0)
(1.4699168 -2.8296629e-05 0)
(1.4699562 -2.6710184e-05 0)
(1.4700044 -2.4630139e-05 0)
(1.4700339 -2.3486448e-05 0)
(1.4700832 -2.1425994e-05 0)
(1.4701001 -2.082846e-05 0)
(1.4701557 -1.866568e-05 0)
(1.0007347 -0.011814722 0)
(1.0178472 -0.030860927 0)
(1.0462163 -0.041434442 0)
(1.0799018 -0.04519357 0)
(1.1132664 -0.045502351 0)
(1.143782 -0.044080308 0)
(1.1708941 -0.041439982 0)
(1.1945687 -0.037973678 0)
(1.2148582 -0.03419573 0)
(1.2319652 -0.030536888 0)
(1.2462683 -0.027222046 0)
(1.2582339 -0.024313921 0)
(1.2683135 -0.021797888 0)
(1.2768875 -0.01963366 0)
(1.2842554 -0.017773827 0)
(1.2906479 -0.016169652 0)
(1.296243 -0.01477559 0)
(1.3011791 -0.013552298 0)
(1.3055645 -0.012467864 0)
(1.3094838 -0.011497466 0)
(1.3130042 -0.010622162 0)
(1.3161792 -0.0098275136 0)
(1.3190526 -0.0091024116 0)
(1.3216607 -0.0084381773 0)
(1.3240343 -0.0078279043 0)
(1.3261995 -0.0072659748 0)
(1.3281786 -0.006747709 0)
(1.3299913 -0.006269117 0)
(1.3316544 -0.0058267276 0)
(1.3331829 -0.0054174736 0)
(1.3345896 -0.0050386128 0)
(1.3358862 -0.0046876744 0)
(1.3370827 -0.0043624204 0)
(1.3381882 -0.0040608155 0)
(1.3392108 -0.003781005 0)
(1.3401576 -0.0035212954 0)
(1.3410349 -0.0032801386 0)
(1.3418486 -0.0030561173 0)
(1.3426038 -0.0028479334 0)
(1.3433051 -0.0026543967 0)
(1.3439569 -0.0024744151 0)
(1.3445629 -0.0023069855 0)
(1.3451267 -0.0021511856 0)
(1.3456513 -0.002006167 0)
(1.3461398 -0.0018711486 0)
(1.3465947 -0.0017454102 0)
(1.3470185 -0.001628288 0)
(1.3474135 -0.0015191689 0)
(1.3477816 -0.0014174865 0)
(1.3481249 -0.0013227177 0)
(1.3484449 -0.0012343778 0)
(1.3487435 -0.0011520181 0)
(1.349022 -0.0010752225 0)
(1.3492818 -0.0010036054 0)
(1.3495242 -0.0009368091 0)
(1.3497505 -0.00087450217 0)
(1.3499616 -0.00081637741 0)
(1.3501587 -0.00076214917 0)
(1.3503427 -0.00071155202 0)
(1.3505145 -0.00066433907 0)
(1.3506748 -0.0006202808 0)
(1.3508245 -0.00057916332 0)
(1.3509643 -0.00054078757 0)
(1.3510948 -0.00050496805 0)
(1.3512167 -0.00047153236 0)
(1.3513305 -0.00044031983 0)
(1.3514368 -0.00041118184 0)
(1.3515361 -0.00038397954 0)
(1.3516288 -0.00035858484 0)
(1.3517153 -0.00033487646 0)
(1.3517962 -0.00031274243 0)
(1.3518717 -0.00029207538 0)
(1.3519422 -0.00027277827 0)
(1.3520081 -0.00025475667 0)
(1.3520696 -0.00023792874 0)
(1.3521271 -0.00022221114 0)
(1.3521807 -0.00020753737 0)
(1.3522309 -0.00019383091 0)
(1.3522777 -0.00018104006 0)
(1.3523215 -0.00016908796 0)
(1.3523622 -0.00015793803 0)
(1.3524005 -0.00014750798 0)
(1.3524361 -0.00013778821 0)
(1.3524694 -0.00012867573 0)
(1.3525003 -0.00012020575 0)
(1.3525297 -0.0001122421 0)
(1.3525565 -0.00010488246 0)
(1.3525822 -9.7895173e-05 0)
(1.3526054 -9.1527324e-05 0)
(1.3526282 -8.5397124e-05 0)
(1.352648 -7.9932575e-05 0)
(1.3526683 -7.4430188e-05 0)
(1.3526849 -6.9803235e-05 0)
(1.3527038 -6.4828715e-05 0)
(1.352717 -6.1123485e-05 0)
(1.3527348 -5.6443371e-05 0)
(1.3527446 -5.3741617e-05 0)
(1.3527629 -4.9143993e-05 0)
(1.3527683 -4.7709266e-05 0)
(1.3527888 -4.296148e-05 0)
(1.0014244 -0.026824855 0)
(1.0291272 -0.062791352 0)
(1.0654292 -0.077736552 0)
(1.098962 -0.0805972 0)
(1.1253149 -0.07828517 0)
(1.145053 -0.073153899 0)
(1.1594858 -0.066111278 0)
(1.1694287 -0.058162063 0)
(1.1755354 -0.050296754 0)
(1.1785738 -0.043150708 0)
(1.1793571 -0.036972825 0)
(1.1785949 -0.031771633 0)
(1.1768304 -0.02745184 0)
(1.1744518 -0.023886768 0)
(1.1717287 -0.02094762 0)
(1.1688444 -0.01851578 0)
(1.1659195 -0.016488084 0)
(1.1630317 -0.014779502 0)
(1.1602295 -0.013322985 0)
(1.1575415 -0.012067132 0)
(1.1549828 -0.010973001 0)
(1.1525601 -0.010011062 0)
(1.1502747 -0.0091587473 0)
(1.1481246 -0.0083986045 0)
(1.1461059 -0.0077169506 0)
(1.1442134 -0.007102888 0)
(1.1424414 -0.0065475915 0)
(1.1407838 -0.006043795 0)
(1.1392344 -0.0055854259 0)
(1.1377869 -0.0051673448 0)
(1.1364353 -0.0047851575 0)
(1.1351738 -0.0044350769 0)
(1.1339968 -0.0041138176 0)
(1.1328987 -0.0038185136 0)
(1.1318746 -0.0035466533 0)
(1.1309195 -0.0032960271 0)
(1.1300289 -0.0030646829 0)
(1.1291985 -0.0028508901 0)
(1.1284242 -0.0026531096 0)
(1.1277022 -0.0024699678 0)
(1.1270291 -0.0023002349 0)
(1.1264014 -0.0021428065 0)
(1.1258161 -0.0019966881 0)
(1.1252702 -0.0018609812 0)
(1.1247612 -0.0017348719 0)
(1.1242865 -0.0016176216 0)
(1.1238437 -0.0015085579 0)
(1.1234307 -0.0014070678 0)
(1.1230455 -0.0013125906 0)
(1.1226861 -0.0012246131 0)
(1.1223509 -0.0011426631 0)
(1.1220381 -0.0010663068 0)
(1.1217462 -0.00099514468 0)
(1.1214739 -0.00092880829 0)
(1.1212198 -0.00086695793 0)
(1.1209827 -0.00080928031 0)
(1.1207614 -0.00075548592 0)
(1.1205548 -0.00070530635 0)
(1.1203621 -0.00065849323 0)
(1.1201821 -0.0006148162 0)
(1.1200142 -0.00057406072 0)
(1.1198574 -0.00053602729 0)
(1.1197111 -0.00050053072 0)
(1.1195745 -0.00046739842 0)
(1.1194469 -0.00043646985 0)
(1.1193278 -0.00040759629 0)
(1.1192167 -0.00038064068 0)
(1.1191129 -0.00035547493 0)
(1.119016 -0.00033198082 0)
(1.1189255 -0.00031004676 0)
(1.118841 -0.00028956856 0)
(1.1187621 -0.00027044684 0)
(1.1186884 -0.0002525913 0)
(1.1186197 -0.00023591438 0)
(1.1185554 -0.00022033994 0)
(1.1184954 -0.00020579209 0)
(1.1184394 -0.00019220893 0)
(1.1183871 -0.00017952132 0)
(1.1183383 -0.00016767939 0)
(1.1182926 -0.00015661541 0)
(1.11825 -0.00014629232 0)
(1.1182103 -0.00013663902 0)
(1.1181731 -0.00012763773 0)
(1.1181384 -0.00011920574 0)
(1.1181059 -0.0001113592 0)
(1.1180758 -0.00010398933 0)
(1.1180473 -9.7156416e-05 0)
(1.1180211 -9.0705249e-05 0)
(1.1179963 -8.479184e-05 0)
(1.1179734 -7.9138091e-05 0)
(1.1179516 -7.402023e-05 0)
(1.1179318 -6.8989666e-05 0)
(1.1179128 -6.4647035e-05 0)
(1.1178955 -6.015795e-05 0)
(1.117879 -5.6584687e-05 0)
(1.1178635 -5.2430997e-05 0)
(1.11785 -4.9737418e-05 0)
(1.1178349 -4.5801907e-05 0)
(1.1178261 -4.4314635e-05 0)
(1.1178083 -4.0569686e-05 0)
(1.0016583 -0.05381943 0)
(1.0359761 -0.10128444 0)
(1.0597199 -0.11073663 0)
(1.0628947 -0.10592202 0)
(1.0515569 -0.096228728 0)
(1.0340529 -0.083934061 0)
(1.0142795 -0.070327063 0)
(0.99360703 -0.056981334 0)
(0.97292577 -0.045107479 0)
(0.9531074 -0.03523675 0)
(0.93479538 -0.02740165 0)
(0.91829012 -0.021387228 0)
(0.90362379 -0.0168845 0)
(0.89068067 -0.01356971 0)
(0.87928174 -0.011147749 0)
(0.86923242 -0.0093736586 0)
(0.86034423 -0.0080569274 0)
(0.85244667 -0.0070571267 0)
(0.84539241 -0.006275238 0)
(0.83905793 -0.0056438286 0)
(0.83334126 -0.0051180914 0)
(0.82815884 -0.0046686728 0)
(0.82344212 -0.0042764176 0)
(0.81913467 -0.0039287387 0)
(0.81518961 -0.0036172031 0)
(0.81156765 -0.0033359698 0)
(0.80823544 -0.0030808033 0)
(0.8051644 -0.0028484683 0)
(0.80232979 -0.0026363689 0)
(0.79970999 -0.0024423386 0)
(0.79728597 -0.0022645191 0)
(0.79504086 -0.0021012904 0)
(0.79295963 -0.0019512258 0)
(0.7910288 -0.0018130633 0)
(0.78923627 -0.0016856835 0)
(0.7875711 -0.0015680923 0)
(0.78602338 -0.0014594053 0)
(0.78458412 -0.0013588352 0)
(0.78324511 -0.0012656799 0)
(0.78199889 -0.0011793114 0)
(0.7808386 -0.0010991671 0)
(0.77975799 -0.0010247414 0)
(0.77875128 -0.00095557899 0)
(0.77781318 -0.00089126848 0)
(0.77693881 -0.00083143713 0)
(0.77612368 -0.00077574649 0)
(0.77536362 -0.00072388832 0)
(0.77465481 -0.0006755814 0)
(0.77399368 -0.00063056831 0)
(0.77337694 -0.00058861241 0)
(0.77280153 -0.00054949567 0)
(0.77226464 -0.00051301722 0)
(0.77176363 -0.0004789918 0)
(0.77129606 -0.00044724826 0)
(0.77085967 -0.00041762884 0)
(0.77045234 -0.00038998797 0)
(0.77007212 -0.00036419063 0)
(0.76971717 -0.00034011173 0)
(0.76938581 -0.00031763546 0)
(0.76907645 -0.00029665381 0)
(0.7687876 -0.00027706572 0)
(0.76851791 -0.00025877688 0)
(0.7682661 -0.00024169967 0)
(0.76803096 -0.00022575202 0)
(0.76781139 -0.00021085791 0)
(0.76760635 -0.00019694727 0)
(0.76741489 -0.00018395555 0)
(0.76723608 -0.00017182262 0)
(0.7670691 -0.00016049284 0)
(0.76691316 -0.00014991305 0)
(0.76676752 -0.00014003342 0)
(0.7666315 -0.00013080585 0)
(0.76650446 -0.00012218665 0)
(0.76638582 -0.00011413342 0)
(0.76627501 -0.0001066098 0)
(0.76617152 -9.9579985e-05 0)
(0.76607486 -9.3014853e-05 0)
(0.76598459 -8.6881972e-05 0)
(0.76590026 -8.1157584e-05 0)
(0.76582151 -7.5809213e-05 0)
(0.76574794 -7.0818979e-05 0)
(0.76567924 -6.6152738e-05 0)
(0.76561504 -6.1799798e-05 0)
(0.76555512 -5.7722316e-05 0)
(0.76549911 -5.3925598e-05 0)
(0.76544685 -5.0358183e-05 0)
(0.76539796 -4.7044001e-05 0)
(0.76535239 -4.3930049e-05 0)
(0.76530971 -4.1069267e-05 0)
(0.76526996 -3.8332717e-05 0)
(0.7652327 -3.5828516e-05 0)
(0.76519805 -3.3433106e-05 0)
(0.76516559 -3.1318529e-05 0)
(0.76513517 -2.9204206e-05 0)
(0.7651071 -2.738585e-05 0)
(0.76507997 -2.5524359e-05 0)
(0.76505665 -2.4063882e-05 0)
(0.76503057 -2.2545185e-05 0)
(0.76501445 -2.1587577e-05 0)
(0.76498346 -2.0984783e-05 0)
(0.91890839 -0.035821913 0)
(0.86271384 -0.062195638 0)
(0.7870597 -0.06251009 0)
(0.69536033 -0.054550395 0)
(0.61089745 -0.044531651 0)
(0.54411592 -0.034015972 0)
(0.49343012 -0.02418754 0)
(0.45479413 -0.01614423 0)
(0.42544582 -0.010265785 0)
(0.40347313 -0.006304145 0)
(0.38715766 -0.0037976294 0)
(0.3749622 -0.0023103384 0)
(0.36566192 -0.0014930154 0)
(0.35836272 -0.0010851186 0)
(0.35244268 -0.0009060723 0)
(0.34748201 -0.00084105135 0)
(0.34320348 -0.00082372362 0)
(0.33942726 -0.00081931007 0)
(0.33603793 -0.000811852 0)
(0.33296114 -0.00079580154 0)
(0.33014778 -0.00077081194 0)
(0.32756384 -0.00073870993 0)
(0.3251842 -0.00070188955 0)
(0.32298902 -0.00066256563 0)
(0.32096172 -0.00062249931 0)
(0.31908785 -0.00058295705 0)
(0.31735449 -0.00054477117 0)
(0.31574995 -0.00050843393 0)
(0.3142636 -0.00047419168 0)
(0.31288574 -0.00044212494 0)
(0.31160755 -0.00041220989 0)
(0.31042101 -0.00038436201 0)
(0.30931883 -0.00035846514 0)
(0.30829438 -0.00033439017 0)
(0.30734165 -0.00031200628 0)
(0.30645515 -0.00029118708 0)
(0.30562991 -0.00027181373 0)
(0.30486136 -0.00025377641 0)
(0.30414535 -0.00023697432 0)
(0.30347807 -0.00022131518 0)
(0.30285601 -0.00020671475 0)
(0.30227596 -0.00019309613 0)
(0.30173496 -0.00018038899 0)
(0.30123029 -0.00016852888 0)
(0.30075942 -0.00015745669 0)
(0.30032002 -0.0001471181 0)
(0.29990993 -0.00013746299 0)
(0.29952715 -0.00012844517 0)
(0.29916983 -0.00012002175 0)
(0.29883624 -0.00011215264 0)
(0.29852478 -0.00010480051 0)
(0.29823397 -9.7930721e-05 0)
(0.29796241 -9.1511059e-05 0)
(0.29770882 -8.5511633e-05 0)
(0.29747201 -7.9904871e-05 0)
(0.29725084 -7.4665189e-05 0)
(0.29704429 -6.9768597e-05 0)
(0.29685138 -6.5192838e-05 0)
(0.2966712 -6.0917196e-05 0)
(0.29650291 -5.6921958e-05 0)
(0.29634572 -5.3188446e-05 0)
(0.2961989 -4.9699253e-05 0)
(0.29606176 -4.6438126e-05 0)
(0.29593366 -4.3389777e-05 0)
(0.29581401 -4.0540328e-05 0)
(0.29570224 -3.7877193e-05 0)
(0.29559784 -3.5388647e-05 0)
(0.29550032 -3.3063713e-05 0)
(0.29540922 -3.0892067e-05 0)
(0.29532413 -2.8863466e-05 0)
(0.29524464 -2.696823e-05 0)
(0.29517039 -2.5197015e-05 0)
(0.29510103 -2.3541367e-05 0)
(0.29503624 -2.1993215e-05 0)
(0.29497573 -2.0546084e-05 0)
(0.29491919 -1.9193526e-05 0)
(0.29486638 -1.7930367e-05 0)
(0.29481705 -1.6750433e-05 0)
(0.29477097 -1.564937e-05 0)
(0.29472793 -1.4620426e-05 0)
(0.29468771 -1.3660387e-05 0)
(0.29465016 -1.2762071e-05 0)
(0.29461507 -1.1923776e-05 0)
(0.2945823 -1.1137521e-05 0)
(0.29455168 -1.0405467e-05 0)
(0.29452309 -9.7161687e-06 0)
(0.29449637 -9.0770636e-06 0)
(0.29447142 -8.47899e-06 0)
(0.29444808 -7.9300657e-06 0)
(0.29442632 -7.3960979e-06 0)
(0.29440599 -6.9097528e-06 0)
(0.294387 -6.4602648e-06 0)
(0.2943692 -6.0628302e-06 0)
(0.29435259 -5.6565894e-06 0)
(0.29433715 -5.2937047e-06 0)
(0.2943225 -4.9715979e-06 0)
(0.29430919 -4.6856289e-06 0)
(0.29429569 -4.5322416e-06 0)
(0.29428502 -4.4001045e-06 0)
(0.29426875 -5.0535899e-06 0)
)
;

boundaryField
{
    top
    {
        type            fixedValue;
        value           uniform (0 0 0);
    }
    inlet
    {
        type            fixedValue;
        value           uniform (1 0 0);
    }
    outlet
    {
        type            zeroGradient;
    }
    bottom
    {
        type            fixedValue;
        value           uniform (0 0 0);
    }
    back
    {
        type            empty;
    }
    front
    {
        type            empty;
    }
}


// ************************************************************************* //
