/*--------------------------------*- C++ -*----------------------------------*\
| =========                 |                                                 |
| \\      /  F ield         | OpenFOAM: The Open Source CFD Toolbox           |
|  \\    /   O peration     | Version:  v1812                                 |
|   \\  /    A nd           | Web:      www.OpenFOAM.com                      |
|    \\/     M anipulation  |                                                 |
\*---------------------------------------------------------------------------*/
FoamFile
{
    version     2.0;
    format      ascii;
    class       volScalarField;
    location    "13.1";
    object      p;
}
// * * * * * * * * * * * * * * * * * * * * * * * * * * * * * * * * * * * * * //

dimensions      [0 2 -2 0 0 0 0];


internalField   nonuniform List<scalar> 
1000
(
1.6755988
1.5545209
1.4585404
1.3948843
1.3463748
1.3039027
1.2663675
1.2341958
1.2067954
1.1829578
1.1615635
1.1417997
1.1231225
1.105183
1.0877677
1.0707535
1.0540726
1.0376884
1.0215802
1.0057343
0.99013931
0.97478421
0.95965751
0.94474728
0.93004128
0.91552729
0.90119333
0.88702782
0.87301977
0.85915876
0.84543504
0.83183949
0.81836359
0.80499942
0.79173959
0.77857723
0.76550593
0.75251973
0.73961306
0.72678075
0.71401794
0.70132012
0.68868307
0.67610285
0.66357577
0.65109838
0.63866746
0.62627998
0.61393314
0.60162428
0.58935095
0.57711084
0.5649018
0.55272181
0.54056898
0.52844155
0.51633786
0.50425635
0.49219559
0.48015421
0.46813095
0.45612464
0.44413418
0.43215852
0.42019672
0.40824785
0.39631108
0.3843856
0.37247067
0.36056559
0.34866972
0.33678247
0.32490328
0.31303162
0.301167
0.28930897
0.27745707
0.2656109
0.25377007
0.24193424
0.23010308
0.21827629
0.20645359
0.19463473
0.18281944
0.17100749
0.15919865
0.1473927
0.13558945
0.12378873
0.11199037
0.10019425
0.088400194
0.076608078
0.064817793
0.053029212
0.041242228
0.029456653
0.0176727
0.00588972
1.5583791
1.50345
1.4424975
1.3909298
1.3476598
1.3086915
1.2731052
1.2413326
1.2133717
1.1885938
1.1661919
1.1454906
1.126009
1.1074209
1.0895073
1.0721226
1.0551708
1.0385893
1.0223367
1.0063832
0.99070613
0.97528659
0.96010775
0.94515409
0.93041104
0.91586482
0.90150242
0.88731155
0.87328071
0.85939912
0.84565676
0.83204425
0.81855289
0.8051746
0.79190186
0.77872765
0.76564548
0.75264928
0.73973341
0.7268926
0.71412195
0.70141689
0.68877313
0.67618671
0.66365387
0.65117114
0.63873525
0.62634317
0.61399204
0.60167921
0.58940217
0.57715862
0.56494637
0.5527634
0.54060779
0.52847777
0.51637165
0.5042879
0.49222503
0.48018169
0.46815661
0.45614859
0.44415654
0.43217941
0.42021622
0.40826606
0.39632808
0.38440147
0.37248548
0.36057942
0.34868264
0.33679454
0.32491455
0.31304215
0.30117685
0.28931816
0.27746565
0.26561891
0.25377755
0.24194122
0.2301096
0.21828238
0.20645929
0.19464006
0.18282442
0.17101214
0.15920298
0.14739674
0.13559322
0.12379225
0.11199366
0.10019734
0.088403081
0.076610766
0.064820298
0.053031521
0.041244385
0.029458516
0.017674364
0.0058905566
1.4975578
1.4713827
1.4329859
1.391853
1.3527677
1.3161769
1.2818793
1.2501617
1.2213056
1.1952046
1.1714506
1.1495606
1.1291107
1.1097698
1.0912897
1.0734887
1.0562368
1.0394412
1.0230351
1.00697
0.99120964
0.97572595
0.96049609
0.94550059
0.93072232
0.91614583
0.901757
0.88754283
0.87349129
0.85959122
0.8458323
0.83220493
0.81870019
0.80530983
0.79202618
0.77884209
0.76575096
0.75274661
0.73982331
0.72697573
0.7141989
0.70148817
0.68883922
0.67624801
0.66371078
0.65122399
0.63878436
0.62638882
0.6140345
0.60171871
0.58943894
0.57719286
0.56497827
0.55279312
0.54063548
0.52850357
0.5163957
0.50431031
0.49224592
0.48020117
0.46817478
0.45616556
0.44417238
0.43219419
0.42023002
0.40827894
0.39634009
0.38441266
0.37249592
0.36058916
0.34869174
0.33680304
0.32492251
0.3130496
0.3011838
0.28932464
0.27747169
0.26562453
0.25378278
0.2419461
0.23011417
0.21828667
0.20646332
0.19464383
0.18282794
0.17101542
0.15920602
0.14739956
0.13559584
0.1237947
0.11199596
0.10019952
0.088405129
0.076612676
0.064822025
0.053033087
0.041245715
0.029459652
0.017675042
0.0058910322
1.4681493
1.4526512
1.4257813
1.3918574
1.3560564
1.3211051
1.2878032
1.2564501
1.2273194
1.200528
1.1759404
1.1532482
1.1320964
1.1121676
1.0932094
1.0750297
1.057484
1.040463
1.0238844
1.0076864
0.99182239
0.97625665
0.96096068
0.945911
0.93108756
0.91647283
0.90205119
0.88780855
0.87373211
0.8598101
0.84603173
0.83238704
0.81886682
0.80546257
0.79216641
0.77897104
0.76586969
0.75285608
0.73992436
0.72706911
0.71428528
0.70156814
0.68891332
0.67631672
0.66377453
0.65128317
0.63883934
0.62643991
0.61408199
0.60176289
0.58948006
0.57723114
0.56501391
0.55282632
0.54066641
0.52853239
0.51642256
0.50433533
0.49226924
0.48022292
0.46819507
0.45618449
0.44419005
0.43221069
0.42024541
0.4082933
0.39635347
0.38442514
0.37250756
0.36060002
0.34870188
0.33681253
0.32493138
0.31305789
0.30119154
0.28933186
0.27747841
0.26563079
0.25378862
0.24195156
0.23011927
0.21829146
0.2064678
0.19464803
0.18283186
0.17101906
0.15920939
0.1474027
0.13559876
0.12379745
0.11199853
0.10020193
0.088407378
0.076614824
0.064823919
0.053034809
0.041247118
0.029461048
0.017675905
0.0058920667
1.4554178
1.4434644
1.4212301
1.3909425
1.3570813
1.3230857
1.2903882
1.2593826
1.2302852
1.2032734
1.1783463
1.1552967
1.1338152
1.1135976
1.094394
1.0760118
1.0583029
1.0411524
1.0244715
1.0081924
0.99226342
0.97664487
0.96130535
0.94621919
0.93136473
0.91672325
0.90227826
0.88801507
0.87392038
0.85998209
0.84618913
0.8325313
0.81899924
0.80558428
0.79227841
0.77907422
0.76596485
0.75294392
0.74000553
0.72714418
0.71435475
0.70163249
0.68897297
0.67637204
0.66382587
0.65133084
0.63888362
0.62648107
0.61412026
0.60179848
0.58951318
0.57726196
0.56504261
0.55285305
0.54069131
0.52855559
0.51644417
0.50435548
0.49228803
0.48024044
0.46821141
0.45619973
0.44420426
0.43222394
0.42025777
0.40830483
0.39636424
0.3844352
0.37251694
0.36060879
0.34871006
0.33682016
0.3249385
0.31306453
0.30119773
0.28933764
0.27748381
0.26563584
0.25379335
0.24195598
0.2301234
0.2182953
0.20647138
0.19465136
0.18283496
0.17102196
0.15921212
0.14740526
0.13560116
0.12379971
0.11200061
0.10020384
0.088409157
0.076616517
0.06482536
0.053036202
0.041248381
0.029462337
0.017676719
0.0058930471
1.4554178
1.4434644
1.4212301
1.3909425
1.3570813
1.3230857
1.2903882
1.2593826
1.2302852
1.2032734
1.1783463
1.1552967
1.1338152
1.1135975
1.094394
1.0760118
1.0583029
1.0411524
1.0244715
1.0081924
0.99226342
0.97664487
0.96130535
0.94621919
0.93136473
0.91672324
0.90227826
0.88801507
0.87392038
0.8599821
0.84618913
0.83253131
0.81899924
0.80558428
0.79227841
0.77907422
0.76596485
0.75294392
0.74000553
0.72714418
0.71435476
0.7016325
0.68897297
0.67637204
0.66382586
0.65133083
0.63888361
0.62648106
0.61412026
0.60179849
0.58951318
0.57726197
0.56504262
0.55285305
0.54069131
0.52855558
0.51644416
0.50435547
0.49228803
0.48024045
0.46821142
0.45619974
0.44420427
0.43222394
0.42025776
0.40830481
0.39636422
0.38443518
0.37251694
0.3606088
0.34871008
0.33682018
0.32493851
0.31306453
0.30119772
0.28933762
0.27748379
0.26563583
0.25379335
0.241956
0.23012343
0.21829533
0.2064714
0.19465135
0.18283493
0.17102193
0.15921209
0.14740525
0.13560118
0.12379975
0.11200064
0.10020386
0.088409173
0.076616478
0.064825275
0.053036176
0.041248434
0.029462388
0.017676728
0.0058930398
1.4681493
1.4526512
1.4257813
1.3918574
1.3560564
1.3211051
1.2878032
1.2564501
1.2273194
1.200528
1.1759404
1.1532482
1.1320964
1.1121676
1.0932094
1.0750297
1.057484
1.040463
1.0238844
1.0076864
0.99182239
0.97625664
0.96096068
0.945911
0.93108756
0.91647283
0.90205119
0.88780856
0.87373211
0.85981011
0.84603173
0.83238704
0.81886682
0.80546257
0.7921664
0.77897103
0.76586969
0.75285608
0.73992437
0.72706912
0.71428529
0.70156815
0.68891333
0.67631672
0.66377452
0.65128316
0.63883932
0.6264399
0.61408199
0.6017629
0.58948007
0.57723115
0.56501393
0.55282632
0.5406664
0.52853237
0.51642253
0.50433531
0.49226924
0.48022293
0.46819509
0.45618452
0.44419007
0.43221069
0.42024539
0.40829326
0.39635344
0.38442512
0.37250756
0.36060005
0.34870192
0.33681257
0.3249314
0.31305788
0.30119151
0.28933181
0.27747836
0.26563076
0.25378862
0.2419516
0.23011934
0.21829151
0.20646783
0.19464801
0.1828318
0.17101899
0.15920934
0.14740269
0.13559881
0.12379753
0.11199859
0.10020197
0.088407389
0.076614738
0.064823776
0.053034784
0.041247224
0.029461131
0.017675911
0.0058920531
1.4975578
1.4713827
1.4329859
1.391853
1.3527677
1.3161769
1.2818793
1.2501617
1.2213056
1.1952046
1.1714506
1.1495606
1.1291107
1.1097698
1.0912897
1.0734886
1.0562368
1.0394412
1.0230351
1.00697
0.99120965
0.97572596
0.96049609
0.94550059
0.93072232
0.91614583
0.901757
0.88754283
0.87349129
0.85959123
0.84583231
0.83220493
0.8187002
0.80530983
0.79202617
0.77884209
0.76575095
0.7527466
0.73982331
0.72697574
0.71419891
0.70148818
0.68883923
0.67624802
0.66371077
0.65122398
0.63878435
0.62638881
0.61403449
0.60171871
0.58943895
0.57719288
0.56497829
0.55279313
0.54063548
0.52850356
0.51639569
0.50431029
0.49224591
0.48020117
0.4681748
0.45616558
0.4441724
0.43219421
0.42023002
0.40827892
0.39634006
0.38441264
0.3724959
0.36058916
0.34869176
0.33680308
0.32492254
0.31304961
0.30118379
0.28932461
0.27747165
0.26562449
0.25378277
0.24194612
0.23011421
0.21828672
0.20646335
0.19464383
0.18282792
0.17101537
0.15920597
0.14739954
0.13559585
0.12379474
0.111996
0.10019955
0.088405136
0.076612623
0.064821965
0.053033088
0.041245749
0.029459676
0.017675054
0.0058910358
1.5583791
1.50345
1.4424975
1.3909298
1.3476598
1.3086915
1.2731052
1.2413326
1.2133717
1.1885938
1.1661919
1.1454906
1.126009
1.1074209
1.0895073
1.0721226
1.0551707
1.0385893
1.0223367
1.0063832
0.99070614
0.9752866
0.96010776
0.94515409
0.93041104
0.91586482
0.90150241
0.88731154
0.8732807
0.85939912
0.84565676
0.83204425
0.8185529
0.80517461
0.79190186
0.77872765
0.76564547
0.75264927
0.7397334
0.72689259
0.71412195
0.70141689
0.68877315
0.67618671
0.66365387
0.65117114
0.63873525
0.62634316
0.61399203
0.6016792
0.58940217
0.57715863
0.56494639
0.55276341
0.5406078
0.52847777
0.51637164
0.50428788
0.49222501
0.48018168
0.4681566
0.4561486
0.44415656
0.43217943
0.42021623
0.40826607
0.39632807
0.38440145
0.37248546
0.3605794
0.34868264
0.33679455
0.32491458
0.31304218
0.30117686
0.28931816
0.27746563
0.26561888
0.25377752
0.24194121
0.23010961
0.21828241
0.20645932
0.19464008
0.18282443
0.17101213
0.15920296
0.14739672
0.1355932
0.12379224
0.11199368
0.10019736
0.088403092
0.076610768
0.06482031
0.053031532
0.041244376
0.029458502
0.017674364
0.00589056
1.6755988
1.5545209
1.4585404
1.3948843
1.3463748
1.3039027
1.2663675
1.2341958
1.2067954
1.1829578
1.1615635
1.1417997
1.1231225
1.105183
1.0877677
1.0707535
1.0540726
1.0376884
1.0215802
1.0057343
0.99013932
0.97478422
0.95965752
0.94474728
0.93004128
0.91552729
0.90119332
0.88702781
0.87301976
0.85915876
0.84543505
0.8318395
0.8183636
0.80499943
0.7917396
0.77857723
0.76550592
0.75251972
0.73961305
0.72678074
0.71401794
0.70132013
0.68868308
0.67610287
0.66357578
0.65109839
0.63866745
0.62627997
0.61393312
0.60162427
0.58935095
0.57711085
0.56490181
0.55272183
0.540569
0.52844156
0.51633785
0.50425634
0.49219557
0.48015419
0.46813095
0.45612465
0.4441342
0.43215855
0.42019674
0.40824786
0.39631107
0.38438558
0.37247064
0.36056556
0.34866971
0.33678248
0.3249033
0.31303165
0.30116703
0.28930898
0.27745706
0.26561087
0.25377004
0.24193422
0.23010307
0.21827631
0.20645363
0.19463476
0.18281947
0.1710075
0.15919863
0.14739267
0.13558942
0.12378871
0.11199038
0.10019426
0.08840021
0.076608107
0.064817829
0.053029221
0.04124221
0.029456633
0.01767269
0.0058897173
)
;

boundaryField
{
    top
    {
        type            zeroGradient;
    }
    inlet
    {
        type            zeroGradient;
    }
    outlet
    {
        type            fixedValue;
        value           uniform 0;
    }
    bottom
    {
        type            zeroGradient;
    }
    back
    {
        type            empty;
    }
    front
    {
        type            empty;
    }
}


// ************************************************************************* //
