/*--------------------------------*- C++ -*----------------------------------*\
| =========                 |                                                 |
| \\      /  F ield         | OpenFOAM: The Open Source CFD Toolbox           |
|  \\    /   O peration     | Version:  v1812                                 |
|   \\  /    A nd           | Web:      www.OpenFOAM.com                      |
|    \\/     M anipulation  |                                                 |
\*---------------------------------------------------------------------------*/
FoamFile
{
    version     2.0;
    format      ascii;
    class       volScalarField;
    location    "2.15";
    object      p;
}
// * * * * * * * * * * * * * * * * * * * * * * * * * * * * * * * * * * * * * //

dimensions      [0 2 -2 0 0 0 0];


internalField   nonuniform List<scalar> 
1000
(
1.7574889
1.6364104
1.5404289
1.4767726
1.4282638
1.3857935
1.3482709
1.3161314
1.2887816
1.2650194
1.2437459
1.2241681
1.2057547
1.1881701
1.1712184
1.1547891
1.1388173
1.123259
1.1080779
1.0932373
1.0786954
1.0644056
1.0503211
1.0363982
1.0225979
1.0088875
0.9952405
0.98163646
0.9680604
0.95450178
0.94095354
0.92741088
0.91387063
0.90033171
0.88679334
0.87325505
0.85971665
0.8461781
0.83263941
0.81910062
0.80556176
0.79202286
0.77848394
0.76494501
0.75140607
0.73786713
0.72432818
0.71078924
0.6972503
0.68371137
0.67017243
0.65663349
0.64309456
0.62955562
0.61601668
0.60247775
0.58893881
0.57539988
0.56186094
0.54832201
0.53478307
0.52124414
0.5077052
0.49416627
0.48062733
0.4670884
0.45354946
0.44001053
0.42647159
0.41293266
0.39939372
0.38585479
0.37231585
0.35877693
0.34523798
0.33169906
0.31816011
0.30462119
0.29108225
0.2775433
0.2640044
0.25046542
0.23692654
0.22338754
0.20984866
0.1963097
0.18277074
0.16923189
0.15569285
0.14215402
0.12861502
0.11507608
0.10153721
0.087998194
0.074459331
0.060920488
0.047381599
0.033842995
0.020304568
0.0067673165
1.6402699
1.5853414
1.5243898
1.4728238
1.4295581
1.390593
1.3550086
1.3232525
1.295336
1.2706272
1.2483222
1.2277679
1.20851
1.190239
1.1727463
1.1558976
1.1396067
1.123811
1.1084561
1.0934891
1.0788559
1.0645021
1.0503748
1.0364245
1.022608
1.0088886
0.99523738
0.98163191
0.96805589
0.95449788
0.94095018
0.92740805
0.91386888
0.90033073
0.8867928
0.87325476
0.8597165
0.84617803
0.83263938
0.81910062
0.80556177
0.79202287
0.77848395
0.76494501
0.75140607
0.73786713
0.72432819
0.71078925
0.69725031
0.68371137
0.67017243
0.65663349
0.64309456
0.62955562
0.61601668
0.60247775
0.58893881
0.57539988
0.56186094
0.54832201
0.53478307
0.52124414
0.5077052
0.49416627
0.48062733
0.4670884
0.45354946
0.44001053
0.42647159
0.41293266
0.39939372
0.3858548
0.37231584
0.35877693
0.34523797
0.33169907
0.3181601
0.30462119
0.29108225
0.27754329
0.26400442
0.25046539
0.23692656
0.22338752
0.20984866
0.19630971
0.18277072
0.16923191
0.15569283
0.14215399
0.12861505
0.11507601
0.1015372
0.087998185
0.074459196
0.060920438
0.047381323
0.033842556
0.02030382
0.0067665528
1.5794504
1.5532771
1.514884
1.4737547
1.4346764
1.3980948
1.3637984
1.3320878
1.3032798
1.2772731
1.2536332
1.2318784
1.2116282
1.1925892
1.1745199
1.1572355
1.1406131
1.1245681
1.1090278
1.0939206
1.0791789
1.0647403
1.0505474
1.0365474
1.0226935
1.0089466
0.99527552
0.9816562
0.96807081
0.95450667
0.94095518
0.92741077
0.91387011
0.90033117
0.88679287
0.87325467
0.85971638
0.84617791
0.83263929
0.81910055
0.80556172
0.79202284
0.77848393
0.764945
0.75140607
0.73786713
0.72432819
0.71078925
0.69725031
0.68371137
0.67017243
0.65663349
0.64309456
0.62955562
0.61601668
0.60247775
0.58893881
0.57539988
0.56186094
0.54832201
0.53478307
0.52124414
0.5077052
0.49416627
0.48062733
0.4670884
0.45354946
0.44001053
0.42647159
0.41293267
0.39939371
0.38585481
0.37231583
0.35877694
0.34523796
0.33169908
0.3181601
0.30462119
0.29108226
0.27754328
0.26400444
0.25046537
0.2369266
0.22338749
0.20984869
0.19630968
0.18277072
0.16923188
0.1556928
0.14215399
0.12861496
0.115076
0.10153703
0.08799805
0.074458908
0.060919975
0.047380665
0.033841492
0.020302486
0.0067656466
1.550044
1.5345486
1.5076842
1.4737652
1.4379721
1.4030339
1.3697359
1.3383882
1.3093139
1.282644
1.2581966
1.2356437
1.2146858
1.195065
1.1765306
1.1588669
1.1419294
1.1256266
1.1098778
1.0945994
1.0797132
1.0651528
1.0508594
1.0367786
1.022861
1.009065
0.99535696
0.98171067
0.96810618
0.9545289
0.94096866
0.92741863
0.91387447
0.90033344
0.88679394
0.87325512
0.8597165
0.8461779
0.83263923
0.81910049
0.80556167
0.7920228
0.77848391
0.76494499
0.75140606
0.73786712
0.72432818
0.71078924
0.69725031
0.68371137
0.67017243
0.65663349
0.64309456
0.62955562
0.61601668
0.60247775
0.58893881
0.57539988
0.56186094
0.54832201
0.53478307
0.52124414
0.5077052
0.49416627
0.48062733
0.4670884
0.45354946
0.44001053
0.42647158
0.41293267
0.39939371
0.38585481
0.37231583
0.35877695
0.34523795
0.33169909
0.31816009
0.3046212
0.29108226
0.27754327
0.26400445
0.25046533
0.23692664
0.22338744
0.20984874
0.19630964
0.18277076
0.16923189
0.15569274
0.14215406
0.1286148
0.11507601
0.10153685
0.087997781
0.074458684
0.060919342
0.047379914
0.033840569
0.02030132
0.0067649673
1.5373138
1.5253634
1.5031355
1.4728535
1.4390005
1.4050193
1.3723276
1.3413293
1.3122948
1.2854181
1.2606426
1.2377332
1.2164425
1.1965365
1.1777638
1.1598964
1.1427825
1.1263303
1.1104575
1.0950743
1.0800972
1.0654577
1.0510969
1.03696
1.0229966
1.0091639
0.99542722
0.98175921
0.96813874
0.95455009
0.94098199
0.92742672
0.91387917
0.90033603
0.88679529
0.87325575
0.85971676
0.84617797
0.83263922
0.81910045
0.80556163
0.79202277
0.77848388
0.76494497
0.75140605
0.73786712
0.72432818
0.71078924
0.69725031
0.68371137
0.67017243
0.65663349
0.64309456
0.62955562
0.61601668
0.60247775
0.58893881
0.57539988
0.56186094
0.54832201
0.53478307
0.52124414
0.5077052
0.49416627
0.48062733
0.4670884
0.45354946
0.44001054
0.42647158
0.41293267
0.3993937
0.38585482
0.37231582
0.35877696
0.34523794
0.33169909
0.31816008
0.3046212
0.29108226
0.27754327
0.26400447
0.25046531
0.23692667
0.2233874
0.20984878
0.19630961
0.18277075
0.16923191
0.15569267
0.14215412
0.12861469
0.11507602
0.10153679
0.087997569
0.074458559
0.060918953
0.047379432
0.0338401
0.020300721
0.0067646266
1.5373138
1.5253634
1.5031355
1.4728535
1.4390005
1.4050193
1.3723276
1.3413293
1.3122948
1.2854181
1.2606426
1.2377332
1.2164425
1.1965365
1.1777638
1.1598964
1.1427825
1.1263303
1.1104575
1.0950743
1.0800972
1.0654577
1.0510969
1.03696
1.0229966
1.0091639
0.99542722
0.9817592
0.96813874
0.95455008
0.94098198
0.92742672
0.91387916
0.90033603
0.88679529
0.87325575
0.85971676
0.84617797
0.83263922
0.81910045
0.80556163
0.79202277
0.77848388
0.76494497
0.75140605
0.73786712
0.72432818
0.71078924
0.69725031
0.68371137
0.67017243
0.65663349
0.64309456
0.62955562
0.61601668
0.60247775
0.58893881
0.57539988
0.56186094
0.54832201
0.53478307
0.52124414
0.5077052
0.49416627
0.48062733
0.4670884
0.45354946
0.44001054
0.42647158
0.41293267
0.3993937
0.38585482
0.37231582
0.35877696
0.34523794
0.33169909
0.31816008
0.3046212
0.29108226
0.27754327
0.26400447
0.25046531
0.23692667
0.2233874
0.20984878
0.19630961
0.18277075
0.16923191
0.15569267
0.14215412
0.12861469
0.11507602
0.10153679
0.087997568
0.07445856
0.060918954
0.047379433
0.033840101
0.020300721
0.0067646261
1.550044
1.5345486
1.5076842
1.4737652
1.4379721
1.4030339
1.3697359
1.3383882
1.3093139
1.282644
1.2581966
1.2356437
1.2146858
1.195065
1.1765306
1.1588669
1.1419294
1.1256265
1.1098778
1.0945993
1.0797132
1.0651528
1.0508594
1.0367786
1.022861
1.009065
0.99535695
0.98171066
0.96810617
0.95452889
0.94096864
0.92741862
0.91387445
0.90033342
0.88679393
0.87325511
0.8597165
0.8461779
0.83263923
0.81910048
0.80556167
0.7920228
0.7784839
0.76494499
0.75140606
0.73786712
0.72432818
0.71078924
0.69725031
0.68371137
0.67017243
0.65663349
0.64309456
0.62955562
0.61601669
0.60247775
0.58893881
0.57539988
0.56186094
0.54832201
0.53478307
0.52124414
0.5077052
0.49416627
0.48062733
0.4670884
0.45354946
0.44001054
0.42647158
0.41293267
0.39939371
0.38585481
0.37231583
0.35877695
0.34523795
0.33169909
0.31816009
0.3046212
0.29108226
0.27754327
0.26400445
0.25046533
0.23692664
0.22338744
0.20984874
0.19630964
0.18277076
0.16923189
0.15569274
0.14215406
0.1286148
0.11507601
0.10153685
0.087997779
0.074458685
0.060919344
0.047379915
0.03384057
0.02030132
0.0067649664
1.5794504
1.5532771
1.514884
1.4737547
1.4346764
1.3980948
1.3637984
1.3320877
1.3032798
1.2772731
1.2536332
1.2318784
1.2116282
1.1925892
1.1745199
1.1572355
1.140613
1.1245681
1.1090277
1.0939206
1.0791789
1.0647403
1.0505474
1.0365474
1.0226935
1.0089466
0.99527551
0.98165619
0.9680708
0.95450665
0.94095516
0.92741075
0.91387009
0.90033115
0.88679285
0.87325466
0.85971637
0.84617791
0.83263929
0.81910055
0.80556172
0.79202284
0.77848393
0.764945
0.75140607
0.73786713
0.72432819
0.71078925
0.69725031
0.68371137
0.67017243
0.65663349
0.64309456
0.62955562
0.61601669
0.60247775
0.58893881
0.57539988
0.56186094
0.54832201
0.53478307
0.52124414
0.5077052
0.49416627
0.48062733
0.4670884
0.45354946
0.44001053
0.42647159
0.41293267
0.39939371
0.38585481
0.37231583
0.35877694
0.34523796
0.33169908
0.3181601
0.30462119
0.29108226
0.27754328
0.26400444
0.25046536
0.2369266
0.22338749
0.20984869
0.19630968
0.18277072
0.16923188
0.15569281
0.14215399
0.12861496
0.115076
0.10153703
0.087998048
0.074458909
0.060919978
0.047380667
0.033841493
0.020302486
0.0067656458
1.6402699
1.5853414
1.5243898
1.4728238
1.4295581
1.390593
1.3550085
1.3232525
1.295336
1.2706272
1.2483222
1.2277679
1.20851
1.190239
1.1727463
1.1558976
1.1396067
1.123811
1.1084561
1.0934891
1.0788559
1.0645021
1.0503748
1.0364245
1.022608
1.0088886
0.99523737
0.9816319
0.96805587
0.95449786
0.94095016
0.92740803
0.91386886
0.90033072
0.88679278
0.87325475
0.85971649
0.84617802
0.83263938
0.81910061
0.80556176
0.79202287
0.77848395
0.76494501
0.75140607
0.73786713
0.72432819
0.71078925
0.69725031
0.68371137
0.67017243
0.65663349
0.64309456
0.62955562
0.61601669
0.60247775
0.58893881
0.57539988
0.56186094
0.54832201
0.53478307
0.52124414
0.5077052
0.49416627
0.48062733
0.4670884
0.45354946
0.44001053
0.42647159
0.41293266
0.39939372
0.3858548
0.37231584
0.35877693
0.34523797
0.33169907
0.3181601
0.30462119
0.29108225
0.27754329
0.26400441
0.25046539
0.23692656
0.22338752
0.20984866
0.19630971
0.18277072
0.16923191
0.15569283
0.14215399
0.12861505
0.11507601
0.1015372
0.087998183
0.074459198
0.060920441
0.047381324
0.033842556
0.020303819
0.0067665521
1.7574889
1.6364104
1.5404289
1.4767726
1.4282638
1.3857935
1.3482709
1.3161314
1.2887816
1.2650194
1.2437459
1.2241681
1.2057547
1.1881701
1.1712184
1.1547891
1.1388173
1.123259
1.1080779
1.0932373
1.0786954
1.0644056
1.0503211
1.0363981
1.0225979
1.0088875
0.99524049
0.98163645
0.96806038
0.95450175
0.94095352
0.92741086
0.91387061
0.90033169
0.88679332
0.87325504
0.85971664
0.84617809
0.8326394
0.81910062
0.80556176
0.79202286
0.77848394
0.76494501
0.75140607
0.73786713
0.72432819
0.71078925
0.69725031
0.68371137
0.67017243
0.65663349
0.64309456
0.62955562
0.61601669
0.60247775
0.58893881
0.57539988
0.56186094
0.54832201
0.53478307
0.52124414
0.5077052
0.49416627
0.48062733
0.4670884
0.45354946
0.44001053
0.42647159
0.41293266
0.39939372
0.38585479
0.37231585
0.35877693
0.34523798
0.33169906
0.31816011
0.30462119
0.29108225
0.2775433
0.26400439
0.25046541
0.23692654
0.22338754
0.20984866
0.1963097
0.18277074
0.16923189
0.15569285
0.14215402
0.12861502
0.11507607
0.1015372
0.087998195
0.074459335
0.06092049
0.047381597
0.033842991
0.020304566
0.0067673162
)
;

boundaryField
{
    top
    {
        type            zeroGradient;
    }
    inlet
    {
        type            zeroGradient;
    }
    outlet
    {
        type            fixedValue;
        value           uniform 0;
    }
    bottom
    {
        type            zeroGradient;
    }
    back
    {
        type            empty;
    }
    front
    {
        type            empty;
    }
}


// ************************************************************************* //
