/*--------------------------------*- C++ -*----------------------------------*\
| =========                 |                                                 |
| \\      /  F ield         | OpenFOAM: The Open Source CFD Toolbox           |
|  \\    /   O peration     | Version:  v1812                                 |
|   \\  /    A nd           | Web:      www.OpenFOAM.com                      |
|    \\/     M anipulation  |                                                 |
\*---------------------------------------------------------------------------*/
FoamFile
{
    version     2.0;
    format      ascii;
    class       volVectorField;
    location    "2.15";
    object      U;
}
// * * * * * * * * * * * * * * * * * * * * * * * * * * * * * * * * * * * * * //

dimensions      [0 1 -1 0 0 0 0];


internalField   nonuniform List<vector> 
1000
(
(0.91890913 0.035821685 0)
(0.86271424 0.062195698 0)
(0.78706115 0.062505062 0)
(0.69537076 0.054542613 0)
(0.61092558 0.044516969 0)
(0.54418585 0.033968141 0)
(0.49357693 0.024110516 0)
(0.45502188 0.016058512 0)
(0.42576612 0.010144173 0)
(0.40394455 0.0060965917 0)
(0.38787503 0.0034956718 0)
(0.37603532 0.0019418327 0)
(0.36721082 0.0010777797 0)
(0.36052518 0.00062362858 0)
(0.35538087 0.0003979137 0)
(0.35137521 0.00029412971 0)
(0.34823534 0.00024762245 0)
(0.34577206 0.00022048344 0)
(0.34385246 0.00019577399 0)
(0.34237786 0.00016970014 0)
(0.34126834 0.00014287947 0)
(0.34045357 0.00011636083 0)
(0.33987079 9.1315262e-05 0)
(0.33946569 6.884462e-05 0)
(0.33919304 4.9812514e-05 0)
(0.33901606 3.4636303e-05 0)
(0.33890576 2.3176691e-05 0)
(0.33884018 1.4919412e-05 0)
(0.33880341 9.2217168e-06 0)
(0.33878431 5.4352802e-06 0)
(0.33877551 3.0223364e-06 0)
(0.33877228 1.5138481e-06 0)
(0.3387717 5.8127626e-07 0)
(0.33877217 1.3486234e-07 0)
(0.33877301 -3.5582253e-08 0)
(0.33877383 -8.17416e-08 0)
(0.33877448 -7.9502755e-08 0)
(0.33877494 -6.2182431e-08 0)
(0.33877523 -4.3425286e-08 0)
(0.3387754 -2.7807537e-08 0)
(0.33877549 -1.660874e-08 0)
(0.33877554 -8.9879387e-09 0)
(0.33877555 -4.2622354e-09 0)
(0.33877556 -8.0814058e-10 0)
(0.33877555 8.6963754e-10 0)
(0.33877555 1.5276164e-09 0)
(0.33877554 1.4939307e-09 0)
(0.33877554 1.4324711e-09 0)
(0.33877553 1.153688e-09 0)
(0.33877553 1.0438084e-09 0)
(0.33877553 7.8828726e-10 0)
(0.33877552 7.2731592e-10 0)
(0.33877552 5.2931503e-10 0)
(0.33877552 5.148025e-10 0)
(0.33877552 3.4874374e-10 0)
(0.33877552 3.5938171e-10 0)
(0.33877552 2.2821383e-10 0)
(0.33877552 2.5302368e-10 0)
(0.33877552 1.4931603e-10 0)
(0.33877551 1.569204e-10 0)
(0.33877551 1.2575597e-10 0)
(0.33877551 5.285187e-11 0)
(0.33877551 1.9111644e-10 0)
(0.33877551 -1.5363452e-10 0)
(0.33877551 4.6498081e-10 0)
(0.33877551 -6.5487847e-10 0)
(0.33877551 1.2080438e-09 0)
(0.33877552 -1.8700847e-09 0)
(0.3387755 3.0016935e-09 0)
(0.33877553 -4.5566337e-09 0)
(0.33877549 6.8208518e-09 0)
(0.33877555 -9.8529206e-09 0)
(0.33877546 1.3841625e-08 0)
(0.33877559 -1.8631965e-08 0)
(0.3387754 2.4306816e-08 0)
(0.33877567 -2.979809e-08 0)
(0.3387753 3.4983476e-08 0)
(0.3387758 -3.7169736e-08 0)
(0.33877514 3.6120238e-08 0)
(0.33877598 -2.7667812e-08 0)
(0.33877494 1.2262774e-08 0)
(0.33877618 1.3154464e-08 0)
(0.33877474 -4.3788134e-08 0)
(0.33877636 8.2169837e-08 0)
(0.33877458 -1.1242878e-07 0)
(0.33877648 1.4300069e-07 0)
(0.33877448 -1.3815142e-07 0)
(0.33877654 1.3713582e-07 0)
(0.33877438 -6.7674823e-08 0)
(0.33877659 5.4384867e-08 0)
(0.33877422 8.3611261e-08 0)
(0.33877654 -1.1079966e-08 0)
(0.33877398 2.8396551e-07 0)
(0.33877616 7.496199e-08 0)
(0.33877346 5.9643943e-07 0)
(0.33877503 4.1517425e-07 0)
(0.33877192 1.1350831e-06 0)
(0.33877222 1.3462053e-06 0)
(0.33876706 1.9538829e-06 0)
(0.33876612 2.3865276e-06 0)
(1.0016585 0.053818082 0)
(1.0359768 0.10128314 0)
(1.0597176 0.11073065 0)
(1.062893 0.10590178 0)
(1.0515614 0.096197276 0)
(1.0340691 0.083875123 0)
(1.0143487 0.070214194 0)
(0.99376001 0.056822576 0)
(0.97316892 0.044911328 0)
(0.95348134 0.034951923 0)
(0.93540332 0.026946755 0)
(0.91926348 0.020710598 0)
(0.90510375 0.01595549 0)
(0.89284646 0.012339845 0)
(0.88238212 0.0095574878 0)
(0.87357643 0.0073890823 0)
(0.86627476 0.0056849226 0)
(0.86031633 0.0043344358 0)
(0.85554435 0.0032573598 0)
(0.85180309 0.0024013545 0)
(0.848937 0.0017312172 0)
(0.84679499 0.0012176785 0)
(0.84523617 0.00083336095 0)
(0.8441334 0.00055288178 0)
(0.84337693 0.00035389284 0)
(0.84287506 0.00021733074 0)
(0.84255401 0.00012707104 0)
(0.84235682 6.984188e-05 0)
(0.8422413 3.5246439e-05 0)
(0.84217742 1.5488201e-05 0)
(0.84214471 4.996785e-06 0)
(0.8421298 -4.6355702e-08 0)
(0.84212445 -2.0687689e-06 0)
(0.84212371 -2.4546156e-06 0)
(0.84212476 -2.1169153e-06 0)
(0.84212627 -1.5720146e-06 0)
(0.84212765 -1.0592572e-06 0)
(0.84212871 -6.5966607e-07 0)
(0.84212944 -3.8089476e-07 0)
(0.84212991 -2.0160661e-07 0)
(0.84213018 -9.4674954e-08 0)
(0.84213033 -3.5399385e-08 0)
(0.8421304 -5.3116555e-09 0)
(0.84213043 8.6453805e-09 0)
(0.84213044 1.3088163e-08 0)
(0.84213043 1.3272627e-08 0)
(0.84213042 1.1514949e-08 0)
(0.84213042 9.5313274e-09 0)
(0.84213041 7.5738045e-09 0)
(0.8421304 6.1472901e-09 0)
(0.8421304 4.8971011e-09 0)
(0.84213039 4.09644e-09 0)
(0.84213039 3.3437074e-09 0)
(0.84213038 2.9022139e-09 0)
(0.84213038 2.3970125e-09 0)
(0.84213038 2.1087171e-09 0)
(0.84213038 1.7532146e-09 0)
(0.84213037 1.5271408e-09 0)
(0.84213037 1.3128123e-09 0)
(0.84213037 1.0104176e-09 0)
(0.84213037 1.0892697e-09 0)
(0.84213037 4.3717146e-10 0)
(0.84213037 1.2597855e-09 0)
(0.84213037 -5.5016304e-10 0)
(0.84213036 2.2922553e-09 0)
(0.84213037 -2.7008266e-09 0)
(0.84213035 5.2934521e-09 0)
(0.84213039 -7.6614408e-09 0)
(0.84213032 1.2442396e-08 0)
(0.84213043 -1.826629e-08 0)
(0.84213026 2.7175524e-08 0)
(0.84213052 -3.8229687e-08 0)
(0.84213013 5.2734849e-08 0)
(0.84213071 -6.8966241e-08 0)
(0.84212986 8.6887778e-08 0)
(0.84213106 -1.0176174e-07 0)
(0.84212941 1.1138605e-07 0)
(0.84213162 -1.0620715e-07 0)
(0.84212875 8.2772887e-08 0)
(0.84213236 -2.9087076e-08 0)
(0.84212796 -5.3075193e-08 0)
(0.84213313 1.6857762e-07 0)
(0.84212729 -2.9368544e-07 0)
(0.84213363 4.1916168e-07 0)
(0.84212701 -4.8523115e-07 0)
(0.84213365 4.8811112e-07 0)
(0.84212719 -3.380579e-07 0)
(0.84213328 1.340982e-07 0)
(0.84212759 2.3905829e-07 0)
(0.84213284 -4.5694506e-07 0)
(0.84212788 7.8877171e-07 0)
(0.84213241 -5.4028627e-07 0)
(0.84212806 7.3174264e-07 0)
(0.84213172 2.3317371e-07 0)
(0.84212788 6.5169787e-07 0)
(0.84213085 1.0821633e-06 0)
(0.84212606 1.7350969e-06 0)
(0.84212966 2.3332091e-06 0)
(0.84212064 3.8712299e-06 0)
(0.84212872 5.1108212e-06 0)
(1.0014241 0.026823094 0)
(1.0291267 0.062787971 0)
(1.0654219 0.077729212 0)
(1.0989482 0.08057332 0)
(1.1252925 0.078243254 0)
(1.1450105 0.073086456 0)
(1.1594424 0.065990474 0)
(1.1694087 0.057976186 0)
(1.1755081 0.050045064 0)
(1.1784927 0.042785213 0)
(1.1792344 0.036401817 0)
(1.1784765 0.030919946 0)
(1.1767257 0.026268257 0)
(1.1743376 0.022297683 0)
(1.1716045 0.018845828 0)
(1.1687537 0.015800404 0)
(1.165934 0.013099937 0)
(1.1632419 0.010705289 0)
(1.1607528 0.0085901572 0)
(1.1585265 0.0067441008 0)
(1.1565996 0.0051669783 0)
(1.1549831 0.0038560644 0)
(1.1536681 0.0027983103 0)
(1.1526311 0.0019707359 0)
(1.1518392 0.0013438819 0)
(1.1512539 0.00088506625 0)
(1.1508349 0.00056110152 0)
(1.1505446 0.00034077898 0)
(1.1503502 0.00019679255 0)
(1.1502246 0.00010671386 0)
(1.1501464 5.3086906e-05 0)
(1.1500998 2.302534e-05 0)
(1.1500732 7.4520031e-06 0)
(1.1500589 2.138978e-07 0)
(1.1500518 -2.523234e-06 0)
(1.1500486 -3.0455485e-06 0)
(1.1500474 -2.6393903e-06 0)
(1.1500472 -1.9671892e-06 0)
(1.1500473 -1.3276223e-06 0)
(1.1500476 -8.2690882e-07 0)
(1.1500478 -4.7663597e-07 0)
(1.150048 -2.5149344e-07 0)
(1.1500481 -1.1700894e-07 0)
(1.1500482 -4.2970981e-08 0)
(1.1500482 -5.7022061e-09 0)
(1.1500482 1.0907634e-08 0)
(1.1500482 1.6699442e-08 0)
(1.1500483 1.7169389e-08 0)
(1.1500482 1.5608019e-08 0)
(1.1500482 1.3393444e-08 0)
(1.1500482 1.1338583e-08 0)
(1.1500482 9.5115043e-09 0)
(1.1500482 8.1051345e-09 0)
(1.1500482 6.8927105e-09 0)
(1.1500482 5.9923712e-09 0)
(1.1500482 5.1254559e-09 0)
(1.1500482 4.5479067e-09 0)
(1.1500482 3.8142264e-09 0)
(1.1500482 3.5332503e-09 0)
(1.1500482 2.6638788e-09 0)
(1.1500482 2.9475881e-09 0)
(1.1500482 1.4001053e-09 0)
(1.1500482 3.1021896e-09 0)
(1.1500482 -6.0300031e-10 0)
(1.1500482 4.8360307e-09 0)
(1.1500482 -4.633288e-09 0)
(1.1500482 1.0034622e-08 0)
(1.1500483 -1.3375185e-08 0)
(1.1500481 2.2083834e-08 0)
(1.1500484 -3.0993141e-08 0)
(1.150048 4.5533082e-08 0)
(1.1500486 -6.1577889e-08 0)
(1.1500477 8.2354093e-08 0)
(1.150049 -1.0239043e-07 0)
(1.1500471 1.2172516e-07 0)
(1.1500498 -1.3028942e-07 0)
(1.1500461 1.2450907e-07 0)
(1.1500509 -8.8839399e-08 0)
(1.1500448 2.1006764e-08 0)
(1.1500523 9.2243547e-08 0)
(1.1500435 -2.3566195e-07 0)
(1.1500534 4.0407582e-07 0)
(1.1500427 -5.4023452e-07 0)
(1.1500536 6.1547367e-07 0)
(1.1500431 -5.4247916e-07 0)
(1.1500527 3.3261332e-07 0)
(1.1500446 6.5754899e-08 0)
(1.150051 -4.6607182e-07 0)
(1.1500462 9.0976241e-07 0)
(1.1500497 -9.45018e-07 0)
(1.1500469 9.5281519e-07 0)
(1.1500495 -2.3125424e-07 0)
(1.1500467 2.2927637e-07 0)
(1.1500499 7.9906856e-07 0)
(1.1500461 4.898366e-07 0)
(1.1500504 1.0958768e-06 0)
(1.1500448 2.0829536e-06 0)
(1.1500512 2.359591e-06 0)
(1.1500416 3.8439215e-06 0)
(1.1500542 5.0069662e-06 0)
(1.0007343 0.011813525 0)
(1.0178457 0.030857222 0)
(1.0462047 0.041427995 0)
(1.0798815 0.045175726 0)
(1.1132323 0.0454686 0)
(1.1437108 0.04402669 0)
(1.1707935 0.041349647 0)
(1.1944555 0.037831458 0)
(1.2146716 0.033990616 0)
(1.2315955 0.030231236 0)
(1.2456603 0.026749689 0)
(1.2573677 0.023617083 0)
(1.2670966 0.020834654 0)
(1.2751354 0.018345854 0)
(1.2817628 0.016075154 0)
(1.2872238 0.013972747 0)
(1.291684 0.01201825 0)
(1.2952547 0.010201621 0)
(1.2980435 0.0085181926 0)
(1.3001688 0.0069748064 0)
(1.3017452 0.0055879311 0)
(1.302876 0.0043734407 0)
(1.3036545 0.0033391324 0)
(1.3041659 0.0024834776 0)
(1.3044843 0.0017968429 0)
(1.3046693 0.0012630478 0)
(1.3047667 0.00086138985 0)
(1.3048099 0.00056905246 0)
(1.3048222 0.00036338129 0)
(1.3048188 0.00022364548 0)
(1.304809 0.00013209655 0)
(1.304798 7.4395343e-05 0)
(1.3047882 3.9530486e-05 0)
(1.3047804 1.9434838e-05 0)
(1.3047747 8.4853859e-06 0)
(1.3047709 2.9350281e-06 0)
(1.3047684 4.044551e-07 0)
(1.3047669 -5.517624e-07 0)
(1.304766 -7.6237581e-07 0)
(1.3047655 -6.6961256e-07 0)
(1.3047653 -4.9106632e-07 0)
(1.3047652 -3.2086855e-07 0)
(1.3047651 -1.8983338e-07 0)
(1.3047651 -1.0064974e-07 0)
(1.3047651 -4.4828894e-08 0)
(1.3047651 -1.3031911e-08 0)
(1.3047651 3.6576163e-09 0)
(1.3047651 1.125685e-08 0)
(1.3047651 1.4051136e-08 0)
(1.3047651 1.4219081e-08 0)
(1.3047651 1.340784e-08 0)
(1.3047651 1.2067472e-08 0)
(1.3047651 1.0816471e-08 0)
(1.3047651 9.4997046e-09 0)
(1.3047651 8.4692664e-09 0)
(1.3047651 7.378784e-09 0)
(1.3047651 6.6355584e-09 0)
(1.3047651 5.6636371e-09 0)
(1.3047651 5.2432698e-09 0)
(1.3047651 4.147936e-09 0)
(1.3047651 4.33921e-09 0)
(1.3047651 2.5477894e-09 0)
(1.3047651 4.2194488e-09 0)
(1.3047651 2.6436332e-10 0)
(1.3047651 5.7131775e-09 0)
(1.3047652 -3.9319056e-09 0)
(1.3047651 1.0507264e-08 0)
(1.3047652 -1.2396011e-08 0)
(1.3047649 2.1479052e-08 0)
(1.3047654 -2.8379815e-08 0)
(1.3047647 4.1703369e-08 0)
(1.3047657 -5.3848155e-08 0)
(1.3047642 7.0297154e-08 0)
(1.3047664 -8.2595366e-08 0)
(1.3047634 9.2830329e-08 0)
(1.3047675 -8.8994119e-08 0)
(1.304762 7.0874569e-08 0)
(1.3047691 -2.3496945e-08 0)
(1.3047603 -4.8450461e-08 0)
(1.3047708 1.5474732e-07 0)
(1.3047588 -2.6942646e-07 0)
(1.3047718 3.843884e-07 0)
(1.3047584 -4.4050934e-07 0)
(1.3047714 4.2203814e-07 0)
(1.3047598 -2.6373876e-07 0)
(1.3047692 1.1914233e-08 0)
(1.3047624 3.4590583e-07 0)
(1.3047666 -6.2447776e-07 0)
(1.3047646 8.4358541e-07 0)
(1.3047653 -6.6865986e-07 0)
(1.304765 4.9255749e-07 0)
(1.3047659 1.6177866e-07 0)
(1.304764 -1.0244059e-07 0)
(1.3047674 7.4321813e-07 0)
(1.3047631 4.3971395e-07 0)
(1.3047687 6.8808083e-07 0)
(1.3047627 1.7040748e-06 0)
(1.3047702 1.7174922e-06 0)
(1.3047611 2.6513324e-06 0)
(1.3047754 3.3961318e-06 0)
(1.0005899 0.0034625198 0)
(1.0136848 0.0093644971 0)
(1.0370142 0.013044255 0)
(1.0673963 0.01455679 0)
(1.0999933 0.01484176 0)
(1.1315624 0.014544718 0)
(1.1609554 0.013855535 0)
(1.1879242 0.012867426 0)
(1.2122796 0.011729116 0)
(1.2339214 0.010579095 0)
(1.2530246 0.0094927403 0)
(1.2698971 0.0085000583 0)
(1.2847764 0.0076052422 0)
(1.2978471 0.0067925254 0)
(1.3093175 0.0060390414 0)
(1.3193802 0.0053297366 0)
(1.3281483 0.0046587686 0)
(1.3356789 0.0040231249 0)
(1.3420362 0.0034214239 0)
(1.3473111 0.0028568548 0)
(1.3516061 0.0023369174 0)
(1.3550261 0.0018697557 0)
(1.3576821 0.0014611664 0)
(1.3596917 0.0011137725 0)
(1.3611725 0.00082708063 0)
(1.362234 0.000597717 0)
(1.3629732 0.00041996787 0)
(1.3634723 0.00028659857 0)
(1.3637986 0.00018973549 0)
(1.3640048 0.00012166204 0)
(1.3641304 7.5400114e-05 0)
(1.3642038 4.5033782e-05 0)
(1.3642447 2.5810822e-05 0)
(1.3642661 1.4099681e-05 0)
(1.3642765 7.258053e-06 0)
(1.3642809 3.4474101e-06 0)
(1.3642824 1.4478814e-06 0)
(1.3642826 4.7642333e-07 0)
(1.3642823 5.3683766e-08 0)
(1.3642819 -9.4356184e-08 0)
(1.3642815 -1.1875154e-07 0)
(1.3642813 -9.6598261e-08 0)
(1.3642811 -6.4045679e-08 0)
(1.364281 -3.5313763e-08 0)
(1.3642809 -1.4414578e-08 0)
(1.3642809 -9.5444235e-10 0)
(1.3642809 6.7453483e-09 0)
(1.3642809 1.0756978e-08 0)
(1.3642809 1.2329213e-08 0)
(1.3642809 1.2617766e-08 0)
(1.3642809 1.2107793e-08 0)
(1.3642809 1.1330718e-08 0)
(1.3642809 1.0344662e-08 0)
(1.3642809 9.406773e-09 0)
(1.3642809 8.4428868e-09 0)
(1.3642809 7.5935654e-09 0)
(1.3642809 6.7727405e-09 0)
(1.3642809 6.0095479e-09 0)
(1.3642809 5.3812508e-09 0)
(1.3642809 4.6278947e-09 0)
(1.3642809 4.3139559e-09 0)
(1.3642809 3.3166762e-09 0)
(1.3642809 3.6811445e-09 0)
(1.3642809 1.8498128e-09 0)
(1.3642809 3.8178288e-09 0)
(1.364281 -2.988784e-10 0)
(1.3642808 5.3680026e-09 0)
(1.3642811 -4.0018739e-09 0)
(1.3642807 9.4101613e-09 0)
(1.3642813 -1.0432636e-08 0)
(1.3642804 1.6902028e-08 0)
(1.3642817 -1.9972481e-08 0)
(1.3642799 2.6963871e-08 0)
(1.3642825 -2.9487625e-08 0)
(1.3642788 3.3123189e-08 0)
(1.3642838 -2.8247551e-08 0)
(1.3642773 2.017044e-08 0)
(1.3642855 2.2058228e-09 0)
(1.3642754 -2.9821168e-08 0)
(1.3642873 7.2693957e-08 0)
(1.364274 -1.1074343e-07 0)
(1.3642882 1.4950769e-07 0)
(1.3642739 -1.5511445e-07 0)
(1.3642873 1.3660227e-07 0)
(1.3642758 -5.6537189e-08 0)
(1.3642846 -4.1350001e-08 0)
(1.3642789 1.8279302e-07 0)
(1.3642816 -2.605703e-07 0)
(1.3642812 3.1369346e-07 0)
(1.3642804 -2.0897794e-07 0)
(1.3642813 1.2481064e-07 0)
(1.3642816 1.2130254e-07 0)
(1.3642798 -7.5660421e-08 0)
(1.3642837 2.8323075e-07 0)
(1.3642789 1.9615164e-07 0)
(1.3642852 2.230025e-07 0)
(1.3642791 6.4972216e-07 0)
(1.3642868 6.2691468e-07 0)
(1.364278 9.2217896e-07 0)
(1.3642929 1.1740783e-06 0)
(1.0005899 -0.0034625141 0)
(1.0136848 -0.0093644936 0)
(1.0370142 -0.013044266 0)
(1.0673963 -0.01455682 0)
(1.0999933 -0.014841802 0)
(1.1315624 -0.014544755 0)
(1.1609554 -0.013855558 0)
(1.1879242 -0.01286744 0)
(1.2122796 -0.011729136 0)
(1.2339214 -0.010579125 0)
(1.2530246 -0.0094927802 0)
(1.2698971 -0.0085001064 0)
(1.2847764 -0.0076053006 0)
(1.2978471 -0.0067925957 0)
(1.3093175 -0.0060391203 0)
(1.3193802 -0.005329817 0)
(1.3281482 -0.0046588432 0)
(1.3356789 -0.0040231889 0)
(1.3420362 -0.0034214753 0)
(1.3473111 -0.0028568938 0)
(1.3516061 -0.002336947 0)
(1.355026 -0.0018697803 0)
(1.357682 -0.0014611923 0)
(1.3596917 -0.001113805 0)
(1.3611725 -0.00082712388 0)
(1.362234 -0.00059777164 0)
(1.3629731 -0.00042003196 0)
(1.3634722 -0.00028666773 0)
(1.3637986 -0.0001898044 0)
(1.3640048 -0.00012172499 0)
(1.3641304 -7.5452253e-05 0)
(1.3642037 -4.5071826e-05 0)
(1.3642446 -2.5833647e-05 0)
(1.364266 -1.4107829e-05 0)
(1.3642764 -7.2535562e-06 0)
(1.3642809 -3.4333504e-06 0)
(1.3642824 -1.4272388e-06 0)
(1.3642825 -4.5128198e-07 0)
(1.3642822 -2.6261958e-08 0)
(1.3642818 1.2298555e-07 0)
(1.3642815 1.4752283e-07 0)
(1.3642812 1.254716e-07 0)
(1.364281 9.2472696e-08 0)
(1.364281 6.3500807e-08 0)
(1.3642809 4.1978731e-08 0)
(1.3642809 2.8069291e-08 0)
(1.3642809 1.9380054e-08 0)
(1.3642809 1.4529844e-08 0)
(1.3642809 1.1552322e-08 0)
(1.3642809 1.0046057e-08 0)
(1.3642809 8.8695618e-09 0)
(1.3642809 8.2353353e-09 0)
(1.3642809 7.4232938e-09 0)
(1.3642809 6.9380951e-09 0)
(1.3642809 6.191094e-09 0)
(1.3642809 5.7640066e-09 0)
(1.3642809 5.0328305e-09 0)
(1.3642809 4.6959254e-09 0)
(1.3642809 3.9719876e-09 0)
(1.3642809 3.8255948e-09 0)
(1.3642809 2.9612852e-09 0)
(1.3642809 3.2275073e-09 0)
(1.3642809 1.8655068e-09 0)
(1.3642809 3.1452394e-09 0)
(1.3642809 3.3557618e-10 0)
(1.364281 4.0350369e-09 0)
(1.3642808 -2.300321e-09 0)
(1.3642811 6.8238247e-09 0)
(1.3642807 -7.1160745e-09 0)
(1.3642813 1.2614891e-08 0)
(1.3642804 -1.5092581e-08 0)
(1.3642817 2.1831444e-08 0)
(1.3642798 -2.5334714e-08 0)
(1.3642825 3.1306887e-08 0)
(1.3642788 -3.1383282e-08 0)
(1.3642838 3.0329198e-08 0)
(1.3642773 -1.8028678e-08 0)
(1.3642855 4.384941e-10 0)
(1.3642754 3.2713458e-08 0)
(1.3642873 -6.9110327e-08 0)
(1.364274 1.1467352e-07 0)
(1.3642882 -1.4468103e-07 0)
(1.3642739 1.6064921e-07 0)
(1.3642873 -1.2995431e-07 0)
(1.3642758 6.390998e-08 0)
(1.3642846 4.9638105e-08 0)
(1.3642789 -1.7398521e-07 0)
(1.3642816 2.6954567e-07 0)
(1.3642812 -3.0498925e-07 0)
(1.3642805 2.174673e-07 0)
(1.3642813 -1.1707828e-07 0)
(1.3642816 -1.1337928e-07 0)
(1.3642798 8.4230313e-08 0)
(1.3642837 -2.732714e-07 0)
(1.3642789 -1.8545132e-07 0)
(1.3642852 -2.1303228e-07 0)
(1.3642792 -6.397385e-07 0)
(1.3642868 -6.1832919e-07 0)
(1.364278 -9.1118528e-07 0)
(1.3642929 -1.1625229e-06 0)
(1.0007343 -0.011813523 0)
(1.0178457 -0.030857225 0)
(1.0462047 -0.04142801 0)
(1.0798815 -0.045175756 0)
(1.1132322 -0.045468638 0)
(1.1437108 -0.044026722 0)
(1.1707935 -0.041349666 0)
(1.1944555 -0.037831471 0)
(1.2146715 -0.033990632 0)
(1.2315954 -0.030231262 0)
(1.2456603 -0.026749723 0)
(1.2573677 -0.023617126 0)
(1.2670965 -0.020834706 0)
(1.2751353 -0.018345918 0)
(1.2817628 -0.016075226 0)
(1.2872237 -0.013972821 0)
(1.2916839 -0.012018319 0)
(1.2952546 -0.010201679 0)
(1.2980434 -0.008518238 0)
(1.3001687 -0.0069748393 0)
(1.3017451 -0.0055879543 0)
(1.3028759 -0.0043734596 0)
(1.3036544 -0.003339153 0)
(1.3041659 -0.0024835053 0)
(1.3044842 -0.0017968809 0)
(1.3046692 -0.0012630967 0)
(1.3047666 -0.00086144724 0)
(1.3048098 -0.00056911376 0)
(1.304822 -0.00036344102 0)
(1.3048187 -0.00022369824 0)
(1.3048089 -0.00013213813 0)
(1.3047979 -7.442344e-05 0)
(1.304788 -3.9544683e-05 0)
(1.3047802 -1.9436571e-05 0)
(1.3047746 -8.4767972e-06 0)
(1.3047707 -2.9189035e-06 0)
(1.3047682 -3.8379859e-07 0)
(1.3047667 5.7516365e-07 0)
(1.3047658 7.8698421e-07 0)
(1.3047654 6.941891e-07 0)
(1.3047651 5.1533282e-07 0)
(1.304765 3.4457179e-07 0)
(1.304765 2.1311429e-07 0)
(1.304765 1.2328489e-07 0)
(1.304765 6.7203857e-08 0)
(1.304765 3.4679481e-08 0)
(1.304765 1.7319751e-08 0)
(1.304765 8.6996348e-09 0)
(1.3047651 4.975062e-09 0)
(1.3047651 3.5128094e-09 0)
(1.3047651 3.1602535e-09 0)
(1.3047651 3.0571568e-09 0)
(1.3047651 3.0896839e-09 0)
(1.3047651 2.9985343e-09 0)
(1.3047651 2.9044645e-09 0)
(1.3047651 2.7115387e-09 0)
(1.3047651 2.4790101e-09 0)
(1.3047651 2.3370265e-09 0)
(1.3047651 1.949339e-09 0)
(1.3047651 2.0806736e-09 0)
(1.3047651 1.2283275e-09 0)
(1.3047651 2.2064846e-09 0)
(1.3047651 2.1778415e-11 0)
(1.3047651 3.2922928e-09 0)
(1.3047651 -2.5462923e-09 0)
(1.3047652 6.5536076e-09 0)
(1.304765 -8.145836e-09 0)
(1.3047652 1.4334221e-08 0)
(1.3047649 -1.968082e-08 0)
(1.3047654 2.9879199e-08 0)
(1.3047647 -4.0219877e-08 0)
(1.3047657 5.5149429e-08 0)
(1.3047642 -6.8890022e-08 0)
(1.3047664 8.3948235e-08 0)
(1.3047633 -9.1249861e-08 0)
(1.3047675 9.0626136e-08 0)
(1.304762 -6.8896527e-08 0)
(1.3047691 2.5664121e-08 0)
(1.3047603 5.1143735e-08 0)
(1.3047708 -1.5169147e-07 0)
(1.3047588 2.7322447e-07 0)
(1.3047718 -3.8009949e-07 0)
(1.3047584 4.4550445e-07 0)
(1.3047714 -4.164962e-07 0)
(1.3047598 2.7010513e-07 0)
(1.3047693 -4.9545011e-09 0)
(1.3047624 -3.3828131e-07 0)
(1.3047666 6.3245235e-07 0)
(1.3047646 -8.3575424e-07 0)
(1.3047653 6.7555944e-07 0)
(1.304765 -4.8609791e-07 0)
(1.3047659 -1.5532403e-07 0)
(1.304764 1.0979026e-07 0)
(1.3047674 -7.345019e-07 0)
(1.3047631 -4.2993743e-07 0)
(1.3047688 -6.7910398e-07 0)
(1.3047627 -1.6950852e-06 0)
(1.3047702 -1.7092223e-06 0)
(1.3047611 -2.6416379e-06 0)
(1.3047755 -3.3870834e-06 0)
(1.0014241 -0.026823095 0)
(1.0291267 -0.062787976 0)
(1.0654219 -0.077729224 0)
(1.0989481 -0.080573341 0)
(1.1252925 -0.07824328 0)
(1.1450105 -0.073086478 0)
(1.1594424 -0.065990488 0)
(1.1694087 -0.057976195 0)
(1.1755081 -0.050045075 0)
(1.1784926 -0.04278523 0)
(1.1792344 -0.036401841 0)
(1.1784764 -0.030919975 0)
(1.1767256 -0.026268292 0)
(1.1743375 -0.022297724 0)
(1.1716044 -0.018845874 0)
(1.1687536 -0.015800453 0)
(1.1659339 -0.013099983 0)
(1.1632417 -0.010705329 0)
(1.1607526 -0.0085901877 0)
(1.1585264 -0.0067441219 0)
(1.1565994 -0.005166992 0)
(1.1549829 -0.0038560755 0)
(1.1536679 -0.002798323 0)
(1.1526309 -0.0019707547 0)
(1.1518391 -0.0013439088 0)
(1.1512537 -0.00088510111 0)
(1.1508347 -0.00056114192 0)
(1.1505444 -0.00034082134 0)
(1.15035 -0.00019683233 0)
(1.1502244 -0.00010674722 0)
(1.1501462 -5.3111007e-05 0)
(1.1500995 -2.3039072e-05 0)
(1.1500729 -7.455834e-06 0)
(1.1500587 -2.0981558e-07 0)
(1.1500515 2.5330301e-06 0)
(1.1500483 3.0593704e-06 0)
(1.1500472 2.6558005e-06 0)
(1.150047 1.9839068e-06 0)
(1.1500472 1.3442554e-06 0)
(1.1500474 8.4274274e-07 0)
(1.1500477 4.920135e-07 0)
(1.1500478 2.6593796e-07 0)
(1.150048 1.3112067e-07 0)
(1.1500481 5.6375909e-08 0)
(1.1500481 1.8859696e-08 0)
(1.1500481 1.6434313e-09 0)
(1.1500482 -4.3776471e-09 0)
(1.1500482 -5.6672808e-09 0)
(1.1500482 -4.5689098e-09 0)
(1.1500482 -3.3459216e-09 0)
(1.1500482 -1.9007551e-09 0)
(1.1500482 -1.1443045e-09 0)
(1.1500482 -3.2921287e-10 0)
(1.1500482 -1.1946427e-10 0)
(1.1500482 2.645455e-10 0)
(1.1500482 2.0928845e-10 0)
(1.1500482 3.9387338e-10 0)
(1.1500482 3.3118574e-10 0)
(1.1500482 3.1585016e-10 0)
(1.1500482 4.7193498e-10 0)
(1.1500482 1.2705414e-13 0)
(1.1500482 9.4523255e-10 0)
(1.1500482 -8.768901e-10 0)
(1.1500482 2.2847761e-09 0)
(1.1500482 -3.189429e-09 0)
(1.1500482 5.8558945e-09 0)
(1.1500482 -8.7867887e-09 0)
(1.1500483 1.4248928e-08 0)
(1.1500481 -2.1098027e-08 0)
(1.1500484 3.1700776e-08 0)
(1.150048 -4.4645323e-08 0)
(1.1500486 6.2247215e-08 0)
(1.1500477 -8.1412295e-08 0)
(1.150049 1.0320551e-07 0)
(1.1500471 -1.2057172e-07 0)
(1.1500498 1.3136276e-07 0)
(1.1500461 -1.2301809e-07 0)
(1.1500509 9.0339109e-08 0)
(1.1500448 -1.901204e-08 0)
(1.1500523 -9.0146825e-08 0)
(1.1500435 2.3846656e-07 0)
(1.1500534 -4.0106707e-07 0)
(1.1500427 5.4383952e-07 0)
(1.1500537 -6.1167724e-07 0)
(1.1500431 5.4694331e-07 0)
(1.1500527 -3.279044e-07 0)
(1.1500446 -6.0626077e-08 0)
(1.150051 4.7121772e-07 0)
(1.1500462 -9.0452659e-07 0)
(1.1500497 9.4935935e-07 0)
(1.1500469 -9.4845216e-07 0)
(1.1500495 2.355439e-07 0)
(1.1500467 -2.2370885e-07 0)
(1.1500499 -7.9267866e-07 0)
(1.1500461 -4.8312941e-07 0)
(1.1500504 -1.0895561e-06 0)
(1.1500448 -2.0763993e-06 0)
(1.1500512 -2.3528967e-06 0)
(1.1500417 -3.8363665e-06 0)
(1.1500543 -5.0006262e-06 0)
(1.0016585 -0.05381808 0)
(1.0359768 -0.10128313 0)
(1.0597176 -0.11073065 0)
(1.0628929 -0.10590178 0)
(1.0515613 -0.096197281 0)
(1.0340691 -0.083875129 0)
(1.0143487 -0.070214202 0)
(0.99376001 -0.056822586 0)
(0.97316891 -0.044911339 0)
(0.95348132 -0.034951935 0)
(0.93540329 -0.026946768 0)
(0.91926343 -0.02071061 0)
(0.90510367 -0.015955498 0)
(0.89284634 -0.012339852 0)
(0.88238199 -0.0095574963 0)
(0.87357629 -0.0073890951 0)
(0.86627463 -0.0056849383 0)
(0.86031619 -0.0043344517 0)
(0.85554422 -0.0032573743 0)
(0.85180297 -0.0024013665 0)
(0.8489369 -0.0017312274 0)
(0.84679488 -0.0012176873 0)
(0.84523606 -0.00083336962 0)
(0.84413328 -0.00055289115 0)
(0.8433768 -0.00035390351 0)
(0.84287491 -0.00021734249 0)
(0.84255384 -0.00012708396 0)
(0.84235663 -6.9854942e-05 0)
(0.8422411 -3.5258196e-05 0)
(0.84217721 -1.5497385e-05 0)
(0.8421445 -5.0033374e-06 0)
(0.84212959 4.2538464e-08 0)
(0.84212424 2.0676984e-06 0)
(0.84212351 2.4563942e-06 0)
(0.84212458 2.1206104e-06 0)
(0.8421261 1.576899e-06 0)
(0.8421275 1.0644994e-06 0)
(0.84212857 6.6502669e-07 0)
(0.84212931 3.8584897e-07 0)
(0.84212979 2.0652911e-07 0)
(0.84213007 9.9282653e-08 0)
(0.84213023 4.0034001e-08 0)
(0.84213031 9.8855917e-09 0)
(0.84213035 -3.6891069e-09 0)
(0.84213036 -8.6028107e-09 0)
(0.84213036 -8.8088929e-09 0)
(0.84213037 -7.4614765e-09 0)
(0.84213036 -5.5638282e-09 0)
(0.84213036 -4.0692886e-09 0)
(0.84213036 -2.7761267e-09 0)
(0.84213036 -2.0240281e-09 0)
(0.84213036 -1.35634e-09 0)
(0.84213036 -1.0658446e-09 0)
(0.84213036 -7.2354758e-10 0)
(0.84213036 -6.5694071e-10 0)
(0.84213036 -4.1871184e-10 0)
(0.84213036 -4.3872879e-10 0)
(0.84213036 -2.2018815e-10 0)
(0.84213037 -3.5977798e-10 0)
(0.84213036 -2.345017e-11 0)
(0.84213037 -4.0762906e-10 0)
(0.84213036 3.0204679e-10 0)
(0.84213036 -8.1636159e-10 0)
(0.84213037 1.0851869e-09 0)
(0.84213036 -1.9936441e-09 0)
(0.84213037 3.1103428e-09 0)
(0.84213035 -5.1061894e-09 0)
(0.84213039 7.9919621e-09 0)
(0.84213033 -1.2279141e-08 0)
(0.84213043 1.8615393e-08 0)
(0.84213027 -2.6975931e-08 0)
(0.84213052 3.8648484e-08 0)
(0.84213013 -5.2421747e-08 0)
(0.84213071 6.9522623e-08 0)
(0.84212987 -8.6434283e-08 0)
(0.84213106 1.0246982e-07 0)
(0.84212942 -1.1075325e-07 0)
(0.84213162 1.0709333e-07 0)
(0.84212876 -8.1967393e-08 0)
(0.84213237 3.0149707e-08 0)
(0.84212797 5.4086168e-08 0)
(0.84213313 -1.6713395e-07 0)
(0.8421273 2.9525005e-07 0)
(0.84213364 -4.17185e-07 0)
(0.84212702 4.8718678e-07 0)
(0.84213366 -4.8598771e-07 0)
(0.84212721 3.3989103e-07 0)
(0.8421333 -1.32459e-07 0)
(0.84212761 -2.3744738e-07 0)
(0.84213286 4.593011e-07 0)
(0.8421279 -7.859766e-07 0)
(0.84213243 5.435715e-07 0)
(0.84212809 -7.2906555e-07 0)
(0.84213176 -2.3205314e-07 0)
(0.84212791 -6.5177338e-07 0)
(0.84213088 -1.0814567e-06 0)
(0.8421261 -1.7326999e-06 0)
(0.8421297 -2.3282975e-06 0)
(0.84212069 -3.8649114e-06 0)
(0.84212876 -5.1058661e-06 0)
(0.91890913 -0.035821682 0)
(0.86271425 -0.062195692 0)
(0.78706115 -0.062505058 0)
(0.69537076 -0.054542611 0)
(0.6109256 -0.044516968 0)
(0.54418588 -0.033968143 0)
(0.49357694 -0.024110523 0)
(0.45502186 -0.01605852 0)
(0.42576608 -0.010144179 0)
(0.40394451 -0.0060965961 0)
(0.38787499 -0.0034956736 0)
(0.37603529 -0.0019418307 0)
(0.36721078 -0.0010777734 0)
(0.36052515 -0.00062362163 0)
(0.35538085 -0.0003979093 0)
(0.35137519 -0.00029412985 0)
(0.34823531 -0.00024762599 0)
(0.34577203 -0.00022048892 0)
(0.34385242 -0.00019578051 0)
(0.34237781 -0.00016970635 0)
(0.34126829 -0.00014288489 0)
(0.34045352 -0.00011636395 0)
(0.33987074 -9.1316497e-05 0)
(0.33946563 -6.8843672e-05 0)
(0.33919298 -4.9810958e-05 0)
(0.33901599 -3.4634553e-05 0)
(0.33890569 -2.3175555e-05 0)
(0.33884011 -1.4918833e-05 0)
(0.33880333 -9.2217626e-06 0)
(0.33878423 -5.4359684e-06 0)
(0.33877543 -3.0238488e-06 0)
(0.3387722 -1.5158316e-06 0)
(0.33877162 -5.8331165e-07 0)
(0.3387721 -1.3612479e-07 0)
(0.33877294 3.4721278e-08 0)
(0.33877377 8.1406252e-08 0)
(0.33877443 7.918564e-08 0)
(0.33877489 6.2129432e-08 0)
(0.33877519 4.3186699e-08 0)
(0.33877536 2.7816981e-08 0)
(0.33877546 1.6526783e-08 0)
(0.33877551 9.3410995e-09 0)
(0.33877552 4.5088763e-09 0)
(0.33877553 1.5299889e-09 0)
(0.33877553 -4.778767e-10 0)
(0.33877553 -9.4436726e-10 0)
(0.33877552 -1.1812281e-09 0)
(0.33877552 -9.0903791e-10 0)
(0.33877552 -9.0288587e-10 0)
(0.33877552 -6.0012809e-10 0)
(0.33877552 -6.1880216e-10 0)
(0.33877552 -3.5038151e-10 0)
(0.33877552 -4.3004437e-10 0)
(0.33877552 -2.0975657e-10 0)
(0.33877552 -3.1339391e-10 0)
(0.33877552 -9.5532791e-11 0)
(0.33877551 -2.3722878e-10 0)
(0.33877551 -3.6396369e-11 0)
(0.33877551 -1.9961553e-10 0)
(0.33877551 3.2312405e-11 0)
(0.33877551 -2.0856522e-10 0)
(0.33877551 9.1585164e-11 0)
(0.33877551 -2.98057e-10 0)
(0.33877551 2.9247929e-10 0)
(0.33877551 -5.7365441e-10 0)
(0.33877552 7.7416553e-10 0)
(0.33877551 -1.3164988e-09 0)
(0.33877552 2.0099955e-09 0)
(0.33877551 -3.0812816e-09 0)
(0.33877553 4.727246e-09 0)
(0.33877549 -6.8600085e-09 0)
(0.33877555 1.0079415e-08 0)
(0.33877546 -1.3828475e-08 0)
(0.33877559 1.8896707e-08 0)
(0.3387754 -2.4262444e-08 0)
(0.33877567 3.0088461e-08 0)
(0.3387753 -3.4935782e-08 0)
(0.3387758 3.7431223e-08 0)
(0.33877515 -3.6097891e-08 0)
(0.33877598 2.7935612e-08 0)
(0.33877495 -1.2207135e-08 0)
(0.33877619 -1.2737234e-08 0)
(0.33877475 4.4047572e-08 0)
(0.33877637 -8.1640545e-08 0)
(0.33877459 1.1267006e-07 0)
(0.33877648 -1.4265575e-07 0)
(0.33877449 1.3814501e-07 0)
(0.33877655 -1.368949e-07 0)
(0.33877439 6.7875794e-08 0)
(0.3387766 -5.325906e-08 0)
(0.33877423 -8.2227418e-08 0)
(0.33877656 1.237098e-08 0)
(0.338774 -2.8459734e-07 0)
(0.33877617 -7.731061e-08 0)
(0.33877347 -5.989807e-07 0)
(0.33877504 -4.1575554e-07 0)
(0.33877194 -1.1333849e-06 0)
(0.33877225 -1.3425341e-06 0)
(0.33876709 -1.950166e-06 0)
(0.33876614 -2.3842943e-06 0)
)
;

boundaryField
{
    top
    {
        type            fixedValue;
        value           uniform (0 0 0);
    }
    inlet
    {
        type            fixedValue;
        value           uniform (1 0 0);
    }
    outlet
    {
        type            zeroGradient;
    }
    bottom
    {
        type            fixedValue;
        value           uniform (0 0 0);
    }
    back
    {
        type            empty;
    }
    front
    {
        type            empty;
    }
}


// ************************************************************************* //
