/*--------------------------------*- C++ -*----------------------------------*\
| =========                 |                                                 |
| \\      /  F ield         | OpenFOAM: The Open Source CFD Toolbox           |
|  \\    /   O peration     | Version:  v1812                                 |
|   \\  /    A nd           | Web:      www.OpenFOAM.com                      |
|    \\/     M anipulation  |                                                 |
\*---------------------------------------------------------------------------*/
FoamFile
{
    version     2.0;
    format      ascii;
    class       surfaceScalarField;
    location    "1";
    object      phi;
}
// * * * * * * * * * * * * * * * * * * * * * * * * * * * * * * * * * * * * * //

dimensions      [0 3 -1 0 0 0 0];
oriented        oriented;


internalField   nonuniform List<scalar> 
1890
(
0.009307066
0.0006929355
0.0082853714
0.0010216957
0.0073381398
0.00094723154
0.0065176187
0.00082051996
0.0058291026
0.00068851441
0.0052838802
0.00054522102
0.0048872504
0.0003966292
0.0046255447
0.00026170576
0.0044670584
0.00015848677
0.0043779331
8.912586e-05
0.0043328481
4.5085459e-05
0.0043143061
1.8542258e-05
0.004309869
4.437051e-06
0.0043120166
-2.1477865e-06
0.0043159065
-3.8901816e-06
0.0043196993
-3.7930812e-06
0.0043226901
-2.9909459e-06
0.0043248008
-2.110777e-06
0.004326176
-1.3752763e-06
0.0043270161
-8.4006203e-07
0.004327502
-4.8582048e-07
0.0043277692
-2.6719836e-07
0.0043279089
-1.3962646e-07
0.0043279777
-6.8838814e-08
0.0043280092
-3.1504461e-08
0.0043280221
-1.2887823e-08
0.0043280263
-4.2388365e-09
0.0043280269
-6.5417093e-10
0.0043280262
7.2167032e-10
0.0043280252
9.8688464e-10
0.0043280243
8.5365868e-10
0.0043280237
6.5306515e-10
0.0043280232
4.5853857e-10
0.0043280229
3.1235556e-10
0.0043280227
2.0827753e-10
0.0043280225
1.4317214e-10
0.0043280224
9.9987873e-11
0.0043280224
7.6164048e-11
0.0043280223
5.8868073e-11
0.0043280223
5.0530944e-11
0.0043280222
4.2306391e-11
0.0043280222
3.9009058e-11
0.0043280222
3.3275834e-11
0.0043280221
3.1228838e-11
0.0043280221
2.6335678e-11
0.0043280221
2.4849407e-11
0.0043280221
2.0219129e-11
0.004328022
1.9006535e-11
0.004328022
1.4902023e-11
0.004328022
1.4235283e-11
0.004328022
1.0495811e-11
0.004328022
1.0211558e-11
0.004328022
7.0722365e-12
0.004328022
7.3551255e-12
0.004328022
4.5248973e-12
0.004328022
5.1029294e-12
0.004328022
2.7610492e-12
0.004328022
3.7667253e-12
0.004328022
1.6024713e-12
0.004328022
2.7646872e-12
0.004328022
9.4826501e-13
0.0043280219
2.4233082e-12
0.0043280219
7.0028685e-13
0.0043280219
2.2251408e-12
0.0043280219
7.8475846e-13
0.0043280219
2.6007235e-12
0.0043280219
1.2228601e-12
0.0043280219
3.0622843e-12
0.0043280219
2.0785314e-12
0.0043280219
3.8600021e-12
0.0043280219
3.6119733e-12
0.0043280219
3.4380797e-12
0.0043280219
7.6205757e-12
0.0043280219
-2.6297882e-12
0.0043280219
2.5310443e-11
0.0043280219
-4.0069591e-11
0.0043280218
1.1016141e-10
0.004328022
-2.1690203e-10
0.0043280216
4.8755509e-10
0.0043280225
-9.6963072e-10
0.0043280206
1.991e-09
0.0043280244
-3.792977e-09
0.0043280171
7.2191724e-09
0.0043280299
-1.2810671e-08
0.0043280075
2.2394356e-08
0.0043280434
-3.593421e-08
0.0043279875
5.5895499e-08
0.0043280645
-7.6910867e-08
0.0043279662
9.8354389e-08
0.0043280634
-9.7150368e-08
0.0043279947
6.8681501e-08
0.0043279508
4.3854986e-08
0.004328135
-1.8431527e-07
0.0043277035
4.3142692e-07
0.0043282043
-5.007048e-07
0.0043276481
5.5627599e-07
0.004327735
-8.6911599e-08
0.0043282683
-5.3325658e-07
0.0043278855
3.8279939e-07
-9.5228865e-07
0.010340177
0.00035276005
0.010574183
0.00078769072
0.01061089
0.00091052457
0.010553851
0.00087755775
0.010437779
0.00080458441
0.0102759
0.00070709897
0.010095039
0.00057748971
0.0099250015
0.0004317433
0.0097838595
0.00029962928
0.0096765826
0.00019640335
0.0096008852
0.0001207833
0.0095516086
6.7819084e-05
0.0095224285
3.3617216e-05
0.0095064667
1.3813742e-05
0.0094988005
3.775816e-06
0.0094958535
-8.4642246e-07
0.0094951961
-2.3336776e-06
0.0094955441
-2.4588665e-06
0.009496177
-2.0081587e-06
0.0094967801
-1.4431286e-06
0.0094972495
-9.5525649e-07
0.0094975771
-5.946792e-07
0.0094977891
-3.5164772e-07
0.0094979187
-1.9839399e-07
0.009497994
-1.0688013e-07
0.009498036
-5.483147e-08
0.0094980583
-2.657311e-08
0.0094980696
-1.1950843e-08
0.009498075
-4.7415157e-09
0.0094980774
-1.4497704e-09
0.0094980784
-1.3052524e-10
0.0094980787
3.7882928e-10
0.0094980787
4.6911597e-10
0.0094980786
4.2199809e-10
0.0094980784
3.4384543e-10
0.0094980783
2.6908677e-10
0.0094980782
2.1455655e-10
0.0094980781
1.7316525e-10
0.009498078
1.4705286e-10
0.009498078
1.2596265e-10
0.0094980779
1.1315353e-10
0.0094980778
1.0021905e-10
0.0094980778
9.1994707e-11
0.0094980777
8.1511004e-11
0.0094980777
7.4765628e-11
0.0094980776
6.5352951e-11
0.0094980776
5.9369506e-11
0.0094980776
5.06462e-11
0.0094980775
4.5565225e-11
0.0094980775
3.796864e-11
0.0094980775
3.3905517e-11
0.0094980775
2.7364301e-11
0.0094980775
2.4411317e-11
0.0094980775
1.9154051e-11
0.0094980774
1.7238477e-11
0.0094980774
1.2920545e-11
0.0094980774
1.1987662e-11
0.0094980774
8.6323152e-12
0.0094980774
8.5127418e-12
0.0094980774
5.7278759e-12
0.0094980774
6.2872349e-12
0.0094980774
4.1861571e-12
0.0094980774
5.2952201e-12
0.0094980774
3.5619248e-12
0.0094980774
5.213738e-12
0.0094980774
4.044801e-12
0.0094980774
6.1965526e-12
0.0094980774
5.287439e-12
0.0094980774
8.1887957e-12
0.0094980774
7.2320913e-12
0.0094980774
1.1959524e-11
0.0094980774
7.5203941e-12
0.0094980773
2.0890569e-11
0.0094980773
-3.1520883e-12
0.0094980773
5.4697165e-11
0.0094980773
-6.9047884e-11
0.0094980773
2.0507164e-10
0.0094980774
-3.7603284e-10
0.0094980771
8.4570982e-10
0.0094980777
-1.6281581e-09
0.0094980765
3.285548e-09
0.0094980787
-6.0792831e-09
0.0094980747
1.1290687e-08
0.0094980812
-1.9357716e-08
0.0094980708
3.2710852e-08
0.0094980849
-5.006862e-08
0.0094980669
7.3993638e-08
0.0094980837
-9.3695007e-08
0.0094980743
1.0788875e-07
0.0094980575
-8.0358026e-08
0.0094981101
1.605512e-08
0.0094980008
1.5308027e-07
0.0094981418
-3.254095e-07
0.0094980242
5.4902247e-07
0.0094980459
-5.2240991e-07
0.009498375
2.2721971e-07
0.0094980602
2.2798135e-07
0.009498474
-9.4702774e-07
0.009498587
2.6980212e-07
-8.1622474e-07
0.010188447
0.00016431458
0.010530068
0.00044607123
0.01084908
0.00059151175
0.011115044
0.00061159329
0.011331698
0.0005879289
0.011493444
0.00054535089
0.011596323
0.00047461082
0.011648096
0.00037997024
0.011664783
0.00028294262
0.011661455
0.00019973203
0.011648389
0.00013384977
0.011632262
8.394644e-05
0.011617245
4.8633946e-05
0.011605305
2.5753478e-05
0.011596901
1.2180169e-05
0.011591324
4.730012e-06
0.011587906
1.0844842e-06
0.011586022
-5.7539841e-07
0.011585036
-1.0222062e-06
0.01158457
-9.7651448e-07
0.011584378
-7.6322119e-07
0.011584318
-5.3487719e-07
0.011584314
-3.4801987e-07
0.01158433
-2.1370404e-07
0.011584348
-1.2488105e-07
0.011584363
-6.9713709e-08
0.011584373
-3.7183109e-08
0.01158438
-1.8872118e-08
0.011584384
-9.0104662e-09
0.011584387
-3.9473469e-09
0.011584388
-1.4897228e-09
0.011584389
-3.7111413e-10
0.011584389
1.0889702e-10
0.011584389
2.6955074e-10
0.011584389
2.9661626e-10
0.011584389
2.7821363e-10
0.011584389
2.4755869e-10
0.011584389
2.1880637e-10
0.011584389
1.9422929e-10
0.011584389
1.7491287e-10
0.011584389
1.583626e-10
0.011584389
1.4469498e-10
0.011584389
1.3170558e-10
0.011584389
1.2023832e-10
0.011584389
1.0862854e-10
0.011584389
9.8107583e-11
0.011584389
8.7322676e-11
0.011584389
7.7704046e-11
0.011584389
6.7999905e-11
0.011584389
5.9558666e-11
0.011584389
5.1245583e-11
0.011584389
4.4141168e-11
0.011584389
3.7414835e-11
0.011584389
3.1735552e-11
0.011584389
2.6537251e-11
0.011584389
2.2297762e-11
0.011584389
1.8408677e-11
0.011584389
1.5478626e-11
0.011584389
1.2735706e-11
0.011584389
1.0905633e-11
0.011584389
9.1279412e-12
0.011584389
8.2058551e-12
0.011584389
7.2142404e-12
0.011584389
7.1189169e-12
0.011584389
6.8437934e-12
0.011584389
7.5309362e-12
0.011584389
7.9622317e-12
0.011584389
9.3350394e-12
0.011584389
1.0791449e-11
0.011584389
1.2244075e-11
0.011584389
1.5778566e-11
0.011584389
1.4152028e-11
0.011584389
2.629841e-11
0.011584389
5.7454335e-12
0.011584389
6.0305781e-11
0.011584389
-5.386199e-11
0.011584389
1.9991797e-10
0.011584389
-3.2896847e-10
0.011584389
7.6639277e-10
0.011584389
-1.4087773e-09
0.011584389
2.8244689e-09
0.011584388
-5.0461744e-09
0.01158439
9.174338e-09
0.011584386
-1.5112043e-08
0.011584394
2.4686569e-08
0.011584379
-3.5643722e-08
0.011584404
4.983319e-08
0.011584366
-5.6186144e-08
0.011584418
5.6025441e-08
0.011584358
-1.9745695e-08
0.011584409
-3.5719228e-08
0.011584406
1.5598855e-07
0.011584332
-2.5099966e-07
0.011584559
3.2177243e-07
0.011584292
-2.5551654e-07
0.011584574
-5.4401226e-08
0.011584544
2.5770401e-07
0.011584248
-6.5104062e-07
0.011584551
-3.3282255e-08
-5.7713786e-07
0.010096547
6.7769196e-05
0.010344789
0.0001978309
0.010657501
0.00027879981
0.01096922
0.00029987317
0.01126237
0.00029477708
0.011527753
0.00027996644
0.011750625
0.00025173814
0.011921206
0.00020938979
0.012042003
0.00016214624
0.012122639
0.00011909644
0.012173081
8.3408677e-05
0.012201888
5.513979e-05
0.012216434
3.4087496e-05
0.012222554
1.9633408e-05
0.012224259
1.0474447e-05
0.012223945
5.0447479e-06
0.012222969
2.0598854e-06
0.012221854
5.3989917e-07
0.012220954
-1.2280839e-07
0.012220303
-3.2538104e-07
0.012219871
-3.3080171e-07
0.012219601
-2.6509249e-07
0.012219441
-1.8818814e-07
0.012219351
-1.2339813e-07
0.012219303
-7.6162963e-08
0.012219277
-4.4680311e-08
0.012219265
-2.5012621e-08
0.01221926
-1.3366049e-08
0.012219258
-6.7737207e-09
0.012219257
-3.210164e-09
0.012219257
-1.3638347e-09
0.012219257
-4.5945954e-10
0.012219257
-2.6468063e-11
0.012219257
1.5438433e-10
0.012219257
2.2145784e-10
0.012219257
2.3066692e-10
0.012219257
2.2702102e-10
0.012219257
2.093568e-10
0.012219257
1.9767433e-10
0.012219257
1.7923144e-10
0.012219257
1.6896419e-10
0.012219257
1.5230596e-10
0.012219257
1.4362591e-10
0.012219257
1.2806778e-10
0.012219257
1.201807e-10
0.012219257
1.0538389e-10
0.012219257
9.8242372e-11
0.012219257
8.4275622e-11
0.012219257
7.7933234e-11
0.012219257
6.5113373e-11
0.012219257
6.0230746e-11
0.012219257
4.8568526e-11
0.012219257
4.5093238e-11
0.012219257
3.4972692e-11
0.012219257
3.3103914e-11
0.012219257
2.4351548e-11
0.012219257
2.3864274e-11
0.012219257
1.6541643e-11
0.012219257
1.7362278e-11
0.012219257
1.1139476e-11
0.012219257
1.3038445e-11
0.012219257
7.93452e-12
0.012219257
1.0737697e-11
0.012219257
6.5901676e-12
0.012219257
1.0180567e-11
0.012219257
6.9215097e-12
0.012219257
1.149218e-11
0.012219257
8.9640372e-12
0.012219257
1.4602562e-11
0.012219257
1.2490954e-11
0.012219257
1.9880314e-11
0.012219257
1.628533e-11
0.012219257
2.8610262e-11
0.012219257
1.4712731e-11
0.012219257
5.0230429e-11
0.012219257
-1.5009787e-11
0.012219257
1.2793185e-10
0.012219257
-1.5978535e-10
0.012219257
4.2709814e-10
0.012219257
-7.1622409e-10
0.012219258
1.4736283e-09
0.012219256
-2.5177664e-09
0.01221926
4.5567072e-09
0.012219252
-7.2193455e-09
0.012219265
1.1570406e-08
0.012219245
-1.5812857e-08
0.012219274
2.1311987e-08
0.012219239
-2.1190176e-08
0.012219277
1.8308866e-08
0.012219254
2.9779951e-09
0.012219248
-2.9235027e-08
0.012219323
8.076209e-08
0.012219186
-1.1405363e-07
0.012219391
1.1604323e-07
0.01221921
-7.3934705e-08
0.012219236
-8.0297715e-08
0.012219373
1.2013923e-07
0.012219012
-2.8960956e-07
0.012219066
-8.7693083e-08
-3.0771579e-07
0.010067771
-4.8070358e-10
0.010265604
-5.6764672e-10
0.010544405
-5.6986763e-10
0.010844277
-5.1143608e-10
0.011139053
-3.4225629e-10
0.011419019
-1.7980785e-10
0.011670756
-1.3345064e-10
0.011880146
-2.1143249e-10
0.012042293
-2.9910058e-10
0.012161391
-3.4546487e-10
0.012244801
-3.5194248e-10
0.012299941
-3.6161111e-10
0.012334029
-4.2851232e-10
0.012353663
-5.6520793e-10
0.012364138
-7.4682373e-10
0.012369184
-9.0005421e-10
0.012371244
-1.0073046e-09
0.012371785
-9.5192776e-10
0.012371663
-8.375405e-10
0.012371339
-6.2392439e-10
0.012371008
-3.9776938e-10
0.012370744
-1.8550463e-10
0.012370555
-2.8876763e-11
0.012370432
7.3568176e-11
0.012370356
1.179291e-10
0.012370311
1.3448667e-10
0.012370286
1.2665616e-10
0.012370272
1.2236222e-10
0.012370265
1.1499383e-10
0.012370262
1.22338e-10
0.012370261
1.2754201e-10
0.01237026
1.4438399e-10
0.01237026
1.5573721e-10
0.01237026
1.7237133e-10
0.01237026
1.7402841e-10
0.01237026
1.7850108e-10
0.01237026
1.7124133e-10
0.01237026
1.690889e-10
0.01237026
1.5708112e-10
0.01237026
1.5153257e-10
0.01237026
1.3765518e-10
0.01237026
1.3161087e-10
0.01237026
1.178164e-10
0.01237026
1.1206751e-10
0.01237026
9.872992e-11
0.01237026
9.3727641e-11
0.01237026
8.1094828e-11
0.01237026
7.6587429e-11
0.01237026
6.4529366e-11
0.01237026
6.1069312e-11
0.01237026
4.9856196e-11
0.012370261
4.7229663e-11
0.012370261
3.7042524e-11
0.012370261
3.5668194e-11
0.012370261
2.6683692e-11
0.012370261
2.6351871e-11
0.012370261
1.8473356e-11
0.012370261
1.9381005e-11
0.012370261
1.2642677e-11
0.012370261
1.4518788e-11
0.012370261
8.6653566e-12
0.012370261
1.1583118e-11
0.012370261
6.7692431e-12
0.012370261
1.0327741e-11
0.012370261
6.3075741e-12
0.012370261
1.0859899e-11
0.012370261
7.7567198e-12
0.012370261
1.3053819e-11
0.012370261
1.0725882e-11
0.012370261
1.6953833e-11
0.012370261
1.5473263e-11
0.012370261
2.2138806e-11
0.012370261
2.0846548e-11
0.012370261
2.784168e-11
0.012370261
2.6123123e-11
0.01237026
3.2459136e-11
0.012370261
2.9962754e-11
0.01237026
3.5075723e-11
0.012370261
3.1948127e-11
0.01237026
3.6364147e-11
0.012370262
3.3355382e-11
0.012370259
3.9682966e-11
0.012370263
3.79565e-11
0.012370256
4.8641546e-11
0.012370268
5.5591096e-11
0.012370252
7.9199521e-11
0.012370273
1.0164242e-10
0.012370252
1.2823537e-10
0.01237027
1.3478941e-10
0.012370273
1.2266743e-10
0.012370243
8.4211418e-11
0.012370324
4.3290312e-11
0.01237021
1.710221e-12
0.012370326
-4.0556304e-12
0.012370252
-3.715982e-12
0.012370172
2.2059444e-11
0.012370292
4.1206593e-11
0.012370002
3.5559514e-11
0.012369915
4.3204577e-11
-5.3388252e-12
0.010067771
-6.7770116e-05
0.010265604
-0.00019783202
0.010544405
-0.00027880095
0.010844277
-0.00029987415
0.011139053
-0.00029477772
0.011419019
-0.00027996679
0.011670756
-0.00025173848
0.011880147
-0.00020939029
0.012042294
-0.00016214688
0.012161391
-0.0001190971
0.012244801
-8.3409261e-05
0.012299941
-5.5140349e-05
0.012334029
-3.408818e-05
0.012353663
-1.9634386e-05
0.012364138
-1.0475824e-05
0.012369183
-5.0464511e-06
0.012371244
-2.0618321e-06
0.012371785
-5.4164922e-07
0.012371663
1.2118553e-07
0.012371338
3.2421532e-07
0.012371008
3.3009461e-07
0.012370743
2.6479349e-07
0.012370555
1.8818805e-07
0.012370431
1.2357387e-07
0.012370355
7.6414292e-08
0.01237031
4.4942789e-08
0.012370285
2.5254468e-08
0.012370272
1.3586087e-08
0.012370265
6.9813603e-09
0.012370262
3.4251425e-09
0.01237026
1.5937116e-09
0.01237026
7.1405233e-10
0.012370259
3.1338269e-10
0.01237026
1.6097874e-10
0.01237026
1.018848e-10
0.01237026
9.4934461e-11
0.01237026
9.0391723e-11
0.01237026
9.7879083e-11
0.01237026
9.2332701e-11
0.01237026
9.4252666e-11
0.01237026
8.4225686e-11
0.01237026
8.3505528e-11
0.01237026
7.2456577e-11
0.01237026
7.1294971e-11
0.01237026
6.080199e-11
0.01237026
6.053084e-11
0.01237026
5.0546394e-11
0.01237026
5.0569737e-11
0.01237026
4.0992621e-11
0.01237026
4.1609451e-11
0.01237026
3.2409281e-11
0.01237026
3.3203368e-11
0.01237026
2.4426083e-11
0.01237026
2.6061542e-11
0.01237026
1.7798076e-11
0.01237026
1.9871525e-11
0.012370261
1.2277712e-11
0.012370261
1.5355669e-11
0.012370261
8.3937969e-12
0.012370261
1.1883862e-11
0.012370261
5.6525849e-12
0.012370261
1.0098604e-11
0.012370261
4.5590855e-12
0.012370261
9.318579e-12
0.012370261
4.5277905e-12
0.012370261
1.0194606e-11
0.012370261
6.1206403e-12
0.012370261
1.2330231e-11
0.012370261
8.7980931e-12
0.012370261
1.6353516e-11
0.012370261
1.2343189e-11
0.012370261
2.2012066e-11
0.012370261
1.3652653e-11
0.012370261
3.4001453e-11
0.012370261
1.3487272e-12
0.012370261
7.1987046e-11
0.012370261
-6.9807983e-11
0.01237026
2.216716e-10
0.012370261
-3.6516144e-10
0.01237026
7.8062175e-10
0.012370262
-1.4074469e-09
0.012370259
2.5892045e-09
0.012370264
-4.4797286e-09
0.012370256
7.308631e-09
0.012370268
-1.1461109e-08
0.012370252
1.5959894e-08
0.012370273
-2.1119035e-08
0.012370252
2.1425312e-08
0.01237027
-1.8057527e-08
0.012370273
-2.756817e-09
0.012370244
2.9382337e-08
0.012370324
-8.0696774e-08
0.01237021
1.1404672e-07
0.012370326
-1.1606263e-07
0.012370252
7.3930323e-08
0.012370172
8.0350112e-08
0.012370292
-1.2005332e-07
0.012370002
2.8967758e-07
0.012369915
8.7780451e-08
3.0770019e-07
0.010096547
-0.00016431568
0.010344789
-0.00044607246
0.010657501
-0.00059151284
0.01096922
-0.00061159411
0.01126237
-0.00058792933
0.011527753
-0.00054535113
0.011750625
-0.00047461113
0.011921206
-0.00037997079
0.012042003
-0.00028294328
0.012122639
-0.00019973261
0.012173081
-0.00013385016
0.012201888
-8.394671e-05
0.012216434
-4.8634301e-05
0.012222554
-2.5754136e-05
0.012224259
-1.2181202e-05
0.012223944
-4.731425e-06
0.012222968
-1.0861153e-06
0.012221853
5.7387427e-07
0.012220953
1.020936e-06
0.012220302
9.7563438e-07
0.012219869
7.6275816e-07
0.012219599
5.3474527e-07
0.012219439
3.4812758e-07
0.012219349
2.1392232e-07
0.012219301
1.2513725e-07
0.012219276
6.993852e-08
0.012219264
3.7377575e-08
0.012219258
1.902444e-08
0.012219256
9.1569591e-09
0.012219255
4.0876186e-09
0.012219255
1.653172e-09
0.012219255
5.4296795e-10
0.012219256
1.1384888e-10
0.012219256
-3.0142585e-11
0.012219256
-4.4508029e-11
0.012219256
-3.4832249e-11
0.012219256
-2.7918959e-12
0.012219256
6.8427772e-12
0.012219257
2.7100009e-11
0.012219257
2.1783144e-11
0.012219257
3.2230018e-11
0.012219257
2.1418027e-11
0.012219257
2.9152964e-11
0.012219257
1.7556095e-11
0.012219257
2.5717056e-11
0.012219257
1.4881086e-11
0.012219257
2.3337651e-11
0.012219257
1.2598159e-11
0.012219257
2.133445e-11
0.012219257
1.0741327e-11
0.012219257
1.9156294e-11
0.012219257
8.2530866e-12
0.012219257
1.6798835e-11
0.012219257
5.9967281e-12
0.012219257
1.4395144e-11
0.012219257
3.5205244e-12
0.012219257
1.2250053e-11
0.012219257
1.7935529e-12
0.012219257
1.0562624e-11
0.012219257
2.3665521e-13
0.012219257
9.5504468e-12
0.012219257
-2.443091e-13
0.012219257
9.211218e-12
0.012219257
-3.1379077e-13
0.012219257
9.7254499e-12
0.012219257
9.1126662e-13
0.012219257
1.1099879e-11
0.012219257
2.6721134e-12
0.012219257
1.3297614e-11
0.012219257
6.0518537e-12
0.012219257
1.5285192e-11
0.012219257
1.1280196e-11
0.012219257
1.2526097e-11
0.012219257
2.7208309e-11
0.012219257
-1.4878142e-11
0.012219257
9.2155999e-11
0.012219257
-1.5010446e-10
0.012219257
3.709676e-10
0.012219258
-7.1320931e-10
0.012219257
1.4551253e-09
0.012219258
-2.7643072e-09
0.012219256
5.1019299e-09
0.01221926
-9.1025479e-09
0.012219252
1.5184314e-08
0.012219265
-2.4590089e-08
0.012219246
3.5755467e-08
0.012219274
-4.9683203e-08
0.012219239
5.6359912e-08
0.012219277
-5.5829464e-08
0.012219255
1.9899985e-08
0.012219248
3.5817325e-08
0.012219323
-1.5596858e-07
0.012219186
2.5097827e-07
0.012219392
-3.2180029e-07
0.01221921
2.555262e-07
0.012219236
5.4442509e-08
0.012219374
-2.5762635e-07
0.012219012
6.5111951e-07
0.012219067
3.3350944e-08
5.7710711e-07
0.010188447
-0.00035276077
0.010530068
-0.00078769148
0.010849081
-0.00091052517
0.011115044
-0.0008775581
0.011331698
-0.00080458451
0.011493444
-0.00070709903
0.011596322
-0.00057748999
0.011648095
-0.00043174388
0.011664783
-0.00029962998
0.011661455
-0.0001964039
0.011648389
-0.00012078359
0.011632262
-6.7819159e-05
0.011617245
-3.3617278e-05
0.011605305
-1.3814007e-05
0.0115969
-3.7764189e-06
0.011591323
8.455123e-07
0.011587904
2.3326218e-06
0.01158602
2.4578823e-06
0.011585034
2.0073821e-06
0.011584567
1.4426385e-06
0.011584375
9.5505283e-07
0.011584315
5.9469655e-07
0.011584312
3.5179711e-07
0.011584327
1.985927e-07
0.011584345
1.0706744e-07
0.01158436
5.4977798e-08
0.011584371
2.6676638e-08
0.011584378
1.2023431e-08
0.011584382
4.8055076e-09
0.011584385
1.5153611e-09
0.011584386
1.8869342e-10
0.011584387
-2.7341092e-10
0.011584388
-3.4896993e-10
0.011584388
-2.864531e-10
0.011584388
-2.0243294e-10
0.011584388
-1.2925929e-10
0.011584388
-7.8777079e-11
0.011584388
-4.616039e-11
0.011584388
-2.8384706e-11
0.011584388
-1.8467322e-11
0.011584389
-1.4181524e-11
0.011584389
-1.1635495e-11
0.011584389
-1.0831736e-11
0.011584389
-9.1857042e-12
0.011584389
-8.2344872e-12
0.011584389
-6.3835755e-12
0.011584389
-5.5055672e-12
0.011584389
-3.4841657e-12
0.011584389
-2.5853067e-12
0.011584389
-1.0416909e-12
0.011584389
-8.0763785e-13
0.011584389
4.9613479e-13
0.011584389
5.8302476e-13
0.011584389
1.3775117e-12
0.011584389
9.4825303e-13
0.011584389
1.6448621e-12
0.011584389
1.2544345e-12
0.011584389
1.7300961e-12
0.011584389
1.1214512e-12
0.011584389
1.7298784e-12
0.011584389
1.3795349e-12
0.011584389
1.995969e-12
0.011584389
1.5469298e-12
0.011584389
2.4408633e-12
0.011584389
2.366909e-12
0.011584389
3.3113281e-12
0.011584389
3.1807918e-12
0.011584389
4.5980843e-12
0.011584389
4.5225786e-12
0.011584389
6.5798991e-12
0.011584389
4.6185277e-12
0.011584389
1.0295379e-11
0.011584389
-3.1417277e-14
0.011584389
2.4707592e-11
0.011584389
-3.0755088e-11
0.011584389
9.311611e-11
0.011584389
-1.7873459e-10
0.011584389
4.0304221e-10
0.011584389
-8.155658e-10
0.011584389
1.6624023e-09
0.011584389
-3.2444316e-09
0.011584388
6.1239667e-09
0.01158439
-1.1240771e-08
0.011584386
1.9407071e-08
0.011584394
-3.265965e-08
0.01158438
5.0122679e-08
0.011584404
-7.392621e-08
0.011584367
9.3791179e-08
0.011584419
-1.0777583e-07
0.011584358
8.0456518e-08
0.01158441
-1.5995116e-08
0.011584407
-1.5307874e-07
0.011584332
3.253715e-07
0.01158456
-5.4904796e-07
0.011584293
5.2240927e-07
0.011584574
-2.2718911e-07
0.011584545
-2.2793385e-07
0.011584249
9.470687e-07
0.011584552
-2.6975474e-07
8.1618882e-07
0.010340178
-0.00069293519
0.010574184
-0.0010216955
0.010610891
-0.00094723138
0.010553852
-0.00082051989
0.01043778
-0.00068851448
0.0102759
-0.00054522128
0.010095039
-0.00039662971
0.0099250009
-0.00026170647
0.0097838589
-0.00015848743
0.0096765822
-8.9126237e-05
0.009600885
-4.508549e-05
0.0095516086
-1.8542058e-05
0.0095224285
-4.4368135e-06
0.0095064667
2.1478777e-06
0.0094988001
3.8900296e-06
0.0094958527
3.7927368e-06
0.0094951946
2.990497e-06
0.0094955421
2.110356e-06
0.0094961745
1.374959e-06
0.0094967773
8.3989524e-07
0.0094972467
4.8578215e-07
0.0094975743
2.6725874e-07
0.0094977865
1.3972689e-07
0.0094979163
6.8948605e-08
0.0094979918
3.1586605e-08
0.0094980339
1.2944506e-08
0.0094980564
4.2618459e-09
0.0094980677
6.6319996e-10
0.0094980733
-7.1903171e-10
0.0094980758
-9.7968076e-10
0.0094980768
-8.4860192e-10
0.0094980772
-6.2553767e-10
0.0094980773
-4.2985879e-10
0.0094980773
-2.700648e-10
0.0094980773
-1.7015823e-10
0.0094980773
-9.8042409e-11
0.0094980773
-6.3802575e-11
0.0094980773
-3.6058238e-11
0.0094980773
-2.9138354e-11
0.0094980773
-1.7458835e-11
0.0094980773
-1.9479568e-11
0.0094980773
-1.231313e-11
0.0094980773
-1.605266e-11
0.0094980773
-9.3346957e-12
0.0094980773
-1.332933e-11
0.0094980774
-6.7214606e-12
0.0094980774
-1.0581668e-11
0.0094980774
-3.8912963e-12
0.0094980774
-8.0986769e-12
0.0094980774
-1.8192704e-12
0.0094980774
-6.1852963e-12
0.0094980774
-2.3260604e-14
0.0094980774
-4.7775407e-12
0.0094980774
9.4261624e-13
0.0094980774
-3.8501841e-12
0.0094980774
1.7749705e-12
0.0094980774
-3.2600787e-12
0.0094980774
2.0491526e-12
0.0094980774
-2.8514984e-12
0.0094980774
2.538734e-12
0.0094980774
-2.5611783e-12
0.0094980774
2.7286218e-12
0.0094980774
-2.2065749e-12
0.0094980774
3.1380542e-12
0.0094980774
-1.900038e-12
0.0094980774
3.3243318e-12
0.0094980774
-1.6014131e-12
0.0094980774
3.774422e-12
0.0094980774
-1.4870077e-12
0.0094980774
4.024711e-12
0.0094980774
-2.0080756e-12
0.0094980774
5.3658563e-12
0.0094980774
-5.2949807e-12
0.0094980774
1.2787572e-11
0.0094980774
-2.1872731e-11
0.0094980775
5.1486356e-11
0.0094980774
-1.0479171e-10
0.0094980776
2.3125892e-10
0.0094980773
-4.7671698e-10
0.009498078
9.9157162e-10
0.0094980767
-1.9720222e-09
0.009498079
3.8192425e-09
0.0094980749
-7.2055968e-09
0.0094980814
1.2816727e-08
0.0094980711
-2.2408801e-08
0.0094980853
3.5923828e-08
0.0094980673
-5.5894436e-08
0.0094980842
7.6958236e-08
0.0094980748
-9.8280681e-08
0.0094980581
9.7233428e-08
0.0094981107
-6.8644767e-08
0.0094980014
-4.3871175e-08
0.0094981423
1.8425843e-07
0.0094980246
-4.3146644e-07
0.0094980464
5.0067976e-07
0.0094983755
-5.562711e-07
0.0094980607
8.6924464e-08
0.0094984745
5.3327416e-07
0.0094985875
-3.8276946e-07
9.5227575e-07
0.0093070664
0.0082853717
0.00733814
0.0065176191
0.0058291035
0.0052838814
0.0048872513
0.004625545
0.004467058
0.0043779323
0.0043328473
0.0043143055
0.0043098688
0.0043120166
0.0043159065
0.0043196991
0.0043226895
0.0043247998
0.0043261748
0.0043270148
0.0043275006
0.004327768
0.0043279078
0.0043279767
0.0043280084
0.0043280213
0.0043280256
0.0043280263
0.0043280256
0.0043280246
0.0043280237
0.0043280231
0.0043280227
0.0043280224
0.0043280223
0.0043280222
0.0043280221
0.0043280221
0.0043280221
0.0043280221
0.004328022
0.004328022
0.004328022
0.004328022
0.004328022
0.004328022
0.004328022
0.004328022
0.004328022
0.004328022
0.004328022
0.004328022
0.004328022
0.004328022
0.004328022
0.004328022
0.004328022
0.004328022
0.004328022
0.004328022
0.004328022
0.004328022
0.004328022
0.004328022
0.004328022
0.004328022
0.004328022
0.004328022
0.004328022
0.004328022
0.004328022
0.004328022
0.004328022
0.004328022
0.004328022
0.004328022
0.0043280219
0.0043280221
0.0043280217
0.0043280227
0.0043280207
0.0043280245
0.0043280172
0.00432803
0.0043280076
0.0043280435
0.0043279877
0.0043280647
0.0043279665
0.0043280637
0.004327995
0.004327951
0.0043281352
0.0043277037
0.0043282045
0.0043276482
0.0043277351
0.0043282684
0.0043278857
)
;

boundaryField
{
    top
    {
        type            calculated;
        value           uniform 0;
    }
    inlet
    {
        type            calculated;
        value           nonuniform List<scalar> 10(-0.01 -0.01 -0.01 -0.01 -0.01 -0.01 -0.01 -0.01 -0.01 -0.01);
    }
    outlet
    {
        type            calculated;
        value           nonuniform List<scalar> 10(0.0043288378 0.0094984509 0.011584312 0.012218797 0.012369607 0.012369607 0.012218797 0.011584313 0.0094984514 0.0043288379);
    }
    bottom
    {
        type            calculated;
        value           uniform 0;
    }
    back
    {
        type            empty;
        value           nonuniform 0();
    }
    front
    {
        type            empty;
        value           nonuniform 0();
    }
}


// ************************************************************************* //
