/*--------------------------------*- C++ -*----------------------------------*\
| =========                 |                                                 |
| \\      /  F ield         | OpenFOAM: The Open Source CFD Toolbox           |
|  \\    /   O peration     | Version:  v1812                                 |
|   \\  /    A nd           | Web:      www.OpenFOAM.com                      |
|    \\/     M anipulation  |                                                 |
\*---------------------------------------------------------------------------*/
FoamFile
{
    version     2.0;
    format      ascii;
    class       volVectorField;
    location    "1";
    object      U;
}
// * * * * * * * * * * * * * * * * * * * * * * * * * * * * * * * * * * * * * //

dimensions      [0 1 -1 0 0 0 0];


internalField   nonuniform List<vector> 
1000
(
(0.91891688 0.035772649 0)
(0.86292659 0.0623003 0)
(0.7862646 0.06219544 0)
(0.69600907 0.052950016 0)
(0.6156486 0.04211068 0)
(0.55226608 0.030939723 0)
(0.5053594 0.019750714 0)
(0.47338729 0.010446491 0)
(0.45329091 0.0044697829 0)
(0.44144498 0.0013444775 0)
(0.4350152 -0.00012808069 0)
(0.43202049 -0.00073429975 0)
(0.43101909 -0.0008494205 0)
(0.43100654 -0.00069745821 0)
(0.43136079 -0.00049005393 0)
(0.43177288 -0.00031925947 0)
(0.43212254 -0.00019605966 0)
(0.43238078 -0.00011386777 0)
(0.43255493 -6.2210166e-05 0)
(0.43266438 -3.1822322e-05 0)
(0.43272922 -1.5112085e-05 0)
(0.43276569 -6.5004433e-06 0)
(0.4327852 -2.3566862e-06 0)
(0.43279507 -5.307985e-07 0)
(0.43279976 1.6573716e-07 0)
(0.43280178 3.5484632e-07 0)
(0.43280253 3.4291302e-07 0)
(0.43280271 2.7026983e-07 0)
(0.43280268 1.8796452e-07 0)
(0.43280258 1.2215011e-07 0)
(0.43280248 7.5817168e-08 0)
(0.4328024 4.6420792e-08 0)
(0.43280234 2.8077585e-08 0)
(0.4328023 1.708309e-08 0)
(0.43280228 1.0407345e-08 0)
(0.43280226 6.6416815e-09 0)
(0.43280225 4.3758081e-09 0)
(0.43280224 3.2156318e-09 0)
(0.43280223 2.4141544e-09 0)
(0.43280223 2.0466086e-09 0)
(0.43280222 1.6736315e-09 0)
(0.43280222 1.5359482e-09 0)
(0.43280222 1.2708159e-09 0)
(0.43280221 1.181074e-09 0)
(0.43280221 9.5274332e-10 0)
(0.43280221 8.9820031e-10 0)
(0.43280221 6.90872e-10 0)
(0.4328022 6.5114261e-10 0)
(0.4328022 4.7182017e-10 0)
(0.4328022 4.6709435e-10 0)
(0.4328022 3.1096188e-10 0)
(0.4328022 3.1931475e-10 0)
(0.4328022 1.8736033e-10 0)
(0.4328022 2.2500938e-10 0)
(0.4328022 1.0679655e-10 0)
(0.4328022 1.5055108e-10 0)
(0.4328022 5.0471142e-11 0)
(0.4328022 1.172188e-10 0)
(0.4328022 2.5315082e-11 0)
(0.4328022 9.1574211e-11 0)
(0.4328022 9.9692512e-12 0)
(0.4328022 9.3483648e-11 0)
(0.43280219 1.5731643e-11 0)
(0.43280219 9.329833e-11 0)
(0.43280219 2.4071428e-11 0)
(0.43280219 1.2047692e-10 0)
(0.43280219 5.7303676e-11 0)
(0.43280219 1.5109309e-10 0)
(0.43280219 1.0085255e-10 0)
(0.43280219 1.9499749e-10 0)
(0.43280219 1.6641169e-10 0)
(0.43280219 1.7224465e-10 0)
(0.43280219 2.9705645e-10 0)
(0.43280219 -1.0021604e-10 0)
(0.43280219 9.2240403e-10 0)
(0.43280219 -1.5064288e-09 0)
(0.43280218 4.0400862e-09 0)
(0.43280221 -8.0933291e-09 0)
(0.43280215 1.8409419e-08 0)
(0.43280228 -3.6603622e-08 0)
(0.43280199 7.6812802e-08 0)
(0.43280259 -1.4673776e-07 0)
(0.43280138 2.8653273e-07 0)
(0.43280373 -5.1349912e-07 0)
(0.43279924 9.2934344e-07 0)
(0.43280742 -1.5255806e-06 0)
(0.43279282 2.5003004e-06 0)
(0.43281763 -3.6305421e-06 0)
(0.43277669 5.1288081e-06 0)
(0.43284074 -5.9429081e-06 0)
(0.43274374 6.2397803e-06 0)
(0.43288206 -2.7568839e-06 0)
(0.43268844 -2.4486114e-06 0)
(0.43294215 1.7701724e-05 0)
(0.43260532 -2.7253923e-05 0)
(0.43301352 4.5134438e-05 0)
(0.43249603 -2.8568784e-05 0)
(0.43302507 -1.2469941e-05 0)
(0.43252325 2.1856196e-05 0)
(0.4329092 -0.00010617121 0)
(1.0014998 0.053693287 0)
(1.0363152 0.1012286 0)
(1.0587331 0.11024857 0)
(1.0615549 0.10361071 0)
(1.0530944 0.092385043 0)
(1.0380136 0.078967576 0)
(1.0190106 0.062620771 0)
(1.0004551 0.044992444 0)
(0.98502468 0.029529608 0)
(0.97283484 0.017994137 0)
(0.96359983 0.01007738 0)
(0.95722221 0.0049421735 0)
(0.95332913 0.0019025181 0)
(0.95120049 0.00036014756 0)
(0.95011939 -0.00028133662 0)
(0.94964509 -0.00045475752 0)
(0.94950205 -0.00042536707 0)
(0.94951265 -0.00033219678 0)
(0.9495765 -0.00023205046 0)
(0.94964551 -0.00014968108 0)
(0.94970203 -9.074934e-05 0)
(0.94974271 -5.2204987e-05 0)
(0.94976968 -2.8595752e-05 0)
(0.94978647 -1.4896713e-05 0)
(0.94979639 -7.3329851e-06 0)
(0.94980199 -3.3592608e-06 0)
(0.94980501 -1.3820807e-06 0)
(0.94980657 -4.6084308e-07 0)
(0.94980733 -7.3381988e-08 0)
(0.94980767 6.450902e-08 0)
(0.94980782 9.6025008e-08 0)
(0.94980787 8.6176487e-08 0)
(0.94980787 6.6413909e-08 0)
(0.94980787 4.8096709e-08 0)
(0.94980785 3.3955969e-08 0)
(0.94980784 2.408388e-08 0)
(0.94980783 1.758154e-08 0)
(0.94980782 1.3449598e-08 0)
(0.94980781 1.0812423e-08 0)
(0.9498078 9.1062018e-09 0)
(0.94980779 7.921229e-09 0)
(0.94980779 7.0449954e-09 0)
(0.94980778 6.3014588e-09 0)
(0.94980778 5.653637e-09 0)
(0.94980777 5.0432221e-09 0)
(0.94980777 4.4833389e-09 0)
(0.94980776 3.9332474e-09 0)
(0.94980776 3.4298192e-09 0)
(0.94980776 2.9568611e-09 0)
(0.94980775 2.5388907e-09 0)
(0.94980775 2.1460068e-09 0)
(0.94980775 1.809073e-09 0)
(0.94980775 1.5061631e-09 0)
(0.94980775 1.259483e-09 0)
(0.94980774 1.0282786e-09 0)
(0.94980774 8.4693212e-10 0)
(0.94980774 6.881896e-10 0)
(0.94980774 5.7374283e-10 0)
(0.94980774 4.6519651e-10 0)
(0.94980774 3.9320266e-10 0)
(0.94980774 3.3340539e-10 0)
(0.94980774 3.079654e-10 0)
(0.94980774 2.7990344e-10 0)
(0.94980774 2.7898467e-10 0)
(0.94980774 2.8580912e-10 0)
(0.94980774 3.2256603e-10 0)
(0.94980774 3.5737618e-10 0)
(0.94980774 4.1058067e-10 0)
(0.94980774 5.0061567e-10 0)
(0.94980774 5.4507673e-10 0)
(0.94980774 7.6930075e-10 0)
(0.94980774 5.304759e-10 0)
(0.94980773 1.4306493e-09 0)
(0.94980774 -4.0880858e-10 0)
(0.94980773 4.1187232e-09 0)
(0.94980775 -5.8987403e-09 0)
(0.94980769 1.6604053e-08 0)
(0.94980782 -3.196723e-08 0)
(0.94980752 7.1677539e-08 0)
(0.94980817 -1.4162174e-07 0)
(0.94980681 2.8911464e-07 0)
(0.94980959 -5.473755e-07 0)
(0.94980403 1.0344444e-06 0)
(0.94981482 -1.821607e-06 0)
(0.94979441 3.1500353e-06 0)
(0.94983173 -4.9918318e-06 0)
(0.94976568 7.6207493e-06 0)
(0.94987805 -1.018983e-05 0)
(0.94969435 1.2433239e-05 0)
(0.94998066 -1.097995e-05 0)
(0.94955603 5.0561496e-06 0)
(0.95014853 1.1850521e-05 0)
(0.94937362 -3.3405942e-05 0)
(0.95030591 6.30489e-05 0)
(0.9492791 -6.6318964e-05 0)
(0.95026666 4.7057941e-05 0)
(0.94943188 1.9753987e-05 0)
(0.94995327 -9.4375142e-05 0)
(0.9496756 4.7344067e-05 0)
(0.94983014 -8.0836196e-05 0)
(1.0012183 0.02668262 0)
(1.0293752 0.062517034 0)
(1.0639603 0.076948257 0)
(1.0962355 0.078323311 0)
(1.1245859 0.074621098 0)
(1.1451 0.068222844 0)
(1.1564731 0.058398048 0)
(1.1625304 0.046002738 0)
(1.166117 0.033696462 0)
(1.1672682 0.023351313 0)
(1.1662264 0.015309386 0)
(1.1642785 0.0093419787 0)
(1.1624698 0.0052157693 0)
(1.1610781 0.0026079015 0)
(1.1600639 0.0011091807 0)
(1.1593678 0.0003322451 0)
(1.1589213 -2.3203548e-05 0)
(1.1586641 -0.00014782079 0)
(1.1585322 -0.00016427576 0)
(1.1584686 -0.00013748053 0)
(1.158441 -0.00010045063 0)
(1.1584315 -6.7364239e-05 0)
(1.15843 -4.2397847e-05 0)
(1.1584315 -2.5324785e-05 0)
(1.1584336 -1.4437237e-05 0)
(1.1584355 -7.8711474e-06 0)
(1.1584368 -4.0978995e-06 0)
(1.1584377 -2.0254911e-06 0)
(1.1584383 -9.3518263e-07 0)
(1.1584386 -3.8965399e-07 0)
(1.1584388 -1.3176221e-07 0)
(1.1584389 -2.0410986e-08 0)
(1.1584389 2.1477771e-08 0)
(1.1584389 3.2847308e-08 0)
(1.1584389 3.2632183e-08 0)
(1.1584389 2.8713989e-08 0)
(1.1584389 2.4553808e-08 0)
(1.1584389 2.0921429e-08 0)
(1.1584389 1.822703e-08 0)
(1.1584389 1.6061594e-08 0)
(1.1584389 1.4484044e-08 0)
(1.1584389 1.3057817e-08 0)
(1.1584389 1.1924609e-08 0)
(1.1584389 1.0757796e-08 0)
(1.1584389 9.782105e-09 0)
(1.1584389 8.7180361e-09 0)
(1.1584389 7.8220851e-09 0)
(1.1584389 6.8441176e-09 0)
(1.1584389 6.0537694e-09 0)
(1.1584389 5.1922547e-09 0)
(1.1584389 4.5249133e-09 0)
(1.1584389 3.8009856e-09 0)
(1.1584389 3.2829646e-09 0)
(1.1584389 2.7016326e-09 0)
(1.1584389 2.3161568e-09 0)
(1.1584389 1.8662333e-09 0)
(1.1584389 1.6084737e-09 0)
(1.1584389 1.2720821e-09 0)
(1.1584389 1.111656e-09 0)
(1.1584389 8.6791774e-10 0)
(1.1584389 8.0002222e-10 0)
(1.1584389 6.3790435e-10 0)
(1.1584389 6.3988933e-10 0)
(1.1584389 5.478818e-10 0)
(1.1584389 6.2332792e-10 0)
(1.1584389 5.9315083e-10 0)
(1.1584389 7.2689258e-10 0)
(1.1584389 7.4459679e-10 0)
(1.1584389 9.7383022e-10 0)
(1.1584389 9.8748006e-10 0)
(1.1584389 1.4345854e-09 0)
(1.1584389 1.0806413e-09 0)
(1.1584389 2.5029303e-09 0)
(1.1584389 -4.1010432e-11 0)
(1.1584389 6.3077423e-09 0)
(1.1584389 -7.1784597e-09 0)
(1.1584388 2.2680587e-08 0)
(1.1584391 -4.0182687e-08 0)
(1.1584385 9.0800085e-08 0)
(1.1584398 -1.7203252e-07 0)
(1.1584371 3.4387383e-07 0)
(1.1584425 -6.2702988e-07 0)
(1.1584318 1.1457205e-06 0)
(1.1584522 -1.9268645e-06 0)
(1.1584144 3.1778656e-06 0)
(1.1584822 -4.716541e-06 0)
(1.1583651 6.6995713e-06 0)
(1.1585594 -7.9599966e-06 0)
(1.1582508 8.3152659e-06 0)
(1.1587172 -4.3944877e-06 0)
(1.1580511 -2.9394431e-06 0)
(1.1589416 1.8494815e-05 0)
(1.1578395 -3.220674e-05 0)
(1.1590787 4.537672e-05 0)
(1.1578371 -3.5103295e-05 0)
(1.1588847 3.0052918e-06 0)
(1.1581611 3.0292458e-05 0)
(1.1584538 -8.368852e-05 0)
(1.1583903 4.6437529e-06 0)
(1.158387 -7.3136791e-05 0)
(1.0005262 0.011726669 0)
(1.0180654 0.030567408 0)
(1.0443702 0.040760526 0)
(1.0765771 0.043765856 0)
(1.1120006 0.043326876 0)
(1.1429911 0.04111378 0)
(1.1659051 0.036800612 0)
(1.1837889 0.030569962 0)
(1.1987135 0.023725042 0)
(1.2096146 0.017457274 0)
(1.2160698 0.012211212 0)
(1.2194563 0.0080456258 0)
(1.2212474 0.0049509003 0)
(1.2221487 0.0028324684 0)
(1.2224734 0.0014966126 0)
(1.2224783 0.00070617914 0)
(1.2223687 0.00027214111 0)
(1.2222436 6.1568078e-05 0)
(1.2221358 -2.6086764e-05 0)
(1.2220571 -5.2044481e-05 0)
(1.2220038 -5.0699974e-05 0)
(1.2219699 -3.9936725e-05 0)
(1.2219495 -2.8087141e-05 0)
(1.221938 -1.8303487e-05 0)
(1.2219317 -1.1247533e-05 0)
(1.2219284 -6.5767609e-06 0)
(1.2219268 -3.6738169e-06 0)
(1.2219261 -1.9607159e-06 0)
(1.2219258 -9.9414982e-07 0)
(1.2219257 -4.7264021e-07 0)
(1.2219257 -2.0398979e-07 0)
(1.2219257 -7.1572926e-08 0)
(1.2219257 -1.0611553e-08 0)
(1.2219257 1.4245587e-08 0)
(1.2219257 2.3181172e-08 0)
(1.2219257 2.4815204e-08 0)
(1.2219257 2.4078909e-08 0)
(1.2219257 2.2180082e-08 0)
(1.2219257 2.0525338e-08 0)
(1.2219257 1.8666723e-08 0)
(1.2219257 1.7309583e-08 0)
(1.2219257 1.5746453e-08 0)
(1.2219257 1.4612023e-08 0)
(1.2219257 1.3198966e-08 0)
(1.2219257 1.2165031e-08 0)
(1.2219257 1.0835255e-08 0)
(1.2219257 9.8798594e-09 0)
(1.2219257 8.6360683e-09 0)
(1.2219257 7.7777966e-09 0)
(1.2219257 6.653775e-09 0)
(1.2219257 5.9321728e-09 0)
(1.2219257 4.9522948e-09 0)
(1.2219257 4.385257e-09 0)
(1.2219257 3.5667439e-09 0)
(1.2219257 3.1640865e-09 0)
(1.2219257 2.5010873e-09 0)
(1.2219257 2.2421312e-09 0)
(1.2219257 1.7186778e-09 0)
(1.2219257 1.5929636e-09 0)
(1.2219257 1.1851114e-09 0)
(1.2219257 1.165477e-09 0)
(1.2219257 8.6008842e-10 0)
(1.2219257 9.3629923e-10 0)
(1.2219257 7.1997408e-10 0)
(1.2219257 8.8504643e-10 0)
(1.2219257 7.5482153e-10 0)
(1.2219257 1.0075035e-09 0)
(1.2219257 9.4986288e-10 0)
(1.2219257 1.3048877e-09 0)
(1.2219257 1.278158e-09 0)
(1.2219257 1.8361088e-09 0)
(1.2219257 1.5675101e-09 0)
(1.2219257 2.8512648e-09 0)
(1.2219257 1.0092091e-09 0)
(1.2219257 5.8094665e-09 0)
(1.2219258 -3.7402081e-09 0)
(1.2219256 1.7274971e-08 0)
(1.221926 -2.584317e-08 0)
(1.2219251 6.2485397e-08 0)
(1.2219269 -1.1093864e-07 0)
(1.2219233 2.2250258e-07 0)
(1.2219304 -3.8932013e-07 0)
(1.2219167 6.99518e-07 0)
(1.2219426 -1.1272361e-06 0)
(1.2218953 1.80478e-06 0)
(1.2219788 -2.5224099e-06 0)
(1.2218367 3.4085617e-06 0)
(1.222069 -3.5765106e-06 0)
(1.2217061 3.218572e-06 0)
(1.2222453 -1.4058367e-07 0)
(1.2214896 -4.0509384e-06 0)
(1.2224804 1.2081958e-05 0)
(1.2212808 -1.6984648e-05 0)
(1.2225952 1.954239e-05 0)
(1.2213171 -1.1883936e-05 0)
(1.2223457 -1.088709e-05 0)
(1.2216835 1.7164463e-05 0)
(1.2218808 -4.7283704e-05 0)
(1.2218938 -1.1945261e-05 0)
(1.221829 -4.7511372e-05 0)
(1.000372 0.0034354449 0)
(1.0139425 0.0092462256 0)
(1.0351004 0.012806947 0)
(1.0639104 0.014128547 0)
(1.0987139 0.014213308 0)
(1.1309631 0.013690852 0)
(1.1562527 0.012515311 0)
(1.1775017 0.010670674 0)
(1.1965185 0.00850656 0)
(1.2116027 0.0064223654 0)
(1.2217575 0.0046125144 0)
(1.2281297 0.0031322773 0)
(1.2321929 0.0019993183 0)
(1.2347227 0.0011980781 0)
(1.2361339 0.00067190618 0)
(1.2368144 0.00034760026 0)
(1.2370959 0.00016071778 0)
(1.2371847 5.9023206e-05 0)
(1.237186 1.1704527e-05 0)
(1.2371541 -7.191071e-06 0)
(1.2371169 -1.2366614e-05 0)
(1.2370857 -1.1616907e-05 0)
(1.237063 -8.9591265e-06 0)
(1.2370478 -6.2015187e-06 0)
(1.2370382 -3.9870596e-06 0)
(1.2370326 -2.4195105e-06 0)
(1.2370294 -1.3966082e-06 0)
(1.2370276 -7.6824439e-07 0)
(1.2370267 -4.0091545e-07 0)
(1.2370263 -1.9535423e-07 0)
(1.2370261 -8.5049219e-08 0)
(1.237026 -2.807348e-08 0)
(1.237026 1.3458452e-10 0)
(1.237026 1.3239422e-08 0)
(1.237026 1.861621e-08 0)
(1.237026 2.0326558e-08 0)
(1.237026 2.0290651e-08 0)
(1.237026 1.9554621e-08 0)
(1.237026 1.8474906e-08 0)
(1.237026 1.7313257e-08 0)
(1.237026 1.6098789e-08 0)
(1.237026 1.4943722e-08 0)
(1.237026 1.3778822e-08 0)
(1.237026 1.2668414e-08 0)
(1.237026 1.1554381e-08 0)
(1.237026 1.0517762e-08 0)
(1.237026 9.4789894e-09 0)
(1.237026 8.5050406e-09 0)
(1.237026 7.5392805e-09 0)
(1.237026 6.6749286e-09 0)
(1.2370261 5.8275847e-09 0)
(1.237026 5.0694432e-09 0)
(1.2370261 4.3405208e-09 0)
(1.2370261 3.7351026e-09 0)
(1.2370261 3.1609881e-09 0)
(1.2370261 2.6837418e-09 0)
(1.2370261 2.2367157e-09 0)
(1.2370261 1.9034148e-09 0)
(1.2370261 1.5900531e-09 0)
(1.2370261 1.3596939e-09 0)
(1.2370261 1.1447598e-09 0)
(1.2370261 1.0280369e-09 0)
(1.2370261 9.1724408e-10 0)
(1.2370261 8.7763519e-10 0)
(1.2370261 8.5012358e-10 0)
(1.2370261 9.1650661e-10 0)
(1.2370261 9.9594737e-10 0)
(1.2370261 1.1411189e-09 0)
(1.2370261 1.3121963e-09 0)
(1.2370261 1.5312736e-09 0)
(1.2370261 1.8313197e-09 0)
(1.2370261 1.9894803e-09 0)
(1.237026 2.5421137e-09 0)
(1.2370261 2.1896892e-09 0)
(1.237026 3.9186135e-09 0)
(1.2370261 9.2874298e-10 0)
(1.2370259 8.0319913e-09 0)
(1.2370263 -6.169429e-09 0)
(1.2370254 2.300308e-08 0)
(1.2370273 -3.3507203e-08 0)
(1.2370235 7.4133802e-08 0)
(1.2370312 -1.2034756e-07 0)
(1.2370163 2.2119655e-07 0)
(1.2370441 -3.4013689e-07 0)
(1.2369937 5.4382126e-07 0)
(1.2370823 -7.1939474e-07 0)
(1.2369325 9.5589868e-07 0)
(1.2371759 -8.8737518e-07 0)
(1.2367981 7.1560095e-07 0)
(1.237356 3.8925467e-07 0)
(1.2365789 -1.5754862e-06 0)
(1.2375915 3.8390991e-06 0)
(1.2363722 -4.8812744e-06 0)
(1.2377001 4.7747607e-06 0)
(1.2364146 -2.5586375e-06 0)
(1.23744 -5.249027e-06 0)
(1.2367885 4.8088894e-06 0)
(1.2369622 -1.4119286e-05 0)
(1.2369955 -5.8816541e-06 0)
(1.23691 -1.6030914e-05 0)
(1.000372 -0.0034355388 0)
(1.0139425 -0.0092463419 0)
(1.0351004 -0.012807066 0)
(1.0639104 -0.014128652 0)
(1.0987139 -0.014213373 0)
(1.1309631 -0.013690879 0)
(1.1562527 -0.012515329 0)
(1.1775017 -0.010670708 0)
(1.1965185 -0.0085066164 0)
(1.2116027 -0.0064224357 0)
(1.2217575 -0.0046125878 0)
(1.2281298 -0.0031323535 0)
(1.2321929 -0.0019994065 0)
(1.2347227 -0.0011981928 0)
(1.2361339 -0.00067205667 0)
(1.2368144 -0.00034778159 0)
(1.2370959 -0.00016091848 0)
(1.2371847 -5.921815e-05 0)
(1.2371859 -1.1870508e-05 0)
(1.237154 7.067297e-06 0)
(1.2371169 1.22882e-05 0)
(1.2370856 1.1580169e-05 0)
(1.2370629 8.9533707e-06 0)
(1.2370477 6.2158758e-06 0)
(1.2370382 4.010654e-06 0)
(1.2370325 2.4462591e-06 0)
(1.2370293 1.4222058e-06 0)
(1.2370276 7.9273068e-07 0)
(1.2370267 4.2429369e-07 0)
(1.2370262 2.1989595e-07 0)
(1.237026 1.110687e-07 0)
(1.237026 5.7083356e-08 0)
(1.2370259 3.1286255e-08 0)
(1.2370259 2.0999218e-08 0)
(1.237026 1.6264004e-08 0)
(1.237026 1.5124487e-08 0)
(1.237026 1.402278e-08 0)
(1.237026 1.4017537e-08 0)
(1.237026 1.3016669e-08 0)
(1.237026 1.2758097e-08 0)
(1.237026 1.1534812e-08 0)
(1.237026 1.1170769e-08 0)
(1.237026 9.9051433e-09 0)
(1.237026 9.5359914e-09 0)
(1.237026 8.3239891e-09 0)
(1.237026 8.0362391e-09 0)
(1.237026 6.8797256e-09 0)
(1.237026 6.621477e-09 0)
(1.237026 5.5237746e-09 0)
(1.237026 5.3463144e-09 0)
(1.237026 4.3071822e-09 0)
(1.237026 4.1772518e-09 0)
(1.237026 3.2224827e-09 0)
(1.237026 3.2060864e-09 0)
(1.237026 2.3404046e-09 0)
(1.237026 2.3948131e-09 0)
(1.237026 1.6284777e-09 0)
(1.2370261 1.801105e-09 0)
(1.2370261 1.119991e-09 0)
(1.2370261 1.3590104e-09 0)
(1.2370261 7.6644824e-10 0)
(1.2370261 1.1120787e-09 0)
(1.2370261 5.9679265e-10 0)
(1.2370261 9.9829207e-10 0)
(1.2370261 5.6390225e-10 0)
(1.2370261 1.0710114e-09 0)
(1.2370261 7.1821193e-10 0)
(1.2370261 1.2885841e-09 0)
(1.2370261 1.0197803e-09 0)
(1.2370261 1.7088016e-09 0)
(1.2370261 1.4634737e-09 0)
(1.2370261 2.2687721e-09 0)
(1.237026 1.7985245e-09 0)
(1.2370261 3.1753731e-09 0)
(1.237026 1.438694e-09 0)
(1.2370261 5.3397906e-09 0)
(1.2370259 -1.9335767e-09 0)
(1.2370264 1.2961935e-08 0)
(1.2370254 -1.6456448e-08 0)
(1.2370274 4.058912e-08 0)
(1.2370235 -6.7274804e-08 0)
(1.2370312 1.2803184e-07 0)
(1.2370163 -2.1353393e-07 0)
(1.2370441 3.4944306e-07 0)
(1.2369937 -5.3274428e-07 0)
(1.2370823 7.3493896e-07 0)
(1.2369325 -9.3547719e-07 0)
(1.2371759 9.1299034e-07 0)
(1.2367981 -6.8843782e-07 0)
(1.237356 -3.642822e-07 0)
(1.2365789 1.5925413e-06 0)
(1.2375916 -3.830419e-06 0)
(1.2363722 4.8819405e-06 0)
(1.2377002 -4.7757313e-06 0)
(1.2364146 2.5579295e-06 0)
(1.23744 5.2527364e-06 0)
(1.2367885 -4.8009358e-06 0)
(1.2369622 1.4125669e-05 0)
(1.2369955 5.8900099e-06 0)
(1.23691 1.6029763e-05 0)
(1.0005262 -0.01172677 0)
(1.0180654 -0.030567523 0)
(1.0443702 -0.040760637 0)
(1.0765771 -0.043765953 0)
(1.1120006 -0.043326945 0)
(1.1429911 -0.041113827 0)
(1.1659051 -0.036800658 0)
(1.1837889 -0.030570019 0)
(1.1987135 -0.023725104 0)
(1.2096146 -0.017457329 0)
(1.2160698 -0.012211254 0)
(1.2194563 -0.008045663 0)
(1.2212474 -0.004950951 0)
(1.2221487 -0.0028325515 0)
(1.2224734 -0.0014967391 0)
(1.2224783 -0.00070634692 0)
(1.2223686 -0.00027232764 0)
(1.2222435 -6.1748078e-05 0)
(1.2221357 2.5939211e-05 0)
(1.222057 5.1938307e-05 0)
(1.2220036 5.0638903e-05 0)
(1.2219697 3.9914023e-05 0)
(1.2219493 2.8092324e-05 0)
(1.2219378 1.8323822e-05 0)
(1.2219315 1.1273895e-05 0)
(1.2219282 6.6023173e-06 0)
(1.2219266 3.6967531e-06 0)
(1.2219259 1.9804596e-06 0)
(1.2219256 1.0129839e-06 0)
(1.2219255 4.9173014e-07 0)
(1.2219255 2.2511597e-07 0)
(1.2219255 9.547237e-08 0)
(1.2219256 3.7455227e-08 0)
(1.2219256 1.3693802e-08 0)
(1.2219256 6.1726488e-09 0)
(1.2219256 4.4326487e-09 0)
(1.2219256 5.1257037e-09 0)
(1.2219256 5.5437646e-09 0)
(1.2219256 6.0704499e-09 0)
(1.2219257 5.8093651e-09 0)
(1.2219257 5.7762402e-09 0)
(1.2219257 5.1884194e-09 0)
(1.2219257 4.9921289e-09 0)
(1.2219257 4.3710778e-09 0)
(1.2219257 4.2471873e-09 0)
(1.2219257 3.7148546e-09 0)
(1.2219257 3.629152e-09 0)
(1.2219257 3.1154929e-09 0)
(1.2219257 3.0775613e-09 0)
(1.2219257 2.5977041e-09 0)
(1.2219257 2.5497857e-09 0)
(1.2219257 2.0649459e-09 0)
(1.2219257 2.0577876e-09 0)
(1.2219257 1.613192e-09 0)
(1.2219257 1.6099155e-09 0)
(1.2219257 1.1794466e-09 0)
(1.2219257 1.2371012e-09 0)
(1.2219257 8.69834e-10 0)
(1.2219257 9.5636741e-10 0)
(1.2219257 6.1703636e-10 0)
(1.2219257 7.7385728e-10 0)
(1.2219257 5.0722059e-10 0)
(1.2219257 6.9691941e-10 0)
(1.2219257 4.6548528e-10 0)
(1.2219257 7.2537321e-10 0)
(1.2219257 5.7473801e-10 0)
(1.2219257 8.7184454e-10 0)
(1.2219257 7.6944365e-10 0)
(1.2219257 1.1197345e-09 0)
(1.2219257 1.1513093e-09 0)
(1.2219257 1.4032314e-09 0)
(1.2219257 1.7254819e-09 0)
(1.2219257 1.3193924e-09 0)
(1.2219257 3.2081519e-09 0)
(1.2219257 -8.0164862e-10 0)
(1.2219258 8.6642856e-09 0)
(1.2219256 -1.1716248e-08 0)
(1.221926 3.1213769e-08 0)
(1.2219252 -5.6600689e-08 0)
(1.2219269 1.1665251e-07 0)
(1.2219233 -2.1606139e-07 0)
(1.2219304 3.9575028e-07 0)
(1.2219167 -6.9205748e-07 0)
(1.2219426 1.1352453e-06 0)
(1.2218953 -1.7943616e-06 0)
(1.2219788 2.535767e-06 0)
(1.2218368 -3.3904777e-06 0)
(1.222069 3.598006e-06 0)
(1.2217062 -3.1956462e-06 0)
(1.2222454 1.5999629e-07 0)
(1.2214896 4.0634854e-06 0)
(1.2224804 -1.2077724e-05 0)
(1.2212808 1.6983147e-05 0)
(1.2225952 -1.9544868e-05 0)
(1.2213171 1.1884091e-05 0)
(1.2223458 1.0892356e-05 0)
(1.2216835 -1.715536e-05 0)
(1.2218809 4.7291696e-05 0)
(1.2218938 1.195448e-05 0)
(1.2218291 4.7509282e-05 0)
(1.0012183 -0.026682711 0)
(1.0293752 -0.062517126 0)
(1.0639604 -0.076948335 0)
(1.0962355 -0.078323368 0)
(1.124586 -0.074621132 0)
(1.1451 -0.068222876 0)
(1.1564731 -0.058398099 0)
(1.1625303 -0.046002812 0)
(1.166117 -0.033696538 0)
(1.1672682 -0.023351368 0)
(1.1662264 -0.01530941 0)
(1.1642785 -0.0093419834 0)
(1.1624698 -0.005215781 0)
(1.1610781 -0.0026079456 0)
(1.1600639 -0.0011092681 0)
(1.1593678 -0.00033237016 0)
(1.1589212 2.3065239e-05 0)
(1.1586639 0.00014768982 0)
(1.158532 0.00016416638 0)
(1.1584683 0.00013740784 0)
(1.1584407 0.00010041642 0)
(1.1584312 6.736032e-05 0)
(1.1584297 4.2413771e-05 0)
(1.1584312 2.5348819e-05 0)
(1.1584334 1.4462097e-05 0)
(1.1584352 7.8915242e-06 0)
(1.1584366 4.1136567e-06 0)
(1.1584375 2.0369034e-06 0)
(1.158438 9.4554309e-07 0)
(1.1584384 3.9997517e-07 0)
(1.1584386 1.4477547e-07 0)
(1.1584387 3.5185746e-08 0)
(1.1584387 -4.4498934e-09 0)
(1.1584388 -1.5040246e-08 0)
(1.1584388 -1.3370239e-08 0)
(1.1584388 -9.6445884e-09 0)
(1.1584388 -5.2748738e-09 0)
(1.1584388 -3.0157203e-09 0)
(1.1584388 -9.981079e-10 0)
(1.1584388 -6.4702832e-10 0)
(1.1584389 1.3096125e-10 0)
(1.1584389 -2.2536569e-10 0)
(1.1584389 2.19141e-10 0)
(1.1584389 -2.152251e-10 0)
(1.1584389 2.7164201e-10 0)
(1.1584389 -1.1716321e-10 0)
(1.1584389 3.9031068e-10 0)
(1.1584389 2.921277e-11 0)
(1.1584389 5.5692426e-10 0)
(1.1584389 1.6872892e-10 0)
(1.1584389 6.4215838e-10 0)
(1.1584389 2.2193167e-10 0)
(1.1584389 6.7936104e-10 0)
(1.1584389 2.1955817e-10 0)
(1.1584389 6.3019544e-10 0)
(1.1584389 1.6024636e-10 0)
(1.1584389 5.8628686e-10 0)
(1.1584389 1.1002751e-10 0)
(1.1584389 5.2058204e-10 0)
(1.1584389 5.9919242e-11 0)
(1.1584389 5.085768e-10 0)
(1.1584389 6.1635676e-11 0)
(1.1584389 5.1106423e-10 0)
(1.1584389 9.6993713e-11 0)
(1.1584389 5.9526133e-10 0)
(1.1584389 2.0718395e-10 0)
(1.1584389 7.0808475e-10 0)
(1.1584389 3.7205244e-10 0)
(1.1584389 8.9086906e-10 0)
(1.1584389 6.4911982e-10 0)
(1.1584389 9.8526072e-10 0)
(1.1584389 1.1415751e-09 0)
(1.1584389 5.520965e-10 0)
(1.1584389 2.8346233e-09 0)
(1.1584389 -2.7607511e-09 0)
(1.1584389 1.0365885e-08 0)
(1.1584388 -1.8819057e-08 0)
(1.1584391 4.3684807e-08 0)
(1.1584385 -8.6655391e-08 0)
(1.1584398 1.7604633e-07 0)
(1.1584371 -3.388419e-07 0)
(1.1584425 6.3203702e-07 0)
(1.1584318 -1.1396054e-06 0)
(1.1584523 1.9329268e-06 0)
(1.1584144 -3.1702587e-06 0)
(1.1584822 4.7254829e-06 0)
(1.1583651 -6.687631e-06 0)
(1.1585594 7.974198e-06 0)
(1.1582509 -8.2997632e-06 0)
(1.1587173 4.4063489e-06 0)
(1.1580512 2.9458599e-06 0)
(1.1589417 -1.8495383e-05 0)
(1.1578396 3.2202461e-05 0)
(1.1590788 -4.5380487e-05 0)
(1.1578371 3.5103432e-05 0)
(1.1588848 -3.0001553e-06 0)
(1.1581612 -3.0284787e-05 0)
(1.1584539 8.3695451e-05 0)
(1.1583903 -4.637078e-06 0)
(1.1583871 7.3133002e-05 0)
(1.0014998 -0.053693308 0)
(1.0363153 -0.10122863 0)
(1.0587331 -0.11024861 0)
(1.061555 -0.10361072 0)
(1.0530944 -0.09238504 0)
(1.0380136 -0.078967567 0)
(1.0190106 -0.062620785 0)
(1.0004551 -0.044992493 0)
(0.98502463 -0.029529676 0)
(0.97283479 -0.017994195 0)
(0.9635998 -0.010077409 0)
(0.9572222 -0.0049421753 0)
(0.95332914 -0.0019025114 0)
(0.9512005 -0.00036015573 0)
(0.95011937 0.00028130418 0)
(0.94964503 0.00045470472 0)
(0.94950193 0.00042529982 0)
(0.94951247 0.00033213084 0)
(0.94957628 0.00023199946 0)
(0.94964525 0.00014965178 0)
(0.94970175 9.0740434e-05 0)
(0.94974243 5.221168e-05 0)
(0.94976941 2.8610438e-05 0)
(0.94978622 1.4913516e-05 0)
(0.94979616 7.3470446e-06 0)
(0.94980178 3.3692599e-06 0)
(0.94980481 1.3876943e-06 0)
(0.94980638 4.6408716e-07 0)
(0.94980715 7.5211795e-08 0)
(0.9498075 -6.2058651e-08 0)
(0.94980766 -9.2244259e-08 0)
(0.94980772 -8.1217537e-08 0)
(0.94980773 -6.0473578e-08 0)
(0.94980773 -4.0544922e-08 0)
(0.94980773 -2.614736e-08 0)
(0.94980773 -1.5942176e-08 0)
(0.94980773 -1.0099409e-08 0)
(0.94980773 -6.1894693e-09 0)
(0.94980773 -4.4787116e-09 0)
(0.94980773 -3.1103736e-09 0)
(0.94980773 -2.8506923e-09 0)
(0.94980773 -2.236677e-09 0)
(0.94980773 -2.2903935e-09 0)
(0.94980773 -1.7686271e-09 0)
(0.94980774 -1.8526486e-09 0)
(0.94980773 -1.3408206e-09 0)
(0.94980774 -1.4109535e-09 0)
(0.94980774 -8.9180479e-10 0)
(0.94980774 -9.9973496e-10 0)
(0.94980774 -5.3866209e-10 0)
(0.94980774 -6.8398719e-10 0)
(0.94980774 -2.5653958e-10 0)
(0.94980774 -4.6137358e-10 0)
(0.94980774 -9.1094409e-11 0)
(0.94980774 -3.2077002e-10 0)
(0.94980774 3.8051035e-11 0)
(0.94980774 -2.2694445e-10 0)
(0.94980774 9.7635451e-11 0)
(0.94980774 -1.7408848e-10 0)
(0.94980774 1.5878343e-10 0)
(0.94980774 -1.256445e-10 0)
(0.94980774 1.8860596e-10 0)
(0.94980774 -8.7652846e-11 0)
(0.94980774 2.5074925e-10 0)
(0.94980774 -2.4159295e-11 0)
(0.94980774 3.0202982e-10 0)
(0.94980774 3.6654254e-11 0)
(0.94980774 3.929813e-10 0)
(0.94980774 1.0866351e-10 0)
(0.94980774 4.860641e-10 0)
(0.94980774 7.9003709e-11 0)
(0.94980774 7.374295e-10 0)
(0.94980774 -3.7695816e-10 0)
(0.94980775 1.8356909e-09 0)
(0.94980774 -2.8942897e-09 0)
(0.94980776 7.5078788e-09 0)
(0.9498077 -1.5196387e-08 0)
(0.94980784 3.3848771e-08 0)
(0.94980754 -6.9831967e-08 0)
(0.94980819 1.4421707e-07 0)
(0.94980684 -2.8631671e-07 0)
(0.94980961 5.5086567e-07 0)
(0.94980406 -1.0311406e-06 0)
(0.94981485 1.8247269e-06 0)
(0.94979444 -3.1478756e-06 0)
(0.94983176 4.9939534e-06 0)
(0.94976572 -7.6181062e-06 0)
(0.94987809 1.0195143e-05 0)
(0.9496944 -1.2426285e-05 0)
(0.94998072 1.0987079e-05 0)
(0.94955609 -5.0521675e-06 0)
(0.95014858 -1.1850273e-05 0)
(0.94937367 3.3403352e-05 0)
(0.95030595 -6.3050996e-05 0)
(0.94927915 6.6318076e-05 0)
(0.95026671 -4.7056693e-05 0)
(0.94943193 -1.9752e-05 0)
(0.94995332 9.4376987e-05 0)
(0.94967566 -4.7341233e-05 0)
(0.9498302 8.0833543e-05 0)
(0.9189169 -0.035772635 0)
(0.86292662 -0.062300295 0)
(0.78626461 -0.062195436 0)
(0.6960091 -0.052950001 0)
(0.61564868 -0.042110664 0)
(0.55226619 -0.03093973 0)
(0.5053595 -0.019750755 0)
(0.47338735 -0.010446553 0)
(0.4532909 -0.0044698379 0)
(0.44144492 -0.0013445042 0)
(0.43501512 0.00012808532 0)
(0.43202041 0.00073432383 0)
(0.43101905 0.00084944586 0)
(0.43100653 0.00069747141 0)
(0.43136079 0.00049005061 0)
(0.43177287 0.00031924347 0)
(0.4321225 0.0001960384 0)
(0.43238071 0.00011385022 0)
(0.43255482 6.2199445e-05 0)
(0.43266425 3.1819303e-05 0)
(0.43272909 1.5114503e-05 0)
(0.43276556 6.5061397e-06 0)
(0.43278508 2.3626527e-06 0)
(0.43279497 5.358921e-07 0)
(0.43279967 -1.6283692e-07 0)
(0.4328017 -3.5350392e-07 0)
(0.43280246 -3.4317121e-07 0)
(0.43280265 -2.7081037e-07 0)
(0.43280261 -1.891305e-07 0)
(0.43280252 -1.2275862e-07 0)
(0.43280242 -7.6482378e-08 0)
(0.43280234 -4.6057683e-08 0)
(0.43280229 -2.7396415e-08 0)
(0.43280226 -1.5670658e-08 0)
(0.43280223 -9.2691041e-09 0)
(0.43280222 -5.2746198e-09 0)
(0.43280221 -3.5047102e-09 0)
(0.43280221 -2.1507813e-09 0)
(0.43280221 -1.8398978e-09 0)
(0.43280221 -1.2690367e-09 0)
(0.4328022 -1.3434586e-09 0)
(0.4328022 -9.3572356e-10 0)
(0.4328022 -1.0765675e-09 0)
(0.4328022 -7.038437e-10 0)
(0.4328022 -8.5865246e-10 0)
(0.4328022 -4.860456e-10 0)
(0.4328022 -6.5211771e-10 0)
(0.4328022 -3.0631647e-10 0)
(0.4328022 -4.9629183e-10 0)
(0.4328022 -1.627908e-10 0)
(0.4328022 -3.6913314e-10 0)
(0.4328022 -6.4189215e-11 0)
(0.4328022 -2.9105059e-10 0)
(0.4328022 9.4726706e-12 0)
(0.4328022 -2.2713496e-10 0)
(0.4328022 5.5219349e-11 0)
(0.4328022 -1.9383959e-10 0)
(0.4328022 9.236644e-11 0)
(0.4328022 -1.6384417e-10 0)
(0.4328022 1.0819896e-10 0)
(0.4328022 -1.4945368e-10 0)
(0.4328022 1.2825076e-10 0)
(0.4328022 -1.3377109e-10 0)
(0.4328022 1.3552787e-10 0)
(0.4328022 -1.2658097e-10 0)
(0.4328022 1.4848447e-10 0)
(0.4328022 -1.1902229e-10 0)
(0.4328022 1.4116549e-10 0)
(0.4328022 -1.383928e-10 0)
(0.4328022 1.2790542e-10 0)
(0.4328022 -1.7068297e-10 0)
(0.4328022 1.4297438e-10 0)
(0.4328022 -3.1723385e-10 0)
(0.4328022 4.4710715e-10 0)
(0.43280219 -8.5498338e-10 0)
(0.4328022 1.959928e-09 0)
(0.43280219 -3.8709737e-09 0)
(0.43280222 8.7523982e-09 0)
(0.43280216 -1.7904913e-08 0)
(0.43280229 3.7704822e-08 0)
(0.432802 -7.5817324e-08 0)
(0.4328026 1.4812188e-07 0)
(0.43280139 -2.8596523e-07 0)
(0.43280374 5.131427e-07 0)
(0.43279925 -9.314882e-07 0)
(0.43280743 1.523145e-06 0)
(0.43279284 -2.5018703e-06 0)
(0.43281765 3.6325707e-06 0)
(0.43277672 -5.1235193e-06 0)
(0.43284077 5.9499179e-06 0)
(0.43274377 -6.2359026e-06 0)
(0.43288209 2.7564512e-06 0)
(0.43268846 2.4448884e-06 0)
(0.43294217 -1.770583e-05 0)
(0.43260534 2.7251463e-05 0)
(0.43301355 -4.5134e-05 0)
(0.43249605 2.8570121e-05 0)
(0.43302509 1.2471577e-05 0)
(0.43252326 -2.1854779e-05 0)
(0.43290921 0.00010616992 0)
)
;

boundaryField
{
    top
    {
        type            fixedValue;
        value           uniform (0 0 0);
    }
    inlet
    {
        type            fixedValue;
        value           uniform (1 0 0);
    }
    outlet
    {
        type            zeroGradient;
    }
    bottom
    {
        type            fixedValue;
        value           uniform (0 0 0);
    }
    back
    {
        type            empty;
    }
    front
    {
        type            empty;
    }
}


// ************************************************************************* //
