/*--------------------------------*- C++ -*----------------------------------*\
| =========                 |                                                 |
| \\      /  F ield         | OpenFOAM: The Open Source CFD Toolbox           |
|  \\    /   O peration     | Version:  v1812                                 |
|   \\  /    A nd           | Web:      www.OpenFOAM.com                      |
|    \\/     M anipulation  |                                                 |
\*---------------------------------------------------------------------------*/
FoamFile
{
    version     2.0;
    format      ascii;
    class       volScalarField;
    location    "3.75";
    object      p;
}
// * * * * * * * * * * * * * * * * * * * * * * * * * * * * * * * * * * * * * //

dimensions      [0 2 -2 0 0 0 0];


internalField   nonuniform List<scalar> 
1000
(
1.6888881
1.5678102
1.4718298
1.4081737
1.3596641
1.3171921
1.2796569
1.2474852
1.220085
1.1962476
1.1748536
1.1550902
1.1364138
1.1184753
1.1010616
1.0840498
1.0673724
1.0509933
1.0348923
1.0190568
1.0034764
0.98814155
0.97304266
0.95816998
0.94351389
0.92906494
0.91481405
0.9007524
0.88687135
0.87316225
0.85961623
0.84622405
0.83297597
0.81986171
0.80687048
0.79399108
0.78121208
0.76852204
0.75590968
0.7433642
0.73087539
0.71843387
0.70603115
0.69365978
0.68131331
0.66898628
0.65667418
0.64437337
0.63208093
0.61979459
0.60751264
0.59523376
0.58295702
0.57068172
0.5584074
0.5461337
0.53386041
0.52158737
0.50931449
0.4970417
0.48476897
0.47249627
0.46022358
0.44795091
0.43567824
0.42340557
0.41113291
0.39886025
0.38658758
0.37431492
0.36204226
0.3497696
0.33749693
0.32522427
0.31295161
0.30067895
0.28840629
0.27613362
0.26386096
0.2515883
0.23931564
0.22704298
0.21477032
0.20249766
0.190225
0.17795233
0.16567967
0.15340701
0.14113435
0.12886169
0.11658903
0.10431637
0.092043713
0.079771061
0.067498407
0.055225764
0.042953131
0.030680556
0.018408048
0.0061358097
1.5716684
1.5167394
1.4557869
1.4042192
1.3609492
1.3219809
1.2863946
1.254622
1.2266612
1.2018835
1.1794819
1.1587809
1.1392998
1.1207126
1.1028003
1.0854174
1.0684685
1.0518913
1.0356446
1.0196998
1.0040352
0.9886331
0.9734785
0.958558
0.94385957
0.92937225
0.915086
0.90099146
0.88707972
0.87334202
0.85976954
0.84635311
0.83308308
0.81994923
0.80694081
0.79404658
0.78125504
0.76855458
0.75593377
0.74338156
0.73088752
0.71844203
0.70603641
0.69366297
0.68131508
0.66898712
0.65667446
0.64437332
0.63208072
0.61979432
0.60751237
0.59523352
0.58295682
0.57068157
0.55840728
0.54613362
0.53386035
0.52158733
0.50931446
0.49704168
0.48476896
0.47249626
0.46022358
0.44795091
0.43567824
0.42340557
0.41113291
0.39886025
0.38658758
0.37431492
0.36204226
0.3497696
0.33749693
0.32522427
0.31295161
0.30067895
0.28840629
0.27613362
0.26386096
0.2515883
0.23931564
0.22704298
0.21477032
0.20249766
0.190225
0.17795233
0.16567967
0.15340701
0.14113435
0.12886169
0.11658903
0.10431637
0.092043707
0.079771052
0.067498383
0.055225725
0.042953047
0.030680425
0.018407825
0.0061356321
1.5108472
1.4846721
1.4462753
1.4051424
1.3660571
1.3294663
1.2951687
1.2634512
1.2345952
1.2084943
1.1847405
1.1628509
1.1424017
1.1230617
1.1045828
1.0867837
1.0695347
1.0527434
1.0363434
1.0202869
1.0045386
0.98907196
0.97386576
0.95890257
0.94416763
0.92964824
0.91533323
0.90121247
0.88727653
0.87351632
0.85992282
0.84648677
0.83319851
0.82004785
0.80702407
0.79411598
0.7813121
0.76860084
0.75597072
0.74341062
0.73091002
0.71845918
0.70604926
0.69367243
0.68132193
0.66899199
0.65667786
0.64437564
0.63208228
0.61979535
0.60751303
0.59523394
0.58295708
0.57068172
0.55840737
0.54613367
0.53386038
0.52158734
0.50931447
0.49704169
0.48476896
0.47249626
0.46022358
0.44795091
0.43567824
0.42340557
0.41113291
0.39886025
0.38658758
0.37431492
0.36204226
0.3497696
0.33749693
0.32522427
0.31295161
0.30067895
0.28840629
0.27613362
0.26386096
0.2515883
0.23931564
0.22704298
0.21477032
0.20249766
0.19022499
0.17795233
0.16567967
0.15340701
0.14113435
0.12886169
0.11658902
0.10431636
0.092043683
0.079771013
0.067498306
0.055225598
0.042952828
0.030680112
0.018407435
0.0061353697
1.4814387
1.4659406
1.4390707
1.4051468
1.3693458
1.3343946
1.3010926
1.2697397
1.2406091
1.2138178
1.1892306
1.1665388
1.1453878
1.1254602
1.1065035
1.088326
1.0707834
1.0537672
1.0371955
1.021007
1.0051561
0.98960864
0.97433788
0.95932226
0.9445439
0.92998784
0.91564125
0.90149275
0.88753191
0.87374887
0.86013405
0.84667783
0.83337033
0.82020124
0.80715983
0.79423498
0.78141531
0.76868933
0.75604567
0.74347331
0.73096177
0.71850131
0.70608309
0.69369922
0.68134283
0.66900807
0.65669004
0.64438475
0.63208897
0.6198002
0.60751649
0.59523637
0.58295876
0.57068287
0.55840814
0.54613417
0.5338607
0.52158755
0.5093146
0.49704177
0.48476901
0.47249629
0.4602236
0.44795092
0.43567824
0.42340558
0.41113291
0.39886025
0.38658758
0.37431492
0.36204226
0.3497696
0.33749693
0.32522427
0.31295161
0.30067895
0.28840629
0.27613363
0.26386096
0.2515883
0.23931564
0.22704298
0.21477032
0.20249766
0.19022499
0.17795233
0.16567967
0.15340701
0.14113434
0.12886168
0.11658901
0.10431634
0.09204365
0.07977096
0.067498207
0.055225439
0.042952581
0.030679786
0.018407081
0.0061351511
1.4687071
1.4567538
1.4345194
1.4042319
1.3703707
1.3363752
1.3036777
1.2726722
1.2435749
1.2165632
1.1916365
1.1685875
1.1471069
1.1268906
1.1076887
1.0893088
1.0716034
1.0544581
1.0377849
1.0215161
1.0056012
0.99000216
0.97468936
0.95963901
0.94483146
0.93025042
0.9158821
0.90171436
0.88773614
0.87393705
0.86030711
0.84683644
0.83351495
0.82033223
0.80727752
0.79433974
0.78150757
0.76876966
0.75611476
0.74353195
0.73101088
0.71854186
0.7061161
0.69372569
0.68136374
0.66902434
0.65670251
0.64439415
0.63209595
0.6198053
0.60752016
0.59523896
0.58296057
0.57068411
0.55840897
0.54613473
0.53386106
0.52158778
0.50931474
0.49704186
0.48476906
0.47249632
0.46022361
0.44795093
0.43567825
0.42340558
0.41113291
0.39886025
0.38658758
0.37431492
0.36204226
0.3497696
0.33749693
0.32522427
0.31295161
0.30067895
0.28840629
0.27613363
0.26386096
0.2515883
0.23931564
0.22704298
0.21477032
0.20249766
0.19022499
0.17795233
0.16567967
0.15340701
0.14113434
0.12886168
0.116589
0.10431633
0.092043627
0.079770922
0.06749814
0.055225335
0.042952428
0.030679593
0.018406886
0.0061350363
1.4687071
1.4567538
1.4345194
1.4042319
1.3703707
1.3363752
1.3036777
1.2726722
1.2435749
1.2165632
1.1916365
1.1685875
1.1471069
1.1268906
1.1076887
1.0893089
1.0716034
1.0544581
1.0377849
1.0215161
1.0056012
0.99000217
0.97468937
0.95963902
0.94483147
0.93025042
0.9158821
0.90171437
0.88773614
0.87393705
0.86030711
0.84683644
0.83351495
0.82033223
0.80727752
0.79433973
0.78150757
0.76876965
0.75611475
0.74353195
0.73101087
0.71854186
0.70611609
0.69372568
0.68136374
0.66902433
0.6567025
0.64439414
0.63209595
0.6198053
0.60752015
0.59523896
0.58296056
0.57068411
0.55840897
0.54613472
0.53386106
0.52158778
0.50931474
0.49704186
0.48476906
0.47249632
0.46022361
0.44795093
0.43567825
0.42340558
0.41113291
0.39886025
0.38658759
0.37431492
0.36204226
0.3497696
0.33749693
0.32522427
0.31295161
0.30067895
0.28840629
0.27613363
0.26386096
0.2515883
0.23931564
0.22704298
0.21477032
0.20249766
0.19022499
0.17795233
0.16567967
0.15340701
0.14113434
0.12886167
0.116589
0.10431633
0.092043628
0.079770922
0.067498141
0.055225335
0.042952429
0.030679595
0.018406888
0.0061350374
1.4814387
1.4659406
1.4390707
1.4051468
1.3693458
1.3343946
1.3010926
1.2697397
1.2406091
1.2138178
1.1892306
1.1665388
1.1453878
1.1254602
1.1065035
1.088326
1.0707834
1.0537672
1.0371955
1.021007
1.0051562
0.98960867
0.97433791
0.95932229
0.94454392
0.92998785
0.91564126
0.90149276
0.88753192
0.87374887
0.86013405
0.84667782
0.83337032
0.82020123
0.80715982
0.79423497
0.7814153
0.76868932
0.75604566
0.74347329
0.73096175
0.7185013
0.70608308
0.69369921
0.68134282
0.66900806
0.65669003
0.64438473
0.63208896
0.61980019
0.60751648
0.59523636
0.58295875
0.57068286
0.55840813
0.54613417
0.5338607
0.52158755
0.5093146
0.49704177
0.48476901
0.47249629
0.4602236
0.44795092
0.43567825
0.42340558
0.41113291
0.39886025
0.38658758
0.37431492
0.36204226
0.3497696
0.33749693
0.32522427
0.31295161
0.30067895
0.28840629
0.27613363
0.26386096
0.2515883
0.23931564
0.22704298
0.21477032
0.20249766
0.19022499
0.17795233
0.16567967
0.15340701
0.14113434
0.12886168
0.116589
0.10431634
0.092043651
0.079770962
0.067498209
0.05522544
0.042952584
0.030679791
0.018407087
0.0061351534
1.5108472
1.4846721
1.4462753
1.4051424
1.3660571
1.3294663
1.2951687
1.2634512
1.2345952
1.2084943
1.1847405
1.1628509
1.1424017
1.1230617
1.1045828
1.0867837
1.0695347
1.0527434
1.0363435
1.0202869
1.0045387
0.989072
0.97386579
0.9589026
0.94416765
0.92964826
0.91533325
0.90121249
0.88727654
0.87351632
0.85992281
0.84648676
0.8331985
0.82004784
0.80702405
0.79411597
0.78131209
0.76860082
0.7559707
0.7434106
0.73091
0.71845916
0.70604923
0.69367241
0.6813219
0.66899197
0.65667783
0.64437563
0.63208226
0.61979533
0.60751301
0.59523392
0.58295707
0.57068172
0.55840736
0.54613366
0.53386037
0.52158734
0.50931447
0.49704169
0.48476896
0.47249626
0.46022358
0.44795091
0.43567824
0.42340558
0.41113291
0.39886025
0.38658758
0.37431492
0.36204226
0.3497696
0.33749693
0.32522427
0.31295161
0.30067895
0.28840629
0.27613363
0.26386096
0.2515883
0.23931564
0.22704298
0.21477032
0.20249766
0.19022499
0.17795233
0.16567967
0.15340701
0.14113434
0.12886168
0.11658902
0.10431636
0.092043685
0.079771017
0.06749831
0.055225601
0.042952831
0.030680118
0.018407442
0.0061353723
1.5716684
1.5167394
1.4557869
1.4042192
1.3609491
1.3219808
1.2863946
1.254622
1.2266612
1.2018835
1.1794819
1.1587809
1.1392998
1.1207126
1.1028003
1.0854174
1.0684685
1.0518913
1.0356447
1.0196999
1.0040352
0.98863314
0.97347854
0.95855804
0.9438596
0.92937227
0.91508602
0.90099147
0.88707972
0.87334203
0.85976954
0.84635311
0.83308307
0.81994922
0.80694079
0.79404657
0.78125502
0.76855456
0.75593375
0.74338153
0.73088749
0.71844201
0.70603638
0.69366294
0.68131505
0.6689871
0.65667443
0.6443733
0.6320807
0.61979431
0.60751235
0.59523351
0.58295681
0.57068156
0.55840728
0.54613361
0.53386035
0.52158733
0.50931446
0.49704168
0.48476896
0.47249626
0.46022358
0.44795091
0.43567824
0.42340558
0.41113291
0.39886025
0.38658759
0.37431492
0.36204226
0.3497696
0.33749693
0.32522427
0.31295161
0.30067895
0.28840629
0.27613362
0.26386096
0.2515883
0.23931564
0.22704298
0.21477032
0.20249766
0.19022499
0.17795233
0.16567967
0.15340701
0.14113435
0.12886169
0.11658902
0.10431637
0.09204371
0.079771057
0.067498387
0.055225728
0.042953051
0.030680433
0.018407832
0.0061356349
1.6888881
1.5678102
1.4718297
1.4081736
1.3596641
1.3171921
1.2796569
1.2474852
1.220085
1.1962476
1.1748536
1.1550902
1.1364138
1.1184753
1.1010616
1.0840498
1.0673724
1.0509933
1.0348924
1.0190568
1.0034764
0.98814159
0.97304269
0.95817001
0.94351391
0.92906497
0.91481407
0.90075241
0.88687135
0.87316224
0.85961622
0.84622404
0.83297596
0.81986169
0.80687046
0.79399106
0.78121206
0.76852201
0.75590965
0.74336417
0.73087536
0.71843384
0.70603112
0.69365975
0.68131328
0.66898625
0.65667416
0.64437335
0.63208091
0.61979458
0.60751262
0.59523375
0.58295701
0.57068172
0.55840739
0.5461337
0.5338604
0.52158737
0.50931449
0.4970417
0.48476897
0.47249627
0.46022358
0.44795091
0.43567824
0.42340558
0.41113291
0.39886025
0.38658759
0.37431492
0.36204226
0.3497696
0.33749693
0.32522427
0.31295161
0.30067895
0.28840629
0.27613363
0.26386096
0.2515883
0.23931564
0.22704298
0.21477032
0.20249766
0.19022499
0.17795233
0.16567967
0.15340701
0.14113435
0.12886169
0.11658903
0.10431637
0.092043716
0.079771064
0.067498409
0.055225767
0.042953138
0.030680567
0.018408057
0.0061358123
)
;

boundaryField
{
    top
    {
        type            zeroGradient;
    }
    inlet
    {
        type            zeroGradient;
    }
    outlet
    {
        type            fixedValue;
        value           uniform 0;
    }
    bottom
    {
        type            zeroGradient;
    }
    back
    {
        type            empty;
    }
    front
    {
        type            empty;
    }
}


// ************************************************************************* //
